<event>
 8    1  0.6985133E-005  0.1697120E+03  0.7546771E-02  0.1185069E+00
         -1   -1    0    0    0  501 -0.00000000000E+00  0.00000000000E+00  0.48625554623E+02  0.48625554623E+02  0.00000000000E+00 0. -1.
          1   -1    0    0  501    0  0.00000000000E+00 -0.00000000000E+00 -0.52764334275E+03  0.52764334275E+03  0.00000000000E+00 0.  1.
         25    2    1    2    0    0 -0.11473077792E+03  0.19098979765E+01 -0.30958304691E+03  0.35304932948E+03  0.12504146112E+03 0.  0.
         23    2    1    2    0    0  0.11473077792E+03 -0.19098979765E+01 -0.16943474122E+03  0.22321956790E+03  0.89174238704E+02 0.  0.
          5    1    4    4  502    0  0.30247635440E+02  0.36978033645E+02 -0.33861652793E+02  0.58745178116E+02  0.47000000000E+01 0. -1.
         -5    1    4    4    0  502  0.84483142477E+02 -0.38887931622E+02 -0.13557308842E+03  0.16447438978E+03  0.47000000000E+01 0.  1.
          5    1    3    3  503    0 -0.12159213915E+02 -0.49596636826E+02 -0.64672404816E+02  0.82536554400E+02  0.47000000000E+01 0. -1.
         -5    1    3    3    0  503 -0.10257156400E+03  0.51506534802E+02 -0.24491064209E+03  0.27051277508E+03  0.47000000000E+01 0. -1.
<mgrwt>
<rscale>  0 0.16325564E+03</rscale>
<asrwt>0</asrwt>
<pdfrwt beam="1">  1        1 0.81175900E-01 0.16971201E+03</pdfrwt>
<pdfrwt beam="2">  1       -1 0.74808545E-02 0.16971201E+03</pdfrwt>
<totfact> 0.39235078E+03</totfact>
</mgrwt>
</event>
<event>
 8    1  0.6985133E-005  0.3770324E+03  0.7546771E-02  0.1052879E+00
          1   -1    0    0  501    0  0.00000000000E+00  0.00000000000E+00  0.10073365314E+04  0.10073365314E+04  0.00000000000E+00 0. -1.
         -1   -1    0    0    0  501 -0.00000000000E+00 -0.00000000000E+00 -0.22188766872E+03  0.22188766872E+03  0.00000000000E+00 0.  1.
         25    2    1    2    0    0  0.35568554101E+03 -0.12859355638E+01  0.77398673743E+03  0.86093491994E+03  0.12505842212E+03 0.  0.
         23    2    1    2    0    0 -0.35568554101E+03  0.12859355638E+01  0.11462125216E+02  0.36828928015E+03  0.94824869366E+02 0.  0.
          5    1    3    3  502    0  0.13792942125E+03  0.16494428196E+02  0.17597560501E+03  0.22424561304E+03  0.47000000000E+01 0. -1.
         -5    1    4    4    0  503 -0.22078067075E+03 -0.27794401861E+02  0.42905989106E+02  0.22667079047E+03  0.47000000000E+01 0.  1.
          5    1    4    4  503    0 -0.13490487026E+03  0.29080337425E+02 -0.31443863890E+02  0.14161848968E+03  0.47000000000E+01 0. -1.
         -5    1    3    3    0  502  0.21775611976E+03 -0.17780363760E+02  0.59801113242E+03  0.63668930690E+03  0.47000000000E+01 0. -1.
<mgrwt>
<rscale>  0 0.37478198E+03</rscale>
<asrwt>0</asrwt>
<pdfrwt beam="1">  1        1 0.15497485E+00 0.37703245E+03</pdfrwt>
<pdfrwt beam="2">  1       -1 0.34136565E-01 0.37703245E+03</pdfrwt>
<totfact> 0.12816098E+02</totfact>
</mgrwt>
</event>
<event>
 7    1  0.6985133E-005  0.1352667E+03  0.7546771E-02  0.1235522E+00
         -2   -1    0    0    0  501 -0.00000000000E+00  0.00000000000E+00  0.10116626232E+02  0.10116626232E+02  0.00000000000E+00 0.  1.
          2   -1    0    0  501    0  0.00000000000E+00 -0.00000000000E+00 -0.15130605362E+04  0.15130605362E+04  0.00000000000E+00 0. -1.
         23    2    1    2    0    0  0.27771099677E+02  0.42433878249E+02 -0.89756254026E+03  0.90286782436E+03  0.83545954942E+02 0.  0.
          5    1    1    2  502    0 -0.77800692637E+02 -0.27679177952E+02 -0.38625087147E+03  0.39500748142E+03  0.47000000000E+01 0. -1.
         -5    1    1    2    0  502  0.50029592960E+02 -0.14754700297E+02 -0.21913049824E+03  0.22530185665E+03  0.47000000000E+01 0. -1.
          5    1    3    3  503    0 -0.15301653045E+02  0.51067329070E+02 -0.47948081756E+03  0.48245824389E+03  0.47000000000E+01 0. -1.
         -5    1    3    3    0  503  0.43072752722E+02 -0.86334508210E+01 -0.41808172270E+03  0.42040958047E+03  0.47000000000E+01 0.  1.
<mgrwt>
<rscale>  0 0.12471070E+03</rscale>
<asrwt>0</asrwt>
<pdfrwt beam="1">  1        2 0.23277850E+00 0.13526667E+03</pdfrwt>
<pdfrwt beam="2">  1       -2 0.15564044E-02 0.13526667E+03</pdfrwt>
<totfact> 0.14545938E+04</totfact>
</mgrwt>
</event>
<event>
 8    1  0.6985133E-005  0.2547311E+03  0.7546771E-02  0.1112651E+00
         -1   -1    0    0    0  501 -0.00000000000E+00  0.00000000000E+00  0.37425582451E+02  0.37425582451E+02  0.00000000000E+00 0.  1.
          1   -1    0    0  501    0  0.00000000000E+00 -0.00000000000E+00 -0.16377130441E+04  0.16377130441E+04  0.00000000000E+00 0. -1.
         25    2    1    2    0    0 -0.13882304835E+03 -0.17320702766E+03 -0.84336096368E+03  0.88099128607E+03  0.12496166568E+03 0.  0.
         23    2    1    2    0    0  0.13882304835E+03  0.17320702766E+03 -0.75692649793E+03  0.79414734044E+03  0.91976963863E+02 0.  0.
          5    1    4    4  502    0  0.22066364974E+02  0.21364067642E+02 -0.25514330000E+03  0.25702828907E+03  0.47000000000E+01 0. -1.
         -5    1    3    3    0  503 -0.19964656741E+02 -0.95153180420E+02 -0.49886259445E+03  0.50827029562E+03  0.47000000000E+01 0.  1.
          5    1    3    3  503    0 -0.11885839160E+03 -0.78053847239E+02 -0.34449836923E+03  0.37272099045E+03  0.47000000000E+01 0.  1.
         -5    1    4    4    0  502  0.11675668337E+03  0.15184296002E+03 -0.50178319793E+03  0.53711905137E+03  0.47000000000E+01 0.  1.
<mgrwt>
<rscale>  0 0.25103762E+03</rscale>
<asrwt>0</asrwt>
<pdfrwt beam="1">  1        1 0.25195591E+00 0.25473110E+03</pdfrwt>
<pdfrwt beam="2">  1       -1 0.57577806E-02 0.25473110E+03</pdfrwt>
<totfact> 0.82729015E+02</totfact>
</mgrwt>
</event>
<event>
 8    1  0.6985133E-005  0.1595038E+03  0.7546771E-02  0.1197239E+00
         -1   -1    0    0    0  501 -0.00000000000E+00  0.00000000000E+00  0.16692413032E+03  0.16692413032E+03  0.00000000000E+00 0.  1.
          1   -1    0    0  501    0  0.00000000000E+00 -0.00000000000E+00 -0.12983472661E+03  0.12983472661E+03  0.00000000000E+00 0. -1.
         25    2    1    2    0    0 -0.25788563690E+02  0.95614664524E+02  0.75125973705E+01  0.15968060954E+03  0.12503696996E+03 0.  0.
         23    2    1    2    0    0  0.25788563690E+02 -0.95614664524E+02  0.29576806339E+02  0.13707824738E+03  0.90046900790E+02 0.  0.
          5    1    4    4  502    0 -0.13285668939E+02 -0.52582122507E+02 -0.22490668468E+02  0.58900838488E+02  0.47000000000E+01 0. -1.
         -5    1    4    4    0  502  0.39074232629E+02 -0.43032542017E+02  0.52067474806E+02  0.78177408889E+02  0.47000000000E+01 0.  1.
          5    1    3    3  503    0 -0.35338657296E+02  0.45014335153E+02  0.62039728918E+02  0.84534780020E+02  0.47000000000E+01 0. -1.
         -5    1    3    3    0  503  0.95500936057E+01  0.50600329370E+02 -0.54527131547E+02  0.75145829525E+02  0.47000000000E+01 0. -1.
<mgrwt>
<rscale>  0 0.15266249E+03</rscale>
<asrwt>0</asrwt>
<pdfrwt beam="1">  1        1 0.19974573E-01 0.15950379E+03</pdfrwt>
<pdfrwt beam="2">  1       -1 0.25680635E-01 0.15950379E+03</pdfrwt>
<totfact> 0.33080397E+03</totfact>
</mgrwt>
</event>
<event>
 8    1  0.6985133E-005  0.1799272E+03  0.7546771E-02  0.1173626E+00
          1   -1    0    0  501    0  0.00000000000E+00  0.00000000000E+00  0.69863836641E+03  0.69863836641E+03  0.00000000000E+00 0. -1.
         -1   -1    0    0    0  501 -0.00000000000E+00 -0.00000000000E+00 -0.41020308785E+02  0.41020308785E+02  0.00000000000E+00 0.  1.
         25    2    1    2    0    0 -0.80598836125E+02  0.10121542758E+03  0.37684831083E+03  0.41759840745E+03  0.12503217730E+03 0.  0.
         23    2    1    2    0    0  0.80598836125E+02 -0.10121542758E+03  0.28076974679E+03  0.32206026774E+03  0.90279732960E+02 0.  0.
          5    1    4    4  502    0  0.58184615111E+02 -0.46877446154E+01  0.10413226219E+03  0.11946983893E+03  0.47000000000E+01 0. -1.
         -5    1    3    3    0  503 -0.10776317994E+03  0.91866982852E+02  0.35156507958E+03  0.37904160809E+03  0.47000000000E+01 0. -1.
          5    1    3    3  503    0  0.27164343814E+02  0.93484447253E+01  0.25283231258E+02  0.38556799354E+02  0.47000000000E+01 0. -1.
         -5    1    4    4    0  502  0.22414221014E+02 -0.96527682962E+02  0.17663748460E+03  0.20259042881E+03  0.47000000000E+01 0.  1.
<mgrwt>
<rscale>  0 0.17411179E+03</rscale>
<asrwt>0</asrwt>
<pdfrwt beam="1">  1        1 0.10748282E+00 0.17992715E+03</pdfrwt>
<pdfrwt beam="2">  1       -1 0.63108173E-02 0.17992715E+03</pdfrwt>
<totfact> 0.34481847E+03</totfact>
</mgrwt>
</event>
<event>
 7    1  0.6985133E-005  0.1378022E+03  0.7546771E-02  0.1227409E+00
         -2   -1    0    0    0  501 -0.00000000000E+00  0.00000000000E+00  0.68720737134E+03  0.68720737134E+03  0.00000000000E+00 0.  1.
          2   -1    0    0  501    0  0.00000000000E+00 -0.00000000000E+00 -0.24018555652E+02  0.24018555652E+02  0.00000000000E+00 0. -1.
         23    2    1    2    0    0 -0.55302308806E+02 -0.15587691838E+02  0.39330341133E+03  0.40819526045E+03  0.92921880043E+02 0.  0.
          5    1    3    3  502    0 -0.65943199525E+02 -0.35818894843E+02  0.35844339141E+03  0.36624480015E+03  0.47000000000E+01 0. -1.
         -5    1    3    3    0  502  0.10640890719E+02  0.20231203005E+02  0.34860019927E+02  0.41950460303E+02  0.47000000000E+01 0.  1.
          5    1    1    2  503    0 -0.75692808865E+00  0.51020871608E+02  0.43924837133E+02  0.67492100256E+02  0.47000000000E+01 0.  1.
         -5    1    1    2    0  503  0.56059236894E+02 -0.35433179770E+02  0.22596056722E+03  0.23553856629E+03  0.47000000000E+01 0.  1.
<mgrwt>
<rscale>  0 0.13003151E+03</rscale>
<asrwt>0</asrwt>
<pdfrwt beam="1">  1        2 0.36951629E-02 0.13780223E+03</pdfrwt>
<pdfrwt beam="2">  1       -2 0.10572420E+00 0.13780223E+03</pdfrwt>
<totfact> 0.17084965E+03</totfact>
</mgrwt>
</event>
<event>
 7    1  0.6985133E-005  0.1780405E+03  0.7546771E-02  0.1175421E+00
          1   -1    0    0  501    0  0.00000000000E+00  0.00000000000E+00  0.12992101921E+04  0.12992101921E+04  0.00000000000E+00 0. -1.
         -1   -1    0    0    0  501 -0.00000000000E+00 -0.00000000000E+00 -0.22963579077E+02  0.22963579077E+02  0.00000000000E+00 0.  1.
         23    2    1    2    0    0  0.12264129226E+03  0.33298263025E+02  0.43360408309E+03  0.46092767403E+03  0.91061292123E+02 0.  0.
          5    1    3    3  502    0  0.93946379903E+02  0.63843367191E+02  0.33175972789E+03  0.35069716976E+03  0.47000000000E+01 0. -1.
         -5    1    1    2    0  503 -0.95937887369E+02  0.23717006179E+02  0.67305591206E+03  0.68028885436E+03  0.47000000000E+01 0. -1.
          5    1    1    2  503    0 -0.26703404893E+02 -0.57015269204E+02  0.16958661788E+03  0.18095724280E+03  0.47000000000E+01 0. -1.
         -5    1    3    3    0  502  0.28694912359E+02 -0.30545104166E+02  0.10184435520E+03  0.11023050427E+03  0.47000000000E+01 0.  1.
<mgrwt>
<rscale>  0 0.17234779E+03</rscale>
<asrwt>0</asrwt>
<pdfrwt beam="1">  1        1 0.19987843E+00 0.17804046E+03</pdfrwt>
<pdfrwt beam="2">  1       -1 0.35328593E-02 0.17804046E+03</pdfrwt>
<totfact> 0.28769669E+03</totfact>
</mgrwt>
</event>
<event>
 7    1  0.6985133E-005  0.1656517E+03  0.7546771E-02  0.1189382E+00
         -2   -1    0    0    0  501 -0.00000000000E+00  0.00000000000E+00  0.12491173209E+02  0.12491173209E+02  0.00000000000E+00 0.  1.
          2   -1    0    0  501    0  0.00000000000E+00 -0.00000000000E+00 -0.18954523148E+04  0.18954523148E+04  0.00000000000E+00 0. -1.
         23    2    1    2    0    0 -0.93950225519E+02 -0.55089604077E+02 -0.89153632178E+03  0.90277501943E+03  0.91127456403E+02 0.  0.
          5    1    1    2  502    0 -0.13668859074E+02 -0.25101177655E+02 -0.25077937999E+03  0.25244661665E+03  0.47000000000E+01 0. -1.
         -5    1    1    2    0  502  0.10761908459E+03  0.80190781732E+02 -0.74064543987E+03  0.75272185197E+03  0.47000000000E+01 0.  1.
          5    1    3    3  503    0 -0.80081709857E+02 -0.20577319895E+01 -0.65646750143E+03  0.66135390295E+03  0.47000000000E+01 0. -1.
         -5    1    3    3    0  503 -0.13868515662E+02 -0.53031872087E+02 -0.23506882035E+03  0.24142111649E+03  0.47000000000E+01 0.  1.
<mgrwt>
<rscale>  0 0.15939460E+03</rscale>
<asrwt>0</asrwt>
<pdfrwt beam="1">  1        2 0.29160796E+00 0.16565167E+03</pdfrwt>
<pdfrwt beam="2">  1       -2 0.19217195E-02 0.16565167E+03</pdfrwt>
<totfact> 0.68550828E+03</totfact>
</mgrwt>
</event>
<event>
 8    1  0.6985133E-005  0.1585888E+03  0.7546771E-02  0.1198010E+00
          1   -1    0    0  501    0  0.00000000000E+00  0.00000000000E+00  0.26517566971E+02  0.26517566971E+02  0.00000000000E+00 0. -1.
         -1   -1    0    0    0  501 -0.00000000000E+00 -0.00000000000E+00 -0.81414828982E+03  0.81414828982E+03  0.00000000000E+00 0.  1.
         25    2    1    2    0    0 -0.59549890848E+02  0.77264462634E+02 -0.46710593875E+03  0.49329338837E+03  0.12503768355E+03 0.  0.
         23    2    1    2    0    0  0.59549890848E+02 -0.77264462634E+02 -0.32052478410E+03  0.34737246842E+03  0.91736077470E+02 0.  0.
          5    1    4    4  502    0  0.30236313532E+02 -0.55425302304E+02 -0.70947346306E+02  0.95088457445E+02  0.47000000000E+01 0. -1.
         -5    1    3    3    0  503 -0.29452835019E+02  0.34706062581E+02 -0.42119422556E+03  0.42367280526E+03  0.47000000000E+01 0. -1.
          5    1    3    3  503    0 -0.30097055829E+02  0.42558400053E+02 -0.45911713190E+02  0.69620583111E+02  0.47000000000E+01 0. -1.
         -5    1    4    4    0  502  0.29313577316E+02 -0.21839160330E+02 -0.24957743779E+03  0.25228401097E+03  0.47000000000E+01 0.  1.
<mgrwt>
<rscale>  0 0.15202200E+03</rscale>
<asrwt>0</asrwt>
<pdfrwt beam="1">  1        1 0.40796264E-02 0.15858880E+03</pdfrwt>
<pdfrwt beam="2">  1       -1 0.12525356E+00 0.15858880E+03</pdfrwt>
<totfact> 0.12974585E+03</totfact>
</mgrwt>
</event>
<event>
 8    1  0.6985133E-005  0.1377121E+03  0.7546771E-02  0.1228231E+00
          1   -1    0    0  501    0  0.00000000000E+00  0.00000000000E+00  0.52614047227E+03  0.52614047227E+03  0.00000000000E+00 0. -1.
         -1   -1    0    0    0  501 -0.00000000000E+00 -0.00000000000E+00 -0.34170551646E+02  0.34170551646E+02  0.00000000000E+00 0.  1.
         25    2    1    2    0    0 -0.19500502621E+02 -0.54513981343E+02  0.15881827487E+03  0.21020912994E+03  0.12495035059E+03 0.  0.
         23    2    1    2    0    0  0.19500502621E+02  0.54513981343E+02  0.33315164576E+03  0.35010189398E+03  0.90715342321E+02 0.  0.
          5    1    4    4  502    0 -0.10893349134E+01  0.49040364497E+02  0.32171843433E+03  0.32547040571E+03  0.47000000000E+01 0. -1.
         -5    1    3    3    0  503  0.95215135721E+01  0.18242053290E+02 -0.10511649563E+02  0.23580002236E+02  0.47000000000E+01 0. -1.
          5    1    3    3  503    0 -0.29022016193E+02 -0.72756034632E+02  0.16932992443E+03  0.18662912770E+03  0.47000000000E+01 0. -1.
         -5    1    4    4    0  502  0.20589837534E+02  0.54736168457E+01  0.11433211424E+02  0.24631488272E+02  0.47000000000E+01 0.  1.
<mgrwt>
<rscale>  0 0.12947888E+03</rscale>
<asrwt>0</asrwt>
<pdfrwt beam="1">  1        1 0.80944682E-01 0.13771214E+03</pdfrwt>
<pdfrwt beam="2">  1       -1 0.52570083E-02 0.13771214E+03</pdfrwt>
<totfact> 0.66100603E+03</totfact>
</mgrwt>
</event>
<event>
 8    1  0.6985133E-005  0.1273518E+03  0.7546771E-02  0.1246286E+00
         -2   -1    0    0    0  501 -0.00000000000E+00  0.00000000000E+00  0.25800616752E+03  0.25800616752E+03  0.00000000000E+00 0.  1.
          2   -1    0    0  501    0  0.00000000000E+00 -0.00000000000E+00 -0.48934771779E+02  0.48934771779E+02  0.00000000000E+00 0. -1.
         25    2    1    2    0    0 -0.23687457357E+02 -0.46649484676E+01  0.14540099621E+03  0.19328716767E+03  0.12504248120E+03 0.  0.
         23    2    1    2    0    0  0.23687457357E+02  0.46649484676E+01  0.63670399523E+02  0.11365377163E+03  0.90996717798E+02 0.  0.
          5    1    4    4  502    0 -0.26763545798E+02  0.42366616687E+01 -0.53633106610E+01  0.28019489414E+02  0.47000000000E+01 0. -1.
         -5    1    3    3    0  503 -0.24620584380E+02 -0.48383717545E+02  0.16263864453E+02  0.56866163803E+02  0.47000000000E+01 0.  1.
          5    1    3    3  503    0  0.93312702320E+00  0.43718769078E+02  0.12913713176E+03  0.13642100386E+03  0.47000000000E+01 0.  1.
         -5    1    4    4    0  502  0.50451003154E+02  0.42828679889E+00  0.69033710184E+02  0.85634282216E+02  0.47000000000E+01 0.  1.
<mgrwt>
<rscale>  0 0.11808724E+03</rscale>
<asrwt>0</asrwt>
<pdfrwt beam="1">  1        2 0.75284266E-02 0.12735179E+03</pdfrwt>
<pdfrwt beam="2">  1       -2 0.39693256E-01 0.12735179E+03</pdfrwt>
<totfact> 0.52505808E+03</totfact>
</mgrwt>
</event>
<event>
 8    1  0.6985133E-005  0.1298134E+03  0.7546771E-02  0.1241672E+00
         -2   -1    0    0    0  501 -0.00000000000E+00  0.00000000000E+00  0.88058174380E+02  0.88058174380E+02  0.00000000000E+00 0.  1.
          2   -1    0    0  501    0  0.00000000000E+00 -0.00000000000E+00 -0.15636848192E+03  0.15636848192E+03  0.00000000000E+00 0. -1.
         25    2    1    2    0    0 -0.30782118945E+02  0.16345396672E+02 -0.68682975211E+02  0.14686339682E+03  0.12504717271E+03 0.  0.
         23    2    1    2    0    0  0.30782118945E+02 -0.16345396672E+02  0.37266767114E+00  0.97563259478E+02  0.91124858736E+02 0.  0.
          5    1    3    3  502    0 -0.62518675941E+02 -0.78138199224E+01  0.45467985526E+01  0.63343539531E+02  0.47000000000E+01 0. -1.
         -5    1    4    4    0  503  0.42256389473E+02  0.21828023260E+02  0.21269994365E+02  0.52312213784E+02  0.47000000000E+01 0.  1.
          5    1    4    4  503    0 -0.11474270528E+02 -0.38173419932E+02 -0.20897326694E+02  0.45251045694E+02  0.47000000000E+01 0. -1.
         -5    1    3    3    0  502  0.31736556996E+02  0.24159216594E+02 -0.73229773764E+02  0.83519857291E+02  0.47000000000E+01 0. -1.
<mgrwt>
<rscale>  0 0.12086771E+03</rscale>
<asrwt>0</asrwt>
<pdfrwt beam="1">  1        2 0.24056690E-01 0.12981335E+03</pdfrwt>
<pdfrwt beam="2">  1       -2 0.13547411E-01 0.12981335E+03</pdfrwt>
<totfact> 0.85713962E+03</totfact>
</mgrwt>
</event>
<event>
 8    1  0.6985133E-005  0.1255166E+03  0.7546771E-02  0.1249396E+00
          2   -1    0    0  501    0  0.00000000000E+00  0.00000000000E+00  0.37584678659E+03  0.37584678659E+03  0.00000000000E+00 0. -1.
         -2   -1    0    0    0  501 -0.00000000000E+00 -0.00000000000E+00 -0.33077147095E+02  0.33077147095E+02  0.00000000000E+00 0.  1.
         25    2    1    2    0    0  0.78650331270E+01 -0.73846296326E+01  0.23920939913E+03  0.27013986338E+03  0.12505205978E+03 0.  0.
         23    2    1    2    0    0 -0.78650331270E+01  0.73846296326E+01  0.10356024036E+03  0.13878407030E+03  0.91760030973E+02 0.  0.
          5    1    3    3  502    0 -0.24498604258E+02 -0.43548083640E+02  0.20378096714E+03  0.20986993536E+03  0.47000000000E+01 0. -1.
         -5    1    3    3    0  502  0.32363637385E+02  0.36163454007E+02  0.35428431986E+02  0.60269928020E+02  0.47000000000E+01 0.  1.
          5    1    4    4  503    0 -0.45230651270E+02 -0.81501843579E+01  0.31210003594E+02  0.55752951883E+02  0.47000000000E+01 0. -1.
         -5    1    4    4    0  503  0.37365618143E+02  0.15534813991E+02  0.72350236771E+02  0.83031118418E+02  0.47000000000E+01 0.  1.
<mgrwt>
<rscale>  0 0.11626111E+03</rscale>
<asrwt>0</asrwt>
<pdfrwt beam="1">  1        2 0.57822579E-01 0.12551657E+03</pdfrwt>
<pdfrwt beam="2">  1       -2 0.50887921E-02 0.12551657E+03</pdfrwt>
<totfact> 0.15237647E+04</totfact>
</mgrwt>
</event>
<event>
 8    1  0.6985133E-005  0.1359773E+03  0.7546771E-02  0.1231043E+00
         -2   -1    0    0    0  501 -0.00000000000E+00  0.00000000000E+00  0.27924046742E+02  0.27924046742E+02  0.00000000000E+00 0.  1.
          2   -1    0    0  501    0  0.00000000000E+00 -0.00000000000E+00 -0.52613788028E+03  0.52613788028E+03  0.00000000000E+00 0. -1.
         25    2    1    2    0    0 -0.40620157279E+02 -0.35075751061E+02 -0.30479870263E+03  0.33375451662E+03  0.12493807567E+03 0.  0.
         23    2    1    2    0    0  0.40620157279E+02  0.35075751061E+02 -0.19341513091E+03  0.22030741040E+03  0.90805488395E+02 0.  0.
          5    1    3    3  502    0 -0.70146518467E+02  0.93232891855E+01 -0.23693758297E+03  0.24732360583E+03  0.47000000000E+01 0.  1.
         -5    1    4    4    0  503 -0.14076865289E+02 -0.20654510407E+02 -0.31510120191E+02  0.40493760148E+02  0.47000000000E+01 0.  1.
          5    1    4    4  503    0  0.54697022568E+02  0.55730261468E+02 -0.16190501072E+03  0.17981365025E+03  0.47000000000E+01 0. -1.
         -5    1    3    3    0  502  0.29526361189E+02 -0.44399040247E+02 -0.67861119656E+02  0.86430910795E+02  0.47000000000E+01 0.  1.
<mgrwt>
<rscale>  0 0.12761212E+03</rscale>
<asrwt>0</asrwt>
<pdfrwt beam="1">  1        2 0.80944295E-01 0.13597731E+03</pdfrwt>
<pdfrwt beam="2">  1       -2 0.42960069E-02 0.13597731E+03</pdfrwt>
<totfact> 0.13735738E+04</totfact>
</mgrwt>
</event>
<event>
 7    1  0.6985133E-005  0.1365891E+03  0.7546771E-02  0.1226991E+00
         -2   -1    0    0    0  501 -0.00000000000E+00  0.00000000000E+00  0.16006294754E+02  0.16006294754E+02  0.00000000000E+00 0.  1.
          2   -1    0    0  501    0  0.00000000000E+00 -0.00000000000E+00 -0.10101399806E+04  0.10101399806E+04  0.00000000000E+00 0. -1.
         23    2    1    2    0    0 -0.14871669514E+01  0.54733230070E+02 -0.54839994486E+03  0.55995409132E+03  0.99036088021E+02 0.  0.
          5    1    3    3  502    0 -0.41829760510E+02  0.34155661832E+02 -0.42461435777E+03  0.42806048746E+03  0.47000000000E+01 0. -1.
         -5    1    1    2    0  503 -0.46676623662E+02  0.15468216043E+02 -0.12751844447E+03  0.13675166027E+03  0.47000000000E+01 0.  1.
          5    1    1    2  503    0  0.48163790613E+02 -0.70201446113E+02 -0.31821529647E+03  0.32944052372E+03  0.47000000000E+01 0.  1.
         -5    1    3    3    0  502  0.40342593559E+02  0.20577568238E+02 -0.12378558709E+03  0.13189360387E+03  0.47000000000E+01 0.  1.
<mgrwt>
<rscale>  0 0.13031341E+03</rscale>
<asrwt>0</asrwt>
<pdfrwt beam="1">  1        2 0.15540610E+00 0.13658911E+03</pdfrwt>
<pdfrwt beam="2">  1       -2 0.24625076E-02 0.13658911E+03</pdfrwt>
<totfact> 0.14113655E+04</totfact>
</mgrwt>
</event>
<event>
 8    1  0.6985133E-005  0.1280057E+03  0.7546771E-02  0.1245264E+00
          2   -1    0    0  501    0  0.00000000000E+00  0.00000000000E+00  0.14372272094E+03  0.14372272094E+03  0.00000000000E+00 0. -1.
         -2   -1    0    0    0  501 -0.00000000000E+00 -0.00000000000E+00 -0.89726724590E+02  0.89726724590E+02  0.00000000000E+00 0.  1.
         25    2    1    2    0    0 -0.72967838125E+00 -0.27744184456E+02  0.80755219505E+01  0.12826013135E+03  0.12496069397E+03 0.  0.
         23    2    1    2    0    0  0.72967838125E+00  0.27744184456E+02  0.45920474398E+02  0.10518931418E+03  0.90475574861E+02 0.  0.
          5    1    3    3  502    0 -0.20730626850E+02 -0.25322225041E+01 -0.54050786648E+02  0.58135605077E+02  0.47000000000E+01 0.  1.
         -5    1    3    3    0  502  0.20000948469E+02 -0.25211961952E+02  0.62126308599E+02  0.70124526275E+02  0.47000000000E+01 0.  1.
          5    1    4    4  503    0  0.37963808511E+02  0.28923487543E+02  0.47645229834E+02  0.67601603637E+02  0.47000000000E+01 0. -1.
         -5    1    4    4    0  503 -0.37234130130E+02 -0.11793030875E+01 -0.17247554360E+01  0.37587710540E+02  0.47000000000E+01 0.  1.
<mgrwt>
<rscale>  0 0.11869618E+03</rscale>
<asrwt>0</asrwt>
<pdfrwt beam="1">  1        2 0.22111188E-01 0.12800565E+03</pdfrwt>
<pdfrwt beam="2">  1       -2 0.13804111E-01 0.12800565E+03</pdfrwt>
<totfact> 0.91217577E+03</totfact>
</mgrwt>
</event>
<event>
 8    1  0.6985133E-005  0.1514928E+03  0.7546771E-02  0.1207182E+00
          1   -1    0    0  501    0  0.00000000000E+00  0.00000000000E+00  0.47933363515E+02  0.47933363515E+02  0.00000000000E+00 0. -1.
         -1   -1    0    0    0  501 -0.00000000000E+00 -0.00000000000E+00 -0.53152918842E+03  0.53152918842E+03  0.00000000000E+00 0.  1.
         25    2    1    2    0    0 -0.77802471313E+02  0.35939761462E+02 -0.40140116119E+03  0.42903723864E+03  0.12492065059E+03 0.  0.
         23    2    1    2    0    0  0.77802471313E+02 -0.35939761462E+02 -0.82194663723E+02  0.15042531330E+03  0.92341329531E+02 0.  0.
          5    1    4    4  502    0  0.63330276325E+02  0.19323095417E+02 -0.29776966356E+02  0.72752069670E+02  0.47000000000E+01 0. -1.
         -5    1    4    4    0  502  0.14472194988E+02 -0.55262856879E+02 -0.52417697367E+02  0.77673243627E+02  0.47000000000E+01 0.  1.
          5    1    3    3  503    0 -0.53123397146E+02  0.75145118249E+02 -0.17374651368E+03  0.19666932943E+03  0.47000000000E+01 0. -1.
         -5    1    3    3    0  503 -0.24679074168E+02 -0.39205356787E+02 -0.22765464750E+03  0.23236790921E+03  0.47000000000E+01 0. -1.
<mgrwt>
<rscale>  0 0.14466792E+03</rscale>
<asrwt>0</asrwt>
<pdfrwt beam="1">  1        1 0.73743635E-02 0.15149277E+03</pdfrwt>
<pdfrwt beam="2">  1       -1 0.81773723E-01 0.15149277E+03</pdfrwt>
<totfact> 0.14862111E+03</totfact>
</mgrwt>
</event>
<event>
 7    1  0.6985133E-005  0.1253045E+03  0.7546771E-02  0.1249631E+00
         -2   -1    0    0    0  501 -0.00000000000E+00  0.00000000000E+00  0.20468307985E+03  0.20468307985E+03  0.00000000000E+00 0.  1.
          2   -1    0    0  501    0  0.00000000000E+00 -0.00000000000E+00 -0.64468766682E+02  0.64468766682E+02  0.00000000000E+00 0. -1.
         23    2    1    2    0    0 -0.10966706470E+01 -0.10549031887E+02  0.10310721180E+03  0.13846845944E+03  0.91814663178E+02 0.  0.
          5    1    1    2  502    0 -0.30207298825E+02  0.59002247317E+02  0.27932749124E+02  0.72083802372E+02  0.47000000000E+01 0.  1.
         -5    1    3    3    0  503  0.37376204809E+02 -0.29709613533E+02  0.65325858295E+02  0.81050598913E+02  0.47000000000E+01 0.  1.
          5    1    3    3  503    0 -0.38472875456E+02  0.19160581646E+02  0.37781353503E+02  0.57417860526E+02  0.47000000000E+01 0. -1.
         -5    1    1    2    0  502  0.31303969472E+02 -0.48453215430E+02  0.91743522441E+01  0.58599584720E+02  0.47000000000E+01 0.  1.
<mgrwt>
<rscale>  0 0.11612414E+03</rscale>
<asrwt>0</asrwt>
<pdfrwt beam="1">  1        2 0.99182719E-02 0.12530447E+03</pdfrwt>
<pdfrwt beam="2">  1       -2 0.31489704E-01 0.12530447E+03</pdfrwt>
<totfact> 0.57096104E+03</totfact>
</mgrwt>
</event>
<event>
 8    1  0.6985133E-005  0.1312800E+03  0.7546771E-02  0.1239130E+00
          2   -1    0    0  501    0  0.00000000000E+00  0.00000000000E+00  0.10782743650E+03  0.10782743650E+03  0.00000000000E+00 0. -1.
         -2   -1    0    0    0  501 -0.00000000000E+00 -0.00000000000E+00 -0.12734082697E+03  0.12734082697E+03  0.00000000000E+00 0.  1.
         25    2    1    2    0    0 -0.39742889696E+02 -0.39810932051E+01 -0.31828508862E+02  0.13508328736E+03  0.12505636394E+03 0.  0.
         23    2    1    2    0    0  0.39742889696E+02  0.39810932051E+01  0.12315118396E+02  0.10008497612E+03  0.90939506921E+02 0.  0.
          5    1    4    4  502    0  0.60077917753E+02  0.25112763618E+02  0.21924957135E+02  0.68867995785E+02  0.47000000000E+01 0. -1.
         -5    1    3    3    0  503 -0.76553042918E+02  0.16932192950E+02 -0.44969044397E+02  0.90506201402E+02  0.47000000000E+01 0.  1.
          5    1    3    3  503    0  0.36810153223E+02 -0.20913286155E+02  0.13140535535E+02  0.44577085955E+02  0.47000000000E+01 0.  1.
         -5    1    4    4    0  502 -0.20335028057E+02 -0.21131670413E+02 -0.96098387397E+01  0.31216980333E+02  0.47000000000E+01 0.  1.
<mgrwt>
<rscale>  0 0.12243708E+03</rscale>
<asrwt>0</asrwt>
<pdfrwt beam="1">  1        2 0.16588836E-01 0.13128001E+03</pdfrwt>
<pdfrwt beam="2">  1       -2 0.19590896E-01 0.13128001E+03</pdfrwt>
<totfact> 0.71079019E+03</totfact>
</mgrwt>
</event>
<event>
 8    1  0.8376121E-005  0.3335621E+03  0.7546771E-02  0.1070736E+00
          2   -1    0    0  501    0  0.00000000000E+00  0.00000000000E+00  0.19458395287E+03  0.19458395287E+03  0.00000000000E+00 0. -1.
         -2   -1    0    0    0  501 -0.00000000000E+00 -0.00000000000E+00 -0.83322189833E+03  0.83322189833E+03  0.00000000000E+00 0.  1.
         25    2    1    2    0    0  0.58598781184E+02 -0.30363411885E+03 -0.62019504126E+03  0.70420562758E+03  0.12504471771E+03 0.  0.
         23    2    1    2    0    0 -0.58598781184E+02  0.30363411885E+03 -0.18442904208E+02  0.32360022362E+03  0.93538594814E+02 0.  0.
          5    1    3    3  502    0  0.64760811445E+01 -0.17779307719E+03 -0.46371214966E+03  0.49669242562E+03  0.47000000000E+01 0.  1.
         -5    1    3    3    0  502  0.52122700040E+02 -0.12584104166E+03 -0.15648289160E+03  0.20751320196E+03  0.47000000000E+01 0.  1.
          5    1    4    4  503    0 -0.74275890017E+02  0.20079297675E+03  0.13803566328E+02  0.21458647626E+03  0.47000000000E+01 0. -1.
         -5    1    4    4    0  503  0.15677108833E+02  0.10284114210E+03 -0.32246470536E+02  0.10901374735E+03  0.47000000000E+01 0.  1.
<mgrwt>
<rscale>  0 0.33090864E+03</rscale>
<asrwt>0</asrwt>
<pdfrwt beam="1">  1        2 0.29935993E-01 0.33356210E+03</pdfrwt>
<pdfrwt beam="2">  1       -2 0.12818798E+00 0.33356210E+03</pdfrwt>
<totfact> 0.83082999E+01</totfact>
</mgrwt>
</event>
<event>
 8    1  0.6985133E-005  0.1614674E+03  0.7546771E-02  0.1194980E+00
         -1   -1    0    0    0  501 -0.00000000000E+00  0.00000000000E+00  0.35175678043E+02  0.35175678043E+02  0.00000000000E+00 0.  1.
          1   -1    0    0  501    0  0.00000000000E+00 -0.00000000000E+00 -0.62736857162E+03  0.62736857162E+03  0.00000000000E+00 0. -1.
         25    2    1    2    0    0  0.70071183255E+02  0.74464070156E+02 -0.31413317614E+03  0.35320162245E+03  0.12496745687E+03 0.  0.
         23    2    1    2    0    0 -0.70071183255E+02 -0.74464070156E+02 -0.27805971743E+03  0.30934262722E+03  0.88998798239E+02 0.  0.
          5    1    4    4  502    0 -0.17410301558E+02  0.13911978985E+02 -0.10925558737E+03  0.11160436878E+03  0.47000000000E+01 0. -1.
         -5    1    3    3    0  503  0.35369669314E+02  0.95801425136E+02 -0.13446801898E+03  0.16891614693E+03  0.47000000000E+01 0. -1.
          5    1    3    3  503    0  0.34701513941E+02 -0.21337354980E+02 -0.17966515716E+03  0.18428547551E+03  0.47000000000E+01 0. -1.
         -5    1    4    4    0  502 -0.52660881697E+02 -0.88376049141E+02 -0.16880413006E+03  0.19773825844E+03  0.47000000000E+01 0.  1.
<mgrwt>
<rscale>  0 0.15455892E+03</rscale>
<asrwt>0</asrwt>
<pdfrwt beam="1">  1        1 0.96518245E-01 0.16146744E+03</pdfrwt>
<pdfrwt beam="2">  1       -1 0.54116426E-02 0.16146744E+03</pdfrwt>
<totfact> 0.50328447E+03</totfact>
</mgrwt>
</event>
<event>
 7    1  0.6985133E-005  0.1635185E+03  0.7546771E-02  0.1192141E+00
          1   -1    0    0  501    0  0.00000000000E+00  0.00000000000E+00  0.13048610552E+03  0.13048610552E+03  0.00000000000E+00 0. -1.
         -1   -1    0    0    0  501 -0.00000000000E+00 -0.00000000000E+00 -0.17526075688E+03  0.17526075688E+03  0.00000000000E+00 0.  1.
         23    2    1    2    0    0 -0.10532120195E+03  0.74606220405E+01 -0.22185089702E+02  0.14067535233E+03  0.90272698463E+02 0.  0.
          5    1    3    3  502    0 -0.76901635745E+02 -0.22638042118E+02  0.18540859451E+02  0.82414780230E+02  0.47000000000E+01 0. -1.
         -5    1    1    2    0  503  0.12649451588E+03 -0.17264472937E+02 -0.41870691786E+02  0.13444020754E+03  0.47000000000E+01 0. -1.
          5    1    1    2  503    0 -0.21173313928E+02  0.98038508962E+01  0.19281130131E+02  0.30631302522E+02  0.47000000000E+01 0. -1.
         -5    1    3    3    0  502 -0.28419566203E+02  0.30098664158E+02 -0.40725949153E+02  0.58260572103E+02  0.47000000000E+01 0.  1.
<mgrwt>
<rscale>  0 0.15698659E+03</rscale>
<asrwt>0</asrwt>
<pdfrwt beam="1">  1        1 0.20074785E-01 0.16351855E+03</pdfrwt>
<pdfrwt beam="2">  1       -1 0.26963193E-01 0.16351855E+03</pdfrwt>
<totfact> 0.30350648E+03</totfact>
</mgrwt>
</event>
<event>
 8    1  0.6985133E-005  0.1485829E+03  0.7546771E-02  0.1211933E+00
         -2   -1    0    0    0  501 -0.00000000000E+00  0.00000000000E+00  0.30170692395E+02  0.30170692395E+02  0.00000000000E+00 0.  1.
          2   -1    0    0  501    0  0.00000000000E+00 -0.00000000000E+00 -0.62703678859E+03  0.62703678859E+03  0.00000000000E+00 0. -1.
         25    2    1    2    0    0 -0.38921530917E+02  0.70201075645E+02 -0.39522880856E+03  0.42223534790E+03  0.12503520026E+03 0.  0.
         23    2    1    2    0    0  0.38921530917E+02 -0.70201075645E+02 -0.20163728763E+03  0.23497213309E+03  0.90062372690E+02 0.  0.
          5    1    4    4  502    0  0.57345548275E+02 -0.38186229128E+02 -0.17785195159E+03  0.19078811987E+03  0.47000000000E+01 0. -1.
         -5    1    3    3    0  503 -0.73182242062E+02  0.87548428036E+01 -0.15199056554E+03  0.16898375614E+03  0.47000000000E+01 0.  1.
          5    1    3    3  503    0  0.34260711145E+02  0.61446232841E+02 -0.24323824302E+03  0.25325159175E+03  0.47000000000E+01 0.  1.
         -5    1    4    4    0  502 -0.18424017358E+02 -0.32014846517E+02 -0.23785336048E+02  0.44184013218E+02  0.47000000000E+01 0.  1.
<mgrwt>
<rscale>  0 0.14104268E+03</rscale>
<asrwt>0</asrwt>
<pdfrwt beam="1">  1        2 0.96467193E-01 0.14858290E+03</pdfrwt>
<pdfrwt beam="2">  1       -2 0.46416452E-02 0.14858290E+03</pdfrwt>
<totfact> 0.10097645E+04</totfact>
</mgrwt>
</event>
<event>
 7    1  0.6985133E-005  0.2393351E+03  0.7546771E-02  0.1120237E+00
         -2   -1    0    0    0  501 -0.00000000000E+00  0.00000000000E+00  0.36340592505E+02  0.36340592505E+02  0.00000000000E+00 0.  1.
          2   -1    0    0  501    0  0.00000000000E+00 -0.00000000000E+00 -0.39405868706E+03  0.39405868706E+03  0.00000000000E+00 0. -1.
         23    2    1    2    0    0 -0.52051467488E+01  0.25953946710E+02 -0.81318586645E+02  0.12582260839E+03  0.92292553036E+02 0.  0.
          5    1    3    3  502    0 -0.17867537798E+02  0.10310974537E+02 -0.97377639497E+02  0.99649685283E+02  0.47000000000E+01 0. -1.
         -5    1    1    2    0  503 -0.21420969824E+02  0.37156630141E+02 -0.41560916722E+02  0.59907202492E+02  0.47000000000E+01 0. -1.
          5    1    1    2  503    0  0.26626116572E+02 -0.63110576851E+02 -0.23483859118E+03  0.24466946868E+03  0.47000000000E+01 0. -1.
         -5    1    3    3    0  502  0.12662391050E+02  0.15642972173E+02  0.16059052853E+02  0.26172923108E+02  0.47000000000E+01 0.  1.
<mgrwt>
<rscale>  0 0.23933513E+03</rscale>
<asrwt>0</asrwt>
<pdfrwt beam="1">  1        2 0.60624414E-01 0.23933513E+03</pdfrwt>
<pdfrwt beam="2">  1       -2 0.55908604E-02 0.23933513E+03</pdfrwt>
<totfact> 0.13177646E+04</totfact>
</mgrwt>
</event>
<event>
 8    1  0.6985133E-005  0.1274907E+03  0.7546771E-02  0.1245619E+00
          2   -1    0    0  501    0  0.00000000000E+00  0.00000000000E+00  0.16987318999E+03  0.16987318999E+03  0.00000000000E+00 0. -1.
         -2   -1    0    0    0  501 -0.00000000000E+00 -0.00000000000E+00 -0.81078744096E+02  0.81078744096E+02  0.00000000000E+00 0.  1.
         25    2    1    2    0    0  0.24413478664E+02 -0.64350580248E+01  0.89629638532E+02  0.15584399812E+03  0.12496580225E+03 0.  0.
         23    2    1    2    0    0 -0.24413478664E+02  0.64350580248E+01 -0.83519263745E+00  0.95107935970E+02  0.91691842743E+02 0.  0.
          5    1    3    3  502    0  0.58912496881E+02  0.20282997988E+02  0.92763367049E+02  0.11184460006E+03  0.47000000000E+01 0.  1.
         -5    1    3    3    0  502 -0.34499018217E+02 -0.26718056012E+02 -0.31337285163E+01  0.43999398058E+02  0.47000000000E+01 0.  1.
          5    1    4    4  503    0 -0.21033737335E+02 -0.15223477523E+02  0.40352583741E+02  0.48214037258E+02  0.47000000000E+01 0. -1.
         -5    1    4    4    0  503 -0.33797413290E+01  0.21658535547E+02 -0.41187776378E+02  0.46893898713E+02  0.47000000000E+01 0.  1.
<mgrwt>
<rscale>  0 0.11848378E+03</rscale>
<asrwt>0</asrwt>
<pdfrwt beam="1">  1        2 0.26134337E-01 0.12749070E+03</pdfrwt>
<pdfrwt beam="2">  1       -2 0.12473653E-01 0.12749070E+03</pdfrwt>
<totfact> 0.89221048E+03</totfact>
</mgrwt>
</event>
<event>
 8    1  0.6985133E-005  0.1770883E+03  0.7546771E-02  0.1175783E+00
         -1   -1    0    0    0  501 -0.00000000000E+00  0.00000000000E+00  0.36022503972E+02  0.36022503972E+02  0.00000000000E+00 0.  1.
          1   -1    0    0  501    0  0.00000000000E+00 -0.00000000000E+00 -0.78105861293E+03  0.78105861293E+03  0.00000000000E+00 0. -1.
         25    2    1    2    0    0  0.14452433874E+02 -0.12465125457E+03 -0.36587101608E+03  0.40647491773E+03  0.12495379237E+03 0.  0.
         23    2    1    2    0    0 -0.14452433874E+02  0.12465125457E+03 -0.37916509288E+03  0.41060619917E+03  0.95312512441E+02 0.  0.
          5    1    3    3  502    0  0.65020639391E+02 -0.35743020863E+02 -0.14138902760E+03  0.15974415236E+03  0.47000000000E+01 0.  1.
         -5    1    3    3    0  502 -0.50568205518E+02 -0.88908233706E+02 -0.22448198848E+03  0.24673076538E+03  0.47000000000E+01 0.  1.
          5    1    4    4  503    0 -0.18027006606E+02  0.51904866773E+02 -0.29086657762E+03  0.29604821252E+03  0.47000000000E+01 0. -1.
         -5    1    4    4    0  503  0.35745727326E+01  0.72746387796E+02 -0.88298515263E+02  0.11455798665E+03  0.47000000000E+01 0.  1.
<mgrwt>
<rscale>  0 0.17199557E+03</rscale>
<asrwt>0</asrwt>
<pdfrwt beam="1">  1        1 0.12016286E+00 0.17708828E+03</pdfrwt>
<pdfrwt beam="2">  1       -1 0.55419238E-02 0.17708828E+03</pdfrwt>
<totfact> 0.35529909E+03</totfact>
</mgrwt>
</event>
<event>
 7    1  0.6985133E-005  0.1498671E+03  0.7546771E-02  0.1209473E+00
         -2   -1    0    0    0  501 -0.00000000000E+00  0.00000000000E+00  0.24621209587E+03  0.24621209587E+03  0.00000000000E+00 0.  1.
          2   -1    0    0  501    0  0.00000000000E+00 -0.00000000000E+00 -0.76548720289E+02  0.76548720289E+02  0.00000000000E+00 0. -1.
         23    2    1    2    0    0 -0.59096284257E+02  0.57530393523E+02  0.89117924185E+02  0.15262049978E+03  0.92460237677E+02 0.  0.
          5    1    3    3  502    0  0.13534100168E+02  0.42063188668E+02  0.55154780691E+02  0.70828126767E+02  0.47000000000E+01 0. -1.
         -5    1    1    2    0  503 -0.43005088528E+01 -0.63548056692E+02  0.84781062469E+02  0.10614503492E+03  0.47000000000E+01 0. -1.
          5    1    1    2  503    0  0.63396793110E+02  0.60176631688E+01 -0.42356110732E+01  0.63995281450E+02  0.47000000000E+01 0. -1.
         -5    1    3    3    0  502 -0.72630384425E+02  0.15467204855E+02  0.33963143494E+02  0.81792373017E+02  0.47000000000E+01 0.  1.
<mgrwt>
<rscale>  0 0.14290484E+03</rscale>
<asrwt>0</asrwt>
<pdfrwt beam="1">  1        2 0.11776726E-01 0.14986713E+03</pdfrwt>
<pdfrwt beam="2">  1       -2 0.37878784E-01 0.14986713E+03</pdfrwt>
<totfact> 0.33357260E+03</totfact>
</mgrwt>
</event>
<event>
 8    1  0.6985133E-005  0.1665675E+03  0.7546771E-02  0.1188208E+00
         -2   -1    0    0    0  501 -0.00000000000E+00  0.00000000000E+00  0.12400863257E+03  0.12400863257E+03  0.00000000000E+00 0.  1.
          2   -1    0    0  501    0  0.00000000000E+00 -0.00000000000E+00 -0.21962332882E+03  0.21962332882E+03  0.00000000000E+00 0. -1.
         25    2    1    2    0    0 -0.99584272270E+02  0.47043036080E+02  0.79889702077E+01  0.16675901347E+03  0.12495867478E+03 0.  0.
         23    2    1    2    0    0  0.99584272270E+02 -0.47043036080E+02 -0.10360366645E+03  0.17687294791E+03  0.91761895544E+02 0.  0.
          5    1    3    3  502    0 -0.51237604322E+02  0.58850022609E+02 -0.47976036113E+02  0.91719176288E+02  0.47000000000E+01 0.  1.
         -5    1    4    4    0  503  0.10815495320E+03 -0.20731616394E+02 -0.61354109222E+02  0.12614955623E+03  0.47000000000E+01 0.  1.
          5    1    4    4  503    0 -0.85706809262E+01 -0.26311419686E+02 -0.42249557229E+02  0.50723391680E+02  0.47000000000E+01 0. -1.
         -5    1    3    3    0  502 -0.48346667948E+02 -0.11806986530E+02  0.55965006321E+02  0.75039837187E+02  0.47000000000E+01 0.  1.
<mgrwt>
<rscale>  0 0.16043352E+03</rscale>
<asrwt>0</asrwt>
<pdfrwt beam="1">  1        2 0.33788205E-01 0.16656754E+03</pdfrwt>
<pdfrwt beam="2">  1       -2 0.19078251E-01 0.16656754E+03</pdfrwt>
<totfact> 0.34142403E+03</totfact>
</mgrwt>
</event>
<event>
 7    1  0.6985133E-005  0.1618902E+03  0.7546771E-02  0.1193918E+00
          2   -1    0    0  501    0  0.00000000000E+00  0.00000000000E+00  0.42947272075E+03  0.42947272075E+03  0.00000000000E+00 0.  1.
         -2   -1    0    0    0  501 -0.00000000000E+00 -0.00000000000E+00 -0.52236695403E+02  0.52236695403E+02  0.00000000000E+00 0. -1.
         23    2    1    2    0    0 -0.39586777656E+02  0.95271880387E+02  0.17456562791E+03  0.22231832355E+03  0.91150613730E+02 0.  0.
          5    1    1    2  502    0  0.84274865223E+02 -0.69286307273E+02  0.14893062516E+03  0.18467611214E+03  0.47000000000E+01 0. -1.
         -5    1    3    3    0  503 -0.23167758775E+02  0.77648710441E+02  0.17975856964E+03  0.19723412646E+03  0.47000000000E+01 0.  1.
          5    1    3    3  503    0 -0.16419018881E+02  0.17623169946E+02 -0.51929417369E+01  0.25084197094E+02  0.47000000000E+01 0. -1.
         -5    1    1    2    0  502 -0.44688087567E+02 -0.25985573114E+02  0.53739772280E+02  0.74714980460E+02  0.47000000000E+01 0. -1.
<mgrwt>
<rscale>  0 0.15546161E+03</rscale>
<asrwt>0</asrwt>
<pdfrwt beam="1">  1        2 0.66072724E-01 0.16189024E+03</pdfrwt>
<pdfrwt beam="2">  1       -2 0.80364149E-02 0.16189024E+03</pdfrwt>
<totfact> 0.67018440E+03</totfact>
</mgrwt>
</event>
<event>
 8    1  0.6985133E-005  0.1797732E+03  0.7546771E-02  0.1174135E+00
         -4   -1    0    0    0  501 -0.00000000000E+00  0.00000000000E+00  0.15011761186E+03  0.15011761186E+03  0.00000000000E+00 0.  1.
          4   -1    0    0  501    0  0.00000000000E+00 -0.00000000000E+00 -0.18879113189E+03  0.18879113189E+03  0.00000000000E+00 0. -1.
         25    2    1    2    0    0 -0.15998168588E+02 -0.12817064182E+03 -0.10904381499E+02  0.18010361377E+03  0.12503899925E+03 0.  0.
         23    2    1    2    0    0  0.15998168588E+02  0.12817064182E+03 -0.27769138532E+02  0.15880512998E+03  0.88115205445E+02 0.  0.
          5    1    4    4  502    0 -0.27220819364E+02  0.99102650924E+01  0.17353903071E+01  0.29398774474E+02  0.47000000000E+01 0. -1.
         -5    1    3    3    0  503 -0.23444716745E+02 -0.85533954582E+02  0.52515769459E+02  0.10317804113E+03  0.47000000000E+01 0. -1.
          5    1    3    3  503    0  0.74465481570E+01 -0.42636687240E+02 -0.63420150958E+02  0.76925572638E+02  0.47000000000E+01 0. -1.
         -5    1    4    4    0  502  0.43218987952E+02  0.11826037673E+03 -0.29504528839E+02  0.12940635551E+03  0.47000000000E+01 0.  1.
<mgrwt>
<rscale>  0 0.17360971E+03</rscale>
<asrwt>0</asrwt>
<pdfrwt beam="1">  1        4 0.29044789E-01 0.17977321E+03</pdfrwt>
<pdfrwt beam="2">  1       -4 0.23095017E-01 0.17977321E+03</pdfrwt>
<totfact> 0.34282918E+02</totfact>
</mgrwt>
</event>
<event>
 8    1  0.6985133E-005  0.1425533E+03  0.7546771E-02  0.1220287E+00
          1   -1    0    0  501    0  0.00000000000E+00  0.00000000000E+00  0.58495945004E+02  0.58495945004E+02  0.00000000000E+00 0. -1.
         -1   -1    0    0    0  501 -0.00000000000E+00 -0.00000000000E+00 -0.28363319336E+03  0.28363319336E+03  0.00000000000E+00 0.  1.
         25    2    1    2    0    0 -0.47604849596E+02 -0.49201950648E+02 -0.13607339866E+03  0.19707206804E+03  0.12503750047E+03 0.  0.
         23    2    1    2    0    0  0.47604849596E+02  0.49201950648E+02 -0.89063849694E+02  0.14505707033E+03  0.91772167225E+02 0.  0.
          5    1    3    3  502    0 -0.45225690322E+02  0.30648795608E+02 -0.25230170067E+02  0.60360278486E+02  0.47000000000E+01 0. -1.
         -5    1    3    3    0  502 -0.23791592734E+01 -0.79850746256E+02 -0.11084322860E+03  0.13671178955E+03  0.47000000000E+01 0. -1.
          5    1    4    4  503    0  0.42790052177E+02 -0.38490516437E+01 -0.24797195783E+01  0.43290215673E+02  0.47000000000E+01 0. -1.
         -5    1    4    4    0  503  0.48147974185E+01  0.53051002292E+02 -0.86584130116E+02  0.10176685465E+03  0.47000000000E+01 0.  1.
<mgrwt>
<rscale>  0 0.13495215E+03</rscale>
<asrwt>0</asrwt>
<pdfrwt beam="1">  1        1 0.89993760E-02 0.14255325E+03</pdfrwt>
<pdfrwt beam="2">  1       -1 0.43635877E-01 0.14255325E+03</pdfrwt>
<totfact> 0.37604013E+03</totfact>
</mgrwt>
</event>
<event>
 8    1  0.6985133E-005  0.1444669E+03  0.7546771E-02  0.1217665E+00
          2   -1    0    0  501    0  0.00000000000E+00  0.00000000000E+00  0.10982337372E+04  0.10982337372E+04  0.00000000000E+00 0. -1.
         -2   -1    0    0    0  501 -0.00000000000E+00 -0.00000000000E+00 -0.17287510026E+02  0.17287510026E+02  0.00000000000E+00 0.  1.
         25    2    1    2    0    0  0.64247203303E+02  0.33158434734E+02  0.41306514761E+03  0.43759970720E+03  0.12507398868E+03 0.  0.
         23    2    1    2    0    0 -0.64247203303E+02 -0.33158434734E+02  0.66788107956E+03  0.67792154003E+03  0.91023585225E+02 0.  0.
          5    1    4    4  502    0 -0.35338584169E+02 -0.57016460988E+02  0.55098684356E+03  0.55507502568E+03  0.47000000000E+01 0. -1.
         -5    1    4    4    0  502 -0.28908619134E+02  0.23858026253E+02  0.11689423600E+03  0.12284651435E+03  0.47000000000E+01 0.  1.
          5    1    3    3  503    0  0.43836582825E+02  0.73149827030E+02  0.16857475492E+03  0.18897640377E+03  0.47000000000E+01 0. -1.
         -5    1    3    3    0  503  0.20410620478E+02 -0.39991392296E+02  0.24449039270E+03  0.24862330343E+03  0.47000000000E+01 0. -1.
<mgrwt>
<rscale>  0 0.13682585E+03</rscale>
<asrwt>0</asrwt>
<pdfrwt beam="1">  1        2 0.16895898E+00 0.14446691E+03</pdfrwt>
<pdfrwt beam="2">  1       -2 0.26596178E-02 0.14446691E+03</pdfrwt>
<totfact> 0.11237703E+04</totfact>
</mgrwt>
</event>
<event>
 8    1  0.6985133E-005  0.1706882E+03  0.7546771E-02  0.1183757E+00
          1   -1    0    0  501    0  0.00000000000E+00  0.00000000000E+00  0.11738508086E+04  0.11738508086E+04  0.00000000000E+00 0. -1.
         -1   -1    0    0    0  501 -0.00000000000E+00 -0.00000000000E+00 -0.22037693333E+02  0.22037693333E+02  0.00000000000E+00 0.  1.
         25    2    1    2    0    0 -0.15050456413E+02 -0.11520409921E+03  0.71022826468E+03  0.73045097950E+03  0.12504377152E+03 0.  0.
         23    2    1    2    0    0  0.15050456413E+02  0.11520409921E+03  0.44158485063E+03  0.46543752247E+03  0.90202030489E+02 0.  0.
          5    1    3    3  502    0 -0.47117382154E+02 -0.10271816933E+03  0.65850841498E+03  0.66815154914E+03  0.47000000000E+01 0. -1.
         -5    1    3    3    0  502  0.32066925741E+02 -0.12485929879E+02  0.51719849696E+02  0.62299430366E+02  0.47000000000E+01 0. -1.
          5    1    4    4  503    0  0.42148042320E+02  0.82406692146E+02  0.37499448605E+03  0.38627745850E+03  0.47000000000E+01 0. -1.
         -5    1    4    4    0  503 -0.27097585906E+02  0.32797407065E+02  0.66590364587E+02  0.79160063971E+02  0.47000000000E+01 0.  1.
<mgrwt>
<rscale>  0 0.16445494E+03</rscale>
<asrwt>0</asrwt>
<pdfrwt beam="1">  1        1 0.18059238E+00 0.17068815E+03</pdfrwt>
<pdfrwt beam="2">  1       -1 0.33904153E-02 0.17068815E+03</pdfrwt>
<totfact> 0.37210904E+03</totfact>
</mgrwt>
</event>
<event>
 7    1  0.6985133E-005  0.1416479E+03  0.7546771E-02  0.1221738E+00
         -2   -1    0    0    0  501 -0.00000000000E+00  0.00000000000E+00  0.12982780230E+02  0.12982780230E+02  0.00000000000E+00 0.  1.
          2   -1    0    0  501    0  0.00000000000E+00 -0.00000000000E+00 -0.15618893494E+04  0.15618893494E+04  0.00000000000E+00 0. -1.
         23    2    1    2    0    0  0.63294492249E+02 -0.18831158118E+02 -0.35554449843E+03  0.37313290714E+03  0.91953633799E+02 0.  0.
          5    1    1    2  502    0  0.35818858489E+02  0.10935649891E+02 -0.21121571363E+03  0.21456175509E+03  0.47000000000E+01 0. -1.
         -5    1    3    3    0  503  0.77109018167E+02  0.50353362796E+01 -0.18875784528E+03  0.20401659111E+03  0.47000000000E+01 0.  1.
          5    1    3    3  503    0 -0.13814525919E+02 -0.23866494397E+02 -0.16678665314E+03  0.16911631603E+03  0.47000000000E+01 0. -1.
         -5    1    1    2    0  502 -0.99113350738E+02  0.78955082264E+01 -0.98214635715E+03  0.98717746743E+03  0.47000000000E+01 0. -1.
<mgrwt>
<rscale>  0 0.13392999E+03</rscale>
<asrwt>0</asrwt>
<pdfrwt beam="1">  1        2 0.24029054E+00 0.14164790E+03</pdfrwt>
<pdfrwt beam="2">  1       -2 0.19973518E-02 0.14164790E+03</pdfrwt>
<totfact> 0.95817824E+03</totfact>
</mgrwt>
</event>
<event>
 8    1  0.6985133E-005  0.1538749E+03  0.7546771E-02  0.1203952E+00
          2   -1    0    0  501    0  0.00000000000E+00  0.00000000000E+00  0.27024727409E+03  0.27024727409E+03  0.00000000000E+00 0. -1.
         -2   -1    0    0    0  501 -0.00000000000E+00 -0.00000000000E+00 -0.74262835478E+02  0.74262835478E+02  0.00000000000E+00 0.  1.
         25    2    1    2    0    0 -0.55871589729E+02  0.70073068545E+02  0.95624744531E+02  0.18116724003E+03  0.12508240331E+03 0.  0.
         23    2    1    2    0    0  0.55871589729E+02 -0.70073068545E+02  0.10035969408E+03  0.16334286954E+03  0.92611853231E+02 0.  0.
          5    1    3    3  502    0 -0.65871929216E+02 -0.15682521992E+01  0.66351589022E+01  0.66390404482E+02  0.47000000000E+01 0.  1.
         -5    1    4    4    0  503  0.37616703491E+02  0.50422242414E+01  0.21934757192E+01  0.38305896969E+02  0.47000000000E+01 0.  1.
          5    1    4    4  503    0  0.18254886238E+02 -0.75115292787E+02  0.98166218361E+02  0.12503697257E+03  0.47000000000E+01 0. -1.
         -5    1    3    3    0  502  0.10000339487E+02  0.71641320745E+02  0.88989585628E+02  0.11477683555E+03  0.47000000000E+01 0.  1.
<mgrwt>
<rscale>  0 0.14720350E+03</rscale>
<asrwt>0</asrwt>
<pdfrwt beam="1">  1        2 0.41576503E-01 0.15387487E+03</pdfrwt>
<pdfrwt beam="2">  1       -2 0.11425052E-01 0.15387487E+03</pdfrwt>
<totfact> 0.63055992E+03</totfact>
</mgrwt>
</event>
<event>
 8    1  0.6985133E-005  0.1383579E+03  0.7546771E-02  0.1227964E+00
         -1   -1    0    0    0  501 -0.00000000000E+00  0.00000000000E+00  0.12726950589E+03  0.12726950589E+03  0.00000000000E+00 0.  1.
          1   -1    0    0  501    0  0.00000000000E+00 -0.00000000000E+00 -0.11892254397E+03  0.11892254397E+03  0.00000000000E+00 0. -1.
         25    2    1    2    0    0 -0.41871498151E+02  0.41764153645E+02 -0.62216928120E+01  0.13849773159E+03  0.12508175449E+03 0.  0.
         23    2    1    2    0    0  0.41871498151E+02 -0.41764153645E+02  0.14568654735E+02  0.10769431827E+03  0.88816403893E+02 0.  0.
          5    1    3    3  502    0 -0.97019936162E+00 -0.26817378000E+02  0.38262371946E+02  0.46970332727E+02  0.47000000000E+01 0. -1.
         -5    1    3    3    0  502 -0.40901298790E+02  0.68581531645E+02 -0.44484064758E+02  0.91527398864E+02  0.47000000000E+01 0. -1.
          5    1    4    4  503    0  0.64102867557E+02 -0.10640833627E+02 -0.32665671664E+01  0.65231629064E+02  0.47000000000E+01 0. -1.
         -5    1    4    4    0  503 -0.22231369406E+02 -0.31123320019E+02  0.17835221901E+02  0.42462689210E+02  0.47000000000E+01 0.  1.
<mgrwt>
<rscale>  0 0.12965777E+03</rscale>
<asrwt>0</asrwt>
<pdfrwt beam="1">  1        1 0.18295776E-01 0.13835791E+03</pdfrwt>
<pdfrwt beam="2">  1       -1 0.19579924E-01 0.13835791E+03</pdfrwt>
<totfact> 0.57081972E+03</totfact>
</mgrwt>
</event>
<event>
 8    1  0.6985133E-005  0.1557524E+03  0.7546771E-02  0.1201648E+00
          2   -1    0    0  501    0  0.00000000000E+00  0.00000000000E+00  0.64267126366E+03  0.64267126366E+03  0.00000000000E+00 0. -1.
         -2   -1    0    0    0  501 -0.00000000000E+00 -0.00000000000E+00 -0.34281169504E+02  0.34281169504E+02  0.00000000000E+00 0.  1.
         25    2    1    2    0    0 -0.92532670694E+02 -0.78441705420E+01  0.41791467057E+03  0.44599494422E+03  0.12503996253E+03 0.  0.
         23    2    1    2    0    0  0.92532670694E+02  0.78441705420E+01  0.19047542358E+03  0.23095748894E+03  0.91851230555E+02 0.  0.
          5    1    3    3  502    0 -0.41400554473E+02 -0.63478076736E+02  0.26015760656E+03  0.27101207056E+03  0.47000000000E+01 0.  1.
         -5    1    4    4    0  503  0.13070871528E+02 -0.36347618502E+02  0.46789768198E+02  0.60855315802E+02  0.47000000000E+01 0.  1.
          5    1    4    4  503    0  0.79461799166E+02  0.44191789044E+02  0.14368565538E+03  0.17010217314E+03  0.47000000000E+01 0. -1.
         -5    1    3    3    0  502 -0.51132116222E+02  0.55633906194E+02  0.15775706401E+03  0.17498287366E+03  0.47000000000E+01 0.  1.
<mgrwt>
<rscale>  0 0.14904761E+03</rscale>
<asrwt>0</asrwt>
<pdfrwt beam="1">  1        2 0.98872493E-01 0.15575243E+03</pdfrwt>
<pdfrwt beam="2">  1       -2 0.52740265E-02 0.15575243E+03</pdfrwt>
<totfact> 0.81202452E+03</totfact>
</mgrwt>
</event>
<event>
 8    1  0.6985133E-005  0.1467295E+03  0.7546771E-02  0.1214060E+00
         -2   -1    0    0    0  501 -0.00000000000E+00  0.00000000000E+00  0.11059097062E+03  0.11059097062E+03  0.00000000000E+00 0.  1.
          2   -1    0    0  501    0  0.00000000000E+00 -0.00000000000E+00 -0.16190578453E+03  0.16190578453E+03  0.00000000000E+00 0. -1.
         25    2    1    2    0    0 -0.23142920810E+02  0.73180685439E+02 -0.15645717027E+02  0.14756128646E+03  0.12505413746E+03 0.  0.
         23    2    1    2    0    0  0.23142920810E+02 -0.73180685439E+02 -0.35669096886E+02  0.12493546869E+03  0.91899833296E+02 0.  0.
          5    1    3    3  502    0 -0.50410717709E+01  0.98171661029E+02  0.19742460636E+02  0.10037401151E+03  0.47000000000E+01 0.  1.
         -5    1    4    4    0  503  0.15294579967E+02 -0.45792811248E+02  0.27299432549E+02  0.55661968666E+02  0.47000000000E+01 0.  1.
          5    1    4    4  503    0  0.78483408432E+01 -0.27387874191E+02 -0.62968529435E+02  0.69273500026E+02  0.47000000000E+01 0. -1.
         -5    1    3    3    0  502 -0.18101849039E+02 -0.24990975590E+02 -0.35388177663E+02  0.47187274957E+02  0.47000000000E+01 0.  1.
<mgrwt>
<rscale>  0 0.13945811E+03</rscale>
<asrwt>0</asrwt>
<pdfrwt beam="1">  1        2 0.24908582E-01 0.14672950E+03</pdfrwt>
<pdfrwt beam="2">  1       -2 0.17013996E-01 0.14672950E+03</pdfrwt>
<totfact> 0.57289035E+03</totfact>
</mgrwt>
</event>
<event>
 7    1  0.6985133E-005  0.1634402E+03  0.7546771E-02  0.1192195E+00
         -1   -1    0    0    0  501 -0.00000000000E+00  0.00000000000E+00  0.20182404410E+03  0.20182404410E+03  0.00000000000E+00 0.  1.
          1   -1    0    0  501    0  0.00000000000E+00 -0.00000000000E+00 -0.11634489062E+03  0.11634489062E+03  0.00000000000E+00 0. -1.
         23    2    1    2    0    0 -0.52981944732E+02  0.90293239173E+02  0.65157724603E+02  0.15347028118E+03  0.91365434506E+02 0.  0.
          5    1    3    3  502    0 -0.23272184898E+02 -0.15753389184E+02  0.98869059409E+01  0.30159654669E+02  0.47000000000E+01 0. -1.
         -5    1    3    3    0  502 -0.29709759834E+02  0.10604662836E+03  0.55270818662E+02  0.12331062651E+03  0.47000000000E+01 0.  1.
          5    1    1    2  503    0  0.52167647402E+02  0.17739795047E+02  0.70463426270E+01  0.55748584808E+02  0.47000000000E+01 0.  1.
         -5    1    1    2    0  503  0.81429733034E+00 -0.10803303422E+03  0.13275086247E+02  0.10895006874E+03  0.47000000000E+01 0.  1.
<mgrwt>
<rscale>  0 0.15694053E+03</rscale>
<asrwt>0</asrwt>
<pdfrwt beam="1">  1        1 0.17899214E-01 0.16344016E+03</pdfrwt>
<pdfrwt beam="2">  1       -1 0.31049853E-01 0.16344016E+03</pdfrwt>
<totfact> 0.27737800E+03</totfact>
</mgrwt>
</event>
<event>
 7    1  0.6985133E-005  0.1821630E+03  0.7546771E-02  0.1170784E+00
          2   -1    0    0  501    0  0.00000000000E+00  0.00000000000E+00  0.85568904283E+03  0.85568904283E+03  0.00000000000E+00 0.  1.
         -2   -1    0    0    0  501 -0.00000000000E+00 -0.00000000000E+00 -0.42967674532E+02  0.42967674532E+02  0.00000000000E+00 0. -1.
         23    2    1    2    0    0 -0.11458574412E+03  0.66794149491E+02  0.18991120283E+03  0.24975313961E+03  0.93375663997E+02 0.  0.
          5    1    3    3  502    0  0.58868221847E+01  0.20454067818E+02  0.22156264281E+01  0.21909417295E+02  0.47000000000E+01 0. -1.
         -5    1    3    3    0  502 -0.12047256630E+03  0.46340081674E+02  0.18769557640E+03  0.22784372232E+03  0.47000000000E+01 0.  1.
          5    1    1    2  503    0  0.69069183981E+02 -0.28518984942E+02  0.11262133466E+03  0.13523882467E+03  0.47000000000E+01 0.  1.
         -5    1    1    2    0  503  0.45516560136E+02 -0.38275164549E+02  0.51018883081E+03  0.51366475307E+03  0.47000000000E+01 0.  1.
<mgrwt>
<rscale>  0 0.17695423E+03</rscale>
<asrwt>0</asrwt>
<pdfrwt beam="1">  1        2 0.13164446E+00 0.18216298E+03</pdfrwt>
<pdfrwt beam="2">  1       -2 0.66104121E-02 0.18216298E+03</pdfrwt>
<totfact> 0.40834671E+03</totfact>
</mgrwt>
</event>
<event>
 8    1  0.6985133E-005  0.1424368E+03  0.7546771E-02  0.1221589E+00
          2   -1    0    0  501    0  0.00000000000E+00  0.00000000000E+00  0.12225582406E+04  0.12225582406E+04  0.00000000000E+00 0. -1.
         -2   -1    0    0    0  501 -0.00000000000E+00 -0.00000000000E+00 -0.13821637886E+02  0.13821637886E+02  0.00000000000E+00 0.  1.
         25    2    1    2    0    0  0.63846677638E+02 -0.23846121724E+02  0.54464568862E+03  0.56296285655E+03  0.12507284258E+03 0.  0.
         23    2    1    2    0    0 -0.63846677638E+02  0.23846121724E+02  0.66409091405E+03  0.67341702190E+03  0.88479983544E+02 0.  0.
          5    1    3    3  502    0  0.80464681702E+01  0.49279327682E+02  0.17868010587E+03  0.18558520420E+03  0.47000000000E+01 0. -1.
         -5    1    4    4    0  503 -0.84358034079E+02  0.25265292328E+02  0.47160493811E+03  0.47977903306E+03  0.47000000000E+01 0.  1.
          5    1    4    4  503    0  0.20511356441E+02 -0.14191706033E+01  0.19248597594E+03  0.19363798884E+03  0.47000000000E+01 0. -1.
         -5    1    3    3    0  502  0.55800209468E+02 -0.73125449407E+02  0.36596558276E+03  0.37737765235E+03  0.47000000000E+01 0. -1.
<mgrwt>
<rscale>  0 0.13403442E+03</rscale>
<asrwt>0</asrwt>
<pdfrwt beam="1">  1        2 0.18808580E+00 0.14243683E+03</pdfrwt>
<pdfrwt beam="2">  1       -2 0.21264068E-02 0.14243683E+03</pdfrwt>
<totfact> 0.13256699E+04</totfact>
</mgrwt>
</event>
<event>
 8    1  0.6985133E-005  0.1403327E+03  0.7546771E-02  0.1224220E+00
         -2   -1    0    0    0  501 -0.00000000000E+00  0.00000000000E+00  0.19342518778E+03  0.19342518778E+03  0.00000000000E+00 0.  1.
          2   -1    0    0  501    0  0.00000000000E+00 -0.00000000000E+00 -0.13222340606E+03  0.13222340606E+03  0.00000000000E+00 0. -1.
         25    2    1    2    0    0 -0.61516936240E+02  0.16293617918E+02 -0.67726078014E+02  0.15582068096E+03  0.12507376841E+03 0.  0.
         23    2    1    2    0    0  0.61516936240E+02 -0.16293617918E+02  0.12892785973E+03  0.16982791288E+03  0.90384243916E+02 0.  0.
          5    1    4    4  502    0 -0.20665887490E+02 -0.83361414242E+01  0.97660064710E+01  0.24779730467E+02  0.47000000000E+01 0. -1.
         -5    1    3    3    0  503 -0.26035073167E+02  0.11096199990E+02 -0.10202155150E+03  0.10597847734E+03  0.47000000000E+01 0. -1.
          5    1    3    3  503    0 -0.35481863074E+02  0.51974179277E+01  0.34295473486E+02  0.49842203623E+02  0.47000000000E+01 0. -1.
         -5    1    4    4    0  502  0.82182823731E+02 -0.79574764937E+01  0.11916185326E+03  0.14504818241E+03  0.47000000000E+01 0.  1.
<mgrwt>
<rscale>  0 0.13220539E+03</rscale>
<asrwt>0</asrwt>
<pdfrwt beam="1">  1        2 0.20342062E-01 0.14033269E+03</pdfrwt>
<pdfrwt beam="2">  1       -2 0.29757721E-01 0.14033269E+03</pdfrwt>
<totfact> 0.27331366E+03</totfact>
</mgrwt>
</event>
<event>
 8    1  0.6985133E-005  0.2976136E+03  0.7546771E-02  0.1087912E+00
          3   -1    0    0  501    0  0.00000000000E+00  0.00000000000E+00  0.32609353116E+03  0.32609353116E+03  0.00000000000E+00 0. -1.
         -3   -1    0    0    0  501 -0.00000000000E+00 -0.00000000000E+00 -0.30592328825E+03  0.30592328825E+03  0.00000000000E+00 0.  1.
         25    2    1    2    0    0  0.26273258956E+03 -0.62543562977E+02  0.13092518735E+03  0.32513880891E+03  0.12503491309E+03 0.  0.
         23    2    1    2    0    0 -0.26273258956E+03  0.62543562977E+02 -0.11075494444E+03  0.30687801050E+03  0.94696064997E+02 0.  0.
          5    1    3    3  502    0  0.13804299859E+03 -0.70449341370E+01  0.12814949136E+03  0.18854676527E+03  0.47000000000E+01 0.  1.
         -5    1    3    3    0  502  0.12468959096E+03 -0.55498628840E+02  0.27756959908E+01  0.13659204364E+03  0.47000000000E+01 0.  1.
          5    1    4    4  503    0 -0.17731199562E+03  0.81354507271E+02 -0.97979104037E+02  0.21835772135E+03  0.47000000000E+01 0. -1.
         -5    1    4    4    0  503 -0.85420593939E+02 -0.18810944294E+02 -0.12775840402E+02  0.88520289155E+02  0.47000000000E+01 0.  1.
<mgrwt>
<rscale>  0 0.29471686E+03</rscale>
<asrwt>0</asrwt>
<pdfrwt beam="1">  1        3 0.50168235E-01 0.29761358E+03</pdfrwt>
<pdfrwt beam="2">  1       -3 0.47065121E-01 0.29761358E+03</pdfrwt>
<totfact> 0.44882926E+01</totfact>
</mgrwt>
</event>
<event>
 7    1  0.6985133E-005  0.2081686E+03  0.7546771E-02  0.1146943E+00
          2   -1    0    0  501    0  0.00000000000E+00  0.00000000000E+00  0.12498444715E+04  0.12498444715E+04  0.00000000000E+00 0. -1.
         -2   -1    0    0    0  501 -0.00000000000E+00 -0.00000000000E+00 -0.37703300418E+02  0.37703300418E+02  0.00000000000E+00 0.  1.
         23    2    1    2    0    0  0.13126587654E+03 -0.10206963396E+03  0.32434622298E+03  0.37567385648E+03  0.91002382159E+02 0.  0.
          5    1    1    2  502    0 -0.57502846965E+01 -0.26772745611E+02  0.14059778304E+03  0.14331668527E+03  0.47000000000E+01 0.  1.
         -5    1    3    3    0  503  0.32195057677E+02 -0.24578625466E+02  0.18180140157E+02  0.44645694806E+02  0.47000000000E+01 0.  1.
          5    1    3    3  503    0  0.99070818864E+02 -0.77491008494E+02  0.30616608283E+03  0.33102816168E+03  0.47000000000E+01 0. -1.
         -5    1    1    2    0  502 -0.12551559184E+03  0.12884237957E+03  0.74719716505E+03  0.76855723016E+03  0.47000000000E+01 0.  1.
<mgrwt>
<rscale>  0 0.20334998E+03</rscale>
<asrwt>0</asrwt>
<pdfrwt beam="1">  1        2 0.19228373E+00 0.20816860E+03</pdfrwt>
<pdfrwt beam="2">  1       -2 0.58005087E-02 0.20816860E+03</pdfrwt>
<totfact> 0.29098174E+03</totfact>
</mgrwt>
</event>
<event>
 8    1  0.6985133E-005  0.1609700E+03  0.7546771E-02  0.1195268E+00
         -1   -1    0    0    0  501 -0.00000000000E+00  0.00000000000E+00  0.13246893835E+04  0.13246893835E+04  0.00000000000E+00 0.  1.
          1   -1    0    0  501    0  0.00000000000E+00 -0.00000000000E+00 -0.16733349315E+02  0.16733349315E+02  0.00000000000E+00 0. -1.
         25    2    1    2    0    0  0.82263992091E+02 -0.59475467348E+02  0.75895829638E+03  0.77584085886E+03  0.12492656651E+03 0.  0.
         23    2    1    2    0    0 -0.82263992091E+02  0.59475467348E+02  0.54899773784E+03  0.56558187399E+03  0.90441386668E+02 0.  0.
          5    1    4    4  502    0 -0.60417547536E+02  0.17887227875E+02  0.13677373420E+03  0.15066312535E+03  0.47000000000E+01 0. -1.
         -5    1    4    4    0  502 -0.21846444555E+02  0.41588239473E+02  0.41222400364E+03  0.41491874865E+03  0.47000000000E+01 0.  1.
          5    1    3    3  503    0 -0.15409371923E+02 -0.30800298484E+02  0.58798648482E+02  0.68304305816E+02  0.47000000000E+01 0. -1.
         -5    1    3    3    0  503  0.97673364014E+02 -0.28675168863E+02  0.70015964790E+03  0.70753655304E+03  0.47000000000E+01 0. -1.
<mgrwt>
<rscale>  0 0.15431538E+03</rscale>
<asrwt>0</asrwt>
<pdfrwt beam="1">  1        1 0.25743625E-02 0.16097001E+03</pdfrwt>
<pdfrwt beam="2">  1       -1 0.20379828E+00 0.16097001E+03</pdfrwt>
<totfact> 0.66094497E+02</totfact>
</mgrwt>
</event>
<event>
 8    1  0.6985133E-005  0.1956052E+03  0.7546771E-02  0.1157455E+00
         -2   -1    0    0    0  501 -0.00000000000E+00  0.00000000000E+00  0.15720643284E+03  0.15720643284E+03  0.00000000000E+00 0.  1.
          2   -1    0    0  501    0  0.00000000000E+00 -0.00000000000E+00 -0.25343543114E+03  0.25343543114E+03  0.00000000000E+00 0. -1.
         25    2    1    2    0    0 -0.13902021913E+03  0.57450334643E+02  0.21831680124E+02  0.19681974110E+03  0.12503689836E+03 0.  0.
         23    2    1    2    0    0  0.13902021913E+03 -0.57450334643E+02 -0.11806067843E+03  0.21382212288E+03  0.95678702771E+02 0.  0.
          5    1    3    3  502    0 -0.10045313314E+03  0.27747305908E+02  0.72002361227E+02  0.12675636065E+03  0.47000000000E+01 0. -1.
         -5    1    3    3    0  502 -0.38567085988E+02  0.29703028735E+02 -0.50170681103E+02  0.70063380450E+02  0.47000000000E+01 0. -1.
          5    1    4    4  503    0  0.58554881783E+02 -0.68718142227E+02 -0.90440956807E+02  0.12787694835E+03  0.47000000000E+01 0. -1.
         -5    1    4    4    0  503  0.80465337345E+02  0.11267807585E+02 -0.27619721625E+02  0.85945174527E+02  0.47000000000E+01 0.  1.
<mgrwt>
<rscale>  0 0.19112047E+03</rscale>
<asrwt>0</asrwt>
<pdfrwt beam="1">  1        2 0.38990066E-01 0.19560518E+03</pdfrwt>
<pdfrwt beam="2">  1       -2 0.24185605E-01 0.19560518E+03</pdfrwt>
<totfact> 0.19579157E+03</totfact>
</mgrwt>
</event>
<event>
 8    1  0.6985133E-005  0.1494626E+03  0.7546771E-02  0.1210079E+00
          2   -1    0    0  501    0  0.00000000000E+00  0.00000000000E+00  0.46369434821E+03  0.46369434821E+03  0.00000000000E+00 0. -1.
         -2   -1    0    0    0  501 -0.00000000000E+00 -0.00000000000E+00 -0.40279086487E+02  0.40279086487E+02  0.00000000000E+00 0.  1.
         25    2    1    2    0    0  0.12860197285E+02 -0.80998278798E+02  0.24804511177E+03  0.28959532196E+03  0.12495185949E+03 0.  0.
         23    2    1    2    0    0 -0.12860197285E+02  0.80998278798E+02  0.17537014996E+03  0.21437811273E+03  0.92071601927E+02 0.  0.
          5    1    4    4  502    0 -0.22249132534E+02  0.99216551095E+02  0.15207009483E+03  0.18299276393E+03  0.47000000000E+01 0. -1.
         -5    1    3    3    0  503  0.50155211454E+00 -0.10419343946E+03  0.12088048343E+03  0.15965808985E+03  0.47000000000E+01 0.  1.
          5    1    3    3  503    0  0.12358645171E+02  0.23195160661E+02  0.12716462834E+03  0.12993723211E+03  0.47000000000E+01 0.  1.
         -5    1    4    4    0  502  0.93889352492E+01 -0.18218272297E+02  0.23300055129E+02  0.31385348805E+02  0.47000000000E+01 0.  1.
<mgrwt>
<rscale>  0 0.14244316E+03</rscale>
<asrwt>0</asrwt>
<pdfrwt beam="1">  1        2 0.71337589E-01 0.14946261E+03</pdfrwt>
<pdfrwt beam="2">  1       -2 0.61967828E-02 0.14946261E+03</pdfrwt>
<totfact> 0.91492145E+03</totfact>
</mgrwt>
</event>
<event>
 8    1  0.6985133E-005  0.1254318E+03  0.7546771E-02  0.1246217E+00
         -2   -1    0    0    0  501 -0.00000000000E+00  0.00000000000E+00  0.44644142025E+02  0.44644142025E+02  0.00000000000E+00 0.  1.
          2   -1    0    0  501    0  0.00000000000E+00 -0.00000000000E+00 -0.28634441454E+03  0.28634441454E+03  0.00000000000E+00 0. -1.
         25    2    1    2    0    0 -0.55055000819E+01  0.80363647784E+01 -0.11308215942E+03  0.16888077623E+03  0.12505298122E+03 0.  0.
         23    2    1    2    0    0  0.55055000819E+01 -0.80363647784E+01 -0.12861811310E+03  0.16210778033E+03  0.98190731419E+02 0.  0.
          5    1    3    3  502    0  0.73465648617E+01  0.63223147591E+02 -0.82547532018E+02  0.10434233776E+03  0.47000000000E+01 0. -1.
         -5    1    4    4    0  503  0.17794201259E+02 -0.46247787691E+02 -0.37152498247E+02  0.62111911827E+02  0.47000000000E+01 0.  1.
          5    1    4    4  503    0 -0.12288701177E+02  0.38211422913E+02 -0.91465614848E+02  0.99995868501E+02  0.47000000000E+01 0. -1.
         -5    1    3    3    0  502 -0.12852064944E+02 -0.55186782813E+02 -0.30534627399E+02  0.64538438476E+02  0.47000000000E+01 0. -1.
<mgrwt>
<rscale>  0 0.11812862E+03</rscale>
<asrwt>0</asrwt>
<pdfrwt beam="1">  1        2 0.44052984E-01 0.12543182E+03</pdfrwt>
<pdfrwt beam="2">  1       -2 0.68683300E-02 0.12543182E+03</pdfrwt>
<totfact> 0.12910930E+04</totfact>
</mgrwt>
</event>
<event>
 8    1  0.6985133E-005  0.1298901E+03  0.7546771E-02  0.1241603E+00
         -3   -1    0    0    0  501 -0.00000000000E+00  0.00000000000E+00  0.12480681483E+03  0.12480681483E+03  0.00000000000E+00 0.  1.
          3   -1    0    0  501    0  0.00000000000E+00 -0.00000000000E+00 -0.11943670332E+03  0.11943670332E+03  0.00000000000E+00 0. -1.
         25    2    1    2    0    0  0.25273788066E+02 -0.24439837342E+02 -0.41063315404E+02  0.13622636106E+03  0.12504141539E+03 0.  0.
         23    2    1    2    0    0 -0.25273788066E+02  0.24439837342E+02  0.46433426915E+02  0.10801715709E+03  0.90970176861E+02 0.  0.
          5    1    3    3  502    0  0.75454451303E+02 -0.23923887463E+02 -0.28695428104E+02  0.84328193428E+02  0.47000000000E+01 0.  1.
         -5    1    4    4    0  503 -0.16400370484E+02 -0.22452858923E+02 -0.13496056067E+02  0.31262382430E+02  0.47000000000E+01 0.  1.
          5    1    4    4  503    0 -0.88734175818E+01  0.46892696266E+02  0.59929482982E+02  0.76754774660E+02  0.47000000000E+01 0. -1.
         -5    1    3    3    0  502 -0.50180663237E+02 -0.51594987919E+00 -0.12367887300E+02  0.51898167631E+02  0.47000000000E+01 0.  1.
<mgrwt>
<rscale>  0 0.12091046E+03</rscale>
<asrwt>0</asrwt>
<pdfrwt beam="1">  1        3 0.18374877E-01 0.12989005E+03</pdfrwt>
<pdfrwt beam="2">  1       -3 0.19201048E-01 0.12989005E+03</pdfrwt>
<totfact> 0.14349230E+03</totfact>
</mgrwt>
</event>
<event>
 8    1  0.6985133E-005  0.1323891E+03  0.7546771E-02  0.1238787E+00
         -1   -1    0    0    0  501 -0.00000000000E+00  0.00000000000E+00  0.78299160460E+02  0.78299160460E+02  0.00000000000E+00 0.  1.
          1   -1    0    0  501    0  0.00000000000E+00 -0.00000000000E+00 -0.17691443710E+03  0.17691443710E+03  0.00000000000E+00 0. -1.
         25    2    1    2    0    0 -0.20367922995E+02 -0.38726318371E+02 -0.29381690345E+02  0.13561026854E+03  0.12494911438E+03 0.  0.
         23    2    1    2    0    0  0.20367922995E+02  0.38726318371E+02 -0.69233586295E+02  0.11960332902E+03  0.87161269037E+02 0.  0.
          5    1    4    4  502    0 -0.28622727857E+02  0.15811664313E+02 -0.53852384199E+02  0.63177832839E+02  0.47000000000E+01 0. -1.
         -5    1    4    4    0  502  0.48990650852E+02  0.22914654058E+02 -0.15381202095E+02  0.56425496182E+02  0.47000000000E+01 0.  1.
          5    1    3    3  503    0  0.28212162683E+02 -0.50395021845E+02 -0.54450766890E+02  0.79514529269E+02  0.47000000000E+01 0.  1.
         -5    1    3    3    0  503 -0.48580085678E+02  0.11668703474E+02  0.25069076545E+02  0.56095739269E+02  0.47000000000E+01 0.  1.
<mgrwt>
<rscale>  0 0.12265101E+03</rscale>
<asrwt>0</asrwt>
<pdfrwt beam="1">  1        1 0.27217606E-01 0.13238905E+03</pdfrwt>
<pdfrwt beam="2">  1       -1 0.12046025E-01 0.13238905E+03</pdfrwt>
<totfact> 0.73905436E+03</totfact>
</mgrwt>
</event>
<event>
 7    1  0.6985133E-005  0.1324480E+03  0.7546771E-02  0.1236654E+00
          3   -1    0    0  501    0  0.00000000000E+00  0.00000000000E+00  0.22897703083E+03  0.22897703083E+03  0.00000000000E+00 0. -1.
         -3   -1    0    0    0  501 -0.00000000000E+00 -0.00000000000E+00 -0.63091368797E+02  0.63091368797E+02  0.00000000000E+00 0.  1.
         23    2    1    2    0    0 -0.33836566973E+02  0.28246226323E+02  0.39896286482E+02  0.10926851897E+03  0.91679512416E+02 0.  0.
          5    1    3    3  502    0 -0.20465558998E+02  0.58815896346E+01  0.67550276815E+02  0.70982829610E+02  0.47000000000E+01 0. -1.
         -5    1    1    2    0  503 -0.41564984679E+02  0.71515967878E+01  0.17409848818E+02  0.45869228507E+02  0.47000000000E+01 0.  1.
          5    1    1    2  503    0  0.75401551652E+02 -0.35397823110E+02  0.10857952673E+03  0.13693065215E+03  0.47000000000E+01 0.  1.
         -5    1    3    3    0  502 -0.13371007976E+02  0.22364636688E+02 -0.27653990332E+02  0.38285689360E+02  0.47000000000E+01 0.  1.
<mgrwt>
<rscale>  0 0.12399112E+03</rscale>
<asrwt>0</asrwt>
<pdfrwt beam="1">  1        3 0.35227235E-01 0.13244800E+03</pdfrwt>
<pdfrwt beam="2">  1       -3 0.97063645E-02 0.13244800E+03</pdfrwt>
<totfact> 0.14085124E+03</totfact>
</mgrwt>
</event>
<event>
 8    1  0.6985133E-005  0.1281195E+03  0.7546771E-02  0.1250570E+00
          1   -1    0    0  501    0  0.00000000000E+00  0.00000000000E+00  0.36136110736E+03  0.36136110736E+03  0.00000000000E+00 0. -1.
         -1   -1    0    0    0  501 -0.00000000000E+00 -0.00000000000E+00 -0.52986491983E+02  0.52986491983E+02  0.00000000000E+00 0.  1.
         25    2    1    2    0    0  0.28274474211E+02  0.11667441688E+01  0.30340046164E+03  0.32934244733E+03  0.12495519320E+03 0.  0.
         23    2    1    2    0    0 -0.28274474211E+02 -0.11667441688E+01  0.49741537392E+01  0.85005152012E+02  0.80002040469E+02 0.  0.
          5    1    4    4  502    0 -0.12486476956E+02 -0.34575975084E+02  0.23005844997E+02  0.43620741211E+02  0.47000000000E+01 0. -1.
         -5    1    4    4    0  502 -0.15787997255E+02  0.33409230915E+02 -0.18031691258E+02  0.41384410800E+02  0.47000000000E+01 0.  1.
          5    1    3    3  503    0 -0.15475831748E+01 -0.20615541368E+02 -0.23527146905E+01  0.21331217171E+02  0.47000000000E+01 0.  1.
         -5    1    3    3    0  503  0.29822057386E+02  0.21782285537E+02  0.30575317633E+03  0.30801123016E+03  0.47000000000E+01 0.  1.
<mgrwt>
<rscale>  0 0.11558103E+03</rscale>
<asrwt>0</asrwt>
<pdfrwt beam="1">  1        1 0.55594015E-01 0.12811950E+03</pdfrwt>
<pdfrwt beam="2">  1       -1 0.81517682E-02 0.12811950E+03</pdfrwt>
<totfact> 0.55198869E+03</totfact>
</mgrwt>
</event>
<event>
 8    1  0.6985133E-005  0.1425901E+03  0.7546771E-02  0.1220180E+00
          2   -1    0    0  501    0  0.00000000000E+00  0.00000000000E+00  0.16068947251E+03  0.16068947251E+03  0.00000000000E+00 0. -1.
         -2   -1    0    0    0  501 -0.00000000000E+00 -0.00000000000E+00 -0.11314815951E+03  0.11314815951E+03  0.00000000000E+00 0.  1.
         25    2    1    2    0    0 -0.37441655617E+02  0.57567112258E+02 -0.14742121930E+02  0.14335017310E+03  0.12496436284E+03 0.  0.
         23    2    1    2    0    0  0.37441655617E+02 -0.57567112258E+02  0.62283434928E+02  0.13048745892E+03  0.91825381451E+02 0.  0.
          5    1    4    4  502    0  0.41784234174E+02 -0.20793750856E+02  0.77165138981E+02  0.90304213491E+02  0.47000000000E+01 0. -1.
         -5    1    4    4    0  502 -0.43425785576E+01 -0.36773361402E+02 -0.14881704053E+02  0.40183245424E+02  0.47000000000E+01 0.  1.
          5    1    3    3  503    0 -0.58934159874E+02 -0.15442054156E+02  0.12514707426E+02  0.62373072223E+02  0.47000000000E+01 0. -1.
         -5    1    3    3    0  503  0.21492504257E+02  0.73009166414E+02 -0.27256829356E+02  0.80977100876E+02  0.47000000000E+01 0. -1.
<mgrwt>
<rscale>  0 0.13502790E+03</rscale>
<asrwt>0</asrwt>
<pdfrwt beam="1">  1        2 0.24721457E-01 0.14259012E+03</pdfrwt>
<pdfrwt beam="2">  1       -2 0.17407409E-01 0.14259012E+03</pdfrwt>
<totfact> 0.55513617E+03</totfact>
</mgrwt>
</event>
<event>
 8    1  0.6985133E-005  0.1569731E+03  0.7546771E-02  0.1200142E+00
         -2   -1    0    0    0  501 -0.00000000000E+00  0.00000000000E+00  0.78559343935E+03  0.78559343935E+03  0.00000000000E+00 0.  1.
          2   -1    0    0  501    0  0.00000000000E+00 -0.00000000000E+00 -0.26960718706E+02  0.26960718706E+02  0.00000000000E+00 0. -1.
         25    2    1    2    0    0 -0.68698408991E+02 -0.65616778033E+02  0.46223019647E+03  0.48815704371E+03  0.12496204158E+03 0.  0.
         23    2    1    2    0    0  0.68698408991E+02  0.65616778033E+02  0.29640252417E+03  0.32439711435E+03  0.91400210628E+02 0.  0.
          5    1    3    3  502    0  0.26003219236E+02 -0.54221146578E+02  0.20849965934E+03  0.21704906839E+03  0.47000000000E+01 0.  1.
         -5    1    4    4    0  503  0.83926974265E+01  0.70491486003E+02  0.16016316218E+03  0.17525357482E+03  0.47000000000E+01 0.  1.
          5    1    4    4  503    0  0.60305711565E+02 -0.48747079700E+01  0.13623936200E+03  0.14914353953E+03  0.47000000000E+01 0. -1.
         -5    1    3    3    0  502 -0.94701628227E+02 -0.11395631455E+02  0.25373053713E+03  0.27110797531E+03  0.47000000000E+01 0.  1.
<mgrwt>
<rscale>  0 0.15026992E+03</rscale>
<asrwt>0</asrwt>
<pdfrwt beam="1">  1        2 0.41478035E-02 0.15697307E+03</pdfrwt>
<pdfrwt beam="2">  1       -2 0.12086051E+00 0.15697307E+03</pdfrwt>
<totfact> 0.10748554E+03</totfact>
</mgrwt>
</event>
<event>
 8    1  0.6985133E-005  0.1856759E+03  0.7546771E-02  0.1167426E+00
         -1   -1    0    0    0  501 -0.00000000000E+00  0.00000000000E+00  0.24288187793E+03  0.24288187793E+03  0.00000000000E+00 0.  1.
          1   -1    0    0  501    0  0.00000000000E+00 -0.00000000000E+00 -0.15462646081E+03  0.15462646081E+03  0.00000000000E+00 0. -1.
         25    2    1    2    0    0  0.39329367153E+02 -0.13149754143E+03 -0.37860702478E+02  0.18949665573E+03  0.12504857942E+03 0.  0.
         23    2    1    2    0    0 -0.39329367153E+02  0.13149754143E+03  0.12611611959E+03  0.20801168301E+03  0.92331912820E+02 0.  0.
          5    1    3    3  502    0 -0.51033877866E+00 -0.14256050124E+03 -0.19326122275E+02  0.14394216186E+03  0.47000000000E+01 0. -1.
         -5    1    3    3    0  502  0.39839705932E+02  0.11062959802E+02 -0.18534580203E+02  0.45554493869E+02  0.47000000000E+01 0. -1.
          5    1    4    4  503    0  0.28632248215E+02  0.25466121144E+02  0.21305980507E+02  0.44094940405E+02  0.47000000000E+01 0. -1.
         -5    1    4    4    0  503 -0.67961615368E+02  0.10603142029E+03  0.10481013909E+03  0.16391674261E+03  0.47000000000E+01 0.  1.
<mgrwt>
<rscale>  0 0.18039036E+03</rscale>
<asrwt>0</asrwt>
<pdfrwt beam="1">  1        1 0.23788686E-01 0.18567593E+03</pdfrwt>
<pdfrwt beam="2">  1       -1 0.37366443E-01 0.18567593E+03</pdfrwt>
<totfact> 0.14084507E+03</totfact>
</mgrwt>
</event>
<event>
 7    1  0.6985133E-005  0.2173169E+03  0.7546771E-02  0.1139428E+00
          4   -1    0    0  501    0  0.00000000000E+00  0.00000000000E+00  0.15460560662E+04  0.15460560662E+04  0.00000000000E+00 0. -1.
         -4   -1    0    0    0  501 -0.00000000000E+00 -0.00000000000E+00 -0.28312215245E+02  0.28312215245E+02  0.00000000000E+00 0.  1.
         23    2    1    2    0    0 -0.17184902564E+03  0.45883731169E+02  0.79553690507E+03  0.82017367636E+03  0.90379686122E+02 0.  0.
          5    1    1    2  502    0  0.23371632122E+02 -0.57767812327E+02  0.30051557006E+03  0.30694470378E+03  0.47000000000E+01 0.  1.
         -5    1    3    3    0  503 -0.11655242465E+03  0.39613641214E+02  0.34790864622E+03  0.36907482219E+03  0.47000000000E+01 0.  1.
          5    1    3    3  503    0 -0.55296600997E+02  0.62700899550E+01  0.44762825886E+03  0.45109885417E+03  0.47000000000E+01 0. -1.
         -5    1    1    2    0  502  0.14847739352E+03  0.11884081158E+02  0.42169137577E+03  0.44724990126E+03  0.47000000000E+01 0.  1.
<mgrwt>
<rscale>  0 0.21272255E+03</rscale>
<asrwt>0</asrwt>
<pdfrwt beam="1">  1        4 0.23785471E+00 0.21731689E+03</pdfrwt>
<pdfrwt beam="2">  1       -4 0.43557266E-02 0.21731689E+03</pdfrwt>
<totfact> 0.45689377E+01</totfact>
</mgrwt>
</event>
<event>
 8    1  0.6985133E-005  0.1251755E+03  0.7546771E-02  0.1250116E+00
         -1   -1    0    0    0  501 -0.00000000000E+00  0.00000000000E+00  0.33106044143E+02  0.33106044143E+02  0.00000000000E+00 0.  1.
          1   -1    0    0  501    0  0.00000000000E+00 -0.00000000000E+00 -0.56976984563E+03  0.56976984563E+03  0.00000000000E+00 0. -1.
         25    2    1    2    0    0 -0.22581308628E+01 -0.71775403866E+01 -0.11061796936E+03  0.16704858961E+03  0.12494910926E+03 0.  0.
         23    2    1    2    0    0  0.22581308628E+01  0.71775403866E+01 -0.42604583212E+03  0.43582730016E+03  0.91508296104E+02 0.  0.
          5    1    4    4  502    0  0.42508783376E+02  0.17546220427E+02 -0.28446145436E+03  0.28819312194E+03  0.47000000000E+01 0. -1.
         -5    1    4    4    0  502 -0.40250652513E+02 -0.10368680040E+02 -0.14158437776E+03  0.14763417822E+03  0.47000000000E+01 0.  1.
          5    1    3    3  503    0 -0.34351445223E+02 -0.56412974599E+02 -0.58709187084E+02  0.88494655997E+02  0.47000000000E+01 0.  1.
         -5    1    3    3    0  503  0.32093314360E+02  0.49235434212E+02 -0.51908782280E+02  0.78553933615E+02  0.47000000000E+01 0.  1.
<mgrwt>
<rscale>  0 0.11584314E+03</rscale>
<asrwt>0</asrwt>
<pdfrwt beam="1">  1        1 0.87656902E-01 0.12517546E+03</pdfrwt>
<pdfrwt beam="2">  1       -1 0.50932374E-02 0.12517546E+03</pdfrwt>
<totfact> 0.61970010E+03</totfact>
</mgrwt>
</event>
<event>
 8    1  0.6985133E-005  0.1363481E+03  0.7546771E-02  0.1229674E+00
         -2   -1    0    0    0  501 -0.00000000000E+00  0.00000000000E+00  0.62568555044E+02  0.62568555044E+02  0.00000000000E+00 0.  1.
          2   -1    0    0  501    0  0.00000000000E+00 -0.00000000000E+00 -0.32060730562E+03  0.32060730562E+03  0.00000000000E+00 0. -1.
         25    2    1    2    0    0 -0.50826681263E+02  0.19851472852E+02 -0.43434566686E+02  0.14309917511E+03  0.12495351068E+03 0.  0.
         23    2    1    2    0    0  0.50826681263E+02 -0.19851472852E+02 -0.21460418389E+03  0.24007668555E+03  0.92760049053E+02 0.  0.
          5    1    3    3  502    0 -0.69699751859E+02  0.46614296050E+02 -0.62707915859E+02  0.10481088072E+03  0.47000000000E+01 0. -1.
         -5    1    4    4    0  503  0.42969891038E+02  0.39545408767E+01 -0.27814640951E+02  0.51553798895E+02  0.47000000000E+01 0.  1.
          5    1    4    4  503    0  0.78567902252E+01 -0.23806013729E+02 -0.18678954294E+03  0.18852288665E+03  0.47000000000E+01 0. -1.
         -5    1    3    3    0  502  0.18873070596E+02 -0.26762823198E+02  0.19273349173E+02  0.38288294394E+02  0.47000000000E+01 0. -1.
<mgrwt>
<rscale>  0 0.12851658E+03</rscale>
<asrwt>0</asrwt>
<pdfrwt beam="1">  1        2 0.49324201E-01 0.13634813E+03</pdfrwt>
<pdfrwt beam="2">  1       -2 0.96259315E-02 0.13634813E+03</pdfrwt>
<totfact> 0.68423973E+03</totfact>
</mgrwt>
</event>
<event>
 8    1  0.6985133E-005  0.2426580E+03  0.7546771E-02  0.1120558E+00
          2   -1    0    0  501    0  0.00000000000E+00  0.00000000000E+00  0.10362338983E+03  0.10362338983E+03  0.00000000000E+00 0.  1.
         -2   -1    0    0    0  501 -0.00000000000E+00 -0.00000000000E+00 -0.53433600349E+03  0.53433600349E+03  0.00000000000E+00 0. -1.
         25    2    1    2    0    0 -0.13090702597E+03 -0.16164800948E+03 -0.21392896015E+03  0.32349420382E+03  0.12496468100E+03 0.  0.
         23    2    1    2    0    0  0.13090702597E+03  0.16164800948E+03 -0.21678365351E+03  0.31446518950E+03  0.92878816551E+02 0.  0.
          5    1    4    4  502    0  0.10939886672E+03  0.62233452177E+02 -0.11739802381E+03  0.17217868800E+03  0.47000000000E+01 0. -1.
         -5    1    3    3    0  503 -0.15478508787E+03 -0.15023688155E+03 -0.19155165287E+03  0.28851979087E+03  0.47000000000E+01 0. -1.
          5    1    3    3  503    0  0.23878061895E+02 -0.11411127923E+02 -0.22377307280E+02  0.34974412953E+02  0.47000000000E+01 0. -1.
         -5    1    4    4    0  502  0.21508159254E+02  0.99414557299E+02 -0.99385629703E+02  0.14228650150E+03  0.47000000000E+01 0.  1.
<mgrwt>
<rscale>  0 0.23885523E+03</rscale>
<asrwt>0</asrwt>
<pdfrwt beam="1">  1        2 0.15942060E-01 0.24265799E+03</pdfrwt>
<pdfrwt beam="2">  1       -2 0.82205540E-01 0.24265799E+03</pdfrwt>
<totfact> 0.48601943E+02</totfact>
</mgrwt>
</event>
<event>
 8    1  0.6985133E-005  0.1345094E+03  0.7546771E-02  0.1232782E+00
          2   -1    0    0  501    0  0.00000000000E+00  0.00000000000E+00  0.29844421563E+03  0.29844421563E+03  0.00000000000E+00 0. -1.
         -2   -1    0    0    0  501 -0.00000000000E+00 -0.00000000000E+00 -0.48918984117E+02  0.48918984117E+02  0.00000000000E+00 0.  1.
         25    2    1    2    0    0  0.26585920039E+02 -0.41859879187E+02  0.11760999884E+03  0.17867538409E+03  0.12503487682E+03 0.  0.
         23    2    1    2    0    0 -0.26585920039E+02  0.41859879187E+02  0.13191523267E+03  0.16868781566E+03  0.92708629112E+02 0.  0.
          5    1    3    3  502    0 -0.26276683935E+02 -0.56103578075E+02  0.10545681671E+03  0.12239814452E+03  0.47000000000E+01 0.  1.
         -5    1    3    3    0  502  0.52862603974E+02  0.14243698888E+02  0.12153182127E+02  0.56277239563E+02  0.47000000000E+01 0.  1.
          5    1    4    4  503    0 -0.49581423578E+02  0.17277607830E+02  0.12259029821E+03  0.13344401265E+03  0.47000000000E+01 0. -1.
         -5    1    4    4    0  503  0.22995503538E+02  0.24582271356E+02  0.93249344587E+01  0.35243803011E+02  0.47000000000E+01 0.  1.
<mgrwt>
<rscale>  0 0.12647485E+03</rscale>
<asrwt>0</asrwt>
<pdfrwt beam="1">  1        2 0.45914493E-01 0.13450941E+03</pdfrwt>
<pdfrwt beam="2">  1       -2 0.75259978E-02 0.13450941E+03</pdfrwt>
<totfact> 0.10803750E+04</totfact>
</mgrwt>
</event>
<event>
 8    1  0.6985133E-005  0.1569137E+03  0.7546771E-02  0.1200100E+00
          1   -1    0    0  501    0  0.00000000000E+00  0.00000000000E+00  0.21697790709E+03  0.21697790709E+03  0.00000000000E+00 0. -1.
         -1   -1    0    0    0  501 -0.00000000000E+00 -0.00000000000E+00 -0.18971886229E+03  0.18971886229E+03  0.00000000000E+00 0.  1.
         25    2    1    2    0    0 -0.39074478964E+02 -0.86477037280E+02 -0.12824783789E+03  0.20265591980E+03  0.12496727981E+03 0.  0.
         23    2    1    2    0    0  0.39074478964E+02  0.86477037280E+02  0.15550688268E+03  0.20404084958E+03  0.91897686869E+02 0.  0.
          5    1    4    4  502    0 -0.30047352163E+01  0.67548635743E+02  0.13929507512E+03  0.15490982725E+03  0.47000000000E+01 0. -1.
         -5    1    3    3    0  503 -0.62695160776E+02  0.38845917671E+01 -0.58833316379E+02  0.86192936799E+02  0.47000000000E+01 0.  1.
          5    1    3    3  503    0  0.23620681812E+02 -0.90361629047E+02 -0.69414521508E+02  0.11646298300E+03  0.47000000000E+01 0.  1.
         -5    1    4    4    0  502  0.42079214180E+02  0.18928401537E+02  0.16211807558E+02  0.49131022329E+02  0.47000000000E+01 0.  1.
<mgrwt>
<rscale>  0 0.15030415E+03</rscale>
<asrwt>0</asrwt>
<pdfrwt beam="1">  1        1 0.33381216E-01 0.15691371E+03</pdfrwt>
<pdfrwt beam="2">  1       -1 0.29187517E-01 0.15691371E+03</pdfrwt>
<totfact> 0.13988984E+03</totfact>
</mgrwt>
</event>
<event>
 8    1  0.6985133E-005  0.1734290E+03  0.7546771E-02  0.1180575E+00
         -1   -1    0    0    0  501 -0.00000000000E+00  0.00000000000E+00  0.17661723744E+03  0.17661723744E+03  0.00000000000E+00 0.  1.
          1   -1    0    0  501    0  0.00000000000E+00 -0.00000000000E+00 -0.18016188745E+03  0.18016188745E+03  0.00000000000E+00 0. -1.
         25    2    1    2    0    0 -0.72439131487E+02  0.95879129790E+02 -0.76386169817E+02  0.18950582305E+03  0.12504948912E+03 0.  0.
         23    2    1    2    0    0  0.72439131487E+02 -0.95879129790E+02  0.72841519811E+02  0.16727330185E+03  0.90742686774E+02 0.  0.
          5    1    4    4  502    0  0.20751450718E+02 -0.83750740668E+02  0.13414690307E+02  0.87446287431E+02  0.47000000000E+01 0. -1.
         -5    1    3    3    0  503 -0.60425443005E+01  0.78555770827E+02 -0.89666047084E+02  0.11945547904E+03  0.47000000000E+01 0. -1.
          5    1    3    3  503    0 -0.66396587187E+02  0.17323358963E+02  0.13279877267E+02  0.70050344011E+02  0.47000000000E+01 0. -1.
         -5    1    4    4    0  502  0.51687680769E+02 -0.12128389122E+02  0.59426829504E+02  0.79827014418E+02  0.47000000000E+01 0.  1.
<mgrwt>
<rscale>  0 0.16741077E+03</rscale>
<asrwt>0</asrwt>
<pdfrwt beam="1">  1        1 0.27717213E-01 0.17342898E+03</pdfrwt>
<pdfrwt beam="2">  1       -1 0.27171883E-01 0.17342898E+03</pdfrwt>
<totfact> 0.19955101E+03</totfact>
</mgrwt>
</event>
<event>
 7    1  0.6985133E-005  0.2542812E+03  0.7546771E-02  0.1112774E+00
         -1   -1    0    0    0  501 -0.00000000000E+00  0.00000000000E+00  0.53297752357E+02  0.53297752357E+02  0.00000000000E+00 0.  1.
          1   -1    0    0  501    0  0.00000000000E+00 -0.00000000000E+00 -0.11724480127E+04  0.11724480127E+04  0.00000000000E+00 0. -1.
         23    2    1    2    0    0 -0.11814187660E+03 -0.18741358404E+03 -0.62998113188E+03  0.67443335155E+03  0.94354462934E+02 0.  0.
          5    1    1    2  502    0  0.12761103375E+03  0.10520196992E+03 -0.37817439191E+03  0.41278322532E+03  0.47000000000E+01 0.  1.
         -5    1    3    3    0  503 -0.19605618429E+02 -0.95925051152E+02 -0.18242352954E+03  0.20709039051E+03  0.47000000000E+01 0.  1.
          5    1    3    3  503    0 -0.98536258167E+02 -0.91488532889E+02 -0.44755760234E+03  0.46734296104E+03  0.47000000000E+01 0. -1.
         -5    1    1    2    0  502 -0.94691571578E+01  0.82211614122E+02 -0.11099473652E+03  0.13852918815E+03  0.47000000000E+01 0.  1.
<mgrwt>
<rscale>  0 0.25084148E+03</rscale>
<asrwt>0</asrwt>
<pdfrwt beam="1">  1        1 0.18037660E+00 0.25428122E+03</pdfrwt>
<pdfrwt beam="2">  1       -1 0.81996552E-02 0.25428122E+03</pdfrwt>
<totfact> 0.99456619E+02</totfact>
</mgrwt>
</event>
<event>
 8    1  0.6985133E-005  0.1999014E+03  0.7546771E-02  0.1154110E+00
         -2   -1    0    0    0  501 -0.00000000000E+00  0.00000000000E+00  0.37550063698E+03  0.37550063698E+03  0.00000000000E+00 0.  1.
          2   -1    0    0  501    0  0.00000000000E+00 -0.00000000000E+00 -0.96549920322E+02  0.96549920322E+02  0.00000000000E+00 0. -1.
         25    2    1    2    0    0  0.10351678996E+03  0.11676716579E+03  0.13782889676E+03  0.24281139229E+03  0.12494106864E+03 0.  0.
         23    2    1    2    0    0 -0.10351678996E+03 -0.11676716579E+03  0.14112181990E+03  0.22923916501E+03  0.91021590378E+02 0.  0.
          5    1    3    3  502    0  0.52593442958E+02  0.10468848605E+03  0.27240706862E+02  0.12037398167E+03  0.47000000000E+01 0.  1.
         -5    1    4    4    0  503 -0.98302048379E+02 -0.83565238856E+02  0.14606515897E+03  0.19494502436E+03  0.47000000000E+01 0.  1.
          5    1    4    4  503    0 -0.52147415790E+01 -0.33201926932E+02 -0.49433390667E+01  0.34294140649E+02  0.47000000000E+01 0. -1.
         -5    1    3    3    0  502  0.50923347001E+02  0.12078679743E+02  0.11058818990E+03  0.12243741062E+03  0.47000000000E+01 0.  1.
<mgrwt>
<rscale>  0 0.19490487E+03</rscale>
<asrwt>0</asrwt>
<pdfrwt beam="1">  1        2 0.14853834E-01 0.19990139E+03</pdfrwt>
<pdfrwt beam="2">  1       -2 0.57769328E-01 0.19990139E+03</pdfrwt>
<totfact> 0.11179686E+03</totfact>
</mgrwt>
</event>
<event>
 8    1  0.6985133E-005  0.1394873E+03  0.7546771E-02  0.1225078E+00
          2   -1    0    0  501    0  0.00000000000E+00  0.00000000000E+00  0.54068318497E+03  0.54068318497E+03  0.00000000000E+00 0. -1.
         -2   -1    0    0    0  501 -0.00000000000E+00 -0.00000000000E+00 -0.29755951032E+02  0.29755951032E+02  0.00000000000E+00 0.  1.
         25    2    1    2    0    0  0.56749041503E+02  0.24449199806E+02  0.23642629478E+03  0.27450702724E+03  0.12505398058E+03 0.  0.
         23    2    1    2    0    0 -0.56749041503E+02 -0.24449199806E+02  0.27450093916E+03  0.29593210876E+03  0.91688768745E+02 0.  0.
          5    1    3    3  502    0  0.96975931288E+01  0.63534536706E+02  0.61278579215E+02  0.88926008218E+02  0.47000000000E+01 0. -1.
         -5    1    3    3    0  502  0.47051448374E+02 -0.39085336900E+02  0.17514771556E+03  0.18558101902E+03  0.47000000000E+01 0. -1.
          5    1    4    4  503    0 -0.10734039509E+02 -0.50953872814E+02  0.17990842028E+03  0.18735166519E+03  0.47000000000E+01 0. -1.
         -5    1    4    4    0  503 -0.46015001995E+02  0.26504673009E+02  0.94592518879E+02  0.10858044358E+03  0.47000000000E+01 0.  1.
<mgrwt>
<rscale>  0 0.13161561E+03</rscale>
<asrwt>0</asrwt>
<pdfrwt beam="1">  1        2 0.83182021E-01 0.13948733E+03</pdfrwt>
<pdfrwt beam="2">  1       -2 0.45778390E-02 0.13948733E+03</pdfrwt>
<totfact> 0.12141958E+04</totfact>
</mgrwt>
</event>
<event>
 8    1  0.6985133E-005  0.1689986E+03  0.7546771E-02  0.1185058E+00
         -1   -1    0    0    0  501 -0.00000000000E+00  0.00000000000E+00  0.74171478925E+02  0.74171478925E+02  0.00000000000E+00 0.  1.
          1   -1    0    0  501    0  0.00000000000E+00 -0.00000000000E+00 -0.53901796307E+03  0.53901796307E+03  0.00000000000E+00 0. -1.
         25    2    1    2    0    0 -0.89412699593E+02  0.70207284643E+02 -0.55024176692E+02  0.17773067415E+03  0.12504734642E+03 0.  0.
         23    2    1    2    0    0  0.89412699593E+02 -0.70207284643E+02 -0.40982230745E+03  0.43545876784E+03  0.93521768282E+02 0.  0.
          5    1    3    3  502    0 -0.11810019970E+03  0.34877632351E+02 -0.39096523656E+02  0.12928547702E+03  0.47000000000E+01 0. -1.
         -5    1    4    4    0  503  0.17089564936E+02 -0.52378968746E+02 -0.28260152533E+03  0.28796062529E+03  0.47000000000E+01 0.  1.
          5    1    4    4  503    0  0.72323134657E+02 -0.17828315897E+02 -0.12722078212E+03  0.14749814255E+03  0.47000000000E+01 0. -1.
         -5    1    3    3    0  502  0.28687500105E+02  0.35329652291E+02 -0.15927653036E+02  0.48445197126E+02  0.47000000000E+01 0. -1.
<mgrwt>
<rscale>  0 0.16326563E+03</rscale>
<asrwt>0</asrwt>
<pdfrwt beam="1">  1        1 0.82925843E-01 0.16899862E+03</pdfrwt>
<pdfrwt beam="2">  1       -1 0.11410996E-01 0.16899862E+03</pdfrwt>
<totfact> 0.19998097E+03</totfact>
</mgrwt>
</event>
<event>
 8    1  0.6985133E-005  0.1580665E+03  0.7546771E-02  0.1199034E+00
          1   -1    0    0  501    0  0.00000000000E+00  0.00000000000E+00  0.41893210280E+02  0.41893210280E+02  0.00000000000E+00 0. -1.
         -1   -1    0    0    0  501 -0.00000000000E+00 -0.00000000000E+00 -0.58534508405E+03  0.58534508405E+03  0.00000000000E+00 0.  1.
         25    2    1    2    0    0 -0.67923935552E+02  0.68827676499E+02 -0.17525393266E+03  0.23600626296E+03  0.12503641538E+03 0.  0.
         23    2    1    2    0    0  0.67923935552E+02 -0.68827676499E+02 -0.36819794111E+03  0.39123203137E+03  0.90232302737E+02 0.  0.
          5    1    3    3  502    0 -0.42343070920E+02 -0.24763432844E+02 -0.20672298221E+02  0.53437787893E+02  0.47000000000E+01 0. -1.
         -5    1    3    3    0  502 -0.25580864632E+02  0.93591109344E+02 -0.15458163444E+03  0.18256847507E+03  0.47000000000E+01 0. -1.
          5    1    4    4  503    0 -0.15745925190E+01 -0.26435912971E+02 -0.22372186648E+03  0.22533286573E+03  0.47000000000E+01 0.  1.
         -5    1    4    4    0  503  0.69498528071E+02 -0.42391763529E+02 -0.14447607463E+03  0.16589916564E+03  0.47000000000E+01 0. -1.
<mgrwt>
<rscale>  0 0.15117752E+03</rscale>
<asrwt>0</asrwt>
<pdfrwt beam="1">  1        1 0.64451099E-02 0.15806649E+03</pdfrwt>
<pdfrwt beam="2">  1       -1 0.90053081E-01 0.15806649E+03</pdfrwt>
<totfact> 0.14593751E+03</totfact>
</mgrwt>
</event>
<event>
 7    1  0.6985133E-005  0.1428951E+03  0.7546771E-02  0.1220329E+00
          2   -1    0    0  501    0  0.00000000000E+00  0.00000000000E+00  0.16251315037E+02  0.16251315037E+02  0.00000000000E+00 0. -1.
         -2   -1    0    0    0  501 -0.00000000000E+00 -0.00000000000E+00 -0.13826922908E+04  0.13826922908E+04  0.00000000000E+00 0.  1.
         23    2    1    2    0    0 -0.68996076859E+02 -0.11287396698E+02 -0.98655927341E+03  0.99307525818E+03  0.89506449541E+02 0.  0.
          5    1    1    2  502    0  0.18470682832E+02 -0.53290268042E+02 -0.10910761493E+03  0.12291289773E+03  0.47000000000E+01 0. -1.
         -5    1    1    2    0  502  0.50525394027E+02  0.64577664740E+02 -0.27077408740E+03  0.28295544991E+03  0.47000000000E+01 0. -1.
          5    1    3    3  503    0 -0.16212769630E+02  0.36916227020E+02 -0.28672827212E+03  0.28958738534E+03  0.47000000000E+01 0. -1.
         -5    1    3    3    0  503 -0.52783307230E+02 -0.48203623718E+02 -0.69983100129E+03  0.70348787284E+03  0.47000000000E+01 0.  1.
<mgrwt>
<rscale>  0 0.13492227E+03</rscale>
<asrwt>0</asrwt>
<pdfrwt beam="1">  1        2 0.25002021E-02 0.14289509E+03</pdfrwt>
<pdfrwt beam="2">  1       -2 0.21272191E+00 0.14289509E+03</pdfrwt>
<totfact> 0.47433425E+02</totfact>
</mgrwt>
</event>
<event>
 7    1  0.6985133E-005  0.1332238E+03  0.7546771E-02  0.1233942E+00
         -2   -1    0    0    0  501 -0.00000000000E+00  0.00000000000E+00  0.91079282336E+02  0.91079282336E+02  0.00000000000E+00 0.  1.
          2   -1    0    0  501    0  0.00000000000E+00 -0.00000000000E+00 -0.25345087231E+03  0.25345087231E+03  0.00000000000E+00 0. -1.
         23    2    1    2    0    0  0.36856476375E+02 -0.28799704527E+02 -0.18142383179E+03  0.20995095825E+03  0.94746901255E+02 0.  0.
          5    1    1    2  502    0 -0.82632561015E+02  0.27373069549E+02  0.11694036802E+02  0.87956043415E+02  0.47000000000E+01 0.  1.
         -5    1    1    2    0  502  0.45776084640E+02  0.14266349779E+01  0.73582050203E+01  0.46623152976E+02  0.47000000000E+01 0.  1.
          5    1    3    3  503    0  0.22020086371E+02 -0.61902236604E+02 -0.13978476426E+03  0.15452715432E+03  0.47000000000E+01 0. -1.
         -5    1    3    3    0  503  0.14836390005E+02  0.33102532077E+02 -0.41639067529E+02  0.55423803939E+02  0.47000000000E+01 0.  1.
<mgrwt>
<rscale>  0 0.12572384E+03</rscale>
<asrwt>0</asrwt>
<pdfrwt beam="1">  1        2 0.38992441E-01 0.13322377E+03</pdfrwt>
<pdfrwt beam="2">  1       -2 0.14012198E-01 0.13322377E+03</pdfrwt>
<totfact> 0.48213953E+03</totfact>
</mgrwt>
</event>
<event>
 7    1  0.6985133E-005  0.1376321E+03  0.7546771E-02  0.1228101E+00
          2   -1    0    0  501    0  0.00000000000E+00  0.00000000000E+00  0.16125705869E+04  0.16125705869E+04  0.00000000000E+00 0. -1.
         -2   -1    0    0    0  501 -0.00000000000E+00 -0.00000000000E+00 -0.96667667106E+01  0.96667667106E+01  0.00000000000E+00 0.  1.
         23    2    1    2    0    0  0.41468440217E+02 -0.39612642171E+02  0.56495405923E+03  0.57520234661E+03  0.91628912185E+02 0.  0.
          5    1    1    2  502    0 -0.60663728975E+02 -0.27962328593E+02  0.47365185513E+03  0.47836194425E+03  0.47000000000E+01 0.  1.
         -5    1    3    3    0  503 -0.14552076470E+02 -0.25822412160E+02  0.61500807174E+02  0.68432442470E+02  0.47000000000E+01 0.  1.
          5    1    3    3  503    0  0.56020516687E+02 -0.13790230011E+02  0.50345325206E+03  0.50676990414E+03  0.47000000000E+01 0. -1.
         -5    1    1    2    0  502  0.19195288758E+02  0.67574970764E+02  0.56429790586E+03  0.56867306279E+03  0.47000000000E+01 0.  1.
<mgrwt>
<rscale>  0 0.12956623E+03</rscale>
<asrwt>0</asrwt>
<pdfrwt beam="1">  1        2 0.24808757E+00 0.13763212E+03</pdfrwt>
<pdfrwt beam="2">  1       -2 0.14871962E-02 0.13763212E+03</pdfrwt>
<totfact> 0.13807727E+04</totfact>
</mgrwt>
</event>
<event>
 8    1  0.6985133E-005  0.1304154E+03  0.7546771E-02  0.1245314E+00
          2   -1    0    0  501    0  0.00000000000E+00  0.00000000000E+00  0.52793231983E+03  0.52793231983E+03  0.00000000000E+00 0. -1.
         -2   -1    0    0    0  501 -0.00000000000E+00 -0.00000000000E+00 -0.29906752172E+02  0.29906752172E+02  0.00000000000E+00 0.  1.
         25    2    1    2    0    0  0.30377788180E+02  0.21204593365E+02  0.15118169971E+03  0.19965989216E+03  0.12504287831E+03 0.  0.
         23    2    1    2    0    0 -0.30377788180E+02 -0.21204593365E+02  0.34684386795E+03  0.35817917984E+03  0.81358535773E+02 0.  0.
          5    1    3    3  502    0  0.14926652257E+02  0.41441044189E+02  0.16462938951E+03  0.17048487024E+03  0.47000000000E+01 0.  1.
         -5    1    3    3    0  502  0.15451135923E+02 -0.20236450823E+02 -0.13447689798E+02  0.29175021922E+02  0.47000000000E+01 0.  1.
          5    1    4    4  503    0 -0.41924219317E+02  0.15486266246E+02  0.24746643961E+03  0.25151380348E+03  0.47000000000E+01 0. -1.
         -5    1    4    4    0  503  0.11546431137E+02 -0.36690859611E+02  0.99377428339E+02  0.10666537636E+03  0.47000000000E+01 0.  1.
<mgrwt>
<rscale>  0 0.11866596E+03</rscale>
<asrwt>0</asrwt>
<pdfrwt beam="1">  1        2 0.81220350E-01 0.13041536E+03</pdfrwt>
<pdfrwt beam="2">  1       -2 0.46010392E-02 0.13041536E+03</pdfrwt>
<totfact> 0.12313860E+04</totfact>
</mgrwt>
</event>
<event>
 7    1  0.6985133E-005  0.1397797E+03  0.7546771E-02  0.1224414E+00
          1   -1    0    0  501    0  0.00000000000E+00  0.00000000000E+00  0.74443947617E+03  0.74443947617E+03  0.00000000000E+00 0. -1.
         -1   -1    0    0    0  501 -0.00000000000E+00 -0.00000000000E+00 -0.25090235059E+02  0.25090235059E+02  0.00000000000E+00 0.  1.
         23    2    1    2    0    0 -0.47298075249E+02 -0.41299061443E+02  0.47627852096E+03  0.48913403126E+03  0.92022554874E+02 0.  0.
          5    1    1    2  502    0  0.84484254856E+01 -0.37850434000E+02  0.28464930346E+02  0.48336047695E+02  0.47000000000E+01 0.  1.
         -5    1    1    2    0  502  0.38849649764E+02  0.79149495444E+02  0.21460578980E+03  0.23205963228E+03  0.47000000000E+01 0.  1.
          5    1    3    3  503    0 -0.60086866886E+01 -0.44626882995E+02  0.39690098540E+03  0.39947483677E+03  0.47000000000E+01 0. -1.
         -5    1    3    3    0  503 -0.41289388561E+02  0.33278215521E+01  0.79377535562E+02  0.89659194486E+02  0.47000000000E+01 0.  1.
<mgrwt>
<rscale>  0 0.13207127E+03</rscale>
<asrwt>0</asrwt>
<pdfrwt beam="1">  1        1 0.11452913E+00 0.13977969E+03</pdfrwt>
<pdfrwt beam="2">  1       -1 0.38600367E-02 0.13977969E+03</pdfrwt>
<totfact> 0.64557222E+03</totfact>
</mgrwt>
</event>
<event>
 8    1  0.6985133E-005  0.1570623E+03  0.7546771E-02  0.1199974E+00
          2   -1    0    0  501    0  0.00000000000E+00  0.00000000000E+00  0.22565525400E+03  0.22565525400E+03  0.00000000000E+00 0. -1.
         -2   -1    0    0    0  501 -0.00000000000E+00 -0.00000000000E+00 -0.95349266531E+02  0.95349266531E+02  0.00000000000E+00 0.  1.
         25    2    1    2    0    0 -0.94574813974E+02 -0.10656124107E+02  0.97642669455E+02  0.18493964241E+03  0.12494251485E+03 0.  0.
         23    2    1    2    0    0  0.94574813974E+02  0.10656124107E+02  0.32663318012E+02  0.13606487812E+03  0.91590448707E+02 0.  0.
          5    1    4    4  502    0  0.34185524217E+02 -0.24540523261E+02 -0.21522374615E+02  0.47499367964E+02  0.47000000000E+01 0.  1.
         -5    1    4    4    0  502  0.60389289757E+02  0.35196647368E+02  0.54185692626E+02  0.88565510153E+02  0.47000000000E+01 0. -1.
          5    1    3    3  503    0 -0.71686446371E+02  0.40383984377E+02  0.98969067724E+02  0.12878967021E+03  0.47000000000E+01 0. -1.
         -5    1    3    3    0  503 -0.22888367603E+02 -0.51040108484E+02 -0.13263982688E+01  0.56149972199E+02  0.47000000000E+01 0. -1.
<mgrwt>
<rscale>  0 0.15040712E+03</rscale>
<asrwt>0</asrwt>
<pdfrwt beam="1">  1        2 0.34716193E-01 0.15706235E+03</pdfrwt>
<pdfrwt beam="2">  1       -2 0.14669118E-01 0.15706235E+03</pdfrwt>
<totfact> 0.51156673E+03</totfact>
</mgrwt>
</event>
<event>
 7    1  0.6985133E-005  0.1459390E+03  0.7546771E-02  0.1215017E+00
          1   -1    0    0  501    0  0.00000000000E+00  0.00000000000E+00  0.63576471419E+02  0.63576471419E+02  0.00000000000E+00 0. -1.
         -1   -1    0    0    0  501 -0.00000000000E+00 -0.00000000000E+00 -0.57240071439E+03  0.57240071439E+03  0.00000000000E+00 0.  1.
         23    2    1    2    0    0  0.16394272084E+02 -0.73317210153E+02 -0.13984786147E+02  0.12006607703E+03  0.92607252135E+02 0.  0.
          5    1    1    2  502    0 -0.25586012098E+02  0.92619020728E+02 -0.47980859245E+03  0.48935805133E+03  0.47000000000E+01 0.  1.
         -5    1    3    3    0  503 -0.17681282397E+02 -0.67656123401E+02 -0.36044697891E+02  0.78811731531E+02  0.47000000000E+01 0.  1.
          5    1    3    3  503    0  0.34075554481E+02 -0.56610867519E+01  0.22059911744E+02  0.41254345499E+02  0.47000000000E+01 0. -1.
         -5    1    1    2    0  502  0.91917400139E+01 -0.19301810576E+02 -0.15030864376E+02  0.26553057449E+02  0.47000000000E+01 0.  1.
<mgrwt>
<rscale>  0 0.13875288E+03</rscale>
<asrwt>0</asrwt>
<pdfrwt beam="1">  1        1 0.97809952E-02 0.14593897E+03</pdfrwt>
<pdfrwt beam="2">  1       -1 0.88061652E-01 0.14593897E+03</pdfrwt>
<totfact> 0.87103380E+02</totfact>
</mgrwt>
</event>
<event>
 8    1  0.6985133E-005  0.1281257E+03  0.7546771E-02  0.1244976E+00
         -1   -1    0    0    0  501 -0.00000000000E+00  0.00000000000E+00  0.17519066944E+03  0.17519066944E+03  0.00000000000E+00 0.  1.
          1   -1    0    0  501    0  0.00000000000E+00 -0.00000000000E+00 -0.78273076575E+02  0.78273076575E+02  0.00000000000E+00 0. -1.
         25    2    1    2    0    0  0.27117974681E+02  0.65660138800E+01  0.93262262565E+02  0.15847409624E+03  0.12505075958E+03 0.  0.
         23    2    1    2    0    0 -0.27117974681E+02 -0.65660138800E+01  0.36553303022E+01  0.94989649775E+02  0.90725823423E+02 0.  0.
          5    1    3    3  502    0  0.55794908694E+02  0.27274230409E+02  0.10398886557E+03  0.12121357037E+03  0.47000000000E+01 0.  1.
         -5    1    4    4    0  503 -0.38741272255E+02 -0.29474456577E+02  0.30420876453E+02  0.57594700196E+02  0.47000000000E+01 0.  1.
          5    1    4    4  503    0  0.11623297574E+02  0.22908442697E+02 -0.26765546151E+02  0.37394949580E+02  0.47000000000E+01 0. -1.
         -5    1    3    3    0  502 -0.28676934013E+02 -0.20708216529E+02 -0.10726603001E+02  0.37260525870E+02  0.47000000000E+01 0.  1.
<mgrwt>
<rscale>  0 0.11886822E+03</rscale>
<asrwt>0</asrwt>
<pdfrwt beam="1">  1        1 0.12042012E-01 0.12812568E+03</pdfrwt>
<pdfrwt beam="2">  1       -1 0.26952411E-01 0.12812568E+03</pdfrwt>
<totfact> 0.58007632E+03</totfact>
</mgrwt>
</event>
<event>
 8    1  0.6985133E-005  0.2533481E+03  0.7546771E-02  0.1113692E+00
          2   -1    0    0  501    0  0.00000000000E+00  0.00000000000E+00  0.90098501638E+03  0.90098501638E+03  0.00000000000E+00 0. -1.
         -2   -1    0    0    0  501 -0.00000000000E+00 -0.00000000000E+00 -0.10291305349E+03  0.10291305349E+03  0.00000000000E+00 0.  1.
         25    2    1    2    0    0  0.18029841660E+03  0.12677945416E+03  0.11060631515E+03  0.27643988342E+03  0.12491878628E+03 0.  0.
         23    2    1    2    0    0 -0.18029841660E+03 -0.12677945416E+03  0.68746564774E+03  0.72745818645E+03  0.89475399924E+02 0.  0.
          5    1    4    4  502    0 -0.14159228601E+03 -0.64178170873E+02  0.36662429347E+03  0.39824951430E+03  0.47000000000E+01 0. -1.
         -5    1    4    4    0  502 -0.38706130583E+02 -0.62601283291E+02  0.32084135426E+03  0.32920867215E+03  0.47000000000E+01 0.  1.
          5    1    3    3  503    0  0.16042677515E+03  0.13621439926E+03  0.12942540930E+03  0.24711159285E+03  0.47000000000E+01 0. -1.
         -5    1    3    3    0  503  0.19871641447E+02 -0.94349450936E+01 -0.18819094149E+02  0.29328290562E+02  0.47000000000E+01 0. -1.
<mgrwt>
<rscale>  0 0.24938896E+03</rscale>
<asrwt>0</asrwt>
<pdfrwt beam="1">  1        2 0.13861307E+00 0.25334809E+03</pdfrwt>
<pdfrwt beam="2">  1       -2 0.15832778E-01 0.25334809E+03</pdfrwt>
<totfact> 0.95125850E+02</totfact>
</mgrwt>
</event>
<event>
 8    1  0.8533986E-005  0.1860323E+03  0.7546771E-02  0.1167815E+00
          1   -1    0    0  501    0  0.00000000000E+00  0.00000000000E+00  0.55445157109E+03  0.55445157109E+03  0.00000000000E+00 0. -1.
         -1   -1    0    0    0  501 -0.00000000000E+00 -0.00000000000E+00 -0.66526402719E+02  0.66526402719E+02  0.00000000000E+00 0.  1.
         25    2    1    2    0    0  0.10769239672E+02  0.13740205390E+03  0.12786259384E+03  0.22573627681E+03  0.12495088165E+03 0.  0.
         23    2    1    2    0    0 -0.10769239672E+02 -0.13740205390E+03  0.36006257453E+03  0.39524169700E+03  0.87038155634E+02 0.  0.
          5    1    4    4  502    0 -0.23783697698E+02 -0.76831473886E+02  0.10294056702E+03  0.13071950885E+03  0.47000000000E+01 0. -1.
         -5    1    3    3    0  503  0.46639305490E+02  0.25594733924E+02  0.18615655304E+01  0.53440346625E+02  0.47000000000E+01 0.  1.
          5    1    3    3  503    0 -0.35870065817E+02  0.11180731997E+03  0.12600102831E+03  0.17229593018E+03  0.47000000000E+01 0.  1.
         -5    1    4    4    0  502  0.13014458025E+02 -0.60570580009E+02  0.25712200750E+03  0.26452218815E+03  0.47000000000E+01 0.  1.
<mgrwt>
<rscale>  0 0.17998743E+03</rscale>
<asrwt>0</asrwt>
<pdfrwt beam="1">  1        1 0.85300239E-01 0.18603232E+03</pdfrwt>
<pdfrwt beam="2">  1       -1 0.10234832E-01 0.18603232E+03</pdfrwt>
<totfact> 0.22827955E+03</totfact>
</mgrwt>
</event>
<event>
 7    1  0.6985133E-005  0.1255002E+03  0.7546771E-02  0.1249818E+00
         -1   -1    0    0    0  501 -0.00000000000E+00  0.00000000000E+00  0.17047677853E+03  0.17047677853E+03  0.00000000000E+00 0.  1.
          1   -1    0    0  501    0  0.00000000000E+00 -0.00000000000E+00 -0.74255690520E+02  0.74255690520E+02  0.00000000000E+00 0. -1.
         23    2    1    2    0    0 -0.89812498835E+01  0.10618831284E+02  0.72844439063E+02  0.11707365411E+03  0.90589766298E+02 0.  0.
          5    1    3    3  502    0 -0.13165902399E+02 -0.19742839957E+02 -0.11809490793E+02  0.26919784329E+02  0.47000000000E+01 0. -1.
         -5    1    1    2    0  503  0.46998247943E+02 -0.19330805337E+02  0.56598411158E+02  0.76210140338E+02  0.47000000000E+01 0. -1.
          5    1    1    2  503    0 -0.38016998059E+02  0.87119740532E+01 -0.33221762212E+02  0.51448674597E+02  0.47000000000E+01 0. -1.
         -5    1    3    3    0  502  0.41846525154E+01  0.30361671241E+02  0.84653929856E+02  0.90153869785E+02  0.47000000000E+01 0.  1.
<mgrwt>
<rscale>  0 0.11601598E+03</rscale>
<asrwt>0</asrwt>
<pdfrwt beam="1">  1        1 0.11423952E-01 0.12550022E+03</pdfrwt>
<pdfrwt beam="2">  1       -1 0.26227197E-01 0.12550022E+03</pdfrwt>
<totfact> 0.64922503E+03</totfact>
</mgrwt>
</event>
<event>
 8    1  0.6985133E-005  0.1622270E+03  0.7546771E-02  0.1192820E+00
         -2   -1    0    0    0  501 -0.00000000000E+00  0.00000000000E+00  0.64179654922E+02  0.64179654922E+02  0.00000000000E+00 0.  1.
          2   -1    0    0  501    0  0.00000000000E+00 -0.00000000000E+00 -0.39591042146E+03  0.39591042146E+03  0.00000000000E+00 0. -1.
         25    2    1    2    0    0 -0.40290110074E+02 -0.95107539410E+02 -0.10403860081E+03  0.19272163812E+03  0.12509541286E+03 0.  0.
         23    2    1    2    0    0  0.40290110074E+02  0.95107539410E+02 -0.22769216573E+03  0.26736843827E+03  0.94728150115E+02 0.  0.
          5    1    3    3  502    0 -0.63879899664E+02 -0.20167568509E+02 -0.90762959942E+02  0.11290428379E+03  0.47000000000E+01 0.  1.
         -5    1    3    3    0  502  0.23589789591E+02 -0.74939970902E+02 -0.13275640871E+02  0.79817354330E+02  0.47000000000E+01 0.  1.
          5    1    4    4  503    0 -0.27032257924E+02  0.44598549087E+02 -0.59672954795E+02  0.79389703886E+02  0.47000000000E+01 0. -1.
         -5    1    4    4    0  503  0.67322367998E+02  0.50508990323E+02 -0.16801921093E+03  0.18797873438E+03  0.47000000000E+01 0.  1.
<mgrwt>
<rscale>  0 0.15640153E+03</rscale>
<asrwt>0</asrwt>
<pdfrwt beam="1">  1        2 0.60909294E-01 0.16222700E+03</pdfrwt>
<pdfrwt beam="2">  1       -2 0.98737932E-02 0.16222700E+03</pdfrwt>
<totfact> 0.53032114E+03</totfact>
</mgrwt>
</event>
<event>
 8    1  0.6985133E-005  0.1477530E+03  0.7546771E-02  0.1212529E+00
          1   -1    0    0  501    0  0.00000000000E+00  0.00000000000E+00  0.11810083437E+03  0.11810083437E+03  0.00000000000E+00 0. -1.
         -1   -1    0    0    0  501 -0.00000000000E+00 -0.00000000000E+00 -0.15665965201E+03  0.15665965201E+03  0.00000000000E+00 0.  1.
         25    2    1    2    0    0 -0.40405569656E+02  0.67550196668E+02 -0.41886327575E+02  0.15357541985E+03  0.12504121726E+03 0.  0.
         23    2    1    2    0    0  0.40405569656E+02 -0.67550196668E+02  0.33275099392E+01  0.12118506653E+03  0.92082076965E+02 0.  0.
          5    1    4    4  502    0  0.42176834029E+02  0.48306356494E+01  0.19336373198E+02  0.46885026372E+02  0.47000000000E+01 0. -1.
         -5    1    3    3    0  503 -0.70127782827E+02  0.80514268579E+02 -0.91637080274E+01  0.10726843391E+03  0.47000000000E+01 0. -1.
          5    1    3    3  503    0  0.29722213172E+02 -0.12964071911E+02 -0.32722619548E+02  0.46306985935E+02  0.47000000000E+01 0. -1.
         -5    1    4    4    0  502 -0.17712643735E+01 -0.72380832317E+02 -0.16008863259E+02  0.74300040156E+02  0.47000000000E+01 0.  1.
<mgrwt>
<rscale>  0 0.14059618E+03</rscale>
<asrwt>0</asrwt>
<pdfrwt beam="1">  1        1 0.18169359E-01 0.14775299E+03</pdfrwt>
<pdfrwt beam="2">  1       -1 0.24101485E-01 0.14775299E+03</pdfrwt>
<totfact> 0.41288306E+03</totfact>
</mgrwt>
</event>
<event>
 7    1  0.6985133E-005  0.1414370E+03  0.7546771E-02  0.1222112E+00
          1   -1    0    0  501    0  0.00000000000E+00  0.00000000000E+00  0.44098317913E+03  0.44098317913E+03  0.00000000000E+00 0. -1.
         -1   -1    0    0    0  501 -0.00000000000E+00 -0.00000000000E+00 -0.45449513701E+02  0.45449513701E+02  0.00000000000E+00 0.  1.
         23    2    1    2    0    0  0.11296299470E+02  0.67778570057E+02  0.28628235523E+03  0.30771426253E+03  0.89492678516E+02 0.  0.
          5    1    3    3  502    0  0.26362836381E+02  0.36182477697E+02  0.25953702549E+03  0.26341170899E+03  0.47000000000E+01 0. -1.
         -5    1    3    3    0  502 -0.15066536911E+02  0.31596092361E+02  0.26745329736E+02  0.44302553534E+02  0.47000000000E+01 0.  1.
          5    1    1    2  503    0 -0.22345306015E+02  0.15276947547E+02  0.87945852642E+02  0.92137184807E+02  0.47000000000E+01 0. -1.
         -5    1    1    2    0  503  0.11049006545E+02 -0.83055517605E+02  0.21305457564E+02  0.86581245499E+02  0.47000000000E+01 0.  1.
<mgrwt>
<rscale>  0 0.13366814E+03</rscale>
<asrwt>0</asrwt>
<pdfrwt beam="1">  1        1 0.67843563E-01 0.14143701E+03</pdfrwt>
<pdfrwt beam="2">  1       -1 0.69922332E-02 0.14143701E+03</pdfrwt>
<totfact> 0.54394353E+03</totfact>
</mgrwt>
</event>
<event>
 7    1  0.6985133E-005  0.1689330E+03  0.7546771E-02  0.1185853E+00
         -2   -1    0    0    0  501 -0.00000000000E+00  0.00000000000E+00  0.97326137339E+02  0.97326137339E+02  0.00000000000E+00 0.  1.
          2   -1    0    0  501    0  0.00000000000E+00 -0.00000000000E+00 -0.33788031152E+03  0.33788031152E+03  0.00000000000E+00 0. -1.
         23    2    1    2    0    0  0.76489758920E+02 -0.83873189179E+02 -0.44161802961E+01  0.14486268992E+03  0.89890495605E+02 0.  0.
          5    1    3    3  502    0 -0.18607522929E+02 -0.29362917395E+02 -0.62775405512E+00  0.35084254341E+02  0.47000000000E+01 0. -1.
         -5    1    1    2    0  503 -0.38020799382E+01  0.66053434492E+02 -0.19244579140E+03  0.20355585142E+03  0.47000000000E+01 0.  1.
          5    1    1    2  503    0 -0.72687678981E+02  0.17819754687E+02 -0.43692202479E+02  0.86787907512E+02  0.47000000000E+01 0.  1.
         -5    1    3    3    0  502  0.95097281849E+02 -0.54510271784E+02 -0.37884262410E+01  0.10977843558E+03  0.47000000000E+01 0.  1.
<mgrwt>
<rscale>  0 0.16254532E+03</rscale>
<asrwt>0</asrwt>
<pdfrwt beam="1">  1        2 0.51981586E-01 0.16893296E+03</pdfrwt>
<pdfrwt beam="2">  1       -2 0.14973252E-01 0.16893296E+03</pdfrwt>
<totfact> 0.32243586E+03</totfact>
</mgrwt>
</event>
<event>
 7    1  0.6985133E-005  0.2097779E+03  0.7546771E-02  0.1141742E+00
          1   -1    0    0  501    0  0.00000000000E+00  0.00000000000E+00  0.18586494587E+03  0.18586494587E+03  0.00000000000E+00 0. -1.
         -1   -1    0    0    0  501 -0.00000000000E+00 -0.00000000000E+00 -0.59191884654E+02  0.59191884654E+02  0.00000000000E+00 0.  1.
         23    2    1    2    0    0 -0.80003032607E+01  0.10588202554E+02  0.53527546838E+02  0.99425616204E+02  0.82729317665E+02 0.  0.
          5    1    3    3  502    0  0.94306158241E+01  0.44212731875E+02  0.25920480816E+02  0.52322686289E+02  0.47000000000E+01 0. -1.
         -5    1    3    3    0  502 -0.17430919085E+02 -0.33624529321E+02  0.27607066022E+02  0.47102929915E+02  0.47000000000E+01 0.  1.
          5    1    1    2  503    0  0.49210869187E+02 -0.42845355937E+02  0.65429483002E+02  0.92523193943E+02  0.47000000000E+01 0. -1.
         -5    1    1    2    0  503 -0.41210565927E+02  0.32257153382E+02  0.77160313765E+01  0.53108020379E+02  0.47000000000E+01 0.  1.
<mgrwt>
<rscale>  0 0.20977794E+03</rscale>
<asrwt>0</asrwt>
<pdfrwt beam="1">  1        1 0.28594607E-01 0.20977794E+03</pdfrwt>
<pdfrwt beam="2">  1       -1 0.91064439E-02 0.20977794E+03</pdfrwt>
<totfact> 0.11034803E+04</totfact>
</mgrwt>
</event>
<event>
 8    1  0.6985133E-005  0.1405160E+03  0.7546771E-02  0.1224547E+00
          2   -1    0    0  501    0  0.00000000000E+00  0.00000000000E+00  0.57509829320E+02  0.57509829320E+02  0.00000000000E+00 0. -1.
         -2   -1    0    0    0  501 -0.00000000000E+00 -0.00000000000E+00 -0.32998008905E+03  0.32998008905E+03  0.00000000000E+00 0.  1.
         25    2    1    2    0    0  0.47306273427E+02  0.43647356355E+02 -0.69113169247E+02  0.15659299713E+03  0.12490701087E+03 0.  0.
         23    2    1    2    0    0 -0.47306273427E+02 -0.43647356355E+02 -0.20335709048E+03  0.23089692124E+03  0.88409879352E+02 0.  0.
          5    1    4    4  502    0  0.10881159260E+02 -0.49272357306E+02 -0.91432761849E+02  0.10453805413E+03  0.47000000000E+01 0. -1.
         -5    1    3    3    0  503  0.11240022868E+02  0.83665738795E+02 -0.54445741608E+02  0.10056203429E+03  0.47000000000E+01 0.  1.
          5    1    3    3  503    0  0.36066250558E+02 -0.40018382440E+02 -0.14667427639E+02  0.56030962833E+02  0.47000000000E+01 0.  1.
         -5    1    4    4    0  502 -0.58187432687E+02  0.56250009513E+01 -0.11192432863E+03  0.12635886711E+03  0.47000000000E+01 0.  1.
<mgrwt>
<rscale>  0 0.13197978E+03</rscale>
<asrwt>0</asrwt>
<pdfrwt beam="1">  1        2 0.88476662E-02 0.14051597E+03</pdfrwt>
<pdfrwt beam="2">  1       -2 0.50766166E-01 0.14051597E+03</pdfrwt>
<totfact> 0.26821319E+03</totfact>
</mgrwt>
</event>
<event>
 7    1  0.7041073E-005  0.1948877E+03  0.7546771E-02  0.1158955E+00
         -2   -1    0    0    0  501 -0.00000000000E+00  0.00000000000E+00  0.41865291607E+02  0.41865291607E+02  0.00000000000E+00 0. -1.
          2   -1    0    0  501    0  0.00000000000E+00 -0.00000000000E+00 -0.85886816823E+03  0.85886816823E+03  0.00000000000E+00 0.  1.
         23    2    1    2    0    0  0.97272194342E+02 -0.11366885799E+03 -0.28250950911E+03  0.33181837511E+03  0.88934370483E+02 0.  0.
          5    1    1    2  502    0  0.33265043479E+01  0.29930611854E+02 -0.28958233886E+03  0.29118195022E+03  0.47000000000E+01 0. -1.
         -5    1    1    2    0  502 -0.10059869869E+03  0.83738246140E+02 -0.24491102866E+03  0.27773313451E+03  0.47000000000E+01 0. -1.
          5    1    3    3  503    0  0.61414364812E+02 -0.69426357515E+02 -0.83763005195E+02  0.12502029580E+03  0.47000000000E+01 0. -1.
         -5    1    3    3    0  503  0.35857829530E+02 -0.44242500479E+02 -0.19874650391E+03  0.20679807931E+03  0.47000000000E+01 0.  1.
<mgrwt>
<rscale>  0 0.18945408E+03</rscale>
<asrwt>0</asrwt>
<pdfrwt beam="1">  1        2 0.13213356E+00 0.19488770E+03</pdfrwt>
<pdfrwt beam="2">  1       -2 0.64408145E-02 0.19488770E+03</pdfrwt>
<totfact> 0.42383124E+03</totfact>
</mgrwt>
</event>
<event>
 7    1  0.6985133E-005  0.1700369E+03  0.7546771E-02  0.1183528E+00
          4   -1    0    0  501    0  0.00000000000E+00  0.00000000000E+00  0.29242797698E+02  0.29242797698E+02  0.00000000000E+00 0. -1.
         -4   -1    0    0    0  501 -0.00000000000E+00 -0.00000000000E+00 -0.87896280524E+03  0.87896280524E+03  0.00000000000E+00 0.  1.
         23    2    1    2    0    0 -0.65593908919E+02 -0.94658687434E+02 -0.43462504575E+03  0.45963410791E+03  0.95403117168E+02 0.  0.
          5    1    3    3  502    0 -0.88285167895E+02 -0.78394974567E+02 -0.30812390586E+03  0.33000374887E+03  0.47000000000E+01 0. -1.
         -5    1    3    3    0  502  0.22691258976E+02 -0.16263712866E+02 -0.12650113990E+03  0.12963035904E+03  0.47000000000E+01 0.  1.
          5    1    1    2  503    0  0.69299416185E+01 -0.20668980326E+02 -0.16927782859E+03  0.17074045827E+03  0.47000000000E+01 0. -1.
         -5    1    1    2    0  503  0.58663967300E+02  0.11532766776E+03 -0.24581713320E+03  0.27783103675E+03  0.47000000000E+01 0. -1.
<mgrwt>
<rscale>  0 0.16466547E+03</rscale>
<asrwt>0</asrwt>
<pdfrwt beam="1">  1        4 0.44988916E-02 0.17003693E+03</pdfrwt>
<pdfrwt beam="2">  1       -4 0.13522506E+00 0.17003693E+03</pdfrwt>
<totfact> 0.20335750E+02</totfact>
</mgrwt>
</event>
<event>
 7    1  0.6985133E-005  0.1643824E+03  0.7546771E-02  0.1190980E+00
          2   -1    0    0  501    0  0.00000000000E+00  0.00000000000E+00  0.50778173091E+03  0.50778173091E+03  0.00000000000E+00 0. -1.
         -2   -1    0    0    0  501 -0.00000000000E+00 -0.00000000000E+00 -0.46796487526E+02  0.46796487526E+02  0.00000000000E+00 0.  1.
         23    2    1    2    0    0 -0.91849648246E+02 -0.54177589507E+02  0.17034933861E+03  0.22067584412E+03  0.91144730660E+02 0.  0.
          5    1    1    2  502    0  0.70049607181E+02 -0.30166963392E+02  0.15142127960E+03  0.16960980827E+03  0.47000000000E+01 0. -1.
         -5    1    1    2    0  502  0.21800041065E+02  0.84344552899E+02  0.13921462518E+03  0.16429256605E+03  0.47000000000E+01 0. -1.
          5    1    3    3  503    0 -0.41109587406E+02 -0.14512409684E+02  0.14469184157E+03  0.15119003680E+03  0.47000000000E+01 0. -1.
         -5    1    3    3    0  503 -0.50740060840E+02 -0.39665179823E+02  0.25657497037E+02  0.69485807318E+02  0.47000000000E+01 0.  1.
<mgrwt>
<rscale>  0 0.15799438E+03</rscale>
<asrwt>0</asrwt>
<pdfrwt beam="1">  1        2 0.78120263E-01 0.16438238E+03</pdfrwt>
<pdfrwt beam="2">  1       -2 0.71994600E-02 0.16438238E+03</pdfrwt>
<totfact> 0.66183803E+03</totfact>
</mgrwt>
</event>
<event>
 8    1  0.6985133E-005  0.1827537E+03  0.7546771E-02  0.1171082E+00
         -2   -1    0    0    0  501 -0.00000000000E+00  0.00000000000E+00  0.10051608778E+03  0.10051608778E+03  0.00000000000E+00 0. -1.
          2   -1    0    0  501    0  0.00000000000E+00 -0.00000000000E+00 -0.30443866618E+03  0.30443866618E+03  0.00000000000E+00 0.  1.
         25    2    1    2    0    0  0.23955583208E+02 -0.13106169158E+03 -0.66797630453E+02  0.19457857095E+03  0.12509140606E+03 0.  0.
         23    2    1    2    0    0 -0.23955583208E+02  0.13106169158E+03 -0.13712494795E+03  0.21037618302E+03  0.87771578933E+02 0.  0.
          5    1    3    3  502    0 -0.39040846138E+02 -0.78460316432E+02  0.13912325096E+01  0.87773768574E+02  0.47000000000E+01 0. -1.
         -5    1    4    4    0  503  0.18845648799E+02  0.22169543975E+02 -0.68694520433E+02  0.74750747797E+02  0.47000000000E+01 0.  1.
          5    1    4    4  503    0 -0.42801232007E+02  0.10889214760E+03 -0.68430427512E+02  0.13562543523E+03  0.47000000000E+01 0. -1.
         -5    1    3    3    0  502  0.62996429346E+02 -0.52601375145E+02 -0.68188862963E+02  0.10680480237E+03  0.47000000000E+01 0. -1.
<mgrwt>
<rscale>  0 0.17665297E+03</rscale>
<asrwt>0</asrwt>
<pdfrwt beam="1">  1        2 0.46836717E-01 0.18275365E+03</pdfrwt>
<pdfrwt beam="2">  1       -2 0.15464014E-01 0.18275365E+03</pdfrwt>
<totfact> 0.34293297E+03</totfact>
</mgrwt>
</event>
<event>
 8    1  0.6985133E-005  0.1269765E+03  0.7546771E-02  0.1247362E+00
         -2   -1    0    0    0  501 -0.00000000000E+00  0.00000000000E+00  0.10528450332E+03  0.10528450332E+03  0.00000000000E+00 0.  1.
          2   -1    0    0  501    0  0.00000000000E+00 -0.00000000000E+00 -0.11675039845E+03  0.11675039845E+03  0.00000000000E+00 0. -1.
         25    2    1    2    0    0 -0.20336647490E+02 -0.85608667358E+01  0.73804555883E+01  0.12719084379E+03  0.12504467981E+03 0.  0.
         23    2    1    2    0    0  0.20336647490E+02  0.85608667358E+01 -0.18846350715E+02  0.94844057980E+02  0.90295862189E+02 0.  0.
          5    1    4    4  502    0  0.49014231243E+02 -0.12748179899E+02  0.57910956977E+01  0.51191188153E+02  0.47000000000E+01 0.  1.
         -5    1    3    3    0  503 -0.46842220623E+02 -0.29869317216E+02 -0.40043895853E+02  0.68643815009E+02  0.47000000000E+01 0. -1.
          5    1    3    3  503    0  0.26505573134E+02  0.21308450480E+02  0.47424351441E+02  0.58547028777E+02  0.47000000000E+01 0. -1.
         -5    1    4    4    0  502 -0.28677583754E+02  0.21309046635E+02 -0.24637446413E+02  0.43652869828E+02  0.47000000000E+01 0. -1.
<mgrwt>
<rscale>  0 0.11745138E+03</rscale>
<asrwt>0</asrwt>
<pdfrwt beam="1">  1        2 0.17961600E-01 0.12697653E+03</pdfrwt>
<pdfrwt beam="2">  1       -2 0.16197616E-01 0.12697653E+03</pdfrwt>
<totfact> 0.88808923E+03</totfact>
</mgrwt>
</event>
<event>
 7    1  0.6985133E-005  0.1432623E+03  0.7546771E-02  0.1219049E+00
         -1   -1    0    0    0  501 -0.00000000000E+00  0.00000000000E+00  0.99242805425E+02  0.99242805425E+02  0.00000000000E+00 0.  1.
          1   -1    0    0  501    0  0.00000000000E+00 -0.00000000000E+00 -0.16905347587E+03  0.16905347587E+03  0.00000000000E+00 0. -1.
         23    2    1    2    0    0  0.14239013982E+02 -0.68822957648E+02 -0.29762413647E+02  0.11954166032E+03  0.92005751268E+02 0.  0.
          5    1    1    2  502    0 -0.17896620234E+02  0.42319660035E+02  0.41937070415E+02  0.62386300710E+02  0.47000000000E+01 0.  1.
         -5    1    3    3    0  503  0.25916791921E+02  0.13422960427E+02  0.38359045009E+01  0.29810403108E+02  0.47000000000E+01 0.  1.
          5    1    3    3  503    0 -0.11677777940E+02 -0.82245918076E+02 -0.33598318148E+02  0.89731257207E+02  0.47000000000E+01 0. -1.
         -5    1    1    2    0  502  0.36576062526E+01  0.26503297613E+02 -0.81985327210E+02  0.86368320266E+02  0.47000000000E+01 0.  1.
<mgrwt>
<rscale>  0 0.13583284E+03</rscale>
<asrwt>0</asrwt>
<pdfrwt beam="1">  1        1 0.26008227E-01 0.14326226E+03</pdfrwt>
<pdfrwt beam="2">  1       -1 0.15268124E-01 0.14326226E+03</pdfrwt>
<totfact> 0.54377730E+03</totfact>
</mgrwt>
</event>
<event>
 7    1  0.6985133E-005  0.2540325E+03  0.7546771E-02  0.1113097E+00
         -2   -1    0    0    0  501 -0.00000000000E+00  0.00000000000E+00  0.35132053497E+03  0.35132053497E+03  0.00000000000E+00 0.  1.
          2   -1    0    0  501    0  0.00000000000E+00 -0.00000000000E+00 -0.17888959321E+03  0.17888959321E+03  0.00000000000E+00 0. -1.
         23    2    1    2    0    0  0.22092348089E+03 -0.12538536279E+02  0.37151354580E+02  0.24240277892E+03  0.91730500824E+02 0.  0.
          5    1    1    2  502    0 -0.21085918984E+03 -0.94031303914E+01  0.15014848401E+03  0.25906885968E+03  0.47000000000E+01 0. -1.
         -5    1    1    2    0  502 -0.10064291049E+02  0.21941666671E+02 -0.14868896828E+02  0.28738489583E+02  0.47000000000E+01 0. -1.
          5    1    3    3  503    0  0.11564637625E+03  0.33991099084E+02 -0.22583449219E+01  0.12065102270E+03  0.47000000000E+01 0. -1.
         -5    1    3    3    0  503  0.10527710464E+03 -0.46529635363E+02  0.39409699502E+02  0.12175175622E+03  0.47000000000E+01 0.  1.
<mgrwt>
<rscale>  0 0.25032888E+03</rscale>
<asrwt>0</asrwt>
<pdfrwt beam="1">  1        2 0.27521476E-01 0.25403249E+03</pdfrwt>
<pdfrwt beam="2">  1       -2 0.54049313E-01 0.25403249E+03</pdfrwt>
<totfact> 0.63444023E+02</totfact>
</mgrwt>
</event>
<event>
 8    1  0.6985133E-005  0.1258673E+03  0.7546771E-02  0.1248204E+00
          3   -1    0    0  501    0  0.00000000000E+00  0.00000000000E+00  0.23312577471E+03  0.23312577471E+03  0.00000000000E+00 0. -1.
         -3   -1    0    0    0  501 -0.00000000000E+00 -0.00000000000E+00 -0.62145559358E+02  0.62145559358E+02  0.00000000000E+00 0.  1.
         25    2    1    2    0    0 -0.15289954583E+02 -0.31415069705E+00  0.15568347472E+03  0.20019972578E+03  0.12493480100E+03 0.  0.
         23    2    1    2    0    0  0.15289954583E+02  0.31415069705E+00  0.15296740639E+02  0.95071608294E+02  0.92578285940E+02 0.  0.
          5    1    3    3  502    0 -0.36117792983E+02  0.44575044410E+01 -0.58795266532E+01  0.37162119819E+02  0.47000000000E+01 0.  1.
         -5    1    3    3    0  502  0.20827838399E+02 -0.47716551381E+01  0.16156300137E+03  0.16303760596E+03  0.47000000000E+01 0.  1.
          5    1    4    4  503    0 -0.31360644433E+02 -0.21177313082E+02 -0.71920144374E+01  0.38804428617E+02  0.47000000000E+01 0. -1.
         -5    1    4    4    0  503  0.46650599016E+02  0.21491463779E+02  0.22488755077E+02  0.56267179677E+02  0.47000000000E+01 0.  1.
<mgrwt>
<rscale>  0 0.11695630E+03</rscale>
<asrwt>0</asrwt>
<pdfrwt beam="1">  1        3 0.35865503E-01 0.12586733E+03</pdfrwt>
<pdfrwt beam="2">  1       -3 0.95608554E-02 0.12586733E+03</pdfrwt>
<totfact> 0.13836228E+03</totfact>
</mgrwt>
</event>
<event>
 8    1  0.6985133E-005  0.1311412E+03  0.7546771E-02  0.1238501E+00
         -2   -1    0    0    0  501 -0.00000000000E+00  0.00000000000E+00  0.12036580871E+02  0.12036580871E+02  0.00000000000E+00 0.  1.
          2   -1    0    0  501    0  0.00000000000E+00 -0.00000000000E+00 -0.11213011379E+04  0.11213011379E+04  0.00000000000E+00 0. -1.
         25    2    1    2    0    0 -0.32104360926E+01 -0.39417275909E+02 -0.65447237725E+03  0.66748190658E+03  0.12503589281E+03 0.  0.
         23    2    1    2    0    0  0.32104360926E+01  0.39417275909E+02 -0.45479217974E+03  0.46585581215E+03  0.92853015142E+02 0.  0.
          5    1    4    4  502    0 -0.32045473387E+02 -0.10405628379E+02 -0.24382197887E+03  0.24618374611E+03  0.47000000000E+01 0. -1.
         -5    1    3    3    0  503  0.39167392616E+02 -0.49353200570E+02 -0.55769514454E+03  0.56126267228E+03  0.47000000000E+01 0.  1.
          5    1    3    3  503    0 -0.42377828709E+02  0.99359246608E+01 -0.96777232710E+02  0.10621923430E+03  0.47000000000E+01 0.  1.
         -5    1    4    4    0  502  0.35255909479E+02  0.49822904288E+02 -0.21097020087E+03  0.21967206604E+03  0.47000000000E+01 0.  1.
<mgrwt>
<rscale>  0 0.12282964E+03</rscale>
<asrwt>0</asrwt>
<pdfrwt beam="1">  1        2 0.17250785E+00 0.13114116E+03</pdfrwt>
<pdfrwt beam="2">  1       -2 0.18517818E-02 0.13114116E+03</pdfrwt>
<totfact> 0.18364208E+04</totfact>
</mgrwt>
</event>
<event>
 7    1  0.6985133E-005  0.1342949E+03  0.7546771E-02  0.1233718E+00
         -1   -1    0    0    0  501 -0.00000000000E+00  0.00000000000E+00  0.23401250737E+03  0.23401250737E+03  0.00000000000E+00 0.  1.
          1   -1    0    0  501    0  0.00000000000E+00 -0.00000000000E+00 -0.22458232806E+03  0.22458232806E+03  0.00000000000E+00 0. -1.
         23    2    1    2    0    0  0.28802787726E+01 -0.49571163875E+02  0.20012064654E+03  0.22536112978E+03  0.90960262476E+02 0.  0.
          5    1    1    2  502    0  0.56924707218E+02  0.19473322436E+01 -0.71179308282E+02  0.91284162494E+02  0.47000000000E+01 0. -1.
         -5    1    3    3    0  503 -0.27776417599E+02 -0.63589288212E+02  0.13121419664E+03  0.14850717945E+03  0.47000000000E+01 0.  1.
          5    1    3    3  503    0  0.30656696372E+02  0.14018124337E+02  0.68906449905E+02  0.76853950327E+02  0.47000000000E+01 0. -1.
         -5    1    1    2    0  502 -0.59804985990E+02  0.47623831631E+02 -0.11951115895E+03  0.14194954315E+03  0.47000000000E+01 0.  1.
<mgrwt>
<rscale>  0 0.12586844E+03</rscale>
<asrwt>0</asrwt>
<pdfrwt beam="1">  1        1 0.34551128E-01 0.13429485E+03</pdfrwt>
<pdfrwt beam="2">  1       -1 0.36001924E-01 0.13429485E+03</pdfrwt>
<totfact> 0.93504788E+02</totfact>
</mgrwt>
</event>
<event>
 7    1  0.6985133E-005  0.1463620E+03  0.7546771E-02  0.1214126E+00
         -2   -1    0    0    0  501 -0.00000000000E+00  0.00000000000E+00  0.54825627214E+02  0.54825627214E+02  0.00000000000E+00 0.  1.
          2   -1    0    0  501    0  0.00000000000E+00 -0.00000000000E+00 -0.32919445020E+03  0.32919445020E+03  0.00000000000E+00 0. -1.
         23    2    1    2    0    0 -0.74484076484E+02  0.17440007585E+02 -0.14647872025E+03  0.18965517998E+03  0.93064710240E+02 0.  0.
          5    1    1    2  502    0  0.83545143797E+02 -0.55099056024E+02 -0.62096535143E+02  0.11787182320E+03  0.47000000000E+01 0. -1.
         -5    1    3    3    0  503 -0.66429682614E+02 -0.25103128793E+02 -0.11739670471E+03  0.13728490843E+03  0.47000000000E+01 0.  1.
          5    1    3    3  503    0 -0.80543938703E+01  0.42543136378E+02 -0.29082015538E+02  0.52370271541E+02  0.47000000000E+01 0. -1.
         -5    1    1    2    0  502 -0.90610673124E+01  0.37659048439E+02 -0.65793567595E+02  0.76493074242E+02  0.47000000000E+01 0. -1.
<mgrwt>
<rscale>  0 0.13940911E+03</rscale>
<asrwt>0</asrwt>
<pdfrwt beam="1">  1        2 0.50645300E-01 0.14636200E+03</pdfrwt>
<pdfrwt beam="2">  1       -2 0.84347119E-02 0.14636200E+03</pdfrwt>
<totfact> 0.82131310E+03</totfact>
</mgrwt>
</event>
<event>
 8    1  0.6985133E-005  0.1941359E+03  0.7546771E-02  0.1159575E+00
          2   -1    0    0  501    0  0.00000000000E+00  0.00000000000E+00  0.11123935040E+04  0.11123935040E+04  0.00000000000E+00 0. -1.
         -2   -1    0    0    0  501 -0.00000000000E+00 -0.00000000000E+00 -0.30768336863E+02  0.30768336863E+02  0.00000000000E+00 0.  1.
         25    2    1    2    0    0 -0.43683516939E+02  0.14191028021E+03  0.63458274740E+03  0.66361436234E+03  0.12506790686E+03 0.  0.
         23    2    1    2    0    0  0.43683516939E+02 -0.14191028021E+03  0.44704241978E+03  0.47954747856E+03  0.89844765188E+02 0.  0.
          5    1    3    3  502    0 -0.58290824312E+02  0.27159816957E+02  0.35830493834E+03  0.36406042726E+03  0.47000000000E+01 0.  1.
         -5    1    4    4    0  503  0.35863889094E+02 -0.33935347361E+02  0.24809564700E+03  0.25300467664E+03  0.47000000000E+01 0.  1.
          5    1    4    4  503    0  0.78196278448E+01 -0.10797493285E+03  0.19894677278E+03  0.22654280192E+03  0.47000000000E+01 0. -1.
         -5    1    3    3    0  502  0.14607307373E+02  0.11475046325E+03  0.27627780906E+03  0.29955393508E+03  0.47000000000E+01 0.  1.
<mgrwt>
<rscale>  0 0.18877055E+03</rscale>
<asrwt>0</asrwt>
<pdfrwt beam="1">  1        2 0.17113743E+00 0.19413593E+03</pdfrwt>
<pdfrwt beam="2">  1       -2 0.47335911E-02 0.19413593E+03</pdfrwt>
<totfact> 0.47351541E+03</totfact>
</mgrwt>
</event>
<event>
 8    1  0.6985133E-005  0.1720515E+03  0.7546771E-02  0.1182259E+00
         -2   -1    0    0    0  501 -0.00000000000E+00  0.00000000000E+00  0.31739510688E+02  0.31739510688E+02  0.00000000000E+00 0.  1.
          2   -1    0    0  501    0  0.00000000000E+00 -0.00000000000E+00 -0.10648384991E+04  0.10648384991E+04  0.00000000000E+00 0. -1.
         25    2    1    2    0    0 -0.11668511489E+03 -0.19336986607E+02 -0.27739377410E+03  0.32641846168E+03  0.12494947429E+03 0.  0.
         23    2    1    2    0    0  0.11668511489E+03  0.19336986607E+02 -0.75570521436E+03  0.77015954816E+03  0.89811043442E+02 0.  0.
          5    1    4    4  502    0  0.11980815842E+03 -0.83550959708E+01 -0.62012342999E+03  0.63166364536E+03  0.47000000000E+01 0. -1.
         -5    1    3    3    0  503 -0.98365938199E+02 -0.44463637676E+02 -0.27430423318E+03  0.29481820706E+03  0.47000000000E+01 0.  1.
          5    1    3    3  503    0 -0.18319176694E+02  0.25126651069E+02 -0.30895409195E+01  0.31600254616E+02  0.47000000000E+01 0.  1.
         -5    1    4    4    0  502 -0.31230435293E+01  0.27692082577E+02 -0.13558178437E+03  0.13849590279E+03  0.47000000000E+01 0.  1.
<mgrwt>
<rscale>  0 0.16583762E+03</rscale>
<asrwt>0</asrwt>
<pdfrwt beam="1">  1        2 0.16382129E+00 0.17205146E+03</pdfrwt>
<pdfrwt beam="2">  1       -2 0.48830020E-02 0.17205146E+03</pdfrwt>
<totfact> 0.47990327E+03</totfact>
</mgrwt>
</event>
<event>
 7    1  0.6985133E-005  0.1641916E+03  0.7546771E-02  0.1190192E+00
         -1   -1    0    0    0  501 -0.00000000000E+00  0.00000000000E+00  0.49556803533E+02  0.49556803533E+02  0.00000000000E+00 0.  1.
          1   -1    0    0  501    0  0.00000000000E+00 -0.00000000000E+00 -0.70832393470E+03  0.70832393470E+03  0.00000000000E+00 0. -1.
         23    2    1    2    0    0 -0.82214030598E+02 -0.67880713780E+02 -0.97963884717E+02  0.17353566512E+03  0.95659637419E+02 0.  0.
          5    1    1    2  502    0  0.28468522960E+02  0.70106316760E+02 -0.13253153405E+03  0.15268284110E+03  0.47000000000E+01 0.  1.
         -5    1    1    2    0  502  0.53745507638E+02 -0.22256029804E+01 -0.42827171239E+03  0.43166223200E+03  0.47000000000E+01 0.  1.
          5    1    3    3  503    0 -0.39143293345E+02  0.77616935890E+01 -0.72213881990E+02  0.82640039045E+02  0.47000000000E+01 0. -1.
         -5    1    3    3    0  503 -0.43070737253E+02 -0.75642407369E+02 -0.25750002727E+02  0.90895626080E+02  0.47000000000E+01 0.  1.
<mgrwt>
<rscale>  0 0.15868260E+03</rscale>
<asrwt>0</asrwt>
<pdfrwt beam="1">  1        1 0.10897291E+00 0.16419161E+03</pdfrwt>
<pdfrwt beam="2">  1       -1 0.76241237E-02 0.16419161E+03</pdfrwt>
<totfact> 0.25352558E+03</totfact>
</mgrwt>
</event>
<event>
 8    1  0.6985133E-005  0.1750931E+03  0.7546771E-02  0.1179060E+00
          1   -1    0    0  501    0  0.00000000000E+00  0.00000000000E+00  0.56030496347E+03  0.56030496347E+03  0.00000000000E+00 0. -1.
         -1   -1    0    0    0  501 -0.00000000000E+00 -0.00000000000E+00 -0.54766598301E+02  0.54766598301E+02  0.00000000000E+00 0.  1.
         25    2    1    2    0    0 -0.78738455359E+02  0.94088279109E+02  0.15741348935E+03  0.23544977058E+03  0.12492093187E+03 0.  0.
         23    2    1    2    0    0  0.78738455359E+02 -0.94088279109E+02  0.34812487582E+03  0.37962179119E+03  0.88709788436E+02 0.  0.
          5    1    3    3  502    0  0.29419680714E+02  0.34428723734E+02  0.72044346787E+02  0.85225187211E+02  0.47000000000E+01 0. -1.
         -5    1    3    3    0  502 -0.10815813607E+03  0.59659555374E+02  0.85369142562E+02  0.15022458337E+03  0.47000000000E+01 0. -1.
          5    1    4    4  503    0  0.32568431014E+02 -0.71259541911E+02  0.29585282345E+03  0.30608758249E+03  0.47000000000E+01 0. -1.
         -5    1    4    4    0  503  0.46170024345E+02 -0.22828737197E+02  0.52272052371E+02  0.73534208700E+02  0.47000000000E+01 0.  1.
<mgrwt>
<rscale>  0 0.16884289E+03</rscale>
<asrwt>0</asrwt>
<pdfrwt beam="1">  1        1 0.86200760E-01 0.17509308E+03</pdfrwt>
<pdfrwt beam="2">  1       -1 0.84256309E-02 0.17509308E+03</pdfrwt>
<totfact> 0.30260714E+03</totfact>
</mgrwt>
</event>
<event>
 8    1  0.6985133E-005  0.1285189E+03  0.7546771E-02  0.1243464E+00
          2   -1    0    0  501    0  0.00000000000E+00  0.00000000000E+00  0.60142675829E+03  0.60142675829E+03  0.00000000000E+00 0. -1.
         -2   -1    0    0    0  501 -0.00000000000E+00 -0.00000000000E+00 -0.32462411735E+02  0.32462411735E+02  0.00000000000E+00 0.  1.
         25    2    1    2    0    0  0.22667749254E+01 -0.29956668220E+02  0.49643573423E+03  0.51280165740E+03  0.12495823852E+03 0.  0.
         23    2    1    2    0    0 -0.22667749254E+01  0.29956668220E+02  0.72528612328E+02  0.12108751263E+03  0.92191354630E+02 0.  0.
          5    1    3    3  502    0  0.21207707427E+02  0.31924320241E+02  0.58561237112E+02  0.70145830734E+02  0.47000000000E+01 0.  1.
         -5    1    3    3    0  502 -0.18940932502E+02 -0.61880988462E+02  0.43787449712E+03  0.44265582667E+03  0.47000000000E+01 0.  1.
          5    1    4    4  503    0  0.21620085207E+02  0.48708464848E+02  0.14505793093E+02  0.55429691191E+02  0.47000000000E+01 0. -1.
         -5    1    4    4    0  503 -0.23886860132E+02 -0.18751796628E+02  0.58022819235E+02  0.65657821436E+02  0.47000000000E+01 0.  1.
<mgrwt>
<rscale>  0 0.11977784E+03</rscale>
<asrwt>0</asrwt>
<pdfrwt beam="1">  1        2 0.92527185E-01 0.12851888E+03</pdfrwt>
<pdfrwt beam="2">  1       -2 0.49942176E-02 0.12851888E+03</pdfrwt>
<totfact> 0.94022879E+03</totfact>
</mgrwt>
</event>
<event>
 8    1  0.6985133E-005  0.1821181E+03  0.7546771E-02  0.1170304E+00
          1   -1    0    0  501    0  0.00000000000E+00  0.00000000000E+00  0.10018374622E+04  0.10018374622E+04  0.00000000000E+00 0. -1.
         -1   -1    0    0    0  501 -0.00000000000E+00 -0.00000000000E+00 -0.48491683745E+02  0.48491683745E+02  0.00000000000E+00 0.  1.
         25    2    1    2    0    0 -0.13238349982E+03 -0.19754627072E+01  0.16718183328E+03  0.24721805168E+03  0.12505081455E+03 0.  0.
         23    2    1    2    0    0  0.13238349982E+03  0.19754627072E+01  0.78616394521E+03  0.80311109430E+03  0.96976221675E+02 0.  0.
          5    1    4    4  502    0  0.76132072404E+01 -0.29027518042E+02  0.85527513548E+02  0.90761243391E+02  0.47000000000E+01 0. -1.
         -5    1    3    3    0  503 -0.82803858374E+02 -0.13450538438E+02  0.17630605402E+03  0.19530312499E+03  0.47000000000E+01 0. -1.
          5    1    3    3  503    0 -0.49579641442E+02  0.11475075731E+02 -0.91242207423E+01  0.51914926685E+02  0.47000000000E+01 0. -1.
         -5    1    4    4    0  502  0.12477029258E+03  0.31002980749E+02  0.70063643166E+03  0.71234985091E+03  0.47000000000E+01 0.  1.
<mgrwt>
<rscale>  0 0.17744010E+03</rscale>
<asrwt>0</asrwt>
<pdfrwt beam="1">  1        1 0.15412883E+00 0.18211809E+03</pdfrwt>
<pdfrwt beam="2">  1       -1 0.74602598E-02 0.18211809E+03</pdfrwt>
<totfact> 0.15265475E+03</totfact>
</mgrwt>
</event>
<event>
 8    1  0.6985133E-005  0.1793211E+03  0.7546771E-02  0.1174265E+00
         -2   -1    0    0    0  501 -0.00000000000E+00  0.00000000000E+00  0.13084402713E+03  0.13084402713E+03  0.00000000000E+00 0.  1.
          2   -1    0    0  501    0  0.00000000000E+00 -0.00000000000E+00 -0.23443703252E+03  0.23443703252E+03  0.00000000000E+00 0. -1.
         25    2    1    2    0    0 -0.11787764316E+03 -0.51226040958E+02 -0.41462024328E+01  0.17936902265E+03  0.12504722813E+03 0.  0.
         23    2    1    2    0    0  0.11787764316E+03  0.51226040958E+02 -0.99446802957E+02  0.18591203701E+03  0.90301566184E+02 0.  0.
          5    1    4    4  502    0  0.49167184996E+02 -0.31140476339E+01 -0.83032735409E+02  0.96662477325E+02  0.47000000000E+01 0. -1.
         -5    1    3    3    0  503 -0.57569287223E+02 -0.10339255153E+01 -0.59731495394E+02  0.83097733876E+02  0.47000000000E+01 0. -1.
          5    1    3    3  503    0 -0.60308355942E+02 -0.50192115442E+02  0.55585292961E+02  0.96271288776E+02  0.47000000000E+01 0. -1.
         -5    1    4    4    0  502  0.68710458169E+02  0.54340088592E+02 -0.16414067548E+02  0.89249559681E+02  0.47000000000E+01 0.  1.
<mgrwt>
<rscale>  0 0.17348129E+03</rscale>
<asrwt>0</asrwt>
<pdfrwt beam="1">  1        2 0.36067236E-01 0.17932110E+03</pdfrwt>
<pdfrwt beam="2">  1       -2 0.20129850E-01 0.17932110E+03</pdfrwt>
<totfact> 0.29145479E+03</totfact>
</mgrwt>
</event>
<event>
 8    1  0.6985133E-005  0.1304418E+03  0.7546771E-02  0.1240069E+00
         -2   -1    0    0    0  501 -0.00000000000E+00  0.00000000000E+00  0.13573175020E+03  0.13573175020E+03  0.00000000000E+00 0.  1.
          2   -1    0    0  501    0  0.00000000000E+00 -0.00000000000E+00 -0.10495739779E+03  0.10495739779E+03  0.00000000000E+00 0. -1.
         25    2    1    2    0    0 -0.29731857437E+02  0.22809341542E+02 -0.15021424358E+02  0.13130386887E+03  0.12494324064E+03 0.  0.
         23    2    1    2    0    0  0.29731857437E+02 -0.22809341542E+02  0.45795776762E+02  0.10938527912E+03  0.91998025578E+02 0.  0.
          5    1    4    4  502    0  0.14401223084E+02  0.15607080180E+02 -0.21288360026E+02  0.30434527278E+02  0.47000000000E+01 0. -1.
         -5    1    4    4    0  502  0.15330634353E+02 -0.38416421721E+02  0.67084136788E+02  0.78950751840E+02  0.47000000000E+01 0.  1.
          5    1    3    3  503    0 -0.21228806274E+01  0.72495495464E+02 -0.15322610657E+01  0.72694850634E+02  0.47000000000E+01 0.  1.
         -5    1    3    3    0  503 -0.27608976810E+02 -0.49686153923E+02 -0.13489163292E+02  0.58609018234E+02  0.47000000000E+01 0.  1.
<mgrwt>
<rscale>  0 0.12185423E+03</rscale>
<asrwt>0</asrwt>
<pdfrwt beam="1">  1        2 0.16147292E-01 0.13044180E+03</pdfrwt>
<pdfrwt beam="2">  1       -2 0.20881808E-01 0.13044180E+03</pdfrwt>
<totfact> 0.65789843E+03</totfact>
</mgrwt>
</event>
<event>
 8    1  0.6985133E-005  0.1507560E+03  0.7546771E-02  0.1209453E+00
         -1   -1    0    0    0  501 -0.00000000000E+00  0.00000000000E+00  0.10697368843E+03  0.10697368843E+03  0.00000000000E+00 0.  1.
          1   -1    0    0  501    0  0.00000000000E+00 -0.00000000000E+00 -0.17919122324E+03  0.17919122324E+03  0.00000000000E+00 0. -1.
         25    2    1    2    0    0  0.34881831923E+02 -0.76578054016E+02 -0.14633318881E+02  0.15146453158E+03  0.12508568963E+03 0.  0.
         23    2    1    2    0    0 -0.34881831923E+02  0.76578054016E+02 -0.57584215930E+02  0.13470038009E+03  0.88018804340E+02 0.  0.
          5    1    4    4  502    0 -0.27367853423E+02  0.37896404170E+02 -0.77247152422E+02  0.90412108743E+02  0.47000000000E+01 0. -1.
         -5    1    4    4    0  502 -0.75139784998E+01  0.38681649846E+02  0.19662936491E+02  0.44288271350E+02  0.47000000000E+01 0.  1.
          5    1    3    3  503    0 -0.29163562204E+02 -0.40254190778E+02 -0.49104128514E+02  0.70030126894E+02  0.47000000000E+01 0.  1.
         -5    1    3    3    0  503  0.64045394127E+02 -0.36323863238E+02  0.34470809633E+02  0.81434404684E+02  0.47000000000E+01 0.  1.
<mgrwt>
<rscale>  0 0.14291973E+03</rscale>
<asrwt>0</asrwt>
<pdfrwt beam="1">  1        1 0.27567880E-01 0.15075600E+03</pdfrwt>
<pdfrwt beam="2">  1       -1 0.16457491E-01 0.15075600E+03</pdfrwt>
<totfact> 0.45045509E+03</totfact>
</mgrwt>
</event>
<event>
 7    1  0.6985133E-005  0.1314711E+03  0.7546771E-02  0.1237831E+00
         -2   -1    0    0    0  501 -0.00000000000E+00  0.00000000000E+00  0.22538089103E+03  0.22538089103E+03  0.00000000000E+00 0.  1.
          2   -1    0    0  501    0  0.00000000000E+00 -0.00000000000E+00 -0.63926901049E+02  0.63926901049E+02  0.00000000000E+00 0. -1.
         23    2    1    2    0    0  0.43347598323E+02  0.28119815129E+01  0.10549219342E+03  0.14642194845E+03  0.91781602700E+02 0.  0.
          5    1    1    2  502    0  0.28149973364E+02  0.12645461258E+02 -0.20199545778E+02  0.37181182613E+02  0.47000000000E+01 0. -1.
         -5    1    3    3    0  503  0.44449715680E+02 -0.38760579338E+02  0.54350006177E+02  0.80337867199E+02  0.47000000000E+01 0.  1.
          5    1    3    3  503    0 -0.11021173564E+01  0.41572560851E+02  0.51142187246E+02  0.66084081250E+02  0.47000000000E+01 0. -1.
         -5    1    1    2    0  502 -0.71497571688E+02 -0.15457442771E+02  0.76161342335E+02  0.10570466102E+03  0.47000000000E+01 0.  1.
<mgrwt>
<rscale>  0 0.12324920E+03</rscale>
<asrwt>0</asrwt>
<pdfrwt beam="1">  1        2 0.98349080E-02 0.13147107E+03</pdfrwt>
<pdfrwt beam="2">  1       -2 0.34673983E-01 0.13147107E+03</pdfrwt>
<totfact> 0.48559267E+03</totfact>
</mgrwt>
</event>
<event>
 8    1  0.6985133E-005  0.1704664E+03  0.7546771E-02  0.1183830E+00
         -2   -1    0    0    0  501 -0.00000000000E+00  0.00000000000E+00  0.20849326210E+04  0.20849326210E+04  0.00000000000E+00 0.  1.
          2   -1    0    0  501    0  0.00000000000E+00 -0.00000000000E+00 -0.12327941870E+02  0.12327941870E+02  0.00000000000E+00 0. -1.
         25    2    1    2    0    0  0.90534620970E+02 -0.72525910102E+02  0.12469362471E+04  0.12585343907E+04  0.12490909866E+03 0.  0.
         23    2    1    2    0    0 -0.90534620970E+02  0.72525910102E+02  0.82566843202E+03  0.83872617219E+03  0.90976409351E+02 0.  0.
          5    1    3    3  502    0 -0.23037533535E+02 -0.42996152283E+02  0.25465605270E+03  0.25932834831E+03  0.47000000000E+01 0. -1.
         -5    1    3    3    0  502  0.11357215451E+03 -0.29529757819E+02  0.99228019441E+03  0.99920604236E+03  0.47000000000E+01 0. -1.
          5    1    4    4  503    0 -0.86937994697E+02  0.14318679098E+02  0.45628765365E+03  0.46474052154E+03  0.47000000000E+01 0. -1.
         -5    1    4    4    0  503 -0.35966262731E+01  0.58207231003E+02  0.36938077838E+03  0.37398565065E+03  0.47000000000E+01 0.  1.
<mgrwt>
<rscale>  0 0.16438785E+03</rscale>
<asrwt>0</asrwt>
<pdfrwt beam="1">  1        2 0.18966081E-02 0.17046644E+03</pdfrwt>
<pdfrwt beam="2">  1       -2 0.32075859E+00 0.17046644E+03</pdfrwt>
<totfact> 0.16339390E+02</totfact>
</mgrwt>
</event>
<event>
 7    1  0.6985133E-005  0.1561862E+03  0.7546771E-02  0.1201487E+00
         -2   -1    0    0    0  501 -0.00000000000E+00  0.00000000000E+00  0.65508715708E+02  0.65508715708E+02  0.00000000000E+00 0.  1.
          2   -1    0    0  501    0  0.00000000000E+00 -0.00000000000E+00 -0.33320443604E+03  0.33320443604E+03  0.00000000000E+00 0. -1.
         23    2    1    2    0    0 -0.82491928503E+02  0.40978464376E+02 -0.72885577235E+02  0.14902310829E+03  0.91713830057E+02 0.  0.
          5    1    3    3  502    0 -0.59956903564E+02 -0.17503971435E+02 -0.55814185363E+02  0.83895962887E+02  0.47000000000E+01 0. -1.
         -5    1    1    2    0  503  0.70103513930E+01  0.35088725828E+02 -0.12552047174E+02  0.38210045736E+02  0.47000000000E+01 0.  1.
          5    1    1    2  503    0  0.75481577110E+02 -0.76067190204E+02 -0.18225809592E+03  0.21147999772E+03  0.47000000000E+01 0. -1.
         -5    1    3    3    0  502 -0.22535024939E+02  0.58482435811E+02 -0.17071391872E+02  0.65127145399E+02  0.47000000000E+01 0.  1.
<mgrwt>
<rscale>  0 0.14917760E+03</rscale>
<asrwt>0</asrwt>
<pdfrwt beam="1">  1        2 0.51262221E-01 0.15618619E+03</pdfrwt>
<pdfrwt beam="2">  1       -2 0.10078264E-01 0.15618619E+03</pdfrwt>
<totfact> 0.61615284E+03</totfact>
</mgrwt>
</event>
<event>
 7    1  0.6985133E-005  0.1260734E+03  0.7546771E-02  0.1249093E+00
          4   -1    0    0  501    0  0.00000000000E+00  0.00000000000E+00  0.33603062288E+02  0.33603062288E+02  0.00000000000E+00 0. -1.
         -4   -1    0    0    0  501 -0.00000000000E+00 -0.00000000000E+00 -0.36569738091E+03  0.36569738091E+03  0.00000000000E+00 0.  1.
         23    2    1    2    0    0 -0.13307041317E+02 -0.11107518963E+02 -0.10391440006E+03  0.13860795189E+03  0.90075010204E+02 0.  0.
          5    1    3    3  502    0 -0.11875833744E+02 -0.50426678099E+02 -0.56037697586E+02  0.76460439719E+02  0.47000000000E+01 0. -1.
         -5    1    3    3    0  502 -0.14312075731E+01  0.39319159136E+02 -0.47876702469E+02  0.62147512176E+02  0.47000000000E+01 0.  1.
          5    1    1    2  503    0 -0.48618161473E+02  0.33316403175E+02 -0.12426301282E+03  0.13761211684E+03  0.47000000000E+01 0.  1.
         -5    1    1    2    0  503  0.61925202790E+02 -0.22208884211E+02 -0.10391690574E+03  0.12308037446E+03  0.47000000000E+01 0.  1.
<mgrwt>
<rscale>  0 0.11643744E+03</rscale>
<asrwt>0</asrwt>
<pdfrwt beam="1">  1        4 0.51697020E-02 0.12607339E+03</pdfrwt>
<pdfrwt beam="2">  1       -4 0.56261134E-01 0.12607339E+03</pdfrwt>
<totfact> 0.11170327E+03</totfact>
</mgrwt>
</event>
<event>
 8    1  0.6985133E-005  0.1361141E+03  0.7546771E-02  0.1230125E+00
         -2   -1    0    0    0  501 -0.00000000000E+00  0.00000000000E+00  0.30776484299E+02  0.30776484299E+02  0.00000000000E+00 0.  1.
          2   -1    0    0  501    0  0.00000000000E+00 -0.00000000000E+00 -0.54085203890E+03  0.54085203890E+03  0.00000000000E+00 0. -1.
         25    2    1    2    0    0 -0.43884571803E+02 -0.30923851082E+02 -0.37665886293E+03  0.40049835836E+03  0.12507955794E+03 0.  0.
         23    2    1    2    0    0  0.43884571803E+02  0.30923851082E+02 -0.13341669167E+03  0.17113016485E+03  0.92754404182E+02 0.  0.
          5    1    3    3  502    0 -0.14890670860E+02  0.23947453239E+02 -0.12745069871E+02  0.31300789149E+02  0.47000000000E+01 0. -1.
         -5    1    3    3    0  502 -0.28993900942E+02 -0.54871304321E+02 -0.36391379306E+03  0.36919756921E+03  0.47000000000E+01 0. -1.
          5    1    4    4  503    0  0.89054278507E+00  0.30176123076E+02 -0.12286275563E+03  0.12660465312E+03  0.47000000000E+01 0. -1.
         -5    1    4    4    0  503  0.42994029017E+02  0.74772800540E+00 -0.10553936039E+02  0.44525511724E+02  0.47000000000E+01 0.  1.
<mgrwt>
<rscale>  0 0.12821713E+03</rscale>
<asrwt>0</asrwt>
<pdfrwt beam="1">  1        2 0.83208012E-01 0.13611406E+03</pdfrwt>
<pdfrwt beam="2">  1       -2 0.47348434E-02 0.13611406E+03</pdfrwt>
<totfact> 0.11520312E+04</totfact>
</mgrwt>
</event>
<event>
 7    1  0.6985133E-005  0.1559309E+03  0.7546771E-02  0.1200736E+00
         -2   -1    0    0    0  501 -0.00000000000E+00  0.00000000000E+00  0.87089875932E+02  0.87089875932E+02  0.00000000000E+00 0.  1.
          2   -1    0    0  501    0  0.00000000000E+00 -0.00000000000E+00 -0.27068916128E+03  0.27068916128E+03  0.00000000000E+00 0. -1.
         23    2    1    2    0    0  0.61701108632E+02 -0.69701308091E+02 -0.14607585281E+03  0.19739677961E+03  0.94668023482E+02 0.  0.
          5    1    1    2  502    0 -0.41161147133E+02  0.25887206706E+02  0.43814765568E+02  0.65621728003E+02  0.47000000000E+01 0. -1.
         -5    1    3    3    0  503  0.16981892081E+02 -0.38543599650E+02 -0.10468120117E+01  0.42393154494E+02  0.47000000000E+01 0.  1.
          5    1    3    3  503    0  0.44719216551E+02 -0.31157708441E+02 -0.14502904079E+03  0.15500362511E+03  0.47000000000E+01 0. -1.
         -5    1    1    2    0  502 -0.20539961499E+02  0.43814101385E+02 -0.81338198108E+02  0.94760529600E+02  0.47000000000E+01 0. -1.
<mgrwt>
<rscale>  0 0.14978646E+03</rscale>
<asrwt>0</asrwt>
<pdfrwt beam="1">  1        2 0.41644485E-01 0.15593095E+03</pdfrwt>
<pdfrwt beam="2">  1       -2 0.13398443E-01 0.15593095E+03</pdfrwt>
<totfact> 0.48768706E+03</totfact>
</mgrwt>
</event>
<event>
 8    1  0.6985133E-005  0.1516412E+03  0.7546771E-02  0.1207487E+00
          3   -1    0    0  501    0  0.00000000000E+00  0.00000000000E+00  0.57265695720E+02  0.57265695720E+02  0.00000000000E+00 0. -1.
         -3   -1    0    0    0  501 -0.00000000000E+00 -0.00000000000E+00 -0.33441100311E+03  0.33441100311E+03  0.00000000000E+00 0.  1.
         25    2    1    2    0    0 -0.78449907900E+02  0.35073632454E+02 -0.14243676640E+03  0.20804637686E+03  0.12494204560E+03 0.  0.
         23    2    1    2    0    0  0.78449907900E+02 -0.35073632454E+02 -0.13470854098E+03  0.18363032197E+03  0.90493957748E+02 0.  0.
          5    1    4    4  502    0  0.30350786544E+02 -0.48797209413E+02 -0.24763479031E+02  0.62750759231E+02  0.47000000000E+01 0. -1.
         -5    1    4    4    0  502  0.48099121356E+02  0.13723576958E+02 -0.10994506195E+03  0.12087956274E+03  0.47000000000E+01 0.  1.
          5    1    3    3  503    0 -0.37661799302E+02  0.46428911481E+02 -0.62142985689E+00  0.59971085725E+02  0.47000000000E+01 0. -1.
         -5    1    3    3    0  503 -0.40788108598E+02 -0.11355279027E+02 -0.14181533655E+03  0.14807529113E+03  0.47000000000E+01 0. -1.
<mgrwt>
<rscale>  0 0.14443151E+03</rscale>
<asrwt>0</asrwt>
<pdfrwt beam="1">  1        3 0.88101070E-02 0.15164123E+03</pdfrwt>
<pdfrwt beam="2">  1       -3 0.51447847E-01 0.15164123E+03</pdfrwt>
<totfact> 0.80657178E+02</totfact>
</mgrwt>
</event>
<event>
 8    1  0.6985133E-005  0.1506890E+03  0.7546771E-02  0.1208875E+00
          2   -1    0    0  501    0  0.00000000000E+00  0.00000000000E+00  0.55063000484E+03  0.55063000484E+03  0.00000000000E+00 0. -1.
         -2   -1    0    0    0  501 -0.00000000000E+00 -0.00000000000E+00 -0.40483275506E+02  0.40483275506E+02  0.00000000000E+00 0.  1.
         25    2    1    2    0    0  0.80494041931E+02 -0.24390215654E+02  0.39310791462E+03  0.42100000755E+03  0.12503199757E+03 0.  0.
         23    2    1    2    0    0 -0.80494041931E+02  0.24390215654E+02  0.11703881472E+03  0.17011327280E+03  0.90367405769E+02 0.  0.
          5    1    3    3  502    0  0.10675290419E+03  0.94937929701E+01  0.26832271837E+03  0.28897315766E+03  0.47000000000E+01 0.  1.
         -5    1    4    4    0  503 -0.38152595857E+02  0.36356177035E+02  0.94064922336E+01  0.53739782986E+02  0.47000000000E+01 0.  1.
          5    1    4    4  503    0 -0.42341446074E+02 -0.11965961382E+02  0.10763232249E+03  0.11637348981E+03  0.47000000000E+01 0. -1.
         -5    1    3    3    0  502 -0.26258862260E+02 -0.33884008624E+02  0.12478519625E+03  0.13202684988E+03  0.47000000000E+01 0.  1.
<mgrwt>
<rscale>  0 0.14336259E+03</rscale>
<asrwt>0</asrwt>
<pdfrwt beam="1">  1        2 0.84712303E-01 0.15068900E+03</pdfrwt>
<pdfrwt beam="2">  1       -2 0.62281966E-02 0.15068900E+03</pdfrwt>
<totfact> 0.75132033E+03</totfact>
</mgrwt>
</event>
<event>
 7    1  0.6985133E-005  0.1366233E+03  0.7546771E-02  0.1226072E+00
          1   -1    0    0  501    0  0.00000000000E+00  0.00000000000E+00  0.12484447148E+04  0.12484447148E+04  0.00000000000E+00 0. -1.
         -1   -1    0    0    0  501 -0.00000000000E+00 -0.00000000000E+00 -0.25570208099E+02  0.25570208099E+02  0.00000000000E+00 0.  1.
         23    2    1    2    0    0 -0.48600633361E+02  0.26930874160E+02  0.13463516879E+03  0.17723291169E+03  0.10098308157E+03 0.  0.
          5    1    3    3  502    0  0.20898330189E+02 -0.19776353018E+02  0.51280947150E+02  0.58988726754E+02  0.47000000000E+01 0. -1.
         -5    1    1    2    0  503 -0.43910226567E+01  0.45895898850E+02  0.38852200572E+03  0.39127631355E+03  0.47000000000E+01 0.  1.
          5    1    1    2  503    0  0.52991656018E+02 -0.72826773010E+02  0.69971733221E+03  0.70550569769E+03  0.47000000000E+01 0. -1.
         -5    1    3    3    0  502 -0.69498963550E+02  0.46707227178E+02  0.83354221640E+02  0.11824418493E+03  0.47000000000E+01 0.  1.
<mgrwt>
<rscale>  0 0.13093726E+03</rscale>
<asrwt>0</asrwt>
<pdfrwt beam="1">  1        1 0.19206837E+00 0.13662329E+03</pdfrwt>
<pdfrwt beam="2">  1       -1 0.39338791E-02 0.13662329E+03</pdfrwt>
<totfact> 0.26466602E+03</totfact>
</mgrwt>
</event>
<event>
 8    1  0.6985133E-005  0.1857275E+03  0.7546771E-02  0.1167534E+00
          3   -1    0    0  501    0  0.00000000000E+00  0.00000000000E+00  0.26453883099E+02  0.26453883099E+02  0.00000000000E+00 0. -1.
         -3   -1    0    0    0  501 -0.00000000000E+00 -0.00000000000E+00 -0.12569057250E+04  0.12569057250E+04  0.00000000000E+00 0.  1.
         25    2    1    2    0    0  0.15316601163E+02  0.13643157611E+03 -0.47268520274E+03  0.50786417387E+03  0.12508615023E+03 0.  0.
         23    2    1    2    0    0 -0.15316601163E+02 -0.13643157611E+03 -0.75776663915E+03  0.77549543422E+03  0.91294664998E+02 0.  0.
          5    1    4    4  502    0 -0.19685064117E+02 -0.47437079328E+02 -0.10858223327E+03  0.12020802646E+03  0.47000000000E+01 0. -1.
         -5    1    3    3    0  503  0.55345759766E+02  0.13396730526E+03 -0.35692200256E+03  0.38526068826E+03  0.47000000000E+01 0.  1.
          5    1    3    3  503    0 -0.40029158603E+02  0.24642708502E+01 -0.11576320018E+03  0.12260348562E+03  0.47000000000E+01 0.  1.
         -5    1    4    4    0  502  0.43684629545E+01 -0.88994496778E+02 -0.64918440588E+03  0.65528740776E+03  0.47000000000E+01 0.  1.
<mgrwt>
<rscale>  0 0.18027860E+03</rscale>
<asrwt>0</asrwt>
<pdfrwt beam="1">  1        3 0.40698286E-02 0.18572754E+03</pdfrwt>
<pdfrwt beam="2">  1       -3 0.19337009E+00 0.18572754E+03</pdfrwt>
<totfact> 0.13486075E+02</totfact>
</mgrwt>
</event>
<event>
 8    1  0.6985133E-005  0.1347959E+03  0.7546771E-02  0.1232967E+00
          1   -1    0    0  501    0  0.00000000000E+00  0.00000000000E+00  0.17708722469E+03  0.17708722469E+03  0.00000000000E+00 0. -1.
         -1   -1    0    0    0  501 -0.00000000000E+00 -0.00000000000E+00 -0.86941718904E+02  0.86941718904E+02  0.00000000000E+00 0.  1.
         25    2    1    2    0    0 -0.26937108482E+02  0.42549765137E+02  0.85961171491E+02  0.15987264641E+03  0.12503539395E+03 0.  0.
         23    2    1    2    0    0  0.26937108482E+02 -0.42549765137E+02  0.41843342958E+01  0.10415629718E+03  0.91076535191E+02 0.  0.
          5    1    4    4  502    0 -0.17329129249E+02  0.20224895973E+02 -0.59840380007E+00  0.27051676931E+02  0.47000000000E+01 0. -1.
         -5    1    4    4    0  502  0.44266237731E+02 -0.62774661109E+02  0.47827380958E+01  0.77104620250E+02  0.47000000000E+01 0.  1.
          5    1    3    3  503    0  0.28192154925E+02  0.33417014389E+02  0.93467555552E+02  0.10329457096E+03  0.47000000000E+01 0.  1.
         -5    1    3    3    0  503 -0.55129263406E+02  0.91327507474E+01 -0.75063840604E+01  0.56578075450E+02  0.47000000000E+01 0.  1.
<mgrwt>
<rscale>  0 0.12635466E+03</rscale>
<asrwt>0</asrwt>
<pdfrwt beam="1">  1        1 0.27244188E-01 0.13479592E+03</pdfrwt>
<pdfrwt beam="2">  1       -1 0.13375649E-01 0.13479592E+03</pdfrwt>
<totfact> 0.62847929E+03</totfact>
</mgrwt>
</event>
<event>
 8    1  0.6985133E-005  0.1947930E+03  0.7546771E-02  0.1158409E+00
          1   -1    0    0  501    0  0.00000000000E+00  0.00000000000E+00  0.70372336997E+03  0.70372336997E+03  0.00000000000E+00 0. -1.
         -1   -1    0    0    0  501 -0.00000000000E+00 -0.00000000000E+00 -0.87107732800E+02  0.87107732800E+02  0.00000000000E+00 0.  1.
         25    2    1    2    0    0  0.13013760139E+03 -0.73439139145E+02  0.57824750161E+03  0.61017576713E+03  0.12496075871E+03 0.  0.
         23    2    1    2    0    0 -0.13013760139E+03  0.73439139145E+02  0.38368135554E+02  0.18065533564E+03  0.93995393581E+02 0.  0.
          5    1    3    3  502    0  0.20902989059E+02  0.34134383127E+02  0.95768426632E+02  0.10390270739E+03  0.47000000000E+01 0.  1.
         -5    1    4    4    0  503 -0.51828256764E+02  0.39522379095E+02 -0.29326441732E+02  0.71626230064E+02  0.47000000000E+01 0.  1.
          5    1    4    4  503    0 -0.78309344626E+02  0.33916760050E+02  0.67694577287E+02  0.10902910557E+03  0.47000000000E+01 0. -1.
         -5    1    3    3    0  502  0.10923461233E+03 -0.10757352227E+03  0.48247907498E+03  0.50627305974E+03  0.47000000000E+01 0.  1.
<mgrwt>
<rscale>  0 0.19005836E+03</rscale>
<asrwt>0</asrwt>
<pdfrwt beam="1">  1        1 0.10826513E+00 0.19479295E+03</pdfrwt>
<pdfrwt beam="2">  1       -1 0.13401190E-01 0.19479295E+03</pdfrwt>
<totfact> 0.10772251E+03</totfact>
</mgrwt>
</event>
<event>
 7    1  0.6985133E-005  0.1860134E+03  0.7546771E-02  0.1167424E+00
         -2   -1    0    0    0  501 -0.00000000000E+00  0.00000000000E+00  0.92399789923E+03  0.92399789923E+03  0.00000000000E+00 0.  1.
          2   -1    0    0  501    0  0.00000000000E+00 -0.00000000000E+00 -0.34902229423E+02  0.34902229423E+02  0.00000000000E+00 0. -1.
         23    2    1    2    0    0 -0.56066773662E+02  0.12595977202E+03  0.31435385182E+03  0.35480647686E+03  0.89777194165E+02 0.  0.
          5    1    3    3  502    0 -0.13979232411E+02  0.99894383682E+02  0.13438892647E+03  0.16809753237E+03  0.47000000000E+01 0. -1.
         -5    1    3    3    0  502 -0.42087541251E+02  0.26065388337E+02  0.17996492535E+03  0.18670894449E+03  0.47000000000E+01 0.  1.
          5    1    1    2  503    0 -0.26837830900E+02 -0.27682846882E+02  0.27744512997E+03  0.28015085101E+03  0.47000000000E+01 0. -1.
         -5    1    1    2    0  503  0.82904604562E+02 -0.98276925137E+02  0.29729668802E+03  0.32394280078E+03  0.47000000000E+01 0. -1.
<mgrwt>
<rscale>  0 0.18039221E+03</rscale>
<asrwt>0</asrwt>
<pdfrwt beam="1">  1        2 0.53695745E-02 0.18601339E+03</pdfrwt>
<pdfrwt beam="2">  1       -2 0.14215350E+00 0.18601339E+03</pdfrwt>
<totfact> 0.51544166E+02</totfact>
</mgrwt>
</event>
<event>
 8    1  0.6985133E-005  0.1356020E+03  0.7546771E-02  0.1232001E+00
         -2   -1    0    0    0  501 -0.00000000000E+00  0.00000000000E+00  0.27236910013E+02  0.27236910013E+02  0.00000000000E+00 0.  1.
          2   -1    0    0  501    0  0.00000000000E+00 -0.00000000000E+00 -0.63480857349E+03  0.63480857349E+03  0.00000000000E+00 0. -1.
         25    2    1    2    0    0  0.20012355073E+02  0.48744454466E+02 -0.47149665087E+03  0.49060879581E+03  0.12494551832E+03 0.  0.
         23    2    1    2    0    0 -0.20012355073E+02 -0.48744454466E+02 -0.13607501261E+03  0.17143668769E+03  0.89986735878E+02 0.  0.
          5    1    3    3  502    0  0.22819497359E+02 -0.31647601787E+02 -0.28152310894E+03  0.28425279423E+03  0.47000000000E+01 0. -1.
         -5    1    3    3    0  502 -0.28071422865E+01  0.80392056254E+02 -0.18997354193E+03  0.20635600158E+03  0.47000000000E+01 0. -1.
          5    1    4    4  503    0 -0.46641361925E+02 -0.58593632883E+02 -0.10531331096E+03  0.12931207956E+03  0.47000000000E+01 0. -1.
         -5    1    4    4    0  503  0.26629006853E+02  0.98491784169E+01 -0.30761701653E+02  0.42124608129E+02  0.47000000000E+01 0.  1.
<mgrwt>
<rscale>  0 0.12698395E+03</rscale>
<asrwt>0</asrwt>
<pdfrwt beam="1">  1        2 0.97662853E-01 0.13560199E+03</pdfrwt>
<pdfrwt beam="2">  1       -2 0.41902940E-02 0.13560199E+03</pdfrwt>
<totfact> 0.11529922E+04</totfact>
</mgrwt>
</event>
<event>
 8    1  0.6985133E-005  0.1454734E+03  0.7546771E-02  0.1215538E+00
         -1   -1    0    0    0  501 -0.00000000000E+00  0.00000000000E+00  0.38424011648E+02  0.38424011648E+02  0.00000000000E+00 0.  1.
          1   -1    0    0  501    0  0.00000000000E+00 -0.00000000000E+00 -0.48640920591E+03  0.48640920591E+03  0.00000000000E+00 0. -1.
         25    2    1    2    0    0  0.43201452518E+02 -0.60480381381E+02 -0.31091110716E+03  0.34326117536E+03  0.12505309243E+03 0.  0.
         23    2    1    2    0    0 -0.43201452518E+02  0.60480381381E+02 -0.13707408710E+03  0.18157204219E+03  0.93031495311E+02 0.  0.
          5    1    4    4  502    0 -0.45539632474E+02  0.21592680661E+02 -0.13277549461E+03  0.14209688228E+03  0.47000000000E+01 0. -1.
         -5    1    4    4    0  502  0.23381799558E+01  0.38887700719E+02 -0.42985924879E+01  0.39475159913E+02  0.47000000000E+01 0.  1.
          5    1    3    3  503    0  0.93969231775E+01 -0.92323628471E+02 -0.24865640261E+03  0.26545065662E+03  0.47000000000E+01 0. -1.
         -5    1    3    3    0  503  0.33804529341E+02  0.31843247090E+02 -0.62254704551E+02  0.77810518748E+02  0.47000000000E+01 0. -1.
<mgrwt>
<rscale>  0 0.13837061E+03</rscale>
<asrwt>0</asrwt>
<pdfrwt beam="1">  1        1 0.74832189E-01 0.14547343E+03</pdfrwt>
<pdfrwt beam="2">  1       -1 0.59113861E-02 0.14547343E+03</pdfrwt>
<totfact> 0.61722732E+03</totfact>
</mgrwt>
</event>
<event>
 7    1  0.6985133E-005  0.1299431E+03  0.7546771E-02  0.1241488E+00
         -2   -1    0    0    0  501 -0.00000000000E+00  0.00000000000E+00  0.27305983704E+02  0.27305983704E+02  0.00000000000E+00 0.  1.
          2   -1    0    0  501    0  0.00000000000E+00 -0.00000000000E+00 -0.51783771699E+03  0.51783771699E+03  0.00000000000E+00 0. -1.
         23    2    1    2    0    0 -0.36586900912E+02 -0.88015007780E+01 -0.13496951833E+03  0.16658101423E+03  0.90091041120E+02 0.  0.
          5    1    3    3  502    0 -0.42140596930E+02 -0.35918706460E+02 -0.12498536238E+03  0.13678236068E+03  0.47000000000E+01 0. -1.
         -5    1    1    2    0  503 -0.43017404869E+02 -0.86072717769E+01 -0.17384303070E+03  0.17935459730E+03  0.47000000000E+01 0.  1.
          5    1    1    2  503    0  0.79604305782E+02  0.17408772555E+02 -0.18171918425E+03  0.19920808916E+03  0.47000000000E+01 0. -1.
         -5    1    3    3    0  502  0.55536960179E+01  0.27117205682E+02 -0.99841559465E+01  0.29798653551E+02  0.47000000000E+01 0.  1.
<mgrwt>
<rscale>  0 0.12098058E+03</rscale>
<asrwt>0</asrwt>
<pdfrwt beam="1">  1        2 0.79667334E-01 0.12994314E+03</pdfrwt>
<pdfrwt beam="2">  1       -2 0.42009210E-02 0.12994314E+03</pdfrwt>
<totfact> 0.14402446E+04</totfact>
</mgrwt>
</event>
<event>
 7    1  0.6985133E-005  0.1296382E+03  0.7546771E-02  0.1241072E+00
          2   -1    0    0  501    0  0.00000000000E+00  0.00000000000E+00  0.56151474956E+03  0.56151474956E+03  0.00000000000E+00 0. -1.
         -2   -1    0    0    0  501 -0.00000000000E+00 -0.00000000000E+00 -0.29118416423E+02  0.29118416423E+02  0.00000000000E+00 0.  1.
         23    2    1    2    0    0 -0.38313097087E+02  0.92412464031E+01  0.36881062187E+03  0.38190763270E+03  0.90988301811E+02 0.  0.
          5    1    1    2  502    0  0.41920618750E+02 -0.59169780716E+02  0.12779000987E+03  0.14700604698E+03  0.47000000000E+01 0.  1.
         -5    1    3    3    0  503 -0.68123940962E+02  0.42805165043E+01  0.26447170627E+03  0.27317863674E+03  0.47000000000E+01 0.  1.
          5    1    3    3  503    0  0.29810843876E+02  0.49607298988E+01  0.10433891560E+03  0.10872899596E+03  0.47000000000E+01 0. -1.
         -5    1    1    2    0  502 -0.36075216631E+01  0.49928534313E+02  0.35795701402E+02  0.61719486307E+02  0.47000000000E+01 0.  1.
<mgrwt>
<rscale>  0 0.12123580E+03</rscale>
<asrwt>0</asrwt>
<pdfrwt beam="1">  1        2 0.86386876E-01 0.12963820E+03</pdfrwt>
<pdfrwt beam="2">  1       -2 0.44797568E-02 0.12963820E+03</pdfrwt>
<totfact> 0.11959819E+04</totfact>
</mgrwt>
</event>
<event>
 8    1  0.6985133E-005  0.1263263E+03  0.7546771E-02  0.1248348E+00
          2   -1    0    0  501    0  0.00000000000E+00  0.00000000000E+00  0.35367686454E+02  0.35367686454E+02  0.00000000000E+00 0. -1.
         -2   -1    0    0    0  501 -0.00000000000E+00 -0.00000000000E+00 -0.35304298177E+03  0.35304298177E+03  0.00000000000E+00 0.  1.
         25    2    1    2    0    0  0.42354301407E+01 -0.18142695640E+02 -0.14355406360E+03  0.19122267974E+03  0.12494497907E+03 0.  0.
         23    2    1    2    0    0 -0.42354301407E+01  0.18142695640E+02 -0.17412123172E+03  0.19718798849E+03  0.90652099791E+02 0.  0.
          5    1    3    3  502    0  0.57613514093E+02 -0.41647051220E+01 -0.11531770880E+03  0.12906171290E+03  0.47000000000E+01 0.  1.
         -5    1    4    4    0  503 -0.29861718195E+02  0.32937996806E+02 -0.15575711650E+03  0.16204629952E+03  0.47000000000E+01 0.  1.
          5    1    4    4  503    0  0.25626288054E+02 -0.14795301166E+02 -0.18364115215E+02  0.35141688969E+02  0.47000000000E+01 0. -1.
         -5    1    3    3    0  502 -0.53378083953E+02 -0.13977990518E+02 -0.28236354807E+02  0.62160966838E+02  0.47000000000E+01 0.  1.
<mgrwt>
<rscale>  0 0.11687207E+03</rscale>
<asrwt>0</asrwt>
<pdfrwt beam="1">  1        2 0.54411826E-02 0.12632634E+03</pdfrwt>
<pdfrwt beam="2">  1       -2 0.54314304E-01 0.12632634E+03</pdfrwt>
<totfact> 0.43156617E+03</totfact>
</mgrwt>
</event>
<event>
 7    1  0.6985133E-005  0.1327510E+03  0.7546771E-02  0.1234761E+00
          2   -1    0    0  501    0  0.00000000000E+00  0.00000000000E+00  0.33544383978E+02  0.33544383978E+02  0.00000000000E+00 0. -1.
         -2   -1    0    0    0  501 -0.00000000000E+00 -0.00000000000E+00 -0.42167032928E+03  0.42167032928E+03  0.00000000000E+00 0.  1.
         23    2    1    2    0    0  0.39562766921E+02  0.22534926572E+02 -0.16511309422E+03  0.19568136657E+03  0.94635236022E+02 0.  0.
          5    1    1    2  502    0 -0.22853974096E+02 -0.24902626815E+01  0.96448080322E+01  0.25369624794E+02  0.47000000000E+01 0. -1.
         -5    1    3    3    0  503  0.66971434741E+01 -0.34420935394E+02 -0.84063283578E+02  0.91205143331E+02  0.47000000000E+01 0.  1.
          5    1    3    3  503    0  0.32865623447E+02  0.56955861966E+02 -0.81049810644E+02  0.10447622324E+03  0.47000000000E+01 0. -1.
         -5    1    1    2    0  502 -0.16708792825E+02 -0.20044663890E+02 -0.23265765912E+03  0.23416372190E+03  0.47000000000E+01 0. -1.
<mgrwt>
<rscale>  0 0.12519722E+03</rscale>
<asrwt>0</asrwt>
<pdfrwt beam="1">  1        2 0.51606743E-02 0.13275099E+03</pdfrwt>
<pdfrwt beam="2">  1       -2 0.64872360E-01 0.13275099E+03</pdfrwt>
<totfact> 0.32249949E+03</totfact>
</mgrwt>
</event>
<event>
 7    1  0.6985133E-005  0.1545026E+03  0.7546771E-02  0.1203661E+00
          2   -1    0    0  501    0  0.00000000000E+00  0.00000000000E+00  0.47228779851E+03  0.47228779851E+03  0.00000000000E+00 0. -1.
         -2   -1    0    0    0  501 -0.00000000000E+00 -0.00000000000E+00 -0.42431110321E+02  0.42431110321E+02  0.00000000000E+00 0.  1.
         23    2    1    2    0    0 -0.47262983579E+02  0.77329671342E+02  0.17958766380E+03  0.22060049314E+03  0.90549328513E+02 0.  0.
          5    1    3    3  502    0 -0.71573866672E+02  0.68270878834E+02  0.15826556862E+03  0.18669175530E+03  0.47000000000E+01 0. -1.
         -5    1    3    3    0  502  0.24310883092E+02  0.90587925085E+01  0.21322095185E+02  0.33908737834E+02  0.47000000000E+01 0.  1.
          5    1    1    2  503    0  0.52404920613E+02  0.19442343056E+02  0.11124522360E+03  0.12458679778E+03  0.47000000000E+01 0.  1.
         -5    1    1    2    0  503 -0.51419370339E+01 -0.96772014399E+02  0.13902380079E+03  0.16953161791E+03  0.47000000000E+01 0.  1.
<mgrwt>
<rscale>  0 0.14743475E+03</rscale>
<asrwt>0</asrwt>
<pdfrwt beam="1">  1        2 0.72659657E-01 0.15450261E+03</pdfrwt>
<pdfrwt beam="2">  1       -2 0.65278635E-02 0.15450261E+03</pdfrwt>
<totfact> 0.83006086E+03</totfact>
</mgrwt>
</event>
<event>
 8    1  0.6985133E-005  0.1862293E+03  0.7546771E-02  0.1166962E+00
         -1   -1    0    0    0  501 -0.00000000000E+00  0.00000000000E+00  0.22915746205E+02  0.22915746205E+02  0.00000000000E+00 0.  1.
          1   -1    0    0  501    0  0.00000000000E+00 -0.00000000000E+00 -0.13698880247E+04  0.13698880247E+04  0.00000000000E+00 0. -1.
         25    2    1    2    0    0  0.89947531439E+01 -0.13770320572E+03 -0.79332549205E+03  0.81489059239E+03  0.12505303984E+03 0.  0.
         23    2    1    2    0    0 -0.89947531439E+01  0.13770320572E+03 -0.55364678645E+03  0.57791317852E+03  0.91737665752E+02 0.  0.
          5    1    4    4  502    0 -0.15370931121E+01  0.31808922784E+02 -0.31546467914E+03  0.31710286030E+03  0.47000000000E+01 0. -1.
         -5    1    3    3    0  503  0.54112566562E+02 -0.62478933640E+02 -0.54997003255E+03  0.55616626445E+03  0.47000000000E+01 0. -1.
          5    1    3    3  503    0 -0.45117813418E+02 -0.75224272079E+02 -0.24335545950E+03  0.25872432794E+03  0.47000000000E+01 0. -1.
         -5    1    4    4    0  502 -0.74576600318E+01  0.10589428293E+03 -0.23818210730E+03  0.26081031822E+03  0.47000000000E+01 0.  1.
<mgrwt>
<rscale>  0 0.18087198E+03</rscale>
<asrwt>0</asrwt>
<pdfrwt beam="1">  1        1 0.21075201E+00 0.18622927E+03</pdfrwt>
<pdfrwt beam="2">  1       -1 0.35254993E-02 0.18622927E+03</pdfrwt>
<totfact> 0.25886399E+03</totfact>
</mgrwt>
</event>
<event>
 7    1  0.6985133E-005  0.1271832E+03  0.7546771E-02  0.1248359E+00
         -2   -1    0    0    0  501 -0.00000000000E+00  0.00000000000E+00  0.48940549022E+02  0.48940549022E+02  0.00000000000E+00 0.  1.
          2   -1    0    0  501    0  0.00000000000E+00 -0.00000000000E+00 -0.28206042013E+03  0.28206042013E+03  0.00000000000E+00 0. -1.
         23    2    1    2    0    0 -0.83060355156E+01  0.17659229368E+02 -0.38489834677E+02  0.98500627033E+02  0.88544155903E+02 0.  0.
          5    1    1    2  502    0  0.58890378071E+02  0.14184680683E+02 -0.61292927233E+02  0.86302924193E+02  0.47000000000E+01 0.  1.
         -5    1    3    3    0  503 -0.37085909366E+02 -0.13339625883E+02 -0.39407081073E+02  0.55931371617E+02  0.47000000000E+01 0.  1.
          5    1    3    3  503    0  0.28779873851E+02  0.30998855251E+02  0.91724639648E+00  0.42569255416E+02  0.47000000000E+01 0. -1.
         -5    1    1    2    0  502 -0.50584342556E+02 -0.31843910050E+02 -0.13333710920E+03  0.14619741793E+03  0.47000000000E+01 0.  1.
<mgrwt>
<rscale>  0 0.11686573E+03</rscale>
<asrwt>0</asrwt>
<pdfrwt beam="1">  1        2 0.43393911E-01 0.12718317E+03</pdfrwt>
<pdfrwt beam="2">  1       -2 0.75293153E-02 0.12718317E+03</pdfrwt>
<totfact> 0.11410527E+04</totfact>
</mgrwt>
</event>
<event>
 7    1  0.6985133E-005  0.1422150E+03  0.7546771E-02  0.1218184E+00
          1   -1    0    0  501    0  0.00000000000E+00  0.00000000000E+00  0.16175609006E+04  0.16175609006E+04  0.00000000000E+00 0. -1.
         -1   -1    0    0    0  501 -0.00000000000E+00 -0.00000000000E+00 -0.12879822591E+02  0.12879822591E+02  0.00000000000E+00 0.  1.
         23    2    1    2    0    0  0.68288214710E+02  0.25305071474E+00  0.41072198722E+03  0.42804169941E+03  0.99316672031E+02 0.  0.
          5    1    3    3  502    0  0.88094704742E+02  0.19893050743E+02  0.34130042095E+03  0.35307857173E+03  0.47000000000E+01 0. -1.
         -5    1    1    2    0  503 -0.24017009986E+01  0.54917447403E+02  0.39938132392E+03  0.40317394024E+03  0.47000000000E+01 0. -1.
          5    1    1    2  503    0 -0.65886513711E+02 -0.55170498118E+02  0.79457776687E+03  0.79922508354E+03  0.47000000000E+01 0. -1.
         -5    1    3    3    0  502 -0.19806490032E+02 -0.19640000029E+02  0.69421566271E+02  0.74963127683E+02  0.47000000000E+01 0.  1.
<mgrwt>
<rscale>  0 0.13645252E+03</rscale>
<asrwt>0</asrwt>
<pdfrwt beam="1">  1        1 0.24885536E+00 0.14221498E+03</pdfrwt>
<pdfrwt beam="2">  1       -1 0.19815124E-02 0.14221498E+03</pdfrwt>
<totfact> 0.41139594E+03</totfact>
</mgrwt>
</event>
<event>
 8    1  0.6985133E-005  0.1292730E+03  0.7546771E-02  0.1241578E+00
          1   -1    0    0  501    0  0.00000000000E+00  0.00000000000E+00  0.16660095490E+03  0.16660095490E+03  0.00000000000E+00 0. -1.
         -1   -1    0    0    0  501 -0.00000000000E+00 -0.00000000000E+00 -0.84910554837E+02  0.84910554837E+02  0.00000000000E+00 0.  1.
         25    2    1    2    0    0  0.27116055710E+02  0.18219791835E+02  0.80953008035E+02  0.15252832853E+03  0.12507701709E+03 0.  0.
         23    2    1    2    0    0 -0.27116055710E+02 -0.18219791835E+02  0.73739202847E+00  0.98983181206E+02  0.93433854266E+02 0.  0.
          5    1    4    4  502    0  0.19168308250E+02 -0.21846389597E+02  0.31480915741E+02  0.43102515419E+02  0.47000000000E+01 0. -1.
         -5    1    3    3    0  503 -0.34768003614E+02  0.37662499678E+02  0.37874205091E+01  0.51611166538E+02  0.47000000000E+01 0. -1.
          5    1    3    3  503    0  0.61884059324E+02 -0.19442707843E+02  0.77165587526E+02  0.10091716199E+03  0.47000000000E+01 0. -1.
         -5    1    4    4    0  502 -0.46284363960E+02  0.36265977619E+01 -0.30743523712E+02  0.55880665787E+02  0.47000000000E+01 0.  1.
<mgrwt>
<rscale>  0 0.12092557E+03</rscale>
<asrwt>0</asrwt>
<pdfrwt beam="1">  1        1 0.25630916E-01 0.12927297E+03</pdfrwt>
<pdfrwt beam="2">  1       -1 0.13063162E-01 0.12927297E+03</pdfrwt>
<totfact> 0.70164134E+03</totfact>
</mgrwt>
</event>
<event>
 8    1  0.1333900E-004  0.1506033E+03  0.7546771E-02  0.1208590E+00
         -2   -1    0    0    0  501 -0.00000000000E+00  0.00000000000E+00  0.15406651788E+03  0.15406651788E+03  0.00000000000E+00 0.  1.
          2   -1    0    0  501    0  0.00000000000E+00 -0.00000000000E+00 -0.12531214669E+03  0.12531214669E+03  0.00000000000E+00 0. -1.
         25    2    1    2    0    0 -0.64437987978E+02  0.53988359797E+02 -0.42295000437E+01  0.15066267738E+03  0.12495741834E+03 0.  0.
         23    2    1    2    0    0  0.64437987978E+02 -0.53988359797E+02  0.32983871233E+02  0.12871598718E+03  0.91721711207E+02 0.  0.
          5    1    3    3  502    0 -0.48607813618E+00  0.60282359513E+02  0.40008940370E+02  0.72505202916E+02  0.47000000000E+01 0.  1.
         -5    1    4    4    0  503  0.54691758963E+02 -0.71469797649E+01 -0.18413946874E+02  0.58338934321E+02  0.47000000000E+01 0. -1.
          5    1    4    4  503    0  0.97462290147E+01 -0.46841380032E+02  0.51397818107E+02  0.70377052861E+02  0.47000000000E+01 0.  1.
         -5    1    3    3    0  502 -0.63951909842E+02 -0.62939997160E+01 -0.44238440413E+02  0.78157474467E+02  0.47000000000E+01 0.  1.
<mgrwt>
<rscale>  0 0.14358093E+03</rscale>
<asrwt>0</asrwt>
<pdfrwt beam="1">  1        2 0.19278792E-01 0.15060330E+03</pdfrwt>
<pdfrwt beam="2">  1       -2 0.23702541E-01 0.15060330E+03</pdfrwt>
<totfact> 0.43575860E+03</totfact>
</mgrwt>
</event>
<event>
 8    1  0.6985133E-005  0.1262894E+03  0.7546771E-02  0.1247023E+00
         -2   -1    0    0    0  501 -0.00000000000E+00  0.00000000000E+00  0.42507103737E+02  0.42507103737E+02  0.00000000000E+00 0.  1.
          2   -1    0    0  501    0  0.00000000000E+00 -0.00000000000E+00 -0.32408939780E+03  0.32408939780E+03  0.00000000000E+00 0. -1.
         25    2    1    2    0    0 -0.17435292443E+02  0.21938828834E+01 -0.21877598652E+03  0.25261027010E+03  0.12506084014E+03 0.  0.
         23    2    1    2    0    0  0.17435292443E+02 -0.21938828834E+01 -0.62806307535E+02  0.11398623143E+03  0.93484897952E+02 0.  0.
          5    1    4    4  502    0  0.44197481172E+02 -0.21018236033E+02 -0.64245278876E+02  0.80899502135E+02  0.47000000000E+01 0. -1.
         -5    1    4    4    0  502 -0.26762188728E+02  0.18824353149E+02  0.14389713415E+01  0.33086729296E+02  0.47000000000E+01 0.  1.
          5    1    3    3  503    0  0.14928084324E+02 -0.36257881775E+02 -0.14307792560E+02  0.42003388200E+02  0.47000000000E+01 0.  1.
         -5    1    3    3    0  503 -0.32363376768E+02  0.38451764658E+02 -0.20446819396E+03  0.21060688190E+03  0.47000000000E+01 0.  1.
<mgrwt>
<rscale>  0 0.11765101E+03</rscale>
<asrwt>0</asrwt>
<pdfrwt beam="1">  1        2 0.49859909E-01 0.12628941E+03</pdfrwt>
<pdfrwt beam="2">  1       -2 0.65395542E-02 0.12628941E+03</pdfrwt>
<totfact> 0.12213107E+04</totfact>
</mgrwt>
</event>
<event>
 8    1  0.6985133E-005  0.2298734E+03  0.7546771E-02  0.1129768E+00
          2   -1    0    0  501    0  0.00000000000E+00  0.00000000000E+00  0.16167665962E+04  0.16167665962E+04  0.00000000000E+00 0. -1.
         -2   -1    0    0    0  501 -0.00000000000E+00 -0.00000000000E+00 -0.30385906665E+02  0.30385906665E+02  0.00000000000E+00 0.  1.
         25    2    1    2    0    0 -0.46710206429E+02  0.18721067209E+03  0.80300905712E+03  0.83526363435E+03  0.12494844508E+03 0.  0.
         23    2    1    2    0    0  0.46710206429E+02 -0.18721067209E+03  0.78337163246E+03  0.81188886855E+03  0.90899621641E+02 0.  0.
          5    1    3    3  502    0 -0.71200475623E+02  0.12484059388E+03  0.68071547720E+03  0.69573725824E+03  0.47000000000E+01 0. -1.
         -5    1    4    4    0  503  0.30710820905E+02 -0.10587674049E+02  0.79619153877E+02  0.86119411438E+02  0.47000000000E+01 0.  1.
          5    1    4    4  503    0  0.15999385524E+02 -0.17662299804E+03  0.70375247858E+03  0.72576945711E+03  0.47000000000E+01 0. -1.
         -5    1    3    3    0  502  0.24490269194E+02  0.62370078206E+02  0.12229357993E+03  0.13952637611E+03  0.47000000000E+01 0. -1.
<mgrwt>
<rscale>  0 0.22561032E+03</rscale>
<asrwt>0</asrwt>
<pdfrwt beam="1">  1        2 0.24873326E+00 0.22987343E+03</pdfrwt>
<pdfrwt beam="2">  1       -2 0.46747561E-02 0.22987343E+03</pdfrwt>
<totfact> 0.25656339E+03</totfact>
</mgrwt>
</event>
<event>
 7    1  0.6985133E-005  0.1413311E+03  0.7546771E-02  0.1223029E+00
         -1   -1    0    0    0  501 -0.00000000000E+00  0.00000000000E+00  0.31761009150E+02  0.31761009150E+02  0.00000000000E+00 0.  1.
          1   -1    0    0  501    0  0.00000000000E+00 -0.00000000000E+00 -0.53290628823E+03  0.53290628823E+03  0.00000000000E+00 0. -1.
         23    2    1    2    0    0 -0.64753936523E+02  0.11390031635E+02 -0.15350212910E+03  0.18939375150E+03  0.89354822764E+02 0.  0.
          5    1    3    3  502    0 -0.31146886645E+02  0.44521238800E+02 -0.44039123136E+02  0.70098527934E+02  0.47000000000E+01 0. -1.
         -5    1    1    2    0  503  0.89183310640E+02 -0.22368000275E+01 -0.14087281387E+03  0.16681098843E+03  0.47000000000E+01 0. -1.
          5    1    1    2  503    0 -0.24429374117E+02 -0.91532316077E+01 -0.20677033610E+03  0.20846255745E+03  0.47000000000E+01 0. -1.
         -5    1    3    3    0  502 -0.33607049878E+02 -0.33131207165E+02 -0.10946300597E+03  0.11929522356E+03  0.47000000000E+01 0.  1.
<mgrwt>
<rscale>  0 0.13302941E+03</rscale>
<asrwt>0</asrwt>
<pdfrwt beam="1">  1        1 0.81985584E-01 0.14133108E+03</pdfrwt>
<pdfrwt beam="2">  1       -1 0.48863090E-02 0.14133108E+03</pdfrwt>
<totfact> 0.72538639E+03</totfact>
</mgrwt>
</event>
<event>
 7    1  0.6985133E-005  0.2879059E+03  0.7546771E-02  0.1093259E+00
         -1   -1    0    0    0  501 -0.00000000000E+00  0.00000000000E+00  0.18456732426E+03  0.18456732426E+03  0.00000000000E+00 0.  1.
          1   -1    0    0  501    0  0.00000000000E+00 -0.00000000000E+00 -0.45468047066E+03  0.45468047066E+03  0.00000000000E+00 0. -1.
         23    2    1    2    0    0  0.25478771237E+03 -0.48177681741E+02 -0.20878736046E+03  0.34488297670E+03  0.90079067132E+02 0.  0.
          5    1    3    3  502    0  0.17634896594E+03 -0.27572596937E+01 -0.17365841795E+03  0.24755988447E+03  0.47000000000E+01 0. -1.
         -5    1    3    3    0  502  0.78438746431E+02 -0.45420422047E+02 -0.35128942505E+02  0.97323092235E+02  0.47000000000E+01 0.  1.
          5    1    1    2  503    0 -0.99960225858E+02  0.37067569524E+02  0.34174347456E+02  0.11205368128E+03  0.47000000000E+01 0.  1.
         -5    1    1    2    0  503 -0.15482748652E+03  0.11110112218E+02 -0.95500133402E+02  0.18231113694E+03  0.47000000000E+01 0.  1.
<mgrwt>
<rscale>  0 0.28449512E+03</rscale>
<asrwt>0</asrwt>
<pdfrwt beam="1">  1        1 0.69950841E-01 0.28790588E+03</pdfrwt>
<pdfrwt beam="2">  1       -1 0.28394973E-01 0.28790588E+03</pdfrwt>
<totfact> 0.57758011E+02</totfact>
</mgrwt>
</event>
<event>
 7    1  0.6985133E-005  0.2971394E+03  0.7546771E-02  0.1088441E+00
          2   -1    0    0  501    0  0.00000000000E+00  0.00000000000E+00  0.30652653233E+03  0.30652653233E+03  0.00000000000E+00 0. -1.
         -2   -1    0    0    0  501 -0.00000000000E+00 -0.00000000000E+00 -0.37971821571E+03  0.37971821571E+03  0.00000000000E+00 0.  1.
         23    2    1    2    0    0 -0.10507244331E+03  0.24811459264E+03  0.14415294715E+03  0.31810003288E+03  0.88354339581E+02 0.  0.
          5    1    1    2  502    0  0.33073928286E+02 -0.39151797563E+02 -0.11200035573E+03  0.12325955406E+03  0.47000000000E+01 0.  1.
         -5    1    1    2    0  502  0.71998515024E+02 -0.20896279508E+03 -0.10534427480E+03  0.24488516110E+03  0.47000000000E+01 0.  1.
          5    1    3    3  503    0 -0.52040014653E+02  0.14181801082E+03  0.12812932824E+03  0.19814067244E+03  0.47000000000E+01 0. -1.
         -5    1    3    3    0  503 -0.53032428658E+02  0.10629658182E+03  0.16023618913E+02  0.11995936045E+03  0.47000000000E+01 0.  1.
<mgrwt>
<rscale>  0 0.29368538E+03</rscale>
<asrwt>0</asrwt>
<pdfrwt beam="1">  1        2 0.47157928E-01 0.29713943E+03</pdfrwt>
<pdfrwt beam="2">  1       -2 0.58418187E-01 0.29713943E+03</pdfrwt>
<totfact> 0.30014254E+02</totfact>
</mgrwt>
</event>
<event>
 8    1  0.6985133E-005  0.1278454E+03  0.7546771E-02  0.1248507E+00
         -1   -1    0    0    0  501 -0.00000000000E+00  0.00000000000E+00  0.14265823389E+02  0.14265823389E+02  0.00000000000E+00 0.  1.
          1   -1    0    0  501    0  0.00000000000E+00 -0.00000000000E+00 -0.83291098058E+03  0.83291098058E+03  0.00000000000E+00 0. -1.
         25    2    1    2    0    0 -0.53524014517E+01 -0.26570212934E+02 -0.43889995857E+03  0.45714068978E+03  0.12493923407E+03 0.  0.
         23    2    1    2    0    0  0.53524014517E+01  0.26570212934E+02 -0.37974519863E+03  0.39003611419E+03  0.84776943059E+02 0.  0.
          5    1    3    3  502    0  0.43522106027E+02  0.99728869103E+01 -0.32268469615E+03  0.32579308666E+03  0.47000000000E+01 0. -1.
         -5    1    4    4    0  503  0.33896246847E+02 -0.71560762965E+01 -0.84201833293E+02  0.91171287740E+02  0.47000000000E+01 0.  1.
          5    1    4    4  503    0 -0.28543845395E+02  0.33726289231E+02 -0.29554336534E+03  0.29886482645E+03  0.47000000000E+01 0. -1.
         -5    1    3    3    0  502 -0.48874507479E+02 -0.36543099845E+02 -0.11621526242E+03  0.13134760312E+03  0.47000000000E+01 0. -1.
<mgrwt>
<rscale>  0 0.11677944E+03</rscale>
<asrwt>0</asrwt>
<pdfrwt beam="1">  1        1 0.12814016E+00 0.12784536E+03</pdfrwt>
<pdfrwt beam="2">  1       -1 0.21947418E-02 0.12784536E+03</pdfrwt>
<totfact> 0.12341506E+04</totfact>
</mgrwt>
</event>
<event>
 8    1  0.6985133E-005  0.1625601E+03  0.7546771E-02  0.1194463E+00
         -1   -1    0    0    0  501 -0.00000000000E+00  0.00000000000E+00  0.35049653018E+02  0.35049653018E+02  0.00000000000E+00 0.  1.
          1   -1    0    0  501    0  0.00000000000E+00 -0.00000000000E+00 -0.62925786527E+03  0.62925786527E+03  0.00000000000E+00 0. -1.
         25    2    1    2    0    0  0.10169547336E+03  0.21047520752E+02 -0.33404274711E+03  0.37149741306E+03  0.12506319836E+03 0.  0.
         23    2    1    2    0    0 -0.10169547336E+03 -0.21047520752E+02 -0.26016546514E+03  0.29281010522E+03  0.85245064599E+02 0.  0.
          5    1    4    4  502    0 -0.69895515541E+02 -0.24928333578E+02 -0.24684043423E+03  0.25779661534E+03  0.47000000000E+01 0. -1.
         -5    1    4    4    0  502 -0.31799957815E+02  0.38808128259E+01 -0.13325030907E+02  0.35013489885E+02  0.47000000000E+01 0.  1.
          5    1    3    3  503    0  0.64714760721E+02  0.34044590276E+02 -0.60224698760E+02  0.94847976905E+02  0.47000000000E+01 0.  1.
         -5    1    3    3    0  503  0.36980712635E+02 -0.12997069524E+02 -0.27381804835E+03  0.27664943616E+03  0.47000000000E+01 0.  1.
<mgrwt>
<rscale>  0 0.15499765E+03</rscale>
<asrwt>0</asrwt>
<pdfrwt beam="1">  1        1 0.96808897E-01 0.16256005E+03</pdfrwt>
<pdfrwt beam="2">  1       -1 0.53922546E-02 0.16256005E+03</pdfrwt>
<totfact> 0.50402547E+03</totfact>
</mgrwt>
</event>
<event>
 8    1  0.6985133E-005  0.1717173E+03  0.7546771E-02  0.1182394E+00
         -1   -1    0    0    0  501 -0.00000000000E+00  0.00000000000E+00  0.94319460831E+02  0.94319460831E+02  0.00000000000E+00 0.  1.
          1   -1    0    0  501    0  0.00000000000E+00 -0.00000000000E+00 -0.30546721306E+03  0.30546721306E+03  0.00000000000E+00 0. -1.
         25    2    1    2    0    0 -0.11402403704E+03 -0.29163169374E+02 -0.46765841767E+02  0.17797157484E+03  0.12503945787E+03 0.  0.
         23    2    1    2    0    0  0.11402403704E+03  0.29163169374E+02 -0.16438191047E+03  0.22181509905E+03  0.91260912826E+02 0.  0.
          5    1    3    3  502    0  0.55682792679E+01  0.25670084537E+02  0.17055919141E+02  0.31669438768E+02  0.47000000000E+01 0.  1.
         -5    1    3    3    0  502 -0.11959231631E+03 -0.54833253912E+02 -0.63821760908E+02  0.14630213607E+03  0.47000000000E+01 0.  1.
          5    1    4    4  503    0  0.77202070144E+01  0.30460533436E+02 -0.79757907905E+02  0.85853710269E+02  0.47000000000E+01 0. -1.
         -5    1    4    4    0  503  0.10630383002E+03 -0.12973640620E+01 -0.84624002561E+02  0.13596138879E+03  0.47000000000E+01 0.  1.
<mgrwt>
<rscale>  0 0.16571318E+03</rscale>
<asrwt>0</asrwt>
<pdfrwt beam="1">  1        1 0.46994957E-01 0.17171732E+03</pdfrwt>
<pdfrwt beam="2">  1       -1 0.14510686E-01 0.17171732E+03</pdfrwt>
<totfact> 0.28442848E+03</totfact>
</mgrwt>
</event>
<event>
 8    1  0.6985133E-005  0.1951049E+03  0.7546771E-02  0.1158517E+00
          2   -1    0    0  501    0  0.00000000000E+00  0.00000000000E+00  0.71320581923E+03  0.71320581923E+03  0.00000000000E+00 0. -1.
         -2   -1    0    0    0  501 -0.00000000000E+00 -0.00000000000E+00 -0.48104357002E+02  0.48104357002E+02  0.00000000000E+00 0.  1.
         25    2    1    2    0    0  0.11298749784E+03 -0.98300077552E+02  0.35919296166E+03  0.40876093813E+03  0.12504735471E+03 0.  0.
         23    2    1    2    0    0 -0.11298749784E+03  0.98300077552E+02  0.30590850056E+03  0.35254923810E+03  0.91004805643E+02 0.  0.
          5    1    4    4  502    0 -0.88631599730E+02  0.93834545575E+02  0.30005638489E+03  0.32667477179E+03  0.47000000000E+01 0. -1.
         -5    1    4    4    0  502 -0.24355898112E+02  0.44655319776E+01  0.58521156769E+01  0.25874466305E+02  0.47000000000E+01 0.  1.
          5    1    3    3  503    0  0.13105577811E+03 -0.78785723388E+02  0.22635812011E+03  0.27320852059E+03  0.47000000000E+01 0.  1.
         -5    1    3    3    0  503 -0.18068280267E+02 -0.19514354165E+02  0.13283484155E+03  0.13555241754E+03  0.47000000000E+01 0.  1.
<mgrwt>
<rscale>  0 0.18993841E+03</rscale>
<asrwt>0</asrwt>
<pdfrwt beam="1">  1        2 0.10972397E+00 0.19510490E+03</pdfrwt>
<pdfrwt beam="2">  1       -2 0.74006708E-02 0.19510490E+03</pdfrwt>
<totfact> 0.43180483E+03</totfact>
</mgrwt>
</event>
<event>
 8    1  0.6985133E-005  0.1396033E+03  0.7546771E-02  0.1225336E+00
          1   -1    0    0  501    0  0.00000000000E+00  0.00000000000E+00  0.31463502163E+03  0.31463502163E+03  0.00000000000E+00 0. -1.
         -1   -1    0    0    0  501 -0.00000000000E+00 -0.00000000000E+00 -0.50780306232E+02  0.50780306232E+02  0.00000000000E+00 0.  1.
         25    2    1    2    0    0 -0.24179013126E+02  0.57166433236E+02  0.11724246727E+03  0.18230435894E+03  0.12504582116E+03 0.  0.
         23    2    1    2    0    0  0.24179013126E+02 -0.57166433236E+02  0.14661224813E+03  0.18311096892E+03  0.90453578565E+02 0.  0.
          5    1    4    4  502    0 -0.33514141583E+02 -0.26386402260E+02  0.44967964465E+02  0.62158247549E+02  0.47000000000E+01 0. -1.
         -5    1    3    3    0  503 -0.70032517598E+02  0.39663264372E+02  0.38364017469E+02  0.89283906154E+02  0.47000000000E+01 0.  1.
          5    1    3    3  503    0  0.45853504472E+02  0.17503168864E+02  0.78878449802E+02  0.93020452783E+02  0.47000000000E+01 0.  1.
         -5    1    4    4    0  502  0.57693154709E+02 -0.30780030976E+02  0.10164428366E+03  0.12095272137E+03  0.47000000000E+01 0.  1.
<mgrwt>
<rscale>  0 0.13143928E+03</rscale>
<asrwt>0</asrwt>
<pdfrwt beam="1">  1        1 0.48405387E-01 0.13960331E+03</pdfrwt>
<pdfrwt beam="2">  1       -1 0.78123550E-02 0.13960331E+03</pdfrwt>
<totfact> 0.70292239E+03</totfact>
</mgrwt>
</event>
<event>
 8    1  0.6985133E-005  0.1531289E+03  0.7546771E-02  0.1205538E+00
          2   -1    0    0  501    0  0.00000000000E+00  0.00000000000E+00  0.89006589362E+02  0.89006589362E+02  0.00000000000E+00 0. -1.
         -2   -1    0    0    0  501 -0.00000000000E+00 -0.00000000000E+00 -0.22589882458E+03  0.22589882458E+03  0.00000000000E+00 0.  1.
         25    2    1    2    0    0 -0.42250140142E+02  0.77602236307E+02 -0.48283774508E+02  0.16056086997E+03  0.12506513768E+03 0.  0.
         23    2    1    2    0    0  0.42250140142E+02 -0.77602236307E+02 -0.88608460707E+02  0.15434454397E+03  0.90352628755E+02 0.  0.
          5    1    3    3  502    0  0.41966685041E+02  0.47482265213E+02 -0.18748206898E+02  0.66252195624E+02  0.47000000000E+01 0. -1.
         -5    1    3    3    0  502 -0.84216825183E+02  0.30119971094E+02 -0.29535567610E+02  0.94308674344E+02  0.47000000000E+01 0. -1.
          5    1    4    4  503    0  0.64831372124E+02 -0.76824365934E+02 -0.58476985207E+02  0.11639045413E+03  0.47000000000E+01 0. -1.
         -5    1    4    4    0  503 -0.22581231983E+02 -0.77787037294E+00 -0.30131475500E+02  0.37954089845E+02  0.47000000000E+01 0.  1.
<mgrwt>
<rscale>  0 0.14595155E+03</rscale>
<asrwt>0</asrwt>
<pdfrwt beam="1">  1        2 0.13693321E-01 0.15312893E+03</pdfrwt>
<pdfrwt beam="2">  1       -2 0.34753665E-01 0.15312893E+03</pdfrwt>
<totfact> 0.32729253E+03</totfact>
</mgrwt>
</event>
<event>
 7    1  0.6985133E-005  0.1291784E+03  0.7546771E-02  0.1242656E+00
          1   -1    0    0  501    0  0.00000000000E+00  0.00000000000E+00  0.46471389715E+02  0.46471389715E+02  0.00000000000E+00 0. -1.
         -1   -1    0    0    0  501 -0.00000000000E+00 -0.00000000000E+00 -0.27881261317E+03  0.27881261317E+03  0.00000000000E+00 0.  1.
         23    2    1    2    0    0 -0.24923360833E+01 -0.31621307795E+02 -0.81919712654E+02  0.12700717317E+03  0.91727116328E+02 0.  0.
          5    1    1    2  502    0  0.23561394171E+02 -0.28095817421E+02 -0.12418591970E+03  0.12957139693E+03  0.47000000000E+01 0.  1.
         -5    1    3    3    0  503 -0.37894652222E+02 -0.59737376037E+01 -0.72324981337E+02  0.82004165342E+02  0.47000000000E+01 0.  1.
          5    1    3    3  503    0  0.35402316138E+02 -0.25647570192E+02 -0.95947313164E+01  0.45003007830E+02  0.47000000000E+01 0. -1.
         -5    1    1    2    0  502 -0.21069058088E+02  0.59717125217E+02 -0.26235591102E+02  0.68705432779E+02  0.47000000000E+01 0.  1.
<mgrwt>
<rscale>  0 0.12026764E+03</rscale>
<asrwt>0</asrwt>
<pdfrwt beam="1">  1        1 0.71494447E-02 0.12917844E+03</pdfrwt>
<pdfrwt beam="2">  1       -1 0.42894248E-01 0.12917844E+03</pdfrwt>
<totfact> 0.52449370E+03</totfact>
</mgrwt>
</event>
<event>
 8    1  0.6985133E-005  0.1629677E+03  0.7546771E-02  0.1190482E+00
         -3   -1    0    0    0  501 -0.00000000000E+00  0.00000000000E+00  0.23093696701E+02  0.23093696701E+02  0.00000000000E+00 0.  1.
          3   -1    0    0  501    0  0.00000000000E+00 -0.00000000000E+00 -0.10348365585E+04  0.10348365585E+04  0.00000000000E+00 0. -1.
         25    2    1    2    0    0  0.86225271285E+02  0.59237564190E+02 -0.56873044002E+03  0.59161878154E+03  0.12495832444E+03 0.  0.
         23    2    1    2    0    0 -0.86225271285E+02 -0.59237564190E+02 -0.44301242182E+03  0.46631147370E+03  0.10120522812E+03 0.  0.
          5    1    4    4  502    0 -0.61276930303E+02  0.16677080595E+00 -0.33390083049E+03  0.33950956482E+03  0.47000000000E+01 0. -1.
         -5    1    3    3    0  503  0.46296539595E+01 -0.33505378654E+02 -0.71263763398E+02  0.79023148939E+02  0.47000000000E+01 0.  1.
          5    1    3    3  503    0  0.81595617326E+02  0.92742942844E+02 -0.49746667662E+03  0.51259563261E+03  0.47000000000E+01 0.  1.
         -5    1    4    4    0  502 -0.24948340982E+02 -0.59404334996E+02 -0.10911159133E+03  0.12680190889E+03  0.47000000000E+01 0.  1.
<mgrwt>
<rscale>  0 0.15842848E+03</rscale>
<asrwt>0</asrwt>
<pdfrwt beam="1">  1        3 0.15920560E+00 0.16296769E+03</pdfrwt>
<pdfrwt beam="2">  1       -3 0.35528769E-02 0.16296769E+03</pdfrwt>
<totfact> 0.27645903E+02</totfact>
</mgrwt>
</event>
<event>
 8    1  0.6985133E-005  0.1503067E+03  0.7546771E-02  0.1210588E+00
         -2   -1    0    0    0  501 -0.00000000000E+00  0.00000000000E+00  0.11209487948E+03  0.11209487948E+03  0.00000000000E+00 0.  1.
          2   -1    0    0  501    0  0.00000000000E+00 -0.00000000000E+00 -0.16517732418E+03  0.16517732418E+03  0.00000000000E+00 0. -1.
         25    2    1    2    0    0 -0.17641613713E+02 -0.81529979019E+02 -0.45783560148E+02  0.15712490436E+03  0.12503494382E+03 0.  0.
         23    2    1    2    0    0  0.17641613713E+02  0.81529979019E+02 -0.72988845524E+01  0.12014729931E+03  0.86161103764E+02 0.  0.
          5    1    3    3  502    0 -0.17033911767E+02  0.31145042179E+02 -0.21493796262E+02  0.41764112347E+02  0.47000000000E+01 0. -1.
         -5    1    4    4    0  503  0.47984623088E+02  0.23134558159E+02 -0.85675189515E+01  0.54159248657E+02  0.47000000000E+01 0.  1.
          5    1    4    4  503    0 -0.30343009375E+02  0.58395420860E+02  0.12686343991E+01  0.65988050650E+02  0.47000000000E+01 0. -1.
         -5    1    3    3    0  502 -0.60770194604E+00 -0.11267502120E+03 -0.24289763886E+02  0.11536079201E+03  0.47000000000E+01 0. -1.
<mgrwt>
<rscale>  0 0.14205663E+03</rscale>
<asrwt>0</asrwt>
<pdfrwt beam="1">  1        2 0.25411896E-01 0.15030669E+03</pdfrwt>
<pdfrwt beam="2">  1       -2 0.17245366E-01 0.15030669E+03</pdfrwt>
<totfact> 0.54875794E+03</totfact>
</mgrwt>
</event>
<event>
 8    1  0.6985133E-005  0.1274094E+03  0.7546771E-02  0.1245892E+00
         -4   -1    0    0    0  501 -0.00000000000E+00  0.00000000000E+00  0.35790648622E+03  0.35790648622E+03  0.00000000000E+00 0.  1.
          4   -1    0    0  501    0  0.00000000000E+00 -0.00000000000E+00 -0.38273958791E+02  0.38273958791E+02  0.00000000000E+00 0. -1.
         25    2    1    2    0    0  0.18415261562E+02  0.16862601388E+02  0.11920717732E+03  0.17448070924E+03  0.12493877536E+03 0.  0.
         23    2    1    2    0    0 -0.18415261562E+02 -0.16862601388E+02  0.20042535011E+03  0.22169973577E+03  0.91416534016E+02 0.  0.
          5    1    3    3  502    0 -0.10394897054E+02 -0.48522163811E+02  0.75881383808E+02  0.90788373012E+02  0.47000000000E+01 0.  1.
         -5    1    3    3    0  502  0.28810158616E+02  0.65384765199E+02  0.43325793512E+02  0.83692336226E+02  0.47000000000E+01 0.  1.
          5    1    4    4  503    0  0.16481187887E+02  0.19690199701E+02  0.14168621385E+03  0.14407083922E+03  0.47000000000E+01 0. -1.
         -5    1    4    4    0  503 -0.34896449449E+02 -0.36552801089E+02  0.58739136261E+02  0.77628896554E+02  0.47000000000E+01 0.  1.
<mgrwt>
<rscale>  0 0.11832145E+03</rscale>
<asrwt>0</asrwt>
<pdfrwt beam="1">  1        4 0.58883016E-02 0.12740945E+03</pdfrwt>
<pdfrwt beam="2">  1       -4 0.55062534E-01 0.12740945E+03</pdfrwt>
<totfact> 0.94878090E+02</totfact>
</mgrwt>
</event>
<event>
 8    1  0.6985133E-005  0.1881621E+03  0.7546771E-02  0.1165989E+00
          2   -1    0    0  501    0  0.00000000000E+00  0.00000000000E+00  0.69787101323E+03  0.69787101323E+03  0.00000000000E+00 0. -1.
         -2   -1    0    0    0  501 -0.00000000000E+00 -0.00000000000E+00 -0.49176666659E+02  0.49176666659E+02  0.00000000000E+00 0.  1.
         25    2    1    2    0    0  0.11916687406E+03  0.74792312976E+02  0.22928874269E+03  0.29661136732E+03  0.12494135322E+03 0.  0.
         23    2    1    2    0    0 -0.11916687406E+03 -0.74792312976E+02  0.41940560388E+03  0.45043631257E+03  0.84836178377E+02 0.  0.
          5    1    4    4  502    0 -0.63761719041E+02  0.69619762194E+01  0.14036494122E+03  0.15439699690E+03  0.47000000000E+01 0. -1.
         -5    1    3    3    0  503  0.76508820492E+02  0.18175826318E+02  0.28750612232E+02  0.83860884678E+02  0.47000000000E+01 0. -1.
          5    1    3    3  503    0  0.42658053571E+02  0.56616486658E+02  0.20053813046E+03  0.21275048264E+03  0.47000000000E+01 0. -1.
         -5    1    4    4    0  502 -0.55405155022E+02 -0.81754289195E+02  0.27904066267E+03  0.29603931568E+03  0.47000000000E+01 0.  1.
<mgrwt>
<rscale>  0 0.18188761E+03</rscale>
<asrwt>0</asrwt>
<pdfrwt beam="1">  1        2 0.10736476E+00 0.18816210E+03</pdfrwt>
<pdfrwt beam="2">  1       -2 0.75656415E-02 0.18816210E+03</pdfrwt>
<totfact> 0.42783642E+03</totfact>
</mgrwt>
</event>
<event>
 8    1  0.6985133E-005  0.1497803E+03  0.7546771E-02  0.1209754E+00
          1   -1    0    0  501    0  0.00000000000E+00  0.00000000000E+00  0.34595305953E+03  0.34595305953E+03  0.00000000000E+00 0. -1.
         -1   -1    0    0    0  501 -0.00000000000E+00 -0.00000000000E+00 -0.57817850483E+02  0.57817850483E+02  0.00000000000E+00 0.  1.
         25    2    1    2    0    0 -0.80481020225E+02 -0.17834740844E+02  0.20926404764E+03  0.25734331268E+03  0.12505545309E+03 0.  0.
         23    2    1    2    0    0  0.80481020225E+02  0.17834740844E+02  0.78871161407E+02  0.14642759734E+03  0.91788390132E+02 0.  0.
          5    1    4    4  502    0  0.55687450229E+02  0.17845348362E+02 -0.49655929096E+01  0.58875255279E+02  0.47000000000E+01 0.  1.
         -5    1    3    3    0  503 -0.46628495576E+02  0.36021335730E+02  0.28431820387E+02  0.65591246657E+02  0.47000000000E+01 0. -1.
          5    1    3    3  503    0 -0.33852524649E+02 -0.53856076573E+02  0.18083222725E+03  0.19175206602E+03  0.47000000000E+01 0. -1.
         -5    1    4    4    0  502  0.24793569996E+02 -0.10607518451E-01  0.83836754317E+02  0.87552342059E+02  0.47000000000E+01 0. -1.
<mgrwt>
<rscale>  0 0.14269022E+03</rscale>
<asrwt>0</asrwt>
<pdfrwt beam="1">  1        1 0.53223547E-01 0.14978030E+03</pdfrwt>
<pdfrwt beam="2">  1       -1 0.88950541E-02 0.14978030E+03</pdfrwt>
<totfact> 0.51530706E+03</totfact>
</mgrwt>
</event>
<event>
 8    1  0.6985133E-005  0.1573123E+03  0.7546771E-02  0.1199773E+00
          2   -1    0    0  501    0  0.00000000000E+00  0.00000000000E+00  0.87160979464E+03  0.87160979464E+03  0.00000000000E+00 0. -1.
         -2   -1    0    0    0  501 -0.00000000000E+00 -0.00000000000E+00 -0.44506043959E+02  0.44506043959E+02  0.00000000000E+00 0.  1.
         25    2    1    2    0    0  0.75731180753E+02 -0.58122199021E+02  0.12286418510E+03  0.19960654282E+03  0.12503504389E+03 0.  0.
         23    2    1    2    0    0 -0.75731180753E+02  0.58122199021E+02  0.70423956558E+03  0.71650929577E+03  0.91207474716E+02 0.  0.
          5    1    4    4  502    0 -0.94755972288E+02  0.37500784388E+02  0.59170341819E+03  0.60043320045E+03  0.47000000000E+01 0. -1.
         -5    1    4    4    0  502  0.19024791535E+02  0.20621414633E+02  0.11253614739E+03  0.11607609532E+03  0.47000000000E+01 0.  1.
          5    1    3    3  503    0  0.18865988142E+01 -0.50175508698E+02 -0.60111803170E+01  0.50787451374E+02  0.47000000000E+01 0. -1.
         -5    1    3    3    0  503  0.73844581939E+02 -0.79466903222E+01  0.12887536542E+03  0.14881909145E+03  0.47000000000E+01 0. -1.
<mgrwt>
<rscale>  0 0.15057091E+03</rscale>
<asrwt>0</asrwt>
<pdfrwt beam="1">  1        2 0.13409380E+00 0.15731231E+03</pdfrwt>
<pdfrwt beam="2">  1       -2 0.68470843E-02 0.15731231E+03</pdfrwt>
<totfact> 0.37604865E+03</totfact>
</mgrwt>
</event>
<event>
 8    1  0.6985133E-005  0.1891590E+03  0.7546771E-02  0.1164362E+00
         -2   -1    0    0    0  501 -0.00000000000E+00  0.00000000000E+00  0.21202978010E+02  0.21202978010E+02  0.00000000000E+00 0.  1.
          2   -1    0    0  501    0  0.00000000000E+00 -0.00000000000E+00 -0.15475343680E+04  0.15475343680E+04  0.00000000000E+00 0. -1.
         25    2    1    2    0    0 -0.13458631842E+03  0.45105653221E+02 -0.93993829231E+03  0.95878314177E+03  0.12503248589E+03 0.  0.
         23    2    1    2    0    0  0.13458631842E+03 -0.45105653221E+02 -0.58639309769E+03  0.60995420426E+03  0.89661971930E+02 0.  0.
          5    1    3    3  502    0 -0.66753301091E+02 -0.40512819368E+02 -0.45467876547E+03  0.46135903753E+03  0.47000000000E+01 0.  1.
         -5    1    4    4    0  503  0.97804773213E+02 -0.69289043275E+02 -0.36589038043E+03  0.38505143250E+03  0.47000000000E+01 0.  1.
          5    1    4    4  503    0  0.36781545206E+02  0.24183390054E+02 -0.22050271727E+03  0.22490277176E+03  0.47000000000E+01 0. -1.
         -5    1    3    3    0  502 -0.67833017328E+02  0.85618472590E+02 -0.48525952684E+03  0.49742410423E+03  0.47000000000E+01 0.  1.
<mgrwt>
<rscale>  0 0.18360176E+03</rscale>
<asrwt>0</asrwt>
<pdfrwt beam="1">  1        2 0.23808230E+00 0.18915898E+03</pdfrwt>
<pdfrwt beam="2">  1       -2 0.32619953E-02 0.18915898E+03</pdfrwt>
<totfact> 0.47804139E+03</totfact>
</mgrwt>
</event>
<event>
 8    1  0.6985133E-005  0.1896092E+03  0.7546771E-02  0.1163700E+00
          1   -1    0    0  501    0  0.00000000000E+00  0.00000000000E+00  0.53827050620E+03  0.53827050620E+03  0.00000000000E+00 0. -1.
         -1   -1    0    0    0  501 -0.00000000000E+00 -0.00000000000E+00 -0.61051485278E+02  0.61051485278E+02  0.00000000000E+00 0.  1.
         25    2    1    2    0    0  0.77484157404E+01  0.14244441112E+03  0.29439199933E+03  0.35016897918E+03  0.12490482977E+03 0.  0.
         23    2    1    2    0    0 -0.77484157404E+01 -0.14244441112E+03  0.18282702158E+03  0.24915301230E+03  0.91110128472E+02 0.  0.
          5    1    3    3  502    0  0.30954474332E+02 -0.32387302289E+01  0.16560894623E+02  0.35567148963E+02  0.47000000000E+01 0.  1.
         -5    1    4    4    0  503  0.38803887979E+02 -0.93535436552E+02  0.10353185480E+03  0.14489842847E+03  0.47000000000E+01 0.  1.
          5    1    4    4  503    0 -0.46552303720E+02 -0.48908974567E+02  0.79295166782E+02  0.10425458383E+03  0.47000000000E+01 0. -1.
         -5    1    3    3    0  502 -0.23206058591E+02  0.14568314135E+03  0.27783110471E+03  0.31460183021E+03  0.47000000000E+01 0.  1.
<mgrwt>
<rscale>  0 0.18430540E+03</rscale>
<asrwt>0</asrwt>
<pdfrwt beam="1">  1        1 0.82810844E-01 0.18960924E+03</pdfrwt>
<pdfrwt beam="2">  1       -1 0.93925366E-02 0.18960924E+03</pdfrwt>
<totfact> 0.27121946E+03</totfact>
</mgrwt>
</event>
<event>
 7    1  0.6985133E-005  0.1600890E+03  0.7546771E-02  0.1195886E+00
          2   -1    0    0  501    0  0.00000000000E+00  0.00000000000E+00  0.75201445718E+03  0.75201445718E+03  0.00000000000E+00 0. -1.
         -2   -1    0    0    0  501 -0.00000000000E+00 -0.00000000000E+00 -0.29708711751E+02  0.29708711751E+02  0.00000000000E+00 0.  1.
         23    2    1    2    0    0  0.30774019170E+02  0.95515467932E+02  0.38294991384E+03  0.40650208926E+03  0.92320459198E+02 0.  0.
          5    1    1    2  502    0 -0.34888908832E+02 -0.11417883295E+02  0.14750408181E+02  0.39840539152E+02  0.47000000000E+01 0. -1.
         -5    1    1    2    0  502  0.41148896613E+01 -0.84097584637E+02  0.32460542340E+03  0.33538054052E+03  0.47000000000E+01 0. -1.
          5    1    3    3  503    0  0.44053917725E+02  0.44731686804E+02  0.96343279469E+02  0.11509035133E+03  0.47000000000E+01 0. -1.
         -5    1    3    3    0  503 -0.13279898555E+02  0.50783781127E+02  0.28660663438E+03  0.29141173792E+03  0.47000000000E+01 0.  1.
<mgrwt>
<rscale>  0 0.15379445E+03</rscale>
<asrwt>0</asrwt>
<pdfrwt beam="1">  1        2 0.11569452E+00 0.16008897E+03</pdfrwt>
<pdfrwt beam="2">  1       -2 0.45705716E-02 0.16008897E+03</pdfrwt>
<totfact> 0.83650147E+03</totfact>
</mgrwt>
</event>
<event>
 8    1  0.6985133E-005  0.1570770E+03  0.7546771E-02  0.1199264E+00
          1   -1    0    0  501    0  0.00000000000E+00  0.00000000000E+00  0.68146943281E+03  0.68146943281E+03  0.00000000000E+00 0. -1.
         -1   -1    0    0    0  501 -0.00000000000E+00 -0.00000000000E+00 -0.31111487095E+02  0.31111487095E+02  0.00000000000E+00 0.  1.
         25    2    1    2    0    0  0.64960703597E+02 -0.69371915771E+02  0.35643322358E+03  0.38950973323E+03  0.12506331875E+03 0.  0.
         23    2    1    2    0    0 -0.64960703597E+02  0.69371915771E+02  0.29392472213E+03  0.32307118668E+03  0.94609162716E+02 0.  0.
          5    1    3    3  502    0  0.82445548140E+02 -0.22705356212E+02  0.30863745466E+03  0.32029981272E+03  0.47000000000E+01 0.  1.
         -5    1    3    3    0  502 -0.17484844543E+02 -0.46666559559E+02  0.47795768916E+02  0.69209920503E+02  0.47000000000E+01 0.  1.
          5    1    4    4  503    0 -0.36866557994E+02 -0.72826927183E+01  0.17296396052E+03  0.17706157785E+03  0.47000000000E+01 0. -1.
         -5    1    4    4    0  503 -0.28094145604E+02  0.76654608489E+02  0.12096076161E+03  0.14600960882E+03  0.47000000000E+01 0.  1.
<mgrwt>
<rscale>  0 0.15098820E+03</rscale>
<asrwt>0</asrwt>
<pdfrwt beam="1">  1        1 0.10484144E+00 0.15707702E+03</pdfrwt>
<pdfrwt beam="2">  1       -1 0.47863831E-02 0.15707702E+03</pdfrwt>
<totfact> 0.53706704E+03</totfact>
</mgrwt>
</event>
<event>
 7    1  0.6985133E-005  0.1768057E+03  0.7546771E-02  0.1176464E+00
          1   -1    0    0  501    0  0.00000000000E+00  0.00000000000E+00  0.74432521395E+03  0.74432521395E+03  0.00000000000E+00 0. -1.
         -1   -1    0    0    0  501 -0.00000000000E+00 -0.00000000000E+00 -0.39509542610E+02  0.39509542610E+02  0.00000000000E+00 0.  1.
         23    2    1    2    0    0  0.10002638258E+03 -0.75334360808E+02  0.23663522741E+03  0.28338176237E+03  0.92889446457E+02 0.  0.
          5    1    3    3  502    0 -0.10218561558E+02 -0.21582320144E+02  0.84345885736E+02  0.87786866806E+02  0.47000000000E+01 0. -1.
         -5    1    1    2    0  503 -0.83508109996E+02  0.55913939696E+01  0.12966942228E+03  0.15440569030E+03  0.47000000000E+01 0. -1.
          5    1    1    2  503    0 -0.16518272584E+02  0.69742966838E+02  0.33851102165E+03  0.34604730390E+03  0.47000000000E+01 0. -1.
         -5    1    3    3    0  502  0.11024494414E+03 -0.53752040664E+02  0.15228934167E+03  0.19559489557E+03  0.47000000000E+01 0.  1.
<mgrwt>
<rscale>  0 0.17133384E+03</rscale>
<asrwt>0</asrwt>
<pdfrwt beam="1">  1        1 0.11451156E+00 0.17680574E+03</pdfrwt>
<pdfrwt beam="2">  1       -1 0.60783917E-02 0.17680574E+03</pdfrwt>
<totfact> 0.33241133E+03</totfact>
</mgrwt>
</event>
<event>
 7    1  0.6985133E-005  0.1714872E+03  0.7546771E-02  0.1182344E+00
          1   -1    0    0  501    0  0.00000000000E+00  0.00000000000E+00  0.77094655751E+03  0.77094655751E+03  0.00000000000E+00 0. -1.
         -1   -1    0    0    0  501 -0.00000000000E+00 -0.00000000000E+00 -0.41788590493E+02  0.41788590493E+02  0.00000000000E+00 0.  1.
         23    2    1    2    0    0 -0.80941673770E+02  0.84795280765E+02  0.52594417969E+03  0.54683348789E+03  0.93100962053E+02 0.  0.
          5    1    1    2  502    0  0.27347746293E+02  0.17430242037E+02  0.72255055497E+00  0.32776891923E+02  0.47000000000E+01 0.  1.
         -5    1    3    3    0  503 -0.48155718494E+02  0.32561839260E+02  0.94999084250E+02  0.11147269894E+03  0.47000000000E+01 0.  1.
          5    1    3    3  503    0 -0.32785955276E+02  0.52233441505E+02  0.43094509544E+03  0.43536078896E+03  0.47000000000E+01 0. -1.
         -5    1    1    2    0  502  0.53593927477E+02 -0.10222552280E+03  0.20249123677E+03  0.23312476819E+03  0.47000000000E+01 0.  1.
<mgrwt>
<rscale>  0 0.16575932E+03</rscale>
<asrwt>0</asrwt>
<pdfrwt beam="1">  1        1 0.11860715E+00 0.17148717E+03</pdfrwt>
<pdfrwt beam="2">  1       -1 0.64290145E-02 0.17148717E+03</pdfrwt>
<totfact> 0.28976750E+03</totfact>
</mgrwt>
</event>
<event>
 8    1  0.6985133E-005  0.1570149E+03  0.7546771E-02  0.1199508E+00
         -2   -1    0    0    0  501 -0.00000000000E+00  0.00000000000E+00  0.23364596523E+02  0.23364596523E+02  0.00000000000E+00 0.  1.
          2   -1    0    0  501    0  0.00000000000E+00 -0.00000000000E+00 -0.99719244657E+03  0.99719244657E+03  0.00000000000E+00 0. -1.
         25    2    1    2    0    0  0.92954917737E+02  0.19368635398E+02 -0.67858848117E+03  0.69651705541E+03  0.12505167309E+03 0.  0.
         23    2    1    2    0    0 -0.92954917737E+02 -0.19368635398E+02 -0.29523936888E+03  0.32403998768E+03  0.93914151803E+02 0.  0.
          5    1    3    3  502    0 -0.25790017057E+02  0.15150217549E+02 -0.24692046033E+03  0.24876988926E+03  0.47000000000E+01 0. -1.
         -5    1    3    3    0  502  0.11874493479E+03  0.42184178487E+01 -0.43166802084E+03  0.44774716616E+03  0.47000000000E+01 0. -1.
          5    1    4    4  503    0 -0.44434828177E+02 -0.22123326219E+02 -0.39302488780E+02  0.63487566833E+02  0.47000000000E+01 0.  1.
         -5    1    4    4    0  503 -0.48520089559E+02  0.27546908213E+01 -0.25593688010E+03  0.26055242085E+03  0.47000000000E+01 0. -1.
<mgrwt>
<rscale>  0 0.15078798E+03</rscale>
<asrwt>0</asrwt>
<pdfrwt beam="1">  1        2 0.15341422E+00 0.15701491E+03</pdfrwt>
<pdfrwt beam="2">  1       -2 0.35945533E-02 0.15701491E+03</pdfrwt>
<totfact> 0.82962066E+03</totfact>
</mgrwt>
</event>
<event>
 8    1  0.6985133E-005  0.1478561E+03  0.7546771E-02  0.1213076E+00
          2   -1    0    0  501    0  0.00000000000E+00  0.00000000000E+00  0.18198662282E+03  0.18198662282E+03  0.00000000000E+00 0. -1.
         -2   -1    0    0    0  501 -0.00000000000E+00 -0.00000000000E+00 -0.10247560064E+03  0.10247560064E+03  0.00000000000E+00 0.  1.
         25    2    1    2    0    0  0.55167706953E+02 -0.56627727307E+02  0.14851749839E+02  0.14860009846E+03  0.12494494547E+03 0.  0.
         23    2    1    2    0    0 -0.55167706953E+02  0.56627727307E+02  0.64659272346E+02  0.13586212500E+03  0.89596429162E+02 0.  0.
          5    1    3    3  502    0 -0.42603329299E+01 -0.21550774067E+02 -0.49353525194E+02  0.54225886334E+02  0.47000000000E+01 0. -1.
         -5    1    3    3    0  502  0.59428039883E+02 -0.35076953240E+02  0.64205275033E+02  0.94374212129E+02  0.47000000000E+01 0. -1.
          5    1    4    4  503    0 -0.50336783987E+02  0.31402489325E+02  0.84298600475E+02  0.10319036874E+03  0.47000000000E+01 0. -1.
         -5    1    4    4    0  503 -0.48309229655E+01  0.25225237982E+02 -0.19639328129E+02  0.32671756263E+02  0.47000000000E+01 0.  1.
<mgrwt>
<rscale>  0 0.14018825E+03</rscale>
<asrwt>0</asrwt>
<pdfrwt beam="1">  1        2 0.27997942E-01 0.14785606E+03</pdfrwt>
<pdfrwt beam="2">  1       -2 0.15765477E-01 0.14785606E+03</pdfrwt>
<totfact> 0.57171060E+03</totfact>
</mgrwt>
</event>
<event>
 8    1  0.6985133E-005  0.1814551E+03  0.7546771E-02  0.1172204E+00
          2   -1    0    0  501    0  0.00000000000E+00  0.00000000000E+00  0.38361618971E+03  0.38361618971E+03  0.00000000000E+00 0.  1.
         -2   -1    0    0    0  501 -0.00000000000E+00 -0.00000000000E+00 -0.87672754698E+02  0.87672754698E+02  0.00000000000E+00 0. -1.
         25    2    1    2    0    0 -0.87974251472E+02  0.97707791007E+02  0.68727158837E+02  0.19403447192E+03  0.12505867657E+03 0.  0.
         23    2    1    2    0    0  0.87974251472E+02 -0.97707791007E+02  0.22721627618E+03  0.27725447249E+03  0.89199355433E+02 0.  0.
          5    1    4    4  502    0  0.10165752687E+03 -0.65063951887E+02  0.15331961952E+03  0.19518341716E+03  0.47000000000E+01 0. -1.
         -5    1    4    4    0  502 -0.13683275394E+02 -0.32643839120E+02  0.73896656656E+02  0.82071055330E+02  0.47000000000E+01 0.  1.
          5    1    3    3  503    0 -0.19222500653E+02  0.38878959454E+02 -0.35272502844E+02  0.56100957892E+02  0.47000000000E+01 0. -1.
         -5    1    3    3    0  503 -0.68751750819E+02  0.58828831553E+02  0.10399966168E+03  0.13793351403E+03  0.47000000000E+01 0. -1.
<mgrwt>
<rscale>  0 0.17552707E+03</rscale>
<asrwt>0</asrwt>
<pdfrwt beam="1">  1        2 0.59017874E-01 0.18145510E+03</pdfrwt>
<pdfrwt beam="2">  1       -2 0.13488116E-01 0.18145510E+03</pdfrwt>
<totfact> 0.33473047E+03</totfact>
</mgrwt>
</event>
<event>
 8    1  0.6985133E-005  0.1407072E+03  0.7546771E-02  0.1222638E+00
          3   -1    0    0  501    0  0.00000000000E+00  0.00000000000E+00  0.95396477755E+03  0.95396477755E+03  0.00000000000E+00 0. -1.
         -3   -1    0    0    0  501 -0.00000000000E+00 -0.00000000000E+00 -0.17865360022E+02  0.17865360022E+02  0.00000000000E+00 0.  1.
         25    2    1    2    0    0 -0.40355073745E+02  0.50649618375E+02  0.62730196378E+03  0.64288899674E+03  0.12491834353E+03 0.  0.
         23    2    1    2    0    0  0.40355073745E+02 -0.50649618375E+02  0.30879745374E+03  0.32894114082E+03  0.93018766229E+02 0.  0.
          5    1    3    3  502    0  0.19998869206E+02  0.72624767205E+02  0.37295935035E+03  0.38051948517E+03  0.47000000000E+01 0.  1.
         -5    1    4    4    0  503  0.45109198602E+02 -0.13313753670E+02  0.27206437626E+03  0.27613983897E+03  0.47000000000E+01 0. -1.
          5    1    4    4  503    0 -0.47541248571E+01 -0.37335864705E+02  0.36733077481E+02  0.52801301856E+02  0.47000000000E+01 0.  1.
         -5    1    3    3    0  502 -0.60353942951E+02 -0.21975148830E+02  0.25434261343E+03  0.26236951157E+03  0.47000000000E+01 0.  1.
<mgrwt>
<rscale>  0 0.13330145E+03</rscale>
<asrwt>0</asrwt>
<pdfrwt beam="1">  1        3 0.14676377E+00 0.14070717E+03</pdfrwt>
<pdfrwt beam="2">  1       -3 0.27485177E-02 0.14070717E+03</pdfrwt>
<totfact> 0.49554560E+02</totfact>
</mgrwt>
</event>
<event>
 8    1  0.6985133E-005  0.1426428E+03  0.7546771E-02  0.1219771E+00
          2   -1    0    0  501    0  0.00000000000E+00  0.00000000000E+00  0.39601286322E+03  0.39601286322E+03  0.00000000000E+00 0. -1.
         -2   -1    0    0    0  501 -0.00000000000E+00 -0.00000000000E+00 -0.42076590862E+02  0.42076590862E+02  0.00000000000E+00 0.  1.
         25    2    1    2    0    0  0.52443407477E+02 -0.44284323131E+02  0.19485391218E+03  0.24148503452E+03  0.12504224303E+03 0.  0.
         23    2    1    2    0    0 -0.52443407477E+02  0.44284323131E+02  0.15908236018E+03  0.19660441957E+03  0.92923023035E+02 0.  0.
          5    1    3    3  502    0  0.43072532583E+02 -0.75388891130E+02  0.18913682142E+03  0.20816713282E+03  0.47000000000E+01 0. -1.
         -5    1    4    4    0  503 -0.33680611327E+01  0.60386366255E+02  0.10763437775E+03  0.12355203900E+03  0.47000000000E+01 0. -1.
          5    1    4    4  503    0 -0.49075346344E+02 -0.16102043124E+02  0.51447982428E+02  0.73052380574E+02  0.47000000000E+01 0.  1.
         -5    1    3    3    0  502  0.93708748942E+01  0.31104567999E+02  0.57170907555E+01  0.33317901696E+02  0.47000000000E+01 0. -1.
<mgrwt>
<rscale>  0 0.13531836E+03</rscale>
<asrwt>0</asrwt>
<pdfrwt beam="1">  1        2 0.60925053E-01 0.14264282E+03</pdfrwt>
<pdfrwt beam="2">  1       -2 0.64733219E-02 0.14264282E+03</pdfrwt>
<totfact> 0.10116704E+04</totfact>
</mgrwt>
</event>
<event>
 8    1  0.6985133E-005  0.1396117E+03  0.7546771E-02  0.1224300E+00
          1   -1    0    0  501    0  0.00000000000E+00  0.00000000000E+00  0.68900335789E+02  0.68900335789E+02  0.00000000000E+00 0. -1.
         -1   -1    0    0    0  501 -0.00000000000E+00 -0.00000000000E+00 -0.37621958582E+03  0.37621958582E+03  0.00000000000E+00 0.  1.
         25    2    1    2    0    0  0.55142710290E+02  0.28466514166E+02 -0.30224500616E+03  0.33293163030E+03  0.12506144802E+03 0.  0.
         23    2    1    2    0    0 -0.55142710290E+02 -0.28466514166E+02 -0.50742438756E+01  0.11218829131E+03  0.93324186732E+02 0.  0.
          5    1    4    4  502    0 -0.32166748490E+02  0.85484450541E+01  0.38006935365E+02  0.50738474130E+02  0.47000000000E+01 0. -1.
         -5    1    4    4    0  502 -0.22975961800E+02 -0.37014959220E+02 -0.43081179240E+02  0.61449817180E+02  0.47000000000E+01 0.  1.
          5    1    3    3  503    0 -0.28118301043E+01  0.43778776572E+02 -0.24818195916E+03  0.25207312931E+03  0.47000000000E+01 0. -1.
         -5    1    3    3    0  503  0.57954540394E+02 -0.15312262406E+02 -0.54063047002E+02  0.80858500997E+02  0.47000000000E+01 0. -1.
<mgrwt>
<rscale>  0 0.13214997E+03</rscale>
<asrwt>0</asrwt>
<pdfrwt beam="1">  1        1 0.10600052E-01 0.13961170E+03</pdfrwt>
<pdfrwt beam="2">  1       -1 0.57879937E-01 0.13961170E+03</pdfrwt>
<totfact> 0.18020967E+03</totfact>
</mgrwt>
</event>
<event>
 7    1  0.6985133E-005  0.1315912E+03  0.7546771E-02  0.1238356E+00
          1   -1    0    0  501    0  0.00000000000E+00  0.00000000000E+00  0.10592311561E+03  0.10592311561E+03  0.00000000000E+00 0. -1.
         -1   -1    0    0    0  501 -0.00000000000E+00 -0.00000000000E+00 -0.19239860230E+03  0.19239860230E+03  0.00000000000E+00 0.  1.
         23    2    1    2    0    0  0.33291140548E+02  0.24734006387E+02 -0.12594939031E+03  0.16093742470E+03  0.91200518837E+02 0.  0.
          5    1    1    2  502    0  0.22576262522E+02 -0.59905047149E+02  0.28762026416E+02  0.70339508577E+02  0.47000000000E+01 0. -1.
         -5    1    3    3    0  503 -0.14069281502E+02 -0.26190185619E+02 -0.44665258182E+02  0.53860428825E+02  0.47000000000E+01 0.  1.
          5    1    3    3  503    0  0.47360422050E+02  0.50924192006E+02 -0.81284132133E+02  0.10707699587E+03  0.47000000000E+01 0. -1.
         -5    1    1    2    0  502 -0.55867403070E+02  0.35171040762E+02  0.10711877205E+02  0.67044784639E+02  0.47000000000E+01 0. -1.
<mgrwt>
<rscale>  0 0.12292041E+03</rscale>
<asrwt>0</asrwt>
<pdfrwt beam="1">  1        1 0.16295864E-01 0.13159124E+03</pdfrwt>
<pdfrwt beam="2">  1       -1 0.29599785E-01 0.13159124E+03</pdfrwt>
<totfact> 0.33567596E+03</totfact>
</mgrwt>
</event>
<event>
 8    1  0.6985133E-005  0.1324117E+03  0.7546771E-02  0.1237195E+00
          1   -1    0    0  501    0  0.00000000000E+00  0.00000000000E+00  0.30875126857E+02  0.30875126857E+02  0.00000000000E+00 0. -1.
         -1   -1    0    0    0  501 -0.00000000000E+00 -0.00000000000E+00 -0.63832027829E+03  0.63832027829E+03  0.00000000000E+00 0.  1.
         25    2    1    2    0    0 -0.43230436426E+02 -0.69775807881E+01 -0.51753065114E+03  0.53420112257E+03  0.12496122285E+03 0.  0.
         23    2    1    2    0    0  0.43230436426E+02  0.69775807881E+01 -0.89914500289E+02  0.13499428258E+03  0.90671283761E+02 0.  0.
          5    1    3    3  502    0 -0.22132157048E+02 -0.47256285725E+02 -0.89283141923E+02  0.10352081118E+03  0.47000000000E+01 0. -1.
         -5    1    4    4    0  503 -0.25610714853E+02  0.14993930033E+02 -0.37041998053E+02  0.47696187194E+02  0.47000000000E+01 0.  1.
          5    1    4    4  503    0  0.68841151280E+02 -0.80163492444E+01 -0.52872502236E+02  0.87298095382E+02  0.47000000000E+01 0. -1.
         -5    1    3    3    0  502 -0.21098279379E+02  0.40278704937E+02 -0.42824750922E+03  0.43068031139E+03  0.47000000000E+01 0. -1.
<mgrwt>
<rscale>  0 0.12364978E+03</rscale>
<asrwt>0</asrwt>
<pdfrwt beam="1">  1        1 0.47500200E-02 0.13241172E+03</pdfrwt>
<pdfrwt beam="2">  1       -1 0.98203111E-01 0.13241172E+03</pdfrwt>
<totfact> 0.18231974E+03</totfact>
</mgrwt>
</event>
<event>
 8    1  0.6985133E-005  0.1406804E+03  0.7546771E-02  0.1223638E+00
         -1   -1    0    0    0  501 -0.00000000000E+00  0.00000000000E+00  0.28878110124E+02  0.28878110124E+02  0.00000000000E+00 0.  1.
          1   -1    0    0  501    0  0.00000000000E+00 -0.00000000000E+00 -0.56333611163E+03  0.56333611163E+03  0.00000000000E+00 0. -1.
         25    2    1    2    0    0  0.60887595987E+02  0.21677239867E+02 -0.25033719544E+03  0.28715792368E+03  0.12495503046E+03 0.  0.
         23    2    1    2    0    0 -0.60887595987E+02 -0.21677239867E+02 -0.28412080607E+03  0.30505629808E+03  0.90318937565E+02 0.  0.
          5    1    4    4  502    0 -0.46410156201E+02  0.27117206829E+02 -0.96096159872E+02  0.11020801898E+03  0.47000000000E+01 0. -1.
         -5    1    4    4    0  502 -0.14477439785E+02 -0.48794446696E+02 -0.18802464619E+03  0.19484827910E+03  0.47000000000E+01 0.  1.
          5    1    3    3  503    0 -0.97191760972E+00 -0.26637933705E+02 -0.25421732104E+01  0.27185966610E+02  0.47000000000E+01 0.  1.
         -5    1    3    3    0  503  0.61859513597E+02  0.48315173572E+02 -0.24779502223E+03  0.25997195707E+03  0.47000000000E+01 0.  1.
<mgrwt>
<rscale>  0 0.13260693E+03</rscale>
<asrwt>0</asrwt>
<pdfrwt beam="1">  1        1 0.86667101E-01 0.14068035E+03</pdfrwt>
<pdfrwt beam="2">  1       -1 0.44427858E-02 0.14068035E+03</pdfrwt>
<totfact> 0.77512533E+03</totfact>
</mgrwt>
</event>
<event>
 8    1  0.6985133E-005  0.1275768E+03  0.7546771E-02  0.1245535E+00
         -3   -1    0    0    0  501 -0.00000000000E+00  0.00000000000E+00  0.14986894292E+03  0.14986894292E+03  0.00000000000E+00 0.  1.
          3   -1    0    0  501    0  0.00000000000E+00 -0.00000000000E+00 -0.85567486426E+02  0.85567486426E+02  0.00000000000E+00 0. -1.
         25    2    1    2    0    0 -0.64611491164E+01 -0.24455022020E+02  0.15339713842E+02  0.12849572911E+03  0.12504419631E+03 0.  0.
         23    2    1    2    0    0  0.64611491164E+01  0.24455022020E+02  0.48961742646E+02  0.10694070023E+03  0.91647512635E+02 0.  0.
          5    1    3    3  502    0 -0.54946966845E+02 -0.48856133437E+01 -0.26487084127E+02  0.61373398217E+02  0.47000000000E+01 0.  1.
         -5    1    4    4    0  503 -0.28102986382E+02  0.37861443657E+02  0.50872064508E+02  0.69522109481E+02  0.47000000000E+01 0.  1.
          5    1    4    4  503    0  0.34564135498E+02 -0.13406421637E+02 -0.19103218611E+01  0.37418590747E+02  0.47000000000E+01 0. -1.
         -5    1    3    3    0  502  0.48485817729E+02 -0.19569408676E+02  0.41826797969E+02  0.67122330897E+02  0.47000000000E+01 0.  1.
<mgrwt>
<rscale>  0 0.11853436E+03</rscale>
<asrwt>0</asrwt>
<pdfrwt beam="1">  1        3 0.13164229E-01 0.12757682E+03</pdfrwt>
<pdfrwt beam="2">  1       -3 0.23056760E-01 0.12757682E+03</pdfrwt>
<totfact> 0.18330703E+03</totfact>
</mgrwt>
</event>
<event>
 7    1  0.6985133E-005  0.1490947E+03  0.7546771E-02  0.1210787E+00
          2   -1    0    0  501    0  0.00000000000E+00  0.00000000000E+00  0.22584933843E+03  0.22584933843E+03  0.00000000000E+00 0. -1.
         -2   -1    0    0    0  501 -0.00000000000E+00 -0.00000000000E+00 -0.11453748906E+03  0.11453748906E+03  0.00000000000E+00 0.  1.
         23    2    1    2    0    0 -0.62617142585E+02 -0.51424049955E+02  0.14275279902E+03  0.18801303553E+03  0.91679880258E+02 0.  0.
          5    1    1    2  502    0  0.99618763730E+02  0.25179611245E+02 -0.15277813128E+02  0.10398755927E+03  0.47000000000E+01 0. -1.
         -5    1    1    2    0  502 -0.37001621145E+02  0.26244438710E+02 -0.16163136524E+02  0.48386232679E+02  0.47000000000E+01 0. -1.
          5    1    3    3  503    0  0.14698903343E+01 -0.21724002115E+02  0.10587445599E+03  0.10819234389E+03  0.47000000000E+01 0. -1.
         -5    1    3    3    0  503 -0.64087032919E+02 -0.29700047840E+02  0.36878343030E+02  0.79820691645E+02  0.47000000000E+01 0.  1.
<mgrwt>
<rscale>  0 0.14190621E+03</rscale>
<asrwt>0</asrwt>
<pdfrwt beam="1">  1        2 0.34746052E-01 0.14909473E+03</pdfrwt>
<pdfrwt beam="2">  1       -2 0.17621152E-01 0.14909473E+03</pdfrwt>
<totfact> 0.37648818E+03</totfact>
</mgrwt>
</event>
<event>
 8    1  0.6985133E-005  0.1314397E+03  0.7546771E-02  0.1239146E+00
         -1   -1    0    0    0  501 -0.00000000000E+00  0.00000000000E+00  0.12436027249E+03  0.12436027249E+03  0.00000000000E+00 0.  1.
          1   -1    0    0  501    0  0.00000000000E+00 -0.00000000000E+00 -0.13406519278E+03  0.13406519278E+03  0.00000000000E+00 0. -1.
         25    2    1    2    0    0  0.18627276742E+02  0.36257348974E+02  0.52530469935E+02  0.14154800431E+03  0.12495925920E+03 0.  0.
         23    2    1    2    0    0 -0.18627276742E+02 -0.36257348974E+02 -0.62235390224E+02  0.11687746095E+03  0.90141701165E+02 0.  0.
          5    1    4    4  502    0  0.23795936868E+02  0.12326324006E+01 -0.54341848603E+02  0.59522201771E+02  0.47000000000E+01 0. -1.
         -5    1    3    3    0  503  0.68418400889E+02  0.21266591844E+01  0.40944240036E+02  0.79900694939E+02  0.47000000000E+01 0.  1.
          5    1    3    3  503    0 -0.49791124148E+02  0.34130689790E+02  0.11586229899E+02  0.61647309371E+02  0.47000000000E+01 0.  1.
         -5    1    4    4    0  502 -0.42423213609E+02 -0.37489981375E+02 -0.78935416203E+01  0.57355259181E+02  0.47000000000E+01 0.  1.
<mgrwt>
<rscale>  0 0.12242682E+03</rscale>
<asrwt>0</asrwt>
<pdfrwt beam="1">  1        1 0.20625414E-01 0.13143967E+03</pdfrwt>
<pdfrwt beam="2">  1       -1 0.19132350E-01 0.13143967E+03</pdfrwt>
<totfact> 0.50685506E+03</totfact>
</mgrwt>
</event>
<event>
 8    1  0.6985133E-005  0.1516059E+03  0.7546771E-02  0.1207526E+00
         -2   -1    0    0    0  501 -0.00000000000E+00  0.00000000000E+00  0.79172673798E+02  0.79172673798E+02  0.00000000000E+00 0.  1.
          2   -1    0    0  501    0  0.00000000000E+00 -0.00000000000E+00 -0.29525158918E+03  0.29525158918E+03  0.00000000000E+00 0. -1.
         25    2    1    2    0    0  0.64419528796E+02 -0.56542437193E+02 -0.36819299756E+02  0.15601282283E+03  0.12504965877E+03 0.  0.
         23    2    1    2    0    0 -0.64419528796E+02  0.56542437193E+02 -0.17925961563E+03  0.21841144015E+03  0.90678688236E+02 0.  0.
          5    1    3    3  502    0  0.11859807449E+02  0.28555977542E+02  0.23496042805E+02  0.39118447229E+02  0.47000000000E+01 0.  1.
         -5    1    3    3    0  502  0.52559721347E+02 -0.85098414735E+02 -0.60315342561E+02  0.11689437560E+03  0.47000000000E+01 0.  1.
          5    1    4    4  503    0 -0.67549256092E+02  0.48348128916E+01 -0.13057430894E+03  0.14716663198E+03  0.47000000000E+01 0. -1.
         -5    1    4    4    0  503  0.31297272957E+01  0.51707624302E+02 -0.48685306696E+02  0.71244808175E+02  0.47000000000E+01 0.  1.
<mgrwt>
<rscale>  0 0.14440144E+03</rscale>
<asrwt>0</asrwt>
<pdfrwt beam="1">  1        2 0.45423322E-01 0.15160587E+03</pdfrwt>
<pdfrwt beam="2">  1       -2 0.12180411E-01 0.15160587E+03</pdfrwt>
<totfact> 0.51761032E+03</totfact>
</mgrwt>
</event>
<event>
 7    1  0.6985133E-005  0.1266719E+03  0.7546771E-02  0.1248303E+00
         -1   -1    0    0    0  501 -0.00000000000E+00  0.00000000000E+00  0.40863398535E+02  0.40863398535E+02  0.00000000000E+00 0.  1.
          1   -1    0    0  501    0  0.00000000000E+00 -0.00000000000E+00 -0.40770803295E+03  0.40770803295E+03  0.00000000000E+00 0. -1.
         23    2    1    2    0    0  0.65521317023E+01 -0.16813212229E+02 -0.28077676466E+03  0.29542625853E+03  0.90085892993E+02 0.  0.
          5    1    3    3  502    0  0.36617844859E+02 -0.21874163904E+02 -0.24249119814E+03  0.24625884103E+03  0.47000000000E+01 0. -1.
         -5    1    3    3    0  502 -0.30065713157E+02  0.50609516743E+01 -0.38285566526E+02  0.49167417501E+02  0.47000000000E+01 0.  1.
          5    1    1    2  503    0  0.48585761045E+02  0.15071056129E+02 -0.83291716387E+02  0.97710352204E+02  0.47000000000E+01 0. -1.
         -5    1    1    2    0  503 -0.55137892747E+02  0.17421561001E+01 -0.27761533632E+01  0.55434820753E+02  0.47000000000E+01 0.  1.
<mgrwt>
<rscale>  0 0.11689877E+03</rscale>
<asrwt>0</asrwt>
<pdfrwt beam="1">  1        1 0.62724315E-01 0.12667188E+03</pdfrwt>
<pdfrwt beam="2">  1       -1 0.62866764E-02 0.12667188E+03</pdfrwt>
<totfact> 0.69985661E+03</totfact>
</mgrwt>
</event>
<event>
 7    1  0.6985133E-005  0.1311044E+03  0.7546771E-02  0.1239296E+00
          2   -1    0    0  501    0  0.00000000000E+00  0.00000000000E+00  0.26155884777E+03  0.26155884777E+03  0.00000000000E+00 0. -1.
         -2   -1    0    0    0  501 -0.00000000000E+00 -0.00000000000E+00 -0.56260040681E+02  0.56260040681E+02  0.00000000000E+00 0.  1.
         23    2    1    2    0    0  0.35766819535E+02 -0.15279365962E+02  0.40727192919E+02  0.10740936305E+03  0.91462246988E+02 0.  0.
          5    1    3    3  502    0  0.48155184141E+02  0.44067579735E+01  0.59740228221E+02  0.77002117785E+02  0.47000000000E+01 0. -1.
         -5    1    3    3    0  502 -0.12388364606E+02 -0.19686123936E+02 -0.19013035302E+02  0.30407245265E+02  0.47000000000E+01 0.  1.
          5    1    1    2  503    0  0.19364454022E+02  0.21278424638E+02 -0.70472277693E+01  0.29991779771E+02  0.47000000000E+01 0. -1.
         -5    1    1    2    0  503 -0.55131273557E+02 -0.59990586754E+01  0.17161884194E+03  0.18041774562E+03  0.47000000000E+01 0.  1.
<mgrwt>
<rscale>  0 0.12233390E+03</rscale>
<asrwt>0</asrwt>
<pdfrwt beam="1">  1        2 0.40239822E-01 0.13110436E+03</pdfrwt>
<pdfrwt beam="2">  1       -2 0.86553910E-02 0.13110436E+03</pdfrwt>
<totfact> 0.99918228E+03</totfact>
</mgrwt>
</event>
<event>
 7    1  0.6985133E-005  0.1338418E+03  0.7546771E-02  0.1234303E+00
          2   -1    0    0  501    0  0.00000000000E+00  0.00000000000E+00  0.17119890830E+04  0.17119890830E+04  0.00000000000E+00 0. -1.
         -2   -1    0    0    0  501 -0.00000000000E+00 -0.00000000000E+00 -0.86797877796E+01  0.86797877796E+01  0.00000000000E+00 0.  1.
         23    2    1    2    0    0  0.45963817313E+02 -0.14755481080E+02  0.94439760490E+03  0.95004537734E+03  0.91482162893E+02 0.  0.
          5    1    1    2  502    0  0.41332390790E+02  0.12743937187E+02  0.18236288405E+03  0.18748089487E+03  0.47000000000E+01 0. -1.
         -5    1    3    3    0  503 -0.20313710873E+02 -0.28747496606E+02  0.31469266985E+03  0.31669011963E+03  0.47000000000E+01 0.  1.
          5    1    3    3  503    0  0.66277528186E+02  0.13992015525E+02  0.62970493505E+03  0.63335525771E+03  0.47000000000E+01 0. -1.
         -5    1    1    2    0  502 -0.87296208103E+02  0.20115438934E+01  0.57654880622E+03  0.58314259852E+03  0.47000000000E+01 0.  1.
<mgrwt>
<rscale>  0 0.12549128E+03</rscale>
<asrwt>0</asrwt>
<pdfrwt beam="1">  1        2 0.26338267E+00 0.13384175E+03</pdfrwt>
<pdfrwt beam="2">  1       -2 0.13353533E-02 0.13384175E+03</pdfrwt>
<totfact> 0.14317111E+04</totfact>
</mgrwt>
</event>
<event>
 8    1  0.6985133E-005  0.1353497E+03  0.7546771E-02  0.1230924E+00
         -1   -1    0    0    0  501 -0.00000000000E+00  0.00000000000E+00  0.86762540348E+02  0.86762540348E+02  0.00000000000E+00 0.  1.
          1   -1    0    0  501    0  0.00000000000E+00 -0.00000000000E+00 -0.17004064342E+03  0.17004064342E+03  0.00000000000E+00 0. -1.
         25    2    1    2    0    0 -0.22787201785E+01 -0.51695032372E+02 -0.39516360559E+02  0.14100034533E+03  0.12506792431E+03 0.  0.
         23    2    1    2    0    0  0.22787201785E+01  0.51695032372E+02 -0.43761742508E+02  0.11580283844E+03  0.93902280832E+02 0.  0.
          5    1    3    3  502    0  0.50650994006E+01  0.30725321247E+02 -0.48295656369E+02  0.57656404864E+02  0.47000000000E+01 0. -1.
         -5    1    4    4    0  503  0.32386391875E+02  0.32318440108E+02  0.13651631748E+02  0.47977255019E+02  0.47000000000E+01 0.  1.
          5    1    4    4  503    0 -0.30107671697E+02  0.19376592263E+02 -0.57413374256E+02  0.67825583420E+02  0.47000000000E+01 0. -1.
         -5    1    3    3    0  502 -0.73438195790E+01 -0.82420353619E+02  0.87792958105E+01  0.83343940461E+02  0.47000000000E+01 0. -1.
<mgrwt>
<rscale>  0 0.12769024E+03</rscale>
<asrwt>0</asrwt>
<pdfrwt beam="1">  1        1 0.26160099E-01 0.13534975E+03</pdfrwt>
<pdfrwt beam="2">  1       -1 0.13348083E-01 0.13534975E+03</pdfrwt>
<totfact> 0.66352782E+03</totfact>
</mgrwt>
</event>
<event>
 7    1  0.6985133E-005  0.1329905E+03  0.7546771E-02  0.1234801E+00
          2   -1    0    0  501    0  0.00000000000E+00  0.00000000000E+00  0.12157980332E+03  0.12157980332E+03  0.00000000000E+00 0. -1.
         -2   -1    0    0    0  501 -0.00000000000E+00 -0.00000000000E+00 -0.19782740467E+03  0.19782740467E+03  0.00000000000E+00 0.  1.
         23    2    1    2    0    0  0.38074123904E+01  0.44758216508E+02 -0.13780105060E+03  0.17286265893E+03  0.94204962566E+02 0.  0.
          5    1    1    2  502    0  0.34240969714E+02 -0.71430696404E+02  0.60575308434E+02  0.99831089284E+02  0.47000000000E+01 0.  1.
         -5    1    1    2    0  502 -0.38048382105E+02  0.26672479895E+02  0.97814081959E+00  0.46713459774E+02  0.47000000000E+01 0.  1.
          5    1    3    3  503    0 -0.26097906884E+02  0.60889249515E+02 -0.67794726866E+02  0.94904248804E+02  0.47000000000E+01 0. -1.
         -5    1    3    3    0  503  0.29905319275E+02 -0.16131033006E+02 -0.70006323737E+02  0.77958410129E+02  0.47000000000E+01 0.  1.
<mgrwt>
<rscale>  0 0.12517160E+03</rscale>
<asrwt>0</asrwt>
<pdfrwt beam="1">  1        2 0.18704585E-01 0.13299052E+03</pdfrwt>
<pdfrwt beam="2">  1       -2 0.30434985E-01 0.13299052E+03</pdfrwt>
<totfact> 0.28789423E+03</totfact>
</mgrwt>
</event>
<event>
 8    1  0.6985133E-005  0.1486648E+03  0.7546771E-02  0.1212039E+00
         -1   -1    0    0    0  501 -0.00000000000E+00  0.00000000000E+00  0.68339389040E+03  0.68339389040E+03  0.00000000000E+00 0.  1.
          1   -1    0    0  501    0  0.00000000000E+00 -0.00000000000E+00 -0.58744006500E+02  0.58744006500E+02  0.00000000000E+00 0. -1.
         25    2    1    2    0    0  0.79673088388E+02 -0.11697557657E+02  0.52744927061E+02  0.15774430111E+03  0.12496640882E+03 0.  0.
         23    2    1    2    0    0 -0.79673088388E+02  0.11697557657E+02  0.57190495684E+03  0.58439359579E+03  0.89196195432E+02 0.  0.
          5    1    4    4  502    0 -0.40244772137E+02 -0.20708429705E+02  0.10184909429E+03  0.11155182093E+03  0.47000000000E+01 0. -1.
         -5    1    4    4    0  502 -0.39428316252E+02  0.32405987362E+02  0.47005586255E+03  0.47284177486E+03  0.47000000000E+01 0.  1.
          5    1    3    3  503    0 -0.32576475195E+02  0.41001957313E+01  0.13574959509E+01  0.33195950603E+02  0.47000000000E+01 0.  1.
         -5    1    3    3    0  503  0.11224956358E+03 -0.15797753389E+02  0.51387431110E+02  0.12454835050E+03  0.47000000000E+01 0.  1.
<mgrwt>
<rscale>  0 0.14096275E+03</rscale>
<asrwt>0</asrwt>
<pdfrwt beam="1">  1        1 0.90375399E-02 0.14866485E+03</pdfrwt>
<pdfrwt beam="2">  1       -1 0.10513752E+00 0.14866485E+03</pdfrwt>
<totfact> 0.65848426E+02</totfact>
</mgrwt>
</event>
<event>
 8    1  0.6985133E-005  0.1821131E+03  0.7546771E-02  0.1171631E+00
          1   -1    0    0  501    0  0.00000000000E+00  0.00000000000E+00  0.73189105468E+02  0.73189105468E+02  0.00000000000E+00 0. -1.
         -1   -1    0    0    0  501 -0.00000000000E+00 -0.00000000000E+00 -0.39824120497E+03  0.39824120497E+03  0.00000000000E+00 0.  1.
         25    2    1    2    0    0 -0.98950431876E+02  0.88144751874E+02 -0.17933011314E+03  0.25558651728E+03  0.12491794541E+03 0.  0.
         23    2    1    2    0    0  0.98950431876E+02 -0.88144751874E+02 -0.14572198635E+03  0.21584379315E+03  0.88277746256E+02 0.  0.
          5    1    4    4  502    0  0.59662980160E+02 -0.83260827108E+02 -0.54125328132E+02  0.11594687438E+03  0.47000000000E+01 0. -1.
         -5    1    4    4    0  502  0.39287451716E+02 -0.48839247660E+01 -0.91596658223E+02  0.99896918776E+02  0.47000000000E+01 0.  1.
          5    1    3    3  503    0 -0.48695649530E+02 -0.27207079813E+02 -0.49433681625E+02  0.74681124483E+02  0.47000000000E+01 0. -1.
         -5    1    3    3    0  503 -0.50254782345E+02  0.11535183169E+03 -0.12989643152E+03  0.18090539280E+03  0.47000000000E+01 0. -1.
<mgrwt>
<rscale>  0 0.17610064E+03</rscale>
<asrwt>0</asrwt>
<pdfrwt beam="1">  1        1 0.11259862E-01 0.18211309E+03</pdfrwt>
<pdfrwt beam="2">  1       -1 0.61267878E-01 0.18211309E+03</pdfrwt>
<totfact> 0.15064247E+03</totfact>
</mgrwt>
</event>
<event>
 8    1  0.6985133E-005  0.1353441E+03  0.7546771E-02  0.1231940E+00
          1   -1    0    0  501    0  0.00000000000E+00  0.00000000000E+00  0.65558293739E+03  0.65558293739E+03  0.00000000000E+00 0. -1.
         -1   -1    0    0    0  501 -0.00000000000E+00 -0.00000000000E+00 -0.22178047069E+02  0.22178047069E+02  0.00000000000E+00 0.  1.
         25    2    1    2    0    0  0.25346270088E+02 -0.45157584405E+02  0.38390605110E+03  0.40706494392E+03  0.12504547839E+03 0.  0.
         23    2    1    2    0    0 -0.25346270088E+02  0.45157584405E+02  0.24949883923E+03  0.27069604054E+03  0.91351161738E+02 0.  0.
          5    1    4    4  502    0 -0.33272501458E+02 -0.90029872526E+01  0.35288723956E+02  0.49552973384E+02  0.47000000000E+01 0. -1.
         -5    1    4    4    0  502  0.79262313701E+01  0.54160571657E+02  0.21421011527E+03  0.22114306715E+03  0.47000000000E+01 0.  1.
          5    1    3    3  503    0  0.11026840418E+02 -0.87257355750E+02  0.28954912369E+03  0.30264867813E+03  0.47000000000E+01 0.  1.
         -5    1    3    3    0  503  0.14319429671E+02  0.42099771345E+02  0.94356927405E+02  0.10441626580E+03  0.47000000000E+01 0.  1.
<mgrwt>
<rscale>  0 0.12702376E+03</rscale>
<asrwt>0</asrwt>
<pdfrwt beam="1">  1        1 0.10085890E+00 0.13534405E+03</pdfrwt>
<pdfrwt beam="2">  1       -1 0.34120077E-02 0.13534405E+03</pdfrwt>
<totfact> 0.92581437E+03</totfact>
</mgrwt>
</event>
<event>
 7    1  0.6985133E-005  0.1459762E+03  0.7546771E-02  0.1215468E+00
          1   -1    0    0  501    0  0.00000000000E+00  0.00000000000E+00  0.70608251035E+03  0.70608251035E+03  0.00000000000E+00 0. -1.
         -1   -1    0    0    0  501 -0.00000000000E+00 -0.00000000000E+00 -0.27044921374E+02  0.27044921374E+02  0.00000000000E+00 0.  1.
         23    2    1    2    0    0  0.46438329375E+02 -0.60262971432E+02  0.41462050665E+03  0.43109194540E+03  0.90232791659E+02 0.  0.
          5    1    1    2  502    0  0.31674591875E+02  0.28700781502E+02  0.17024052513E+03  0.17558741705E+03  0.47000000000E+01 0. -1.
         -5    1    1    2    0  502 -0.78112921250E+02  0.31562189930E+02  0.94176557198E+02  0.12644806928E+03  0.47000000000E+01 0. -1.
          5    1    3    3  503    0  0.44139973127E+01 -0.34253978505E+02  0.33801034693E+03  0.33980274137E+03  0.47000000000E+01 0. -1.
         -5    1    3    3    0  503  0.42024332062E+02 -0.26008992927E+02  0.76610159723E+02  0.91289204023E+02  0.47000000000E+01 0.  1.
<mgrwt>
<rscale>  0 0.13842220E+03</rscale>
<asrwt>0</asrwt>
<pdfrwt beam="1">  1        1 0.10862806E+00 0.14597617E+03</pdfrwt>
<pdfrwt beam="2">  1       -1 0.41607577E-02 0.14597617E+03</pdfrwt>
<totfact> 0.62564200E+03</totfact>
</mgrwt>
</event>
<event>
 7    1  0.6985133E-005  0.1360677E+03  0.7546771E-02  0.1230960E+00
         -1   -1    0    0    0  501 -0.00000000000E+00  0.00000000000E+00  0.20618220172E+03  0.20618220172E+03  0.00000000000E+00 0.  1.
          1   -1    0    0  501    0  0.00000000000E+00 -0.00000000000E+00 -0.83701111414E+02  0.83701111414E+02  0.00000000000E+00 0. -1.
         23    2    1    2    0    0  0.12352259346E+02  0.51891774381E+02  0.11135750711E+03  0.15336167853E+03  0.90961395620E+02 0.  0.
          5    1    1    2  502    0  0.40079190894E+02 -0.42195122724E+02 -0.33076638719E+02  0.67103829647E+02  0.47000000000E+01 0.  1.
         -5    1    1    2    0  502 -0.52431450239E+02 -0.96966516574E+01  0.44200221920E+02  0.69417804959E+02  0.47000000000E+01 0.  1.
          5    1    3    3  503    0  0.21017880753E+02 -0.19907223386E+02  0.15442317782E+02  0.33145196224E+02  0.47000000000E+01 0. -1.
         -5    1    3    3    0  503 -0.86656214071E+01  0.71798997767E+02  0.95915189325E+02  0.12021648231E+03  0.47000000000E+01 0.  1.
<mgrwt>
<rscale>  0 0.12766623E+03</rscale>
<asrwt>0</asrwt>
<pdfrwt beam="1">  1        1 0.12877094E-01 0.13606771E+03</pdfrwt>
<pdfrwt beam="2">  1       -1 0.31720339E-01 0.13606771E+03</pdfrwt>
<totfact> 0.40617923E+03</totfact>
</mgrwt>
</event>
<event>
 7    1  0.6985133E-005  0.1413591E+03  0.7546771E-02  0.1223003E+00
         -4   -1    0    0    0  501 -0.00000000000E+00  0.00000000000E+00  0.38718325336E+02  0.38718325336E+02  0.00000000000E+00 0.  1.
          4   -1    0    0  501    0  0.00000000000E+00 -0.00000000000E+00 -0.42216078385E+03  0.42216078385E+03  0.00000000000E+00 0. -1.
         23    2    1    2    0    0  0.21722803392E+02 -0.61928964901E+02 -0.13197213764E+03  0.17240084361E+03  0.89433376790E+02 0.  0.
          5    1    1    2  502    0  0.11000244445E+02  0.90716109149E+02 -0.12711484044E+03  0.15662276494E+03  0.47000000000E+01 0.  1.
         -5    1    1    2    0  502 -0.32723047837E+02 -0.28787144247E+02 -0.12435548043E+03  0.13185550063E+03  0.47000000000E+01 0.  1.
          5    1    3    3  503    0  0.48019253556E+02 -0.13322605452E+02 -0.89490437660E+02  0.10253764655E+03  0.47000000000E+01 0. -1.
         -5    1    3    3    0  503 -0.26296450164E+02 -0.48606359449E+02 -0.42481699978E+02  0.69863197058E+02  0.47000000000E+01 0.  1.
<mgrwt>
<rscale>  0 0.13304690E+03</rscale>
<asrwt>0</asrwt>
<pdfrwt beam="1">  1        4 0.64947815E-01 0.14135907E+03</pdfrwt>
<pdfrwt beam="2">  1       -4 0.59566653E-02 0.14135907E+03</pdfrwt>
<totfact> 0.67268861E+02</totfact>
</mgrwt>
</event>
<event>
 8    1  0.6985133E-005  0.1911001E+03  0.7546771E-02  0.1162561E+00
          2   -1    0    0  501    0  0.00000000000E+00  0.00000000000E+00  0.12798438875E+04  0.12798438875E+04  0.00000000000E+00 0. -1.
         -2   -1    0    0    0  501 -0.00000000000E+00 -0.00000000000E+00 -0.40620249240E+02  0.40620249240E+02  0.00000000000E+00 0.  1.
         25    2    1    2    0    0  0.16856117600E+01 -0.14460844104E+03  0.23933861110E+03  0.30627149334E+03  0.12491923136E+03 0.  0.
         23    2    1    2    0    0 -0.16856117600E+01  0.14460844104E+03  0.99988502712E+03  0.10141926434E+04  0.88894363552E+02 0.  0.
          5    1    3    3  502    0  0.33077355187E+02 -0.29813815510E+02  0.71876075743E+01  0.45351149093E+02  0.47000000000E+01 0.  1.
         -5    1    3    3    0  502 -0.31391743427E+02 -0.11479462553E+03  0.23215100352E+03  0.26092034425E+03  0.47000000000E+01 0.  1.
          5    1    4    4  503    0  0.26437690206E+02  0.60178647275E+02  0.64226202432E+03  0.64563381180E+03  0.47000000000E+01 0. -1.
         -5    1    4    4    0  503 -0.28123301966E+02  0.84429793763E+02  0.35762300279E+03  0.36855883155E+03  0.47000000000E+01 0.  1.
<mgrwt>
<rscale>  0 0.18552445E+03</rscale>
<asrwt>0</asrwt>
<pdfrwt beam="1">  1        2 0.19689903E+00 0.19110012E+03</pdfrwt>
<pdfrwt beam="2">  1       -2 0.62492701E-02 0.19110012E+03</pdfrwt>
<totfact> 0.24969109E+03</totfact>
</mgrwt>
</event>
<event>
 7    1  0.6985133E-005  0.1343798E+03  0.7546771E-02  0.1233575E+00
         -2   -1    0    0    0  501 -0.00000000000E+00  0.00000000000E+00  0.16216734443E+02  0.16216734443E+02  0.00000000000E+00 0. -1.
          2   -1    0    0  501    0  0.00000000000E+00 -0.00000000000E+00 -0.93349663714E+03  0.93349663714E+03  0.00000000000E+00 0.  1.
         23    2    1    2    0    0 -0.48914055810E+02 -0.38951150738E+01 -0.28452748794E+03  0.30284897734E+03  0.91399425089E+02 0.  0.
          5    1    3    3  502    0  0.82662904559E+01 -0.22703724542E+02 -0.20581862502E+02  0.32085724708E+02  0.47000000000E+01 0. -1.
         -5    1    3    3    0  502 -0.57180346266E+02  0.18808609468E+02 -0.26394562544E+03  0.27076325263E+03  0.47000000000E+01 0.  1.
          5    1    1    2  503    0 -0.10950734036E+02 -0.47954046540E+02 -0.33919875849E+03  0.34277893301E+03  0.47000000000E+01 0.  1.
         -5    1    1    2    0  503  0.59864789847E+02  0.51849161614E+02 -0.29355365627E+03  0.30408546124E+03  0.47000000000E+01 0.  1.
<mgrwt>
<rscale>  0 0.12596071E+03</rscale>
<asrwt>0</asrwt>
<pdfrwt beam="1">  1        2 0.14361486E+00 0.13437978E+03</pdfrwt>
<pdfrwt beam="2">  1       -2 0.24948824E-02 0.13437978E+03</pdfrwt>
<totfact> 0.15393312E+04</totfact>
</mgrwt>
</event>
<event>
 7    1  0.6985133E-005  0.1463703E+03  0.7546771E-02  0.1214701E+00
         -2   -1    0    0    0  501 -0.00000000000E+00  0.00000000000E+00  0.39744418222E+03  0.39744418222E+03  0.00000000000E+00 0.  1.
          2   -1    0    0  501    0  0.00000000000E+00 -0.00000000000E+00 -0.44706395790E+02  0.44706395790E+02  0.00000000000E+00 0. -1.
         23    2    1    2    0    0 -0.75949378449E+02 -0.17342386729E+00  0.17946729618E+03  0.21533140978E+03  0.91601132496E+02 0.  0.
          5    1    1    2  502    0  0.14739072386E+02 -0.30404431200E+02  0.15085603900E+03  0.15466513568E+03  0.47000000000E+01 0.  1.
         -5    1    1    2    0  502  0.61210306064E+02  0.30577855068E+02  0.22414451244E+02  0.72154032552E+02  0.47000000000E+01 0.  1.
          5    1    3    3  503    0 -0.65749699835E+02 -0.28376907642E+02  0.64727729858E+02  0.96643887175E+02  0.47000000000E+01 0. -1.
         -5    1    3    3    0  503 -0.10199678615E+02  0.28203483775E+02  0.11473956633E+03  0.11868752260E+03  0.47000000000E+01 0.  1.
<mgrwt>
<rscale>  0 0.13898542E+03</rscale>
<asrwt>0</asrwt>
<pdfrwt beam="1">  1        2 0.68779073E-02 0.14637033E+03</pdfrwt>
<pdfrwt beam="2">  1       -2 0.61145257E-01 0.14637033E+03</pdfrwt>
<totfact> 0.25338606E+03</totfact>
</mgrwt>
</event>
<event>
 7    1  0.6985133E-005  0.1736790E+03  0.7546771E-02  0.1180337E+00
          1   -1    0    0  501    0  0.00000000000E+00  0.00000000000E+00  0.27283481035E+03  0.27283481035E+03  0.00000000000E+00 0. -1.
         -1   -1    0    0    0  501 -0.00000000000E+00 -0.00000000000E+00 -0.96452931665E+02  0.96452931665E+02  0.00000000000E+00 0.  1.
         23    2    1    2    0    0 -0.28298191874E+02  0.11734211005E+03  0.84369923309E+02  0.17274106667E+03  0.90284182997E+02 0.  0.
          5    1    1    2  502    0 -0.13101538169E+02 -0.11138844856E+03  0.21301581467E+02  0.11425797192E+03  0.47000000000E+01 0. -1.
         -5    1    3    3    0  503  0.21337216391E+02  0.62074442339E+01 -0.29013545984E+01  0.22897969904E+02  0.47000000000E+01 0.  1.
          5    1    3    3  503    0 -0.49635408264E+02  0.11113466582E+03  0.87271277907E+02  0.14984309676E+03  0.47000000000E+01 0. -1.
         -5    1    1    2    0  502  0.41399730043E+02 -0.59536614902E+01  0.70710373912E+02  0.82288703426E+02  0.47000000000E+01 0. -1.
<mgrwt>
<rscale>  0 0.16763488E+03</rscale>
<asrwt>0</asrwt>
<pdfrwt beam="1">  1        1 0.41974586E-01 0.17367900E+03</pdfrwt>
<pdfrwt beam="2">  1       -1 0.14838913E-01 0.17367900E+03</pdfrwt>
<totfact> 0.31624106E+03</totfact>
</mgrwt>
</event>
<event>
 8    1  0.6985133E-005  0.1457028E+03  0.7546771E-02  0.1216429E+00
         -2   -1    0    0    0  501 -0.00000000000E+00  0.00000000000E+00  0.17544517805E+02  0.17544517805E+02  0.00000000000E+00 0.  1.
          2   -1    0    0  501    0  0.00000000000E+00 -0.00000000000E+00 -0.11600479723E+04  0.11600479723E+04  0.00000000000E+00 0. -1.
         25    2    1    2    0    0 -0.47222054826E+02  0.58198361596E+02 -0.85718180791E+03  0.86947682777E+03  0.12494931161E+03 0.  0.
         23    2    1    2    0    0  0.47222054826E+02 -0.58198361596E+02 -0.28532164654E+03  0.30811566229E+03  0.88937324035E+02 0.  0.
          5    1    3    3  502    0 -0.87672980415E+02  0.24388505309E+02 -0.47669724327E+03  0.48532844798E+03  0.47000000000E+01 0.  1.
         -5    1    3    3    0  502  0.40450925589E+02  0.33809856287E+02 -0.38048456464E+03  0.38414837979E+03  0.47000000000E+01 0.  1.
          5    1    4    4  503    0  0.41001430062E+02 -0.81196965674E+02 -0.23991668992E+03  0.25662457521E+03  0.47000000000E+01 0. -1.
         -5    1    4    4    0  503  0.62206247639E+01  0.22998604079E+02 -0.45404956623E+02  0.51491087073E+02  0.47000000000E+01 0.  1.
<mgrwt>
<rscale>  0 0.13772106E+03</rscale>
<asrwt>0</asrwt>
<pdfrwt beam="1">  1        2 0.17846897E+00 0.14570279E+03</pdfrwt>
<pdfrwt beam="2">  1       -2 0.26991557E-02 0.14570279E+03</pdfrwt>
<totfact> 0.10147437E+04</totfact>
</mgrwt>
</event>
<event>
 8    1  0.6985133E-005  0.2628293E+03  0.7546771E-02  0.1107653E+00
          2   -1    0    0  501    0  0.00000000000E+00  0.00000000000E+00  0.10049753264E+04  0.10049753264E+04  0.00000000000E+00 0. -1.
         -2   -1    0    0    0  501 -0.00000000000E+00 -0.00000000000E+00 -0.69876433877E+02  0.69876433877E+02  0.00000000000E+00 0.  1.
         25    2    1    2    0    0 -0.13119290917E+03 -0.19035375949E+03  0.33822532976E+03  0.42834055100E+03  0.12503247887E+03 0.  0.
         23    2    1    2    0    0  0.13119290917E+03  0.19035375949E+03  0.59687356272E+03  0.64651120923E+03  0.90953617947E+02 0.  0.
          5    1    3    3  502    0 -0.66981604801E+02 -0.13539210787E+03  0.29903980490E+03  0.33505888015E+03  0.47000000000E+01 0.  1.
         -5    1    4    4    0  503  0.73076386794E+02  0.59909530945E+02  0.14994774100E+03  0.17730122740E+03  0.47000000000E+01 0.  1.
          5    1    4    4  503    0  0.58116522377E+02  0.13044422855E+03  0.44692582172E+03  0.46920998183E+03  0.47000000000E+01 0. -1.
         -5    1    3    3    0  502 -0.64211304371E+02 -0.54961651620E+02  0.39185524862E+02  0.93281670850E+02  0.47000000000E+01 0.  1.
<mgrwt>
<rscale>  0 0.25915372E+03</rscale>
<asrwt>0</asrwt>
<pdfrwt beam="1">  1        2 0.15461158E+00 0.26282932E+03</pdfrwt>
<pdfrwt beam="2">  1       -2 0.10750221E-01 0.26282932E+03</pdfrwt>
<totfact> 0.15403803E+03</totfact>
</mgrwt>
</event>
<event>
 8    1  0.1193249E-004  0.1560478E+03  0.7546771E-02  0.1200740E+00
         -1   -1    0    0    0  501 -0.00000000000E+00  0.00000000000E+00  0.69254103920E+02  0.69254103920E+02  0.00000000000E+00 0.  1.
          1   -1    0    0  501    0  0.00000000000E+00 -0.00000000000E+00 -0.30329335328E+03  0.30329335328E+03  0.00000000000E+00 0. -1.
         25    2    1    2    0    0 -0.25683264629E+02 -0.89762861333E+02 -0.10858219552E+03  0.19010790745E+03  0.12503568265E+03 0.  0.
         23    2    1    2    0    0  0.25683264629E+02  0.89762861333E+02 -0.12545705385E+03  0.18243954975E+03  0.93955923690E+02 0.  0.
          5    1    4    4  502    0 -0.27374123368E+02  0.41946203953E+01 -0.46821792565E+02  0.54601352817E+02  0.47000000000E+01 0. -1.
         -5    1    3    3    0  503 -0.40263533158E+02 -0.11048148979E+03 -0.53452654635E+02  0.12925396696E+03  0.47000000000E+01 0. -1.
          5    1    3    3  503    0  0.14580268528E+02  0.20718628453E+02 -0.55129540882E+02  0.60853940491E+02  0.47000000000E+01 0. -1.
         -5    1    4    4    0  502  0.53057387998E+02  0.85568240938E+02 -0.78635261281E+02  0.12783819693E+03  0.47000000000E+01 0.  1.
<mgrwt>
<rscale>  0 0.14978268E+03</rscale>
<asrwt>0</asrwt>
<pdfrwt beam="1">  1        1 0.46660515E-01 0.15604782E+03</pdfrwt>
<pdfrwt beam="2">  1       -1 0.10654478E-01 0.15604782E+03</pdfrwt>
<totfact> 0.46181115E+03</totfact>
</mgrwt>
</event>
<event>
 8    1  0.6985133E-005  0.3120372E+03  0.7546771E-02  0.1080733E+00
         -1   -1    0    0    0  501 -0.00000000000E+00  0.00000000000E+00  0.10595956673E+03  0.10595956673E+03  0.00000000000E+00 0.  1.
          1   -1    0    0  501    0  0.00000000000E+00 -0.00000000000E+00 -0.95815290758E+03  0.95815290758E+03  0.00000000000E+00 0. -1.
         25    2    1    2    0    0 -0.82996779713E+02  0.27361815886E+03 -0.28749625626E+03  0.42428915218E+03  0.12494728887E+03 0.  0.
         23    2    1    2    0    0  0.82996779713E+02 -0.27361815886E+03 -0.56469708459E+03  0.63982332213E+03  0.93465094571E+02 0.  0.
          5    1    3    3  502    0 -0.57580003548E+02  0.79252611468E+02 -0.16839939311E+03  0.19487657333E+03  0.47000000000E+01 0. -1.
         -5    1    4    4    0  503 -0.36881012501E+01 -0.10003044655E+03 -0.13319337610E+03  0.16668010609E+03  0.47000000000E+01 0.  1.
          5    1    4    4  503    0  0.86684880963E+02 -0.17358771231E+03 -0.43150370849E+03  0.47314321605E+03  0.47000000000E+01 0. -1.
         -5    1    3    3    0  502 -0.25416776165E+02  0.19436554739E+03 -0.11909686315E+03  0.22941257885E+03  0.47000000000E+01 0. -1.
<mgrwt>
<rscale>  0 0.30919357E+03</rscale>
<asrwt>0</asrwt>
<pdfrwt beam="1">  1        1 0.14740814E+00 0.31203716E+03</pdfrwt>
<pdfrwt beam="2">  1       -1 0.16301472E-01 0.31203716E+03</pdfrwt>
<totfact> 0.48448744E+02</totfact>
</mgrwt>
</event>
<event>
 8    1  0.6985133E-005  0.1467184E+03  0.7546771E-02  0.1215687E+00
          1   -1    0    0  501    0  0.00000000000E+00  0.00000000000E+00  0.11275160938E+04  0.11275160938E+04  0.00000000000E+00 0. -1.
         -1   -1    0    0    0  501 -0.00000000000E+00 -0.00000000000E+00 -0.20711220206E+02  0.20711220206E+02  0.00000000000E+00 0.  1.
         25    2    1    2    0    0  0.76582719706E+02 -0.48144173019E+01  0.89437505370E+03  0.90632941839E+03  0.12505273447E+03 0.  0.
         23    2    1    2    0    0 -0.76582719706E+02  0.48144173019E+01  0.21242981994E+03  0.24189789566E+03  0.86602955792E+02 0.  0.
          5    1    3    3  502    0  0.44269723113E+02 -0.61360725093E+02  0.35418521063E+03  0.36220739970E+03  0.47000000000E+01 0.  1.
         -5    1    3    3    0  502  0.32312996592E+02  0.56546307791E+02  0.54018984307E+03  0.54412201869E+03  0.47000000000E+01 0.  1.
          5    1    4    4  503    0 -0.77917814785E+01 -0.30967088042E+02  0.10123223587E+03  0.10625313162E+03  0.47000000000E+01 0. -1.
         -5    1    4    4    0  503 -0.68790938227E+02  0.35781505344E+02  0.11119758407E+03  0.13564476404E+03  0.47000000000E+01 0.  1.
<mgrwt>
<rscale>  0 0.13826221E+03</rscale>
<asrwt>0</asrwt>
<pdfrwt beam="1">  1        1 0.17346397E+00 0.14671836E+03</pdfrwt>
<pdfrwt beam="2">  1       -1 0.31863425E-02 0.14671836E+03</pdfrwt>
<totfact> 0.43717528E+03</totfact>
</mgrwt>
</event>
<event>
 7    1  0.6985133E-005  0.1464865E+03  0.7546771E-02  0.1212888E+00
          2   -1    0    0  501    0  0.00000000000E+00  0.00000000000E+00  0.88723472580E+02  0.88723472580E+02  0.00000000000E+00 0. -1.
         -2   -1    0    0    0  501 -0.00000000000E+00 -0.00000000000E+00 -0.21389241792E+03  0.21389241792E+03  0.00000000000E+00 0.  1.
         23    2    1    2    0    0 -0.68245176304E+01 -0.76229104055E+02 -0.87861240068E+02  0.15145322201E+03  0.96752419116E+02 0.  0.
          5    1    1    2  502    0  0.30669312073E+02  0.10391430562E+03 -0.36118776195E+02  0.11430418019E+03  0.47000000000E+01 0.  1.
         -5    1    3    3    0  503  0.43767107624E+02 -0.23094190673E+02 -0.38948959190E+02  0.63150714759E+02  0.47000000000E+01 0.  1.
          5    1    3    3  503    0 -0.50591625254E+02 -0.53134913383E+02 -0.48912280878E+02  0.88302507251E+02  0.47000000000E+01 0. -1.
         -5    1    1    2    0  502 -0.23844794442E+02 -0.27685201561E+02 -0.11889290779E+01  0.36858488301E+02  0.47000000000E+01 0.  1.
<mgrwt>
<rscale>  0 0.14032807E+03</rscale>
<asrwt>0</asrwt>
<pdfrwt beam="1">  1        2 0.13649765E-01 0.14648648E+03</pdfrwt>
<pdfrwt beam="2">  1       -2 0.32906526E-01 0.14648648E+03</pdfrwt>
<totfact> 0.36231511E+03</totfact>
</mgrwt>
</event>
<event>
 8    1  0.6985133E-005  0.1642294E+03  0.7546771E-02  0.1190911E+00
          2   -1    0    0  501    0  0.00000000000E+00  0.00000000000E+00  0.44975494617E+02  0.44975494617E+02  0.00000000000E+00 0. -1.
         -2   -1    0    0    0  501 -0.00000000000E+00 -0.00000000000E+00 -0.66875957649E+03  0.66875957649E+03  0.00000000000E+00 0.  1.
         25    2    1    2    0    0  0.95868227416E+02  0.46580508923E+02 -0.49969555899E+03  0.52599140600E+03  0.12494337386E+03 0.  0.
         23    2    1    2    0    0 -0.95868227416E+02 -0.46580508923E+02 -0.12408852288E+03  0.18774366510E+03  0.92137188132E+02 0.  0.
          5    1    4    4  502    0 -0.60296855701E+02 -0.73867947365E+02 -0.78073044471E+02  0.12332751002E+03  0.47000000000E+01 0. -1.
         -5    1    4    4    0  502 -0.35571371715E+02  0.27287438442E+02 -0.46015478406E+02  0.64416155081E+02  0.47000000000E+01 0.  1.
          5    1    3    3  503    0  0.47386097844E+02  0.61663439805E+02 -0.12123039278E+03  0.14410662792E+03  0.47000000000E+01 0. -1.
         -5    1    3    3    0  503  0.48482129572E+02 -0.15082930882E+02 -0.37846516622E+03  0.38188477808E+03  0.47000000000E+01 0. -1.
<mgrwt>
<rscale>  0 0.15805475E+03</rscale>
<asrwt>0</asrwt>
<pdfrwt beam="1">  1        2 0.69193065E-02 0.16422944E+03</pdfrwt>
<pdfrwt beam="2">  1       -2 0.10288609E+00 0.16422944E+03</pdfrwt>
<totfact> 0.80882892E+02</totfact>
</mgrwt>
</event>
<event>
 8    1  0.6985133E-005  0.1260622E+03  0.7546771E-02  0.1248431E+00
          1   -1    0    0  501    0  0.00000000000E+00  0.00000000000E+00  0.39694505936E+03  0.39694505936E+03  0.00000000000E+00 0. -1.
         -1   -1    0    0    0  501 -0.00000000000E+00 -0.00000000000E+00 -0.30318937336E+02  0.30318937336E+02  0.00000000000E+00 0.  1.
         25    2    1    2    0    0  0.15202797355E+02  0.67671129287E+01  0.22318452484E+03  0.25632597973E+03  0.12495902086E+03 0.  0.
         23    2    1    2    0    0 -0.15202797355E+02 -0.67671129287E+01  0.14344159718E+03  0.17093801696E+03  0.91473465961E+02 0.  0.
          5    1    3    3  502    0 -0.33600611825E+02 -0.43072511925E+02  0.11673858147E+03  0.12897375238E+03  0.47000000000E+01 0.  1.
         -5    1    3    3    0  502  0.48803409180E+02  0.49839624854E+02  0.10644594337E+03  0.12735222736E+03  0.47000000000E+01 0.  1.
          5    1    4    4  503    0  0.23741504715E+02 -0.30801464342E+02  0.10106349393E+03  0.10838961692E+03  0.47000000000E+01 0. -1.
         -5    1    4    4    0  503 -0.38944302070E+02  0.24034351414E+02  0.42378103251E+02  0.62548400034E+02  0.47000000000E+01 0.  1.
<mgrwt>
<rscale>  0 0.11682343E+03</rscale>
<asrwt>0</asrwt>
<pdfrwt beam="1">  1        1 0.61068467E-01 0.12606219E+03</pdfrwt>
<pdfrwt beam="2">  1       -1 0.46644522E-02 0.12606219E+03</pdfrwt>
<totfact> 0.11257584E+04</totfact>
</mgrwt>
</event>
<event>
 7    1  0.6985133E-005  0.1687355E+03  0.7546771E-02  0.1185523E+00
          2   -1    0    0  501    0  0.00000000000E+00  0.00000000000E+00  0.65271260181E+03  0.65271260181E+03  0.00000000000E+00 0. -1.
         -2   -1    0    0    0  501 -0.00000000000E+00 -0.00000000000E+00 -0.44736042039E+02  0.44736042039E+02  0.00000000000E+00 0.  1.
         23    2    1    2    0    0 -0.98068702661E+02 -0.58096980897E+02  0.42036370445E+03  0.44511898575E+03  0.91828850712E+02 0.  0.
          5    1    3    3  502    0 -0.65364363393E+02 -0.19515426955E+01  0.31089111617E+03  0.31772894837E+03  0.47000000000E+01 0. -1.
         -5    1    1    2    0  503  0.11504125617E+03  0.69123036915E+02  0.11500424128E+03  0.17680653372E+03  0.47000000000E+01 0.  1.
          5    1    1    2  503    0 -0.16972553505E+02 -0.11026056018E+02  0.72608614036E+02  0.75523124380E+02  0.47000000000E+01 0.  1.
         -5    1    3    3    0  502 -0.32704339268E+02 -0.56145438201E+02  0.10947258828E+03  0.12739003738E+03  0.47000000000E+01 0.  1.
<mgrwt>
<rscale>  0 0.16284358E+03</rscale>
<asrwt>0</asrwt>
<pdfrwt beam="1">  1        2 0.10041732E+00 0.16873551E+03</pdfrwt>
<pdfrwt beam="2">  1       -2 0.68824685E-02 0.16873551E+03</pdfrwt>
<totfact> 0.53373271E+03</totfact>
</mgrwt>
</event>
<event>
 7    1  0.6985133E-005  0.1474318E+03  0.7546771E-02  0.1213547E+00
         -1   -1    0    0    0  501 -0.00000000000E+00  0.00000000000E+00  0.45546061766E+02  0.45546061766E+02  0.00000000000E+00 0.  1.
          1   -1    0    0  501    0  0.00000000000E+00 -0.00000000000E+00 -0.42180484850E+03  0.42180484850E+03  0.00000000000E+00 0. -1.
         23    2    1    2    0    0  0.25909571860E+02 -0.71735001026E+02 -0.10653360378E+03  0.15996221408E+03  0.91767559157E+02 0.  0.
          5    1    3    3  502    0 -0.11842032106E+02 -0.58659475996E+02 -0.10346601173E+03  0.11961803138E+03  0.47000000000E+01 0. -1.
         -5    1    1    2    0  503  0.16350799268E+02  0.52203696080E+02 -0.25108879891E+03  0.25702188518E+03  0.47000000000E+01 0.  1.
          5    1    1    2  503    0 -0.42260371128E+02  0.19531304947E+02 -0.18636384040E+02  0.50366811005E+02  0.47000000000E+01 0. -1.
         -5    1    3    3    0  502  0.37751603966E+02 -0.13075525031E+02 -0.30675920523E+01  0.40344182702E+02  0.47000000000E+01 0.  1.
<mgrwt>
<rscale>  0 0.13983839E+03</rscale>
<asrwt>0</asrwt>
<pdfrwt beam="1">  1        1 0.64893058E-01 0.14743180E+03</pdfrwt>
<pdfrwt beam="2">  1       -1 0.70070859E-02 0.14743180E+03</pdfrwt>
<totfact> 0.57516263E+03</totfact>
</mgrwt>
</event>
<event>
 7    1  0.6985133E-005  0.1261510E+03  0.7546771E-02  0.1248278E+00
         -1   -1    0    0    0  501 -0.00000000000E+00  0.00000000000E+00  0.24662536220E+02  0.24662536220E+02  0.00000000000E+00 0.  1.
          1   -1    0    0  501    0  0.00000000000E+00 -0.00000000000E+00 -0.56833048925E+03  0.56833048925E+03  0.00000000000E+00 0. -1.
         23    2    1    2    0    0  0.14096912927E+02 -0.45627024830E+01 -0.34764193727E+03  0.35988301424E+03  0.91876690119E+02 0.  0.
          5    1    1    2  502    0  0.25967164761E+02  0.36198662328E+02 -0.18735634891E+02  0.48556676316E+02  0.47000000000E+01 0.  1.
         -5    1    1    2    0  502 -0.40064077688E+02 -0.31635959845E+02 -0.17729038087E+03  0.18455333491E+03  0.47000000000E+01 0.  1.
          5    1    3    3  503    0  0.70447616468E+01 -0.35012206720E+02 -0.30328734691E+03  0.30541903686E+03  0.47000000000E+01 0. -1.
         -5    1    3    3    0  503  0.70521512801E+01  0.30449504237E+02 -0.44354590360E+02  0.54463977379E+02  0.47000000000E+01 0.  1.
<mgrwt>
<rscale>  0 0.11691312E+03</rscale>
<asrwt>0</asrwt>
<pdfrwt beam="1">  1        1 0.87435464E-01 0.12615101E+03</pdfrwt>
<pdfrwt beam="2">  1       -1 0.37942362E-02 0.12615101E+03</pdfrwt>
<totfact> 0.95900337E+03</totfact>
</mgrwt>
</event>
<event>
 8    1  0.6985133E-005  0.1350862E+03  0.7546771E-02  0.1232030E+00
         -2   -1    0    0    0  501 -0.00000000000E+00  0.00000000000E+00  0.11461838889E+03  0.11461838889E+03  0.00000000000E+00 0.  1.
          2   -1    0    0  501    0  0.00000000000E+00 -0.00000000000E+00 -0.14457265069E+03  0.14457265069E+03  0.00000000000E+00 0. -1.
         25    2    1    2    0    0 -0.32798844826E+02 -0.39180982324E+02  0.29351586387E+02  0.13823823587E+03  0.12504951274E+03 0.  0.
         23    2    1    2    0    0  0.32798844826E+02  0.39180982324E+02 -0.59305848187E+02  0.12095280370E+03  0.92203489606E+02 0.  0.
          5    1    3    3  502    0  0.29409596436E+02 -0.61211335507E+02  0.22634871257E+02  0.71736875830E+02  0.47000000000E+01 0. -1.
         -5    1    4    4    0  503 -0.23630708526E+02  0.29207265918E+02  0.67049442108E+00  0.37868381674E+02  0.47000000000E+01 0.  1.
          5    1    4    4  503    0  0.56429553352E+02  0.99737164060E+01 -0.59976342608E+02  0.83084422024E+02  0.47000000000E+01 0. -1.
         -5    1    3    3    0  502 -0.62208441262E+02  0.22030353183E+02  0.67167151304E+01  0.66501360044E+02  0.47000000000E+01 0. -1.
<mgrwt>
<rscale>  0 0.12696509E+03</rscale>
<asrwt>0</asrwt>
<pdfrwt beam="1">  1        2 0.22241946E-01 0.13508625E+03</pdfrwt>
<pdfrwt beam="2">  1       -2 0.17633598E-01 0.13508625E+03</pdfrwt>
<totfact> 0.60891216E+03</totfact>
</mgrwt>
</event>
<event>
 7    1  0.6985133E-005  0.1394453E+03  0.7546771E-02  0.1225922E+00
         -1   -1    0    0    0  501 -0.00000000000E+00  0.00000000000E+00  0.12689581748E+03  0.12689581748E+03  0.00000000000E+00 0.  1.
          1   -1    0    0  501    0  0.00000000000E+00 -0.00000000000E+00 -0.12137651004E+03  0.12137651004E+03  0.00000000000E+00 0. -1.
         23    2    1    2    0    0  0.29400899943E+02 -0.54932179297E+02  0.69713589596E+00  0.10874371828E+03  0.89122124231E+02 0.  0.
          5    1    3    3  502    0 -0.22352780262E+02 -0.18619059337E+02 -0.26619984057E+02  0.39711833341E+02  0.47000000000E+01 0. -1.
         -5    1    3    3    0  502  0.51753680205E+02 -0.36313119959E+02  0.27317119953E+02  0.69031884941E+02  0.47000000000E+01 0.  1.
          5    1    1    2  503    0 -0.38230443914E+02 -0.28804299833E+02 -0.19284044063E+02  0.51819097697E+02  0.47000000000E+01 0.  1.
         -5    1    1    2    0  503  0.88295439706E+01  0.83736479129E+02  0.24106215607E+02  0.87709511540E+02  0.47000000000E+01 0.  1.
<mgrwt>
<rscale>  0 0.13103932E+03</rscale>
<asrwt>0</asrwt>
<pdfrwt beam="1">  1        1 0.18673309E-01 0.13944526E+03</pdfrwt>
<pdfrwt beam="2">  1       -1 0.19522433E-01 0.13944526E+03</pdfrwt>
<totfact> 0.55901593E+03</totfact>
</mgrwt>
</event>
<event>
 8    1  0.6985133E-005  0.1670923E+03  0.7546771E-02  0.1187701E+00
          1   -1    0    0  501    0  0.00000000000E+00  0.00000000000E+00  0.12845610998E+03  0.12845610998E+03  0.00000000000E+00 0. -1.
         -1   -1    0    0    0  501 -0.00000000000E+00 -0.00000000000E+00 -0.20191174941E+03  0.20191174941E+03  0.00000000000E+00 0.  1.
         25    2    1    2    0    0 -0.35244359702E+02 -0.10503610380E+03  0.41150517268E+01  0.16714294283E+03  0.12508030098E+03 0.  0.
         23    2    1    2    0    0  0.35244359702E+02  0.10503610380E+03 -0.77570691158E+02  0.16322491656E+03  0.91380595668E+02 0.  0.
          5    1    3    3  502    0 -0.23597169907E+02 -0.13361433818E+03  0.95247293889E+00  0.13576676692E+03  0.47000000000E+01 0.  1.
         -5    1    4    4    0  503  0.23360468437E+02  0.61424710084E+02  0.79666911850E+01  0.66364634128E+02  0.47000000000E+01 0. -1.
          5    1    4    4  503    0  0.11883891265E+02  0.43611393720E+02 -0.85537382343E+02  0.96860282427E+02  0.47000000000E+01 0.  1.
         -5    1    3    3    0  502 -0.11647189795E+02  0.28578234377E+02  0.31625787879E+01  0.31376175911E+02  0.47000000000E+01 0.  1.
<mgrwt>
<rscale>  0 0.16088552E+03</rscale>
<asrwt>0</asrwt>
<pdfrwt beam="1">  1        1 0.19762478E-01 0.16709228E+03</pdfrwt>
<pdfrwt beam="2">  1       -1 0.31063346E-01 0.16709228E+03</pdfrwt>
<totfact> 0.24431888E+03</totfact>
</mgrwt>
</event>
<event>
 8    1  0.6985133E-005  0.1404504E+03  0.7546771E-02  0.1222844E+00
          1   -1    0    0  501    0  0.00000000000E+00  0.00000000000E+00  0.92408949520E+03  0.92408949520E+03  0.00000000000E+00 0. -1.
         -1   -1    0    0    0  501 -0.00000000000E+00 -0.00000000000E+00 -0.32693827558E+02  0.32693827558E+02  0.00000000000E+00 0.  1.
         25    2    1    2    0    0 -0.29451166846E+01  0.64113931616E+02  0.79670357175E+03  0.80898881450E+03  0.12492818260E+03 0.  0.
         23    2    1    2    0    0  0.29451166846E+01 -0.64113931616E+02  0.94692095894E+02  0.14779450826E+03  0.93580733634E+02 0.  0.
          5    1    3    3  502    0 -0.36761867862E+02 -0.60505123891E+01  0.83817801301E+02  0.91845290809E+02  0.47000000000E+01 0.  1.
         -5    1    4    4    0  503  0.22642148497E+02 -0.30339836933E+02 -0.69632160125E+01  0.38778202265E+02  0.47000000000E+01 0.  1.
          5    1    4    4  503    0 -0.19697031812E+02 -0.33774094683E+02  0.10165531191E+03  0.10901630599E+03  0.47000000000E+01 0. -1.
         -5    1    3    3    0  502  0.33816751177E+02  0.70164444005E+02  0.71288577045E+03  0.71714352369E+03  0.47000000000E+01 0.  1.
<mgrwt>
<rscale>  0 0.13315808E+03</rscale>
<asrwt>0</asrwt>
<pdfrwt beam="1">  1        1 0.14216760E+00 0.14045042E+03</pdfrwt>
<pdfrwt beam="2">  1       -1 0.50298203E-02 0.14045042E+03</pdfrwt>
<totfact> 0.31362807E+03</totfact>
</mgrwt>
</event>
<event>
 7    1  0.6985133E-005  0.2139329E+03  0.7546771E-02  0.1142010E+00
          3   -1    0    0  501    0  0.00000000000E+00  0.00000000000E+00  0.69671412570E+03  0.69671412570E+03  0.00000000000E+00 0. -1.
         -3   -1    0    0    0  501 -0.00000000000E+00 -0.00000000000E+00 -0.60933464130E+02  0.60933464130E+02  0.00000000000E+00 0.  1.
         23    2    1    2    0    0  0.12149034347E+03 -0.12414473403E+03  0.33815154936E+03  0.39110920900E+03  0.91913679555E+02 0.  0.
          5    1    1    2  502    0 -0.13401079665E+03  0.10837072904E+03  0.29970157782E+03  0.34575458678E+03  0.47000000000E+01 0.  1.
         -5    1    3    3    0  503  0.44116198024E+02  0.53488990302E+01  0.62282012095E+02  0.76654997747E+02  0.47000000000E+01 0.  1.
          5    1    3    3  503    0  0.77374145448E+02 -0.12949363306E+03  0.27586953726E+03  0.31445421126E+03  0.47000000000E+01 0. -1.
         -5    1    1    2    0  502  0.12520453175E+02  0.15774004995E+02 -0.20724656101E+01  0.20783794047E+02  0.47000000000E+01 0.  1.
<mgrwt>
<rscale>  0 0.20944002E+03</rscale>
<asrwt>0</asrwt>
<pdfrwt beam="1">  1        3 0.10718678E+00 0.21393292E+03</pdfrwt>
<pdfrwt beam="2">  1       -3 0.93743796E-02 0.21393292E+03</pdfrwt>
<totfact> 0.15601333E+02</totfact>
</mgrwt>
</event>
<event>
 7    1  0.6985133E-005  0.1311522E+03  0.7546771E-02  0.1238585E+00
         -1   -1    0    0    0  501 -0.00000000000E+00  0.00000000000E+00  0.20864272091E+02  0.20864272091E+02  0.00000000000E+00 0.  1.
          1   -1    0    0  501    0  0.00000000000E+00 -0.00000000000E+00 -0.72389925114E+03  0.72389925114E+03  0.00000000000E+00 0. -1.
         23    2    1    2    0    0  0.14124680805E+02  0.39524402722E+02 -0.43303823832E+03  0.44459833881E+03  0.91563540815E+02 0.  0.
          5    1    3    3  502    0  0.46617402603E+02 -0.21084386233E+01 -0.17549619053E+03  0.18165525214E+03  0.47000000000E+01 0. -1.
         -5    1    1    2    0  503 -0.34766830394E+02 -0.31594334061E+02 -0.27327359027E+03  0.27732197817E+03  0.47000000000E+01 0.  1.
          5    1    1    2  503    0  0.20642149589E+02 -0.79300686608E+01  0.32768495416E+01  0.22843206245E+02  0.47000000000E+01 0.  1.
         -5    1    3    3    0  502 -0.32492721798E+02  0.41632841346E+02 -0.25754204779E+03  0.26294308667E+03  0.47000000000E+01 0.  1.
<mgrwt>
<rscale>  0 0.12277677E+03</rscale>
<asrwt>0</asrwt>
<pdfrwt beam="1">  1        1 0.11136908E+00 0.13115219E+03</pdfrwt>
<pdfrwt beam="2">  1       -1 0.32098890E-02 0.13115219E+03</pdfrwt>
<totfact> 0.87742383E+03</totfact>
</mgrwt>
</event>
<event>
 8    1  0.6985133E-005  0.1538808E+03  0.7546771E-02  0.1205270E+00
          2   -1    0    0  501    0  0.00000000000E+00  0.00000000000E+00  0.15366406817E+04  0.15366406817E+04  0.00000000000E+00 0. -1.
         -2   -1    0    0    0  501 -0.00000000000E+00 -0.00000000000E+00 -0.14532035545E+02  0.14532035545E+02  0.00000000000E+00 0.  1.
         25    2    1    2    0    0  0.66067690299E+02 -0.60816991504E+02  0.11050371787E+04  0.11156999940E+04  0.12496265109E+03 0.  0.
         23    2    1    2    0    0 -0.66067690299E+02  0.60816991504E+02  0.41707146743E+03  0.43547272321E+03  0.87316880147E+02 0.  0.
          5    1    3    3  502    0  0.31456241298E+02  0.35633960321E+02  0.47132412917E+03  0.47373811223E+03  0.47000000000E+01 0. -1.
         -5    1    4    4    0  503 -0.49411955274E+02 -0.77573869908E-01  0.94440064302E+02  0.10668909545E+03  0.47000000000E+01 0.  1.
          5    1    4    4  503    0 -0.16655735025E+02  0.60894565374E+02  0.32263140313E+03  0.32878362777E+03  0.47000000000E+01 0. -1.
         -5    1    3    3    0  502  0.34611449000E+02 -0.96450951825E+02  0.63371304953E+03  0.64196188178E+03  0.47000000000E+01 0. -1.
<mgrwt>
<rscale>  0 0.14616182E+03</rscale>
<asrwt>0</asrwt>
<pdfrwt beam="1">  1        2 0.23640613E+00 0.15388083E+03</pdfrwt>
<pdfrwt beam="2">  1       -2 0.22356990E-02 0.15388083E+03</pdfrwt>
<totfact> 0.84054184E+03</totfact>
</mgrwt>
</event>
<event>
 8    1  0.6985133E-005  0.1439062E+03  0.7546771E-02  0.1219082E+00
         -1   -1    0    0    0  501 -0.00000000000E+00  0.00000000000E+00  0.39051264245E+02  0.39051264245E+02  0.00000000000E+00 0.  1.
          1   -1    0    0  501    0  0.00000000000E+00 -0.00000000000E+00 -0.44830726329E+03  0.44830726329E+03  0.00000000000E+00 0. -1.
         25    2    1    2    0    0  0.10522983225E+02  0.70439336209E+02 -0.17344367194E+03  0.22537011776E+03  0.12504618898E+03 0.  0.
         23    2    1    2    0    0 -0.10522983225E+02 -0.70439336209E+02 -0.23581232710E+03  0.26198840978E+03  0.89207847101E+02 0.  0.
          5    1    4    4  502    0 -0.39625860409E+02 -0.11465244478E+02 -0.50971394648E+02  0.65740654974E+02  0.47000000000E+01 0.  1.
         -5    1    3    3    0  503 -0.40595420080E+02  0.39069126591E+02 -0.15086738161E+03  0.16111313297E+03  0.47000000000E+01 0. -1.
          5    1    3    3  503    0  0.51118403304E+02  0.31370209618E+02 -0.22576290339E+02  0.64256984783E+02  0.47000000000E+01 0. -1.
         -5    1    4    4    0  502  0.29102877184E+02 -0.58974091731E+02 -0.18484093246E+03  0.19624775481E+03  0.47000000000E+01 0. -1.
<mgrwt>
<rscale>  0 0.13580932E+03</rscale>
<asrwt>0</asrwt>
<pdfrwt beam="1">  1        1 0.68970352E-01 0.14390616E+03</pdfrwt>
<pdfrwt beam="2">  1       -1 0.60078865E-02 0.14390616E+03</pdfrwt>
<totfact> 0.66899122E+03</totfact>
</mgrwt>
</event>
<event>
 7    1  0.6985133E-005  0.2198818E+03  0.7546771E-02  0.1137383E+00
         -2   -1    0    0    0  501 -0.00000000000E+00  0.00000000000E+00  0.16897008925E+03  0.16897008925E+03  0.00000000000E+00 0.  1.
          2   -1    0    0  501    0  0.00000000000E+00 -0.00000000000E+00 -0.26790372066E+03  0.26790372066E+03  0.00000000000E+00 0. -1.
         23    2    1    2    0    0 -0.13465591561E+03  0.12066618610E+03 -0.74418631702E+02  0.21562962671E+03  0.90914570307E+02 0.  0.
          5    1    1    2  502    0  0.21500164776E+02  0.25701994765E+02  0.36986361498E+01  0.34038500697E+02  0.47000000000E+01 0.  1.
         -5    1    3    3    0  503 -0.11158060379E+03  0.77915947711E+02 -0.12440022229E+02  0.13674052144E+03  0.47000000000E+01 0.  1.
          5    1    3    3  503    0 -0.23075311811E+02  0.42750238385E+02 -0.61978609474E+02  0.78889105265E+02  0.47000000000E+01 0. -1.
         -5    1    1    2    0  502  0.11315575083E+03 -0.14636818086E+03 -0.28213635859E+02  0.18720568251E+03  0.47000000000E+01 0.  1.
<mgrwt>
<rscale>  0 0.21536955E+03</rscale>
<asrwt>0</asrwt>
<pdfrwt beam="1">  1        2 0.41215957E-01 0.21988179E+03</pdfrwt>
<pdfrwt beam="2">  1       -2 0.25995399E-01 0.21988179E+03</pdfrwt>
<totfact> 0.16292553E+03</totfact>
</mgrwt>
</event>
<event>
 8    1  0.6985133E-005  0.1387432E+03  0.7546771E-02  0.1226399E+00
         -1   -1    0    0    0  501 -0.00000000000E+00  0.00000000000E+00  0.38493855803E+02  0.38493855803E+02  0.00000000000E+00 0.  1.
          1   -1    0    0  501    0  0.00000000000E+00 -0.00000000000E+00 -0.66735979385E+03  0.66735979385E+03  0.00000000000E+00 0. -1.
         25    2    1    2    0    0  0.46842222671E+02 -0.37699516125E+02 -0.55937476648E+03  0.57632438338E+03  0.12503686723E+03 0.  0.
         23    2    1    2    0    0 -0.46842222671E+02  0.37699516125E+02 -0.69491171574E+02  0.12952926628E+03  0.91287242013E+02 0.  0.
          5    1    4    4  502    0 -0.53221043695E+02 -0.95157364764E+01 -0.13620381530E+02  0.55952064535E+02  0.47000000000E+01 0. -1.
         -5    1    3    3    0  503 -0.58222374091E+01 -0.71111417203E+02 -0.37129522833E+03  0.37811766513E+03  0.47000000000E+01 0. -1.
          5    1    3    3  503    0  0.52664460080E+02  0.33411901077E+02 -0.18807953815E+03  0.19820671825E+03  0.47000000000E+01 0. -1.
         -5    1    4    4    0  502  0.63788210243E+01  0.47215252602E+02 -0.55870790044E+02  0.73577201741E+02  0.47000000000E+01 0.  1.
<mgrwt>
<rscale>  0 0.13071465E+03</rscale>
<asrwt>0</asrwt>
<pdfrwt beam="1">  1        1 0.10267073E+00 0.13874316E+03</pdfrwt>
<pdfrwt beam="2">  1       -1 0.59221321E-02 0.13874316E+03</pdfrwt>
<totfact> 0.40097847E+03</totfact>
</mgrwt>
</event>
<event>
 8    1  0.6985133E-005  0.1297908E+03  0.7546771E-02  0.1240233E+00
          1   -1    0    0  501    0  0.00000000000E+00  0.00000000000E+00  0.20509390208E+03  0.20509390208E+03  0.00000000000E+00 0. -1.
         -1   -1    0    0    0  501 -0.00000000000E+00 -0.00000000000E+00 -0.65192370100E+02  0.65192370100E+02  0.00000000000E+00 0.  1.
         25    2    1    2    0    0  0.96304247722E+01 -0.33464742122E+02  0.91019450832E+02  0.15852508078E+03  0.12503210291E+03 0.  0.
         23    2    1    2    0    0 -0.96304247722E+01  0.33464742122E+02  0.48882081144E+02  0.11176119140E+03  0.94278693242E+02 0.  0.
          5    1    4    4  502    0 -0.36699369479E+02  0.17242409413E+02 -0.12408030006E+02  0.42663727113E+02  0.47000000000E+01 0.  1.
         -5    1    3    3    0  503  0.30387617494E+02 -0.66406872578E+02  0.94075509730E+02  0.11918712830E+03  0.47000000000E+01 0.  1.
          5    1    3    3  503    0 -0.20757192722E+02  0.32942130456E+02 -0.30560588980E+01  0.39337952472E+02  0.47000000000E+01 0.  1.
         -5    1    4    4    0  502  0.27068944707E+02  0.16222332709E+02  0.61290111150E+02  0.69097464286E+02  0.47000000000E+01 0. -1.
<mgrwt>
<rscale>  0 0.12175285E+03</rscale>
<asrwt>0</asrwt>
<pdfrwt beam="1">  1        1 0.31552908E-01 0.12979083E+03</pdfrwt>
<pdfrwt beam="2">  1       -1 0.10029596E-01 0.12979083E+03</pdfrwt>
<totfact> 0.81318474E+03</totfact>
</mgrwt>
</event>
<event>
 8    1  0.6985133E-005  0.1889341E+03  0.7546771E-02  0.1164088E+00
          2   -1    0    0  501    0  0.00000000000E+00  0.00000000000E+00  0.58248074969E+03  0.58248074969E+03  0.00000000000E+00 0. -1.
         -2   -1    0    0    0  501 -0.00000000000E+00 -0.00000000000E+00 -0.55443553376E+02  0.55443553376E+02  0.00000000000E+00 0.  1.
         25    2    1    2    0    0  0.10611932622E+03  0.93956798686E+02  0.30045990019E+03  0.35492568127E+03  0.12492756374E+03 0.  0.
         23    2    1    2    0    0 -0.10611932622E+03 -0.93956798686E+02  0.22657729612E+03  0.28299862180E+03  0.93068562931E+02 0.  0.
          5    1    3    3  502    0  0.34282966469E+02  0.52007179215E+02  0.24962382863E+03  0.25732122784E+03  0.47000000000E+01 0. -1.
         -5    1    4    4    0  503 -0.57124160082E+02 -0.78173091035E+02  0.74142104394E+02  0.12203828691E+03  0.47000000000E+01 0.  1.
          5    1    4    4  503    0 -0.48995166136E+02 -0.15783707651E+02  0.15243519172E+03  0.16096033489E+03  0.47000000000E+01 0. -1.
         -5    1    3    3    0  502  0.71836359750E+02  0.41949619471E+02  0.50836071564E+02  0.97604453422E+02  0.47000000000E+01 0. -1.
<mgrwt>
<rscale>  0 0.18389260E+03</rscale>
<asrwt>0</asrwt>
<pdfrwt beam="1">  1        2 0.89612419E-01 0.18893408E+03</pdfrwt>
<pdfrwt beam="2">  1       -2 0.85297778E-02 0.18893408E+03</pdfrwt>
<totfact> 0.43872824E+03</totfact>
</mgrwt>
</event>
<event>
 8    1  0.6985133E-005  0.1464122E+03  0.7546771E-02  0.1212748E+00
         -2   -1    0    0    0  501 -0.00000000000E+00  0.00000000000E+00  0.44536021587E+02  0.44536021587E+02  0.00000000000E+00 0.  1.
          2   -1    0    0  501    0  0.00000000000E+00 -0.00000000000E+00 -0.50076299178E+03  0.50076299178E+03  0.00000000000E+00 0. -1.
         25    2    1    2    0    0  0.80152607840E+01 -0.75898785611E+02 -0.12805864745E+03  0.19451361721E+03  0.12494662872E+03 0.  0.
         23    2    1    2    0    0 -0.80152607840E+01  0.75898785611E+02 -0.32816832274E+03  0.35078539616E+03  0.97627230034E+02 0.  0.
          5    1    3    3  502    0  0.62106700221E+02 -0.46659584877E+02 -0.41391700055E+02  0.88146026040E+02  0.47000000000E+01 0. -1.
         -5    1    4    4    0  503  0.11431900552E+02 -0.21005083877E+02 -0.52052709361E+02  0.57475877120E+02  0.47000000000E+01 0.  1.
          5    1    4    4  503    0 -0.19447161336E+02  0.96903869488E+02 -0.27611561338E+03  0.29330951904E+03  0.47000000000E+01 0. -1.
         -5    1    3    3    0  502 -0.54091439437E+02 -0.29239200734E+02 -0.86666947395E+02  0.10636759117E+03  0.47000000000E+01 0. -1.
<mgrwt>
<rscale>  0 0.14043246E+03</rscale>
<asrwt>0</asrwt>
<pdfrwt beam="1">  1        2 0.77040462E-01 0.14641219E+03</pdfrwt>
<pdfrwt beam="2">  1       -2 0.68516955E-02 0.14641219E+03</pdfrwt>
<totfact> 0.72045927E+03</totfact>
</mgrwt>
</event>
<event>
 8    1  0.6985133E-005  0.1641315E+03  0.7546771E-02  0.1191346E+00
         -1   -1    0    0    0  501 -0.00000000000E+00  0.00000000000E+00  0.34437845278E+02  0.34437845278E+02  0.00000000000E+00 0.  1.
          1   -1    0    0  501    0  0.00000000000E+00 -0.00000000000E+00 -0.67501001347E+03  0.67501001347E+03  0.00000000000E+00 0. -1.
         25    2    1    2    0    0 -0.10629925344E+03  0.47793978921E+01 -0.37451126825E+03  0.40889831148E+03  0.12496705631E+03 0.  0.
         23    2    1    2    0    0  0.10629925344E+03 -0.47793978921E+01 -0.26606089994E+03  0.30054954726E+03  0.90660101243E+02 0.  0.
          5    1    4    4  502    0  0.64239449778E+02  0.14535644965E+02 -0.23623230488E+03  0.24528714551E+03  0.47000000000E+01 0. -1.
         -5    1    3    3    0  503 -0.22378250393E+02  0.36638047749E+01  0.18803100223E+01  0.23234352194E+02  0.47000000000E+01 0.  1.
          5    1    3    3  503    0 -0.83921003045E+02  0.11155931172E+01 -0.37639157827E+03  0.38566395929E+03  0.47000000000E+01 0.  1.
         -5    1    4    4    0  502  0.42059803660E+02 -0.19315042857E+02 -0.29828595060E+02  0.55262401755E+02  0.47000000000E+01 0.  1.
<mgrwt>
<rscale>  0 0.15767542E+03</rscale>
<asrwt>0</asrwt>
<pdfrwt beam="1">  1        1 0.10384769E+00 0.16413147E+03</pdfrwt>
<pdfrwt beam="2">  1       -1 0.52981300E-02 0.16413147E+03</pdfrwt>
<totfact> 0.46902039E+03</totfact>
</mgrwt>
</event>
<event>
 8    1  0.6985133E-005  0.2422583E+03  0.7546771E-02  0.1120967E+00
          2   -1    0    0  501    0  0.00000000000E+00  0.00000000000E+00  0.17047124754E+04  0.17047124754E+04  0.00000000000E+00 0. -1.
         -2   -1    0    0    0  501 -0.00000000000E+00 -0.00000000000E+00 -0.39139513897E+02  0.39139513897E+02  0.00000000000E+00 0.  1.
         25    2    1    2    0    0  0.15205977143E+03  0.14125636392E+03  0.12216440503E+04  0.12454329600E+04  0.12495414281E+03 0.  0.
         23    2    1    2    0    0 -0.15205977143E+03 -0.14125636392E+03  0.44392891125E+03  0.49841902933E+03  0.90956671689E+02 0.  0.
          5    1    3    3  502    0 -0.17692527914E+02  0.26574835220E+02  0.95696428499E+02  0.10099081066E+03  0.47000000000E+01 0.  1.
         -5    1    4    4    0  503 -0.27501805059E+02 -0.36717966358E+02  0.33717452603E+02  0.57127182191E+02  0.47000000000E+01 0.  1.
          5    1    4    4  503    0 -0.12455796637E+03 -0.10453839757E+03  0.41021145865E+03  0.44129184714E+03  0.47000000000E+01 0. -1.
         -5    1    3    3    0  502  0.16975229934E+03  0.11468152870E+03  0.11259476218E+04  0.11444421493E+04  0.47000000000E+01 0.  1.
<mgrwt>
<rscale>  0 0.23824571E+03</rscale>
<asrwt>0</asrwt>
<pdfrwt beam="1">  1        2 0.26226340E+00 0.24225828E+03</pdfrwt>
<pdfrwt beam="2">  1       -2 0.60214650E-02 0.24225828E+03</pdfrwt>
<totfact> 0.15666371E+03</totfact>
</mgrwt>
</event>
<event>
 8    1  0.6985133E-005  0.2562080E+03  0.7546771E-02  0.1111810E+00
          1   -1    0    0  501    0  0.00000000000E+00  0.00000000000E+00  0.45867673930E+03  0.45867673930E+03  0.00000000000E+00 0. -1.
         -1   -1    0    0    0  501 -0.00000000000E+00 -0.00000000000E+00 -0.19698042941E+03  0.19698042941E+03  0.00000000000E+00 0.  1.
         25    2    1    2    0    0 -0.20911898341E+03  0.79360143537E+02 -0.50481891059E+02  0.26113402766E+03  0.12495510182E+03 0.  0.
         23    2    1    2    0    0  0.20911898341E+03 -0.79360143537E+02  0.31217820095E+03  0.39452314105E+03  0.90357612130E+02 0.  0.
          5    1    4    4  502    0  0.24795400018E+02 -0.32464855849E+02  0.10740982142E+03  0.11501190575E+03  0.47000000000E+01 0. -1.
         -5    1    3    3    0  503 -0.43567560077E+02  0.69372392252E+02  0.13785089960E+02  0.83203243946E+02  0.47000000000E+01 0.  1.
          5    1    3    3  503    0 -0.16555142333E+03  0.99877512849E+01 -0.64266981019E+02  0.17793078371E+03  0.47000000000E+01 0.  1.
         -5    1    4    4    0  502  0.18432358339E+03 -0.46895287689E+02  0.20476837953E+03  0.27951123530E+03  0.47000000000E+01 0.  1.
<mgrwt>
<rscale>  0 0.25237926E+03</rscale>
<asrwt>0</asrwt>
<pdfrwt beam="1">  1        1 0.70565651E-01 0.25620804E+03</pdfrwt>
<pdfrwt beam="2">  1       -1 0.30304682E-01 0.25620804E+03</pdfrwt>
<totfact> 0.51168207E+02</totfact>
</mgrwt>
</event>
<event>
 7    1  0.6985133E-005  0.1326035E+03  0.7546771E-02  0.1237531E+00
          1   -1    0    0  501    0  0.00000000000E+00  0.00000000000E+00  0.19984720622E+02  0.19984720622E+02  0.00000000000E+00 0. -1.
         -1   -1    0    0    0  501 -0.00000000000E+00 -0.00000000000E+00 -0.73170061534E+03  0.73170061534E+03  0.00000000000E+00 0.  1.
         23    2    1    2    0    0 -0.44716395972E+02 -0.28758892032E+01 -0.20493985206E+03  0.22784791047E+03  0.88918505022E+02 0.  0.
          5    1    1    2  502    0 -0.12224635855E+02  0.29634919874E+02 -0.34358557116E+02  0.47225741337E+02  0.47000000000E+01 0.  1.
         -5    1    1    2    0  502  0.56941031827E+02 -0.26759030671E+02 -0.47241748554E+03  0.47661168415E+03  0.47000000000E+01 0.  1.
          5    1    3    3  503    0 -0.43681381398E+02  0.37623954954E+02 -0.10444061132E+03  0.11938825889E+03  0.47000000000E+01 0. -1.
         -5    1    3    3    0  503 -0.10350145741E+01 -0.40499844157E+02 -0.10049924074E+03  0.10845965158E+03  0.47000000000E+01 0.  1.
<mgrwt>
<rscale>  0 0.12343808E+03</rscale>
<asrwt>0</asrwt>
<pdfrwt beam="1">  1        1 0.30745728E-02 0.13260351E+03</pdfrwt>
<pdfrwt beam="2">  1       -1 0.11256931E+00 0.13260351E+03</pdfrwt>
<totfact> 0.24446522E+03</totfact>
</mgrwt>
</event>
<event>
 8    1  0.6985133E-005  0.2019654E+03  0.7546771E-02  0.1152308E+00
         -2   -1    0    0    0  501 -0.00000000000E+00  0.00000000000E+00  0.75134934709E+02  0.75134934709E+02  0.00000000000E+00 0.  1.
          2   -1    0    0  501    0  0.00000000000E+00 -0.00000000000E+00 -0.51002298658E+03  0.51002298658E+03  0.00000000000E+00 0. -1.
         25    2    1    2    0    0 -0.15841492225E+03 -0.90284235186E+01 -0.28206883330E+03  0.34691905659E+03  0.12495281143E+03 0.  0.
         23    2    1    2    0    0  0.15841492225E+03  0.90284235186E+01 -0.15281921857E+03  0.23823886470E+03  0.90704151312E+02 0.  0.
          5    1    3    3  502    0 -0.10714046177E+03  0.27496064691E+02 -0.83823910538E+02  0.13886558285E+03  0.47000000000E+01 0.  1.
         -5    1    3    3    0  502 -0.51274460480E+02 -0.36524488209E+02 -0.19824492276E+03  0.20805347375E+03  0.47000000000E+01 0.  1.
          5    1    4    4  503    0  0.16817815568E+02  0.17766302594E+02 -0.69080426816E+02  0.73434840487E+02  0.47000000000E+01 0. -1.
         -5    1    4    4    0  503  0.14159710668E+03 -0.87378790754E+01 -0.83738791756E+02  0.16480402421E+03  0.47000000000E+01 0.  1.
<mgrwt>
<rscale>  0 0.19698472E+03</rscale>
<asrwt>0</asrwt>
<pdfrwt beam="1">  1        2 0.78465075E-01 0.20196536E+03</pdfrwt>
<pdfrwt beam="2">  1       -2 0.11559221E-01 0.20196536E+03</pdfrwt>
<totfact> 0.31574935E+03</totfact>
</mgrwt>
</event>
<event>
 8    1  0.9733058E-005  0.1901483E+03  0.7546771E-02  0.1163596E+00
         -1   -1    0    0    0  501 -0.00000000000E+00  0.00000000000E+00  0.85737636910E+02  0.85737636910E+02  0.00000000000E+00 0. -1.
          1   -1    0    0  501    0  0.00000000000E+00 -0.00000000000E+00 -0.81492035812E+03  0.81492035812E+03  0.00000000000E+00 0.  1.
         25    2    1    2    0    0 -0.11018804059E+03  0.91643562285E+02 -0.44065399662E+02  0.19518739331E+03  0.12496564433E+03 0.  0.
         23    2    1    2    0    0  0.11018804059E+03 -0.91643562285E+02 -0.68511732155E+03  0.70547060172E+03  0.88108335602E+02 0.  0.
          5    1    3    3  502    0 -0.12336106670E+03  0.41614007376E+02 -0.53247455688E+01  0.13038451328E+03  0.47000000000E+01 0.  1.
         -5    1    4    4    0  503  0.84332704199E+02 -0.51651772151E+02 -0.59740936365E+03  0.60555755163E+03  0.47000000000E+01 0.  1.
          5    1    4    4  503    0  0.25855336396E+02 -0.39991790135E+02 -0.87707957903E+02  0.99913050087E+02  0.47000000000E+01 0. -1.
         -5    1    3    3    0  502  0.13173026107E+02  0.50029554909E+02 -0.38740654093E+02  0.64802880035E+02  0.47000000000E+01 0.  1.
<mgrwt>
<rscale>  0 0.18441590E+03</rscale>
<asrwt>0</asrwt>
<pdfrwt beam="1">  1        1 0.12537237E+00 0.19014826E+03</pdfrwt>
<pdfrwt beam="2">  1       -1 0.13190405E-01 0.19014826E+03</pdfrwt>
<totfact> 0.88715853E+02</totfact>
</mgrwt>
</event>
<event>
 8    1  0.6985133E-005  0.1407244E+03  0.7546771E-02  0.1223583E+00
          4   -1    0    0  501    0  0.00000000000E+00  0.00000000000E+00  0.18327518943E+03  0.18327518943E+03  0.00000000000E+00 0. -1.
         -4   -1    0    0    0  501 -0.00000000000E+00 -0.00000000000E+00 -0.24592354126E+03  0.24592354126E+03  0.00000000000E+00 0.  1.
         25    2    1    2    0    0 -0.61334241544E+02  0.20874001065E+02 -0.20498781789E+03  0.24864306111E+03  0.12492298926E+03 0.  0.
         23    2    1    2    0    0  0.61334241544E+02 -0.20874001065E+02  0.14233946606E+03  0.18055566958E+03  0.90234212525E+02 0.  0.
          5    1    3    3  502    0  0.12348377324E+01 -0.46015861684E+02 -0.93147377593E+02  0.10400725120E+03  0.47000000000E+01 0. -1.
         -5    1    3    3    0  502 -0.62569079276E+02  0.66889862749E+02 -0.11184044030E+03  0.14463580990E+03  0.47000000000E+01 0.  1.
          5    1    4    4  503    0 -0.20767648213E+01 -0.40753738410E+02  0.76837211300E+02  0.87127648809E+02  0.47000000000E+01 0. -1.
         -5    1    4    4    0  503  0.63411006365E+02  0.19879737345E+02  0.65502254764E+02  0.93428020766E+02  0.47000000000E+01 0.  1.
<mgrwt>
<rscale>  0 0.13264496E+03</rscale>
<asrwt>0</asrwt>
<pdfrwt beam="1">  1        4 0.28196183E-01 0.14072443E+03</pdfrwt>
<pdfrwt beam="2">  1       -4 0.37834391E-01 0.14072443E+03</pdfrwt>
<totfact> 0.13671284E+02</totfact>
</mgrwt>
</event>
<event>
 7    1  0.6985133E-005  0.1445512E+03  0.7546771E-02  0.1216655E+00
         -2   -1    0    0    0  501 -0.00000000000E+00  0.00000000000E+00  0.29070304817E+02  0.29070304817E+02  0.00000000000E+00 0.  1.
          2   -1    0    0  501    0  0.00000000000E+00 -0.00000000000E+00 -0.65238131699E+03  0.65238131699E+03  0.00000000000E+00 0. -1.
         23    2    1    2    0    0  0.50990230516E+02  0.50361349868E+02 -0.18316383007E+03  0.21817568700E+03  0.94421250704E+02 0.  0.
          5    1    1    2  502    0  0.29572910126E+02 -0.17227981400E+02 -0.26868808884E+03  0.27089986977E+03  0.47000000000E+01 0. -1.
         -5    1    1    2    0  502 -0.80563140642E+02 -0.33133368468E+02 -0.17145909326E+03  0.19237606504E+03  0.47000000000E+01 0. -1.
          5    1    3    3  503    0  0.16036391605E+02  0.13440203962E+02 -0.16115421604E+03  0.16257483288E+03  0.47000000000E+01 0. -1.
         -5    1    3    3    0  503  0.34953838910E+02  0.36921145906E+02 -0.22009614031E+02  0.55600854124E+02  0.47000000000E+01 0.  1.
<mgrwt>
<rscale>  0 0.13755683E+03</rscale>
<asrwt>0</asrwt>
<pdfrwt beam="1">  1        2 0.10036636E+00 0.14455120E+03</pdfrwt>
<pdfrwt beam="2">  1       -2 0.44723546E-02 0.14455120E+03</pdfrwt>
<totfact> 0.10178030E+04</totfact>
</mgrwt>
</event>
<event>
 8    1  0.6985133E-005  0.2039732E+03  0.7546771E-02  0.1150467E+00
         -2   -1    0    0    0  501 -0.00000000000E+00  0.00000000000E+00  0.77266201939E+02  0.77266201939E+02  0.00000000000E+00 0.  1.
          2   -1    0    0  501    0  0.00000000000E+00 -0.00000000000E+00 -0.51326598778E+03  0.51326598778E+03  0.00000000000E+00 0. -1.
         25    2    1    2    0    0  0.13493573896E+03  0.88227673454E+02 -0.16564255091E+03  0.26275943955E+03  0.12495316077E+03 0.  0.
         23    2    1    2    0    0 -0.13493573896E+03 -0.88227673454E+02 -0.27035723493E+03  0.32777275017E+03  0.91379238679E+02 0.  0.
          5    1    4    4  502    0 -0.22670215530E+02  0.76064851136E+00 -0.16457018669E+01  0.23223169313E+02  0.47000000000E+01 0. -1.
         -5    1    3    3    0  503  0.90120942952E+01  0.60926903167E+02 -0.13310408402E+02  0.63186726019E+02  0.47000000000E+01 0.  1.
          5    1    3    3  503    0  0.12592364467E+03  0.27300770287E+02 -0.15233214250E+03  0.19957271353E+03  0.47000000000E+01 0.  1.
         -5    1    4    4    0  502 -0.11226552343E+03 -0.88988321965E+02 -0.26871153306E+03  0.30454958086E+03  0.47000000000E+01 0.  1.
<mgrwt>
<rscale>  0 0.19913974E+03</rscale>
<asrwt>0</asrwt>
<pdfrwt beam="1">  1        2 0.78964002E-01 0.20397321E+03</pdfrwt>
<pdfrwt beam="2">  1       -2 0.11887107E-01 0.20397321E+03</pdfrwt>
<totfact> 0.29982135E+03</totfact>
</mgrwt>
</event>
<event>
 7    1  0.6985133E-005  0.1342124E+03  0.7546771E-02  0.1234173E+00
          4   -1    0    0  501    0  0.00000000000E+00  0.00000000000E+00  0.23307473079E+03  0.23307473079E+03  0.00000000000E+00 0. -1.
         -4   -1    0    0    0  501 -0.00000000000E+00 -0.00000000000E+00 -0.66168224096E+02  0.66168224096E+02  0.00000000000E+00 0.  1.
         23    2    1    2    0    0  0.49055475902E+02  0.31714433015E+01  0.29136811899E+02  0.10690612634E+03  0.90351913503E+02 0.  0.
          5    1    1    2  502    0 -0.71913395562E+02 -0.11063392029E+01  0.23678430800E+02  0.75865133842E+02  0.47000000000E+01 0.  1.
         -5    1    1    2    0  502  0.22857919661E+02 -0.20651040986E+01  0.11409126399E+03  0.11647169470E+03  0.47000000000E+01 0.  1.
          5    1    3    3  503    0  0.30516564473E+02 -0.36975578401E+02  0.38251340815E+02  0.61511862104E+02  0.47000000000E+01 0. -1.
         -5    1    3    3    0  503  0.18538911428E+02  0.40147021703E+02 -0.91145289160E+01  0.45394264240E+02  0.47000000000E+01 0.  1.
<mgrwt>
<rscale>  0 0.12557553E+03</rscale>
<asrwt>0</asrwt>
<pdfrwt beam="1">  1        4 0.35857651E-01 0.13421239E+03</pdfrwt>
<pdfrwt beam="2">  1       -4 0.10179727E-01 0.13421239E+03</pdfrwt>
<totfact> 0.91515808E+02</totfact>
</mgrwt>
</event>
<event>
 8    1  0.6985133E-005  0.2169325E+03  0.7546771E-02  0.1139654E+00
         -2   -1    0    0    0  501 -0.00000000000E+00  0.00000000000E+00  0.59143004031E+03  0.59143004031E+03  0.00000000000E+00 0.  1.
          2   -1    0    0  501    0  0.00000000000E+00 -0.00000000000E+00 -0.74280374963E+02  0.74280374963E+02  0.00000000000E+00 0. -1.
         25    2    1    2    0    0  0.16751716510E+03 -0.57945033889E+02  0.23103420085E+03  0.31691722970E+03  0.12506038927E+03 0.  0.
         23    2    1    2    0    0 -0.16751716510E+03  0.57945033889E+02  0.28611546451E+03  0.34879318557E+03  0.91515024547E+02 0.  0.
          5    1    4    4  502    0 -0.76313194872E+02  0.22235510030E+02  0.52346374780E+02  0.95290894478E+02  0.47000000000E+01 0. -1.
         -5    1    3    3    0  503  0.24603748014E+02 -0.28473436189E+01  0.13217356260E+03  0.13455627979E+03  0.47000000000E+01 0. -1.
          5    1    3    3  503    0  0.14291341709E+03 -0.55097690270E+02  0.98860638249E+02  0.18236094991E+03  0.47000000000E+01 0. -1.
         -5    1    4    4    0  502 -0.91203970231E+02  0.35709523859E+02  0.23376908973E+03  0.25350229110E+03  0.47000000000E+01 0.  1.
<mgrwt>
<rscale>  0 0.21243281E+03</rscale>
<asrwt>0</asrwt>
<pdfrwt beam="1">  1        2 0.11427750E-01 0.21693254E+03</pdfrwt>
<pdfrwt beam="2">  1       -2 0.90989234E-01 0.21693254E+03</pdfrwt>
<totfact> 0.57652960E+02</totfact>
</mgrwt>
</event>
<event>
 8    1  0.6985133E-005  0.1271429E+03  0.7546771E-02  0.1247817E+00
         -1   -1    0    0    0  501 -0.00000000000E+00  0.00000000000E+00  0.16875042991E+03  0.16875042991E+03  0.00000000000E+00 0.  1.
          1   -1    0    0  501    0  0.00000000000E+00 -0.00000000000E+00 -0.72247916640E+02  0.72247916640E+02  0.00000000000E+00 0. -1.
         25    2    1    2    0    0  0.19493998620E+02  0.13121374823E+02  0.71661296975E+02  0.14594743515E+03  0.12495249450E+03 0.  0.
         23    2    1    2    0    0 -0.19493998620E+02 -0.13121374823E+02  0.24841216291E+02  0.95050911400E+02  0.88687108825E+02 0.  0.
          5    1    3    3  502    0 -0.18989734492E+02  0.44629764728E+02 -0.10445599501E+02  0.49835995673E+02  0.47000000000E+01 0. -1.
         -5    1    3    3    0  502  0.38483733112E+02 -0.31508389905E+02  0.82106896476E+02  0.96111439473E+02  0.47000000000E+01 0.  1.
          5    1    4    4  503    0 -0.27628217520E+02  0.28601151340E+02  0.32538811783E+02  0.51596594205E+02  0.47000000000E+01 0. -1.
         -5    1    4    4    0  503  0.81342188999E+01 -0.41722526163E+02 -0.76975954919E+01  0.43454317195E+02  0.47000000000E+01 0.  1.
<mgrwt>
<rscale>  0 0.11718378E+03</rscale>
<asrwt>0</asrwt>
<pdfrwt beam="1">  1        1 0.11115064E-01 0.12714288E+03</pdfrwt>
<pdfrwt beam="2">  1       -1 0.25961605E-01 0.12714288E+03</pdfrwt>
<totfact> 0.68509281E+03</totfact>
</mgrwt>
</event>
<event>
 7    1  0.6985133E-005  0.1371249E+03  0.7546771E-02  0.1228640E+00
          4   -1    0    0  501    0  0.00000000000E+00  0.00000000000E+00  0.11183228742E+03  0.11183228742E+03  0.00000000000E+00 0. -1.
         -4   -1    0    0    0  501 -0.00000000000E+00 -0.00000000000E+00 -0.14762687128E+03  0.14762687128E+03  0.00000000000E+00 0.  1.
         23    2    1    2    0    0 -0.40974916087E+02  0.36782508362E+02  0.22591830332E+02  0.11042157230E+03  0.93008796153E+02 0.  0.
          5    1    3    3  502    0 -0.17944142108E+02  0.24119022699E+02  0.58343114235E+02  0.65800672266E+02  0.47000000000E+01 0. -1.
         -5    1    3    3    0  502 -0.23030773979E+02  0.12663485663E+02 -0.35751283903E+02  0.44620900035E+02  0.47000000000E+01 0.  1.
          5    1    1    2  503    0  0.77484859509E+02 -0.25598063326E+02 -0.32477416158E+01  0.81803435898E+02  0.47000000000E+01 0. -1.
         -5    1    1    2    0  503 -0.36509943421E+02 -0.11184445036E+02 -0.55138672584E+02  0.67234150502E+02  0.47000000000E+01 0. -1.
<mgrwt>
<rscale>  0 0.12920499E+03</rscale>
<asrwt>0</asrwt>
<pdfrwt beam="1">  1        4 0.17204967E-01 0.13712487E+03</pdfrwt>
<pdfrwt beam="2">  1       -4 0.22711826E-01 0.13712487E+03</pdfrwt>
<totfact> 0.87588759E+02</totfact>
</mgrwt>
</event>
<event>
 7    1  0.6985133E-005  0.1270285E+03  0.7546771E-02  0.1247067E+00
          1   -1    0    0  501    0  0.00000000000E+00  0.00000000000E+00  0.16082867317E+03  0.16082867317E+03  0.00000000000E+00 0. -1.
         -1   -1    0    0    0  501 -0.00000000000E+00 -0.00000000000E+00 -0.99335461627E+02  0.99335461627E+02  0.00000000000E+00 0.  1.
         23    2    1    2    0    0  0.21376049599E+02  0.92070172299E+01  0.90303543120E+02  0.12990947327E+03  0.90443555227E+02 0.  0.
          5    1    1    2  502    0  0.20728400404E+02  0.14897060637E+02 -0.64707922560E+02  0.69719396447E+02  0.47000000000E+01 0. -1.
         -5    1    1    2    0  502 -0.42104450003E+02 -0.24104077867E+02  0.35897590978E+02  0.60535265077E+02  0.47000000000E+01 0.  1.
          5    1    3    3  503    0  0.23571291461E+02  0.39167164440E+02  0.88172306134E+02  0.99428960170E+02  0.47000000000E+01 0. -1.
         -5    1    3    3    0  503 -0.21952418614E+01 -0.29960147210E+02  0.21312369861E+01  0.30480513099E+02  0.47000000000E+01 0.  1.
<mgrwt>
<rscale>  0 0.11762545E+03</rscale>
<asrwt>0</asrwt>
<pdfrwt beam="1">  1        1 0.24742873E-01 0.12702851E+03</pdfrwt>
<pdfrwt beam="2">  1       -1 0.15282379E-01 0.12702851E+03</pdfrwt>
<totfact> 0.57358569E+03</totfact>
</mgrwt>
</event>
<event>
 8    1  0.6985133E-005  0.1945822E+03  0.7546771E-02  0.1159144E+00
         -2   -1    0    0    0  501 -0.00000000000E+00  0.00000000000E+00  0.29779544927E+02  0.29779544927E+02  0.00000000000E+00 0.  1.
          2   -1    0    0  501    0  0.00000000000E+00 -0.00000000000E+00 -0.11537884042E+04  0.11537884042E+04  0.00000000000E+00 0. -1.
         25    2    1    2    0    0  0.59678395159E+02 -0.13661890377E+03 -0.53086138110E+03  0.56539899274E+03  0.12504390961E+03 0.  0.
         23    2    1    2    0    0 -0.59678395159E+02  0.13661890377E+03 -0.59314747815E+03  0.61816895636E+03  0.89903793366E+02 0.  0.
          5    1    4    4  502    0  0.22872366170E+02  0.44086925764E+02 -0.18034604615E+03  0.18711918266E+03  0.47000000000E+01 0. -1.
         -5    1    4    4    0  502 -0.82550761328E+02  0.92531978007E+02 -0.41280143200E+03  0.43104977371E+03  0.47000000000E+01 0.  1.
          5    1    3    3  503    0  0.89703390347E+02 -0.13642100389E+03 -0.46529034759E+03  0.49312735282E+03  0.47000000000E+01 0. -1.
         -5    1    3    3    0  503 -0.30024995188E+02 -0.19789988009E+00 -0.65571033509E+02  0.72271639914E+02  0.47000000000E+01 0. -1.
<mgrwt>
<rscale>  0 0.18924464E+03</rscale>
<asrwt>0</asrwt>
<pdfrwt beam="1">  1        2 0.17750589E+00 0.19458216E+03</pdfrwt>
<pdfrwt beam="2">  1       -2 0.45814689E-02 0.19458216E+03</pdfrwt>
<totfact> 0.47096921E+03</totfact>
</mgrwt>
</event>
<event>
 7    1  0.6985133E-005  0.1329891E+03  0.7546771E-02  0.1235662E+00
          2   -1    0    0  501    0  0.00000000000E+00  0.00000000000E+00  0.24036319839E+02  0.24036319839E+02  0.00000000000E+00 0. -1.
         -2   -1    0    0    0  501 -0.00000000000E+00 -0.00000000000E+00 -0.70760738530E+03  0.70760738530E+03  0.00000000000E+00 0.  1.
         23    2    1    2    0    0 -0.32200403174E+01  0.45776949118E+02 -0.14968021569E+03  0.18143870956E+03  0.91705728436E+02 0.  0.
          5    1    3    3  502    0  0.30494310900E+02 -0.80388176259E+01 -0.21931186080E+02  0.38698740405E+02  0.47000000000E+01 0. -1.
         -5    1    1    2    0  503  0.56754222639E+02 -0.78448722928E+01 -0.14845688160E+03  0.15919836527E+03  0.47000000000E+01 0.  1.
          5    1    1    2  503    0 -0.53534182322E+02 -0.37932076826E+02 -0.38543396816E+03  0.39100663031E+03  0.47000000000E+01 0.  1.
         -5    1    3    3    0  502 -0.33714351217E+02  0.53815766744E+02 -0.12774902961E+03  0.14273996916E+03  0.47000000000E+01 0.  1.
<mgrwt>
<rscale>  0 0.12462136E+03</rscale>
<asrwt>0</asrwt>
<pdfrwt beam="1">  1        2 0.36978951E-02 0.13298909E+03</pdfrwt>
<pdfrwt beam="2">  1       -2 0.10886268E+00 0.13298909E+03</pdfrwt>
<totfact> 0.15903540E+03</totfact>
</mgrwt>
</event>
<event>
 8    1  0.6985133E-005  0.1940917E+03  0.7546771E-02  0.1159403E+00
          1   -1    0    0  501    0  0.00000000000E+00  0.00000000000E+00  0.43851770385E+03  0.43851770385E+03  0.00000000000E+00 0. -1.
         -1   -1    0    0    0  501 -0.00000000000E+00 -0.00000000000E+00 -0.77404743699E+02  0.77404743699E+02  0.00000000000E+00 0.  1.
         25    2    1    2    0    0 -0.14112357957E+03 -0.46320314484E+02  0.19276641091E+03  0.27355160076E+03  0.12494059731E+03 0.  0.
         23    2    1    2    0    0  0.14112357957E+03  0.46320314484E+02  0.16834654924E+03  0.24237084680E+03  0.91332527011E+02 0.  0.
          5    1    4    4  502    0  0.95163609527E+02  0.16293364848E+02  0.15958680476E+03  0.18657873558E+03  0.47000000000E+01 0. -1.
         -5    1    3    3    0  503 -0.52977946097E+02 -0.71119127036E+02  0.44766969262E+02  0.99452322949E+02  0.47000000000E+01 0. -1.
          5    1    3    3  503    0 -0.88145633474E+02  0.24798812552E+02  0.14799944165E+03  0.17409927781E+03  0.47000000000E+01 0. -1.
         -5    1    4    4    0  502  0.45959970044E+02  0.30026949636E+02  0.87597444830E+01  0.55792111219E+02  0.47000000000E+01 0.  1.
<mgrwt>
<rscale>  0 0.18896001E+03</rscale>
<asrwt>0</asrwt>
<pdfrwt beam="1">  1        1 0.67464261E-01 0.19409170E+03</pdfrwt>
<pdfrwt beam="2">  1       -1 0.11908422E-01 0.19409170E+03</pdfrwt>
<totfact> 0.24624283E+03</totfact>
</mgrwt>
</event>
<event>
 8    1  0.7560801E-005  0.2315441E+03  0.7546771E-02  0.1128671E+00
         -2   -1    0    0    0  501 -0.00000000000E+00  0.00000000000E+00  0.98510808495E+02  0.98510808495E+02  0.00000000000E+00 0.  1.
          2   -1    0    0  501    0  0.00000000000E+00 -0.00000000000E+00 -0.50736812452E+03  0.50736812452E+03  0.00000000000E+00 0. -1.
         25    2    1    2    0    0  0.11247253726E+02  0.19461764614E+03 -0.19033133803E+03  0.29973100820E+03  0.12494050638E+03 0.  0.
         23    2    1    2    0    0 -0.11247253726E+02 -0.19461764614E+03 -0.21852597799E+03  0.30614792482E+03  0.89277208217E+02 0.  0.
          5    1    3    3  502    0  0.46414416097E+02  0.12175288157E+03 -0.17337740574E+03  0.21693288597E+03  0.47000000000E+01 0.  1.
         -5    1    3    3    0  502 -0.35167162371E+02  0.72864764565E+02 -0.16953932287E+02  0.82798122227E+02  0.47000000000E+01 0.  1.
          5    1    4    4  503    0 -0.47470636115E+02 -0.78910270800E+02 -0.10811755175E+03  0.14209780832E+03  0.47000000000E+01 0. -1.
         -5    1    4    4    0  503  0.36223382389E+02 -0.11570737534E+03 -0.11040842624E+03  0.16405011650E+03  0.47000000000E+01 0.  1.
<mgrwt>
<rscale>  0 0.22713709E+03</rscale>
<asrwt>0</asrwt>
<pdfrwt beam="1">  1        2 0.78056637E-01 0.23154408E+03</pdfrwt>
<pdfrwt beam="2">  1       -2 0.15155509E-01 0.23154408E+03</pdfrwt>
<totfact> 0.20499133E+03</totfact>
</mgrwt>
</event>
<event>
 8    1  0.6985133E-005  0.1759682E+03  0.7546771E-02  0.1177958E+00
         -4   -1    0    0    0  501 -0.00000000000E+00  0.00000000000E+00  0.32377798501E+02  0.32377798501E+02  0.00000000000E+00 0.  1.
          4   -1    0    0  501    0  0.00000000000E+00 -0.00000000000E+00 -0.94396131726E+03  0.94396131726E+03  0.00000000000E+00 0. -1.
         25    2    1    2    0    0 -0.11621925705E+03  0.42655502013E+02 -0.31866501272E+03  0.36402223816E+03  0.12505355645E+03 0.  0.
         23    2    1    2    0    0  0.11621925705E+03 -0.42655502013E+02 -0.59291850604E+03  0.61231687760E+03  0.89739602361E+02 0.  0.
          5    1    3    3  502    0 -0.13930201870E+03  0.15975614278E+02 -0.24959092827E+03  0.28631799479E+03  0.47000000000E+01 0.  1.
         -5    1    4    4    0  503  0.10237420087E+03 -0.62714835987E+02 -0.39559348954E+03  0.41343672627E+03  0.47000000000E+01 0.  1.
          5    1    4    4  503    0  0.13845056174E+02  0.20059333974E+02 -0.19732501650E+03  0.19888015134E+03  0.47000000000E+01 0. -1.
         -5    1    3    3    0  502  0.23082761653E+02  0.26679887735E+02 -0.69074084450E+02  0.77704243370E+02  0.47000000000E+01 0.  1.
<mgrwt>
<rscale>  0 0.16989486E+03</rscale>
<asrwt>0</asrwt>
<pdfrwt beam="1">  1        4 0.14522482E+00 0.17596818E+03</pdfrwt>
<pdfrwt beam="2">  1       -4 0.49811997E-02 0.17596818E+03</pdfrwt>
<totfact> 0.14494089E+02</totfact>
</mgrwt>
</event>
<event>
 7    1  0.6985133E-005  0.1292462E+03  0.7546771E-02  0.1241634E+00
         -2   -1    0    0    0  501 -0.00000000000E+00  0.00000000000E+00  0.33138652992E+03  0.33138652992E+03  0.00000000000E+00 0.  1.
          2   -1    0    0  501    0  0.00000000000E+00 -0.00000000000E+00 -0.39372233924E+02  0.39372233924E+02  0.00000000000E+00 0. -1.
         23    2    1    2    0    0 -0.19321722088E+02 -0.26042957599E+02  0.13566303816E+03  0.16790337560E+03  0.93463998573E+02 0.  0.
          5    1    1    2  502    0 -0.44215046020E+02  0.36495460691E+01  0.11577013489E+03  0.12406894702E+03  0.47000000000E+01 0. -1.
         -5    1    3    3    0  503 -0.15201787716E+02 -0.56673894487E+02  0.11831669979E+03  0.13215126225E+03  0.47000000000E+01 0.  1.
          5    1    3    3  503    0 -0.41199343725E+01  0.30630936888E+02  0.17346338376E+02  0.35752113349E+02  0.47000000000E+01 0. -1.
         -5    1    1    2    0  502  0.63536768108E+02  0.22393411530E+02  0.40581122936E+02  0.78786441222E+02  0.47000000000E+01 0. -1.
<mgrwt>
<rscale>  0 0.12089132E+03</rscale>
<asrwt>0</asrwt>
<pdfrwt beam="1">  1        2 0.60572670E-02 0.12924625E+03</pdfrwt>
<pdfrwt beam="2">  1       -2 0.50982541E-01 0.12924625E+03</pdfrwt>
<totfact> 0.42717530E+03</totfact>
</mgrwt>
</event>
<event>
 7    1  0.6985133E-005  0.1256102E+03  0.7546771E-02  0.1250229E+00
         -1   -1    0    0    0  501 -0.00000000000E+00  0.00000000000E+00  0.87564203284E+02  0.87564203284E+02  0.00000000000E+00 0.  1.
          1   -1    0    0  501    0  0.00000000000E+00 -0.00000000000E+00 -0.29152302058E+03  0.29152302058E+03  0.00000000000E+00 0. -1.
         23    2    1    2    0    0  0.79825476920E+01 -0.70437576888E+01  0.44264508659E+02  0.10089170431E+03  0.90035846653E+02 0.  0.
          5    1    1    2  502    0  0.50040248618E+02 -0.22175336575E+02 -0.73756690315E+02  0.91966903830E+02  0.47000000000E+01 0.  1.
         -5    1    1    2    0  502 -0.58022796310E+02  0.29219094263E+02 -0.17446663564E+03  0.18622861572E+03  0.47000000000E+01 0.  1.
          5    1    3    3  503    0 -0.25107425746E+02  0.84266871282E+01 -0.15237747172E+02  0.30913926027E+02  0.47000000000E+01 0. -1.
         -5    1    3    3    0  503  0.33089973438E+02 -0.15470444817E+02  0.59502255831E+02  0.69977778287E+02  0.47000000000E+01 0.  1.
<mgrwt>
<rscale>  0 0.11577807E+03</rscale>
<asrwt>0</asrwt>
<pdfrwt beam="1">  1        1 0.44849695E-01 0.12561022E+03</pdfrwt>
<pdfrwt beam="2">  1       -1 0.13471416E-01 0.12561022E+03</pdfrwt>
<totfact> 0.33393790E+03</totfact>
</mgrwt>
</event>
<event>
 8    1  0.6985133E-005  0.1369534E+03  0.7546771E-02  0.1229954E+00
         -2   -1    0    0    0  501 -0.00000000000E+00  0.00000000000E+00  0.25935970925E+02  0.25935970925E+02  0.00000000000E+00 0.  1.
          2   -1    0    0  501    0  0.00000000000E+00 -0.00000000000E+00 -0.57789827856E+03  0.57789827856E+03  0.00000000000E+00 0. -1.
         25    2    1    2    0    0 -0.76881767714E+01 -0.55280748885E+02 -0.26993035740E+03  0.30268570458E+03  0.12506465787E+03 0.  0.
         23    2    1    2    0    0  0.76881767714E+01  0.55280748885E+02 -0.28203195023E+03  0.30114854490E+03  0.89628990222E+02 0.  0.
          5    1    3    3  502    0  0.23914718688E+02 -0.84467624095E+02 -0.21817993094E+03  0.23522598827E+03  0.47000000000E+01 0. -1.
         -5    1    3    3    0  502 -0.31602895459E+02  0.29186875209E+02 -0.51750426459E+02  0.67459716310E+02  0.47000000000E+01 0. -1.
          5    1    4    4  503    0 -0.16429718915E+02  0.46081617237E+02 -0.26577931582E+03  0.27028537850E+03  0.47000000000E+01 0. -1.
         -5    1    4    4    0  503  0.24117895687E+02  0.91991316479E+01 -0.16252634407E+02  0.30863166406E+02  0.47000000000E+01 0.  1.
<mgrwt>
<rscale>  0 0.12833093E+03</rscale>
<asrwt>0</asrwt>
<pdfrwt beam="1">  1        2 0.88907415E-01 0.13695342E+03</pdfrwt>
<pdfrwt beam="2">  1       -2 0.39901499E-02 0.13695342E+03</pdfrwt>
<totfact> 0.13812940E+04</totfact>
</mgrwt>
</event>
<event>
 8    1  0.6985133E-005  0.1397644E+03  0.7546771E-02  0.1224926E+00
          1   -1    0    0  501    0  0.00000000000E+00  0.00000000000E+00  0.16804742202E+03  0.16804742202E+03  0.00000000000E+00 0. -1.
         -1   -1    0    0    0  501 -0.00000000000E+00 -0.00000000000E+00 -0.11007616146E+03  0.11007616146E+03  0.00000000000E+00 0.  1.
         25    2    1    2    0    0  0.83349620557E+01 -0.62033225031E+02  0.86329346667E+02  0.16427672006E+03  0.12496596359E+03 0.  0.
         23    2    1    2    0    0 -0.83349620557E+01  0.62033225031E+02 -0.28358086112E+02  0.11384686343E+03  0.90770780891E+02 0.  0.
          5    1    3    3  502    0 -0.50982561450E+02 -0.27746826996E+02  0.74550785672E+02  0.94599247485E+02  0.47000000000E+01 0. -1.
         -5    1    3    3    0  502  0.59317523506E+02 -0.34286398035E+02  0.11778560995E+02  0.69677472574E+02  0.47000000000E+01 0. -1.
          5    1    4    4  503    0 -0.26196891729E+02  0.79631524583E+02 -0.15891516620E+02  0.85452250667E+02  0.47000000000E+01 0. -1.
         -5    1    4    4    0  503  0.17861929674E+02 -0.17598299551E+02 -0.12466569492E+02  0.28394612758E+02  0.47000000000E+01 0.  1.
<mgrwt>
<rscale>  0 0.13171959E+03</rscale>
<asrwt>0</asrwt>
<pdfrwt beam="1">  1        1 0.25853449E-01 0.13976439E+03</pdfrwt>
<pdfrwt beam="2">  1       -1 0.16934794E-01 0.13976439E+03</pdfrwt>
<totfact> 0.46458994E+03</totfact>
</mgrwt>
</event>
<event>
 8    1  0.6985133E-005  0.1315211E+03  0.7546771E-02  0.1238183E+00
          1   -1    0    0  501    0  0.00000000000E+00  0.00000000000E+00  0.48944124745E+02  0.48944124745E+02  0.00000000000E+00 0. -1.
         -1   -1    0    0    0  501 -0.00000000000E+00 -0.00000000000E+00 -0.28521190768E+03  0.28521190768E+03  0.00000000000E+00 0.  1.
         25    2    1    2    0    0  0.31423896283E+02 -0.26538306379E+02 -0.10263536261E+03  0.16682874527E+03  0.12492425556E+03 0.  0.
         23    2    1    2    0    0 -0.31423896283E+02  0.26538306379E+02 -0.13363242032E+03  0.16732728715E+03  0.91918737490E+02 0.  0.
          5    1    3    3  502    0 -0.35960657477E+02  0.18944904819E+02 -0.65724451068E+02  0.77420099283E+02  0.47000000000E+01 0. -1.
         -5    1    3    3    0  502  0.67384553760E+02 -0.45483211198E+02 -0.36910911543E+02  0.89408645987E+02  0.47000000000E+01 0. -1.
          5    1    4    4  503    0 -0.42007531716E+02  0.23128238939E-01 -0.14431883201E+02  0.44665450949E+02  0.47000000000E+01 0. -1.
         -5    1    4    4    0  503  0.10583635433E+02  0.26515178140E+02 -0.11920053712E+03  0.12266183621E+03  0.47000000000E+01 0.  1.
<mgrwt>
<rscale>  0 0.12302849E+03</rscale>
<asrwt>0</asrwt>
<pdfrwt beam="1">  1        1 0.75298655E-02 0.13152115E+03</pdfrwt>
<pdfrwt beam="2">  1       -1 0.43878754E-01 0.13152115E+03</pdfrwt>
<totfact> 0.47043949E+03</totfact>
</mgrwt>
</event>
<event>
 8    1  0.6985133E-005  0.1705875E+03  0.7546771E-02  0.1183457E+00
          1   -1    0    0  501    0  0.00000000000E+00  0.00000000000E+00  0.66417735636E+02  0.66417735636E+02  0.00000000000E+00 0. -1.
         -1   -1    0    0    0  501 -0.00000000000E+00 -0.00000000000E+00 -0.38638843693E+03  0.38638843693E+03  0.00000000000E+00 0.  1.
         25    2    1    2    0    0  0.11530276194E+03  0.13839977488E+02 -0.19263386004E+03  0.25730893776E+03  0.12495524610E+03 0.  0.
         23    2    1    2    0    0 -0.11530276194E+03 -0.13839977488E+02 -0.12733684126E+03  0.19549723481E+03  0.92294234863E+02 0.  0.
          5    1    4    4  502    0 -0.60981865123E+02 -0.32306291159E+02 -0.17283181127E+02  0.71297143506E+02  0.47000000000E+01 0. -1.
         -5    1    4    4    0  502 -0.54320896817E+02  0.18466313670E+02 -0.11005366013E+03  0.12420009130E+03  0.47000000000E+01 0.  1.
          5    1    3    3  503    0  0.64087016505E+02  0.67103752735E+02 -0.80482352660E+02  0.12292094372E+03  0.47000000000E+01 0. -1.
         -5    1    3    3    0  503  0.51215745435E+02 -0.53263775246E+02 -0.11215150738E+03  0.13438799404E+03  0.47000000000E+01 0. -1.
<mgrwt>
<rscale>  0 0.16473060E+03</rscale>
<asrwt>0</asrwt>
<pdfrwt beam="1">  1        1 0.10218113E-01 0.17058747E+03</pdfrwt>
<pdfrwt beam="2">  1       -1 0.59444376E-01 0.17058747E+03</pdfrwt>
<totfact> 0.18123048E+03</totfact>
</mgrwt>
</event>
<event>
 8    1  0.6985133E-005  0.1272903E+03  0.7546771E-02  0.1245930E+00
         -2   -1    0    0    0  501 -0.00000000000E+00  0.00000000000E+00  0.11476405604E+03  0.11476405604E+03  0.00000000000E+00 0.  1.
          2   -1    0    0  501    0  0.00000000000E+00 -0.00000000000E+00 -0.15130781206E+03  0.15130781206E+03  0.00000000000E+00 0. -1.
         25    2    1    2    0    0  0.22909981219E+02  0.81515075649E+01  0.50799438758E+02  0.13705251855E+03  0.12494597051E+03 0.  0.
         23    2    1    2    0    0 -0.22909981219E+02 -0.81515075649E+01 -0.87343194782E+02  0.12901934955E+03  0.91792399296E+02 0.  0.
          5    1    4    4  502    0  0.19981713761E+02  0.22743086444E+02 -0.64177302534E+02  0.71114928295E+02  0.47000000000E+01 0. -1.
         -5    1    4    4    0  502 -0.42891694980E+02 -0.30894594009E+02 -0.23165892248E+02  0.57904421256E+02  0.47000000000E+01 0.  1.
          5    1    3    3  503    0 -0.39272726057E+02 -0.11495236356E+02  0.58148686839E+02  0.71259015233E+02  0.47000000000E+01 0. -1.
         -5    1    3    3    0  503  0.62182707276E+02  0.19646743920E+02 -0.73492480819E+01  0.65793503313E+02  0.47000000000E+01 0. -1.
<mgrwt>
<rscale>  0 0.11829873E+03</rscale>
<asrwt>0</asrwt>
<pdfrwt beam="1">  1        2 0.23278125E-01 0.12729026E+03</pdfrwt>
<pdfrwt beam="2">  1       -2 0.17656009E-01 0.12729026E+03</pdfrwt>
<totfact> 0.57524836E+03</totfact>
</mgrwt>
</event>
<event>
 7    1  0.6985133E-005  0.1470915E+03  0.7546771E-02  0.1213608E+00
          1   -1    0    0  501    0  0.00000000000E+00  0.00000000000E+00  0.65540577561E+03  0.65540577561E+03  0.00000000000E+00 0. -1.
         -1   -1    0    0    0  501 -0.00000000000E+00 -0.00000000000E+00 -0.27407334421E+02  0.27407334421E+02  0.00000000000E+00 0.  1.
         23    2    1    2    0    0 -0.50921448625E+02 -0.58766261135E+02  0.31112657481E+03  0.33346560229E+03  0.91395267817E+02 0.  0.
          5    1    3    3  502    0 -0.61675445138E+02 -0.32604341554E+02  0.28874656180E+03  0.29709185545E+03  0.47000000000E+01 0. -1.
         -5    1    1    2    0  503  0.51341119673E+02  0.94916091734E+02  0.26281917232E+03  0.28414957748E+03  0.47000000000E+01 0.  1.
          5    1    1    2  503    0 -0.41967104762E+00 -0.36149830600E+02  0.54052694052E+02  0.65197930262E+02  0.47000000000E+01 0.  1.
         -5    1    3    3    0  502  0.10753996513E+02 -0.26161919581E+02  0.22380013014E+02  0.36373746847E+02  0.47000000000E+01 0.  1.
<mgrwt>
<rscale>  0 0.13979263E+03</rscale>
<asrwt>0</asrwt>
<pdfrwt beam="1">  1        1 0.10083165E+00 0.14709147E+03</pdfrwt>
<pdfrwt beam="2">  1       -1 0.42165135E-02 0.14709147E+03</pdfrwt>
<totfact> 0.68218169E+03</totfact>
</mgrwt>
</event>
<event>
 8    1  0.6985133E-005  0.1977601E+03  0.7546771E-02  0.1155867E+00
         -3   -1    0    0    0  501 -0.00000000000E+00  0.00000000000E+00  0.82539752464E+03  0.82539752464E+03  0.00000000000E+00 0.  1.
          3   -1    0    0  501    0  0.00000000000E+00 -0.00000000000E+00 -0.51598757168E+02  0.51598757168E+02  0.00000000000E+00 0. -1.
         25    2    1    2    0    0 -0.97961564665E+02 -0.11787966279E+03  0.58169850874E+03  0.61439582322E+03  0.12496795380E+03 0.  0.
         23    2    1    2    0    0  0.97961564665E+02  0.11787966279E+03  0.19210025873E+03  0.26260045858E+03  0.92544088901E+02 0.  0.
          5    1    3    3  502    0  0.21638569194E+02 -0.76648254274E+01  0.17171147056E+03  0.17330290346E+03  0.47000000000E+01 0.  1.
         -5    1    4    4    0  503  0.84472536397E+02  0.65501803548E+02  0.17600242659E+03  0.20597339595E+03  0.47000000000E+01 0.  1.
          5    1    4    4  503    0  0.13489028268E+02  0.52377859243E+02  0.16097832141E+02  0.56627062630E+02  0.47000000000E+01 0. -1.
         -5    1    3    3    0  502 -0.11960013386E+03 -0.11021483736E+03  0.40998703818E+03  0.44109291977E+03  0.47000000000E+01 0.  1.
<mgrwt>
<rscale>  0 0.19290504E+03</rscale>
<asrwt>0</asrwt>
<pdfrwt beam="1">  1        3 0.79382709E-02 0.19776014E+03</pdfrwt>
<pdfrwt beam="2">  1       -3 0.12698423E+00 0.19776014E+03</pdfrwt>
<totfact> 0.13609227E+02</totfact>
</mgrwt>
</event>
<event>
 7    1  0.6985133E-005  0.1305214E+03  0.7546771E-02  0.1241133E+00
         -1   -1    0    0    0  501 -0.00000000000E+00  0.00000000000E+00  0.52159328104E+02  0.52159328104E+02  0.00000000000E+00 0.  1.
          1   -1    0    0  501    0  0.00000000000E+00 -0.00000000000E+00 -0.24878973577E+03  0.24878973577E+03  0.00000000000E+00 0. -1.
         23    2    1    2    0    0 -0.26629367356E+02  0.27096787814E+02 -0.91152845042E+02  0.13313560267E+03  0.89291032155E+02 0.  0.
          5    1    3    3  502    0 -0.51319809049E+02  0.11325087711E+01 -0.23963374760E+02  0.56844865264E+02  0.47000000000E+01 0. -1.
         -5    1    1    2    0  503  0.34197451316E+02  0.45291342150E+02 -0.54553445197E+02  0.78860254458E+02  0.47000000000E+01 0.  1.
          5    1    1    2  503    0 -0.75680839603E+01 -0.72388129964E+02 -0.50924117425E+02  0.88953206744E+02  0.47000000000E+01 0.  1.
         -5    1    3    3    0  502  0.24690441693E+02  0.25964279043E+02 -0.67189470282E+02  0.76290737406E+02  0.47000000000E+01 0.  1.
<mgrwt>
<rscale>  0 0.12119818E+03</rscale>
<asrwt>0</asrwt>
<pdfrwt beam="1">  1        1 0.38275345E-01 0.13052142E+03</pdfrwt>
<pdfrwt beam="2">  1       -1 0.80245119E-02 0.13052142E+03</pdfrwt>
<totfact> 0.89829843E+03</totfact>
</mgrwt>
</event>
<event>
 7    1  0.6985133E-005  0.1325202E+03  0.7546771E-02  0.1237050E+00
          1   -1    0    0  501    0  0.00000000000E+00  0.00000000000E+00  0.60611001139E+02  0.60611001139E+02  0.00000000000E+00 0. -1.
         -1   -1    0    0    0  501 -0.00000000000E+00 -0.00000000000E+00 -0.28135887894E+03  0.28135887894E+03  0.00000000000E+00 0.  1.
         23    2    1    2    0    0  0.21856270891E+02 -0.39437574017E+02 -0.22038140320E+02  0.10312437830E+03  0.90088506199E+02 0.  0.
          5    1    3    3  502    0  0.49024457980E+02  0.84378044810E+00 -0.22862261172E+02  0.54303613430E+02  0.47000000000E+01 0. -1.
         -5    1    1    2    0  503  0.22340677241E+02 -0.22989706331E+02 -0.80838238029E+01  0.33392673808E+02  0.47000000000E+01 0. -1.
          5    1    1    2  503    0 -0.44196948132E+02  0.62427280347E+02 -0.19062591368E+03  0.20545282797E+03  0.47000000000E+01 0. -1.
         -5    1    3    3    0  502 -0.27168187089E+02 -0.40281354465E+02  0.82412085190E+00  0.48820764869E+02  0.47000000000E+01 0.  1.
<mgrwt>
<rscale>  0 0.12374120E+03</rscale>
<asrwt>0</asrwt>
<pdfrwt beam="1">  1        1 0.93247692E-02 0.13252024E+03</pdfrwt>
<pdfrwt beam="2">  1       -1 0.43285982E-01 0.13252024E+03</pdfrwt>
<totfact> 0.36231764E+03</totfact>
</mgrwt>
</event>
<event>
 7    1  0.6985133E-005  0.1277608E+03  0.7546771E-02  0.1245567E+00
         -2   -1    0    0    0  501 -0.00000000000E+00  0.00000000000E+00  0.22017988682E+02  0.22017988682E+02  0.00000000000E+00 0.  1.
          2   -1    0    0  501    0  0.00000000000E+00 -0.00000000000E+00 -0.56429296500E+03  0.56429296500E+03  0.00000000000E+00 0. -1.
         23    2    1    2    0    0  0.21597743318E+01  0.25791143006E+02 -0.21024404603E+03  0.23054790178E+03  0.90994112129E+02 0.  0.
          5    1    1    2  502    0  0.41983658552E+02 -0.57544932225E+02 -0.15810954488E+03  0.17347842803E+03  0.47000000000E+01 0.  1.
         -5    1    3    3    0  503 -0.40848108666E+02  0.10487531160E+02 -0.60269080374E+02  0.73708943423E+02  0.47000000000E+01 0.  1.
          5    1    3    3  503    0  0.43007882998E+02  0.15303611846E+02 -0.14997496566E+03  0.15683895836E+03  0.47000000000E+01 0. -1.
         -5    1    1    2    0  502 -0.44143432884E+02  0.31753789220E+02 -0.17392138540E+03  0.18228462386E+03  0.47000000000E+01 0.  1.
<mgrwt>
<rscale>  0 0.11851536E+03</rscale>
<asrwt>0</asrwt>
<pdfrwt beam="1">  1        2 0.86814297E-01 0.12776075E+03</pdfrwt>
<pdfrwt beam="2">  1       -2 0.33873831E-02 0.12776075E+03</pdfrwt>
<totfact> 0.17979761E+04</totfact>
</mgrwt>
</event>
<event>
 8    1  0.6985133E-005  0.1350318E+03  0.7546771E-02  0.1229291E+00
          2   -1    0    0  501    0  0.00000000000E+00  0.00000000000E+00  0.39963716741E+02  0.39963716741E+02  0.00000000000E+00 0. -1.
         -2   -1    0    0    0  501 -0.00000000000E+00 -0.00000000000E+00 -0.39400282664E+03  0.39400282664E+03  0.00000000000E+00 0.  1.
         25    2    1    2    0    0  0.57357236349E+01 -0.50880969123E+02 -0.23283011296E+03  0.26915322410E+03  0.12494728890E+03 0.  0.
         23    2    1    2    0    0 -0.57357236349E+01  0.50880969123E+02 -0.12120899695E+03  0.16481331928E+03  0.99247356269E+02 0.  0.
          5    1    3    3  502    0 -0.50776011488E+02 -0.30788471598E+02 -0.53731881555E+02  0.80220561089E+02  0.47000000000E+01 0.  1.
         -5    1    3    3    0  502  0.56511735123E+02 -0.20092497526E+02 -0.17909823140E+03  0.18893266302E+03  0.47000000000E+01 0.  1.
          5    1    4    4  503    0  0.11575281389E+02 -0.17295543537E+02  0.34388453685E+01  0.21611076394E+02  0.47000000000E+01 0. -1.
         -5    1    4    4    0  503 -0.17311005023E+02  0.68176512660E+02 -0.12464784231E+03  0.14320224288E+03  0.47000000000E+01 0.  1.
<mgrwt>
<rscale>  0 0.12877107E+03</rscale>
<asrwt>0</asrwt>
<pdfrwt beam="1">  1        2 0.61482638E-02 0.13503184E+03</pdfrwt>
<pdfrwt beam="2">  1       -2 0.60615822E-01 0.13503184E+03</pdfrwt>
<totfact> 0.29631528E+03</totfact>
</mgrwt>
</event>
<event>
 7    1  0.6985133E-005  0.2267278E+03  0.7546771E-02  0.1128964E+00
          1   -1    0    0  501    0  0.00000000000E+00  0.00000000000E+00  0.20544556799E+03  0.20544556799E+03  0.00000000000E+00 0. -1.
         -1   -1    0    0    0  501 -0.00000000000E+00 -0.00000000000E+00 -0.62553678397E+02  0.62553678397E+02  0.00000000000E+00 0.  1.
         23    2    1    2    0    0  0.19083045078E+02  0.24323134432E+02  0.41015296912E+02  0.10336296548E+03  0.89698776876E+02 0.  0.
          5    1    1    2  502    0  0.42707988725E+02 -0.15222184607E+01 -0.28410628256E+00  0.42993722406E+02  0.47000000000E+01 0. -1.
         -5    1    3    3    0  503  0.99098168742E+00 -0.25432869406E+02  0.42984156634E+02  0.50175099526E+02  0.47000000000E+01 0.  1.
          5    1    3    3  503    0  0.18092063390E+02  0.49756003838E+02 -0.19688597213E+01  0.53187865949E+02  0.47000000000E+01 0. -1.
         -5    1    1    2    0  502 -0.61791033802E+02 -0.22800915971E+02  0.10216069897E+03  0.12164255851E+03  0.47000000000E+01 0. -1.
<mgrwt>
<rscale>  0 0.22672782E+03</rscale>
<asrwt>0</asrwt>
<pdfrwt beam="1">  1        1 0.31607010E-01 0.22672782E+03</pdfrwt>
<pdfrwt beam="2">  1       -1 0.96236429E-02 0.22672782E+03</pdfrwt>
<totfact> 0.89795495E+03</totfact>
</mgrwt>
</event>
<event>
 8    1  0.6985133E-005  0.2314402E+03  0.7546771E-02  0.1128895E+00
          1   -1    0    0  501    0  0.00000000000E+00  0.00000000000E+00  0.10870268724E+04  0.10870268724E+04  0.00000000000E+00 0. -1.
         -1   -1    0    0    0  501 -0.00000000000E+00 -0.00000000000E+00 -0.49613329044E+02  0.49613329044E+02  0.00000000000E+00 0.  1.
         25    2    1    2    0    0  0.18071552076E+03  0.72747052050E+02  0.37505485188E+03  0.44071611931E+03  0.12495728420E+03 0.  0.
         23    2    1    2    0    0 -0.18071552076E+03 -0.72747052050E+02  0.66235869148E+03  0.69592408214E+03  0.87413150584E+02 0.  0.
          5    1    3    3  502    0  0.18066465876E+03  0.24485629961E+02  0.28309724096E+03  0.33675718677E+03  0.47000000000E+01 0. -1.
         -5    1    3    3    0  502  0.50861996156E-01  0.48261422088E+02  0.91957610923E+02  0.10395893254E+03  0.47000000000E+01 0. -1.
          5    1    4    4  503    0 -0.19317230665E+02 -0.44705494241E+02  0.12956356771E+03  0.13849384352E+03  0.47000000000E+01 0. -1.
         -5    1    4    4    0  503 -0.16139829010E+03 -0.28041557809E+02  0.53279512377E+03  0.55743023862E+03  0.47000000000E+01 0.  1.
<mgrwt>
<rscale>  0 0.22682416E+03</rscale>
<asrwt>0</asrwt>
<pdfrwt beam="1">  1        1 0.16723489E+00 0.23144018E+03</pdfrwt>
<pdfrwt beam="2">  1       -1 0.76328207E-02 0.23144018E+03</pdfrwt>
<totfact> 0.12777817E+03</totfact>
</mgrwt>
</event>
<event>
 8    1  0.6985133E-005  0.1512840E+03  0.7546771E-02  0.1207950E+00
         -2   -1    0    0    0  501 -0.00000000000E+00  0.00000000000E+00  0.14294715059E+02  0.14294715059E+02  0.00000000000E+00 0.  1.
          2   -1    0    0  501    0  0.00000000000E+00 -0.00000000000E+00 -0.13753469901E+04  0.13753469901E+04  0.00000000000E+00 0. -1.
         25    2    1    2    0    0  0.59383321948E+02  0.61244003273E+02 -0.61839923770E+03  0.63663526143E+03  0.12493851302E+03 0.  0.
         23    2    1    2    0    0 -0.59383321948E+02 -0.61244003273E+02 -0.74265303732E+03  0.75300644371E+03  0.90597812188E+02 0.  0.
          5    1    3    3  502    0  0.87391630102E+02  0.49334329534E+02 -0.57322621396E+03  0.58196353447E+03  0.47000000000E+01 0. -1.
         -5    1    4    4    0  503 -0.56725108287E+02 -0.83407040025E+02 -0.63326243853E+03  0.64126272173E+03  0.47000000000E+01 0.  1.
          5    1    4    4  503    0 -0.26582136613E+01  0.22163036753E+02 -0.10939059879E+03  0.11174372198E+03  0.47000000000E+01 0. -1.
         -5    1    3    3    0  502 -0.28008308154E+02  0.11909673738E+02 -0.45173023748E+02  0.54671726959E+02  0.47000000000E+01 0. -1.
<mgrwt>
<rscale>  0 0.14407352E+03</rscale>
<asrwt>0</asrwt>
<pdfrwt beam="1">  1        2 0.21159193E+00 0.15128397E+03</pdfrwt>
<pdfrwt beam="2">  1       -2 0.21991861E-02 0.15128397E+03</pdfrwt>
<totfact> 0.10463944E+04</totfact>
</mgrwt>
</event>
<event>
 8    1  0.6985133E-005  0.2286073E+03  0.7546771E-02  0.1130742E+00
         -1   -1    0    0    0  501 -0.00000000000E+00  0.00000000000E+00  0.23196331096E+02  0.23196331096E+02  0.00000000000E+00 0.  1.
          1   -1    0    0  501    0  0.00000000000E+00 -0.00000000000E+00 -0.21615867928E+04  0.21615867928E+04  0.00000000000E+00 0. -1.
         25    2    1    2    0    0 -0.43787830611E+02  0.18628687457E+03 -0.90977480153E+03  0.93805729859E+03  0.12506451213E+03 0.  0.
         23    2    1    2    0    0  0.43787830611E+02 -0.18628687457E+03 -0.12286156601E+04  0.12467258253E+04  0.90601706989E+02 0.  0.
          5    1    3    3  502    0  0.26930968779E+02  0.13276064486E+03 -0.45807689423E+03  0.47771036930E+03  0.47000000000E+01 0.  1.
         -5    1    3    3    0  502 -0.70718799390E+02  0.53526229703E+02 -0.45169790729E+03  0.46034692929E+03  0.47000000000E+01 0.  1.
          5    1    4    4  503    0  0.48016690129E+01 -0.13921260380E+03 -0.10137561376E+04  0.10232921389E+04  0.47000000000E+01 0. -1.
         -5    1    4    4    0  503  0.38986161598E+02 -0.47074270763E+02 -0.21485952257E+03  0.22343368637E+03  0.47000000000E+01 0.  1.
<mgrwt>
<rscale>  0 0.22426541E+03</rscale>
<asrwt>0</asrwt>
<pdfrwt beam="1">  1        1 0.33255187E+00 0.22860732E+03</pdfrwt>
<pdfrwt beam="2">  1       -1 0.35686658E-02 0.22860732E+03</pdfrwt>
<totfact> 0.77579107E+02</totfact>
</mgrwt>
</event>
<event>
 8    1  0.6985133E-005  0.1458637E+03  0.7546771E-02  0.1214982E+00
          1   -1    0    0  501    0  0.00000000000E+00  0.00000000000E+00  0.35024570600E+03  0.35024570600E+03  0.00000000000E+00 0. -1.
         -1   -1    0    0    0  501 -0.00000000000E+00 -0.00000000000E+00 -0.53572603823E+02  0.53572603823E+02  0.00000000000E+00 0.  1.
         25    2    1    2    0    0  0.74268976304E+02  0.11078394751E+02  0.11226782875E+03  0.18406594575E+03  0.12505037122E+03 0.  0.
         23    2    1    2    0    0 -0.74268976304E+02 -0.11078394751E+02  0.18440527342E+03  0.21975236407E+03  0.92990241294E+02 0.  0.
          5    1    4    4  502    0 -0.19030498027E+02  0.16633495396E+02  0.14282023695E+03  0.14511561979E+03  0.47000000000E+01 0. -1.
         -5    1    4    4    0  502 -0.55238478278E+02 -0.27711890147E+02  0.41585036469E+02  0.74636744276E+02  0.47000000000E+01 0.  1.
          5    1    3    3  503    0  0.10798198033E+03  0.16869862327E+01  0.98245881329E+02  0.14607291740E+03  0.47000000000E+01 0.  1.
         -5    1    3    3    0  503 -0.33713004024E+02  0.93914085179E+01  0.14021947424E+02  0.37993028358E+02  0.47000000000E+01 0.  1.
<mgrwt>
<rscale>  0 0.13877888E+03</rscale>
<asrwt>0</asrwt>
<pdfrwt beam="1">  1        1 0.53883953E-01 0.14586366E+03</pdfrwt>
<pdfrwt beam="2">  1       -1 0.82419392E-02 0.14586366E+03</pdfrwt>
<totfact> 0.56879446E+03</totfact>
</mgrwt>
</event>
<event>
 8    1  0.6985133E-005  0.2697319E+03  0.7546771E-02  0.1103709E+00
          2   -1    0    0  501    0  0.00000000000E+00  0.00000000000E+00  0.24668179501E+03  0.24668179501E+03  0.00000000000E+00 0.  1.
         -2   -1    0    0    0  501 -0.00000000000E+00 -0.00000000000E+00 -0.28598227713E+03  0.28598227713E+03  0.00000000000E+00 0. -1.
         25    2    1    2    0    0  0.14769526014E+03  0.18789026268E+03  0.23306903956E+02  0.27073696377E+03  0.12505459249E+03 0.  0.
         23    2    1    2    0    0 -0.14769526014E+03 -0.18789026268E+03 -0.62607386074E+02  0.26192710837E+03  0.87002785200E+02 0.  0.
          5    1    3    3  502    0  0.90419028975E+02  0.34114989677E+02  0.42069381081E+02  0.10550524227E+03  0.47000000000E+01 0.  1.
         -5    1    3    3    0  502  0.57276231166E+02  0.15377527300E+03 -0.18762477125E+02  0.16523172150E+03  0.47000000000E+01 0.  1.
          5    1    4    4  503    0 -0.38503332518E+02 -0.11244301050E+03 -0.48207990545E+02  0.12834343605E+03  0.47000000000E+01 0. -1.
         -5    1    4    4    0  503 -0.10919192762E+03 -0.75447252176E+02 -0.14399395529E+02  0.13358367232E+03  0.47000000000E+01 0.  1.
<mgrwt>
<rscale>  0 0.26579733E+03</rscale>
<asrwt>0</asrwt>
<pdfrwt beam="1">  1        2 0.37951045E-01 0.26973189E+03</pdfrwt>
<pdfrwt beam="2">  1       -2 0.43997274E-01 0.26973189E+03</pdfrwt>
<totfact> 0.67193677E+02</totfact>
</mgrwt>
</event>
<event>
 7    1  0.6985133E-005  0.1462421E+03  0.7546771E-02  0.1215264E+00
          2   -1    0    0  501    0  0.00000000000E+00  0.00000000000E+00  0.66892247956E+02  0.66892247956E+02  0.00000000000E+00 0. -1.
         -2   -1    0    0    0  501 -0.00000000000E+00 -0.00000000000E+00 -0.33399113384E+03  0.33399113384E+03  0.00000000000E+00 0.  1.
         23    2    1    2    0    0  0.31440332874E+02 -0.69573948685E+02 -0.21580454626E+03  0.24590637475E+03  0.89829360957E+02 0.  0.
          5    1    1    2  502    0 -0.17771017508E+02  0.49408714957E+02 -0.92737849004E+02  0.10667440562E+03  0.47000000000E+01 0. -1.
         -5    1    1    2    0  502 -0.13669315366E+02  0.20165233728E+02  0.41443509383E+02  0.48302601419E+02  0.47000000000E+01 0. -1.
          5    1    3    3  503    0  0.96006944062E+01 -0.75249758437E+02 -0.89060719361E+02  0.11708373589E+03  0.47000000000E+01 0. -1.
         -5    1    3    3    0  503  0.21839638468E+02  0.56758097527E+01 -0.12674382690E+03  0.12882263886E+03  0.47000000000E+01 0.  1.
<mgrwt>
<rscale>  0 0.13857177E+03</rscale>
<asrwt>0</asrwt>
<pdfrwt beam="1">  1        2 0.10291115E-01 0.14624214E+03</pdfrwt>
<pdfrwt beam="2">  1       -2 0.51383251E-01 0.14624214E+03</pdfrwt>
<totfact> 0.21774575E+03</totfact>
</mgrwt>
</event>
<event>
 7    1  0.6985133E-005  0.1277741E+03  0.7546771E-02  0.1246031E+00
          2   -1    0    0  501    0  0.00000000000E+00  0.00000000000E+00  0.27828293806E+03  0.27828293806E+03  0.00000000000E+00 0. -1.
         -2   -1    0    0    0  501 -0.00000000000E+00 -0.00000000000E+00 -0.52138873874E+02  0.52138873874E+02  0.00000000000E+00 0.  1.
         23    2    1    2    0    0 -0.22449082169E+02  0.15321205946E+02  0.16273348288E+03  0.18777843210E+03  0.89665224428E+02 0.  0.
          5    1    3    3  502    0  0.45613921397E+01 -0.30472185048E+02  0.10328785748E+03  0.10788805246E+03  0.47000000000E+01 0. -1.
         -5    1    1    2    0  503 -0.36081605432E+02  0.24652572013E+02  0.56052541055E+02  0.71229270079E+02  0.47000000000E+01 0. -1.
          5    1    1    2  503    0  0.58530687600E+02 -0.39973777958E+02  0.73580402534E+01  0.71414109752E+02  0.47000000000E+01 0. -1.
         -5    1    3    3    0  502 -0.27010474309E+02  0.45793390994E+02  0.59445625391E+02  0.79890379642E+02  0.47000000000E+01 0.  1.
<mgrwt>
<rscale>  0 0.11823882E+03</rscale>
<asrwt>0</asrwt>
<pdfrwt beam="1">  1        2 0.42812759E-01 0.12777414E+03</pdfrwt>
<pdfrwt beam="2">  1       -2 0.80213654E-02 0.12777414E+03</pdfrwt>
<totfact> 0.10504058E+04</totfact>
</mgrwt>
</event>
<event>
 8    1  0.6985133E-005  0.1325623E+03  0.7546771E-02  0.1235711E+00
         -1   -1    0    0    0  501 -0.00000000000E+00  0.00000000000E+00  0.37373172008E+02  0.37373172008E+02  0.00000000000E+00 0.  1.
          1   -1    0    0  501    0  0.00000000000E+00 -0.00000000000E+00 -0.37397077394E+03  0.37397077394E+03  0.00000000000E+00 0. -1.
         25    2    1    2    0    0  0.11342572196E+02  0.42459321783E+02 -0.17648933824E+03  0.22072892310E+03  0.12506527507E+03 0.  0.
         23    2    1    2    0    0 -0.11342572196E+02 -0.42459321783E+02 -0.16010826369E+03  0.19061502285E+03  0.93637507892E+02 0.  0.
          5    1    4    4  502    0  0.62272204088E+01 -0.69748278849E+02 -0.11723635117E+03  0.13663840131E+03  0.47000000000E+01 0. -1.
         -5    1    4    4    0  502 -0.17569792605E+02  0.27288957067E+02 -0.42871912521E+02  0.53976621543E+02  0.47000000000E+01 0.  1.
          5    1    3    3  503    0  0.19566855315E+02 -0.40038709359E+02 -0.91622461992E+02  0.10199375283E+03  0.47000000000E+01 0.  1.
         -5    1    3    3    0  503 -0.82242831189E+01  0.82498031141E+02 -0.84866876248E+02  0.11873517027E+03  0.47000000000E+01 0.  1.
<mgrwt>
<rscale>  0 0.12459057E+03</rscale>
<asrwt>0</asrwt>
<pdfrwt beam="1">  1        1 0.57533963E-01 0.13256233E+03</pdfrwt>
<pdfrwt beam="2">  1       -1 0.57497190E-02 0.13256233E+03</pdfrwt>
<totfact> 0.89364853E+03</totfact>
</mgrwt>
</event>
<event>
 8    1  0.6985133E-005  0.1309376E+03  0.7546771E-02  0.1237375E+00
         -4   -1    0    0    0  501 -0.00000000000E+00  0.00000000000E+00  0.17785020909E+03  0.17785020909E+03  0.00000000000E+00 0.  1.
          4   -1    0    0  501    0  0.00000000000E+00 -0.00000000000E+00 -0.10069497063E+03  0.10069497063E+03  0.00000000000E+00 0. -1.
         25    2    1    2    0    0 -0.38219623287E+02  0.63561407351E+01 -0.24595819648E+02  0.13322770559E+03  0.12507408630E+03 0.  0.
         23    2    1    2    0    0  0.38219623287E+02 -0.63561407351E+01  0.10175105811E+03  0.14531747413E+03  0.96243183300E+02 0.  0.
          5    1    4    4  502    0  0.15081317119E+02 -0.50813679562E+02  0.56771982020E+02  0.77811465088E+02  0.47000000000E+01 0.  1.
         -5    1    3    3    0  503 -0.15981771675E+02  0.64698487383E+02 -0.22787939195E+02  0.70588182214E+02  0.47000000000E+01 0. -1.
          5    1    3    3  503    0 -0.22237851612E+02 -0.58342346648E+02 -0.18078804529E+01  0.62639523374E+02  0.47000000000E+01 0. -1.
         -5    1    4    4    0  502  0.23138306168E+02  0.44457538827E+02  0.44979076090E+02  0.67506009042E+02  0.47000000000E+01 0. -1.
<mgrwt>
<rscale>  0 0.12353629E+03</rscale>
<asrwt>0</asrwt>
<pdfrwt beam="1">  1        4 0.15491534E-01 0.13093765E+03</pdfrwt>
<pdfrwt beam="2">  1       -4 0.27361571E-01 0.13093765E+03</pdfrwt>
<totfact> 0.74010233E+02</totfact>
</mgrwt>
</event>
<event>
 7    1  0.6985133E-005  0.1665935E+03  0.7546771E-02  0.1187988E+00
         -2   -1    0    0    0  501 -0.00000000000E+00  0.00000000000E+00  0.13098723415E+02  0.13098723415E+02  0.00000000000E+00 0. -1.
          2   -1    0    0  501    0  0.00000000000E+00 -0.00000000000E+00 -0.18955240497E+04  0.18955240497E+04  0.00000000000E+00 0.  1.
         23    2    1    2    0    0 -0.10944890359E+03 -0.15681176958E+02 -0.10360802265E+04  0.10460374662E+04  0.92234392201E+02 0.  0.
          5    1    1    2  502    0  0.38433582002E+02 -0.41441062355E+02 -0.53905795446E+03  0.54203327402E+03  0.47000000000E+01 0.  1.
         -5    1    1    2    0  502  0.71015321589E+02  0.57122239313E+02 -0.30728714532E+03  0.32055203291E+03  0.47000000000E+01 0.  1.
          5    1    3    3  503    0 -0.90736162076E+02  0.27444012432E+02 -0.76579537833E+03  0.77165463544E+03  0.47000000000E+01 0. -1.
         -5    1    3    3    0  503 -0.18712741515E+02 -0.43125189391E+02 -0.27028484814E+03  0.27438283071E+03  0.47000000000E+01 0.  1.
<mgrwt>
<rscale>  0 0.16062902E+03</rscale>
<asrwt>0</asrwt>
<pdfrwt beam="1">  1        2 0.29161904E+00 0.16659347E+03</pdfrwt>
<pdfrwt beam="2">  1       -2 0.20151885E-02 0.16659347E+03</pdfrwt>
<totfact> 0.63964984E+03</totfact>
</mgrwt>
</event>
<event>
 7    1  0.6985133E-005  0.1439452E+03  0.7546771E-02  0.1217903E+00
         -2   -1    0    0    0  501 -0.00000000000E+00  0.00000000000E+00  0.70755513975E+02  0.70755513975E+02  0.00000000000E+00 0. -1.
          2   -1    0    0  501    0  0.00000000000E+00 -0.00000000000E+00 -0.25481798228E+03  0.25481798228E+03  0.00000000000E+00 0.  1.
         23    2    1    2    0    0  0.71370700896E+02  0.61117539957E+01 -0.44579597442E+02  0.12513474648E+03  0.92413385308E+02 0.  0.
          5    1    1    2  502    0 -0.24624138057E+02 -0.39530791189E+02 -0.13468092967E+03  0.14258357004E+03  0.47000000000E+01 0. -1.
         -5    1    3    3    0  503  0.28778266150E+02 -0.10240490408E+02 -0.67221304610E+02  0.73985471816E+02  0.47000000000E+01 0.  1.
          5    1    3    3  503    0  0.42592434746E+02  0.16352244404E+02  0.22641707168E+02  0.51149274659E+02  0.47000000000E+01 0. -1.
         -5    1    1    2    0  502 -0.46746562839E+02  0.33419037193E+02 -0.48019411941E+01  0.57855179746E+02  0.47000000000E+01 0. -1.
<mgrwt>
<rscale>  0 0.13665464E+03</rscale>
<asrwt>0</asrwt>
<pdfrwt beam="1">  1        2 0.39202767E-01 0.14394520E+03</pdfrwt>
<pdfrwt beam="2">  1       -2 0.10885463E-01 0.14394520E+03</pdfrwt>
<totfact> 0.72187381E+03</totfact>
</mgrwt>
</event>
<event>
 8    1  0.6985133E-005  0.1456643E+03  0.7546771E-02  0.1214511E+00
         -2   -1    0    0    0  501 -0.00000000000E+00  0.00000000000E+00  0.76678085967E+02  0.76678085967E+02  0.00000000000E+00 0.  1.
          2   -1    0    0  501    0  0.00000000000E+00 -0.00000000000E+00 -0.42875272064E+03  0.42875272064E+03  0.00000000000E+00 0. -1.
         25    2    1    2    0    0  0.15142452078E+01 -0.74879207266E+02 -0.14063967765E+02  0.14634166532E+03  0.12493558020E+03 0.  0.
         23    2    1    2    0    0 -0.15142452078E+01  0.74879207266E+02 -0.33801066691E+03  0.35908914129E+03  0.95313230071E+02 0.  0.
          5    1    3    3  502    0  0.60893229258E+02 -0.26891088027E+02  0.67414701117E+01  0.67072001640E+02  0.47000000000E+01 0. -1.
         -5    1    4    4    0  503 -0.80569110970E+01 -0.20262835719E+02 -0.10367176570E+03  0.10604443092E+03  0.47000000000E+01 0.  1.
          5    1    4    4  503    0  0.65426658892E+01  0.95142042984E+02 -0.23433890121E+03  0.25304471036E+03  0.47000000000E+01 0. -1.
         -5    1    3    3    0  502 -0.59378984050E+02 -0.47988119239E+02 -0.20805437876E+02  0.79269663681E+02  0.47000000000E+01 0.  1.
<mgrwt>
<rscale>  0 0.13912546E+03</rscale>
<asrwt>0</asrwt>
<pdfrwt beam="1">  1        2 0.65961958E-01 0.14566430E+03</pdfrwt>
<pdfrwt beam="2">  1       -2 0.11796628E-01 0.14566430E+03</pdfrwt>
<totfact> 0.36510929E+03</totfact>
</mgrwt>
</event>
<event>
 8    1  0.6985133E-005  0.1923271E+03  0.7546771E-02  0.1161293E+00
         -2   -1    0    0    0  501 -0.00000000000E+00  0.00000000000E+00  0.20762571238E+03  0.20762571238E+03  0.00000000000E+00 0.  1.
          2   -1    0    0  501    0  0.00000000000E+00 -0.00000000000E+00 -0.19736602971E+03  0.19736602971E+03  0.00000000000E+00 0. -1.
         25    2    1    2    0    0  0.54943583355E+02 -0.13548374668E+03  0.94081875918E+02  0.21410538244E+03  0.12496028349E+03 0.  0.
         23    2    1    2    0    0 -0.54943583355E+02  0.13548374668E+03 -0.83822193255E+02  0.19088635965E+03  0.89648197146E+02 0.  0.
          5    1    4    4  502    0  0.64643208962E+01  0.96800292784E+02 -0.60849136902E+02  0.11461584354E+03  0.47000000000E+01 0. -1.
         -5    1    3    3    0  503 -0.38655344746E+02 -0.45928944298E+02  0.14281176739E+02  0.61884938481E+02  0.47000000000E+01 0.  1.
          5    1    3    3  503    0  0.93598928101E+02 -0.89554802377E+02  0.79800699179E+02  0.15222044396E+03  0.47000000000E+01 0.  1.
         -5    1    4    4    0  502 -0.61407904251E+02  0.38683453891E+02 -0.22973056353E+02  0.76270516110E+02  0.47000000000E+01 0.  1.
<mgrwt>
<rscale>  0 0.18689381E+03</rscale>
<asrwt>0</asrwt>
<pdfrwt beam="1">  1        2 0.30364005E-01 0.19232711E+03</pdfrwt>
<pdfrwt beam="2">  1       -2 0.31942417E-01 0.19232711E+03</pdfrwt>
<totfact> 0.15599970E+03</totfact>
</mgrwt>
</event>
<event>
 8    1  0.6985133E-005  0.2040976E+03  0.7546771E-02  0.1150333E+00
         -2   -1    0    0    0  501 -0.00000000000E+00  0.00000000000E+00  0.19408781830E+03  0.19408781830E+03  0.00000000000E+00 0.  1.
          2   -1    0    0  501    0  0.00000000000E+00 -0.00000000000E+00 -0.19688305536E+03  0.19688305536E+03  0.00000000000E+00 0. -1.
         25    2    1    2    0    0 -0.12754737118E+03  0.98741339470E+02  0.14435727437E+02  0.20460744367E+03  0.12505051684E+03 0.  0.
         23    2    1    2    0    0  0.12754737118E+03 -0.98741339470E+02 -0.17230964496E+02  0.18636342999E+03  0.91740056059E+02 0.  0.
          5    1    3    3  502    0  0.23455587260E+02  0.18642098115E+02 -0.98664281637E+01  0.31892456797E+02  0.47000000000E+01 0. -1.
         -5    1    4    4    0  503  0.29519170165E+02 -0.41448187550E+02  0.34340532913E+02  0.61568627231E+02  0.47000000000E+01 0.  1.
          5    1    4    4  503    0  0.98028201013E+02 -0.57293151920E+02 -0.51571497409E+02  0.12479480276E+03  0.47000000000E+01 0. -1.
         -5    1    3    3    0  502 -0.15100295844E+03  0.80099241355E+02  0.24302155601E+02  0.17271498687E+03  0.47000000000E+01 0. -1.
<mgrwt>
<rscale>  0 0.19929778E+03</rscale>
<asrwt>0</asrwt>
<pdfrwt beam="1">  1        2 0.30289701E-01 0.20409756E+03</pdfrwt>
<pdfrwt beam="2">  1       -2 0.29859664E-01 0.20409756E+03</pdfrwt>
<totfact> 0.17715823E+03</totfact>
</mgrwt>
</event>
<event>
 8    1  0.6985133E-005  0.2148074E+03  0.7546771E-02  0.1141544E+00
         -1   -1    0    0    0  501 -0.00000000000E+00  0.00000000000E+00  0.11275375250E+03  0.11275375250E+03  0.00000000000E+00 0.  1.
          1   -1    0    0  501    0  0.00000000000E+00 -0.00000000000E+00 -0.39131503622E+03  0.39131503622E+03  0.00000000000E+00 0. -1.
         25    2    1    2    0    0 -0.15583587050E+03  0.78848397463E+02 -0.19706414502E+03  0.29150726177E+03  0.12506125735E+03 0.  0.
         23    2    1    2    0    0  0.15583587050E+03 -0.78848397463E+02 -0.81497138693E+02  0.21256152696E+03  0.89658969485E+02 0.  0.
          5    1    3    3  502    0 -0.13163788885E+03  0.60117053194E+02 -0.70185170311E+02  0.16090569287E+03  0.47000000000E+01 0.  1.
         -5    1    3    3    0  502 -0.24197981652E+02  0.18731344270E+02 -0.12687897471E+03  0.13060156890E+03  0.47000000000E+01 0.  1.
          5    1    4    4  503    0  0.13422001633E+03 -0.26319676354E+02 -0.41781918477E+02  0.14309282602E+03  0.47000000000E+01 0. -1.
         -5    1    4    4    0  503  0.21615854174E+02 -0.52528721109E+02 -0.39715220216E+02  0.69468700937E+02  0.47000000000E+01 0.  1.
<mgrwt>
<rscale>  0 0.21002777E+03</rscale>
<asrwt>0</asrwt>
<pdfrwt beam="1">  1        1 0.60202313E-01 0.21480737E+03</pdfrwt>
<pdfrwt beam="2">  1       -1 0.17346731E-01 0.21480737E+03</pdfrwt>
<totfact> 0.15776671E+03</totfact>
</mgrwt>
</event>
<event>
 8    1  0.6985133E-005  0.1458517E+03  0.7546771E-02  0.1214937E+00
          2   -1    0    0  501    0  0.00000000000E+00  0.00000000000E+00  0.88001806045E+03  0.88001806045E+03  0.00000000000E+00 0. -1.
         -2   -1    0    0    0  501 -0.00000000000E+00 -0.00000000000E+00 -0.20085787179E+02  0.20085787179E+02  0.00000000000E+00 0.  1.
         25    2    1    2    0    0  0.68573331504E+02 -0.30906716780E+02  0.49627747477E+03  0.51726592689E+03  0.12496071473E+03 0.  0.
         23    2    1    2    0    0 -0.68573331504E+02  0.30906716780E+02  0.36365479850E+03  0.38283792074E+03  0.93072735776E+02 0.  0.
          5    1    4    4  502    0 -0.26355688081E+02  0.17914162738E+02  0.31619985570E+03  0.31783640173E+03  0.47000000000E+01 0. -1.
         -5    1    4    4    0  502 -0.42217643422E+02  0.12992554042E+02  0.47454942802E+02  0.65001519006E+02  0.47000000000E+01 0.  1.
          5    1    3    3  503    0  0.17152198186E+02  0.41785868121E+02  0.84344126282E+02  0.95792892823E+02  0.47000000000E+01 0. -1.
         -5    1    3    3    0  503  0.51421133317E+02 -0.72692584901E+02  0.41193334849E+03  0.42147303407E+03  0.47000000000E+01 0. -1.
<mgrwt>
<rscale>  0 0.13881188E+03</rscale>
<asrwt>0</asrwt>
<pdfrwt beam="1">  1        2 0.13538736E+00 0.14585166E+03</pdfrwt>
<pdfrwt beam="2">  1       -2 0.30901218E-02 0.14585166E+03</pdfrwt>
<totfact> 0.12216122E+04</totfact>
</mgrwt>
</event>
<event>
 8    1  0.6985133E-005  0.2530382E+03  0.7546771E-02  0.1114422E+00
         -2   -1    0    0    0  501 -0.00000000000E+00  0.00000000000E+00  0.97437845823E+02  0.97437845823E+02  0.00000000000E+00 0. -1.
          2   -1    0    0  501    0  0.00000000000E+00 -0.00000000000E+00 -0.60957455555E+03  0.60957455555E+03  0.00000000000E+00 0.  1.
         25    2    1    2    0    0 -0.21993895317E+03  0.71839195813E+01 -0.26695172248E+03  0.36782000925E+03  0.12491431160E+03 0.  0.
         23    2    1    2    0    0  0.21993895317E+03 -0.71839195813E+01 -0.24518498725E+03  0.33919239213E+03  0.80691071881E+02 0.  0.
          5    1    3    3  502    0 -0.98931923466E+02  0.64218933643E+01 -0.21351038232E+03  0.23545177756E+03  0.47000000000E+01 0. -1.
         -5    1    3    3    0  502 -0.12100702971E+03  0.76202621698E+00 -0.53441340158E+02  0.13236823169E+03  0.47000000000E+01 0. -1.
          5    1    4    4  503    0  0.15724550393E+03 -0.39690124768E+02 -0.15334284200E+03  0.22324330158E+03  0.47000000000E+01 0. -1.
         -5    1    4    4    0  503  0.62693449249E+02  0.32506205187E+02 -0.91842145249E+02  0.11594909055E+03  0.47000000000E+01 0.  1.
<mgrwt>
<rscale>  0 0.24823986E+03</rscale>
<asrwt>0</asrwt>
<pdfrwt beam="1">  1        2 0.93780703E-01 0.25303821E+03</pdfrwt>
<pdfrwt beam="2">  1       -2 0.14990437E-01 0.25303821E+03</pdfrwt>
<totfact> 0.16945336E+03</totfact>
</mgrwt>
</event>
<event>
 8    1  0.6985133E-005  0.1259555E+03  0.7546771E-02  0.1248773E+00
          1   -1    0    0  501    0  0.00000000000E+00  0.00000000000E+00  0.68794095453E+02  0.68794095453E+02  0.00000000000E+00 0. -1.
         -1   -1    0    0    0  501 -0.00000000000E+00 -0.00000000000E+00 -0.18893471815E+03  0.18893471815E+03  0.00000000000E+00 0.  1.
         25    2    1    2    0    0  0.11451596567E+02  0.10923969353E+02 -0.32118019689E+02  0.12998601470E+03  0.12495729133E+03 0.  0.
         23    2    1    2    0    0 -0.11451596567E+02 -0.10923969353E+02 -0.88022603006E+02  0.12774279891E+03  0.91212783434E+02 0.  0.
          5    1    3    3  502    0  0.53405231583E+02 -0.27654824254E+02  0.69554667828E+01  0.60723772800E+02  0.47000000000E+01 0.  1.
         -5    1    3    3    0  502 -0.41953635016E+02  0.38578793607E+02 -0.39073486472E+02  0.69262241895E+02  0.47000000000E+01 0.  1.
          5    1    4    4  503    0  0.18893601424E+02 -0.35749863626E+02 -0.12607352090E+02  0.42615211495E+02  0.47000000000E+01 0. -1.
         -5    1    4    4    0  503 -0.30345197991E+02  0.24825894272E+02 -0.75415250916E+02  0.85127587410E+02  0.47000000000E+01 0.  1.
<mgrwt>
<rscale>  0 0.11662377E+03</rscale>
<asrwt>0</asrwt>
<pdfrwt beam="1">  1        1 0.10583707E-01 0.12595554E+03</pdfrwt>
<pdfrwt beam="2">  1       -1 0.29066880E-01 0.12595554E+03</pdfrwt>
<totfact> 0.60548221E+03</totfact>
</mgrwt>
</event>
<event>
 8    1  0.6985133E-005  0.1291518E+03  0.7546771E-02  0.1243231E+00
         -2   -1    0    0    0  501 -0.00000000000E+00  0.00000000000E+00  0.72879816814E+02  0.72879816814E+02  0.00000000000E+00 0. -1.
          2   -1    0    0  501    0  0.00000000000E+00 -0.00000000000E+00 -0.17901843186E+03  0.17901843186E+03  0.00000000000E+00 0.  1.
         25    2    1    2    0    0  0.32609497411E+02  0.18964606152E+01 -0.81758385954E+02  0.15285492776E+03  0.12495286865E+03 0.  0.
         23    2    1    2    0    0 -0.32609497411E+02 -0.18964606152E+01 -0.24380229092E+02  0.99043320910E+02  0.90267424700E+02 0.  0.
          5    1    4    4  502    0 -0.57370110114E+02  0.16635264471E+01  0.76927575855E+01  0.58097894747E+02  0.47000000000E+01 0. -1.
         -5    1    4    4    0  502  0.24760612703E+02 -0.35599870623E+01 -0.32072986677E+02  0.40945426163E+02  0.47000000000E+01 0.  1.
          5    1    3    3  503    0 -0.35301241291E+02 -0.21060201736E+02  0.33151391753E+01  0.41506504088E+02  0.47000000000E+01 0.  1.
         -5    1    3    3    0  503  0.67910738702E+02  0.22956662351E+02 -0.85073525129E+02  0.11134842368E+03  0.47000000000E+01 0.  1.
<mgrwt>
<rscale>  0 0.11991912E+03</rscale>
<asrwt>0</asrwt>
<pdfrwt beam="1">  1        2 0.27541297E-01 0.12915183E+03</pdfrwt>
<pdfrwt beam="2">  1       -2 0.11212280E-01 0.12915183E+03</pdfrwt>
<totfact> 0.99941706E+03</totfact>
</mgrwt>
</event>
<event>
 8    1  0.6985133E-005  0.1680900E+03  0.7546771E-02  0.1186700E+00
         -2   -1    0    0    0  501 -0.00000000000E+00  0.00000000000E+00  0.61518413471E+02  0.61518413471E+02  0.00000000000E+00 0. -1.
          2   -1    0    0  501    0  0.00000000000E+00 -0.00000000000E+00 -0.51034145409E+03  0.51034145409E+03  0.00000000000E+00 0.  1.
         25    2    1    2    0    0  0.77167420826E+02 -0.81604179408E+02 -0.10294166994E+03  0.19710715839E+03  0.12506075142E+03 0.  0.
         23    2    1    2    0    0 -0.77167420826E+02  0.81604179408E+02 -0.34588137068E+03  0.37475270917E+03  0.90507555000E+02 0.  0.
          5    1    4    4  502    0 -0.42640615370E+02  0.49274823784E+02 -0.73854888844E+02  0.98604588860E+02  0.47000000000E+01 0. -1.
         -5    1    4    4    0  502 -0.34526805456E+02  0.32329355625E+02 -0.27202648184E+03  0.27614812031E+03  0.47000000000E+01 0.  1.
          5    1    3    3  503    0  0.77900088386E+02 -0.10702572267E+03 -0.56613701511E+02  0.14404905512E+03  0.47000000000E+01 0. -1.
         -5    1    3    3    0  503 -0.73266755969E+00  0.25421543262E+02 -0.46327968427E+02  0.53058103266E+02  0.47000000000E+01 0. -1.
<mgrwt>
<rscale>  0 0.16178159E+03</rscale>
<asrwt>0</asrwt>
<pdfrwt beam="1">  1        2 0.78514072E-01 0.16808999E+03</pdfrwt>
<pdfrwt beam="2">  1       -2 0.94643711E-02 0.16808999E+03</pdfrwt>
<totfact> 0.43050997E+03</totfact>
</mgrwt>
</event>
<event>
 8    1  0.6985133E-005  0.1725887E+03  0.7546771E-02  0.1181387E+00
          2   -1    0    0  501    0  0.00000000000E+00  0.00000000000E+00  0.98956076235E+03  0.98956076235E+03  0.00000000000E+00 0. -1.
         -2   -1    0    0    0  501 -0.00000000000E+00 -0.00000000000E+00 -0.39954275482E+02  0.39954275482E+02  0.00000000000E+00 0.  1.
         25    2    1    2    0    0 -0.71501324158E+02 -0.95231489938E+02  0.79714127364E+03  0.81561086476E+03  0.12492156157E+03 0.  0.
         23    2    1    2    0    0  0.71501324158E+02  0.95231489938E+02  0.15246521323E+03  0.21390417307E+03  0.91257207829E+02 0.  0.
          5    1    4    4  502    0  0.16145848311E+02  0.12228251098E+02  0.97916853121E+02  0.10010004330E+03  0.47000000000E+01 0. -1.
         -5    1    3    3    0  503 -0.10182615129E+03 -0.88659601148E+02  0.71556390940E+03  0.72820525156E+03  0.47000000000E+01 0.  1.
          5    1    3    3  503    0  0.30324827133E+02 -0.65718887896E+01  0.81577364240E+02  0.87405613202E+02  0.47000000000E+01 0.  1.
         -5    1    4    4    0  502  0.55355475847E+02  0.83003238839E+02  0.54548360111E+02  0.11380412978E+03  0.47000000000E+01 0.  1.
<mgrwt>
<rscale>  0 0.16664977E+03</rscale>
<asrwt>0</asrwt>
<pdfrwt beam="1">  1        2 0.15224010E+00 0.17258874E+03</pdfrwt>
<pdfrwt beam="2">  1       -2 0.61468123E-02 0.17258874E+03</pdfrwt>
<totfact> 0.37529437E+03</totfact>
</mgrwt>
</event>
<event>
 8    1  0.6985133E-005  0.2222771E+03  0.7546771E-02  0.1135679E+00
          1   -1    0    0  501    0  0.00000000000E+00  0.00000000000E+00  0.18408843463E+03  0.18408843463E+03  0.00000000000E+00 0. -1.
         -1   -1    0    0    0  501 -0.00000000000E+00 -0.00000000000E+00 -0.24941704587E+03  0.24941704587E+03  0.00000000000E+00 0.  1.
         25    2    1    2    0    0 -0.15214466977E+03 -0.10304469458E+03 -0.12634296063E+02  0.22263587493E+03  0.12506357482E+03 0.  0.
         23    2    1    2    0    0  0.15214466977E+03  0.10304469458E+03 -0.52694315172E+02  0.21086960558E+03  0.89011741267E+02 0.  0.
          5    1    4    4  502    0  0.97835848377E+02  0.60638579957E+02  0.12524405657E+02  0.11587856292E+03  0.47000000000E+01 0. -1.
         -5    1    3    3    0  503 -0.14215721507E+02  0.18469765747E+02 -0.29608159925E+02  0.37973044635E+02  0.47000000000E+01 0. -1.
          5    1    3    3  503    0 -0.13792894826E+03 -0.12151446033E+03  0.16973863862E+02  0.18466283029E+03  0.47000000000E+01 0. -1.
         -5    1    4    4    0  502  0.54308821392E+02  0.42406114625E+02 -0.65218720829E+02  0.94991042657E+02  0.47000000000E+01 0.  1.
<mgrwt>
<rscale>  0 0.21760763E+03</rscale>
<asrwt>0</asrwt>
<pdfrwt beam="1">  1        1 0.28321298E-01 0.22227710E+03</pdfrwt>
<pdfrwt beam="2">  1       -1 0.38371853E-01 0.22227710E+03</pdfrwt>
<totfact> 0.10815424E+03</totfact>
</mgrwt>
</event>
<event>
 8    1  0.6985133E-005  0.1277764E+03  0.7546771E-02  0.1245676E+00
          2   -1    0    0  501    0  0.00000000000E+00  0.00000000000E+00  0.94186999437E+03  0.94186999437E+03  0.00000000000E+00 0. -1.
         -2   -1    0    0    0  501 -0.00000000000E+00 -0.00000000000E+00 -0.13118595264E+02  0.13118595264E+02  0.00000000000E+00 0.  1.
         25    2    1    2    0    0 -0.19566914462E+02 -0.17567879657E+02  0.51524311910E+03  0.53085051632E+03  0.12504121065E+03 0.  0.
         23    2    1    2    0    0  0.19566914462E+02  0.17567879657E+02  0.41350828001E+03  0.42413807332E+03  0.90622916875E+02 0.  0.
          5    1    3    3  502    0  0.31783136507E+02 -0.46237920656E+02  0.36707307926E+03  0.37136619204E+03  0.47000000000E+01 0.  1.
         -5    1    4    4    0  503  0.53409306689E+02  0.23685801720E+02  0.22823954943E+03  0.23564582145E+03  0.47000000000E+01 0.  1.
          5    1    4    4  503    0 -0.33842392227E+02 -0.61179220638E+01  0.18526873058E+03  0.18849225186E+03  0.47000000000E+01 0. -1.
         -5    1    3    3    0  502 -0.51350050969E+02  0.28670040999E+02  0.14817003984E+03  0.15948432428E+03  0.47000000000E+01 0.  1.
<mgrwt>
<rscale>  0 0.11845028E+03</rscale>
<asrwt>0</asrwt>
<pdfrwt beam="1">  1        2 0.14490302E+00 0.12777636E+03</pdfrwt>
<pdfrwt beam="2">  1       -2 0.20182462E-02 0.12777636E+03</pdfrwt>
<totfact> 0.20633198E+04</totfact>
</mgrwt>
</event>
<event>
 8    1  0.6985133E-005  0.1307403E+03  0.7546771E-02  0.1240026E+00
          2   -1    0    0  501    0  0.00000000000E+00  0.00000000000E+00  0.72569338212E+02  0.72569338212E+02  0.00000000000E+00 0. -1.
         -2   -1    0    0    0  501 -0.00000000000E+00 -0.00000000000E+00 -0.19964432547E+03  0.19964432547E+03  0.00000000000E+00 0.  1.
         25    2    1    2    0    0 -0.23643903054E+02  0.30299803772E+02 -0.30836140587E+02  0.13432756236E+03  0.12496365145E+03 0.  0.
         23    2    1    2    0    0  0.23643903054E+02 -0.30299803772E+02 -0.96238846676E+02  0.13788610133E+03  0.90959051605E+02 0.  0.
          5    1    4    4  502    0  0.50000822568E+02  0.52830815920E+01 -0.32214612970E+02  0.59898785442E+02  0.47000000000E+01 0. -1.
         -5    1    3    3    0  503 -0.48249486362E+02 -0.15262297593E+02 -0.56793469858E+02  0.76213770938E+02  0.47000000000E+01 0. -1.
          5    1    3    3  503    0  0.24605583308E+02  0.45562101365E+02  0.25957329271E+02  0.58113791423E+02  0.47000000000E+01 0. -1.
         -5    1    4    4    0  502 -0.26356919514E+02 -0.35582885364E+02 -0.64024233706E+02  0.77987315883E+02  0.47000000000E+01 0.  1.
<mgrwt>
<rscale>  0 0.12188110E+03</rscale>
<asrwt>0</asrwt>
<pdfrwt beam="1">  1        2 0.11164514E-01 0.13074030E+03</pdfrwt>
<pdfrwt beam="2">  1       -2 0.30714512E-01 0.13074030E+03</pdfrwt>
<totfact> 0.51872047E+03</totfact>
</mgrwt>
</event>
<event>
 8    1  0.7652566E-005  0.1448023E+03  0.7546771E-02  0.1216803E+00
          2   -1    0    0  501    0  0.00000000000E+00  0.00000000000E+00  0.23803790696E+04  0.23803790696E+04  0.00000000000E+00 0. -1.
         -2   -1    0    0    0  501 -0.00000000000E+00 -0.00000000000E+00 -0.72320866026E+01  0.72320866026E+01  0.00000000000E+00 0.  1.
         25    2    1    2    0    0 -0.39165418852E+02 -0.61633061821E+02  0.12853237037E+04  0.12934545706E+04  0.12504054825E+03 0.  0.
         23    2    1    2    0    0  0.39165418852E+02  0.61633061821E+02  0.10878232793E+04  0.10941565856E+04  0.92122648560E+02 0.  0.
          5    1    4    4  502    0  0.26796591211E+02  0.85779279127E+02  0.82221259221E+03  0.82712258996E+03  0.47000000000E+01 0. -1.
         -5    1    3    3    0  503  0.28935198433E+02  0.20845788100E+02  0.24320639055E+03  0.24585205102E+03  0.47000000000E+01 0.  1.
          5    1    3    3  503    0 -0.68100617284E+02 -0.82478849920E+02  0.10421173131E+04  0.10476025196E+04  0.47000000000E+01 0.  1.
         -5    1    4    4    0  502  0.12368827641E+02 -0.24146217306E+02  0.26561068710E+03  0.26703399561E+03  0.47000000000E+01 0.  1.
<mgrwt>
<rscale>  0 0.13744904E+03</rscale>
<asrwt>0</asrwt>
<pdfrwt beam="1">  1        2 0.36621154E+00 0.14480229E+03</pdfrwt>
<pdfrwt beam="2">  1       -2 0.11126306E-02 0.14480229E+03</pdfrwt>
<totfact> 0.84382524E+03</totfact>
</mgrwt>
</event>
<event>
 8    1  0.6985133E-005  0.1401324E+03  0.7546771E-02  0.1225515E+00
         -2   -1    0    0    0  501 -0.00000000000E+00  0.00000000000E+00  0.11804638813E+03  0.11804638813E+03  0.00000000000E+00 0.  1.
          2   -1    0    0  501    0  0.00000000000E+00 -0.00000000000E+00 -0.25646342986E+03  0.25646342986E+03  0.00000000000E+00 0. -1.
         25    2    1    2    0    0  0.60027971182E+02  0.20547594470E+02 -0.20445450690E+03  0.24786836959E+03  0.12494607753E+03 0.  0.
         23    2    1    2    0    0 -0.60027971182E+02 -0.20547594470E+02  0.66037465168E+02  0.12664144841E+03  0.87473131221E+02 0.  0.
          5    1    4    4  502    0 -0.30006403709E+02 -0.30723245051E+02 -0.98104836204E+01  0.44301666321E+02  0.47000000000E+01 0. -1.
         -5    1    3    3    0  503  0.17158064986E+02 -0.13511396520E+02  0.11433963465E+02  0.25095468725E+02  0.47000000000E+01 0.  1.
          5    1    3    3  503    0  0.42869906196E+02  0.34058990990E+02 -0.21588847036E+03  0.22277290086E+03  0.47000000000E+01 0.  1.
         -5    1    4    4    0  502 -0.30021567474E+02  0.10175650580E+02  0.75847948788E+02  0.82339782085E+02  0.47000000000E+01 0.  1.
<mgrwt>
<rscale>  0 0.13131695E+03</rscale>
<asrwt>0</asrwt>
<pdfrwt beam="1">  1        2 0.39455911E-01 0.14013238E+03</pdfrwt>
<pdfrwt beam="2">  1       -2 0.18160983E-01 0.14013238E+03</pdfrwt>
<totfact> 0.31151036E+03</totfact>
</mgrwt>
</event>
<event>
 8    1  0.6985133E-005  0.1272155E+03  0.7546771E-02  0.1247395E+00
         -3   -1    0    0    0  501 -0.00000000000E+00  0.00000000000E+00  0.34182723839E+02  0.34182723839E+02  0.00000000000E+00 0.  1.
          3   -1    0    0  501    0  0.00000000000E+00 -0.00000000000E+00 -0.36057194220E+03  0.36057194220E+03  0.00000000000E+00 0. -1.
         25    2    1    2    0    0 -0.99668770428E+01 -0.21134852489E+02 -0.21743123461E+03  0.25191291885E+03  0.12505101468E+03 0.  0.
         23    2    1    2    0    0  0.99668770428E+01  0.21134852489E+02 -0.10895798375E+03  0.14284174719E+03  0.89363873509E+02 0.  0.
          5    1    4    4  502    0  0.43390052490E+02 -0.10921094329E+02 -0.63120290839E+02  0.77512760704E+02  0.47000000000E+01 0. -1.
         -5    1    4    4    0  502 -0.33423175447E+02  0.32055946819E+02 -0.45837692916E+02  0.65328986485E+02  0.47000000000E+01 0.  1.
          5    1    3    3  503    0 -0.24944784351E+02 -0.36846189246E+02 -0.22425771705E+03  0.22867771554E+03  0.47000000000E+01 0. -1.
         -5    1    3    3    0  503  0.14977907308E+02  0.15711336757E+02  0.68264824478E+01  0.23235203305E+02  0.47000000000E+01 0. -1.
<mgrwt>
<rscale>  0 0.11743183E+03</rscale>
<asrwt>0</asrwt>
<pdfrwt beam="1">  1        3 0.55472605E-01 0.12721547E+03</pdfrwt>
<pdfrwt beam="2">  1       -3 0.52588807E-02 0.12721547E+03</pdfrwt>
<totfact> 0.15479892E+03</totfact>
</mgrwt>
</event>
<event>
 7    1  0.6985133E-005  0.1254388E+03  0.7546771E-02  0.1251414E+00
         -3   -1    0    0    0  501 -0.00000000000E+00  0.00000000000E+00  0.53232720189E+02  0.53232720189E+02  0.00000000000E+00 0.  1.
          3   -1    0    0  501    0  0.00000000000E+00 -0.00000000000E+00 -0.24284589497E+03  0.24284589497E+03  0.00000000000E+00 0. -1.
         23    2    1    2    0    0 -0.26260087123E+01  0.66659307221E-01 -0.12923790364E+03  0.15686634297E+03  0.88869080417E+02 0.  0.
          5    1    1    2  502    0  0.52061574575E+02  0.92123926620E+01  0.85427661121E+01  0.53761924990E+02  0.47000000000E+01 0.  1.
         -5    1    1    2    0  502 -0.49435565863E+02 -0.92790519692E+01 -0.68918037254E+02  0.85450347200E+02  0.47000000000E+01 0.  1.
          5    1    3    3  503    0 -0.18677306938E+02 -0.25892140026E+02 -0.12053963163E+03  0.12478436402E+03  0.47000000000E+01 0. -1.
         -5    1    3    3    0  503  0.16051298226E+02  0.25958799333E+02 -0.86982720107E+01  0.32081978953E+02  0.47000000000E+01 0.  1.
<mgrwt>
<rscale>  0 0.11509565E+03</rscale>
<asrwt>0</asrwt>
<pdfrwt beam="1">  1        3 0.37360907E-01 0.12543876E+03</pdfrwt>
<pdfrwt beam="2">  1       -3 0.81896493E-02 0.12543876E+03</pdfrwt>
<totfact> 0.16482653E+03</totfact>
</mgrwt>
</event>
<event>
 7    1  0.6985133E-005  0.1623059E+03  0.7546771E-02  0.1193367E+00
         -1   -1    0    0    0  501 -0.00000000000E+00  0.00000000000E+00  0.10176775969E+03  0.10176775969E+03  0.00000000000E+00 0.  1.
          1   -1    0    0  501    0  0.00000000000E+00 -0.00000000000E+00 -0.30693350592E+03  0.30693350592E+03  0.00000000000E+00 0. -1.
         23    2    1    2    0    0 -0.93525550198E+02  0.45306891563E+02 -0.20393164730E+03  0.24639069886E+03  0.91216866597E+02 0.  0.
          5    1    1    2  502    0  0.91023255646E+02  0.13965553663E+02  0.27505455012E+02  0.96223229072E+02  0.47000000000E+01 0. -1.
         -5    1    1    2    0  502  0.25022945516E+01 -0.59272445227E+02 -0.28739553940E+02  0.66087337682E+02  0.47000000000E+01 0.  1.
          5    1    3    3  503    0 -0.82064588629E+02  0.68559608783E+02 -0.13298856190E+03  0.17071339801E+03  0.47000000000E+01 0. -1.
         -5    1    3    3    0  503 -0.11460961569E+02 -0.23252717220E+02 -0.70943085401E+02  0.75677300854E+02  0.47000000000E+01 0.  1.
<mgrwt>
<rscale>  0 0.15593277E+03</rscale>
<asrwt>0</asrwt>
<pdfrwt beam="1">  1        1 0.47220539E-01 0.16230588E+03</pdfrwt>
<pdfrwt beam="2">  1       -1 0.15656579E-01 0.16230588E+03</pdfrwt>
<totfact> 0.25030739E+03</totfact>
</mgrwt>
</event>
<event>
 8    1  0.6985133E-005  0.1304314E+03  0.7546771E-02  0.1240484E+00
         -2   -1    0    0    0  501 -0.00000000000E+00  0.00000000000E+00  0.13929639710E+02  0.13929639710E+02  0.00000000000E+00 0.  1.
          2   -1    0    0  501    0  0.00000000000E+00 -0.00000000000E+00 -0.14935896833E+04  0.14935896833E+04  0.00000000000E+00 0. -1.
         25    2    1    2    0    0  0.17841347192E+02  0.32943764498E+02 -0.12604989972E+04  0.12672292930E+04  0.12493499863E+03 0.  0.
         23    2    1    2    0    0 -0.17841347192E+02 -0.32943764498E+02 -0.21916104636E+03  0.24029002995E+03  0.91126993598E+02 0.  0.
          5    1    3    3  502    0 -0.14878485175E+02  0.75168015253E+02 -0.72725515660E+03  0.73129594053E+03  0.47000000000E+01 0. -1.
         -5    1    4    4    0  503  0.83143288820E+01 -0.29482498439E+02 -0.15094720917E+02  0.34471529971E+02  0.47000000000E+01 0.  1.
          5    1    4    4  503    0 -0.26155676074E+02 -0.34612660594E+01 -0.20406632544E+03  0.20581849997E+03  0.47000000000E+01 0. -1.
         -5    1    3    3    0  502  0.32719832367E+02 -0.42224250755E+02 -0.53324384062E+03  0.53593335252E+03  0.47000000000E+01 0. -1.
<mgrwt>
<rscale>  0 0.12159800E+03</rscale>
<asrwt>0</asrwt>
<pdfrwt beam="1">  1        2 0.22978295E+00 0.13043143E+03</pdfrwt>
<pdfrwt beam="2">  1       -2 0.21430222E-02 0.13043143E+03</pdfrwt>
<totfact> 0.93546576E+03</totfact>
</mgrwt>
</event>
<event>
 7    1  0.6985133E-005  0.1470640E+03  0.7546771E-02  0.1213911E+00
          2   -1    0    0  501    0  0.00000000000E+00  0.00000000000E+00  0.32484180232E+03  0.32484180232E+03  0.00000000000E+00 0. -1.
         -2   -1    0    0    0  501 -0.00000000000E+00 -0.00000000000E+00 -0.57166094521E+02  0.57166094521E+02  0.00000000000E+00 0.  1.
         23    2    1    2    0    0 -0.43485908047E+02 -0.64310078809E+02  0.16075227167E+03  0.20018258521E+03  0.90581257121E+02 0.  0.
          5    1    3    3  502    0 -0.50798625975E+02 -0.34251155371E+02  0.15708776314E+03  0.16867808800E+03  0.47000000000E+01 0. -1.
         -5    1    3    3    0  502  0.73127179279E+01 -0.30058923438E+02  0.36645085308E+01  0.31504497211E+02  0.47000000000E+01 0.  1.
          5    1    1    2  503    0  0.48360782614E+02  0.92574658157E+02  0.45798282549E+02  0.11414204007E+03  0.47000000000E+01 0.  1.
         -5    1    1    2    0  503 -0.48748745668E+01 -0.28264579347E+02  0.61125153586E+02  0.67683271557E+02  0.47000000000E+01 0.  1.
<mgrwt>
<rscale>  0 0.13956843E+03</rscale>
<asrwt>0</asrwt>
<pdfrwt beam="1">  1        2 0.49975661E-01 0.14706401E+03</pdfrwt>
<pdfrwt beam="2">  1       -2 0.87947840E-02 0.14706401E+03</pdfrwt>
<totfact> 0.78082308E+03</totfact>
</mgrwt>
</event>
<event>
 8    1  0.6985133E-005  0.1762285E+03  0.7546771E-02  0.1177221E+00
          1   -1    0    0  501    0  0.00000000000E+00  0.00000000000E+00  0.51237346731E+03  0.51237346731E+03  0.00000000000E+00 0. -1.
         -1   -1    0    0    0  501 -0.00000000000E+00 -0.00000000000E+00 -0.55910885422E+02  0.55910885422E+02  0.00000000000E+00 0.  1.
         25    2    1    2    0    0  0.11742374329E+03  0.40429620481E+02  0.18299737959E+03  0.25405615232E+03  0.12503438684E+03 0.  0.
         23    2    1    2    0    0 -0.11742374329E+03 -0.40429620481E+02  0.27346520230E+03  0.31422820041E+03  0.92375621076E+02 0.  0.
          5    1    3    3  502    0 -0.24904002857E+02 -0.66736063143E+01  0.28839953247E+02  0.38968952806E+02  0.47000000000E+01 0. -1.
         -5    1    4    4    0  503  0.44377766550E+00 -0.26856208980E+02  0.18446924886E+02  0.32921602894E+02  0.47000000000E+01 0.  1.
          5    1    4    4  503    0 -0.11786752095E+03 -0.13573411501E+02  0.25501827741E+03  0.28130659752E+03  0.47000000000E+01 0. -1.
         -5    1    3    3    0  502  0.14232774614E+03  0.47103226795E+02  0.15415742634E+03  0.21508719951E+03  0.47000000000E+01 0. -1.
<mgrwt>
<rscale>  0 0.17060205E+03</rscale>
<asrwt>0</asrwt>
<pdfrwt beam="1">  1        1 0.78826684E-01 0.17622851E+03</pdfrwt>
<pdfrwt beam="2">  1       -1 0.86016750E-02 0.17622851E+03</pdfrwt>
<totfact> 0.33049994E+03</totfact>
</mgrwt>
</event>
<event>
 7    1  0.6985133E-005  0.1518061E+03  0.7546771E-02  0.1207015E+00
          2   -1    0    0  501    0  0.00000000000E+00  0.00000000000E+00  0.13509620457E+03  0.13509620457E+03  0.00000000000E+00 0. -1.
         -2   -1    0    0    0  501 -0.00000000000E+00 -0.00000000000E+00 -0.16092544837E+03  0.16092544837E+03  0.00000000000E+00 0.  1.
         23    2    1    2    0    0  0.25232850530E+02 -0.82212365360E+02  0.38098338579E+02  0.13130421521E+03  0.91617376982E+02 0.  0.
          5    1    3    3  502    0  0.13081077187E+02 -0.48156983663E+02  0.67771886690E+02  0.84293109335E+02  0.47000000000E+01 0. -1.
         -5    1    1    2    0  503 -0.12891985785E+02  0.10060240687E+03 -0.50754659625E+01  0.10166069998E+03  0.47000000000E+01 0.  1.
          5    1    1    2  503    0 -0.12340864744E+02 -0.18390041508E+02 -0.58852116414E+02  0.63056737750E+02  0.47000000000E+01 0.  1.
         -5    1    3    3    0  502  0.12151773343E+02 -0.34055381697E+02 -0.29673548111E+02  0.47011105873E+02  0.47000000000E+01 0.  1.
<mgrwt>
<rscale>  0 0.14479794E+03</rscale>
<asrwt>0</asrwt>
<pdfrwt beam="1">  1        2 0.20784032E-01 0.15180612E+03</pdfrwt>
<pdfrwt beam="2">  1       -2 0.24757761E-01 0.15180612E+03</pdfrwt>
<totfact> 0.37107786E+03</totfact>
</mgrwt>
</event>
<event>
 8    1  0.6985133E-005  0.1331786E+03  0.7546771E-02  0.1235970E+00
         -1   -1    0    0    0  501 -0.00000000000E+00  0.00000000000E+00  0.10845978595E+03  0.10845978595E+03  0.00000000000E+00 0.  1.
          1   -1    0    0  501    0  0.00000000000E+00 -0.00000000000E+00 -0.14245275012E+03  0.14245275012E+03  0.00000000000E+00 0. -1.
         25    2    1    2    0    0  0.36942479673E+02  0.27510057575E+02  0.22055732952E+02  0.13499254805E+03  0.12495992398E+03 0.  0.
         23    2    1    2    0    0 -0.36942479673E+02 -0.27510057575E+02 -0.56048697115E+02  0.11591998802E+03  0.90412593719E+02 0.  0.
          5    1    3    3  502    0 -0.39051954914E+02  0.37632501667E+02 -0.20912141936E+01  0.54476816547E+02  0.47000000000E+01 0. -1.
         -5    1    3    3    0  502  0.75994434587E+02 -0.10122444092E+02  0.24146947146E+02  0.80515731501E+02  0.47000000000E+01 0. -1.
          5    1    4    4  503    0 -0.14051669675E+02  0.19813500281E+02 -0.58050898167E+02  0.63103256588E+02  0.47000000000E+01 0. -1.
         -5    1    4    4    0  503 -0.22890809998E+02 -0.47323557856E+02  0.20022010522E+01  0.52816731436E+02  0.47000000000E+01 0.  1.
<mgrwt>
<rscale>  0 0.12442546E+03</rscale>
<asrwt>0</asrwt>
<pdfrwt beam="1">  1        1 0.21915808E-01 0.13317857E+03</pdfrwt>
<pdfrwt beam="2">  1       -1 0.16686121E-01 0.13317857E+03</pdfrwt>
<totfact> 0.58380514E+03</totfact>
</mgrwt>
</event>
<event>
 8    1  0.6985133E-005  0.1589043E+03  0.7546771E-02  0.1197175E+00
         -1   -1    0    0    0  501 -0.00000000000E+00  0.00000000000E+00  0.25784922503E+03  0.25784922503E+03  0.00000000000E+00 0.  1.
          1   -1    0    0  501    0  0.00000000000E+00 -0.00000000000E+00 -0.11022408556E+03  0.11022408556E+03  0.00000000000E+00 0. -1.
         25    2    1    2    0    0  0.23704922292E+02  0.95160786564E+02  0.16770911045E+03  0.23103448213E+03  0.12503234607E+03 0.  0.
         23    2    1    2    0    0 -0.23704922292E+02 -0.95160786564E+02 -0.20083970974E+02  0.13703882846E+03  0.93588332473E+02 0.  0.
          5    1    3    3  502    0  0.10554303125E+02  0.12104949277E+03  0.10080574139E+03  0.15795018364E+03  0.47000000000E+01 0. -1.
         -5    1    3    3    0  502  0.13150619167E+02 -0.25888706209E+02  0.66903369064E+02  0.73084298490E+02  0.47000000000E+01 0. -1.
          5    1    4    4  503    0  0.35410151360E+01 -0.31772957269E+02 -0.51725076447E+02  0.60988795161E+02  0.47000000000E+01 0. -1.
         -5    1    4    4    0  503 -0.27245937428E+02 -0.63387829295E+02  0.31641105473E+02  0.76050033298E+02  0.47000000000E+01 0.  1.
<mgrwt>
<rscale>  0 0.15271580E+03</rscale>
<asrwt>0</asrwt>
<pdfrwt beam="1">  1        1 0.16957552E-01 0.15890433E+03</pdfrwt>
<pdfrwt beam="2">  1       -1 0.39669111E-01 0.15890433E+03</pdfrwt>
<totfact> 0.19468944E+03</totfact>
</mgrwt>
</event>
<event>
 8    1  0.6985133E-005  0.2244340E+03  0.7546771E-02  0.1133787E+00
         -2   -1    0    0    0  501 -0.00000000000E+00  0.00000000000E+00  0.45920698293E+03  0.45920698293E+03  0.00000000000E+00 0.  1.
          2   -1    0    0  501    0  0.00000000000E+00 -0.00000000000E+00 -0.10390935938E+03  0.10390935938E+03  0.00000000000E+00 0. -1.
         25    2    1    2    0    0 -0.88339118679E+01 -0.18613925912E+03  0.22572097983E+03  0.31830895694E+03  0.12507905319E+03 0.  0.
         23    2    1    2    0    0  0.88339118679E+01  0.18613925912E+03  0.12957664372E+03  0.24480738538E+03  0.91731606062E+02 0.  0.
          5    1    3    3  502    0 -0.38709902344E+02 -0.46725993802E+01  0.27965113178E+02  0.48212314604E+02  0.47000000000E+01 0. -1.
         -5    1    3    3    0  502  0.29875990476E+02 -0.18146665974E+03  0.19775586665E+03  0.27009664233E+03  0.47000000000E+01 0. -1.
          5    1    4    4  503    0 -0.73762152406E+01  0.11104475032E+03  0.23652135251E+02  0.11387211523E+03  0.47000000000E+01 0. -1.
         -5    1    4    4    0  503  0.16210127108E+02  0.75094508800E+02  0.10592450847E+03  0.13093527014E+03  0.47000000000E+01 0.  1.
<mgrwt>
<rscale>  0 0.22012899E+03</rscale>
<asrwt>0</asrwt>
<pdfrwt beam="1">  1        2 0.15986056E-01 0.22443402E+03</pdfrwt>
<pdfrwt beam="2">  1       -2 0.70647227E-01 0.22443402E+03</pdfrwt>
<totfact> 0.67379198E+02</totfact>
</mgrwt>
</event>
<event>
 8    1  0.6985133E-005  0.1397548E+03  0.7546771E-02  0.1225762E+00
          2   -1    0    0  501    0  0.00000000000E+00  0.00000000000E+00  0.47995660290E+03  0.47995660290E+03  0.00000000000E+00 0.  1.
         -2   -1    0    0    0  501 -0.00000000000E+00 -0.00000000000E+00 -0.42321790629E+02  0.42321790629E+02  0.00000000000E+00 0. -1.
         25    2    1    2    0    0 -0.54468289639E+02  0.30339590070E+02  0.11204611852E+03  0.17912493836E+03  0.12507647886E+03 0.  0.
         23    2    1    2    0    0  0.54468289639E+02 -0.30339590070E+02  0.32558869375E+03  0.34315345517E+03  0.88651063125E+02 0.  0.
          5    1    3    3  502    0 -0.16953902683E+02 -0.40173061846E+02  0.83242854557E+02  0.94089173390E+02  0.47000000000E+01 0.  1.
         -5    1    4    4    0  503  0.34264413212E+02 -0.58086900728E+02  0.26370389832E+03  0.27223147143E+03  0.47000000000E+01 0.  1.
          5    1    4    4  503    0  0.20203876428E+02  0.27747310658E+02  0.61884795433E+02  0.70921983738E+02  0.47000000000E+01 0. -1.
         -5    1    3    3    0  502 -0.37514386956E+02  0.70512651916E+02  0.28803263960E+02  0.85035764968E+02  0.47000000000E+01 0.  1.
<mgrwt>
<rscale>  0 0.13114832E+03</rscale>
<asrwt>0</asrwt>
<pdfrwt beam="1">  1        2 0.73839473E-01 0.13975482E+03</pdfrwt>
<pdfrwt beam="2">  1       -2 0.65110451E-02 0.13975482E+03</pdfrwt>
<totfact> 0.81365160E+03</totfact>
</mgrwt>
</event>
<event>
 8    1  0.6985133E-005  0.1316047E+03  0.7546771E-02  0.1238877E+00
         -2   -1    0    0    0  501 -0.00000000000E+00  0.00000000000E+00  0.69775614247E+02  0.69775614247E+02  0.00000000000E+00 0.  1.
          2   -1    0    0  501    0  0.00000000000E+00 -0.00000000000E+00 -0.19410052185E+03  0.19410052185E+03  0.00000000000E+00 0. -1.
         25    2    1    2    0    0 -0.13164424055E+02 -0.39155198414E+02 -0.88063883310E+02  0.15835102509E+03  0.12495346326E+03 0.  0.
         23    2    1    2    0    0  0.13164424055E+02  0.39155198414E+02 -0.36261024298E+02  0.10552511101E+03  0.90079162671E+02 0.  0.
          5    1    4    4  502    0  0.38514724236E+02 -0.36913213398E+01  0.67633378276E+01  0.39558091142E+02  0.47000000000E+01 0. -1.
         -5    1    3    3    0  503  0.47607522516E+02 -0.16984099926E+02 -0.77485150261E+02  0.92633548789E+02  0.47000000000E+01 0. -1.
          5    1    3    3  503    0 -0.60771946571E+02 -0.22171098488E+02 -0.10578733049E+02  0.65717476299E+02  0.47000000000E+01 0. -1.
         -5    1    4    4    0  502 -0.25350300181E+02  0.42846519753E+02 -0.43024362125E+02  0.65967019870E+02  0.47000000000E+01 0.  1.
<mgrwt>
<rscale>  0 0.12259459E+03</rscale>
<asrwt>0</asrwt>
<pdfrwt beam="1">  1        2 0.29861618E-01 0.13160471E+03</pdfrwt>
<pdfrwt beam="2">  1       -2 0.10734710E-01 0.13160471E+03</pdfrwt>
<totfact> 0.98212295E+03</totfact>
</mgrwt>
</event>
<event>
 8    1  0.6985133E-005  0.2131248E+03  0.7546771E-02  0.1142841E+00
         -1   -1    0    0    0  501 -0.00000000000E+00  0.00000000000E+00  0.36551326938E+02  0.36551326938E+02  0.00000000000E+00 0.  1.
          1   -1    0    0  501    0  0.00000000000E+00 -0.00000000000E+00 -0.12092400610E+04  0.12092400610E+04  0.00000000000E+00 0. -1.
         25    2    1    2    0    0  0.14641130103E+03 -0.91384194210E+02 -0.76175003590E+03  0.79100271142E+03  0.12503932286E+03 0.  0.
         23    2    1    2    0    0 -0.14641130103E+03  0.91384194210E+02 -0.41093869820E+03  0.45478867655E+03  0.90414526625E+02 0.  0.
          5    1    4    4  502    0 -0.54716813569E+02  0.70049248480E+02 -0.12310625935E+03  0.15191467339E+03  0.47000000000E+01 0. -1.
         -5    1    4    4    0  502 -0.91694487457E+02  0.21334945731E+02 -0.28783243885E+03  0.30287400317E+03  0.47000000000E+01 0.  1.
          5    1    3    3  503    0  0.57731790749E+01 -0.53430925710E+02 -0.10244918731E+03  0.11578479779E+03  0.47000000000E+01 0. -1.
         -5    1    3    3    0  503  0.14063812195E+03 -0.37953268501E+02 -0.65930084859E+03  0.67521791363E+03  0.47000000000E+01 0. -1.
<mgrwt>
<rscale>  0 0.20839835E+03</rscale>
<asrwt>0</asrwt>
<pdfrwt beam="1">  1        1 0.18603693E+00 0.21312478E+03</pdfrwt>
<pdfrwt beam="2">  1       -1 0.56232812E-02 0.21312478E+03</pdfrwt>
<totfact> 0.16630872E+03</totfact>
</mgrwt>
</event>
<event>
 7    1  0.6985133E-005  0.1452067E+03  0.7546771E-02  0.1215663E+00
         -1   -1    0    0    0  501 -0.00000000000E+00  0.00000000000E+00  0.78139362544E+02  0.78139362544E+02  0.00000000000E+00 0.  1.
          1   -1    0    0  501    0  0.00000000000E+00 -0.00000000000E+00 -0.22407322721E+03  0.22407322721E+03  0.00000000000E+00 0. -1.
         23    2    1    2    0    0  0.29661892078E+02 -0.68049889953E+02 -0.64117510693E+02  0.13554251364E+03  0.93541982357E+02 0.  0.
          5    1    3    3  502    0  0.58963875078E+02 -0.27765503439E+02 -0.53363139518E+02  0.84364544714E+02  0.47000000000E+01 0. -1.
         -5    1    3    3    0  502 -0.29301983000E+02 -0.40284386514E+02 -0.10754371174E+02  0.51177968931E+02  0.47000000000E+01 0.  1.
          5    1    1    2  503    0 -0.41089926499E+02  0.13375262688E+02  0.21977812368E+02  0.48707226858E+02  0.47000000000E+01 0.  1.
         -5    1    1    2    0  503  0.11428034421E+02  0.54674627265E+02 -0.10379416635E+03  0.11796284926E+03  0.47000000000E+01 0.  1.
<mgrwt>
<rscale>  0 0.13827949E+03</rscale>
<asrwt>0</asrwt>
<pdfrwt beam="1">  1        1 0.34472804E-01 0.14520674E+03</pdfrwt>
<pdfrwt beam="2">  1       -1 0.12021440E-01 0.14520674E+03</pdfrwt>
<totfact> 0.55590174E+03</totfact>
</mgrwt>
</event>
<event>
 8    1  0.6985133E-005  0.1822697E+03  0.7546771E-02  0.1171271E+00
          4   -1    0    0  501    0  0.00000000000E+00  0.00000000000E+00  0.31232115286E+02  0.31232115286E+02  0.00000000000E+00 0. -1.
         -4   -1    0    0    0  501 -0.00000000000E+00 -0.00000000000E+00 -0.94955724445E+03  0.94955724445E+03  0.00000000000E+00 0.  1.
         25    2    1    2    0    0  0.10682651557E+03  0.78698257696E+02 -0.43553184669E+03  0.47213369760E+03  0.12496767076E+03 0.  0.
         23    2    1    2    0    0 -0.10682651557E+03 -0.78698257696E+02 -0.48279328248E+03  0.50865566214E+03  0.89643230783E+02 0.  0.
          5    1    3    3  502    0 -0.23059086872E+02 -0.41674904289E+01 -0.30398431219E+02  0.38668386111E+02  0.47000000000E+01 0. -1.
         -5    1    4    4    0  503 -0.48493429349E+02 -0.11987730730E+02 -0.31373381197E+03  0.31772049532E+03  0.47000000000E+01 0.  1.
          5    1    4    4  503    0 -0.58333086225E+02 -0.66710526966E+02 -0.16905947051E+03  0.19093516681E+03  0.47000000000E+01 0. -1.
         -5    1    3    3    0  502  0.12988560245E+03  0.82865748125E+02 -0.40513341547E+03  0.43346531149E+03  0.47000000000E+01 0. -1.
<mgrwt>
<rscale>  0 0.17646281E+03</rscale>
<asrwt>0</asrwt>
<pdfrwt beam="1">  1        4 0.48049405E-02 0.18226969E+03</pdfrwt>
<pdfrwt beam="2">  1       -4 0.14608574E+00 0.18226969E+03</pdfrwt>
<totfact> 0.15209192E+02</totfact>
</mgrwt>
</event>
<event>
 8    1  0.6985133E-005  0.1323785E+03  0.7546771E-02  0.1238637E+00
         -1   -1    0    0    0  501 -0.00000000000E+00  0.00000000000E+00  0.17614199439E+02  0.17614199439E+02  0.00000000000E+00 0.  1.
          1   -1    0    0  501    0  0.00000000000E+00 -0.00000000000E+00 -0.77736177269E+03  0.77736177269E+03  0.00000000000E+00 0. -1.
         25    2    1    2    0    0  0.16145713880E+02  0.40648795554E+02 -0.36441338505E+03  0.38771277467E+03  0.12494427472E+03 0.  0.
         23    2    1    2    0    0 -0.16145713880E+02 -0.40648795554E+02 -0.39533418820E+03  0.40726319746E+03  0.87528183945E+02 0.  0.
          5    1    4    4  502    0  0.53157823362E+01  0.22733184021E+02 -0.18408188173E+03  0.18561595938E+03  0.47000000000E+01 0. -1.
         -5    1    3    3    0  503  0.39435978715E+02  0.98138820553E+00 -0.32362619056E+03  0.32605545657E+03  0.47000000000E+01 0.  1.
          5    1    3    3  503    0 -0.23290264835E+02  0.39667407348E+02 -0.40787194489E+02  0.61657318107E+02  0.47000000000E+01 0.  1.
         -5    1    4    4    0  502 -0.21461496216E+02 -0.63381979575E+02 -0.21125230648E+03  0.22164723807E+03  0.47000000000E+01 0.  1.
<mgrwt>
<rscale>  0 0.12274420E+03</rscale>
<asrwt>0</asrwt>
<pdfrwt beam="1">  1        1 0.11959411E+00 0.13237855E+03</pdfrwt>
<pdfrwt beam="2">  1       -1 0.27098769E-02 0.13237855E+03</pdfrwt>
<totfact> 0.10117837E+04</totfact>
</mgrwt>
</event>
<event>
 8    1  0.6985133E-005  0.1428054E+03  0.7546771E-02  0.1220342E+00
         -4   -1    0    0    0  501 -0.00000000000E+00  0.00000000000E+00  0.16443371943E+02  0.16443371943E+02  0.00000000000E+00 0.  1.
          4   -1    0    0  501    0  0.00000000000E+00 -0.00000000000E+00 -0.10020793168E+04  0.10020793168E+04  0.00000000000E+00 0. -1.
         25    2    1    2    0    0 -0.28267698154E+02  0.63090469949E+02 -0.56670314143E+03  0.58441922432E+03  0.12495562848E+03 0.  0.
         23    2    1    2    0    0  0.28267698154E+02 -0.63090469949E+02 -0.41893280346E+03  0.43410346446E+03  0.90341872255E+02 0.  0.
          5    1    4    4  502    0  0.49716936113E+02 -0.57911791666E+02 -0.38993843885E+03  0.39736585843E+03  0.47000000000E+01 0. -1.
         -5    1    4    4    0  502 -0.21449237959E+02 -0.51786782832E+01 -0.28994364608E+02  0.36737606029E+02  0.47000000000E+01 0.  1.
          5    1    3    3  503    0 -0.58350084029E+02  0.64307585091E+02 -0.52823192724E+03  0.53534218661E+03  0.47000000000E+01 0.  1.
         -5    1    3    3    0  503  0.30082385874E+02 -0.12171151416E+01 -0.38471214188E+02  0.49077037708E+02  0.47000000000E+01 0.  1.
<mgrwt>
<rscale>  0 0.13491336E+03</rscale>
<asrwt>0</asrwt>
<pdfrwt beam="1">  1        4 0.15416612E+00 0.14280539E+03</pdfrwt>
<pdfrwt beam="2">  1       -4 0.25297483E-02 0.14280539E+03</pdfrwt>
<totfact> 0.35219401E+02</totfact>
</mgrwt>
</event>
<event>
 8    1  0.6985133E-005  0.1321710E+03  0.7546771E-02  0.1238866E+00
          1   -1    0    0  501    0  0.00000000000E+00  0.00000000000E+00  0.69777277934E+03  0.69777277934E+03  0.00000000000E+00 0. -1.
         -1   -1    0    0    0  501 -0.00000000000E+00 -0.00000000000E+00 -0.21574086949E+02  0.21574086949E+02  0.00000000000E+00 0.  1.
         25    2    1    2    0    0  0.40632488383E+02 -0.14195483698E+02  0.25838829429E+03  0.29023042007E+03  0.12496669651E+03 0.  0.
         23    2    1    2    0    0 -0.40632488383E+02  0.14195483698E+02  0.41781039810E+03  0.42911644622E+03  0.87879945303E+02 0.  0.
          5    1    3    3  502    0  0.54630771453E+02 -0.32316341423E+02  0.25914126599E+03  0.26684293667E+03  0.47000000000E+01 0. -1.
         -5    1    4    4    0  503 -0.57320302966E+02  0.31819706156E+02  0.21549091414E+03  0.22529211018E+03  0.47000000000E+01 0.  1.
          5    1    4    4  503    0  0.16687814583E+02 -0.17624222458E+02  0.20231948396E+03  0.20382433604E+03  0.47000000000E+01 0. -1.
         -5    1    3    3    0  502 -0.13998283070E+02  0.18120857725E+02 -0.75297169328E+00  0.23387483404E+02  0.47000000000E+01 0. -1.
<mgrwt>
<rscale>  0 0.12260180E+03</rscale>
<asrwt>0</asrwt>
<pdfrwt beam="1">  1        1 0.10734964E+00 0.13217105E+03</pdfrwt>
<pdfrwt beam="2">  1       -1 0.33190908E-02 0.13217105E+03</pdfrwt>
<totfact> 0.88134463E+03</totfact>
</mgrwt>
</event>
<event>
 7    1  0.6985133E-005  0.1316327E+03  0.7546771E-02  0.1238660E+00
         -2   -1    0    0    0  501 -0.00000000000E+00  0.00000000000E+00  0.50757174669E+02  0.50757174669E+02  0.00000000000E+00 0.  1.
          2   -1    0    0  501    0  0.00000000000E+00 -0.00000000000E+00 -0.29562542406E+03  0.29562542406E+03  0.00000000000E+00 0. -1.
         23    2    1    2    0    0 -0.31686066226E+02 -0.26874226229E+02 -0.50297143740E+02  0.11146756758E+03  0.90382438149E+02 0.  0.
          5    1    1    2  502    0 -0.13557120758E+02  0.47219097338E+02 -0.17424602726E+03  0.18109999086E+03  0.47000000000E+01 0.  1.
         -5    1    1    2    0  502  0.45243186984E+02 -0.20344871108E+02 -0.20325078394E+02  0.53815040283E+02  0.47000000000E+01 0.  1.
          5    1    3    3  503    0 -0.13655108173E+02  0.26686646146E+02 -0.45319796367E+02  0.54540012876E+02  0.47000000000E+01 0. -1.
         -5    1    3    3    0  503 -0.18030958053E+02 -0.53560872375E+02 -0.49773473732E+01  0.56927554705E+02  0.47000000000E+01 0.  1.
<mgrwt>
<rscale>  0 0.12273005E+03</rscale>
<asrwt>0</asrwt>
<pdfrwt beam="1">  1        2 0.45480834E-01 0.13163266E+03</pdfrwt>
<pdfrwt beam="2">  1       -2 0.78087962E-02 0.13163266E+03</pdfrwt>
<totfact> 0.10293677E+04</totfact>
</mgrwt>
</event>
<event>
 8    1  0.6985133E-005  0.1663056E+03  0.7546771E-02  0.1188025E+00
         -2   -1    0    0    0  501 -0.00000000000E+00  0.00000000000E+00  0.38831190305E+02  0.38831190305E+02  0.00000000000E+00 0.  1.
          2   -1    0    0  501    0  0.00000000000E+00 -0.00000000000E+00 -0.63171168311E+03  0.63171168311E+03  0.00000000000E+00 0. -1.
         25    2    1    2    0    0  0.60765435812E+02  0.91419300629E+02 -0.35743666071E+03  0.39423154565E+03  0.12493045446E+03 0.  0.
         23    2    1    2    0    0 -0.60765435812E+02 -0.91419300629E+02 -0.23544383210E+03  0.27631132776E+03  0.94150013602E+02 0.  0.
          5    1    4    4  502    0 -0.45961472152E+02 -0.44538487320E+02 -0.21226897083E+03  0.22175738940E+03  0.47000000000E+01 0. -1.
         -5    1    4    4    0  502 -0.14803963659E+02 -0.46880813309E+02 -0.23174861267E+02  0.54553938366E+02  0.47000000000E+01 0.  1.
          5    1    3    3  503    0  0.89497514634E+02  0.72768929219E+02 -0.18277294175E+03  0.21617853830E+03  0.47000000000E+01 0.  1.
         -5    1    3    3    0  503 -0.28732078822E+02  0.18650371410E+02 -0.17466371896E+03  0.17805300735E+03  0.47000000000E+01 0.  1.
<mgrwt>
<rscale>  0 0.16059616E+03</rscale>
<asrwt>0</asrwt>
<pdfrwt beam="1">  1        2 0.97186410E-01 0.16630558E+03</pdfrwt>
<pdfrwt beam="2">  1       -2 0.59740295E-02 0.16630558E+03</pdfrwt>
<totfact> 0.68814918E+03</totfact>
</mgrwt>
</event>
<event>
 8    1  0.6985133E-005  0.1282230E+03  0.7546771E-02  0.1243992E+00
          1   -1    0    0  501    0  0.00000000000E+00  0.00000000000E+00  0.33783305874E+03  0.33783305874E+03  0.00000000000E+00 0. -1.
         -1   -1    0    0    0  501 -0.00000000000E+00 -0.00000000000E+00 -0.42050159458E+02  0.42050159458E+02  0.00000000000E+00 0.  1.
         25    2    1    2    0    0 -0.28572092943E+02  0.45371095301E+01  0.10381808525E+03  0.16498284158E+03  0.12491674561E+03 0.  0.
         23    2    1    2    0    0  0.28572092943E+02 -0.45371095301E+01  0.19196481404E+03  0.21490037662E+03  0.92166871402E+02 0.  0.
          5    1    4    4  502    0 -0.12887748346E+02 -0.24950163668E+02  0.14876738107E+03  0.15146758199E+03  0.47000000000E+01 0. -1.
         -5    1    4    4    0  502  0.41459841289E+02  0.20413054138E+02  0.43197432970E+02  0.63432794627E+02  0.47000000000E+01 0.  1.
          5    1    3    3  503    0 -0.61347352294E+02  0.22143696870E+02  0.12922438061E+02  0.66655234978E+02  0.47000000000E+01 0.  1.
         -5    1    3    3    0  503  0.32775259351E+02 -0.17606587340E+02  0.90895647184E+02  0.98327606603E+02  0.47000000000E+01 0.  1.
<mgrwt>
<rscale>  0 0.11945917E+03</rscale>
<asrwt>0</asrwt>
<pdfrwt beam="1">  1        1 0.51974315E-01 0.12822302E+03</pdfrwt>
<pdfrwt beam="2">  1       -1 0.64692555E-02 0.12822302E+03</pdfrwt>
<totfact> 0.84900929E+03</totfact>
</mgrwt>
</event>
<event>
 8    1  0.6985133E-005  0.1269963E+03  0.7546771E-02  0.1246403E+00
          2   -1    0    0  501    0  0.00000000000E+00  0.00000000000E+00  0.10408752702E+03  0.10408752702E+03  0.00000000000E+00 0. -1.
         -2   -1    0    0    0  501 -0.00000000000E+00 -0.00000000000E+00 -0.11954807380E+03  0.11954807380E+03  0.00000000000E+00 0.  1.
         25    2    1    2    0    0 -0.40680217300E+01  0.22280012077E+02 -0.21165462307E+02  0.12874793283E+03  0.12496041643E+03 0.  0.
         23    2    1    2    0    0  0.40680217300E+01 -0.22280012077E+02  0.57049155341E+01  0.94887667986E+02  0.91968340942E+02 0.  0.
          5    1    3    3  502    0 -0.90392432980E+01 -0.44506154710E+02  0.20162800264E+02  0.49911263668E+02  0.47000000000E+01 0. -1.
         -5    1    4    4    0  503 -0.31553496143E+02 -0.22018449824E+02 -0.26240423607E+02  0.46809027789E+02  0.47000000000E+01 0.  1.
          5    1    4    4  503    0  0.35621517873E+02 -0.26156225269E+00  0.31945339141E+02  0.48078640197E+02  0.47000000000E+01 0. -1.
         -5    1    3    3    0  502  0.49712215680E+01  0.66786166787E+02 -0.41328262570E+02  0.78836669166E+02  0.47000000000E+01 0. -1.
<mgrwt>
<rscale>  0 0.11801823E+03</rscale>
<asrwt>0</asrwt>
<pdfrwt beam="1">  1        2 0.16013466E-01 0.12699627E+03</pdfrwt>
<pdfrwt beam="2">  1       -2 0.18392011E-01 0.12699627E+03</pdfrwt>
<totfact> 0.82109371E+03</totfact>
</mgrwt>
</event>
