<event>
 8    1  0.2964543E-004  0.2822798E+03  0.7546771E-02  0.1094469E+00
          3   -1    0    0  501    0  0.00000000000E+00  0.00000000000E+00  0.72220159414E+02  0.72220159414E+02  0.00000000000E+00 0. -1.
         -3   -1    0    0    0  501 -0.00000000000E+00 -0.00000000000E+00 -0.12608124224E+04  0.12608124224E+04  0.00000000000E+00 0.  1.
         23    2    1    2    0    0 -0.46425097438E+02  0.26273483899E+03 -0.35818127790E+03  0.45595546197E+03  0.91742412077E+02 0.  0.
         23    2    1    2    0    0  0.46425097438E+02 -0.26273483899E+03 -0.83041098508E+03  0.87707711983E+03  0.92179090388E+02 0.  0.
          5    1    3    3  502    0  0.80991975679E+01  0.19908302127E+02 -0.29550856144E+01  0.22198198706E+02  0.47000000000E+01 0.  1.
         -5    1    3    3    0  502 -0.54524295006E+02  0.24282653686E+03 -0.35522619229E+03  0.43375726327E+03  0.47000000000E+01 0. -1.
          5    1    4    4  503    0  0.48313854438E+02 -0.13831589428E+03 -0.32459938669E+03  0.35616339927E+03  0.47000000000E+01 0. -1.
         -5    1    4    4    0  503 -0.18887569995E+01 -0.12441894471E+03 -0.50581159839E+03  0.52091372056E+03  0.47000000000E+01 0.  1.
<mgrwt>
<rscale>  0 0.28224419E+03</rscale>
<asrwt>0</asrwt>
<pdfrwt beam="1">  1        3 0.11110795E-01 0.28227977E+03</pdfrwt>
<pdfrwt beam="2">  1       -3 0.19397112E+00 0.28227977E+03</pdfrwt>
<totfact> 0.26758579E+01</totfact>
</mgrwt>
</event>
<event>
 8    1  0.2964543E-004  0.1097772E+03  0.7546771E-02  0.1262922E+00
          2   -1    0    0  501    0  0.00000000000E+00  0.00000000000E+00  0.63053084064E+03  0.63053084064E+03  0.00000000000E+00 0. -1.
         -2   -1    0    0    0  501 -0.00000000000E+00 -0.00000000000E+00 -0.20650427142E+02  0.20650427142E+02  0.00000000000E+00 0.  1.
         23    2    1    2    0    0 -0.42004230061E+02 -0.32313820585E+02  0.20279835324E+03  0.23060400539E+03  0.96137905545E+02 0.  0.
         23    2    1    2    0    0  0.42004230061E+02  0.32313820585E+02  0.40708206026E+03  0.42057726239E+03  0.91437910687E+02 0.  0.
          5    1    4    4  502    0  0.27387448168E+02  0.46036637460E+02  0.39037099141E+03  0.39405715986E+03  0.47000000000E+01 0. -1.
         -5    1    3    3    0  503 -0.56038474020E+02  0.16459536898E+02  0.11559360543E+03  0.12959629062E+03  0.47000000000E+01 0.  1.
          5    1    3    3  503    0  0.14034243959E+02 -0.48773357483E+02  0.87204747810E+02  0.10100771478E+03  0.47000000000E+01 0. -1.
         -5    1    4    4    0  502  0.14616781893E+02 -0.13722816875E+02  0.16711068847E+02  0.26520102524E+02  0.47000000000E+01 0.  1.
<mgrwt>
<rscale>  0 0.10873967E+03</rscale>
<asrwt>0</asrwt>
<pdfrwt beam="1">  1        2 0.97004730E-01 0.10977721E+03</pdfrwt>
<pdfrwt beam="2">  1       -2 0.31769893E-02 0.10977721E+03</pdfrwt>
<totfact> 0.17205806E+04</totfact>
</mgrwt>
</event>
<event>
 8    1  0.2964543E-004  0.9157672E+02  0.7546771E-02  0.1300489E+00
          1   -1    0    0  501    0  0.00000000000E+00  0.00000000000E+00  0.15845557358E+03  0.15845557358E+03  0.00000000000E+00 0. -1.
         -1   -1    0    0    0  501 -0.00000000000E+00 -0.00000000000E+00 -0.54921659127E+02  0.54921659127E+02  0.00000000000E+00 0.  1.
         23    2    1    2    0    0  0.12495038599E+02 -0.34564033146E+01  0.24798691414E+02  0.92606662885E+02  0.88277665359E+02 0.  0.
         23    2    1    2    0    0 -0.12495038599E+02  0.34564033146E+01  0.78735223038E+02  0.12077056982E+03  0.90654412328E+02 0.  0.
          5    1    3    3  502    0  0.47557207167E+02 -0.12065846675E+02  0.26874606376E+02  0.56139175959E+02  0.47000000000E+01 0. -1.
         -5    1    4    4    0  503 -0.37746368967E+02 -0.44846924430E+01  0.84942745613E+02  0.93178650284E+02  0.47000000000E+01 0.  1.
          5    1    4    4  503    0  0.25251330369E+02  0.79410957576E+01 -0.62075225750E+01  0.27591919537E+02  0.47000000000E+01 0. -1.
         -5    1    3    3    0  502 -0.35062168569E+02  0.86094433600E+01 -0.20759149613E+01  0.36467486925E+02  0.47000000000E+01 0.  1.
<mgrwt>
<rscale>  0 0.90982923E+02</rscale>
<asrwt>0</asrwt>
<pdfrwt beam="1">  1        1 0.24377780E-01 0.91576717E+02</pdfrwt>
<pdfrwt beam="2">  1       -1 0.84494861E-02 0.91576717E+02</pdfrwt>
<totfact> 0.14074887E+04</totfact>
</mgrwt>
</event>
<event>
 8    1  0.2964543E-004  0.1012363E+03  0.7546771E-02  0.1283416E+00
          2   -1    0    0  501    0  0.00000000000E+00  0.00000000000E+00  0.16148476845E+03  0.16148476845E+03  0.00000000000E+00 0. -1.
         -2   -1    0    0    0  501 -0.00000000000E+00 -0.00000000000E+00 -0.79834252428E+02  0.79834252428E+02  0.00000000000E+00 0.  1.
         23    2    1    2    0    0 -0.16842841191E+02 -0.24460586959E+02  0.10354291807E+03  0.13774261544E+03  0.85848067032E+02 0.  0.
         23    2    1    2    0    0  0.16842841191E+02  0.24460586959E+02 -0.21892402041E+02  0.10357640544E+03  0.96782193006E+02 0.  0.
          5    1    4    4  502    0  0.40629827667E+02  0.69622534785E+01  0.24647827508E+02  0.48258276706E+02  0.47000000000E+01 0. -1.
         -5    1    3    3    0  503 -0.51535416607E+02 -0.90139699318E+01  0.57737269742E+02  0.78056602130E+02  0.47000000000E+01 0.  1.
          5    1    3    3  503    0  0.34692575416E+02 -0.15446617027E+02  0.45805648326E+02  0.59686013312E+02  0.47000000000E+01 0. -1.
         -5    1    4    4    0  502 -0.23786986475E+02  0.17498333481E+02 -0.46540229550E+02  0.55318128735E+02  0.47000000000E+01 0.  1.
<mgrwt>
<rscale>  0 0.98530682E+02</rscale>
<asrwt>0</asrwt>
<pdfrwt beam="1">  1        2 0.24843810E-01 0.10123633E+03</pdfrwt>
<pdfrwt beam="2">  1       -2 0.12282193E-01 0.10123633E+03</pdfrwt>
<totfact> 0.94851427E+03</totfact>
</mgrwt>
</event>
<event>
 8    1  0.2964543E-004  0.1028997E+03  0.7546771E-02  0.1279336E+00
          2   -1    0    0  501    0  0.00000000000E+00  0.00000000000E+00  0.33654341093E+03  0.33654341093E+03  0.00000000000E+00 0. -1.
         -2   -1    0    0    0  501 -0.00000000000E+00 -0.00000000000E+00 -0.81646735536E+02  0.81646735536E+02  0.00000000000E+00 0.  1.
         23    2    1    2    0    0 -0.56498362526E+01  0.17103452337E+02 -0.38804033186E+02  0.10997321838E+03  0.10131094234E+03 0.  0.
         23    2    1    2    0    0  0.56498362526E+01 -0.17103452337E+02  0.29370070858E+03  0.30821692809E+03  0.91723060394E+02 0.  0.
          5    1    4    4  502    0 -0.91580194772E-01 -0.43285591467E+02  0.26542768748E+03  0.26897508824E+03  0.47000000000E+01 0. -1.
         -5    1    4    4    0  502  0.57414164473E+01  0.26182139130E+02  0.28273021105E+02  0.39241839848E+02  0.47000000000E+01 0.  1.
          5    1    3    3  503    0 -0.46334991666E+02  0.30985023250E+02 -0.36242900116E+02  0.66653138916E+02  0.47000000000E+01 0. -1.
         -5    1    3    3    0  503  0.40685155413E+02 -0.13881570912E+02 -0.25611330701E+01  0.43320079462E+02  0.47000000000E+01 0.  1.
<mgrwt>
<rscale>  0 0.10045800E+03</rscale>
<asrwt>0</asrwt>
<pdfrwt beam="1">  1        2 0.51775909E-01 0.10289974E+03</pdfrwt>
<pdfrwt beam="2">  1       -2 0.12561036E-01 0.10289974E+03</pdfrwt>
<totfact> 0.41969458E+03</totfact>
</mgrwt>
</event>
<event>
 8    1  0.2964543E-004  0.1793104E+03  0.7546771E-02  0.1168710E+00
         -1   -1    0    0    0  501 -0.00000000000E+00  0.00000000000E+00  0.16803340588E+03  0.16803340588E+03  0.00000000000E+00 0.  1.
          1   -1    0    0  501    0  0.00000000000E+00 -0.00000000000E+00 -0.34431802356E+03  0.34431802356E+03  0.00000000000E+00 0. -1.
         23    2    1    2    0    0  0.10436527134E+03 -0.11205408776E+03 -0.25934097066E+03  0.31473928505E+03  0.91404868828E+02 0.  0.
         23    2    1    2    0    0 -0.10436527134E+03  0.11205408776E+03  0.83056352986E+02  0.19761214439E+03  0.93295087729E+02 0.  0.
          5    1    3    3  502    0  0.61283594010E+02 -0.37380585231E+02 -0.19265043904E+03  0.20564354770E+03  0.47000000000E+01 0. -1.
         -5    1    4    4    0  503 -0.59922281163E+02  0.10288169206E+03  0.21635530717E+02  0.12110123258E+03  0.47000000000E+01 0.  1.
          5    1    4    4  503    0 -0.44442990174E+02  0.91723956923E+01  0.61420822269E+02  0.76510911813E+02  0.47000000000E+01 0. -1.
         -5    1    3    3    0  502  0.43081677327E+02 -0.74673502525E+02 -0.66690531625E+02  0.10909573736E+03  0.47000000000E+01 0.  1.
<mgrwt>
<rscale>  0 0.17906581E+03</rscale>
<asrwt>0</asrwt>
<pdfrwt beam="1">  1        1 0.52972003E-01 0.17931035E+03</pdfrwt>
<pdfrwt beam="2">  1       -1 0.25851294E-01 0.17931035E+03</pdfrwt>
<totfact> 0.96571917E+02</totfact>
</mgrwt>
</event>
<event>
 8    1  0.2964543E-004  0.1115612E+03  0.7546771E-02  0.1257855E+00
          1   -1    0    0  501    0  0.00000000000E+00  0.00000000000E+00  0.31687421526E+03  0.31687421526E+03  0.00000000000E+00 0. -1.
         -1   -1    0    0    0  501 -0.00000000000E+00 -0.00000000000E+00 -0.45632491203E+02  0.45632491203E+02  0.00000000000E+00 0.  1.
         23    2    1    2    0    0  0.55541314979E+02  0.34509276691E+02  0.67538014910E+02  0.13041194658E+03  0.90388962304E+02 0.  0.
         23    2    1    2    0    0 -0.55541314979E+02 -0.34509276691E+02  0.20370370915E+03  0.23209475988E+03  0.89983601817E+02 0.  0.
          5    1    3    3  502    0  0.51296459592E+02  0.12869762121E+02  0.86135268878E+02  0.10118464354E+03  0.47000000000E+01 0. -1.
         -5    1    4    4    0  503 -0.17480932186E+02  0.30426508459E+02  0.74691473655E+02  0.82657495993E+02  0.47000000000E+01 0.  1.
          5    1    4    4  503    0 -0.38060382793E+02 -0.64935785149E+02  0.12901223549E+03  0.14943726389E+03  0.47000000000E+01 0. -1.
         -5    1    3    3    0  502  0.42448553866E+01  0.21639514569E+02 -0.18597253968E+02  0.29227303043E+02  0.47000000000E+01 0.  1.
<mgrwt>
<rscale>  0 0.11147902E+03</rscale>
<asrwt>0</asrwt>
<pdfrwt beam="1">  1        1 0.48749878E-01 0.11156116E+03</pdfrwt>
<pdfrwt beam="2">  1       -1 0.70203835E-02 0.11156116E+03</pdfrwt>
<totfact> 0.80528409E+03</totfact>
</mgrwt>
</event>
<event>
 8    1  0.2964543E-004  0.1070711E+03  0.7546771E-02  0.1266641E+00
          1   -1    0    0  501    0  0.00000000000E+00  0.00000000000E+00  0.99689701339E+02  0.99689701339E+02  0.00000000000E+00 0. -1.
         -1   -1    0    0    0  501 -0.00000000000E+00 -0.00000000000E+00 -0.14017835457E+03  0.14017835457E+03  0.00000000000E+00 0.  1.
         23    2    1    2    0    0 -0.32264555119E+02 -0.44320450378E+02  0.31713357019E+02  0.11166900746E+03  0.91972421816E+02 0.  0.
         23    2    1    2    0    0  0.32264555119E+02  0.44320450378E+02 -0.72202010250E+02  0.12819904845E+03  0.90645253053E+02 0.  0.
          5    1    3    3  502    0 -0.39800176218E+02  0.53430278279E+01  0.43987508396E+02  0.59746069898E+02  0.47000000000E+01 0. -1.
         -5    1    3    3    0  502  0.75356210996E+01 -0.49663478206E+02 -0.12274151377E+02  0.51922937560E+02  0.47000000000E+01 0.  1.
          5    1    4    4  503    0  0.73536244906E+01  0.69484454030E+02 -0.44204916190E+02  0.82815033420E+02  0.47000000000E+01 0. -1.
         -5    1    4    4    0  503  0.24910930628E+02 -0.25164003652E+02 -0.27997094061E+02  0.45384015032E+02  0.47000000000E+01 0.  1.
<mgrwt>
<rscale>  0 0.10678555E+03</rscale>
<asrwt>0</asrwt>
<pdfrwt beam="1">  1        1 0.15336877E-01 0.10707115E+03</pdfrwt>
<pdfrwt beam="2">  1       -1 0.21565901E-01 0.10707115E+03</pdfrwt>
<totfact> 0.60186501E+03</totfact>
</mgrwt>
</event>
<event>
 8    1  0.2964543E-004  0.9604399E+02  0.7546771E-02  0.1289365E+00
         -1   -1    0    0    0  501 -0.00000000000E+00  0.00000000000E+00  0.16159557038E+02  0.16159557038E+02  0.00000000000E+00 0.  1.
          1   -1    0    0  501    0  0.00000000000E+00 -0.00000000000E+00 -0.56592496930E+03  0.56592496930E+03  0.00000000000E+00 0. -1.
         23    2    1    2    0    0 -0.18031845365E+02 -0.20779333360E+02 -0.28338803777E+03  0.29892140595E+03  0.91040094676E+02 0.  0.
         23    2    1    2    0    0  0.18031845365E+02  0.20779333360E+02 -0.26637737449E+03  0.28316312039E+03  0.92019122839E+02 0.  0.
          5    1    3    3  502    0  0.28598299926E+02 -0.24834583640E+02 -0.19594912445E+03  0.19963158236E+03  0.47000000000E+01 0. -1.
         -5    1    4    4    0  503 -0.25568803236E+02  0.69830057943E+01 -0.20349700000E+03  0.20526968865E+03  0.47000000000E+01 0.  1.
          5    1    4    4  503    0  0.43600648601E+02  0.13796327565E+02 -0.62880374486E+02  0.77893431740E+02  0.47000000000E+01 0. -1.
         -5    1    3    3    0  502 -0.46630145291E+02  0.40552502802E+01 -0.87438913322E+02  0.99289823586E+02  0.47000000000E+01 0.  1.
<mgrwt>
<rscale>  0 0.95808726E+02</rscale>
<asrwt>0</asrwt>
<pdfrwt beam="1">  1        1 0.87065379E-01 0.96043985E+02</pdfrwt>
<pdfrwt beam="2">  1       -1 0.24860857E-02 0.96043985E+02</pdfrwt>
<totfact> 0.17407571E+04</totfact>
</mgrwt>
</event>
<event>
 8    1  0.2964543E-004  0.9111853E+02  0.7546771E-02  0.1308545E+00
         -1   -1    0    0    0  501 -0.00000000000E+00  0.00000000000E+00  0.21265208103E+03  0.21265208103E+03  0.00000000000E+00 0.  1.
          1   -1    0    0  501    0  0.00000000000E+00 -0.00000000000E+00 -0.36681645597E+02  0.36681645597E+02  0.00000000000E+00 0. -1.
         23    2    1    2    0    0  0.64238457034E+01  0.77984865749E+00  0.46275935700E+02  0.90830574766E+02  0.77890032288E+02 0.  0.
         23    2    1    2    0    0 -0.64238457034E+01 -0.77984865749E+00  0.12969449973E+03  0.15850315186E+03  0.90888458733E+02 0.  0.
          5    1    4    4  502    0 -0.46586165191E+02 -0.10821396664E+02  0.55535940517E+02  0.73441841630E+02  0.47000000000E+01 0. -1.
         -5    1    3    3    0  503  0.38788606809E+02  0.15575092464E+02  0.28203284569E+02  0.50642420795E+02  0.47000000000E+01 0.  1.
          5    1    3    3  503    0 -0.32364761106E+02 -0.14795243806E+02  0.18072651131E+02  0.40188153971E+02  0.47000000000E+01 0. -1.
         -5    1    4    4    0  502  0.40162319487E+02  0.10041548007E+02  0.74158559213E+02  0.85061310227E+02  0.47000000000E+01 0.  1.
<mgrwt>
<rscale>  0 0.87689762E+02</rscale>
<asrwt>0</asrwt>
<pdfrwt beam="1">  1        1 0.56433302E-02 0.91118527E+02</pdfrwt>
<pdfrwt beam="2">  1       -1 0.32715704E-01 0.91118527E+02</pdfrwt>
<totfact> 0.11167514E+04</totfact>
</mgrwt>
</event>
<event>
 8    1  0.2964543E-004  0.1234556E+03  0.7546771E-02  0.1239070E+00
          2   -1    0    0  501    0  0.00000000000E+00  0.00000000000E+00  0.26011005916E+03  0.26011005916E+03  0.00000000000E+00 0.  1.
         -2   -1    0    0    0  501 -0.00000000000E+00 -0.00000000000E+00 -0.84904379100E+02  0.84904379100E+02  0.00000000000E+00 0. -1.
         23    2    1    2    0    0 -0.44947562799E+02 -0.62892990486E+02  0.18783306229E+03  0.22477221815E+03  0.96257358734E+02 0.  0.
         23    2    1    2    0    0  0.44947562799E+02  0.62892990486E+02 -0.12627382231E+02  0.12024222010E+03  0.91230088566E+02 0.  0.
          5    1    4    4  502    0 -0.18231659377E+01  0.52575145850E+02 -0.38728982944E+02  0.65494228869E+02  0.47000000000E+01 0. -1.
         -5    1    3    3    0  503 -0.29679015329E+02 -0.26764588267E+02  0.84847765439E+01  0.41125035793E+02  0.47000000000E+01 0.  1.
          5    1    3    3  503    0 -0.15268547470E+02 -0.36128402220E+02  0.17934828575E+03  0.18364718236E+03  0.47000000000E+01 0. -1.
         -5    1    4    4    0  502  0.46770728737E+02  0.10317844636E+02  0.26101600713E+02  0.54747991236E+02  0.47000000000E+01 0.  1.
<mgrwt>
<rscale>  0 0.12247442E+03</rscale>
<asrwt>0</asrwt>
<pdfrwt beam="1">  1        2 0.40016932E-01 0.12345562E+03</pdfrwt>
<pdfrwt beam="2">  1       -2 0.13062212E-01 0.12345562E+03</pdfrwt>
<totfact> 0.52287154E+03</totfact>
</mgrwt>
</event>
<event>
 8    1  0.2964543E-004  0.1004988E+03  0.7546771E-02  0.1282744E+00
          2   -1    0    0  501    0  0.00000000000E+00  0.00000000000E+00  0.88154177624E+02  0.88154177624E+02  0.00000000000E+00 0. -1.
         -2   -1    0    0    0  501 -0.00000000000E+00 -0.00000000000E+00 -0.10749566842E+03  0.10749566842E+03  0.00000000000E+00 0.  1.
         23    2    1    2    0    0 -0.12888941085E+02 -0.14364254282E+02 -0.13801832625E+02  0.10144208516E+03  0.98628340021E+02 0.  0.
         23    2    1    2    0    0  0.12888941085E+02  0.14364254282E+02 -0.55396581748E+01  0.94207760884E+02  0.92043238723E+02 0.  0.
          5    1    4    4  502    0  0.17968962358E+02 -0.34607978702E+02  0.13023702602E+02  0.41379978583E+02  0.47000000000E+01 0. -1.
         -5    1    3    3    0  503 -0.42658454244E+02 -0.34683213045E+02 -0.28655404136E+02  0.62176291074E+02  0.47000000000E+01 0.  1.
          5    1    3    3  503    0  0.29769513159E+02  0.20318958763E+02  0.14853571510E+02  0.39265794090E+02  0.47000000000E+01 0. -1.
         -5    1    4    4    0  502 -0.50800212731E+01  0.48972232983E+02 -0.18563360777E+02  0.52827782301E+02  0.47000000000E+01 0.  1.
<mgrwt>
<rscale>  0 0.98844896E+02</rscale>
<asrwt>0</asrwt>
<pdfrwt beam="1">  1        2 0.13562181E-01 0.10049879E+03</pdfrwt>
<pdfrwt beam="2">  1       -2 0.16537795E-01 0.10049879E+03</pdfrwt>
<totfact> 0.11643202E+04</totfact>
</mgrwt>
</event>
<event>
 8    1  0.2964543E-004  0.1086100E+03  0.7546771E-02  0.1264188E+00
         -2   -1    0    0    0  501 -0.00000000000E+00  0.00000000000E+00  0.31591429229E+02  0.31591429229E+02  0.00000000000E+00 0.  1.
          2   -1    0    0  501    0  0.00000000000E+00 -0.00000000000E+00 -0.56156686710E+03  0.56156686710E+03  0.00000000000E+00 0. -1.
         23    2    1    2    0    0 -0.40747869940E+02  0.45752295358E+02 -0.44170237698E+03  0.45485945294E+03  0.89679823016E+02 0.  0.
         23    2    1    2    0    0  0.40747869940E+02 -0.45752295358E+02 -0.88273060888E+02  0.13829884339E+03  0.87067648243E+02 0.  0.
          5    1    4    4  502    0  0.44089994968E+02 -0.25341016637E+02 -0.10127315017E+03  0.11342149587E+03  0.47000000000E+01 0. -1.
         -5    1    4    4    0  502 -0.33421250280E+01 -0.20411278721E+02  0.13000089278E+02  0.24877347526E+02  0.47000000000E+01 0.  1.
          5    1    3    3  503    0 -0.28193671946E+02 -0.23432174513E+02 -0.12166112060E+03  0.12715135943E+03  0.47000000000E+01 0. -1.
         -5    1    3    3    0  503 -0.12554197993E+02  0.69184469871E+02 -0.32004125639E+03  0.32770809350E+03  0.47000000000E+01 0.  1.
<mgrwt>
<rscale>  0 0.10806930E+03</rscale>
<asrwt>0</asrwt>
<pdfrwt beam="1">  1        2 0.86394902E-01 0.10861000E+03</pdfrwt>
<pdfrwt beam="2">  1       -2 0.48602199E-02 0.10861000E+03</pdfrwt>
<totfact> 0.10453018E+04</totfact>
</mgrwt>
</event>
<event>
 8    1  0.2964543E-004  0.2612175E+03  0.7546771E-02  0.1106677E+00
          1   -1    0    0  501    0  0.00000000000E+00  0.00000000000E+00  0.36478597319E+03  0.36478597319E+03  0.00000000000E+00 0. -1.
         -1   -1    0    0    0  501 -0.00000000000E+00 -0.00000000000E+00 -0.67655330150E+03  0.67655330150E+03  0.00000000000E+00 0.  1.
         23    2    1    2    0    0 -0.23458727094E+03  0.66291166193E+02 -0.59918727870E+03  0.65295181916E+03  0.88853681908E+02 0.  0.
         23    2    1    2    0    0  0.23458727094E+03 -0.66291166193E+02  0.28741995039E+03  0.38838745552E+03  0.93855640870E+02 0.  0.
          5    1    4    4  502    0  0.22703872567E+03 -0.36367579956E+02  0.25150789198E+03  0.34080418653E+03  0.47000000000E+01 0. -1.
         -5    1    3    3    0  503 -0.76984298469E+02  0.57714947915E+02 -0.29325365089E+03  0.30867036006E+03  0.47000000000E+01 0.  1.
          5    1    3    3  503    0 -0.15760297247E+03  0.85762182778E+01 -0.30593362781E+03  0.34428145910E+03  0.47000000000E+01 0. -1.
         -5    1    4    4    0  502  0.75485452671E+01 -0.29923586238E+02  0.35912058408E+02  0.47583268993E+02  0.47000000000E+01 0.  1.
<mgrwt>
<rscale>  0 0.26077760E+03</rscale>
<asrwt>0</asrwt>
<pdfrwt beam="1">  1        1 0.56120920E-01 0.26121751E+03</pdfrwt>
<pdfrwt beam="2">  1       -1 0.10408512E+00 0.26121751E+03</pdfrwt>
<totfact> 0.63730752E+01</totfact>
</mgrwt>
</event>
<event>
 8    1  0.2964543E-004  0.1091302E+03  0.7546771E-02  0.1262579E+00
         -2   -1    0    0    0  501 -0.00000000000E+00  0.00000000000E+00  0.81985275999E+02  0.81985275999E+02  0.00000000000E+00 0.  1.
          2   -1    0    0  501    0  0.00000000000E+00 -0.00000000000E+00 -0.14416406814E+03  0.14416406814E+03  0.00000000000E+00 0. -1.
         23    2    1    2    0    0  0.45964277295E+02  0.33011701868E+02 -0.30495948000E+02  0.11251307882E+03  0.92340147351E+02 0.  0.
         23    2    1    2    0    0 -0.45964277295E+02 -0.33011701868E+02 -0.31682844145E+02  0.11363626533E+03  0.93310829687E+02 0.  0.
          5    1    4    4  502    0  0.22197732031E+02 -0.26621480192E+02 -0.28191583288E+02  0.44925470317E+02  0.47000000000E+01 0. -1.
         -5    1    3    3    0  503  0.14803414603E+02  0.62947119055E+02 -0.17987221641E+02  0.67283809521E+02  0.47000000000E+01 0.  1.
          5    1    3    3  503    0  0.31160862692E+02 -0.29935417188E+02 -0.12508726359E+02  0.45229269296E+02  0.47000000000E+01 0. -1.
         -5    1    4    4    0  502 -0.68162009326E+02 -0.63902216758E+01 -0.34912608571E+01  0.68710795009E+02  0.47000000000E+01 0.  1.
<mgrwt>
<rscale>  0 0.10892240E+03</rscale>
<asrwt>0</asrwt>
<pdfrwt beam="1">  1        2 0.22179087E-01 0.10913019E+03</pdfrwt>
<pdfrwt beam="2">  1       -2 0.12613120E-01 0.10913019E+03</pdfrwt>
<totfact> 0.10370901E+04</totfact>
</mgrwt>
</event>
<event>
 8    1  0.2964543E-004  0.9539561E+02  0.7546771E-02  0.1291418E+00
         -1   -1    0    0    0  501 -0.00000000000E+00  0.00000000000E+00  0.12599197217E+03  0.12599197217E+03  0.00000000000E+00 0.  1.
          1   -1    0    0  501    0  0.00000000000E+00 -0.00000000000E+00 -0.75368255913E+02  0.75368255913E+02  0.00000000000E+00 0. -1.
         23    2    1    2    0    0 -0.23417403686E+02 -0.21787074334E+01  0.75714847032E-01  0.93399948510E+02  0.90390392672E+02 0.  0.
         23    2    1    2    0    0  0.23417403686E+02  0.21787074334E+01  0.50548001405E+02  0.10796027957E+03  0.92451067906E+02 0.  0.
          5    1    3    3  502    0 -0.22865064437E+01 -0.45046858334E+02  0.11607313154E+01  0.45363915778E+02  0.47000000000E+01 0. -1.
         -5    1    3    3    0  502 -0.21130897243E+02  0.42868150901E+02 -0.10850164683E+01  0.48036032732E+02  0.47000000000E+01 0.  1.
          5    1    4    4  503    0  0.51644760394E+02  0.23617978779E+02  0.18409139655E+02  0.59883024477E+02  0.47000000000E+01 0. -1.
         -5    1    4    4    0  503 -0.28227356707E+02 -0.21439271346E+02  0.32138861750E+02  0.48077255091E+02  0.47000000000E+01 0.  1.
<mgrwt>
<rscale>  0 0.94892721E+02</rscale>
<asrwt>0</asrwt>
<pdfrwt beam="1">  1        1 0.11595116E-01 0.95395605E+02</pdfrwt>
<pdfrwt beam="2">  1       -1 0.19383380E-01 0.95395605E+02</pdfrwt>
<totfact> 0.10143524E+04</totfact>
</mgrwt>
</event>
<event>
 8    1  0.2964543E-004  0.1121129E+03  0.7546771E-02  0.1260148E+00
         -2   -1    0    0    0  501 -0.00000000000E+00  0.00000000000E+00  0.42122046079E+02  0.42122046079E+02  0.00000000000E+00 0.  1.
          2   -1    0    0  501    0  0.00000000000E+00 -0.00000000000E+00 -0.28247722830E+03  0.28247722830E+03  0.00000000000E+00 0. -1.
         23    2    1    2    0    0 -0.45992166361E+02  0.46302136913E+02 -0.14179326999E+03  0.18076125494E+03  0.91159928829E+02 0.  0.
         23    2    1    2    0    0  0.45992166361E+02 -0.46302136913E+02 -0.98561912234E+02  0.14383801944E+03  0.81949728760E+02 0.  0.
          5    1    4    4  502    0  0.18698991226E+02  0.13736466758E+02 -0.66038389704E+02  0.70153415502E+02  0.47000000000E+01 0. -1.
         -5    1    4    4    0  502  0.27293175136E+02 -0.60038603671E+02 -0.32523522529E+02  0.73684603938E+02  0.47000000000E+01 0.  1.
          5    1    3    3  503    0  0.16524575085E+02  0.45554723227E+02 -0.72301243405E+02  0.87165670925E+02  0.47000000000E+01 0. -1.
         -5    1    3    3    0  503 -0.62516741446E+02  0.74741368638E+00 -0.69492026585E+02  0.93595584015E+02  0.47000000000E+01 0.  1.
<mgrwt>
<rscale>  0 0.11022798E+03</rscale>
<asrwt>0</asrwt>
<pdfrwt beam="1">  1        2 0.43458035E-01 0.11211289E+03</pdfrwt>
<pdfrwt beam="2">  1       -2 0.64803147E-02 0.11211289E+03</pdfrwt>
<totfact> 0.14170885E+04</totfact>
</mgrwt>
</event>
<event>
 8    1  0.2964543E-004  0.1001940E+03  0.7546771E-02  0.1280141E+00
          1   -1    0    0  501    0  0.00000000000E+00  0.00000000000E+00  0.15420999503E+03  0.15420999503E+03  0.00000000000E+00 0. -1.
         -1   -1    0    0    0  501 -0.00000000000E+00 -0.00000000000E+00 -0.69442944185E+02  0.69442944185E+02  0.00000000000E+00 0.  1.
         23    2    1    2    0    0  0.33993368622E+02  0.14600681341E+02  0.71436660543E+02  0.12305297956E+03  0.93113427085E+02 0.  0.
         23    2    1    2    0    0 -0.33993368622E+02 -0.14600681341E+02  0.13330390306E+02  0.10059995966E+03  0.92595483537E+02 0.  0.
          5    1    3    3  502    0  0.14517446026E+02  0.49682474945E+02  0.63194017081E+02  0.81821014114E+02  0.47000000000E+01 0. -1.
         -5    1    3    3    0  502  0.19475922596E+02 -0.35081793604E+02  0.82426434619E+01  0.41231965447E+02  0.47000000000E+01 0.  1.
          5    1    4    4  503    0 -0.65796972760E+02 -0.70675681581E+01  0.12858475962E+02  0.67576790011E+02  0.47000000000E+01 0. -1.
         -5    1    4    4    0  503  0.31803604138E+02 -0.75331131829E+01  0.47191434392E+00  0.33023169647E+02  0.47000000000E+01 0.  1.
<mgrwt>
<rscale>  0 0.10007350E+03</rscale>
<asrwt>0</asrwt>
<pdfrwt beam="1">  1        1 0.23724614E-01 0.10019401E+03</pdfrwt>
<pdfrwt beam="2">  1       -1 0.10683530E-01 0.10019401E+03</pdfrwt>
<totfact> 0.10307601E+04</totfact>
</mgrwt>
</event>
<event>
 8    1  0.2964543E-004  0.1265403E+03  0.7546771E-02  0.1233495E+00
          1   -1    0    0  501    0  0.00000000000E+00  0.00000000000E+00  0.55908384983E+02  0.55908384983E+02  0.00000000000E+00 0. -1.
         -1   -1    0    0    0  501 -0.00000000000E+00 -0.00000000000E+00 -0.32564612471E+03  0.32564612471E+03  0.00000000000E+00 0.  1.
         23    2    1    2    0    0 -0.38314115643E+02 -0.74376036171E+02 -0.20594079513E+03  0.24171071807E+03  0.94935209038E+02 0.  0.
         23    2    1    2    0    0  0.38314115643E+02  0.74376036171E+02 -0.63796944596E+02  0.13984379163E+03  0.92122037010E+02 0.  0.
          5    1    3    3  502    0  0.27645357036E+02 -0.68322864788E+01 -0.73790155473E+02  0.79233975976E+02  0.47000000000E+01 0. -1.
         -5    1    3    3    0  502 -0.65959472678E+02 -0.67543749692E+02 -0.13215063966E+03  0.16247674209E+03  0.47000000000E+01 0.  1.
          5    1    4    4  503    0  0.41224414932E+02  0.94688908034E+02 -0.52286271947E+02  0.11585070533E+03  0.47000000000E+01 0. -1.
         -5    1    4    4    0  503 -0.29102992898E+01 -0.20312871863E+02 -0.11510672649E+02  0.23993086298E+02  0.47000000000E+01 0.  1.
<mgrwt>
<rscale>  0 0.12601290E+03</rscale>
<asrwt>0</asrwt>
<pdfrwt beam="1">  1        1 0.86012902E-02 0.12654035E+03</pdfrwt>
<pdfrwt beam="2">  1       -1 0.50099403E-01 0.12654035E+03</pdfrwt>
<totfact> 0.30933339E+03</totfact>
</mgrwt>
</event>
<event>
 8    1  0.2964543E-004  0.1186732E+03  0.7546771E-02  0.1246728E+00
          3   -1    0    0  501    0  0.00000000000E+00  0.00000000000E+00  0.28308017063E+02  0.28308017063E+02  0.00000000000E+00 0. -1.
         -3   -1    0    0    0  501 -0.00000000000E+00 -0.00000000000E+00 -0.51739065251E+03  0.51739065251E+03  0.00000000000E+00 0.  1.
         23    2    1    2    0    0  0.55809104610E+02 -0.45096627129E+02 -0.31760720619E+03  0.33905408364E+03  0.94524982245E+02 0.  0.
         23    2    1    2    0    0 -0.55809104610E+02  0.45096627129E+02 -0.17147542926E+03  0.20664458594E+03  0.90276243407E+02 0.  0.
          5    1    4    4  502    0  0.23668781552E+02  0.19591266359E+02 -0.37280119071E+02  0.48537884335E+02  0.47000000000E+01 0. -1.
         -5    1    3    3    0  503 -0.22662367802E+02 -0.23878121194E+02 -0.56656852728E+02  0.65695026807E+02  0.47000000000E+01 0.  1.
          5    1    3    3  503    0  0.78471472412E+02 -0.21218505935E+02 -0.26095035347E+03  0.27335905683E+03  0.47000000000E+01 0. -1.
         -5    1    4    4    0  502 -0.79477886162E+02  0.25505360770E+02 -0.13419531019E+03  0.15810670161E+03  0.47000000000E+01 0.  1.
<mgrwt>
<rscale>  0 0.11782529E+03</rscale>
<asrwt>0</asrwt>
<pdfrwt beam="1">  1        3 0.43550798E-02 0.11867322E+03</pdfrwt>
<pdfrwt beam="2">  1       -3 0.79598557E-01 0.11867322E+03</pdfrwt>
<totfact> 0.96608422E+02</totfact>
</mgrwt>
</event>
<event>
 8    1  0.2964543E-004  0.1451407E+03  0.7546771E-02  0.1214386E+00
          1   -1    0    0  501    0  0.00000000000E+00  0.00000000000E+00  0.45712246837E+02  0.45712246837E+02  0.00000000000E+00 0. -1.
         -1   -1    0    0    0  501 -0.00000000000E+00 -0.00000000000E+00 -0.57054851786E+03  0.57054851786E+03  0.00000000000E+00 0.  1.
         23    2    1    2    0    0  0.45374604084E+02 -0.66533697780E+02 -0.41897156646E+03  0.43661344092E+03  0.92782194717E+02 0.  0.
         23    2    1    2    0    0 -0.45374604084E+02  0.66533697780E+02 -0.10586470457E+03  0.17964732378E+03  0.12074865478E+03 0.  0.
          5    1    4    4  502    0 -0.61880792123E+02  0.39353265551E+02 -0.48537721988E+01  0.73644830422E+02  0.47000000000E+01 0. -1.
         -5    1    4    4    0  502  0.16506188039E+02  0.27180432229E+02 -0.10101093237E+03  0.10600249335E+03  0.47000000000E+01 0.  1.
          5    1    3    3  503    0  0.54959633975E+01 -0.75857727972E+02 -0.20494294262E+03  0.21865109246E+03  0.47000000000E+01 0. -1.
         -5    1    3    3    0  503  0.39878640686E+02  0.93240301923E+01 -0.21402862384E+03  0.21796234846E+03  0.47000000000E+01 0.  1.
<mgrwt>
<rscale>  0 0.13921721E+03</rscale>
<asrwt>0</asrwt>
<pdfrwt beam="1">  1        1 0.70326535E-02 0.14514071E+03</pdfrwt>
<pdfrwt beam="2">  1       -1 0.87776694E-01 0.14514071E+03</pdfrwt>
<totfact> 0.13648300E+03</totfact>
</mgrwt>
</event>
<event>
 8    1  0.2964543E-004  0.1757226E+03  0.7546771E-02  0.1172320E+00
          2   -1    0    0  501    0  0.00000000000E+00  0.00000000000E+00  0.10920163371E+04  0.10920163371E+04  0.00000000000E+00 0. -1.
         -2   -1    0    0    0  501 -0.00000000000E+00 -0.00000000000E+00 -0.90361512312E+02  0.90361512312E+02  0.00000000000E+00 0.  1.
         23    2    1    2    0    0  0.14906686114E+03  0.13546865855E+02  0.10557445346E+02  0.17603948755E+03  0.92054303871E+02 0.  0.
         23    2    1    2    0    0 -0.14906686114E+03 -0.13546865855E+02  0.99109737942E+03  0.10063383618E+04  0.89657327345E+02 0.  0.
          5    1    3    3  502    0  0.76137602976E+02  0.11737899541E+02  0.50987306388E+02  0.92501396126E+02  0.47000000000E+01 0. -1.
         -5    1    3    3    0  502  0.72929258164E+02  0.18089663139E+01 -0.40429861042E+02  0.83538091428E+02  0.47000000000E+01 0.  1.
          5    1    4    4  503    0 -0.13102318662E+03 -0.37753366006E+02  0.89926900822E+03  0.90955991074E+03  0.47000000000E+01 0. -1.
         -5    1    4    4    0  503 -0.18043674522E+02  0.24206500152E+02  0.91828371198E+02  0.96778451097E+02  0.47000000000E+01 0.  1.
<mgrwt>
<rscale>  0 0.17541086E+03</rscale>
<asrwt>0</asrwt>
<pdfrwt beam="1">  1        2 0.16800250E+00 0.17572263E+03</pdfrwt>
<pdfrwt beam="2">  1       -2 0.13901772E-01 0.17572263E+03</pdfrwt>
<totfact> 0.90379619E+02</totfact>
</mgrwt>
</event>
<event>
 8    1  0.2964543E-004  0.1343232E+03  0.7546771E-02  0.1222277E+00
          2   -1    0    0  501    0  0.00000000000E+00  0.00000000000E+00  0.12405905299E+04  0.12405905299E+04  0.00000000000E+00 0. -1.
         -2   -1    0    0    0  501 -0.00000000000E+00 -0.00000000000E+00 -0.14215961296E+02  0.14215961296E+02  0.00000000000E+00 0.  1.
         23    2    1    2    0    0  0.86615242073E+02  0.36150004687E+02  0.60032312474E+03  0.61450722898E+03  0.91772857481E+02 0.  0.
         23    2    1    2    0    0 -0.86615242073E+02 -0.36150004687E+02  0.62605144384E+03  0.64029926220E+03  0.96092204861E+02 0.  0.
          5    1    4    4  502    0 -0.86458312420E+02 -0.42429555299E+01  0.56135751370E+03  0.56801178741E+03  0.47000000000E+01 0. -1.
         -5    1    4    4    0  502 -0.15692965386E+00 -0.31907049157E+02  0.64693930148E+02  0.72287474785E+02  0.47000000000E+01 0.  1.
          5    1    3    3  503    0  0.17515504177E+02 -0.27241058388E+02  0.23699715678E+03  0.23924592049E+03  0.47000000000E+01 0. -1.
         -5    1    3    3    0  503  0.69099737896E+02  0.63391063075E+02  0.36332596797E+03  0.37526130849E+03  0.47000000000E+01 0.  1.
<mgrwt>
<rscale>  0 0.13355283E+03</rscale>
<asrwt>0</asrwt>
<pdfrwt beam="1">  1        2 0.19086000E+00 0.13432325E+03</pdfrwt>
<pdfrwt beam="2">  1       -2 0.21870720E-02 0.13432325E+03</pdfrwt>
<totfact> 0.12398209E+04</totfact>
</mgrwt>
</event>
<event>
 8    1  0.2964543E-004  0.9458455E+02  0.7546771E-02  0.1292501E+00
          1   -1    0    0  501    0  0.00000000000E+00  0.00000000000E+00  0.96490142696E+02  0.96490142696E+02  0.00000000000E+00 0. -1.
         -1   -1    0    0    0  501 -0.00000000000E+00 -0.00000000000E+00 -0.10832610820E+03  0.10832610820E+03  0.00000000000E+00 0.  1.
         23    2    1    2    0    0  0.12203188750E+02  0.20952223608E+02 -0.45592498291E+02  0.10438846427E+03  0.90721343034E+02 0.  0.
         23    2    1    2    0    0 -0.12203188750E+02 -0.20952223608E+02  0.33756532791E+02  0.10042778663E+03  0.91423866308E+02 0.  0.
          5    1    4    4  502    0 -0.97094148161E+00 -0.51727312580E+02  0.41437934817E+02  0.66451862547E+02  0.47000000000E+01 0. -1.
         -5    1    4    4    0  502 -0.11232247268E+02  0.30775088972E+02 -0.76814020265E+01  0.33975924079E+02  0.47000000000E+01 0.  1.
          5    1    3    3  503    0 -0.21863007010E+02 -0.93549657900E+01  0.14928128413E+02  0.28468324123E+02  0.47000000000E+01 0. -1.
         -5    1    3    3    0  503  0.34066195760E+02  0.30307189398E+02 -0.60520626705E+02  0.75920140144E+02  0.47000000000E+01 0.  1.
<mgrwt>
<rscale>  0 0.94414371E+02</rscale>
<asrwt>0</asrwt>
<pdfrwt beam="1">  1        1 0.14844637E-01 0.94584549E+02</pdfrwt>
<pdfrwt beam="2">  1       -1 0.16665555E-01 0.94584549E+02</pdfrwt>
<totfact> 0.93470149E+03</totfact>
</mgrwt>
</event>
<event>
 8    1  0.2964543E-004  0.9466634E+02  0.7546771E-02  0.1292832E+00
          1   -1    0    0  501    0  0.00000000000E+00  0.00000000000E+00  0.65182747148E+02  0.65182747148E+02  0.00000000000E+00 0. -1.
         -1   -1    0    0    0  501 -0.00000000000E+00 -0.00000000000E+00 -0.13647110448E+03  0.13647110448E+03  0.00000000000E+00 0.  1.
         23    2    1    2    0    0 -0.16444088295E+02  0.17727844053E+02 -0.25618531033E+02  0.96547009816E+02  0.89890664017E+02 0.  0.
         23    2    1    2    0    0  0.16444088295E+02 -0.17727844053E+02 -0.45669826295E+02  0.10510684181E+03  0.91526120132E+02 0.  0.
          5    1    4    4  502    0  0.23320459070E+02 -0.43300489821E+02  0.30044704021E+01  0.49496394539E+02  0.47000000000E+01 0. -1.
         -5    1    3    3    0  503 -0.52538550696E+02  0.40799787076E+01 -0.67458412239E+01  0.53334247059E+02  0.47000000000E+01 0.  1.
          5    1    3    3  503    0  0.36094462401E+02  0.13647865345E+02 -0.18872689809E+02  0.43212762757E+02  0.47000000000E+01 0. -1.
         -5    1    4    4    0  502 -0.68763707747E+01  0.25572645768E+02 -0.48674296697E+02  0.55610447269E+02  0.47000000000E+01 0.  1.
<mgrwt>
<rscale>  0 0.94268771E+02</rscale>
<asrwt>0</asrwt>
<pdfrwt beam="1">  1        1 0.10028115E-01 0.94666336E+02</pdfrwt>
<pdfrwt beam="2">  1       -1 0.20995554E-01 0.94666336E+02</pdfrwt>
<totfact> 0.10789468E+04</totfact>
</mgrwt>
</event>
<event>
 8    1  0.2964543E-004  0.1045397E+03  0.7546771E-02  0.1271631E+00
         -2   -1    0    0    0  501 -0.00000000000E+00  0.00000000000E+00  0.47814195448E+03  0.47814195448E+03  0.00000000000E+00 0.  1.
          2   -1    0    0  501    0  0.00000000000E+00 -0.00000000000E+00 -0.29755551193E+02  0.29755551193E+02  0.00000000000E+00 0. -1.
         23    2    1    2    0    0 -0.20680674158E+02 -0.38998978462E+02  0.98614344821E+02  0.14283718199E+03  0.93429443704E+02 0.  0.
         23    2    1    2    0    0  0.20680674158E+02  0.38998978462E+02  0.34977205846E+03  0.36506032368E+03  0.94762526538E+02 0.  0.
          5    1    4    4  502    0 -0.36638713596E+02  0.26835722721E+02  0.14511200215E+03  0.15212539077E+03  0.47000000000E+01 0. -1.
         -5    1    3    3    0  503 -0.32638490951E+02  0.60770493907E+01 -0.13267959227E+00  0.33530720612E+02  0.47000000000E+01 0.  1.
          5    1    3    3  503    0  0.11957816793E+02 -0.45076027853E+02  0.98747024413E+02  0.10930646138E+03  0.47000000000E+01 0. -1.
         -5    1    4    4    0  502  0.57319387754E+02  0.12163255741E+02  0.20466005631E+03  0.21293493290E+03  0.47000000000E+01 0.  1.
<mgrwt>
<rscale>  0 0.10423666E+03</rscale>
<asrwt>0</asrwt>
<pdfrwt beam="1">  1        2 0.45777775E-02 0.10453969E+03</pdfrwt>
<pdfrwt beam="2">  1       -2 0.73560295E-01 0.10453969E+03</pdfrwt>
<totfact> 0.28403523E+03</totfact>
</mgrwt>
</event>
<event>
 8    1  0.2964543E-004  0.1059341E+03  0.7546771E-02  0.1269858E+00
          1   -1    0    0  501    0  0.00000000000E+00  0.00000000000E+00  0.11637371676E+03  0.11637371676E+03  0.00000000000E+00 0. -1.
         -1   -1    0    0    0  501 -0.00000000000E+00 -0.00000000000E+00 -0.10317926202E+03  0.10317926202E+03  0.00000000000E+00 0.  1.
         23    2    1    2    0    0 -0.55169233101E+02  0.25646840778E+01 -0.26812297400E+02  0.10927458891E+03  0.90398089601E+02 0.  0.
         23    2    1    2    0    0  0.55169233101E+02 -0.25646840778E+01  0.40006752136E+02  0.11027838987E+03  0.86663493870E+02 0.  0.
          5    1    3    3  502    0 -0.26839462720E+02  0.14163025740E+01  0.33057949257E+02  0.42863512235E+02  0.47000000000E+01 0. -1.
         -5    1    3    3    0  502 -0.28329770381E+02  0.11483815038E+01 -0.59870246657E+02  0.66411076672E+02  0.47000000000E+01 0.  1.
          5    1    4    4  503    0 -0.41360943852E+01  0.32438633337E+02  0.19078968977E+02  0.38150612928E+02  0.47000000000E+01 0. -1.
         -5    1    4    4    0  503  0.59305327486E+02 -0.35003317415E+02  0.20927783159E+02  0.72127776940E+02  0.47000000000E+01 0.  1.
<mgrwt>
<rscale>  0 0.10513296E+03</rscale>
<asrwt>0</asrwt>
<pdfrwt beam="1">  1        1 0.17903649E-01 0.10593411E+03</pdfrwt>
<pdfrwt beam="2">  1       -1 0.15873733E-01 0.10593411E+03</pdfrwt>
<totfact> 0.80200759E+03</totfact>
</mgrwt>
</event>
<event>
 8    1  0.2964543E-004  0.2009112E+03  0.7546771E-02  0.1149495E+00
          3   -1    0    0  501    0  0.00000000000E+00  0.00000000000E+00  0.28518783507E+03  0.28518783507E+03  0.00000000000E+00 0. -1.
         -3   -1    0    0    0  501 -0.00000000000E+00 -0.00000000000E+00 -0.19206909355E+03  0.19206909355E+03  0.00000000000E+00 0.  1.
         23    2    1    2    0    0  0.16796370938E+03  0.51435348031E+02 -0.78132595888E+02  0.21326390856E+03  0.92300538761E+02 0.  0.
         23    2    1    2    0    0 -0.16796370938E+03 -0.51435348031E+02  0.17125133741E+03  0.26399302006E+03  0.97508416964E+02 0.  0.
          5    1    4    4  502    0 -0.11061463897E+03  0.15710706995E+01  0.14290413514E+03  0.18078094053E+03  0.47000000000E+01 0. -1.
         -5    1    3    3    0  503  0.44648757850E+02 -0.45072454286E+01 -0.62193306662E+02  0.76836997810E+02  0.47000000000E+01 0.  1.
          5    1    3    3  503    0  0.12331495153E+03  0.55942593459E+02 -0.15939289226E+02  0.13642691075E+03  0.47000000000E+01 0. -1.
         -5    1    4    4    0  502 -0.57349070408E+02 -0.53006418730E+02  0.28347202270E+02  0.83212079531E+02  0.47000000000E+01 0.  1.
<mgrwt>
<rscale>  0 0.20028946E+03</rscale>
<asrwt>0</asrwt>
<pdfrwt beam="1">  1        3 0.43875052E-01 0.20091116E+03</pdfrwt>
<pdfrwt beam="2">  1       -3 0.29549091E-01 0.20091116E+03</pdfrwt>
<totfact> 0.13988189E+02</totfact>
</mgrwt>
</event>
<event>
 8    1  0.2964543E-004  0.9349001E+02  0.7546771E-02  0.1295280E+00
          1   -1    0    0  501    0  0.00000000000E+00  0.00000000000E+00  0.79308390943E+02  0.79308390943E+02  0.00000000000E+00 0. -1.
         -1   -1    0    0    0  501 -0.00000000000E+00 -0.00000000000E+00 -0.11790293038E+03  0.11790293038E+03  0.00000000000E+00 0.  1.
         23    2    1    2    0    0 -0.57927289608E+01 -0.15629037625E+02 -0.46501348196E+02  0.10338755192E+03  0.90822838438E+02 0.  0.
         23    2    1    2    0    0  0.57927289608E+01  0.15629037625E+02  0.79068087609E+01  0.93823769401E+02  0.91992171155E+02 0.  0.
          5    1    4    4  502    0  0.46233462624E+01  0.52245982897E+02  0.17797608515E+02  0.55586535496E+02  0.47000000000E+01 0. -1.
         -5    1    4    4    0  502  0.11693826984E+01 -0.36616945272E+02 -0.98907997545E+01  0.38237233905E+02  0.47000000000E+01 0.  1.
          5    1    3    3  503    0 -0.37359622599E+02  0.14211536238E+02 -0.93407440676E+00  0.40257566469E+02  0.47000000000E+01 0. -1.
         -5    1    3    3    0  503  0.31566893638E+02 -0.29840573863E+02 -0.45567273790E+02  0.63129985451E+02  0.47000000000E+01 0.  1.
<mgrwt>
<rscale>  0 0.93201083E+02</rscale>
<asrwt>0</asrwt>
<pdfrwt beam="1">  1        1 0.12201291E-01 0.93490011E+02</pdfrwt>
<pdfrwt beam="2">  1       -1 0.18138912E-01 0.93490011E+02</pdfrwt>
<totfact> 0.10524148E+04</totfact>
</mgrwt>
</event>
<event>
 8    1  0.2964543E-004  0.9727569E+02  0.7546771E-02  0.1287221E+00
         -2   -1    0    0    0  501 -0.00000000000E+00  0.00000000000E+00  0.13265286670E+02  0.13265286670E+02  0.00000000000E+00 0.  1.
          2   -1    0    0  501    0  0.00000000000E+00 -0.00000000000E+00 -0.74889684828E+03  0.74889684828E+03  0.00000000000E+00 0. -1.
         23    2    1    2    0    0 -0.29446181332E+02 -0.10180566712E+02 -0.46977257260E+03  0.47973829398E+03  0.92151175842E+02 0.  0.
         23    2    1    2    0    0  0.29446181332E+02  0.10180566712E+02 -0.26585898901E+03  0.28242384097E+03  0.90063879429E+02 0.  0.
          5    1    4    4  502    0  0.52711359388E+01  0.24893083435E+02 -0.24641001461E+03  0.24776488003E+03  0.47000000000E+01 0. -1.
         -5    1    3    3    0  503 -0.91832338630E+01 -0.43610364539E+02 -0.36624342874E+03  0.36897497852E+03  0.47000000000E+01 0.  1.
          5    1    3    3  503    0 -0.20262947469E+02  0.33429797827E+02 -0.10352914386E+03  0.11076331546E+03  0.47000000000E+01 0. -1.
         -5    1    4    4    0  502  0.24175045393E+02 -0.14712516723E+02 -0.19448974397E+02  0.34658960936E+02  0.47000000000E+01 0.  1.
<mgrwt>
<rscale>  0 0.96778142E+02</rscale>
<asrwt>0</asrwt>
<pdfrwt beam="1">  1        2 0.11521488E+00 0.97275695E+02</pdfrwt>
<pdfrwt beam="2">  1       -2 0.20408137E-02 0.97275695E+02</pdfrwt>
<totfact> 0.26463044E+04</totfact>
</mgrwt>
</event>
<event>
 8    1  0.2964543E-004  0.1358923E+03  0.7546771E-02  0.1219802E+00
          2   -1    0    0  501    0  0.00000000000E+00  0.00000000000E+00  0.19281309212E+03  0.19281309212E+03  0.00000000000E+00 0. -1.
         -2   -1    0    0    0  501 -0.00000000000E+00 -0.00000000000E+00 -0.11691974471E+03  0.11691974471E+03  0.00000000000E+00 0.  1.
         23    2    1    2    0    0 -0.15164515604E+02  0.94279836611E+02 -0.30718132975E+02  0.13701133371E+03  0.93326586491E+02 0.  0.
         23    2    1    2    0    0  0.15164515604E+02 -0.94279836611E+02  0.10661148039E+03  0.17272150312E+03  0.96685364784E+02 0.  0.
          5    1    3    3  502    0 -0.43479893800E+02  0.36719740045E+02  0.13849340737E+02  0.58759975431E+02  0.47000000000E+01 0. -1.
         -5    1    3    3    0  502  0.28315378196E+02  0.57560096566E+02 -0.44567473711E+02  0.78251358276E+02  0.47000000000E+01 0.  1.
          5    1    4    4  503    0 -0.71330474801E+01 -0.78386622481E+02  0.11863497851E+03  0.14244890690E+03  0.47000000000E+01 0. -1.
         -5    1    4    4    0  503  0.22297563084E+02 -0.15893214130E+02 -0.12023498120E+02  0.30272596220E+02  0.47000000000E+01 0.  1.
<mgrwt>
<rscale>  0 0.13529615E+03</rscale>
<asrwt>0</asrwt>
<pdfrwt beam="1">  1        2 0.29663553E-01 0.13589227E+03</pdfrwt>
<pdfrwt beam="2">  1       -2 0.17987653E-01 0.13589227E+03</pdfrwt>
<totfact> 0.42930897E+03</totfact>
</mgrwt>
</event>
<event>
 8    1  0.2964543E-004  0.9480843E+02  0.7546771E-02  0.1292082E+00
          1   -1    0    0  501    0  0.00000000000E+00  0.00000000000E+00  0.11187389720E+04  0.11187389720E+04  0.00000000000E+00 0. -1.
         -1   -1    0    0    0  501 -0.00000000000E+00 -0.00000000000E+00 -0.81118764594E+01  0.81118764594E+01  0.00000000000E+00 0.  1.
         23    2    1    2    0    0  0.17171326096E+02 -0.18273525010E+02  0.62896633731E+03  0.63594788030E+03  0.90566422211E+02 0.  0.
         23    2    1    2    0    0 -0.17171326096E+02  0.18273525010E+02  0.48166075824E+03  0.49090296817E+03  0.91432280804E+02 0.  0.
          5    1    3    3  502    0 -0.36329291483E+02 -0.17490017650E+01  0.20230331298E+03  0.20560057605E+03  0.47000000000E+01 0. -1.
         -5    1    4    4    0  503  0.17706686113E+02 -0.24766005411E+02  0.85909951888E+02  0.91266048400E+02  0.47000000000E+01 0.  1.
          5    1    4    4  503    0 -0.34878012209E+02  0.43039530422E+02  0.39575080636E+03  0.39963691977E+03  0.47000000000E+01 0. -1.
         -5    1    3    3    0  502  0.53500617579E+02 -0.16524523245E+02  0.42666302433E+03  0.43034730426E+03  0.47000000000E+01 0.  1.
<mgrwt>
<rscale>  0 0.94599049E+02</rscale>
<asrwt>0</asrwt>
<pdfrwt beam="1">  1        1 0.17211357E+00 0.94808429E+02</pdfrwt>
<pdfrwt beam="2">  1       -1 0.12479819E-02 0.94808429E+02</pdfrwt>
<totfact> 0.16658745E+04</totfact>
</mgrwt>
</event>
<event>
 8    1  0.2964543E-004  0.9455495E+02  0.7546771E-02  0.1293523E+00
         -1   -1    0    0    0  501 -0.00000000000E+00  0.00000000000E+00  0.23189136842E+02  0.23189136842E+02  0.00000000000E+00 0.  1.
          1   -1    0    0  501    0  0.00000000000E+00 -0.00000000000E+00 -0.37955260945E+03  0.37955260945E+03  0.00000000000E+00 0. -1.
         23    2    1    2    0    0  0.21256474473E+02  0.39268810579E+01 -0.19521252778E+03  0.21589885784E+03  0.89650029067E+02 0.  0.
         23    2    1    2    0    0 -0.21256474473E+02 -0.39268810579E+01 -0.16115094483E+03  0.18684288845E+03  0.92050963302E+02 0.  0.
          5    1    4    4  502    0 -0.30300894465E+01 -0.43304556905E+02 -0.44724925335E+02  0.62505000096E+02  0.47000000000E+01 0. -1.
         -5    1    4    4    0  502 -0.18226385026E+02  0.39377675847E+02 -0.11642601949E+03  0.12433788836E+03  0.47000000000E+01 0.  1.
          5    1    3    3  503    0  0.36594968774E+02  0.37632426240E+02 -0.90438825911E+02  0.10467407738E+03  0.47000000000E+01 0.  1.
         -5    1    3    3    0  503 -0.15338494301E+02 -0.33705545182E+02 -0.10477370187E+03  0.11122478046E+03  0.47000000000E+01 0. -1.
<mgrwt>
<rscale>  0 0.93965528E+02</rscale>
<asrwt>0</asrwt>
<pdfrwt beam="1">  1        1 0.58392705E-01 0.94554947E+02</pdfrwt>
<pdfrwt beam="2">  1       -1 0.35675597E-02 0.94554947E+02</pdfrwt>
<totfact> 0.17170441E+04</totfact>
</mgrwt>
</event>
<event>
 8    1  0.2964543E-004  0.9698039E+02  0.7546771E-02  0.1287079E+00
         -1   -1    0    0    0  501 -0.00000000000E+00  0.00000000000E+00  0.19257410321E+03  0.19257410321E+03  0.00000000000E+00 0.  1.
          1   -1    0    0  501    0  0.00000000000E+00 -0.00000000000E+00 -0.49041797192E+02  0.49041797192E+02  0.00000000000E+00 0. -1.
         23    2    1    2    0    0 -0.10098144296E+02 -0.31769293527E+02  0.60026286307E+02  0.11405416227E+03  0.91071051135E+02 0.  0.
         23    2    1    2    0    0  0.10098144296E+02  0.31769293527E+02  0.83506019709E+02  0.12756173813E+03  0.90484701341E+02 0.  0.
          5    1    4    4  502    0 -0.77078797259E+01  0.49004071480E+02  0.11323221795E+02  0.51099078106E+02  0.47000000000E+01 0. -1.
         -5    1    4    4    0  502  0.17806024022E+02 -0.17234777953E+02  0.72182797914E+02  0.76462660020E+02  0.47000000000E+01 0.  1.
          5    1    3    3  503    0  0.50582950624E+01  0.21477171635E+02 -0.99888703891E+01  0.24672308000E+02  0.47000000000E+01 0. -1.
         -5    1    3    3    0  503 -0.15156439358E+02 -0.53246465162E+02  0.70015156696E+02  0.89381854274E+02  0.47000000000E+01 0.  1.
<mgrwt>
<rscale>  0 0.96842498E+02</rscale>
<asrwt>0</asrwt>
<pdfrwt beam="1">  1        1 0.75448920E-02 0.96980394E+02</pdfrwt>
<pdfrwt beam="2">  1       -1 0.29626785E-01 0.96980394E+02</pdfrwt>
<totfact> 0.89901821E+03</totfact>
</mgrwt>
</event>
<event>
 8    1  0.2964543E-004  0.9208522E+02  0.7546771E-02  0.1298245E+00
         -1   -1    0    0    0  501 -0.00000000000E+00  0.00000000000E+00  0.73955536153E+02  0.73955536153E+02  0.00000000000E+00 0.  1.
          1   -1    0    0  501    0  0.00000000000E+00 -0.00000000000E+00 -0.11757613783E+03  0.11757613783E+03  0.00000000000E+00 0. -1.
         23    2    1    2    0    0 -0.10286948476E+02 -0.20546221990E+01 -0.49214719739E+01  0.92216640422E+02  0.91485764483E+02 0.  0.
         23    2    1    2    0    0  0.10286948476E+02  0.20546221990E+01 -0.38699129708E+02  0.99315033565E+02  0.90861490581E+02 0.  0.
          5    1    4    4  502    0 -0.32660674585E+02  0.12164588541E+02  0.67367431933E+01  0.35807409674E+02  0.47000000000E+01 0. -1.
         -5    1    4    4    0  502  0.42947623061E+02 -0.10109966342E+02 -0.45435872901E+02  0.63507623891E+02  0.47000000000E+01 0.  1.
          5    1    3    3  503    0  0.11205402126E+02  0.35570617493E+02  0.19405073733E+02  0.42302207416E+02  0.47000000000E+01 0. -1.
         -5    1    3    3    0  503 -0.21492350602E+02 -0.37625239692E+02 -0.24326545707E+02  0.49914433006E+02  0.47000000000E+01 0.  1.
<mgrwt>
<rscale>  0 0.91929782E+02</rscale>
<asrwt>0</asrwt>
<pdfrwt beam="1">  1        1 0.18088636E-01 0.92085221E+02</pdfrwt>
<pdfrwt beam="2">  1       -1 0.11377775E-01 0.92085221E+02</pdfrwt>
<totfact> 0.13061543E+04</totfact>
</mgrwt>
</event>
<event>
 8    1  0.2964543E-004  0.1396552E+03  0.7546771E-02  0.1214379E+00
         -1   -1    0    0    0  501 -0.00000000000E+00  0.00000000000E+00  0.22817404806E+02  0.22817404806E+02  0.00000000000E+00 0.  1.
          1   -1    0    0  501    0  0.00000000000E+00 -0.00000000000E+00 -0.87761604103E+03  0.87761604103E+03  0.00000000000E+00 0. -1.
         23    2    1    2    0    0  0.87527390870E+02 -0.57375313968E+02 -0.51772864354E+03  0.53623365866E+03  0.92469549237E+02 0.  0.
         23    2    1    2    0    0 -0.87527390870E+02  0.57375313968E+02 -0.33706999269E+03  0.36419978717E+03  0.89846169665E+02 0.  0.
          5    1    3    3  502    0  0.49762744891E+02 -0.80021429223E+02 -0.32077197846E+03  0.33435985417E+03  0.47000000000E+01 0. -1.
         -5    1    4    4    0  503 -0.17774635005E+02  0.47615764824E+02 -0.62463605966E+02  0.80665920807E+02  0.47000000000E+01 0.  1.
          5    1    4    4  503    0 -0.69752755865E+02  0.97595491439E+01 -0.27460638672E+03  0.28353386637E+03  0.47000000000E+01 0. -1.
         -5    1    3    3    0  502  0.37764645979E+02  0.22646115255E+02 -0.19695666508E+03  0.20187380449E+03  0.47000000000E+01 0.  1.
<mgrwt>
<rscale>  0 0.13922249E+03</rscale>
<asrwt>0</asrwt>
<pdfrwt beam="1">  1        1 0.13501785E+00 0.13965525E+03</pdfrwt>
<pdfrwt beam="2">  1       -1 0.35103699E-02 0.13965525E+03</pdfrwt>
<totfact> 0.57806733E+03</totfact>
</mgrwt>
</event>
<event>
 8    1  0.2964543E-004  0.9915665E+02  0.7546771E-02  0.1284326E+00
          1   -1    0    0  501    0  0.00000000000E+00  0.00000000000E+00  0.72536832126E+02  0.72536832126E+02  0.00000000000E+00 0. -1.
         -1   -1    0    0    0  501 -0.00000000000E+00 -0.00000000000E+00 -0.13716676994E+03  0.13716676994E+03  0.00000000000E+00 0.  1.
         23    2    1    2    0    0 -0.25159098329E+02  0.19768293528E+02 -0.76349999550E+01  0.95333745633E+02  0.89478847637E+02 0.  0.
         23    2    1    2    0    0  0.25159098329E+02 -0.19768293528E+02 -0.56994937864E+02  0.11436985644E+03  0.93852413190E+02 0.  0.
          5    1    3    3  502    0 -0.50315991732E+02 -0.13959233384E+02 -0.70471291116E+00  0.52432297688E+02  0.47000000000E+01 0. -1.
         -5    1    3    3    0  502  0.25156893402E+02  0.33727526912E+02 -0.69302870439E+01  0.42901447945E+02  0.47000000000E+01 0.  1.
          5    1    4    4  503    0  0.48644094233E+02 -0.43367856850E+02 -0.34204824670E+02  0.73750111472E+02  0.47000000000E+01 0. -1.
         -5    1    4    4    0  503 -0.23484995904E+02  0.23599563322E+02 -0.22790113194E+02  0.40619744965E+02  0.47000000000E+01 0.  1.
<mgrwt>
<rscale>  0 0.98107844E+02</rscale>
<asrwt>0</asrwt>
<pdfrwt beam="1">  1        1 0.11159513E-01 0.99156649E+02</pdfrwt>
<pdfrwt beam="2">  1       -1 0.21102580E-01 0.99156649E+02</pdfrwt>
<totfact> 0.93454545E+03</totfact>
</mgrwt>
</event>
<event>
 8    1  0.2964543E-004  0.1271964E+03  0.7546771E-02  0.1231774E+00
         -1   -1    0    0    0  501 -0.00000000000E+00  0.00000000000E+00  0.25467635509E+02  0.25467635509E+02  0.00000000000E+00 0.  1.
          1   -1    0    0  501    0  0.00000000000E+00 -0.00000000000E+00 -0.76046503346E+03  0.76046503346E+03  0.00000000000E+00 0. -1.
         23    2    1    2    0    0  0.88125977649E+02 -0.35808628182E+01 -0.20693415109E+03  0.24276628204E+03  0.91294656435E+02 0.  0.
         23    2    1    2    0    0 -0.88125977649E+02  0.35808628182E+01 -0.52806324686E+03  0.54316638692E+03  0.91651081210E+02 0.  0.
          5    1    4    4  502    0 -0.92510036237E+02 -0.25940665500E+02 -0.37429919430E+03  0.38646216087E+03  0.47000000000E+01 0. -1.
         -5    1    3    3    0  503  0.23635100889E+02  0.10269933425E+02 -0.71615816812E+00  0.26204816525E+02  0.47000000000E+01 0. -1.
          5    1    3    3  503    0  0.64490876760E+02 -0.13850796243E+02 -0.20621799292E+03  0.21656146551E+03  0.47000000000E+01 0.  1.
         -5    1    4    4    0  502  0.43840585887E+01  0.29521528318E+02 -0.15376405256E+03  0.15670422605E+03  0.47000000000E+01 0.  1.
<mgrwt>
<rscale>  0 0.12713223E+03</rscale>
<asrwt>0</asrwt>
<pdfrwt beam="1">  1        1 0.11699461E+00 0.12719643E+03</pdfrwt>
<pdfrwt beam="2">  1       -1 0.39180982E-02 0.12719643E+03</pdfrwt>
<totfact> 0.60918601E+03</totfact>
</mgrwt>
</event>
<event>
 8    1  0.2964543E-004  0.1063755E+03  0.7546771E-02  0.1267820E+00
         -1   -1    0    0    0  501 -0.00000000000E+00  0.00000000000E+00  0.43756391550E+03  0.43756391550E+03  0.00000000000E+00 0.  1.
          1   -1    0    0  501    0  0.00000000000E+00 -0.00000000000E+00 -0.43241350345E+02  0.43241350345E+02  0.00000000000E+00 0. -1.
         23    2    1    2    0    0 -0.53512185325E+02  0.14212041733E+02  0.43465347599E+02  0.11417665244E+03  0.89897360431E+02 0.  0.
         23    2    1    2    0    0  0.53512185325E+02 -0.14212041733E+02  0.35085721756E+03  0.36662861341E+03  0.90830704869E+02 0.  0.
          5    1    3    3  502    0 -0.71276469922E+02  0.32253266445E+02  0.24234003078E+02  0.82036487407E+02  0.47000000000E+01 0. -1.
         -5    1    3    3    0  502  0.17764284598E+02 -0.18041224712E+02  0.19231344521E+02  0.32140165035E+02  0.47000000000E+01 0.  1.
          5    1    4    4  503    0  0.19301894028E+02  0.37423739428E+02  0.17722002402E+03  0.18221450628E+03  0.47000000000E+01 0. -1.
         -5    1    4    4    0  503  0.34210291297E+02 -0.51635781161E+02  0.17363719354E+03  0.18441410713E+03  0.47000000000E+01 0.  1.
<mgrwt>
<rscale>  0 0.10617601E+03</rscale>
<asrwt>0</asrwt>
<pdfrwt beam="1">  1        1 0.66525157E-02 0.10637553E+03</pdfrwt>
<pdfrwt beam="2">  1       -1 0.67317522E-01 0.10637553E+03</pdfrwt>
<totfact> 0.24800605E+03</totfact>
</mgrwt>
</event>
<event>
 8    1  0.2964543E-004  0.1126999E+03  0.7546771E-02  0.1257339E+00
         -4   -1    0    0    0  501 -0.00000000000E+00  0.00000000000E+00  0.70724195702E+03  0.70724195702E+03  0.00000000000E+00 0.  1.
          4   -1    0    0  501    0  0.00000000000E+00 -0.00000000000E+00 -0.11065699457E+03  0.11065699457E+03  0.00000000000E+00 0. -1.
         23    2    1    2    0    0  0.83649528414E+01  0.62119377174E+02  0.67297778709E+03  0.68174779716E+03  0.89174926776E+02 0.  0.
         23    2    1    2    0    0 -0.83649528414E+01 -0.62119377174E+02 -0.76392824638E+02  0.13615115443E+03  0.93661538208E+02 0.  0.
          5    1    4    4  502    0 -0.79703759534E+01 -0.86038881314E+02 -0.48862053771E+02  0.99377091371E+02  0.47000000000E+01 0. -1.
         -5    1    3    3    0  503  0.29124141803E+02  0.72226684894E+02  0.60022938617E+03  0.60527870908E+03  0.47000000000E+01 0.  1.
          5    1    3    3  503    0 -0.20759188961E+02 -0.10107307720E+02  0.72748400923E+02  0.76469088084E+02  0.47000000000E+01 0. -1.
         -5    1    4    4    0  502 -0.39457688802E+00  0.23919504140E+02 -0.27530770866E+02  0.36774063057E+02  0.47000000000E+01 0.  1.
<mgrwt>
<rscale>  0 0.11176328E+03</rscale>
<asrwt>0</asrwt>
<pdfrwt beam="1">  1        4 0.17024153E-01 0.11269993E+03</pdfrwt>
<pdfrwt beam="2">  1       -4 0.10880645E+00 0.11269993E+03</pdfrwt>
<totfact> 0.34797228E+01</totfact>
</mgrwt>
</event>
<event>
 8    1  0.2964543E-004  0.2736373E+03  0.7546771E-02  0.1100291E+00
          1   -1    0    0  501    0  0.00000000000E+00  0.00000000000E+00  0.23872367609E+03  0.23872367609E+03  0.00000000000E+00 0. -1.
         -1   -1    0    0    0  501 -0.00000000000E+00 -0.00000000000E+00 -0.33668486412E+03  0.33668486412E+03  0.00000000000E+00 0.  1.
         23    2    1    2    0    0 -0.24973922906E+03 -0.18742569147E+02  0.38533157245E+02  0.27633704792E+03  0.11025603574E+03 0.  0.
         23    2    1    2    0    0  0.24973922906E+03  0.18742569147E+02 -0.13649434527E+03  0.29907149229E+03  0.89956015793E+02 0.  0.
          5    1    4    4  502    0  0.11253203979E+03  0.22344738268E+02 -0.15172381140E+02  0.11582330705E+03  0.47000000000E+01 0. -1.
         -5    1    4    4    0  502  0.13720718927E+03 -0.36021691202E+01 -0.12132196413E+03  0.18324818523E+03  0.47000000000E+01 0.  1.
          5    1    3    3  503    0 -0.18394462323E+03  0.32601866462E+02  0.70139800394E+01  0.18700211771E+03  0.47000000000E+01 0. -1.
         -5    1    3    3    0  503 -0.65794605828E+02 -0.51344435609E+02  0.31519177205E+02  0.89334930211E+02  0.47000000000E+01 0.  1.
<mgrwt>
<rscale>  0 0.27173502E+03</rscale>
<asrwt>0</asrwt>
<pdfrwt beam="1">  1        1 0.36726719E-01 0.27363728E+03</pdfrwt>
<pdfrwt beam="2">  1       -1 0.51797671E-01 0.27363728E+03</pdfrwt>
<totfact> 0.45241046E+02</totfact>
</mgrwt>
</event>
<event>
 8    1  0.2964543E-004  0.9739892E+02  0.7546771E-02  0.1297855E+00
         -1   -1    0    0    0  501 -0.00000000000E+00  0.00000000000E+00  0.32545506131E+02  0.32545506131E+02  0.00000000000E+00 0.  1.
          1   -1    0    0  501    0  0.00000000000E+00 -0.00000000000E+00 -0.28847217519E+03  0.28847217519E+03  0.00000000000E+00 0. -1.
         23    2    1    2    0    0  0.28971770310E+02 -0.72829488401E+00 -0.71483001526E+02  0.12081543179E+03  0.92987392489E+02 0.  0.
         23    2    1    2    0    0 -0.28971770310E+02  0.72829488401E+00 -0.18444366754E+03  0.20020224954E+03  0.72260503307E+02 0.  0.
          5    1    4    4  502    0 -0.17175630056E+02  0.26764619454E+02 -0.33214854791E+02  0.46224059765E+02  0.47000000000E+01 0. -1.
         -5    1    3    3    0  503  0.23036909099E+00 -0.42408488841E+02 -0.16032419554E+02  0.45581371990E+02  0.47000000000E+01 0.  1.
          5    1    3    3  503    0  0.28741401219E+02  0.41680193957E+02 -0.55450581972E+02  0.75234059796E+02  0.47000000000E+01 0. -1.
         -5    1    4    4    0  502 -0.11796140254E+02 -0.26036324570E+02 -0.15122881274E+03  0.15397818977E+03  0.47000000000E+01 0.  1.
<mgrwt>
<rscale>  0 0.92095387E+02</rscale>
<asrwt>0</asrwt>
<pdfrwt beam="1">  1        1 0.44380336E-01 0.97398917E+02</pdfrwt>
<pdfrwt beam="2">  1       -1 0.50070008E-02 0.97398917E+02</pdfrwt>
<totfact> 0.14722855E+04</totfact>
</mgrwt>
</event>
<event>
 8    1  0.2964543E-004  0.1089315E+03  0.7546771E-02  0.1265662E+00
         -1   -1    0    0    0  501 -0.00000000000E+00  0.00000000000E+00  0.67957442546E+03  0.67957442546E+03  0.00000000000E+00 0.  1.
          1   -1    0    0  501    0  0.00000000000E+00 -0.00000000000E+00 -0.16596709485E+02  0.16596709485E+02  0.00000000000E+00 0. -1.
         23    2    1    2    0    0  0.60154551349E+02 -0.11901486082E+02  0.37409563012E+03  0.38963265590E+03  0.90032497754E+02 0.  0.
         23    2    1    2    0    0 -0.60154551349E+02  0.11901486082E+02  0.28888208585E+03  0.30653847904E+03  0.82175204207E+02 0.  0.
          5    1    3    3  502    0  0.28729086022E+02  0.11870797826E+02  0.30665480698E+02  0.43917398957E+02  0.47000000000E+01 0. -1.
         -5    1    4    4    0  503 -0.60297300835E+01  0.34189412417E+02  0.53560758306E+02  0.64000924967E+02  0.47000000000E+01 0.  1.
          5    1    4    4  503    0 -0.54124821266E+02 -0.22287926335E+02  0.23532132755E+03  0.24253755407E+03  0.47000000000E+01 0. -1.
         -5    1    3    3    0  502  0.31425465327E+02 -0.23772283908E+02  0.34343014942E+03  0.34571525695E+03  0.47000000000E+01 0.  1.
<mgrwt>
<rscale>  0 0.10729532E+03</rscale>
<asrwt>0</asrwt>
<pdfrwt beam="1">  1        1 0.25533404E-02 0.10893147E+03</pdfrwt>
<pdfrwt beam="2">  1       -1 0.10454989E+00 0.10893147E+03</pdfrwt>
<totfact> 0.36878962E+03</totfact>
</mgrwt>
</event>
<event>
 8    1  0.2964543E-004  0.9604015E+02  0.7546771E-02  0.1289124E+00
          2   -1    0    0  501    0  0.00000000000E+00  0.00000000000E+00  0.83114815150E+02  0.83114815150E+02  0.00000000000E+00 0. -1.
         -2   -1    0    0    0  501 -0.00000000000E+00 -0.00000000000E+00 -0.13352615385E+03  0.13352615385E+03  0.00000000000E+00 0.  1.
         23    2    1    2    0    0 -0.24073536135E+02 -0.17138859802E+02  0.19918381754E+02  0.97603247264E+02  0.90864604150E+02 0.  0.
         23    2    1    2    0    0  0.24073536135E+02  0.17138859802E+02 -0.70329720458E+02  0.11903772174E+03  0.91380708905E+02 0.  0.
          5    1    3    3  502    0 -0.42993684885E+02  0.31631260240E+01  0.43099088908E+02  0.61139870550E+02  0.47000000000E+01 0. -1.
         -5    1    4    4    0  503  0.36572301206E+02  0.49086062894E+02 -0.46181889866E+02  0.76823380149E+02  0.47000000000E+01 0.  1.
          5    1    4    4  503    0 -0.12498765071E+02 -0.31947203092E+02 -0.24147830592E+02  0.42214341591E+02  0.47000000000E+01 0. -1.
         -5    1    3    3    0  502  0.18920148749E+02 -0.20301985826E+02 -0.23180707155E+02  0.36463376713E+02  0.47000000000E+01 0.  1.
<mgrwt>
<rscale>  0 0.95917176E+02</rscale>
<asrwt>0</asrwt>
<pdfrwt beam="1">  1        2 0.12786895E-01 0.96040146E+02</pdfrwt>
<pdfrwt beam="2">  1       -2 0.20542485E-01 0.96040146E+02</pdfrwt>
<totfact> 0.86669931E+03</totfact>
</mgrwt>
</event>
<event>
 8    1  0.2964543E-004  0.1115497E+03  0.7546771E-02  0.1258223E+00
          1   -1    0    0  501    0  0.00000000000E+00  0.00000000000E+00  0.15972485951E+03  0.15972485951E+03  0.00000000000E+00 0. -1.
         -1   -1    0    0    0  501 -0.00000000000E+00 -0.00000000000E+00 -0.14314475240E+03  0.14314475240E+03  0.00000000000E+00 0.  1.
         23    2    1    2    0    0  0.16007294038E+02  0.61032237446E+02  0.11109307446E+03  0.15666414114E+03  0.90668707153E+02 0.  0.
         23    2    1    2    0    0 -0.16007294038E+02 -0.61032237446E+02 -0.94512967357E+02  0.14620547077E+03  0.91990060412E+02 0.  0.
          5    1    4    4  502    0  0.30365878734E+02  0.45685578162E+01 -0.27236327747E+02  0.41314233152E+02  0.47000000000E+01 0. -1.
         -5    1    3    3    0  503 -0.36988951354E+02  0.16010386690E+02  0.36530713478E+02  0.54599432519E+02  0.47000000000E+01 0.  1.
          5    1    3    3  503    0  0.52996245392E+02  0.45021850756E+02  0.74562360985E+02  0.10206470862E+03  0.47000000000E+01 0. -1.
         -5    1    4    4    0  502 -0.46373172772E+02 -0.65600795262E+02 -0.67276639610E+02  0.10489123762E+03  0.47000000000E+01 0.  1.
<mgrwt>
<rscale>  0 0.11127693E+03</rscale>
<asrwt>0</asrwt>
<pdfrwt beam="1">  1        1 0.24573055E-01 0.11154971E+03</pdfrwt>
<pdfrwt beam="2">  1       -1 0.22022270E-01 0.11154971E+03</pdfrwt>
<totfact> 0.32131974E+03</totfact>
</mgrwt>
</event>
<event>
 8    1  0.2964543E-004  0.1035940E+03  0.7546771E-02  0.1274920E+00
          3   -1    0    0  501    0  0.00000000000E+00  0.00000000000E+00  0.66156765681E+02  0.66156765681E+02  0.00000000000E+00 0. -1.
         -3   -1    0    0    0  501 -0.00000000000E+00 -0.00000000000E+00 -0.33219230090E+03  0.33219230090E+03  0.00000000000E+00 0.  1.
         23    2    1    2    0    0 -0.38659236422E+02 -0.15466677468E+01 -0.27920631505E+03  0.29780511988E+03  0.96097837248E+02 0.  0.
         23    2    1    2    0    0  0.38659236422E+02  0.15466677468E+01  0.13170779826E+02  0.10054394670E+03  0.91862326529E+02 0.  0.
          5    1    3    3  502    0  0.10635353610E+02 -0.33547179111E+02 -0.17032051165E+03  0.17398186877E+03  0.47000000000E+01 0. -1.
         -5    1    3    3    0  502 -0.49294590032E+02  0.32000511364E+02 -0.10888580340E+03  0.12382325111E+03  0.47000000000E+01 0.  1.
          5    1    4    4  503    0  0.58299733355E+02 -0.12827531425E+02  0.33386366204E+02  0.68557595640E+02  0.47000000000E+01 0. -1.
         -5    1    4    4    0  503 -0.19640496933E+02  0.14374199171E+02 -0.20215586379E+02  0.31986351061E+02  0.47000000000E+01 0.  1.
<mgrwt>
<rscale>  0 0.10260072E+03</rscale>
<asrwt>0</asrwt>
<pdfrwt beam="1">  1        3 0.10177964E-01 0.10359403E+03</pdfrwt>
<pdfrwt beam="2">  1       -3 0.51106508E-01 0.10359403E+03</pdfrwt>
<totfact> 0.60773696E+02</totfact>
</mgrwt>
</event>
<event>
 8    1  0.2964543E-004  0.9025844E+02  0.7546771E-02  0.1305375E+00
          1   -1    0    0  501    0  0.00000000000E+00  0.00000000000E+00  0.43619701441E+03  0.43619701441E+03  0.00000000000E+00 0. -1.
         -1   -1    0    0    0  501 -0.00000000000E+00 -0.00000000000E+00 -0.26127811501E+02  0.26127811501E+02  0.00000000000E+00 0.  1.
         23    2    1    2    0    0 -0.82791310893E+01  0.16210720058E+02  0.33272613222E+03  0.34346130697E+03  0.83232558946E+02 0.  0.
         23    2    1    2    0    0  0.82791310893E+01 -0.16210720058E+02  0.77343070690E+02  0.11886351894E+03  0.88403925787E+02 0.  0.
          5    1    4    4  502    0  0.89345465258E+01  0.36215721473E+02  0.33497010444E+02  0.50354188625E+02  0.47000000000E+01 0. -1.
         -5    1    4    4    0  502 -0.65541543646E+00 -0.52426441531E+02  0.43846060246E+02  0.68509330314E+02  0.47000000000E+01 0.  1.
          5    1    3    3  503    0 -0.39999753872E+02  0.26852993781E+02  0.14935244297E+03  0.15700097390E+03  0.47000000000E+01 0. -1.
         -5    1    3    3    0  503  0.31720622783E+02 -0.10642273724E+02  0.18337368925E+03  0.18646033307E+03  0.47000000000E+01 0.  1.
<mgrwt>
<rscale>  0 0.88966271E+02</rscale>
<asrwt>0</asrwt>
<pdfrwt beam="1">  1        1 0.67107228E-01 0.90258438E+02</pdfrwt>
<pdfrwt beam="2">  1       -1 0.40196636E-02 0.90258438E+02</pdfrwt>
<totfact> 0.12091016E+04</totfact>
</mgrwt>
</event>
<event>
 8    1  0.2964543E-004  0.9289074E+02  0.7546771E-02  0.1296793E+00
          1   -1    0    0  501    0  0.00000000000E+00  0.00000000000E+00  0.88252020565E+02  0.88252020565E+02  0.00000000000E+00 0. -1.
         -1   -1    0    0    0  501 -0.00000000000E+00 -0.00000000000E+00 -0.10061831184E+03  0.10061831184E+03  0.00000000000E+00 0.  1.
         23    2    1    2    0    0  0.75273404124E+01  0.91635608945E+01 -0.25590172301E+02  0.95043041632E+02  0.90761727299E+02 0.  0.
         23    2    1    2    0    0 -0.75273404124E+01 -0.91635608945E+01  0.13223881027E+02  0.93827290771E+02  0.92130655930E+02 0.  0.
          5    1    3    3  502    0 -0.37885507522E+02  0.39699873446E+01  0.65925578450E+01  0.38943860859E+02  0.47000000000E+01 0. -1.
         -5    1    4    4    0  503  0.11987068368E+02  0.19694242280E+02 -0.29991845186E+02  0.38120253996E+02  0.47000000000E+01 0.  1.
          5    1    4    4  503    0 -0.19514408780E+02 -0.28857803175E+02  0.43215726213E+02  0.55707036775E+02  0.47000000000E+01 0. -1.
         -5    1    3    3    0  502  0.45412847934E+02  0.51935735499E+01 -0.32182730146E+02  0.56099180773E+02  0.47000000000E+01 0.  1.
<mgrwt>
<rscale>  0 0.92549473E+02</rscale>
<asrwt>0</asrwt>
<pdfrwt beam="1">  1        1 0.13577234E-01 0.92890739E+02</pdfrwt>
<pdfrwt beam="2">  1       -1 0.15479740E-01 0.92890739E+02</pdfrwt>
<totfact> 0.11741394E+04</totfact>
</mgrwt>
</event>
<event>
 8    1  0.2964543E-004  0.1076686E+03  0.7546771E-02  0.1268818E+00
          1   -1    0    0  501    0  0.00000000000E+00  0.00000000000E+00  0.36004254335E+02  0.36004254335E+02  0.00000000000E+00 0. -1.
         -1   -1    0    0    0  501 -0.00000000000E+00 -0.00000000000E+00 -0.31090120955E+03  0.31090120955E+03  0.00000000000E+00 0.  1.
         23    2    1    2    0    0 -0.14589657393E+02  0.41178215436E+02 -0.10861397732E+03  0.15293635600E+03  0.98407466114E+02 0.  0.
         23    2    1    2    0    0  0.14589657393E+02 -0.41178215436E+02 -0.16628297789E+03  0.19396910789E+03  0.89808031644E+02 0.  0.
          5    1    3    3  502    0 -0.44383216295E+02  0.19577595065E+02 -0.13093833361E+02  0.50464746005E+02  0.47000000000E+01 0. -1.
         -5    1    3    3    0  502  0.29793558902E+02  0.21600620371E+02 -0.95520143959E+02  0.10247160999E+03  0.47000000000E+01 0.  1.
          5    1    4    4  503    0 -0.33405672895E+02 -0.23643798157E+00 -0.81336091930E+02  0.88054782578E+02  0.47000000000E+01 0. -1.
         -5    1    4    4    0  503  0.47995330288E+02 -0.40941777455E+02 -0.84946885962E+02  0.10591432531E+03  0.47000000000E+01 0.  1.
<mgrwt>
<rscale>  0 0.10566362E+03</rscale>
<asrwt>0</asrwt>
<pdfrwt beam="1">  1        1 0.55391161E-02 0.10766863E+03</pdfrwt>
<pdfrwt beam="2">  1       -1 0.47830955E-01 0.10766863E+03</pdfrwt>
<totfact> 0.60110560E+03</totfact>
</mgrwt>
</event>
<event>
 8    1  0.5569371E-004  0.3637562E+03  0.7546771E-02  0.1057178E+00
          1   -1    0    0  501    0  0.00000000000E+00  0.00000000000E+00  0.51590958295E+03  0.51590958295E+03  0.00000000000E+00 0. -1.
         -1   -1    0    0    0  501 -0.00000000000E+00 -0.00000000000E+00 -0.53884455318E+03  0.53884455318E+03  0.00000000000E+00 0.  1.
         23    2    1    2    0    0  0.30168523830E+03 -0.18030441095E+03  0.37064113932E+03  0.51932019331E+03  0.93781370240E+02 0.  0.
         23    2    1    2    0    0 -0.30168523830E+03  0.18030441095E+03 -0.39357610955E+03  0.53543394283E+03  0.90904837662E+02 0.  0.
          5    1    3    3  502    0  0.28800603417E+03 -0.14135803209E+03  0.31277619498E+03  0.44808549084E+03  0.47000000000E+01 0. -1.
         -5    1    4    4    0  503 -0.28376518278E+03  0.14640169995E+03 -0.37505489339E+03  0.49258948402E+03  0.47000000000E+01 0.  1.
          5    1    4    4  503    0 -0.17920055515E+02  0.33902710998E+02 -0.18521216154E+02  0.42844458807E+02  0.47000000000E+01 0. -1.
         -5    1    3    3    0  502  0.13679204127E+02 -0.38946378860E+02  0.57864944343E+02  0.71234702468E+02  0.47000000000E+01 0.  1.
<mgrwt>
<rscale>  0 0.36357337E+03</rscale>
<asrwt>0</asrwt>
<pdfrwt beam="1">  1        1 0.79370705E-01 0.36375625E+03</pdfrwt>
<pdfrwt beam="2">  1       -1 0.82899162E-01 0.36375625E+03</pdfrwt>
<totfact> 0.65305508E+01</totfact>
</mgrwt>
</event>
<event>
 8    1  0.2964543E-004  0.1017923E+03  0.7546771E-02  0.1277353E+00
         -3   -1    0    0    0  501 -0.00000000000E+00  0.00000000000E+00  0.33619465092E+03  0.33619465092E+03  0.00000000000E+00 0.  1.
          3   -1    0    0  501    0  0.00000000000E+00 -0.00000000000E+00 -0.14801005125E+03  0.14801005125E+03  0.00000000000E+00 0. -1.
         23    2    1    2    0    0  0.16964762462E+02  0.38045102625E+02 -0.12189455358E+03  0.15784486419E+03  0.91222179109E+02 0.  0.
         23    2    1    2    0    0 -0.16964762462E+02 -0.38045102625E+02  0.31007915324E+03  0.32635983798E+03  0.92878574324E+02 0.  0.
          5    1    3    3  502    0  0.50875157394E+02  0.39948513824E+02 -0.90616115950E+02  0.11143399780E+03  0.47000000000E+01 0. -1.
         -5    1    3    3    0  502 -0.33910394932E+02 -0.19034111998E+01 -0.31278437625E+02  0.46410866388E+02  0.47000000000E+01 0.  1.
          5    1    4    4  503    0 -0.32634221705E+02 -0.53801278443E+02  0.28746369966E+03  0.29430772775E+03  0.47000000000E+01 0.  1.
         -5    1    4    4    0  503  0.15669459243E+02  0.15756175818E+02  0.22615453580E+02  0.32052110227E+02  0.47000000000E+01 0. -1.
<mgrwt>
<rscale>  0 0.10141287E+03</rscale>
<asrwt>0</asrwt>
<pdfrwt beam="1">  1        3 0.22770777E-01 0.10179225E+03</pdfrwt>
<pdfrwt beam="2">  1       -3 0.51722254E-01 0.10179225E+03</pdfrwt>
<totfact> 0.15005020E+02</totfact>
</mgrwt>
</event>
<event>
 8    1  0.2964543E-004  0.1343339E+03  0.7546771E-02  0.1221509E+00
         -3   -1    0    0    0  501 -0.00000000000E+00  0.00000000000E+00  0.13540618647E+02  0.13540618647E+02  0.00000000000E+00 0.  1.
          3   -1    0    0  501    0  0.00000000000E+00 -0.00000000000E+00 -0.13624216530E+04  0.13624216530E+04  0.00000000000E+00 0. -1.
         23    2    1    2    0    0 -0.24986269841E+02  0.94487555792E+02 -0.78896255960E+03  0.80015475412E+03  0.90738625795E+02 0.  0.
         23    2    1    2    0    0  0.24986269841E+02 -0.94487555792E+02 -0.55991847480E+03  0.57580751757E+03  0.92159573518E+02 0.  0.
          5    1    3    3  502    0  0.32392408279E+02  0.34682401083E+02 -0.36877476268E+03  0.37184546877E+03  0.47000000000E+01 0. -1.
         -5    1    4    4    0  503 -0.15235042222E+02 -0.85579828900E+02 -0.29201397824E+03  0.30471341801E+03  0.47000000000E+01 0.  1.
          5    1    4    4  503    0  0.40221312063E+02 -0.89077268926E+01 -0.26790449655E+03  0.27109409956E+03  0.47000000000E+01 0. -1.
         -5    1    3    3    0  502 -0.57378678120E+02  0.59805154709E+02 -0.42018779692E+03  0.42830928535E+03  0.47000000000E+01 0.  1.
<mgrwt>
<rscale>  0 0.13409054E+03</rscale>
<asrwt>0</asrwt>
<pdfrwt beam="1">  1        3 0.20960339E+00 0.13433391E+03</pdfrwt>
<pdfrwt beam="2">  1       -3 0.20831715E-02 0.13433391E+03</pdfrwt>
<totfact> 0.29613566E+02</totfact>
</mgrwt>
</event>
<event>
 8    1  0.2964543E-004  0.9880067E+02  0.7546771E-02  0.1285665E+00
          1   -1    0    0  501    0  0.00000000000E+00  0.00000000000E+00  0.26207724185E+02  0.26207724185E+02  0.00000000000E+00 0. -1.
         -1   -1    0    0    0  501 -0.00000000000E+00 -0.00000000000E+00 -0.35674384539E+03  0.35674384539E+03  0.00000000000E+00 0.  1.
         23    2    1    2    0    0 -0.84316482038E+01 -0.33751131047E+02 -0.18831953351E+03  0.21266363003E+03  0.92473462654E+02 0.  0.
         23    2    1    2    0    0  0.84316482038E+01  0.33751131047E+02 -0.14221658769E+03  0.17028793955E+03  0.86960870525E+02 0.  0.
          5    1    3    3  502    0 -0.50968428798E+01 -0.61062852338E+02 -0.80426636752E+02  0.10121849457E+03  0.47000000000E+01 0. -1.
         -5    1    3    3    0  502 -0.33348053240E+01  0.27311721291E+02 -0.10789289676E+03  0.11144513546E+03  0.47000000000E+01 0.  1.
          5    1    4    4  503    0  0.47059784982E+02  0.22773658378E+02 -0.69613324360E+02  0.87185823429E+02  0.47000000000E+01 0. -1.
         -5    1    4    4    0  503 -0.38628136778E+02  0.10977472669E+02 -0.72603263330E+02  0.83102116118E+02  0.47000000000E+01 0.  1.
<mgrwt>
<rscale>  0 0.97489957E+02</rscale>
<asrwt>0</asrwt>
<pdfrwt beam="1">  1        1 0.40319576E-02 0.98800672E+02</pdfrwt>
<pdfrwt beam="2">  1       -1 0.54883668E-01 0.98800672E+02</pdfrwt>
<totfact> 0.71497206E+03</totfact>
</mgrwt>
</event>
<event>
 8    1  0.2964543E-004  0.9909025E+02  0.7546771E-02  0.1283277E+00
         -2   -1    0    0    0  501 -0.00000000000E+00  0.00000000000E+00  0.43366915406E+03  0.43366915406E+03  0.00000000000E+00 0.  1.
          2   -1    0    0  501    0  0.00000000000E+00 -0.00000000000E+00 -0.44051245984E+02  0.44051245984E+02  0.00000000000E+00 0. -1.
         23    2    1    2    0    0 -0.27780582804E+01  0.36871909792E+02  0.36207180952E+03  0.37487262626E+03  0.89812222602E+02 0.  0.
         23    2    1    2    0    0  0.27780582804E+01 -0.36871909792E+02  0.27546098549E+02  0.10284777378E+03  0.91932701943E+02 0.  0.
          5    1    4    4  502    0  0.40572405177E+02  0.46419931635E+01  0.24677319610E+01  0.41180673421E+02  0.47000000000E+01 0. -1.
         -5    1    3    3    0  503  0.14952139390E+02  0.53181401582E+02  0.12766543925E+03  0.13918470579E+03  0.47000000000E+01 0.  1.
          5    1    3    3  503    0 -0.17730197670E+02 -0.16309491790E+02  0.23440637027E+03  0.23568792047E+03  0.47000000000E+01 0. -1.
         -5    1    4    4    0  502 -0.37794346896E+02 -0.41513902955E+02  0.25078366588E+02  0.61667100358E+02  0.47000000000E+01 0.  1.
<mgrwt>
<rscale>  0 0.98595532E+02</rscale>
<asrwt>0</asrwt>
<pdfrwt beam="1">  1        2 0.67771151E-02 0.99090247E+02</pdfrwt>
<pdfrwt beam="2">  1       -2 0.66718328E-01 0.99090247E+02</pdfrwt>
<totfact> 0.21017917E+03</totfact>
</mgrwt>
</event>
<event>
 8    1  0.2964543E-004  0.2050776E+03  0.7546771E-02  0.1145703E+00
          2   -1    0    0  501    0  0.00000000000E+00  0.00000000000E+00  0.10497459208E+04  0.10497459208E+04  0.00000000000E+00 0. -1.
         -2   -1    0    0    0  501 -0.00000000000E+00 -0.00000000000E+00 -0.39978857961E+02  0.39978857961E+02  0.00000000000E+00 0.  1.
         23    2    1    2    0    0 -0.76165635785E+02 -0.16743387533E+03  0.53114938054E+03  0.56936498938E+03  0.90672597821E+02 0.  0.
         23    2    1    2    0    0  0.76165635785E+02  0.16743387533E+03  0.47861768228E+03  0.52035978937E+03  0.88679861949E+02 0.  0.
          5    1    3    3  502    0 -0.66810683483E+02 -0.13089789723E+03  0.28903548354E+03  0.32428618174E+03  0.47000000000E+01 0. -1.
         -5    1    4    4    0  503  0.89730713414E+02  0.11994512269E+03  0.30560676932E+03  0.34037629301E+03  0.47000000000E+01 0.  1.
          5    1    4    4  503    0 -0.13565077629E+02  0.47488752642E+02  0.17301091296E+03  0.17998349636E+03  0.47000000000E+01 0. -1.
         -5    1    3    3    0  502 -0.93549523019E+01 -0.36535978104E+02  0.24211389701E+03  0.24507880764E+03  0.47000000000E+01 0.  1.
<mgrwt>
<rscale>  0 0.20485895E+03</rscale>
<asrwt>0</asrwt>
<pdfrwt beam="1">  1        2 0.16149935E+00 0.20507761E+03</pdfrwt>
<pdfrwt beam="2">  1       -2 0.61505943E-02 0.20507761E+03</pdfrwt>
<totfact> 0.34638774E+03</totfact>
</mgrwt>
</event>
<event>
 8    1  0.2964543E-004  0.1191804E+03  0.7546771E-02  0.1246255E+00
         -1   -1    0    0    0  501 -0.00000000000E+00  0.00000000000E+00  0.23813448993E+02  0.23813448993E+02  0.00000000000E+00 0.  1.
          1   -1    0    0  501    0  0.00000000000E+00 -0.00000000000E+00 -0.58162916949E+03  0.58162916949E+03  0.00000000000E+00 0. -1.
         23    2    1    2    0    0  0.21457727689E+02  0.66659092710E+02 -0.30514607597E+03  0.32607562290E+03  0.91144475695E+02 0.  0.
         23    2    1    2    0    0 -0.21457727689E+02 -0.66659092710E+02 -0.25266964453E+03  0.27936699559E+03  0.96437027323E+02 0.  0.
          5    1    3    3  502    0 -0.13977704530E+02  0.66814375723E+02 -0.25795003080E+03  0.26687046561E+03  0.47000000000E+01 0. -1.
         -5    1    3    3    0  502  0.35435432219E+02 -0.15528301350E+00 -0.47196045174E+02  0.59205157288E+02  0.47000000000E+01 0.  1.
          5    1    4    4  503    0  0.31756871849E+02 -0.28786356252E+02 -0.16123678841E+03  0.16690280152E+03  0.47000000000E+01 0. -1.
         -5    1    4    4    0  503 -0.53214599538E+02 -0.37872736457E+02 -0.91432856112E+02  0.11246419407E+03  0.47000000000E+01 0.  1.
<mgrwt>
<rscale>  0 0.11810584E+03</rscale>
<asrwt>0</asrwt>
<pdfrwt beam="1">  1        1 0.89481409E-01 0.11918041E+03</pdfrwt>
<pdfrwt beam="2">  1       -1 0.36636076E-02 0.11918041E+03</pdfrwt>
<totfact> 0.97466465E+03</totfact>
</mgrwt>
</event>
<event>
 8    1  0.2964543E-004  0.9866686E+02  0.7546771E-02  0.1288531E+00
          1   -1    0    0  501    0  0.00000000000E+00  0.00000000000E+00  0.35999790625E+03  0.35999790625E+03  0.00000000000E+00 0. -1.
         -1   -1    0    0    0  501 -0.00000000000E+00 -0.00000000000E+00 -0.30028491897E+02  0.30028491897E+02  0.00000000000E+00 0.  1.
         23    2    1    2    0    0  0.26723145168E+02 -0.13409035810E+02  0.25553808054E+03  0.27392491777E+03  0.94027768442E+02 0.  0.
         23    2    1    2    0    0 -0.26723145168E+02  0.13409035810E+02  0.74431333809E+02  0.11610148038E+03  0.83938081727E+02 0.  0.
          5    1    4    4  502    0  0.82797226284E+01  0.22108974423E+02 -0.85127847580E+01  0.25532686133E+02  0.47000000000E+01 0. -1.
         -5    1    4    4    0  502 -0.35002867797E+02 -0.86999386133E+01  0.82944118567E+02  0.90568794243E+02  0.47000000000E+01 0.  1.
          5    1    3    3  503    0  0.41442692937E+02  0.19948500382E+02  0.21180818658E+03  0.21679538133E+03  0.47000000000E+01 0. -1.
         -5    1    3    3    0  503 -0.14719547769E+02 -0.33357536192E+02  0.43729893965E+02  0.57129536437E+02  0.47000000000E+01 0.  1.
<mgrwt>
<rscale>  0 0.96184002E+02</rscale>
<asrwt>0</asrwt>
<pdfrwt beam="1">  1        1 0.55384290E-01 0.98666864E+02</pdfrwt>
<pdfrwt beam="2">  1       -1 0.46197682E-02 0.98666864E+02</pdfrwt>
<totfact> 0.12634088E+04</totfact>
</mgrwt>
</event>
<event>
 8    1  0.2964543E-004  0.1043521E+03  0.7546771E-02  0.1272631E+00
          1   -1    0    0  501    0  0.00000000000E+00  0.00000000000E+00  0.38752823612E+03  0.38752823612E+03  0.00000000000E+00 0. -1.
         -1   -1    0    0    0  501 -0.00000000000E+00 -0.00000000000E+00 -0.38597764007E+02  0.38597764007E+02  0.00000000000E+00 0.  1.
         23    2    1    2    0    0  0.34816743595E+02  0.29475839354E+02  0.58471761083E+02  0.11749089013E+03  0.91127008508E+02 0.  0.
         23    2    1    2    0    0 -0.34816743595E+02 -0.29475839354E+02  0.29045871103E+03  0.30863511000E+03  0.93852744064E+02 0.  0.
          5    1    3    3  502    0  0.63504944865E+01  0.21738390115E+02  0.78295394623E+02  0.81640340544E+02  0.47000000000E+01 0. -1.
         -5    1    4    4    0  503 -0.22598426259E+02  0.33038738062E+02  0.10369687411E+03  0.11125366862E+03  0.47000000000E+01 0.  1.
          5    1    4    4  503    0 -0.12218317336E+02 -0.62514577416E+02  0.18676183693E+03  0.19738144138E+03  0.47000000000E+01 0. -1.
         -5    1    3    3    0  502  0.28466249109E+02  0.77374492388E+01 -0.19823633539E+02  0.35850549588E+02  0.47000000000E+01 0.  1.
<mgrwt>
<rscale>  0 0.10373556E+03</rscale>
<asrwt>0</asrwt>
<pdfrwt beam="1">  1        1 0.59619726E-01 0.10435214E+03</pdfrwt>
<pdfrwt beam="2">  1       -1 0.59381178E-02 0.10435214E+03</pdfrwt>
<totfact> 0.80081571E+03</totfact>
</mgrwt>
</event>
<event>
 8    1  0.2964543E-004  0.1391336E+03  0.7546771E-02  0.1214982E+00
          2   -1    0    0  501    0  0.00000000000E+00  0.00000000000E+00  0.98039606046E+02  0.98039606046E+02  0.00000000000E+00 0. -1.
         -2   -1    0    0    0  501 -0.00000000000E+00 -0.00000000000E+00 -0.41485846831E+03  0.41485846831E+03  0.00000000000E+00 0.  1.
         23    2    1    2    0    0 -0.62030685070E+02  0.85003704352E+02  0.28469510233E+02  0.14063173423E+03  0.88844448416E+02 0.  0.
         23    2    1    2    0    0  0.62030685070E+02 -0.85003704352E+02 -0.34528837250E+03  0.37226634013E+03  0.91020504114E+02 0.  0.
          5    1    3    3  502    0 -0.35400018369E+00  0.64802819816E+02  0.37371629242E+02  0.74955049492E+02  0.47000000000E+01 0. -1.
         -5    1    4    4    0  503 -0.14966916719E+02 -0.46907422191E+02 -0.16924287206E+03  0.17632230317E+03  0.47000000000E+01 0.  1.
          5    1    4    4  503    0  0.76997601789E+02 -0.38096282161E+02 -0.17604550043E+03  0.19594403696E+03  0.47000000000E+01 0. -1.
         -5    1    3    3    0  502 -0.61676684887E+02  0.20200884537E+02 -0.89021190088E+01  0.65676684733E+02  0.47000000000E+01 0.  1.
<mgrwt>
<rscale>  0 0.13877885E+03</rscale>
<asrwt>0</asrwt>
<pdfrwt beam="1">  1        2 0.15083016E-01 0.13913363E+03</pdfrwt>
<pdfrwt beam="2">  1       -2 0.63824380E-01 0.13913363E+03</pdfrwt>
<totfact> 0.88383542E+02</totfact>
</mgrwt>
</event>
<event>
 8    1  0.2964543E-004  0.9660641E+02  0.7546771E-02  0.1287891E+00
         -1   -1    0    0    0  501 -0.00000000000E+00  0.00000000000E+00  0.13924890324E+02  0.13924890324E+02  0.00000000000E+00 0.  1.
          1   -1    0    0  501    0  0.00000000000E+00 -0.00000000000E+00 -0.70804906958E+03  0.70804906958E+03  0.00000000000E+00 0. -1.
         23    2    1    2    0    0 -0.81510289875E+01 -0.32202117205E+02 -0.26057147801E+03  0.27790338889E+03  0.90715945565E+02 0.  0.
         23    2    1    2    0    0  0.81510289875E+01  0.32202117205E+02 -0.43355270125E+03  0.44407057102E+03  0.90151603724E+02 0.  0.
          5    1    4    4  502    0  0.40670355590E+02  0.32987697569E+02 -0.35569724608E+03  0.35956207654E+03  0.47000000000E+01 0. -1.
         -5    1    3    3    0  503 -0.10330154886E+02 -0.63684772631E+02 -0.17241012090E+03  0.18414614346E+03  0.47000000000E+01 0.  1.
          5    1    3    3  503    0  0.21791258985E+01  0.31482655426E+02 -0.88161357109E+02  0.93757245425E+02  0.47000000000E+01 0. -1.
         -5    1    4    4    0  502 -0.32519326602E+02 -0.78558036449E+00 -0.77855455174E+02  0.84508494482E+02  0.47000000000E+01 0.  1.
<mgrwt>
<rscale>  0 0.96473703E+02</rscale>
<asrwt>0</asrwt>
<pdfrwt beam="1">  1        1 0.10893059E+00 0.96606410E+02</pdfrwt>
<pdfrwt beam="2">  1       -1 0.21422915E-02 0.96606410E+02</pdfrwt>
<totfact> 0.15875426E+04</totfact>
</mgrwt>
</event>
<event>
 8    1  0.2964543E-004  0.2539786E+03  0.7546771E-02  0.1110897E+00
          1   -1    0    0  501    0  0.00000000000E+00  0.00000000000E+00  0.22131024828E+03  0.22131024828E+03  0.00000000000E+00 0. -1.
         -1   -1    0    0    0  501 -0.00000000000E+00 -0.00000000000E+00 -0.42186101579E+03  0.42186101579E+03  0.00000000000E+00 0.  1.
         23    2    1    2    0    0  0.64769217098E+02 -0.22748237454E+03  0.78850109116E+02  0.26593693206E+03  0.92530156791E+02 0.  0.
         23    2    1    2    0    0 -0.64769217098E+02  0.22748237454E+03 -0.27940087662E+03  0.37723433201E+03  0.91091213528E+02 0.  0.
          5    1    3    3  502    0  0.30382858949E+00 -0.16104904339E+03  0.45333720753E+02  0.16737420030E+03  0.47000000000E+01 0. -1.
         -5    1    3    3    0  502  0.64465388508E+02 -0.66433331154E+02  0.33516388363E+02  0.98562731763E+02  0.47000000000E+01 0.  1.
          5    1    4    4  503    0 -0.81617777173E+02  0.12430557229E+03 -0.16683408485E+03  0.22353755550E+03  0.47000000000E+01 0. -1.
         -5    1    4    4    0  503  0.16848560075E+02  0.10317680225E+03 -0.11256679177E+03  0.15369677651E+03  0.47000000000E+01 0.  1.
<mgrwt>
<rscale>  0 0.25384829E+03</rscale>
<asrwt>0</asrwt>
<pdfrwt beam="1">  1        1 0.34047731E-01 0.25397857E+03</pdfrwt>
<pdfrwt beam="2">  1       -1 0.64901694E-01 0.25397857E+03</pdfrwt>
<totfact> 0.32351499E+02</totfact>
</mgrwt>
</event>
<event>
 8    1  0.2964543E-004  0.1110340E+03  0.7546771E-02  0.1258776E+00
          2   -1    0    0  501    0  0.00000000000E+00  0.00000000000E+00  0.43005803182E+03  0.43005803182E+03  0.00000000000E+00 0. -1.
         -2   -1    0    0    0  501 -0.00000000000E+00 -0.00000000000E+00 -0.30691067331E+02  0.30691067331E+02  0.00000000000E+00 0.  1.
         23    2    1    2    0    0 -0.15826940938E+02  0.59364225548E+02  0.25993819392E+03  0.28265954358E+03  0.92487564459E+02 0.  0.
         23    2    1    2    0    0  0.15826940938E+02 -0.59364225548E+02  0.13942877057E+03  0.17808955558E+03  0.92200349292E+02 0.  0.
          5    1    3    3  502    0  0.35803783646E+02  0.41549329453E+02  0.10980812757E+03  0.12283392276E+03  0.47000000000E+01 0. -1.
         -5    1    3    3    0  502 -0.51630724585E+02  0.17814896095E+02  0.15013006636E+03  0.15982562081E+03  0.47000000000E+01 0.  1.
          5    1    4    4  503    0  0.10714968751E+02  0.21194636637E+02  0.11626756857E+02  0.26856929320E+02  0.47000000000E+01 0. -1.
         -5    1    4    4    0  503  0.51119721869E+01 -0.80558862185E+02  0.12780201371E+03  0.15123262626E+03  0.47000000000E+01 0.  1.
<mgrwt>
<rscale>  0 0.11097419E+03</rscale>
<asrwt>0</asrwt>
<pdfrwt beam="1">  1        2 0.66162770E-01 0.11103402E+03</pdfrwt>
<pdfrwt beam="2">  1       -2 0.47217030E-02 0.11103402E+03</pdfrwt>
<totfact> 0.14612059E+04</totfact>
</mgrwt>
</event>
<event>
 8    1  0.2964543E-004  0.1012425E+03  0.7546771E-02  0.1278482E+00
         -1   -1    0    0    0  501 -0.00000000000E+00  0.00000000000E+00  0.14910986534E+02  0.14910986534E+02  0.00000000000E+00 0.  1.
          1   -1    0    0  501    0  0.00000000000E+00 -0.00000000000E+00 -0.69399000243E+03  0.69399000243E+03  0.00000000000E+00 0. -1.
         23    2    1    2    0    0  0.40072642618E+02 -0.11836312388E+02 -0.39692661435E+03  0.40963494519E+03  0.92217873318E+02 0.  0.
         23    2    1    2    0    0 -0.40072642618E+02  0.11836312388E+02 -0.28215240154E+03  0.29926604377E+03  0.90577438054E+02 0.  0.
          5    1    3    3  502    0  0.79353039902E+01  0.39426265082E+02 -0.15164138366E+03  0.15695412918E+03  0.47000000000E+01 0. -1.
         -5    1    4    4    0  503 -0.49356518336E+02 -0.20063513457E+02 -0.94053446573E+02  0.10819774160E+03  0.47000000000E+01 0.  1.
          5    1    4    4  503    0  0.92838757183E+01  0.31899825844E+02 -0.18809895497E+03  0.19106830218E+03  0.47000000000E+01 0. -1.
         -5    1    3    3    0  502  0.32137338628E+02 -0.51262577469E+02 -0.24528523069E+03  0.25268081601E+03  0.47000000000E+01 0.  1.
<mgrwt>
<rscale>  0 0.10086748E+03</rscale>
<asrwt>0</asrwt>
<pdfrwt beam="1">  1        1 0.10676767E+00 0.10124254E+03</pdfrwt>
<pdfrwt beam="2">  1       -1 0.22939984E-02 0.10124254E+03</pdfrwt>
<totfact> 0.14865103E+04</totfact>
</mgrwt>
</event>
<event>
 8    1  0.2964543E-004  0.9197068E+02  0.7546771E-02  0.1298190E+00
         -2   -1    0    0    0  501 -0.00000000000E+00  0.00000000000E+00  0.18716062094E+02  0.18716062094E+02  0.00000000000E+00 0.  1.
          2   -1    0    0  501    0  0.00000000000E+00 -0.00000000000E+00 -0.71484308314E+03  0.71484308314E+03  0.00000000000E+00 0. -1.
         23    2    1    2    0    0 -0.18434038306E+02 -0.17623562624E+01 -0.12557100004E+03  0.15564922850E+03  0.90087105699E+02 0.  0.
         23    2    1    2    0    0  0.18434038306E+02  0.17623562624E+01 -0.57055602101E+03  0.57790991674E+03  0.90015438049E+02 0.  0.
          5    1    4    4  502    0 -0.16871044986E+02 -0.35287313815E+02 -0.20402601827E+03  0.20779444845E+03  0.47000000000E+01 0. -1.
         -5    1    4    4    0  502  0.35305083292E+02  0.37049670078E+02 -0.36653000274E+03  0.37011546829E+03  0.47000000000E+01 0.  1.
          5    1    3    3  503    0 -0.24581921494E+02 -0.42968040518E+02 -0.61636015416E+02  0.79193508362E+02  0.47000000000E+01 0. -1.
         -5    1    3    3    0  503  0.61478831884E+01  0.41205684256E+02 -0.63934984622E+02  0.76455720134E+02  0.47000000000E+01 0.  1.
<mgrwt>
<rscale>  0 0.91953127E+02</rscale>
<asrwt>0</asrwt>
<pdfrwt beam="1">  1        2 0.10997585E+00 0.91970682E+02</pdfrwt>
<pdfrwt beam="2">  1       -2 0.28793943E-02 0.91970682E+02</pdfrwt>
<totfact> 0.16912700E+04</totfact>
</mgrwt>
</event>
<event>
 8    1  0.2964543E-004  0.1018704E+03  0.7546771E-02  0.1277230E+00
         -2   -1    0    0    0  501 -0.00000000000E+00  0.00000000000E+00  0.22031827826E+03  0.22031827826E+03  0.00000000000E+00 0.  1.
          2   -1    0    0  501    0  0.00000000000E+00 -0.00000000000E+00 -0.61988854133E+02  0.61988854133E+02  0.00000000000E+00 0. -1.
         23    2    1    2    0    0 -0.15208729701E+02  0.37357473235E+02  0.78563063450E+01  0.10059379909E+03  0.91817779321E+02 0.  0.
         23    2    1    2    0    0  0.15208729701E+02 -0.37357473235E+02  0.15047311778E+03  0.18171333331E+03  0.93545123127E+02 0.  0.
          5    1    4    4  502    0 -0.15763479824E+02 -0.60608707181E+02  0.95738213788E+02  0.11449802733E+03  0.47000000000E+01 0. -1.
         -5    1    3    3    0  503 -0.32203164135E+02  0.54825491323E+02  0.27010231032E+02  0.69242478722E+02  0.47000000000E+01 0.  1.
          5    1    3    3  503    0  0.16994434433E+02 -0.17468018088E+02 -0.19153924687E+02  0.31351320364E+02  0.47000000000E+01 0. -1.
         -5    1    4    4    0  502  0.30972209525E+02  0.23251233946E+02  0.54734903992E+02  0.67215305979E+02  0.47000000000E+01 0.  1.
<mgrwt>
<rscale>  0 0.10147210E+03</rscale>
<asrwt>0</asrwt>
<pdfrwt beam="1">  1        2 0.95367469E-02 0.10187039E+03</pdfrwt>
<pdfrwt beam="2">  1       -2 0.33895119E-01 0.10187039E+03</pdfrwt>
<totfact> 0.51570601E+03</totfact>
</mgrwt>
</event>
<event>
 8    1  0.2964543E-004  0.1371884E+03  0.7546771E-02  0.1218175E+00
         -3   -1    0    0    0  501 -0.00000000000E+00  0.00000000000E+00  0.12664681894E+02  0.12664681894E+02  0.00000000000E+00 0.  1.
          3   -1    0    0  501    0  0.00000000000E+00 -0.00000000000E+00 -0.14590789057E+04  0.14590789057E+04  0.00000000000E+00 0. -1.
         23    2    1    2    0    0  0.72339727084E+02  0.67118276322E+02 -0.77038727311E+03  0.78250700111E+03  0.95303499899E+02 0.  0.
         23    2    1    2    0    0 -0.72339727084E+02 -0.67118276322E+02 -0.67602695074E+03  0.68923658652E+03  0.91086414704E+02 0.  0.
          5    1    4    4  502    0 -0.29090708335E+02  0.19424451339E+02 -0.23993751107E+03  0.24251943807E+03  0.47000000000E+01 0. -1.
         -5    1    3    3    0  503  0.79658045263E+02  0.11796161913E+02 -0.48774988529E+03  0.49437495306E+03  0.47000000000E+01 0.  1.
          5    1    3    3  503    0 -0.73183181788E+01  0.55322114409E+02 -0.28263738781E+03  0.28813204805E+03  0.47000000000E+01 0. -1.
         -5    1    4    4    0  502 -0.43249018749E+02 -0.86542727662E+02 -0.43608943967E+03  0.44671714846E+03  0.47000000000E+01 0.  1.
<mgrwt>
<rscale>  0 0.13645877E+03</rscale>
<asrwt>0</asrwt>
<pdfrwt beam="1">  1        3 0.22447363E+00 0.13718840E+03</pdfrwt>
<pdfrwt beam="2">  1       -3 0.19484130E-02 0.13718840E+03</pdfrwt>
<totfact> 0.27028741E+02</totfact>
</mgrwt>
</event>
<event>
 8    1  0.2964543E-004  0.1057965E+03  0.7546771E-02  0.1268930E+00
          1   -1    0    0  501    0  0.00000000000E+00  0.00000000000E+00  0.58643460464E+03  0.58643460464E+03  0.00000000000E+00 0. -1.
         -1   -1    0    0    0  501 -0.00000000000E+00 -0.00000000000E+00 -0.24402275677E+02  0.24402275677E+02  0.00000000000E+00 0.  1.
         23    2    1    2    0    0 -0.53098387698E+02 -0.15607518473E+02  0.42617658715E+03  0.43911202974E+03  0.90165724162E+02 0.  0.
         23    2    1    2    0    0  0.53098387698E+02  0.15607518473E+02  0.13585574181E+03  0.17172485058E+03  0.89272662754E+02 0.  0.
          5    1    3    3  502    0 -0.49066554729E+02 -0.48152136693E+02  0.33718855487E+03  0.34415747354E+03  0.47000000000E+01 0. -1.
         -5    1    4    4    0  503  0.70906192993E+02  0.33455008162E+02  0.92460180726E+02  0.12131735571E+03  0.47000000000E+01 0.  1.
          5    1    4    4  503    0 -0.17807805295E+02 -0.17847489689E+02  0.43395561087E+02  0.50407494876E+02  0.47000000000E+01 0. -1.
         -5    1    3    3    0  502 -0.40318329696E+01  0.32544618220E+02  0.88988032282E+02  0.94954556192E+02  0.47000000000E+01 0.  1.
<mgrwt>
<rscale>  0 0.10560593E+03</rscale>
<asrwt>0</asrwt>
<pdfrwt beam="1">  1        1 0.90220698E-01 0.10579646E+03</pdfrwt>
<pdfrwt beam="2">  1       -1 0.37541967E-02 0.10579646E+03</pdfrwt>
<totfact> 0.92238688E+03</totfact>
</mgrwt>
</event>
<event>
 8    1  0.2964543E-004  0.1121601E+03  0.7546771E-02  0.1257339E+00
          4   -1    0    0  501    0  0.00000000000E+00  0.00000000000E+00  0.14336274350E+03  0.14336274350E+03  0.00000000000E+00 0. -1.
         -4   -1    0    0    0  501 -0.00000000000E+00 -0.00000000000E+00 -0.96434782655E+02  0.96434782655E+02  0.00000000000E+00 0.  1.
         23    2    1    2    0    0  0.13617487592E+02  0.55683833674E+02  0.62063075832E+02  0.12818620816E+03  0.96404114430E+02 0.  0.
         23    2    1    2    0    0 -0.13617487592E+02 -0.55683833674E+02 -0.15135114986E+02  0.11161131800E+03  0.94561563540E+02 0.  0.
          5    1    4    4  502    0 -0.20863237121E+02  0.21664200080E+02 -0.14644362636E+02  0.33781053644E+02  0.47000000000E+01 0. -1.
         -5    1    4    4    0  502  0.72457495291E+01 -0.77348033754E+02 -0.49075234996E+00  0.77830264356E+02  0.47000000000E+01 0.  1.
          5    1    3    3  503    0 -0.36255556413E+02  0.49660972116E+02  0.32457584477E+02  0.69686887665E+02  0.47000000000E+01 0. -1.
         -5    1    3    3    0  503  0.49873044005E+02  0.60228615577E+01  0.29605491355E+02  0.58499320492E+02  0.47000000000E+01 0.  1.
<mgrwt>
<rscale>  0 0.11176303E+03</rscale>
<asrwt>0</asrwt>
<pdfrwt beam="1">  1        4 0.22055807E-01 0.11216006E+03</pdfrwt>
<pdfrwt beam="2">  1       -4 0.14836120E-01 0.11216006E+03</pdfrwt>
<totfact> 0.11467547E+03</totfact>
</mgrwt>
</event>
<event>
 8    1  0.2964543E-004  0.1166875E+03  0.7546771E-02  0.1248695E+00
          2   -1    0    0  501    0  0.00000000000E+00  0.00000000000E+00  0.42857733944E+03  0.42857733944E+03  0.00000000000E+00 0. -1.
         -2   -1    0    0    0  501 -0.00000000000E+00 -0.00000000000E+00 -0.33193801211E+02  0.33193801211E+02  0.00000000000E+00 0.  1.
         23    2    1    2    0    0 -0.40538606918E+02  0.58390560847E+02  0.24589408367E+03  0.27217617375E+03  0.92537197523E+02 0.  0.
         23    2    1    2    0    0  0.40538606918E+02 -0.58390560847E+02  0.14948945455E+03  0.18959496690E+03  0.92446299025E+02 0.  0.
          5    1    3    3  502    0 -0.61285129890E+02  0.62288163042E+02  0.14811796454E+03  0.17203692575E+03  0.47000000000E+01 0. -1.
         -5    1    4    4    0  503  0.62769980480E+02 -0.47621892265E+02  0.67567522895E+02  0.10390079510E+03  0.47000000000E+01 0.  1.
          5    1    4    4  503    0 -0.22231373561E+02 -0.10768668583E+02  0.81921931658E+02  0.85694171797E+02  0.47000000000E+01 0. -1.
         -5    1    3    3    0  502  0.20746522972E+02 -0.38976021942E+01  0.97776119129E+02  0.10013924800E+03  0.47000000000E+01 0.  1.
<mgrwt>
<rscale>  0 0.11666946E+03</rscale>
<asrwt>0</asrwt>
<pdfrwt beam="1">  1        2 0.65934971E-01 0.11668749E+03</pdfrwt>
<pdfrwt beam="2">  1       -2 0.51067390E-02 0.11668749E+03</pdfrwt>
<totfact> 0.13099673E+04</totfact>
</mgrwt>
</event>
<event>
 8    1  0.2964543E-004  0.1286910E+03  0.7546771E-02  0.1229868E+00
          1   -1    0    0  501    0  0.00000000000E+00  0.00000000000E+00  0.24274677456E+03  0.24274677456E+03  0.00000000000E+00 0. -1.
         -1   -1    0    0    0  501 -0.00000000000E+00 -0.00000000000E+00 -0.67876019337E+02  0.67876019337E+02  0.00000000000E+00 0.  1.
         23    2    1    2    0    0 -0.64422547372E+02 -0.60610199588E+02  0.97195635622E+02  0.16030713997E+03  0.91801561200E+02 0.  0.
         23    2    1    2    0    0  0.64422547372E+02  0.60610199588E+02  0.77675119599E+02  0.15031565392E+03  0.93474652739E+02 0.  0.
          5    1    4    4  502    0  0.51635581884E+02  0.85552113116E+02  0.64172270031E+02  0.11885103119E+03  0.47000000000E+01 0. -1.
         -5    1    4    4    0  502  0.12786965487E+02 -0.24941913528E+02  0.13502849568E+02  0.31464622725E+02  0.47000000000E+01 0.  1.
          5    1    3    3  503    0 -0.42109345776E+02  0.17483420560E+02  0.40278391355E+02  0.61018897125E+02  0.47000000000E+01 0. -1.
         -5    1    3    3    0  503 -0.22313201595E+02 -0.78093620148E+02  0.56917244267E+02  0.99288242849E+02  0.47000000000E+01 0.  1.
<mgrwt>
<rscale>  0 0.12838740E+03</rscale>
<asrwt>0</asrwt>
<pdfrwt beam="1">  1        1 0.37345657E-01 0.12869099E+03</pdfrwt>
<pdfrwt beam="2">  1       -1 0.10442465E-01 0.12869099E+03</pdfrwt>
<totfact> 0.62033647E+03</totfact>
</mgrwt>
</event>
<event>
 8    1  0.2964543E-004  0.1059015E+03  0.7546771E-02  0.1269224E+00
          1   -1    0    0  501    0  0.00000000000E+00  0.00000000000E+00  0.96667804471E+02  0.96667804471E+02  0.00000000000E+00 0. -1.
         -1   -1    0    0    0  501 -0.00000000000E+00 -0.00000000000E+00 -0.12309393393E+03  0.12309393393E+03  0.00000000000E+00 0.  1.
         23    2    1    2    0    0 -0.99999735775E+01 -0.53792835596E+02  0.16614343675E+02  0.10544811399E+03  0.88597966648E+02 0.  0.
         23    2    1    2    0    0  0.99999735775E+01  0.53792835596E+02 -0.43040473139E+02  0.11431362442E+03  0.90672232614E+02 0.  0.
          5    1    3    3  502    0 -0.43755188615E+02 -0.54204167340E+02  0.78718584038E+01  0.70261400800E+02  0.47000000000E+01 0. -1.
         -5    1    4    4    0  503 -0.11029642427E+02  0.66987031093E+02 -0.44624763100E+01  0.68197646892E+02  0.47000000000E+01 0.  1.
          5    1    4    4  503    0  0.21029616005E+02 -0.13194195497E+02 -0.38577996829E+02  0.46115977529E+02  0.47000000000E+01 0. -1.
         -5    1    3    3    0  502  0.33755215037E+02  0.41133174330E+00  0.87424852709E+01  0.35186713185E+02  0.47000000000E+01 0.  1.
<mgrwt>
<rscale>  0 0.10545606E+03</rscale>
<asrwt>0</asrwt>
<pdfrwt beam="1">  1        1 0.14871970E-01 0.10590147E+03</pdfrwt>
<pdfrwt beam="2">  1       -1 0.18937528E-01 0.10590147E+03</pdfrwt>
<totfact> 0.76989964E+03</totfact>
</mgrwt>
</event>
<event>
 8    1  0.2964543E-004  0.1008008E+03  0.7546771E-02  0.1280254E+00
         -2   -1    0    0    0  501 -0.00000000000E+00  0.00000000000E+00  0.39006884600E+02  0.39006884600E+02  0.00000000000E+00 0.  1.
          2   -1    0    0  501    0  0.00000000000E+00 -0.00000000000E+00 -0.28257205059E+03  0.28257205059E+03  0.00000000000E+00 0. -1.
         23    2    1    2    0    0  0.78297916057E+01  0.38669658337E+02 -0.67705012695E+02  0.11887819818E+03  0.89394681869E+02 0.  0.
         23    2    1    2    0    0 -0.78297916057E+01 -0.38669658337E+02 -0.17586015330E+03  0.20270073701E+03  0.92758542219E+02 0.  0.
          5    1    4    4  502    0  0.59033066177E+01  0.29805348207E+02 -0.56891923827E+02  0.64668298319E+02  0.47000000000E+01 0. -1.
         -5    1    3    3    0  503  0.75118693741E+01 -0.27633326829E+02 -0.32821640438E+02  0.43810718029E+02  0.47000000000E+01 0.  1.
          5    1    3    3  503    0  0.31792223162E+00  0.66302985166E+02 -0.34883372257E+02  0.75067480153E+02  0.47000000000E+01 0. -1.
         -5    1    4    4    0  502 -0.13733098223E+02 -0.68475006544E+02 -0.11896822947E+03  0.13803243869E+03  0.47000000000E+01 0.  1.
<mgrwt>
<rscale>  0 0.10002010E+03</rscale>
<asrwt>0</asrwt>
<pdfrwt beam="1">  1        2 0.43472624E-01 0.10080077E+03</pdfrwt>
<pdfrwt beam="2">  1       -2 0.60010591E-02 0.10080077E+03</pdfrwt>
<totfact> 0.15752056E+04</totfact>
</mgrwt>
</event>
<event>
 8    1  0.2964543E-004  0.1446506E+03  0.7546771E-02  0.1207691E+00
         -1   -1    0    0    0  501 -0.00000000000E+00  0.00000000000E+00  0.14829194289E+03  0.14829194289E+03  0.00000000000E+00 0.  1.
          1   -1    0    0  501    0  0.00000000000E+00 -0.00000000000E+00 -0.14335405646E+03  0.14335405646E+03  0.00000000000E+00 0. -1.
         23    2    1    2    0    0 -0.10720484974E+03  0.31002580435E+02  0.25957633648E+02  0.14696122660E+03  0.92031318456E+02 0.  0.
         23    2    1    2    0    0  0.10720484974E+03 -0.31002580435E+02 -0.21019747223E+02  0.14468477275E+03  0.89653855962E+02 0.  0.
          5    1    4    4  502    0  0.90379333592E+02  0.43308643427E+01 -0.42186372860E+02  0.99944786665E+02  0.47000000000E+01 0. -1.
         -5    1    4    4    0  502  0.16825516153E+02 -0.35333444777E+02  0.21166625637E+02  0.44739986081E+02  0.47000000000E+01 0.  1.
          5    1    3    3  503    0 -0.20275154476E+02 -0.82295268266E+01 -0.29120077949E+02  0.36727046445E+02  0.47000000000E+01 0. -1.
         -5    1    3    3    0  503 -0.86929695269E+02  0.39232107261E+02  0.55077711597E+02  0.11023418015E+03  0.47000000000E+01 0.  1.
<mgrwt>
<rscale>  0 0.14427394E+03</rscale>
<asrwt>0</asrwt>
<pdfrwt beam="1">  1        1 0.22054470E-01 0.14465063E+03</pdfrwt>
<pdfrwt beam="2">  1       -1 0.22814145E-01 0.14465063E+03</pdfrwt>
<totfact> 0.35244419E+03</totfact>
</mgrwt>
</event>
<event>
 8    1  0.2964543E-004  0.9993635E+02  0.7546771E-02  0.1281298E+00
         -1   -1    0    0    0  501 -0.00000000000E+00  0.00000000000E+00  0.24249955640E+03  0.24249955640E+03  0.00000000000E+00 0.  1.
          1   -1    0    0  501    0  0.00000000000E+00 -0.00000000000E+00 -0.42515956647E+02  0.42515956647E+02  0.00000000000E+00 0. -1.
         23    2    1    2    0    0  0.24060613588E+02  0.27562197548E+02  0.13170112952E+03  0.16532532064E+03  0.92998313263E+02 0.  0.
         23    2    1    2    0    0 -0.24060613588E+02 -0.27562197548E+02  0.68282470236E+02  0.11969019240E+03  0.91239566836E+02 0.  0.
          5    1    4    4  502    0  0.15980586369E+02 -0.40140993412E+02  0.51919424100E+01  0.43768993121E+02  0.47000000000E+01 0. -1.
         -5    1    3    3    0  503 -0.53052930785E+01  0.56647987490E+02  0.63063825348E+02  0.85066307601E+02  0.47000000000E+01 0.  1.
          5    1    3    3  503    0  0.29365906666E+02 -0.29085789943E+02  0.68637304170E+02  0.80259013043E+02  0.47000000000E+01 0. -1.
         -5    1    4    4    0  502 -0.40041199956E+02  0.12578795865E+02  0.63090527826E+02  0.75921199284E+02  0.47000000000E+01 0.  1.
<mgrwt>
<rscale>  0 0.99525186E+02</rscale>
<asrwt>0</asrwt>
<pdfrwt beam="1">  1        1 0.65409166E-02 0.99936350E+02</pdfrwt>
<pdfrwt beam="2">  1       -1 0.37307623E-01 0.99936350E+02</pdfrwt>
<totfact> 0.73901164E+03</totfact>
</mgrwt>
</event>
<event>
 8    1  0.2964543E-004  0.9992080E+02  0.7546771E-02  0.1283093E+00
          1   -1    0    0  501    0  0.00000000000E+00  0.00000000000E+00  0.32776582573E+03  0.32776582573E+03  0.00000000000E+00 0. -1.
         -1   -1    0    0    0  501 -0.00000000000E+00 -0.00000000000E+00 -0.55536901534E+02  0.55536901534E+02  0.00000000000E+00 0.  1.
         23    2    1    2    0    0  0.42237025470E+02  0.66504625447E+01  0.18749253648E+01  0.95074605396E+02  0.84896821340E+02 0.  0.
         23    2    1    2    0    0 -0.42237025470E+02 -0.66504625447E+01  0.27035399883E+03  0.28822812186E+03  0.90310412349E+02 0.  0.
          5    1    4    4  502    0 -0.26402152450E+02 -0.27420708318E+02  0.25437714355E+03  0.25725238591E+03  0.47000000000E+01 0. -1.
         -5    1    4    4    0  502 -0.15834873019E+02  0.20770245773E+02  0.15976855279E+02  0.30975735950E+02  0.47000000000E+01 0.  1.
          5    1    3    3  503    0 -0.72328992526E+01  0.32616596109E+02  0.15873587248E+02  0.37285626527E+02  0.47000000000E+01 0. -1.
         -5    1    3    3    0  503  0.49469924722E+02 -0.25966133564E+02 -0.13998661884E+02  0.57788978870E+02  0.47000000000E+01 0.  1.
<mgrwt>
<rscale>  0 0.98681770E+02</rscale>
<asrwt>0</asrwt>
<pdfrwt beam="1">  1        1 0.50425511E-01 0.99920796E+02</pdfrwt>
<pdfrwt beam="2">  1       -1 0.85441389E-02 0.99920796E+02</pdfrwt>
<totfact> 0.57122488E+03</totfact>
</mgrwt>
</event>
<event>
 8    1  0.2964543E-004  0.1091067E+03  0.7546771E-02  0.1262977E+00
         -1   -1    0    0    0  501 -0.00000000000E+00  0.00000000000E+00  0.16753267394E+03  0.16753267394E+03  0.00000000000E+00 0.  1.
          1   -1    0    0  501    0  0.00000000000E+00 -0.00000000000E+00 -0.19194204060E+03  0.19194204060E+03  0.00000000000E+00 0. -1.
         23    2    1    2    0    0 -0.44603151161E+02  0.37621424409E+02 -0.15541313828E+03  0.18898642213E+03  0.90320604142E+02 0.  0.
         23    2    1    2    0    0  0.44603151161E+02 -0.37621424409E+02  0.13100377162E+03  0.17048829241E+03  0.92192499711E+02 0.  0.
          5    1    3    3  502    0 -0.25739914033E+02  0.26508615354E+02 -0.16153413594E+03  0.16577278708E+03  0.47000000000E+01 0. -1.
         -5    1    3    3    0  502 -0.18863237128E+02  0.11112809055E+02  0.61209976594E+01  0.23213635054E+02  0.47000000000E+01 0.  1.
          5    1    4    4  503    0  0.64027887649E+02 -0.15609778431E+02  0.46192413953E+02  0.80616776704E+02  0.47000000000E+01 0. -1.
         -5    1    4    4    0  503 -0.19424736487E+02 -0.22011645978E+02  0.84811357668E+02  0.89871515709E+02  0.47000000000E+01 0.  1.
<mgrwt>
<rscale>  0 0.10871027E+03</rscale>
<asrwt>0</asrwt>
<pdfrwt beam="1">  1        1 0.29529545E-01 0.10910669E+03</pdfrwt>
<pdfrwt beam="2">  1       -1 0.25774258E-01 0.10910669E+03</pdfrwt>
<totfact> 0.19783380E+03</totfact>
</mgrwt>
</event>
<event>
 8    1  0.3055610E-004  0.1254579E+03  0.7546771E-02  0.1242919E+00
         -2   -1    0    0    0  501 -0.00000000000E+00  0.00000000000E+00  0.14414005399E+03  0.14414005399E+03  0.00000000000E+00 0.  1.
          2   -1    0    0  501    0  0.00000000000E+00 -0.00000000000E+00 -0.27764827755E+03  0.27764827755E+03  0.00000000000E+00 0. -1.
         23    2    1    2    0    0 -0.47928052770E+02 -0.12698171728E+02 -0.23685642870E+03  0.25924439501E+03  0.92996487698E+02 0.  0.
         23    2    1    2    0    0  0.47928052770E+02  0.12698171728E+02  0.10334820514E+03  0.16254393653E+03  0.11524468748E+03 0.  0.
          5    1    3    3  502    0 -0.75131753947E+02 -0.10970612325E+02 -0.19229450366E+03  0.20679555345E+03  0.47000000000E+01 0. -1.
         -5    1    4    4    0  503  0.28673686296E+02 -0.49047665864E+02  0.67831156539E+02  0.88605923109E+02  0.47000000000E+01 0.  1.
          5    1    4    4  503    0  0.19254366474E+02  0.61745837592E+02  0.35517048597E+02  0.73938013425E+02  0.47000000000E+01 0. -1.
         -5    1    3    3    0  502  0.27203701177E+02 -0.17275594032E+01 -0.44561925034E+02  0.52448841570E+02  0.47000000000E+01 0.  1.
<mgrwt>
<rscale>  0 0.12010789E+03</rscale>
<asrwt>0</asrwt>
<pdfrwt beam="1">  1        2 0.42715119E-01 0.12545788E+03</pdfrwt>
<pdfrwt beam="2">  1       -2 0.22175393E-01 0.12545788E+03</pdfrwt>
<totfact> 0.20327228E+03</totfact>
</mgrwt>
</event>
<event>
 8    1  0.2964543E-004  0.1477604E+03  0.7546771E-02  0.1203609E+00
         -1   -1    0    0    0  501 -0.00000000000E+00  0.00000000000E+00  0.30253808727E+03  0.30253808727E+03  0.00000000000E+00 0.  1.
          1   -1    0    0  501    0  0.00000000000E+00 -0.00000000000E+00 -0.17881163963E+03  0.17881163963E+03  0.00000000000E+00 0. -1.
         23    2    1    2    0    0 -0.11561812623E+03  0.57048501123E+01 -0.12457992603E+03  0.19240476361E+03  0.89996325829E+02 0.  0.
         23    2    1    2    0    0  0.11561812623E+03 -0.57048501123E+01  0.24830637367E+03  0.28894496329E+03  0.91831585946E+02 0.  0.
          5    1    4    4  502    0  0.53219596164E+02  0.36342150901E+02  0.16164168750E+03  0.17407815051E+03  0.47000000000E+01 0. -1.
         -5    1    3    3    0  503 -0.84083026548E+02 -0.35716685351E+02 -0.96900781147E+02  0.13325722627E+03  0.47000000000E+01 0.  1.
          5    1    3    3  503    0 -0.31535099681E+02  0.41421535464E+02 -0.27679144881E+02  0.59147537340E+02  0.47000000000E+01 0. -1.
         -5    1    4    4    0  502  0.62398530065E+02 -0.42047001013E+02  0.86664686168E+02  0.11486681278E+03  0.47000000000E+01 0.  1.
<mgrwt>
<rscale>  0 0.14747620E+03</rscale>
<asrwt>0</asrwt>
<pdfrwt beam="1">  1        1 0.27509483E-01 0.14776040E+03</pdfrwt>
<pdfrwt beam="2">  1       -1 0.46544321E-01 0.14776040E+03</pdfrwt>
<totfact> 0.79076767E+02</totfact>
</mgrwt>
</event>
<event>
 8    1  0.2964543E-004  0.1060056E+03  0.7546771E-02  0.1268602E+00
         -1   -1    0    0    0  501 -0.00000000000E+00  0.00000000000E+00  0.26028930903E+02  0.26028930903E+02  0.00000000000E+00 0.  1.
          1   -1    0    0  501    0  0.00000000000E+00 -0.00000000000E+00 -0.43142988364E+03  0.43142988364E+03  0.00000000000E+00 0. -1.
         23    2    1    2    0    0 -0.45815121708E+02  0.27441748477E+02 -0.18132332776E+03  0.20957179564E+03  0.90499245300E+02 0.  0.
         23    2    1    2    0    0  0.45815121708E+02 -0.27441748477E+02 -0.22407762498E+03  0.24788701891E+03  0.91570285523E+02 0.  0.
          5    1    4    4  502    0 -0.17612440225E+02  0.18596300755E+02 -0.75086121506E+02  0.79473493036E+02  0.47000000000E+01 0. -1.
         -5    1    4    4    0  502  0.63427561933E+02 -0.46038049233E+02 -0.14899150347E+03  0.16841352587E+03  0.47000000000E+01 0.  1.
          5    1    3    3  503    0 -0.26617367619E+01  0.51059553728E+02 -0.62525485387E+02  0.80905433640E+02  0.47000000000E+01 0. -1.
         -5    1    3    3    0  503 -0.43153384946E+02 -0.23617805250E+02 -0.11879784238E+03  0.12866636200E+03  0.47000000000E+01 0.  1.
<mgrwt>
<rscale>  0 0.10577391E+03</rscale>
<asrwt>0</asrwt>
<pdfrwt beam="1">  1        1 0.66373820E-01 0.10600562E+03</pdfrwt>
<pdfrwt beam="2">  1       -1 0.40044514E-02 0.10600562E+03</pdfrwt>
<totfact> 0.12500014E+04</totfact>
</mgrwt>
</event>
<event>
 8    1  0.2964543E-004  0.9572986E+02  0.7546771E-02  0.1290136E+00
          2   -1    0    0  501    0  0.00000000000E+00  0.00000000000E+00  0.11566557237E+03  0.11566557237E+03  0.00000000000E+00 0. -1.
         -2   -1    0    0    0  501 -0.00000000000E+00 -0.00000000000E+00 -0.10128530578E+03  0.10128530578E+03  0.00000000000E+00 0.  1.
         23    2    1    2    0    0  0.17547430517E+02 -0.12967612030E+02  0.58834735456E+02  0.11236427976E+03  0.93210160333E+02 0.  0.
         23    2    1    2    0    0 -0.17547430517E+02  0.12967612030E+02 -0.44454468868E+02  0.10458659839E+03  0.92119951595E+02 0.  0.
          5    1    3    3  502    0  0.51073794018E+02  0.58536810215E+01  0.51543975869E+02  0.72949773580E+02  0.47000000000E+01 0. -1.
         -5    1    4    4    0  503 -0.21726254051E+02 -0.37447470317E+02 -0.24777165409E+02  0.50103304022E+02  0.47000000000E+01 0.  1.
          5    1    4    4  503    0  0.41788235345E+01  0.50415082347E+02 -0.19677303459E+02  0.54483294372E+02  0.47000000000E+01 0. -1.
         -5    1    3    3    0  502 -0.33526363501E+02 -0.18821293051E+02  0.72907595868E+01  0.39414506176E+02  0.47000000000E+01 0.  1.
<mgrwt>
<rscale>  0 0.95463449E+02</rscale>
<asrwt>0</asrwt>
<pdfrwt beam="1">  1        2 0.17794703E-01 0.95729856E+02</pdfrwt>
<pdfrwt beam="2">  1       -2 0.15582355E-01 0.95729856E+02</pdfrwt>
<totfact> 0.93361006E+03</totfact>
</mgrwt>
</event>
<event>
 8    1  0.2964543E-004  0.1344619E+03  0.7546771E-02  0.1222163E+00
          2   -1    0    0  501    0  0.00000000000E+00  0.00000000000E+00  0.59297529426E+02  0.59297529426E+02  0.00000000000E+00 0. -1.
         -2   -1    0    0    0  501 -0.00000000000E+00 -0.00000000000E+00 -0.36908548323E+03  0.36908548323E+03  0.00000000000E+00 0.  1.
         23    2    1    2    0    0  0.29572391004E+02  0.91947384501E+02 -0.25076620848E+03  0.28454117831E+03  0.93547544121E+02 0.  0.
         23    2    1    2    0    0 -0.29572391004E+02 -0.91947384501E+02 -0.59021745321E+02  0.14384183435E+03  0.88758430928E+02 0.  0.
          5    1    4    4  502    0 -0.37099818816E+02 -0.14083582015E+01 -0.42751966565E+01  0.37666262563E+02  0.47000000000E+01 0. -1.
         -5    1    4    4    0  502  0.75274278119E+01 -0.90539026299E+02 -0.54746548664E+02  0.10617557178E+03  0.47000000000E+01 0.  1.
          5    1    3    3  503    0  0.32645237187E+01  0.56059057794E+02 -0.40066240751E+02  0.69142380085E+02  0.47000000000E+01 0. -1.
         -5    1    3    3    0  503  0.26307867285E+02  0.35888326707E+02 -0.21069996773E+03  0.21539879822E+03  0.47000000000E+01 0.  1.
<mgrwt>
<rscale>  0 0.13363253E+03</rscale>
<asrwt>0</asrwt>
<pdfrwt beam="1">  1        2 0.91226969E-02 0.13446186E+03</pdfrwt>
<pdfrwt beam="2">  1       -2 0.56782382E-01 0.13446186E+03</pdfrwt>
<totfact> 0.20572294E+03</totfact>
</mgrwt>
</event>
<event>
 8    1  0.2964543E-004  0.9182499E+02  0.7546771E-02  0.1299006E+00
         -3   -1    0    0    0  501 -0.00000000000E+00  0.00000000000E+00  0.28006982875E+03  0.28006982875E+03  0.00000000000E+00 0.  1.
          3   -1    0    0  501    0  0.00000000000E+00 -0.00000000000E+00 -0.29883697430E+02  0.29883697430E+02  0.00000000000E+00 0. -1.
         23    2    1    2    0    0  0.70303600866E+01 -0.27607967770E+01  0.13153530552E+03  0.15992070426E+03  0.90642413316E+02 0.  0.
         23    2    1    2    0    0 -0.70303600866E+01  0.27607967770E+01  0.11865082580E+03  0.15003282192E+03  0.91513830800E+02 0.  0.
          5    1    3    3  502    0 -0.29717785084E+02  0.93606646162E+01  0.11194434058E+03  0.11629442884E+03  0.47000000000E+01 0. -1.
         -5    1    4    4    0  503  0.35944944421E+02 -0.73452002090E+01  0.89710119556E+02  0.97036006442E+02  0.47000000000E+01 0.  1.
          5    1    4    4  503    0 -0.42975304507E+02  0.10105996986E+02  0.28940706243E+02  0.52996815474E+02  0.47000000000E+01 0. -1.
         -5    1    3    3    0  502  0.36748145171E+02 -0.12121461393E+02  0.19590964945E+02  0.43626275423E+02  0.47000000000E+01 0.  1.
<mgrwt>
<rscale>  0 0.91607109E+02</rscale>
<asrwt>0</asrwt>
<pdfrwt beam="1">  1        3 0.45974921E-02 0.91824992E+02</pdfrwt>
<pdfrwt beam="2">  1       -3 0.43087664E-01 0.91824992E+02</pdfrwt>
<totfact> 0.29603763E+03</totfact>
</mgrwt>
</event>
<event>
 8    1  0.2964543E-004  0.1142785E+03  0.7546771E-02  0.1253196E+00
          3   -1    0    0  501    0  0.00000000000E+00  0.00000000000E+00  0.31195289311E+03  0.31195289311E+03  0.00000000000E+00 0. -1.
         -3   -1    0    0    0  501 -0.00000000000E+00 -0.00000000000E+00 -0.53015436058E+02  0.53015436058E+02  0.00000000000E+00 0.  1.
         23    2    1    2    0    0  0.40407651867E+02  0.53570400171E+02  0.44339467862E+02  0.12183899798E+03  0.91521510661E+02 0.  0.
         23    2    1    2    0    0 -0.40407651867E+02 -0.53570400171E+02  0.21459798919E+03  0.24312933119E+03  0.92504100543E+02 0.  0.
          5    1    3    3  502    0  0.21262848135E+02 -0.22676595380E+02 -0.43978585517E-01  0.31439284708E+02  0.47000000000E+01 0. -1.
         -5    1    3    3    0  502  0.19144803731E+02  0.76246995550E+02  0.44383446448E+02  0.90399713268E+02  0.47000000000E+01 0.  1.
          5    1    4    4  503    0 -0.22714570047E+02 -0.79288790868E+02  0.15068253434E+03  0.17184289396E+03  0.47000000000E+01 0. -1.
         -5    1    4    4    0  503 -0.17693081820E+02  0.25718390697E+02  0.63915454852E+02  0.71286437232E+02  0.47000000000E+01 0.  1.
<mgrwt>
<rscale>  0 0.11407950E+03</rscale>
<asrwt>0</asrwt>
<pdfrwt beam="1">  1        3 0.47992752E-01 0.11427850E+03</pdfrwt>
<pdfrwt beam="2">  1       -3 0.81562211E-02 0.11427850E+03</pdfrwt>
<totfact> 0.10052042E+03</totfact>
</mgrwt>
</event>
<event>
 8    1  0.2964543E-004  0.1581008E+03  0.7546771E-02  0.1193786E+00
          1   -1    0    0  501    0  0.00000000000E+00  0.00000000000E+00  0.63707468652E+03  0.63707468652E+03  0.00000000000E+00 0. -1.
         -1   -1    0    0    0  501 -0.00000000000E+00 -0.00000000000E+00 -0.43477040478E+02  0.43477040478E+02  0.00000000000E+00 0.  1.
         23    2    1    2    0    0  0.87013568730E+02  0.77208352953E+02  0.42174426910E+03  0.44703631672E+03  0.91873549188E+02 0.  0.
         23    2    1    2    0    0 -0.87013568730E+02 -0.77208352953E+02  0.17185337694E+03  0.23351541028E+03  0.10706714137E+03 0.  0.
          5    1    3    3  502    0  0.50479030645E+02 -0.66505311744E+01  0.21353358886E+03  0.21957013839E+03  0.47000000000E+01 0. -1.
         -5    1    3    3    0  502  0.36534538085E+02  0.83858884127E+02  0.20821068024E+03  0.22746617833E+03  0.47000000000E+01 0.  1.
          5    1    4    4  503    0  0.14922606800E+02 -0.20261823688E+02  0.82585161472E+02  0.86461694341E+02  0.47000000000E+01 0. -1.
         -5    1    4    4    0  503 -0.10193617553E+03 -0.56946529265E+02  0.89268215469E+02  0.14705371593E+03  0.47000000000E+01 0.  1.
<mgrwt>
<rscale>  0 0.15557411E+03</rscale>
<asrwt>0</asrwt>
<pdfrwt beam="1">  1        1 0.98011484E-01 0.15810080E+03</pdfrwt>
<pdfrwt beam="2">  1       -1 0.66887759E-02 0.15810080E+03</pdfrwt>
<totfact> 0.35851655E+03</totfact>
</mgrwt>
</event>
<event>
 8    1  0.2964543E-004  0.1552796E+03  0.7546771E-02  0.1194306E+00
         -1   -1    0    0    0  501 -0.00000000000E+00  0.00000000000E+00  0.11286705259E+03  0.11286705259E+03  0.00000000000E+00 0.  1.
          1   -1    0    0  501    0  0.00000000000E+00 -0.00000000000E+00 -0.54063834497E+03  0.54063834497E+03  0.00000000000E+00 0. -1.
         23    2    1    2    0    0  0.12830810048E+03  0.25900903607E+01  0.40714559202E+02  0.15995625845E+03  0.86363488064E+02 0.  0.
         23    2    1    2    0    0 -0.12830810048E+03 -0.25900903607E+01 -0.46848585159E+03  0.49354913911E+03  0.87419004584E+02 0.  0.
          5    1    4    4  502    0 -0.12236131206E+03 -0.27393466281E+02 -0.42266471129E+03  0.44089708646E+03  0.47000000000E+01 0. -1.
         -5    1    4    4    0  502 -0.59467884139E+01  0.24803375920E+02 -0.45821140302E+02  0.52652052648E+02  0.47000000000E+01 0.  1.
          5    1    3    3  503    0  0.10885392065E+02  0.31168472702E+02  0.41301239022E+01  0.33602282280E+02  0.47000000000E+01 0. -1.
         -5    1    3    3    0  503  0.11742270841E+03 -0.28578382341E+02  0.36584435300E+02  0.12635397617E+03  0.47000000000E+01 0.  1.
<mgrwt>
<rscale>  0 0.15513146E+03</rscale>
<asrwt>0</asrwt>
<pdfrwt beam="1">  1        1 0.83175131E-01 0.15527962E+03</pdfrwt>
<pdfrwt beam="2">  1       -1 0.17364162E-01 0.15527962E+03</pdfrwt>
<totfact> 0.10301279E+03</totfact>
</mgrwt>
</event>
<event>
 8    1  0.2964543E-004  0.9117895E+02  0.7546771E-02  0.1300462E+00
         -1   -1    0    0    0  501 -0.00000000000E+00  0.00000000000E+00  0.83039847867E+01  0.83039847867E+01  0.00000000000E+00 0.  1.
          1   -1    0    0  501    0  0.00000000000E+00 -0.00000000000E+00 -0.10100829338E+04  0.10100829338E+04  0.00000000000E+00 0. -1.
         23    2    1    2    0    0 -0.10823991088E+02  0.36719800418E+01 -0.56895646501E+03  0.57621615701E+03  0.90459705375E+02 0.  0.
         23    2    1    2    0    0  0.10823991088E+02 -0.36719800418E+01 -0.43282248401E+03  0.44217076159E+03  0.89716428364E+02 0.  0.
          5    1    3    3  502    0  0.11027175704E+02 -0.34955796894E+02 -0.13485015068E+03  0.13982188483E+03  0.47000000000E+01 0. -1.
         -5    1    4    4    0  503 -0.27057674348E+02  0.21977012630E+02 -0.96342937430E+02  0.10256294856E+03  0.47000000000E+01 0.  1.
          5    1    4    4  503    0  0.37881665436E+02 -0.25648992671E+02 -0.33647954658E+03  0.33960781302E+03  0.47000000000E+01 0. -1.
         -5    1    3    3    0  502 -0.21851166792E+02  0.38627776936E+02 -0.43410631434E+03  0.43639427218E+03  0.47000000000E+01 0.  1.
<mgrwt>
<rscale>  0 0.90994045E+02</rscale>
<asrwt>0</asrwt>
<pdfrwt beam="1">  1        1 0.15539731E+00 0.91178948E+02</pdfrwt>
<pdfrwt beam="2">  1       -1 0.12775367E-02 0.91178948E+02</pdfrwt>
<totfact> 0.19152477E+04</totfact>
</mgrwt>
</event>
<event>
 8    1  0.2964543E-004  0.9571320E+02  0.7546771E-02  0.1289999E+00
          2   -1    0    0  501    0  0.00000000000E+00  0.00000000000E+00  0.36024498217E+03  0.36024498217E+03  0.00000000000E+00 0. -1.
         -2   -1    0    0    0  501 -0.00000000000E+00 -0.00000000000E+00 -0.30926098572E+02  0.30926098572E+02  0.00000000000E+00 0.  1.
         23    2    1    2    0    0 -0.78170477787E+01 -0.20888219231E+02  0.81255379259E+02  0.12555259463E+03  0.93078426193E+02 0.  0.
         23    2    1    2    0    0  0.78170477787E+01  0.20888219231E+02  0.24806350434E+03  0.26561848611E+03  0.92305222161E+02 0.  0.
          5    1    3    3  502    0 -0.15639905784E+02  0.21563237077E+02  0.77364918698E+02  0.81957308956E+02  0.47000000000E+01 0. -1.
         -5    1    4    4    0  503  0.77046425439E+01 -0.34971178781E+02  0.12998295137E+03  0.13490738493E+03  0.47000000000E+01 0.  1.
          5    1    4    4  503    0  0.11240523475E+00  0.55859398011E+02  0.11808055297E+03  0.13071110118E+03  0.47000000000E+01 0. -1.
         -5    1    3    3    0  502  0.78228580054E+01 -0.42451456308E+02  0.38904605608E+01  0.43595285679E+02  0.47000000000E+01 0.  1.
<mgrwt>
<rscale>  0 0.95524710E+02</rscale>
<asrwt>0</asrwt>
<pdfrwt beam="1">  1        2 0.55422302E-01 0.95713204E+02</pdfrwt>
<pdfrwt beam="2">  1       -2 0.47578616E-02 0.95713204E+02</pdfrwt>
<totfact> 0.17187185E+04</totfact>
</mgrwt>
</event>
<event>
 8    1  0.2964543E-004  0.9082553E+02  0.7546771E-02  0.1303286E+00
         -2   -1    0    0    0  501 -0.00000000000E+00  0.00000000000E+00  0.20101875675E+02  0.20101875675E+02  0.00000000000E+00 0.  1.
          2   -1    0    0  501    0  0.00000000000E+00 -0.00000000000E+00 -0.47086674339E+03  0.47086674339E+03  0.00000000000E+00 0. -1.
         23    2    1    2    0    0 -0.82182563398E+01  0.50608069304E+01 -0.32955519475E+03  0.34184192772E+03  0.90311270954E+02 0.  0.
         23    2    1    2    0    0  0.82182563398E+01 -0.50608069304E+01 -0.12120967297E+03  0.14912669134E+03  0.86335587941E+02 0.  0.
          5    1    3    3  502    0  0.32253719803E+02  0.15895553320E+02 -0.24157639359E+03  0.24428306326E+03  0.47000000000E+01 0. -1.
         -5    1    3    3    0  502 -0.40471976143E+02 -0.10834746389E+02 -0.87978801156E+02  0.97558864462E+02  0.47000000000E+01 0.  1.
          5    1    4    4  503    0  0.36172554676E+02  0.21317445592E+02 -0.89892729606E+02  0.99326129666E+02  0.47000000000E+01 0. -1.
         -5    1    4    4    0  503 -0.27954298336E+02 -0.26378252523E+02 -0.31316943362E+02  0.49800561675E+02  0.47000000000E+01 0.  1.
<mgrwt>
<rscale>  0 0.89820951E+02</rscale>
<asrwt>0</asrwt>
<pdfrwt beam="1">  1        2 0.72441037E-01 0.90825531E+02</pdfrwt>
<pdfrwt beam="2">  1       -2 0.30925963E-02 0.90825531E+02</pdfrwt>
<totfact> 0.24251888E+04</totfact>
</mgrwt>
</event>
<event>
 8    1  0.2964543E-004  0.1048866E+03  0.7546771E-02  0.1272738E+00
          1   -1    0    0  501    0  0.00000000000E+00  0.00000000000E+00  0.28355661472E+03  0.28355661472E+03  0.00000000000E+00 0. -1.
         -1   -1    0    0    0  501 -0.00000000000E+00 -0.00000000000E+00 -0.46820703026E+02  0.46820703026E+02  0.00000000000E+00 0.  1.
         23    2    1    2    0    0 -0.22674147519E+02 -0.35715101787E+02  0.40819052804E+02  0.10815081163E+03  0.90778397893E+02 0.  0.
         23    2    1    2    0    0  0.22674147519E+02  0.35715101787E+02  0.19591685889E+03  0.22222650612E+03  0.95976658410E+02 0.  0.
          5    1    3    3  502    0 -0.38280362297E+02 -0.52381273213E+02  0.51054920444E+02  0.82691467652E+02  0.47000000000E+01 0. -1.
         -5    1    4    4    0  503 -0.26955281449E+02 -0.16973165972E+02  0.65889303481E+02  0.73335979398E+02  0.47000000000E+01 0.  1.
          5    1    4    4  503    0  0.49629428968E+02  0.52688267759E+02  0.13002755541E+03  0.14889052672E+03  0.47000000000E+01 0. -1.
         -5    1    3    3    0  502  0.15606214778E+02  0.16666171425E+02 -0.10235867640E+02  0.25459343982E+02  0.47000000000E+01 0.  1.
<mgrwt>
<rscale>  0 0.10368236E+03</rscale>
<asrwt>0</asrwt>
<pdfrwt beam="1">  1        1 0.43624094E-01 0.10488663E+03</pdfrwt>
<pdfrwt beam="2">  1       -1 0.72031852E-02 0.10488663E+03</pdfrwt>
<totfact> 0.88408664E+03</totfact>
</mgrwt>
</event>
<event>
 8    1  0.2964543E-004  0.9237628E+02  0.7546771E-02  0.1297611E+00
         -1   -1    0    0    0  501 -0.00000000000E+00  0.00000000000E+00  0.33329185852E+02  0.33329185852E+02  0.00000000000E+00 0.  1.
          1   -1    0    0  501    0  0.00000000000E+00 -0.00000000000E+00 -0.29962570212E+03  0.29962570212E+03  0.00000000000E+00 0. -1.
         23    2    1    2    0    0 -0.74108005594E+01 -0.13852499206E+02 -0.19848667049E+03  0.21892998042E+03  0.91030578739E+02 0.  0.
         23    2    1    2    0    0  0.74108005594E+01  0.13852499206E+02 -0.67809845777E+02  0.11402490755E+03  0.90314410026E+02 0.  0.
          5    1    3    3  502    0  0.33366041562E+02 -0.36654978667E+01 -0.30154759948E+02  0.45366597312E+02  0.47000000000E+01 0. -1.
         -5    1    4    4    0  503 -0.21607217850E+02  0.23588956436E+02  0.69801494785E+01  0.33077533398E+02  0.47000000000E+01 0.  1.
          5    1    4    4  503    0  0.29018018410E+02 -0.97364572299E+01 -0.74789995255E+02  0.80947374152E+02  0.47000000000E+01 0. -1.
         -5    1    3    3    0  502 -0.40776842121E+02 -0.10187001340E+02 -0.16833191054E+03  0.17356338311E+03  0.47000000000E+01 0.  1.
<mgrwt>
<rscale>  0 0.92199363E+02</rscale>
<asrwt>0</asrwt>
<pdfrwt beam="1">  1        1 0.46096260E-01 0.92376285E+02</pdfrwt>
<pdfrwt beam="2">  1       -1 0.51275672E-02 0.92376285E+02</pdfrwt>
<totfact> 0.13506343E+04</totfact>
</mgrwt>
</event>
<event>
 8    1  0.2964543E-004  0.1422729E+03  0.7546771E-02  0.1210402E+00
         -1   -1    0    0    0  501 -0.00000000000E+00  0.00000000000E+00  0.88406072311E+02  0.88406072311E+02  0.00000000000E+00 0.  1.
          1   -1    0    0  501    0  0.00000000000E+00 -0.00000000000E+00 -0.23075320809E+03  0.23075320809E+03  0.00000000000E+00 0. -1.
         23    2    1    2    0    0 -0.10266712087E+03 -0.39865841976E+02 -0.86945520389E+02  0.16648017260E+03  0.89589627115E+02 0.  0.
         23    2    1    2    0    0  0.10266712087E+03  0.39865841976E+02 -0.55401615389E+02  0.15267910780E+03  0.90065242504E+02 0.  0.
          5    1    3    3  502    0 -0.42616680477E+02  0.14000782552E+02 -0.71000396013E+02  0.84115097343E+02  0.47000000000E+01 0.  1.
         -5    1    4    4    0  503  0.54734181568E+02  0.35469145179E+01  0.17771584963E+02  0.57847475888E+02  0.47000000000E+01 0.  1.
          5    1    4    4  503    0  0.47932939307E+02  0.36318927458E+02 -0.73173200352E+02  0.94831631917E+02  0.47000000000E+01 0. -1.
         -5    1    3    3    0  502 -0.60050440397E+02 -0.53866624528E+02 -0.15945124375E+02  0.82365075252E+02  0.47000000000E+01 0. -1.
<mgrwt>
<rscale>  0 0.14219766E+03</rscale>
<asrwt>0</asrwt>
<pdfrwt beam="1">  1        1 0.35500493E-01 0.14227288E+03</pdfrwt>
<pdfrwt beam="2">  1       -1 0.13600934E-01 0.14227288E+03</pdfrwt>
<totfact> 0.44205336E+03</totfact>
</mgrwt>
</event>
<event>
 8    1  0.2964543E-004  0.9429186E+02  0.7546771E-02  0.1292890E+00
         -2   -1    0    0    0  501 -0.00000000000E+00  0.00000000000E+00  0.52365736869E+02  0.52365736869E+02  0.00000000000E+00 0.  1.
          2   -1    0    0  501    0  0.00000000000E+00 -0.00000000000E+00 -0.26271151826E+03  0.26271151826E+03  0.00000000000E+00 0. -1.
         23    2    1    2    0    0  0.24290963300E+01 -0.23439010596E+02 -0.11231970218E+02  0.94765511559E+02  0.91099161903E+02 0.  0.
         23    2    1    2    0    0 -0.24290963300E+01  0.23439010596E+02 -0.19911381117E+03  0.22031174357E+03  0.91299873102E+02 0.  0.
          5    1    3    3  502    0  0.28971238408E+02  0.24158453738E+02 -0.12602150725E+02  0.40048317628E+02  0.47000000000E+01 0. -1.
         -5    1    3    3    0  502 -0.26542142078E+02 -0.47597464334E+02  0.13701805071E+01  0.54717193931E+02  0.47000000000E+01 0.  1.
          5    1    4    4  503    0  0.32239500363E+02  0.63966398482E+01 -0.16577722892E+03  0.16906945914E+03  0.47000000000E+01 0. -1.
         -5    1    4    4    0  503 -0.34668596693E+02  0.17042370747E+02 -0.33336582249E+02  0.51242284428E+02  0.47000000000E+01 0.  1.
<mgrwt>
<rscale>  0 0.94243239E+02</rscale>
<asrwt>0</asrwt>
<pdfrwt beam="1">  1        2 0.40417157E-01 0.94291858E+02</pdfrwt>
<pdfrwt beam="2">  1       -2 0.80562671E-02 0.94291858E+02</pdfrwt>
<totfact> 0.10810507E+04</totfact>
</mgrwt>
</event>
<event>
 8    1  0.2964543E-004  0.9449010E+02  0.7546771E-02  0.1294333E+00
         -1   -1    0    0    0  501 -0.00000000000E+00  0.00000000000E+00  0.21374533564E+02  0.21374533564E+02  0.00000000000E+00 0.  1.
          1   -1    0    0  501    0  0.00000000000E+00 -0.00000000000E+00 -0.41040207511E+03  0.41040207511E+03  0.00000000000E+00 0. -1.
         23    2    1    2    0    0 -0.12418554082E+02  0.16973439574E+02 -0.22082886934E+03  0.23885389873E+03  0.88563408172E+02 0.  0.
         23    2    1    2    0    0  0.12418554082E+02 -0.16973439574E+02 -0.16819867221E+03  0.19292270995E+03  0.92119816244E+02 0.  0.
          5    1    4    4  502    0 -0.36059131819E+02 -0.17674147917E+02 -0.45278837374E+02  0.60703373927E+02  0.47000000000E+01 0. -1.
         -5    1    3    3    0  503  0.86067331098E+01  0.38243364966E+02 -0.42638317522E+02  0.58109783512E+02  0.47000000000E+01 0.  1.
          5    1    3    3  503    0 -0.21025287192E+02 -0.21269925392E+02 -0.17819055182E+03  0.18074411522E+03  0.47000000000E+01 0. -1.
         -5    1    4    4    0  502  0.48477685901E+02  0.70070834316E+00 -0.12291983483E+03  0.13221933602E+03  0.47000000000E+01 0.  1.
<mgrwt>
<rscale>  0 0.93611995E+02</rscale>
<asrwt>0</asrwt>
<pdfrwt beam="1">  1        1 0.63138778E-01 0.94490098E+02</pdfrwt>
<pdfrwt beam="2">  1       -1 0.32883899E-02 0.94490098E+02</pdfrwt>
<totfact> 0.17530271E+04</totfact>
</mgrwt>
</event>
<event>
 8    1  0.2964543E-004  0.9629795E+02  0.7546771E-02  0.1288750E+00
          1   -1    0    0  501    0  0.00000000000E+00  0.00000000000E+00  0.24619739320E+03  0.24619739320E+03  0.00000000000E+00 0. -1.
         -1   -1    0    0    0  501 -0.00000000000E+00 -0.00000000000E+00 -0.21717612099E+03  0.21717612099E+03  0.00000000000E+00 0.  1.
         23    2    1    2    0    0  0.67839755027E+01 -0.30214896627E+02 -0.19633338032E+03  0.21830614764E+03  0.90287405355E+02 0.  0.
         23    2    1    2    0    0 -0.67839755027E+01  0.30214896627E+02  0.22535465253E+03  0.24506736656E+03  0.91182961305E+02 0.  0.
          5    1    3    3  502    0 -0.25377220309E+02  0.76515579530E+01 -0.14201780432E+03  0.14454651983E+03  0.47000000000E+01 0. -1.
         -5    1    4    4    0  503 -0.33798790313E+02  0.10348022273E+01  0.29371890577E+02  0.45035841263E+02  0.47000000000E+01 0.  1.
          5    1    4    4  503    0  0.27014814810E+02  0.29180094399E+02  0.19598276196E+03  0.20003152530E+03  0.47000000000E+01 0. -1.
         -5    1    3    3    0  502  0.32161195812E+02 -0.37866454580E+02 -0.54315576001E+02  0.73759627811E+02  0.47000000000E+01 0.  1.
<mgrwt>
<rscale>  0 0.96085357E+02</rscale>
<asrwt>0</asrwt>
<pdfrwt beam="1">  1        1 0.37876522E-01 0.96297948E+02</pdfrwt>
<pdfrwt beam="2">  1       -1 0.33411711E-01 0.96297948E+02</pdfrwt>
<totfact> 0.94240910E+02</totfact>
</mgrwt>
</event>
<event>
 8    1  0.2964543E-004  0.9582343E+02  0.7546771E-02  0.1291399E+00
         -1   -1    0    0    0  501 -0.00000000000E+00  0.00000000000E+00  0.13419641253E+03  0.13419641253E+03  0.00000000000E+00 0.  1.
          1   -1    0    0  501    0  0.00000000000E+00 -0.00000000000E+00 -0.66904820295E+02  0.66904820295E+02  0.00000000000E+00 0. -1.
         23    2    1    2    0    0 -0.76504910312E+01  0.12822870447E+02  0.45621862022E+02  0.10285812982E+03  0.90969690320E+02 0.  0.
         23    2    1    2    0    0  0.76504910312E+01 -0.12822870447E+02  0.21669730215E+02  0.98243103004E+02  0.94652913641E+02 0.  0.
          5    1    3    3  502    0  0.20214634575E+02  0.44480694765E+02  0.30604966316E+02  0.57843907380E+02  0.47000000000E+01 0. -1.
         -5    1    4    4    0  503 -0.31233388892E+02  0.10009369721E+02  0.37668531243E+02  0.50166924461E+02  0.47000000000E+01 0.  1.
          5    1    4    4  503    0  0.38883879923E+02 -0.22832240168E+02 -0.15998801028E+02  0.48076178543E+02  0.47000000000E+01 0. -1.
         -5    1    3    3    0  502 -0.27865125606E+02 -0.31657824318E+02  0.15016895705E+02  0.45014222444E+02  0.47000000000E+01 0.  1.
<mgrwt>
<rscale>  0 0.94901089E+02</rscale>
<asrwt>0</asrwt>
<pdfrwt beam="1">  1        1 0.10293049E-01 0.95823432E+02</pdfrwt>
<pdfrwt beam="2">  1       -1 0.20645602E-01 0.95823432E+02</pdfrwt>
<totfact> 0.10722991E+04</totfact>
</mgrwt>
</event>
<event>
 8    1  0.2964543E-004  0.9817980E+02  0.7546771E-02  0.1284674E+00
          1   -1    0    0  501    0  0.00000000000E+00  0.00000000000E+00  0.81343708928E+03  0.81343708928E+03  0.00000000000E+00 0. -1.
         -1   -1    0    0    0  501 -0.00000000000E+00 -0.00000000000E+00 -0.11922811198E+02  0.11922811198E+02  0.00000000000E+00 0.  1.
         23    2    1    2    0    0  0.28963154586E+02  0.16900719831E+02  0.45024156103E+03  0.46062466216E+03  0.91285910523E+02 0.  0.
         23    2    1    2    0    0 -0.28963154586E+02 -0.16900719831E+02  0.35127271706E+03  0.36473523832E+03  0.92275531255E+02 0.  0.
          5    1    3    3  502    0  0.30881330145E+02  0.49868121462E+02  0.35175325262E+03  0.35664117375E+03  0.47000000000E+01 0. -1.
         -5    1    4    4    0  503 -0.47002054929E+02  0.23999226101E+02  0.17704850856E+03  0.18480644037E+03  0.47000000000E+01 0.  1.
          5    1    4    4  503    0  0.18038900343E+02 -0.40899945932E+02  0.17422420850E+03  0.17992879794E+03  0.47000000000E+01 0. -1.
         -5    1    3    3    0  502 -0.19181755586E+01 -0.32967401631E+02  0.98488308408E+02  0.10398348840E+03  0.47000000000E+01 0.  1.
<mgrwt>
<rscale>  0 0.97946586E+02</rscale>
<asrwt>0</asrwt>
<pdfrwt beam="1">  1        1 0.12514412E+00 0.98179796E+02</pdfrwt>
<pdfrwt beam="2">  1       -1 0.18342793E-02 0.98179796E+02</pdfrwt>
<totfact> 0.16218264E+04</totfact>
</mgrwt>
</event>
<event>
 8    1  0.2964543E-004  0.1198452E+03  0.7546771E-02  0.1244155E+00
          2   -1    0    0  501    0  0.00000000000E+00  0.00000000000E+00  0.16357619228E+03  0.16357619228E+03  0.00000000000E+00 0.  1.
         -2   -1    0    0    0  501 -0.00000000000E+00 -0.00000000000E+00 -0.87169433880E+02  0.87169433880E+02  0.00000000000E+00 0. -1.
         23    2    1    2    0    0 -0.79247661355E+01  0.77257257441E+02  0.26120233830E+02  0.12077795699E+03  0.88733097176E+02 0.  0.
         23    2    1    2    0    0  0.79247661355E+01 -0.77257257441E+02  0.50286524566E+02  0.12996766916E+03  0.91276364570E+02 0.  0.
          5    1    3    3  502    0  0.25190738073E+02  0.79892377804E+02  0.13758437036E+02  0.85022055406E+02  0.47000000000E+01 0. -1.
         -5    1    3    3    0  502 -0.33115504208E+02 -0.26351203630E+01  0.12361796794E+02  0.35755901587E+02  0.47000000000E+01 0.  1.
          5    1    4    4  503    0 -0.25217408971E+02 -0.33379620763E+01 -0.11169848896E+02  0.28176501387E+02  0.47000000000E+01 0. -1.
         -5    1    4    4    0  503  0.33142175107E+02 -0.73919295364E+02  0.61456373462E+02  0.10179116778E+03  0.47000000000E+01 0.  1.
<mgrwt>
<rscale>  0 0.11936085E+03</rscale>
<asrwt>0</asrwt>
<pdfrwt beam="1">  1        2 0.25165568E-01 0.11984515E+03</pdfrwt>
<pdfrwt beam="2">  1       -2 0.13410682E-01 0.11984515E+03</pdfrwt>
<totfact> 0.82390873E+03</totfact>
</mgrwt>
</event>
<event>
 8    1  0.2964543E-004  0.1034665E+03  0.7546771E-02  0.1273731E+00
         -1   -1    0    0    0  501 -0.00000000000E+00  0.00000000000E+00  0.91133314164E+02  0.91133314164E+02  0.00000000000E+00 0.  1.
          1   -1    0    0  501    0  0.00000000000E+00 -0.00000000000E+00 -0.12390074096E+03  0.12390074096E+03  0.00000000000E+00 0. -1.
         23    2    1    2    0    0 -0.41536147225E+02 -0.17087439479E+02 -0.43248375642E+02  0.11214160242E+03  0.93209896922E+02 0.  0.
         23    2    1    2    0    0  0.41536147225E+02  0.17087439479E+02  0.10480948848E+02  0.10289245270E+03  0.91977032022E+02 0.  0.
          5    1    3    3  502    0 -0.50484484846E+02  0.11975268094E+02 -0.58047074892E+02  0.77997712528E+02  0.47000000000E+01 0. -1.
         -5    1    4    4    0  503  0.93573576601E+01 -0.23859628479E+02  0.36213942110E+02  0.44613693152E+02  0.47000000000E+01 0.  1.
          5    1    4    4  503    0  0.32178789565E+02  0.40947067958E+02 -0.25732993262E+02  0.58278759548E+02  0.47000000000E+01 0. -1.
         -5    1    3    3    0  502  0.89483376210E+01 -0.29062707574E+02  0.14798699250E+02  0.34143889895E+02  0.47000000000E+01 0.  1.
<mgrwt>
<rscale>  0 0.10318807E+03</rscale>
<asrwt>0</asrwt>
<pdfrwt beam="1">  1        1 0.19061652E-01 0.10346650E+03</pdfrwt>
<pdfrwt beam="2">  1       -1 0.14020510E-01 0.10346650E+03</pdfrwt>
<totfact> 0.89677649E+03</totfact>
</mgrwt>
</event>
<event>
 8    1  0.2964543E-004  0.1048581E+03  0.7546771E-02  0.1274698E+00
          1   -1    0    0  501    0  0.00000000000E+00  0.00000000000E+00  0.74560374275E+03  0.74560374275E+03  0.00000000000E+00 0. -1.
         -1   -1    0    0    0  501 -0.00000000000E+00 -0.00000000000E+00 -0.17414845037E+02  0.17414845037E+02  0.00000000000E+00 0.  1.
         23    2    1    2    0    0  0.25504053537E+02 -0.14955277870E+02  0.55433184971E+03  0.56416222003E+03  0.10060364716E+03 0.  0.
         23    2    1    2    0    0 -0.25504053537E+02  0.14955277870E+02  0.17385704800E+03  0.19885636776E+03  0.91888327738E+02 0.  0.
          5    1    4    4  502    0  0.85058868951E+01 -0.29045862681E+02  0.10934168203E+03  0.11355045434E+03  0.47000000000E+01 0. -1.
         -5    1    4    4    0  502 -0.34009940432E+02  0.44001140551E+02  0.64515365969E+02  0.85305913419E+02  0.47000000000E+01 0.  1.
          5    1    3    3  503    0  0.62970921803E+02 -0.11219327994E+02  0.40701618564E+03  0.41203819688E+03  0.47000000000E+01 0. -1.
         -5    1    3    3    0  503 -0.37466868266E+02 -0.37359498760E+01  0.14731566407E+03  0.15212402315E+03  0.47000000000E+01 0.  1.
<mgrwt>
<rscale>  0 0.10271036E+03</rscale>
<asrwt>0</asrwt>
<pdfrwt beam="1">  1        1 0.11470824E+00 0.10485805E+03</pdfrwt>
<pdfrwt beam="2">  1       -1 0.26792075E-02 0.10485805E+03</pdfrwt>
<totfact> 0.10762260E+04</totfact>
</mgrwt>
</event>
<event>
 8    1  0.2964543E-004  0.1058055E+03  0.7546771E-02  0.1268885E+00
         -1   -1    0    0    0  501 -0.00000000000E+00  0.00000000000E+00  0.11081630751E+03  0.11081630751E+03  0.00000000000E+00 0.  1.
          1   -1    0    0  501    0  0.00000000000E+00 -0.00000000000E+00 -0.11129263517E+03  0.11129263517E+03  0.00000000000E+00 0. -1.
         23    2    1    2    0    0 -0.27757672819E+02  0.45139743868E+02  0.34584762170E+02  0.11064555752E+03  0.90764799056E+02 0.  0.
         23    2    1    2    0    0  0.27757672819E+02 -0.45139743868E+02 -0.35061089826E+02  0.11146338516E+03  0.91579044192E+02 0.  0.
          5    1    3    3  502    0 -0.29601072911E+02 -0.16631567167E+02 -0.83126277168E+01  0.35270700638E+02  0.47000000000E+01 0. -1.
         -5    1    3    3    0  502  0.18434000922E+01  0.61771311035E+02  0.42897389887E+02  0.75374856882E+02  0.47000000000E+01 0.  1.
          5    1    4    4  503    0 -0.52410135786E+01 -0.62488929410E+02 -0.38493458302E+02  0.73730393015E+02  0.47000000000E+01 0. -1.
         -5    1    4    4    0  503  0.32998686398E+02  0.17349185542E+02  0.34323684764E+01  0.37732992146E+02  0.47000000000E+01 0.  1.
<mgrwt>
<rscale>  0 0.10562908E+03</rscale>
<asrwt>0</asrwt>
<pdfrwt beam="1">  1        1 0.17121944E-01 0.10580551E+03</pdfrwt>
<pdfrwt beam="2">  1       -1 0.17048663E-01 0.10580551E+03</pdfrwt>
<totfact> 0.75889123E+03</totfact>
</mgrwt>
</event>
<event>
 8    1  0.2964543E-004  0.9351938E+02  0.7546771E-02  0.1294581E+00
         -1   -1    0    0    0  501 -0.00000000000E+00  0.00000000000E+00  0.55677950331E+02  0.55677950331E+02  0.00000000000E+00 0.  1.
          1   -1    0    0  501    0  0.00000000000E+00 -0.00000000000E+00 -0.17601784320E+03  0.17601784320E+03  0.00000000000E+00 0. -1.
         23    2    1    2    0    0  0.20404636111E+02  0.97319844004E-01 -0.98287896269E+02  0.13567013048E+03  0.91266177222E+02 0.  0.
         23    2    1    2    0    0 -0.20404636111E+02 -0.97319844004E-01 -0.22051996599E+02  0.96025663052E+02  0.91204598375E+02 0.  0.
          5    1    3    3  502    0  0.41445380684E+02 -0.30332635051E+02 -0.35394084250E+02  0.62550935477E+02  0.47000000000E+01 0. -1.
         -5    1    3    3    0  502 -0.21040744573E+02  0.30429954895E+02 -0.62893812019E+02  0.73119195000E+02  0.47000000000E+01 0.  1.
          5    1    4    4  503    0  0.30001213055E+01  0.43114732136E+02 -0.15836403711E+02  0.46268375134E+02  0.47000000000E+01 0. -1.
         -5    1    4    4    0  503 -0.23404757417E+02 -0.43212051980E+02 -0.62155928882E+01  0.49757287919E+02  0.47000000000E+01 0.  1.
<mgrwt>
<rscale>  0 0.93504349E+02</rscale>
<asrwt>0</asrwt>
<pdfrwt beam="1">  1        1 0.27079668E-01 0.93519376E+02</pdfrwt>
<pdfrwt beam="2">  1       -1 0.85658386E-02 0.93519376E+02</pdfrwt>
<totfact> 0.12130694E+04</totfact>
</mgrwt>
</event>
<event>
 8    1  0.2964543E-004  0.9984474E+02  0.7546771E-02  0.1282988E+00
          1   -1    0    0  501    0  0.00000000000E+00  0.00000000000E+00  0.94388339212E+03  0.94388339212E+03  0.00000000000E+00 0. -1.
         -1   -1    0    0    0  501 -0.00000000000E+00 -0.00000000000E+00 -0.10361715591E+02  0.10361715591E+02  0.00000000000E+00 0.  1.
         23    2    1    2    0    0  0.14450522187E+02 -0.29604243220E+02  0.53188902536E+03  0.54038793526E+03  0.89598864254E+02 0.  0.
         23    2    1    2    0    0 -0.14450522187E+02  0.29604243220E+02  0.40163265117E+03  0.41385717245E+03  0.94253614730E+02 0.  0.
          5    1    3    3  502    0  0.26907822642E+02  0.20726160032E+02  0.10796427749E+03  0.11327832909E+03  0.47000000000E+01 0. -1.
         -5    1    4    4    0  503 -0.22723550245E+02 -0.30425421981E+02  0.13040494958E+03  0.13590293195E+03  0.47000000000E+01 0.  1.
          5    1    4    4  503    0  0.82730280585E+01  0.60029665200E+02  0.27122770159E+03  0.27795424049E+03  0.47000000000E+01 0. -1.
         -5    1    3    3    0  502 -0.12457300455E+02 -0.50330403252E+02  0.42392474787E+03  0.42710960617E+03  0.47000000000E+01 0.  1.
<mgrwt>
<rscale>  0 0.98730805E+02</rscale>
<asrwt>0</asrwt>
<pdfrwt beam="1">  1        1 0.14521276E+00 0.99844743E+02</pdfrwt>
<pdfrwt beam="2">  1       -1 0.15941108E-02 0.99844743E+02</pdfrwt>
<totfact> 0.15747894E+04</totfact>
</mgrwt>
</event>
<event>
 8    1  0.2964543E-004  0.1010444E+03  0.7546771E-02  0.1279996E+00
          3   -1    0    0  501    0  0.00000000000E+00  0.00000000000E+00  0.51872914332E+02  0.51872914332E+02  0.00000000000E+00 0. -1.
         -3   -1    0    0    0  501 -0.00000000000E+00 -0.00000000000E+00 -0.23905164699E+03  0.23905164699E+03  0.00000000000E+00 0.  1.
         23    2    1    2    0    0 -0.60550060877E+01  0.36029760821E+02 -0.26344579069E+02  0.10098353860E+03  0.90381588050E+02 0.  0.
         23    2    1    2    0    0  0.60550060877E+01 -0.36029760821E+02 -0.16083415358E+03  0.18994102272E+03  0.94208069656E+02 0.  0.
          5    1    4    4  502    0 -0.72249213005E+01 -0.63558779119E+02 -0.74890819864E+02  0.98603462367E+02  0.47000000000E+01 0. -1.
         -5    1    3    3    0  503  0.29017562203E+02  0.49444672369E+02 -0.55161135894E+01  0.57786780937E+02  0.47000000000E+01 0.  1.
          5    1    3    3  503    0 -0.35072568291E+02 -0.13414911549E+02 -0.20828465479E+02  0.43196757663E+02  0.47000000000E+01 0. -1.
         -5    1    4    4    0  502  0.13279927388E+02  0.27529018298E+02 -0.85943333720E+02  0.91337560351E+02  0.47000000000E+01 0.  1.
<mgrwt>
<rscale>  0 0.10014295E+03</rscale>
<asrwt>0</asrwt>
<pdfrwt beam="1">  1        3 0.79804484E-02 0.10104438E+03</pdfrwt>
<pdfrwt beam="2">  1       -3 0.36777176E-01 0.10104438E+03</pdfrwt>
<totfact> 0.17020269E+03</totfact>
</mgrwt>
</event>
<event>
 8    1  0.2964543E-004  0.9409015E+02  0.7546771E-02  0.1294075E+00
         -1   -1    0    0    0  501 -0.00000000000E+00  0.00000000000E+00  0.18182362394E+02  0.18182362394E+02  0.00000000000E+00 0.  1.
          1   -1    0    0  501    0  0.00000000000E+00 -0.00000000000E+00 -0.65025804624E+03  0.65025804624E+03  0.00000000000E+00 0. -1.
         23    2    1    2    0    0 -0.13178016991E+02  0.23387404209E+02 -0.14290819668E+03  0.17030610194E+03  0.88661067394E+02 0.  0.
         23    2    1    2    0    0  0.13178016991E+02 -0.23387404209E+02 -0.48916748717E+03  0.49813430670E+03  0.90179411175E+02 0.  0.
          5    1    3    3  502    0  0.19127084427E+02  0.93975076491E+01 -0.13106135388E+03  0.13286582326E+03  0.47000000000E+01 0. -1.
         -5    1    4    4    0  503 -0.74475841802E+01  0.29719431146E+02 -0.97268155270E+02  0.10208768352E+03  0.47000000000E+01 0.  1.
          5    1    4    4  503    0  0.20625601172E+02 -0.53106835355E+02 -0.39189933190E+03  0.39604662317E+03  0.47000000000E+01 0. -1.
         -5    1    3    3    0  502 -0.32305101418E+02  0.13989896560E+02 -0.11846842801E+02  0.37440278681E+02  0.47000000000E+01 0.  1.
<mgrwt>
<rscale>  0 0.93724472E+02</rscale>
<asrwt>0</asrwt>
<pdfrwt beam="1">  1        1 0.10003968E+00 0.94090154E+02</pdfrwt>
<pdfrwt beam="2">  1       -1 0.27972870E-02 0.94090154E+02</pdfrwt>
<totfact> 0.12163757E+04</totfact>
</mgrwt>
</event>
<event>
 8    1  0.2964543E-004  0.1112907E+03  0.7546771E-02  0.1261201E+00
          3   -1    0    0  501    0  0.00000000000E+00  0.00000000000E+00  0.51090066893E+03  0.51090066893E+03  0.00000000000E+00 0. -1.
         -3   -1    0    0    0  501 -0.00000000000E+00 -0.00000000000E+00 -0.26375030607E+02  0.26375030607E+02  0.00000000000E+00 0.  1.
         23    2    1    2    0    0 -0.56188354659E+02  0.10271183400E+02  0.33391975260E+03  0.35001183495E+03  0.87995767067E+02 0.  0.
         23    2    1    2    0    0  0.56188354659E+02 -0.10271183400E+02  0.15060588573E+03  0.18726386460E+03  0.95514364145E+02 0.  0.
          5    1    3    3  502    0 -0.79499810981E+02  0.76157060314E+01  0.23521102443E+03  0.24844422903E+03  0.47000000000E+01 0. -1.
         -5    1    4    4    0  503  0.68037534163E+02  0.18682675942E+02  0.65186558446E+02  0.96174455223E+02  0.47000000000E+01 0.  1.
          5    1    4    4  503    0 -0.11849179504E+02 -0.28953859343E+02  0.85419327286E+02  0.91089409372E+02  0.47000000000E+01 0. -1.
         -5    1    3    3    0  502  0.23311456321E+02  0.26554773690E+01  0.98708728168E+02  0.10156760592E+03  0.47000000000E+01 0.  1.
<mgrwt>
<rscale>  0 0.10965976E+03</rscale>
<asrwt>0</asrwt>
<pdfrwt beam="1">  1        3 0.78600096E-01 0.11129071E+03</pdfrwt>
<pdfrwt beam="2">  1       -3 0.40576974E-02 0.11129071E+03</pdfrwt>
<totfact> 0.10982989E+03</totfact>
</mgrwt>
</event>
<event>
 8    1  0.2964543E-004  0.9368453E+02  0.7546771E-02  0.1294664E+00
          1   -1    0    0  501    0  0.00000000000E+00  0.00000000000E+00  0.60488127005E+02  0.60488127005E+02  0.00000000000E+00 0. -1.
         -1   -1    0    0    0  501 -0.00000000000E+00 -0.00000000000E+00 -0.15094578808E+03  0.15094578808E+03  0.00000000000E+00 0.  1.
         23    2    1    2    0    0 -0.58298950868E+01  0.20732803753E+02 -0.68083420847E+02  0.11511466659E+03  0.90289520109E+02 0.  0.
         23    2    1    2    0    0  0.58298950868E+01 -0.20732803753E+02 -0.22374240229E+02  0.96319248497E+02  0.91175403355E+02 0.  0.
          5    1    3    3  502    0  0.34620137888E+02  0.20656393599E+02 -0.62344407961E+01  0.41063351007E+02  0.47000000000E+01 0. -1.
         -5    1    4    4    0  503 -0.91839413651E+01 -0.46707426410E+02  0.13126973757E+02  0.49601773162E+02  0.47000000000E+01 0.  1.
          5    1    4    4  503    0  0.15013836452E+02  0.25974622657E+02 -0.35501213986E+02  0.46717475335E+02  0.47000000000E+01 0. -1.
         -5    1    3    3    0  502 -0.40450032975E+02  0.76410153740E-01 -0.61848980050E+02  0.74051315582E+02  0.47000000000E+01 0.  1.
<mgrwt>
<rscale>  0 0.93468298E+02</rscale>
<asrwt>0</asrwt>
<pdfrwt beam="1">  1        1 0.93058658E-02 0.93684529E+02</pdfrwt>
<pdfrwt beam="2">  1       -1 0.23222429E-01 0.93684529E+02</pdfrwt>
<totfact> 0.10114038E+04</totfact>
</mgrwt>
</event>
<event>
 8    1  0.2964543E-004  0.1273514E+03  0.7546771E-02  0.1231446E+00
         -1   -1    0    0    0  501 -0.00000000000E+00  0.00000000000E+00  0.11095290632E+03  0.11095290632E+03  0.00000000000E+00 0.  1.
          1   -1    0    0  501    0  0.00000000000E+00 -0.00000000000E+00 -0.22467746063E+03  0.22467746063E+03  0.00000000000E+00 0. -1.
         23    2    1    2    0    0 -0.19158907961E+02 -0.86277526901E+02  0.42348114615E+02  0.13419287169E+03  0.91670543793E+02 0.  0.
         23    2    1    2    0    0  0.19158907961E+02  0.86277526901E+02 -0.15607266892E+03  0.20143749526E+03  0.91692481204E+02 0.  0.
          5    1    4    4  502    0  0.49351999285E+02  0.36560587752E+02 -0.11372109078E+03  0.12933241241E+03  0.47000000000E+01 0. -1.
         -5    1    3    3    0  503  0.14753685435E+02 -0.48866008362E+02 -0.18936763895E+02  0.54646583004E+02  0.47000000000E+01 0.  1.
          5    1    3    3  503    0 -0.33912593396E+02 -0.37411518539E+02  0.61284878510E+02  0.79546288689E+02  0.47000000000E+01 0. -1.
         -5    1    4    4    0  502 -0.30193091324E+02  0.49716939150E+02 -0.42351578137E+02  0.72105082850E+02  0.47000000000E+01 0.  1.
<mgrwt>
<rscale>  0 0.12734748E+03</rscale>
<asrwt>0</asrwt>
<pdfrwt beam="1">  1        1 0.34565763E-01 0.12735143E+03</pdfrwt>
<pdfrwt beam="2">  1       -1 0.17069678E-01 0.12735143E+03</pdfrwt>
<totfact> 0.31809035E+03</totfact>
</mgrwt>
</event>
<event>
 8    1  0.2964543E-004  0.1132993E+03  0.7546771E-02  0.1263218E+00
          1   -1    0    0  501    0  0.00000000000E+00  0.00000000000E+00  0.83947241283E+03  0.83947241283E+03  0.00000000000E+00 0. -1.
         -1   -1    0    0    0  501 -0.00000000000E+00 -0.00000000000E+00 -0.13256772337E+02  0.13256772337E+02  0.00000000000E+00 0.  1.
         23    2    1    2    0    0  0.23092435298E+02 -0.27442151991E+02  0.43867793078E+03  0.44896910188E+03  0.88592297678E+02 0.  0.
         23    2    1    2    0    0 -0.23092435298E+02  0.27442151991E+02  0.38753770971E+03  0.40376008329E+03  0.10747276929E+03 0.  0.
          5    1    3    3  502    0  0.47111199909E+01  0.32240478831E+02  0.14575540238E+03  0.14942680633E+03  0.47000000000E+01 0. -1.
         -5    1    3    3    0  502  0.18381315308E+02 -0.59682630822E+02  0.29292252840E+03  0.29954229554E+03  0.47000000000E+01 0.  1.
          5    1    4    4  503    0  0.42992169499E+02  0.68832176564E+01  0.14035947151E+03  0.14703256975E+03  0.47000000000E+01 0. -1.
         -5    1    4    4    0  503 -0.66084604797E+02  0.20558934335E+02  0.24717823820E+03  0.25672751355E+03  0.47000000000E+01 0.  1.
<mgrwt>
<rscale>  0 0.10858217E+03</rscale>
<asrwt>0</asrwt>
<pdfrwt beam="1">  1        1 0.12914956E+00 0.11329929E+03</pdfrwt>
<pdfrwt beam="2">  1       -1 0.20395041E-02 0.11329929E+03</pdfrwt>
<totfact> 0.13436374E+04</totfact>
</mgrwt>
</event>
<event>
 8    1  0.2964543E-004  0.9725287E+02  0.7546771E-02  0.1288348E+00
         -1   -1    0    0    0  501 -0.00000000000E+00  0.00000000000E+00  0.10784264446E+03  0.10784264446E+03  0.00000000000E+00 0.  1.
          1   -1    0    0  501    0  0.00000000000E+00 -0.00000000000E+00 -0.10248227778E+03  0.10248227778E+03  0.00000000000E+00 0. -1.
         23    2    1    2    0    0 -0.14114751907E+02  0.17026096611E+02  0.47091888696E+02  0.10805445934E+03  0.94704836287E+02 0.  0.
         23    2    1    2    0    0  0.14114751907E+02 -0.17026096611E+02 -0.41731522019E+02  0.10227046289E+03  0.90711705212E+02 0.  0.
          5    1    3    3  502    0 -0.61836404893E+01  0.41687021046E+02 -0.11400310229E+02  0.43910160631E+02  0.47000000000E+01 0. -1.
         -5    1    3    3    0  502 -0.79311114181E+01 -0.24660924435E+02  0.58492198925E+02  0.64144298713E+02  0.47000000000E+01 0.  1.
          5    1    4    4  503    0  0.41334883465E+02 -0.25167760015E+02 -0.52471118159E+02  0.71535284832E+02  0.47000000000E+01 0. -1.
         -5    1    4    4    0  503 -0.27220131557E+02  0.81416634046E+01  0.10739596139E+02  0.30735178058E+02  0.47000000000E+01 0.  1.
<mgrwt>
<rscale>  0 0.96266952E+02</rscale>
<asrwt>0</asrwt>
<pdfrwt beam="1">  1        1 0.15766504E-01 0.97252867E+02</pdfrwt>
<pdfrwt beam="2">  1       -1 0.16591176E-01 0.97252867E+02</pdfrwt>
<totfact> 0.87359120E+03</totfact>
</mgrwt>
</event>
<event>
 8    1  0.2964543E-004  0.9502630E+02  0.7546771E-02  0.1292697E+00
          1   -1    0    0  501    0  0.00000000000E+00  0.00000000000E+00  0.18116548236E+03  0.18116548236E+03  0.00000000000E+00 0. -1.
         -1   -1    0    0    0  501 -0.00000000000E+00 -0.00000000000E+00 -0.15105313489E+03  0.15105313489E+03  0.00000000000E+00 0.  1.
         23    2    1    2    0    0  0.59945429030E+01 -0.11852785203E+02 -0.12179946808E+03  0.15448335729E+03  0.94093433322E+02 0.  0.
         23    2    1    2    0    0 -0.59945429030E+01  0.11852785203E+02  0.15191181554E+03  0.17773525996E+03  0.91302792225E+02 0.  0.
          5    1    4    4  502    0 -0.43660726117E+02  0.91109112900E+01  0.11987191013E+03  0.12798684521E+03  0.47000000000E+01 0. -1.
         -5    1    4    4    0  502  0.37666183214E+02  0.27418739133E+01  0.32039905414E+02  0.49748414742E+02  0.47000000000E+01 0.  1.
          5    1    3    3  503    0 -0.16164180046E+02 -0.47689500921E+02 -0.81954742853E+02  0.96302850896E+02  0.47000000000E+01 0. -1.
         -5    1    3    3    0  503  0.22158722949E+02  0.35836715718E+02 -0.39844725228E+02  0.58180506397E+02  0.47000000000E+01 0.  1.
<mgrwt>
<rscale>  0 0.94328034E+02</rscale>
<asrwt>0</asrwt>
<pdfrwt beam="1">  1        1 0.27871613E-01 0.95026298E+02</pdfrwt>
<pdfrwt beam="2">  1       -1 0.23238944E-01 0.95026298E+02</pdfrwt>
<totfact> 0.24983609E+03</totfact>
</mgrwt>
</event>
<event>
 8    1  0.2964543E-004  0.1177929E+03  0.7546771E-02  0.1247587E+00
         -1   -1    0    0    0  501 -0.00000000000E+00  0.00000000000E+00  0.42287962359E+02  0.42287962359E+02  0.00000000000E+00 0.  1.
          1   -1    0    0  501    0  0.00000000000E+00 -0.00000000000E+00 -0.40154383559E+03  0.40154383559E+03  0.00000000000E+00 0. -1.
         23    2    1    2    0    0 -0.65746796897E+02 -0.28052823967E+02 -0.82574668609E+02  0.14385318028E+03  0.93624565932E+02 0.  0.
         23    2    1    2    0    0  0.65746796897E+02  0.28052823967E+02 -0.27668120462E+03  0.29997861767E+03  0.91241875433E+02 0.  0.
          5    1    3    3  502    0 -0.63119679338E+02 -0.53571252933E+02 -0.83603872719E+02  0.11775258211E+03  0.47000000000E+01 0. -1.
         -5    1    4    4    0  503  0.18884577275E+02  0.46350331622E+02 -0.64023049972E+02  0.81400377321E+02  0.47000000000E+01 0.  1.
          5    1    4    4  503    0  0.46862219621E+02 -0.18297507655E+02 -0.21265815465E+03  0.21857824035E+03  0.47000000000E+01 0. -1.
         -5    1    3    3    0  502 -0.26271175592E+01  0.25518428966E+02  0.10292041104E+01  0.26100598167E+02  0.47000000000E+01 0.  1.
<mgrwt>
<rscale>  0 0.11731882E+03</rscale>
<asrwt>0</asrwt>
<pdfrwt beam="1">  1        1 0.61775974E-01 0.11779288E+03</pdfrwt>
<pdfrwt beam="2">  1       -1 0.65058404E-02 0.11779288E+03</pdfrwt>
<totfact> 0.67467187E+03</totfact>
</mgrwt>
</event>
<event>
 8    1  0.3996034E-004  0.9316161E+02  0.7546771E-02  0.1295447E+00
         -1   -1    0    0    0  501 -0.00000000000E+00  0.00000000000E+00  0.18674773326E+03  0.18674773326E+03  0.00000000000E+00 0.  1.
          1   -1    0    0  501    0  0.00000000000E+00 -0.00000000000E+00 -0.20249755858E+03  0.20249755858E+03  0.00000000000E+00 0. -1.
         23    2    1    2    0    0  0.15117536796E+02  0.74079805052E+00 -0.17874455386E+03  0.20150513541E+03  0.91791150785E+02 0.  0.
         23    2    1    2    0    0 -0.15117536796E+02 -0.74079805052E+00  0.16299472854E+03  0.18774015643E+03  0.91923860350E+02 0.  0.
          5    1    4    4  502    0  0.45422758492E+00  0.37150071615E+02  0.12891798237E+03  0.13424704958E+03  0.47000000000E+01 0. -1.
         -5    1    3    3    0  503  0.33235318548E+02 -0.36724606648E+02 -0.11415236875E+03  0.12452363801E+03  0.47000000000E+01 0.  1.
          5    1    3    3  503    0 -0.18117781752E+02  0.37465404699E+02 -0.64592185115E+02  0.76981497405E+02  0.47000000000E+01 0. -1.
         -5    1    4    4    0  502 -0.15571764381E+02 -0.37890869665E+02  0.34076746174E+02  0.53493106843E+02  0.47000000000E+01 0.  1.
<mgrwt>
<rscale>  0 0.93128853E+02</rscale>
<asrwt>0</asrwt>
<pdfrwt beam="1">  1        1 0.31153470E-01 0.93161606E+02</pdfrwt>
<pdfrwt beam="2">  1       -1 0.28730421E-01 0.93161606E+02</pdfrwt>
<totfact> 0.15393260E+03</totfact>
</mgrwt>
</event>
<event>
 8    1  0.2964543E-004  0.9486767E+02  0.7546771E-02  0.1301382E+00
         -1   -1    0    0    0  501 -0.00000000000E+00  0.00000000000E+00  0.26080580407E+03  0.26080580407E+03  0.00000000000E+00 0.  1.
          1   -1    0    0  501    0  0.00000000000E+00 -0.00000000000E+00 -0.28991181127E+02  0.28991181127E+02  0.00000000000E+00 0. -1.
         23    2    1    2    0    0 -0.16090654284E+02  0.19054957436E+02  0.12181472986E+03  0.15439787277E+03  0.91530727889E+02 0.  0.
         23    2    1    2    0    0  0.16090654284E+02 -0.19054957436E+02  0.10999989308E+03  0.13539911242E+03  0.74906225431E+02 0.  0.
          5    1    4    4  502    0 -0.12923976283E+02 -0.40360312562E+02  0.60363214929E+02  0.73903935684E+02  0.47000000000E+01 0. -1.
         -5    1    4    4    0  502  0.29014630566E+02  0.21305355125E+02  0.49636678155E+02  0.61495176739E+02  0.47000000000E+01 0.  1.
          5    1    3    3  503    0 -0.39228540546E+02  0.39282867507E+02  0.45296356254E+02  0.71804400720E+02  0.47000000000E+01 0. -1.
         -5    1    3    3    0  503  0.23137886262E+02 -0.20227910070E+02  0.76518373604E+02  0.82593472051E+02  0.47000000000E+01 0.  1.
<mgrwt>
<rscale>  0 0.90609831E+02</rscale>
<asrwt>0</asrwt>
<pdfrwt beam="1">  1        1 0.44601819E-02 0.94867669E+02</pdfrwt>
<pdfrwt beam="2">  1       -1 0.40123968E-01 0.94867669E+02</pdfrwt>
<totfact> 0.10872853E+04</totfact>
</mgrwt>
</event>
<event>
 8    1  0.2964543E-004  0.1037195E+03  0.7546771E-02  0.1275558E+00
          1   -1    0    0  501    0  0.00000000000E+00  0.00000000000E+00  0.21728720705E+02  0.21728720705E+02  0.00000000000E+00 0. -1.
         -1   -1    0    0    0  501 -0.00000000000E+00 -0.00000000000E+00 -0.55112919069E+03  0.55112919069E+03  0.00000000000E+00 0.  1.
         23    2    1    2    0    0 -0.27846955656E+02 -0.22708158214E+02 -0.16020363852E+03  0.19084794896E+03  0.97296559221E+02 0.  0.
         23    2    1    2    0    0  0.27846955656E+02  0.22708158214E+02 -0.36919683146E+03  0.38200996244E+03  0.91291826863E+02 0.  0.
          5    1    4    4  502    0 -0.14113578598E+02 -0.27850362205E+02 -0.14128734179E+03  0.14477236865E+03  0.47000000000E+01 0. -1.
         -5    1    4    4    0  502  0.41960534254E+02  0.50558520419E+02 -0.22790948967E+03  0.23723759379E+03  0.47000000000E+01 0.  1.
          5    1    3    3  503    0 -0.32049401368E+02 -0.53254812464E+02 -0.62432257202E+02  0.88221969588E+02  0.47000000000E+01 0. -1.
         -5    1    3    3    0  503  0.42024457122E+01  0.30546654251E+02 -0.97771381322E+02  0.10262597937E+03  0.47000000000E+01 0.  1.
<mgrwt>
<rscale>  0 0.10228740E+03</rscale>
<asrwt>0</asrwt>
<pdfrwt beam="1">  1        1 0.33428805E-02 0.10371950E+03</pdfrwt>
<pdfrwt beam="2">  1       -1 0.84789095E-01 0.10371950E+03</pdfrwt>
<totfact> 0.39727478E+03</totfact>
</mgrwt>
</event>
<event>
 8    1  0.2964543E-004  0.1456670E+03  0.7546771E-02  0.1208052E+00
         -1   -1    0    0    0  501 -0.00000000000E+00  0.00000000000E+00  0.24244714211E+03  0.24244714211E+03  0.00000000000E+00 0.  1.
          1   -1    0    0  501    0  0.00000000000E+00 -0.00000000000E+00 -0.99414998582E+02  0.99414998582E+02  0.00000000000E+00 0. -1.
         23    2    1    2    0    0 -0.11119049763E+03  0.16830812325E+02  0.13825514324E+03  0.19611688106E+03  0.81858068628E+02 0.  0.
         23    2    1    2    0    0  0.11119049763E+03 -0.16830812325E+02  0.47770002877E+01  0.14574525963E+03  0.92586489106E+02 0.  0.
          5    1    4    4  502    0  0.57089191322E+02  0.26299888355E+01 -0.42325101419E+02  0.71271290273E+02  0.47000000000E+01 0. -1.
         -5    1    3    3    0  503 -0.97387315403E+02 -0.19683187536E+02  0.10484760267E+03  0.14452275550E+03  0.47000000000E+01 0.  1.
          5    1    3    3  503    0 -0.13803182228E+02  0.36513999860E+02  0.33407540568E+02  0.51594125559E+02  0.47000000000E+01 0. -1.
         -5    1    4    4    0  502  0.54101306309E+02 -0.19460801160E+02  0.47102101706E+02  0.74473969354E+02  0.47000000000E+01 0.  1.
<mgrwt>
<rscale>  0 0.14399534E+03</rscale>
<asrwt>0</asrwt>
<pdfrwt beam="1">  1        1 0.15294615E-01 0.14566695E+03</pdfrwt>
<pdfrwt beam="2">  1       -1 0.37299560E-01 0.14566695E+03</pdfrwt>
<totfact> 0.24685995E+03</totfact>
</mgrwt>
</event>
<event>
 8    1  0.2964543E-004  0.9824383E+02  0.7546771E-02  0.1284878E+00
         -1   -1    0    0    0  501 -0.00000000000E+00  0.00000000000E+00  0.57290960717E+02  0.57290960717E+02  0.00000000000E+00 0.  1.
          1   -1    0    0  501    0  0.00000000000E+00 -0.00000000000E+00 -0.17549987510E+03  0.17549987510E+03  0.00000000000E+00 0. -1.
         23    2    1    2    0    0  0.23716970905E+02  0.27031069766E+02 -0.32203497585E+02  0.10338721362E+03  0.91425801843E+02 0.  0.
         23    2    1    2    0    0 -0.23716970905E+02 -0.27031069766E+02 -0.86005416799E+02  0.12940362219E+03  0.89750722985E+02 0.  0.
          5    1    4    4  502    0 -0.48459969570E+02 -0.42235120181E+02 -0.43686818545E+02  0.77863997727E+02  0.47000000000E+01 0. -1.
         -5    1    4    4    0  502  0.24742998665E+02  0.15204050415E+02 -0.42318598254E+02  0.51539624466E+02  0.47000000000E+01 0.  1.
          5    1    3    3  503    0  0.31814362782E+02 -0.26710239520E+02 -0.24052831395E+02  0.48230895416E+02  0.47000000000E+01 0. -1.
         -5    1    3    3    0  503 -0.80973918769E+01  0.53741309286E+02 -0.81506661896E+01  0.55156318208E+02  0.47000000000E+01 0.  1.
<mgrwt>
<rscale>  0 0.97852277E+02</rscale>
<asrwt>0</asrwt>
<pdfrwt beam="1">  1        1 0.26999981E-01 0.98243833E+02</pdfrwt>
<pdfrwt beam="2">  1       -1 0.88139940E-02 0.98243833E+02</pdfrwt>
<totfact> 0.11717825E+04</totfact>
</mgrwt>
</event>
<event>
 8    1  0.2964543E-004  0.1035134E+03  0.7546771E-02  0.1273107E+00
         -1   -1    0    0    0  501 -0.00000000000E+00  0.00000000000E+00  0.82233457532E+02  0.82233457532E+02  0.00000000000E+00 0.  1.
          1   -1    0    0  501    0  0.00000000000E+00 -0.00000000000E+00 -0.13111528366E+03  0.13111528366E+03  0.00000000000E+00 0. -1.
         23    2    1    2    0    0 -0.19315777601E+02 -0.43138843328E+02 -0.33242510112E+02  0.10872026584E+03  0.92092196511E+02 0.  0.
         23    2    1    2    0    0  0.19315777601E+02  0.43138843328E+02 -0.15639316016E+02  0.10462847535E+03  0.92024293427E+02 0.  0.
          5    1    4    4  502    0 -0.22221553612E+02  0.30547068278E+02 -0.39515925505E+02  0.54868198383E+02  0.47000000000E+01 0. -1.
         -5    1    3    3    0  503  0.26899661020E+02 -0.44468398404E+02 -0.10640669832E+01  0.52194371901E+02  0.47000000000E+01 0.  1.
          5    1    3    3  503    0 -0.46215438621E+02  0.13295550757E+01 -0.32178443129E+02  0.56525893941E+02  0.47000000000E+01 0. -1.
         -5    1    4    4    0  502  0.41537331213E+02  0.12591775051E+02  0.23876609489E+02  0.49760276968E+02  0.47000000000E+01 0.  1.
<mgrwt>
<rscale>  0 0.10349833E+03</rscale>
<asrwt>0</asrwt>
<pdfrwt beam="1">  1        1 0.20171582E-01 0.10351344E+03</pdfrwt>
<pdfrwt beam="2">  1       -1 0.12651301E-01 0.10351344E+03</pdfrwt>
<totfact> 0.97841959E+03</totfact>
</mgrwt>
</event>
<event>
 8    1  0.2964543E-004  0.9717403E+02  0.7546771E-02  0.1286990E+00
         -1   -1    0    0    0  501 -0.00000000000E+00  0.00000000000E+00  0.17400483806E+03  0.17400483806E+03  0.00000000000E+00 0.  1.
          1   -1    0    0  501    0  0.00000000000E+00 -0.00000000000E+00 -0.53898359809E+02  0.53898359809E+02  0.00000000000E+00 0. -1.
         23    2    1    2    0    0 -0.77321612767E+01 -0.23832500032E+02  0.67845966399E+02  0.11756755960E+03  0.92689166233E+02 0.  0.
         23    2    1    2    0    0  0.77321612767E+01  0.23832500032E+02  0.52260511849E+02  0.11033563827E+03  0.93888325143E+02 0.  0.
          5    1    4    4  502    0  0.13145440839E+02 -0.17583105458E+02  0.63061239135E+02  0.66938614368E+02  0.47000000000E+01 0. -1.
         -5    1    4    4    0  502 -0.54132795620E+01  0.41415605489E+02 -0.10800727286E+02  0.43397023902E+02  0.47000000000E+01 0.  1.
          5    1    3    3  503    0 -0.36300699524E+02 -0.45287566770E+02  0.30753153700E+02  0.65852493897E+02  0.47000000000E+01 0. -1.
         -5    1    3    3    0  503  0.28568538248E+02  0.21455066738E+02  0.37092812699E+02  0.51715065699E+02  0.47000000000E+01 0.  1.
<mgrwt>
<rscale>  0 0.96883198E+02</rscale>
<asrwt>0</asrwt>
<pdfrwt beam="1">  1        1 0.82920554E-02 0.97174029E+02</pdfrwt>
<pdfrwt beam="2">  1       -1 0.26769975E-01 0.97174029E+02</pdfrwt>
<totfact> 0.93780226E+03</totfact>
</mgrwt>
</event>
<event>
 8    1  0.2964543E-004  0.9467021E+02  0.7546771E-02  0.1292052E+00
          2   -1    0    0  501    0  0.00000000000E+00  0.00000000000E+00  0.33976702075E+03  0.33976702075E+03  0.00000000000E+00 0. -1.
         -2   -1    0    0    0  501 -0.00000000000E+00 -0.00000000000E+00 -0.16466318438E+03  0.16466318438E+03  0.00000000000E+00 0.  1.
         23    2    1    2    0    0 -0.13650846647E+02  0.19421760319E+02 -0.14361699938E+03  0.17201247322E+03  0.91645502044E+02 0.  0.
         23    2    1    2    0    0  0.13650846647E+02 -0.19421760319E+02  0.31872083575E+03  0.33241773191E+03  0.91405836536E+02 0.  0.
          5    1    4    4  502    0 -0.35063682998E+02 -0.49776052102E+01  0.20044585774E+03  0.20360469126E+03  0.47000000000E+01 0. -1.
         -5    1    3    3    0  503  0.29819484234E+02  0.36808430926E+02 -0.70837725778E+02  0.85347147701E+02  0.47000000000E+01 0.  1.
          5    1    3    3  503    0 -0.43470330881E+02 -0.17386670607E+02 -0.72779273603E+02  0.86665325522E+02  0.47000000000E+01 0. -1.
         -5    1    4    4    0  502  0.48714529645E+02 -0.14444155109E+02  0.11827497802E+03  0.12881304065E+03  0.47000000000E+01 0.  1.
<mgrwt>
<rscale>  0 0.94612158E+02</rscale>
<asrwt>0</asrwt>
<pdfrwt beam="1">  1        2 0.52271849E-01 0.94670209E+02</pdfrwt>
<pdfrwt beam="2">  1       -2 0.25332798E-01 0.94670209E+02</pdfrwt>
<totfact> 0.12939041E+03</totfact>
</mgrwt>
</event>
<event>
 8    1  0.2964543E-004  0.1082316E+03  0.7546771E-02  0.1263992E+00
         -1   -1    0    0    0  501 -0.00000000000E+00  0.00000000000E+00  0.18917402960E+02  0.18917402960E+02  0.00000000000E+00 0.  1.
          1   -1    0    0  501    0  0.00000000000E+00 -0.00000000000E+00 -0.80905318410E+03  0.80905318410E+03  0.00000000000E+00 0. -1.
         23    2    1    2    0    0  0.18567761637E+02 -0.54609402808E+02 -0.19349881561E+03  0.22159632658E+03  0.91302747300E+02 0.  0.
         23    2    1    2    0    0 -0.18567761637E+02  0.54609402808E+02 -0.59663696553E+03  0.60637426048E+03  0.91581256204E+02 0.  0.
          5    1    3    3  502    0 -0.18501694860E+02 -0.63082137954E+02 -0.14867574599E+03  0.16262913726E+03  0.47000000000E+01 0. -1.
         -5    1    4    4    0  503 -0.37800223331E+01 -0.25671640890E+02 -0.15662174272E+03  0.15882626359E+03  0.47000000000E+01 0.  1.
          5    1    4    4  503    0 -0.14787739304E+02  0.80281043698E+02 -0.44001522281E+03  0.44754799689E+03  0.47000000000E+01 0. -1.
         -5    1    3    3    0  502  0.37069456497E+02  0.84727351456E+01 -0.44823069622E+02  0.58967189319E+02  0.47000000000E+01 0.  1.
<mgrwt>
<rscale>  0 0.10817264E+03</rscale>
<asrwt>0</asrwt>
<pdfrwt beam="1">  1        1 0.12446970E+00 0.10823158E+03</pdfrwt>
<pdfrwt beam="2">  1       -1 0.29103701E-02 0.10823158E+03</pdfrwt>
<totfact> 0.84854686E+03</totfact>
</mgrwt>
</event>
<event>
 8    1  0.2964543E-004  0.1110185E+03  0.7546771E-02  0.1259914E+00
         -2   -1    0    0    0  501 -0.00000000000E+00  0.00000000000E+00  0.93311755618E+02  0.93311755618E+02  0.00000000000E+00 0.  1.
          2   -1    0    0  501    0  0.00000000000E+00 -0.00000000000E+00 -0.19068821645E+03  0.19068821645E+03  0.00000000000E+00 0. -1.
         23    2    1    2    0    0  0.14373896855E+02  0.58191885141E+02 -0.12986275285E+03  0.17084917083E+03  0.93446242242E+02 0.  0.
         23    2    1    2    0    0 -0.14373896855E+02 -0.58191885141E+02  0.32486292021E+02  0.11315080123E+03  0.90304154076E+02 0.  0.
          5    1    3    3  502    0  0.50155739145E+02  0.48883767781E+02 -0.63096330533E+02  0.94384627183E+02  0.47000000000E+01 0. -1.
         -5    1    4    4    0  503 -0.42974553932E+02 -0.21913234117E+02  0.43833989458E+02  0.65349144959E+02  0.47000000000E+01 0.  1.
          5    1    4    4  503    0  0.28600657077E+02 -0.36278651024E+02 -0.11347697437E+02  0.47801656273E+02  0.47000000000E+01 0. -1.
         -5    1    3    3    0  502 -0.35781842291E+02  0.93081173603E+01 -0.66766422317E+02  0.76464543649E+02  0.47000000000E+01 0.  1.
<mgrwt>
<rscale>  0 0.11035469E+03</rscale>
<asrwt>0</asrwt>
<pdfrwt beam="1">  1        2 0.29336649E-01 0.11101849E+03</pdfrwt>
<pdfrwt beam="2">  1       -2 0.14355655E-01 0.11101849E+03</pdfrwt>
<totfact> 0.62120344E+03</totfact>
</mgrwt>
</event>
<event>
 8    1  0.2964543E-004  0.9628927E+02  0.7546771E-02  0.1289472E+00
         -1   -1    0    0    0  501 -0.00000000000E+00  0.00000000000E+00  0.26057297988E+02  0.26057297988E+02  0.00000000000E+00 0.  1.
          1   -1    0    0  501    0  0.00000000000E+00 -0.00000000000E+00 -0.43846397372E+03  0.43846397372E+03  0.00000000000E+00 0. -1.
         23    2    1    2    0    0  0.70915638814E+01  0.25720810697E+02 -0.30983128358E+03  0.32383248409E+03  0.90333842412E+02 0.  0.
         23    2    1    2    0    0 -0.70915638814E+01 -0.25720810697E+02 -0.10257539215E+03  0.14068878762E+03  0.92519044015E+02 0.  0.
          5    1    3    3  502    0  0.20803866761E+02 -0.25939373970E+02 -0.64680749674E+02  0.72878950134E+02  0.47000000000E+01 0. -1.
         -5    1    3    3    0  502 -0.13712302880E+02  0.51660184667E+02 -0.24515053390E+03  0.25095353395E+03  0.47000000000E+01 0.  1.
          5    1    4    4  503    0  0.39489665707E+02  0.39876869618E+01 -0.52446799765E+02  0.65940064836E+02  0.47000000000E+01 0. -1.
         -5    1    4    4    0  503 -0.46581229588E+02 -0.29708497659E+02 -0.50128592389E+02  0.74748722785E+02  0.47000000000E+01 0.  1.
<mgrwt>
<rscale>  0 0.95760509E+02</rscale>
<asrwt>0</asrwt>
<pdfrwt beam="1">  1        1 0.67455988E-01 0.96289272E+02</pdfrwt>
<pdfrwt beam="2">  1       -1 0.40088155E-02 0.96289272E+02</pdfrwt>
<totfact> 0.12127741E+04</totfact>
</mgrwt>
</event>
<event>
 8    1  0.2964543E-004  0.9585915E+02  0.7546771E-02  0.1289637E+00
          1   -1    0    0  501    0  0.00000000000E+00  0.00000000000E+00  0.19883100660E+03  0.19883100660E+03  0.00000000000E+00 0. -1.
         -1   -1    0    0    0  501 -0.00000000000E+00 -0.00000000000E+00 -0.48590021821E+02  0.48590021821E+02  0.00000000000E+00 0.  1.
         23    2    1    2    0    0  0.75896160720E+00 -0.22074953655E+02  0.45668611459E+02  0.10556067889E+03  0.92571892352E+02 0.  0.
         23    2    1    2    0    0 -0.75896160720E+00  0.22074953655E+02  0.10457237332E+03  0.14186034953E+03  0.93279675737E+02 0.  0.
          5    1    4    4  502    0 -0.22219831619E+02 -0.92552034450E+01  0.10041878800E+03  0.10337022149E+03  0.47000000000E+01 0. -1.
         -5    1    4    4    0  502  0.21460870011E+02  0.31330157100E+02  0.41535853221E+01  0.38490128041E+02  0.47000000000E+01 0.  1.
          5    1    3    3  503    0 -0.28748769133E+02  0.25679125056E+02  0.19218666326E+02  0.43328470151E+02  0.47000000000E+01 0. -1.
         -5    1    3    3    0  503  0.29507730740E+02 -0.47754078711E+02  0.26449945132E+02  0.62232208738E+02  0.47000000000E+01 0.  1.
<mgrwt>
<rscale>  0 0.95686539E+02</rscale>
<asrwt>0</asrwt>
<pdfrwt beam="1">  1        1 0.30589385E-01 0.95859155E+02</pdfrwt>
<pdfrwt beam="2">  1       -1 0.74753881E-02 0.95859155E+02</pdfrwt>
<totfact> 0.12824703E+04</totfact>
</mgrwt>
</event>
<event>
 8    1  0.2964543E-004  0.1064961E+03  0.7546771E-02  0.1267301E+00
         -1   -1    0    0    0  501 -0.00000000000E+00  0.00000000000E+00  0.24537965773E+02  0.24537965773E+02  0.00000000000E+00 0.  1.
          1   -1    0    0  501    0  0.00000000000E+00 -0.00000000000E+00 -0.49484861749E+03  0.49484861749E+03  0.00000000000E+00 0. -1.
         23    2    1    2    0    0 -0.35970595766E+02 -0.41124097968E+02 -0.16730791080E+03  0.19821360111E+03  0.91168083540E+02 0.  0.
         23    2    1    2    0    0  0.35970595766E+02  0.41124097968E+02 -0.30300274092E+03  0.32117298215E+03  0.91413063986E+02 0.  0.
          5    1    4    4  502    0  0.60186361011E+02  0.19624273657E+02 -0.25697394387E+03  0.26469833395E+03  0.47000000000E+01 0. -1.
         -5    1    4    4    0  502 -0.24215765245E+02  0.21499824310E+02 -0.46028797048E+02  0.56474648201E+02  0.47000000000E+01 0.  1.
          5    1    3    3  503    0  0.17653427527E+02 -0.37850856411E+02 -0.32849585757E+02  0.53343379336E+02  0.47000000000E+01 0. -1.
         -5    1    3    3    0  503 -0.53624023294E+02 -0.32732415564E+01 -0.13445832504E+03  0.14487022178E+03  0.47000000000E+01 0.  1.
<mgrwt>
<rscale>  0 0.10644353E+03</rscale>
<asrwt>0</asrwt>
<pdfrwt beam="1">  1        1 0.76130547E-01 0.10649612E+03</pdfrwt>
<pdfrwt beam="2">  1       -1 0.37750721E-02 0.10649612E+03</pdfrwt>
<totfact> 0.11441534E+04</totfact>
</mgrwt>
</event>
<event>
 8    1  0.2964543E-004  0.9827113E+02  0.7546771E-02  0.1284578E+00
         -1   -1    0    0    0  501 -0.00000000000E+00  0.00000000000E+00  0.90111175997E+02  0.90111175997E+02  0.00000000000E+00 0.  1.
          1   -1    0    0  501    0  0.00000000000E+00 -0.00000000000E+00 -0.10619480685E+03  0.10619480685E+03  0.00000000000E+00 0. -1.
         23    2    1    2    0    0  0.15963774943E+02  0.28898024725E+02 -0.34502023245E+01  0.98331680327E+02  0.92559589003E+02 0.  0.
         23    2    1    2    0    0 -0.15963774943E+02 -0.28898024725E+02 -0.12633428526E+02  0.97974302518E+02  0.91375174387E+02 0.  0.
          5    1    4    4  502    0 -0.12125851534E+02 -0.54031313991E+02 -0.33376331028E+02  0.64826604414E+02  0.47000000000E+01 0. -1.
         -5    1    3    3    0  503 -0.32389029877E+02  0.31851901675E+02 -0.15435562127E+02  0.48207255417E+02  0.47000000000E+01 0.  1.
          5    1    3    3  503    0  0.48352804820E+02 -0.29538769498E+01  0.11985359802E+02  0.50124424910E+02  0.47000000000E+01 0. -1.
         -5    1    4    4    0  502 -0.38379234092E+01  0.25133289266E+02  0.20742902502E+02  0.33147698104E+02  0.47000000000E+01 0.  1.
<mgrwt>
<rscale>  0 0.97991249E+02</rscale>
<asrwt>0</asrwt>
<pdfrwt beam="1">  1        1 0.16337663E-01 0.98271132E+02</pdfrwt>
<pdfrwt beam="2">  1       -1 0.13863258E-01 0.98271132E+02</pdfrwt>
<totfact> 0.11048148E+04</totfact>
</mgrwt>
</event>
<event>
 8    1  0.2964543E-004  0.9468867E+02  0.7546771E-02  0.1293600E+00
          1   -1    0    0  501    0  0.00000000000E+00  0.00000000000E+00  0.72626297667E+02  0.72626297667E+02  0.00000000000E+00 0. -1.
         -1   -1    0    0    0  501 -0.00000000000E+00 -0.00000000000E+00 -0.11981538086E+03  0.11981538086E+03  0.00000000000E+00 0.  1.
         23    2    1    2    0    0 -0.25078057763E+02 -0.31019961383E+01 -0.19744794745E+02  0.96725392821E+02  0.91254661994E+02 0.  0.
         23    2    1    2    0    0  0.25078057763E+02  0.31019961383E+01 -0.27444288452E+02  0.95716285710E+02  0.88146962626E+02 0.  0.
          5    1    4    4  502    0 -0.90494725233E+01  0.26278548767E+02  0.18557349842E+02  0.33747893436E+02  0.47000000000E+01 0. -1.
         -5    1    3    3    0  503 -0.44599094172E+02 -0.33530602466E+02 -0.22087089185E+02  0.60193936666E+02  0.47000000000E+01 0.  1.
          5    1    3    3  503    0  0.19521036409E+02  0.30428606328E+02  0.23422944396E+01  0.36531456155E+02  0.47000000000E+01 0. -1.
         -5    1    4    4    0  502  0.34127530287E+02 -0.23176552628E+02 -0.46001638294E+02  0.61968392273E+02  0.47000000000E+01 0.  1.
<mgrwt>
<rscale>  0 0.93931836E+02</rscale>
<asrwt>0</asrwt>
<pdfrwt beam="1">  1        1 0.11173277E-01 0.94688672E+02</pdfrwt>
<pdfrwt beam="2">  1       -1 0.18433135E-01 0.94688672E+02</pdfrwt>
<totfact> 0.11518048E+04</totfact>
</mgrwt>
</event>
<event>
 8    1  0.2964543E-004  0.1001945E+03  0.7546771E-02  0.1280733E+00
          2   -1    0    0  501    0  0.00000000000E+00  0.00000000000E+00  0.33742899536E+03  0.33742899536E+03  0.00000000000E+00 0. -1.
         -2   -1    0    0    0  501 -0.00000000000E+00 -0.00000000000E+00 -0.29541279793E+02  0.29541279793E+02  0.00000000000E+00 0.  1.
         23    2    1    2    0    0 -0.21951729786E+02 -0.29460200334E+02  0.13786839122E+03  0.17043074385E+03  0.93215681662E+02 0.  0.
         23    2    1    2    0    0  0.21951729786E+02  0.29460200334E+02  0.17001932434E+03  0.19653953130E+03  0.91495545621E+02 0.  0.
          5    1    3    3  502    0  0.13850080946E+02 -0.31600997948E+02  0.12840239404E+03  0.13304026687E+03  0.47000000000E+01 0. -1.
         -5    1    3    3    0  502 -0.35801810732E+02  0.21407976139E+01  0.94659971771E+01  0.37390476978E+02  0.47000000000E+01 0.  1.
          5    1    4    4  503    0  0.55762722871E+02  0.19649697316E+02  0.13085248773E+03  0.14366647281E+03  0.47000000000E+01 0. -1.
         -5    1    4    4    0  503 -0.33810993085E+02  0.98105030183E+01  0.39166836615E+02  0.52873058483E+02  0.47000000000E+01 0.  1.
<mgrwt>
<rscale>  0 0.99792547E+02</rscale>
<asrwt>0</asrwt>
<pdfrwt beam="1">  1        2 0.51912151E-01 0.10019454E+03</pdfrwt>
<pdfrwt beam="2">  1       -2 0.45448125E-02 0.10019454E+03</pdfrwt>
<totfact> 0.19793034E+04</totfact>
</mgrwt>
</event>
<event>
 8    1  0.2964543E-004  0.1640131E+03  0.7546771E-02  0.1185667E+00
          1   -1    0    0  501    0  0.00000000000E+00  0.00000000000E+00  0.24563908071E+03  0.24563908071E+03  0.00000000000E+00 0. -1.
         -1   -1    0    0    0  501 -0.00000000000E+00 -0.00000000000E+00 -0.13666036081E+03  0.13666036081E+03  0.00000000000E+00 0.  1.
         23    2    1    2    0    0 -0.96911672142E+02  0.96822144628E+02  0.14553264336E+03  0.21927162232E+03  0.90188104447E+02 0.  0.
         23    2    1    2    0    0  0.96911672142E+02 -0.96822144628E+02 -0.36553923467E+02  0.16302781920E+03  0.80470371099E+02 0.  0.
          5    1    3    3  502    0 -0.24795492983E+02  0.30580954463E+02 -0.46526954694E+01  0.39921783819E+02  0.47000000000E+01 0. -1.
         -5    1    3    3    0  502 -0.72116179158E+02  0.66241190165E+02  0.15018533883E+03  0.17934983850E+03  0.47000000000E+01 0.  1.
          5    1    4    4  503    0  0.37776631846E+02 -0.81530237982E+02  0.31345323411E+01  0.90034265211E+02  0.47000000000E+01 0. -1.
         -5    1    4    4    0  503  0.59135040295E+02 -0.15291906646E+02 -0.39688455808E+02  0.72993553990E+02  0.47000000000E+01 0.  1.
<mgrwt>
<rscale>  0 0.16271369E+03</rscale>
<asrwt>0</asrwt>
<pdfrwt beam="1">  1        1 0.37790628E-01 0.16401309E+03</pdfrwt>
<pdfrwt beam="2">  1       -1 0.21024671E-01 0.16401309E+03</pdfrwt>
<totfact> 0.20615066E+03</totfact>
</mgrwt>
</event>
<event>
 8    1  0.2964543E-004  0.1225311E+03  0.7546771E-02  0.1239045E+00
          1   -1    0    0  501    0  0.00000000000E+00  0.00000000000E+00  0.43845608925E+03  0.43845608925E+03  0.00000000000E+00 0. -1.
         -1   -1    0    0    0  501 -0.00000000000E+00 -0.00000000000E+00 -0.34498961359E+02  0.34498961359E+02  0.00000000000E+00 0.  1.
         23    2    1    2    0    0  0.14935399026E+02 -0.80311828610E+02  0.22425831200E+03  0.25554970990E+03  0.91328022910E+02 0.  0.
         23    2    1    2    0    0 -0.14935399026E+02  0.80311828610E+02  0.17969881589E+03  0.21740534071E+03  0.91106321290E+02 0.  0.
          5    1    3    3  502    0 -0.14590095052E+02 -0.87462265259E+02  0.18868470095E+03  0.20853423003E+03  0.47000000000E+01 0. -1.
         -5    1    3    3    0  502  0.29525494077E+02  0.71504366498E+01  0.35573611048E+02  0.47015479874E+02  0.47000000000E+01 0.  1.
          5    1    4    4  503    0 -0.49848058340E+02  0.36307520193E+02  0.12177784781E+03  0.13658330484E+03  0.47000000000E+01 0. -1.
         -5    1    4    4    0  503  0.34912659314E+02  0.44004308417E+02  0.57920968076E+02  0.80822035871E+02  0.47000000000E+01 0.  1.
<mgrwt>
<rscale>  0 0.12248976E+03</rscale>
<asrwt>0</asrwt>
<pdfrwt beam="1">  1        1 0.67454779E-01 0.12253107E+03</pdfrwt>
<pdfrwt beam="2">  1       -1 0.53075328E-02 0.12253107E+03</pdfrwt>
<totfact> 0.81882879E+03</totfact>
</mgrwt>
</event>
<event>
 8    1  0.2964543E-004  0.1325415E+03  0.7546771E-02  0.1223959E+00
          1   -1    0    0  501    0  0.00000000000E+00  0.00000000000E+00  0.10321397285E+03  0.10321397285E+03  0.00000000000E+00 0. -1.
         -1   -1    0    0    0  501 -0.00000000000E+00 -0.00000000000E+00 -0.17899525156E+03  0.17899525156E+03  0.00000000000E+00 0.  1.
         23    2    1    2    0    0 -0.60769823986E+02 -0.74416476051E+02 -0.70643788172E+02  0.15019256282E+03  0.91304313728E+02 0.  0.
         23    2    1    2    0    0  0.60769823986E+02  0.74416476051E+02 -0.51374905329E+01  0.13201666159E+03  0.90394810212E+02 0.  0.
          5    1    4    4  502    0  0.60444172539E+02  0.29228956205E+02  0.30869152842E+02  0.74046096940E+02  0.47000000000E+01 0. -1.
         -5    1    3    3    0  503 -0.72866775227E+02 -0.23685978075E+02 -0.25012813389E+02  0.80736133936E+02  0.47000000000E+01 0.  1.
          5    1    3    3  503    0  0.12096951241E+02 -0.50730497976E+02 -0.45630974783E+02  0.69456428888E+02  0.47000000000E+01 0. -1.
         -5    1    4    4    0  502  0.32565144608E+00  0.45187519846E+02 -0.36006643375E+02  0.57970564650E+02  0.47000000000E+01 0.  1.
<mgrwt>
<rscale>  0 0.13238505E+03</rscale>
<asrwt>0</asrwt>
<pdfrwt beam="1">  1        1 0.15879073E-01 0.13254154E+03</pdfrwt>
<pdfrwt beam="2">  1       -1 0.27537731E-01 0.13254154E+03</pdfrwt>
<totfact> 0.39165567E+03</totfact>
</mgrwt>
</event>
<event>
 8    1  0.2964543E-004  0.9593235E+02  0.7546771E-02  0.1292080E+00
         -2   -1    0    0    0  501 -0.00000000000E+00  0.00000000000E+00  0.27625476612E+03  0.27625476612E+03  0.00000000000E+00 0.  1.
          2   -1    0    0  501    0  0.00000000000E+00 -0.00000000000E+00 -0.30373714022E+03  0.30373714022E+03  0.00000000000E+00 0. -1.
         23    2    1    2    0    0 -0.33643935846E+01 -0.14320488311E+02  0.26082175958E+03  0.27614607351E+03  0.89511273674E+02 0.  0.
         23    2    1    2    0    0  0.33643935846E+01  0.14320488311E+02 -0.28830413368E+03  0.30384583282E+03  0.94797790549E+02 0.  0.
          5    1    4    4  502    0  0.47672945472E+02  0.53307493573E+01 -0.11528380278E+03  0.12495427884E+03  0.47000000000E+01 0. -1.
         -5    1    3    3    0  503  0.27550994719E+02 -0.40665383867E+02  0.12839087978E+03  0.13754649674E+03  0.47000000000E+01 0.  1.
          5    1    3    3  503    0 -0.30915388303E+02  0.26344895556E+02  0.13243087981E+03  0.13859957678E+03  0.47000000000E+01 0. -1.
         -5    1    4    4    0  502 -0.44308551887E+02  0.89897389538E+01 -0.17302033091E+03  0.17889155398E+03  0.47000000000E+01 0.  1.
<mgrwt>
<rscale>  0 0.94599751E+02</rscale>
<asrwt>0</asrwt>
<pdfrwt beam="1">  1        2 0.46728791E-01 0.95932354E+02</pdfrwt>
<pdfrwt beam="2">  1       -2 0.42500733E-01 0.95932354E+02</pdfrwt>
<totfact> 0.56940226E+02</totfact>
</mgrwt>
</event>
<event>
 8    1  0.2964543E-004  0.1268519E+03  0.7546771E-02  0.1232792E+00
          3   -1    0    0  501    0  0.00000000000E+00  0.00000000000E+00  0.54243782863E+02  0.54243782863E+02  0.00000000000E+00 0. -1.
         -3   -1    0    0    0  501 -0.00000000000E+00 -0.00000000000E+00 -0.33740015080E+03  0.33740015080E+03  0.00000000000E+00 0.  1.
         23    2    1    2    0    0 -0.38900400637E+02  0.77369824479E+02 -0.21179647069E+03  0.24609794070E+03  0.90593159296E+02 0.  0.
         23    2    1    2    0    0  0.38900400637E+02 -0.77369824479E+02 -0.71359897250E+02  0.14554599296E+03  0.92693420601E+02 0.  0.
          5    1    3    3  502    0  0.36879165710E+01  0.20199547264E+02  0.15356750936E+01  0.21120386746E+02  0.47000000000E+01 0. -1.
         -5    1    4    4    0  503  0.12328412714E+02  0.17976920277E+02 -0.31822746450E+02  0.38857902855E+02  0.47000000000E+01 0.  1.
          5    1    4    4  503    0  0.26571987923E+02 -0.95346744756E+02 -0.39537150800E+02  0.10668809011E+03  0.47000000000E+01 0. -1.
         -5    1    3    3    0  502 -0.42588317208E+02  0.57170277215E+02 -0.21333214578E+03  0.22497755395E+03  0.47000000000E+01 0.  1.
<mgrwt>
<rscale>  0 0.12646853E+03</rscale>
<asrwt>0</asrwt>
<pdfrwt beam="1">  1        3 0.83451974E-02 0.12685189E+03</pdfrwt>
<pdfrwt beam="2">  1       -3 0.51907715E-01 0.12685189E+03</pdfrwt>
<totfact> 0.84243973E+02</totfact>
</mgrwt>
</event>
<event>
 8    1  0.2964543E-004  0.9383518E+02  0.7546771E-02  0.1297156E+00
          1   -1    0    0  501    0  0.00000000000E+00  0.00000000000E+00  0.24565819928E+03  0.24565819928E+03  0.00000000000E+00 0. -1.
         -1   -1    0    0    0  501 -0.00000000000E+00 -0.00000000000E+00 -0.41469585373E+02  0.41469585373E+02  0.00000000000E+00 0.  1.
         23    2    1    2    0    0 -0.14002161659E+02 -0.16505350705E+02  0.42638483366E+02  0.10306833372E+03  0.91304731636E+02 0.  0.
         23    2    1    2    0    0  0.14002161659E+02  0.16505350705E+02  0.16155013054E+03  0.18405945094E+03  0.85504091524E+02 0.  0.
          5    1    3    3  502    0  0.20658813742E+02 -0.70805891848E+01  0.59171862457E+02  0.63248087995E+02  0.47000000000E+01 0. -1.
         -5    1    4    4    0  503 -0.34842791965E+02 -0.32390599736E+01  0.64653730816E+02  0.73666183353E+02  0.47000000000E+01 0.  1.
          5    1    4    4  503    0  0.48844953624E+02  0.19744410679E+02  0.96896399729E+02  0.11039326758E+03  0.47000000000E+01 0. -1.
         -5    1    3    3    0  502 -0.34660975401E+02 -0.94247615206E+01 -0.16533379091E+02  0.39820245725E+02  0.47000000000E+01 0.  1.
<mgrwt>
<rscale>  0 0.92393792E+02</rscale>
<asrwt>0</asrwt>
<pdfrwt beam="1">  1        1 0.37793568E-01 0.93835181E+02</pdfrwt>
<pdfrwt beam="2">  1       -1 0.63799364E-02 0.93835181E+02</pdfrwt>
<totfact> 0.12496277E+04</totfact>
</mgrwt>
</event>
<event>
 8    1  0.2964543E-004  0.9362480E+02  0.7546771E-02  0.1296499E+00
         -3   -1    0    0    0  501 -0.00000000000E+00  0.00000000000E+00  0.46918197528E+03  0.46918197528E+03  0.00000000000E+00 0.  1.
          3   -1    0    0  501    0  0.00000000000E+00 -0.00000000000E+00 -0.32143170976E+02  0.32143170976E+02  0.00000000000E+00 0. -1.
         23    2    1    2    0    0  0.18428802812E+02  0.11604183274E+02  0.38261548419E+03  0.39303155946E+03  0.87206193264E+02 0.  0.
         23    2    1    2    0    0 -0.18428802812E+02 -0.11604183274E+02  0.54423320116E+02  0.10829358680E+03  0.91056714896E+02 0.  0.
          5    1    4    4  502    0  0.10312750234E+02 -0.44029715209E+02  0.44448660596E+02  0.63582561034E+02  0.47000000000E+01 0. -1.
         -5    1    3    3    0  503  0.45223426855E+02  0.28629101342E+02  0.29197603935E+03  0.29687856327E+03  0.47000000000E+01 0.  1.
          5    1    3    3  503    0 -0.26794624043E+02 -0.17024918068E+02  0.90639444845E+02  0.96152996182E+02  0.47000000000E+01 0. -1.
         -5    1    4    4    0  502 -0.28741553046E+02  0.32425531935E+02  0.99746595203E+01  0.44711025769E+02  0.47000000000E+01 0.  1.
<mgrwt>
<rscale>  0 0.92675344E+02</rscale>
<asrwt>0</asrwt>
<pdfrwt beam="1">  1        3 0.49451036E-02 0.93624800E+02</pdfrwt>
<pdfrwt beam="2">  1       -3 0.72181838E-01 0.93624800E+02</pdfrwt>
<totfact> 0.93623362E+02</totfact>
</mgrwt>
</event>
<event>
 8    1  0.2964543E-004  0.9959752E+02  0.7546771E-02  0.1281753E+00
          1   -1    0    0  501    0  0.00000000000E+00  0.00000000000E+00  0.29114121393E+03  0.29114121393E+03  0.00000000000E+00 0. -1.
         -1   -1    0    0    0  501 -0.00000000000E+00 -0.00000000000E+00 -0.37212104409E+02  0.37212104409E+02  0.00000000000E+00 0.  1.
         23    2    1    2    0    0  0.23318522263E+02 -0.33030019076E+02  0.77058483425E+02  0.12592726099E+03  0.91021588382E+02 0.  0.
         23    2    1    2    0    0 -0.23318522263E+02  0.33030019076E+02  0.17687062610E+03  0.20242605735E+03  0.89768338952E+02 0.  0.
          5    1    4    4  502    0  0.32323852304E+02  0.23921024486E+02  0.57472896204E+02  0.70301284756E+02  0.47000000000E+01 0. -1.
         -5    1    4    4    0  502 -0.55642374567E+02  0.91089945900E+01  0.11939772990E+03  0.13212477260E+03  0.47000000000E+01 0.  1.
          5    1    3    3  503    0  0.20530505507E+02  0.29425233888E+02  0.35620683402E+02  0.50776659321E+02  0.47000000000E+01 0. -1.
         -5    1    3    3    0  503  0.27880167565E+01 -0.62455252964E+02  0.41437800023E+02  0.75150601667E+02  0.47000000000E+01 0.  1.
<mgrwt>
<rscale>  0 0.99310270E+02</rscale>
<asrwt>0</asrwt>
<pdfrwt beam="1">  1        1 0.44790954E-01 0.99597516E+02</pdfrwt>
<pdfrwt beam="2">  1       -1 0.57249393E-02 0.99597516E+02</pdfrwt>
<totfact> 0.11979350E+04</totfact>
</mgrwt>
</event>
<event>
 7    1  0.2964543E-004  0.2558015E+03  0.7546771E-02  0.1140942E+00
         -1   -1    0    0    0  501 -0.00000000000E+00  0.00000000000E+00  0.28847113793E+03  0.28847113793E+03  0.00000000000E+00 0.  1.
          1   -1    0    0  501    0  0.00000000000E+00 -0.00000000000E+00 -0.12126965688E+03  0.12126965688E+03  0.00000000000E+00 0. -1.
         23    2    1    2    0    0 -0.17966515065E+02  0.31665446666E+02  0.60752088321E+02  0.13267425557E+03  0.11218799258E+03 0.  0.
          5    1    3    3  502    0 -0.37710263156E+02 -0.16155878899E+02 -0.12252074463E+02  0.43072957862E+02  0.47000000000E+01 0. -1.
         -5    1    1    2    0  503  0.42020012773E+02 -0.40038766304E+00  0.18460948753E+03  0.18939005958E+03  0.47000000000E+01 0.  1.
          5    1    1    2  503    0 -0.24053497708E+02 -0.31265059003E+02 -0.78160094792E+02  0.87676479653E+02  0.47000000000E+01 0. -1.
         -5    1    3    3    0  502  0.19743748091E+02  0.47821325565E+02  0.73004162783E+02  0.89601297709E+02  0.47000000000E+01 0.  1.
<mgrwt>
<rscale>  0 0.21078979E+03</rscale>
<asrwt>0</asrwt>
<pdfrwt beam="1">  1        1 0.18656870E-01 0.25580147E+03</pdfrwt>
<pdfrwt beam="2">  1       -1 0.44380175E-01 0.25580147E+03</pdfrwt>
<totfact> 0.14272370E+03</totfact>
</mgrwt>
</event>
<event>
 8    1  0.2964543E-004  0.9695590E+02  0.7546771E-02  0.1288931E+00
          1   -1    0    0  501    0  0.00000000000E+00  0.00000000000E+00  0.45973550154E+02  0.45973550154E+02  0.00000000000E+00 0. -1.
         -1   -1    0    0    0  501 -0.00000000000E+00 -0.00000000000E+00 -0.20766605955E+03  0.20766605955E+03  0.00000000000E+00 0.  1.
         23    2    1    2    0    0 -0.28413559085E+02  0.59276911332E+01 -0.10855600532E+03  0.14307770496E+03  0.88568366259E+02 0.  0.
         23    2    1    2    0    0  0.28413559085E+02 -0.59276911332E+01 -0.53136504072E+02  0.11056190475E+03  0.92509344686E+02 0.  0.
          5    1    4    4  502    0 -0.26803784440E+02  0.17932559425E+02 -0.41677526074E+01  0.32855436531E+02  0.47000000000E+01 0. -1.
         -5    1    4    4    0  502  0.55217343524E+02 -0.23860250559E+02 -0.48968751465E+02  0.77706468216E+02  0.47000000000E+01 0.  1.
          5    1    3    3  503    0 -0.51567955972E+02  0.19026720536E+02 -0.10090427034E+03  0.11500013892E+03  0.47000000000E+01 0. -1.
         -5    1    3    3    0  503  0.23154396887E+02 -0.13099029403E+02 -0.76517349810E+01  0.28077566040E+02  0.47000000000E+01 0.  1.
<mgrwt>
<rscale>  0 0.96003775E+02</rscale>
<asrwt>0</asrwt>
<pdfrwt beam="1">  1        1 0.70728541E-02 0.96955901E+02</pdfrwt>
<pdfrwt beam="2">  1       -1 0.31948624E-01 0.96955901E+02</pdfrwt>
<totfact> 0.86382586E+03</totfact>
</mgrwt>
</event>
<event>
 8    1  0.2964543E-004  0.9736462E+02  0.7546771E-02  0.1289605E+00
          1   -1    0    0  501    0  0.00000000000E+00  0.00000000000E+00  0.21082832933E+03  0.21082832933E+03  0.00000000000E+00 0. -1.
         -1   -1    0    0    0  501 -0.00000000000E+00 -0.00000000000E+00 -0.51772942199E+02  0.51772942199E+02  0.00000000000E+00 0.  1.
         23    2    1    2    0    0 -0.22291587170E+02 -0.18476848702E+02  0.13871337026E+03  0.16947350281E+03  0.92959992847E+02 0.  0.
         23    2    1    2    0    0  0.22291587170E+02  0.18476848702E+02  0.20342016878E+02  0.93127768723E+02  0.86143339035E+02 0.  0.
          5    1    3    3  502    0  0.33091733745E+02 -0.68697868683E+01  0.24767453539E+02  0.42163652222E+02  0.47000000000E+01 0. -1.
         -5    1    4    4    0  503 -0.44645811926E+01 -0.28968946051E+02  0.24227955767E+02  0.38317308898E+02  0.47000000000E+01 0.  1.
          5    1    4    4  503    0  0.26756168363E+02  0.47445794752E+02 -0.38859388892E+01  0.54810459825E+02  0.47000000000E+01 0. -1.
         -5    1    3    3    0  502 -0.55383320916E+02 -0.11607061833E+02  0.11394591672E+03  0.12730985059E+03  0.47000000000E+01 0.  1.
<mgrwt>
<rscale>  0 0.95701050E+02</rscale>
<asrwt>0</asrwt>
<pdfrwt beam="1">  1        1 0.32435127E-01 0.97364619E+02</pdfrwt>
<pdfrwt beam="2">  1       -1 0.79650682E-02 0.97364619E+02</pdfrwt>
<totfact> 0.10871554E+04</totfact>
</mgrwt>
</event>
<event>
 8    1  0.2964543E-004  0.9206828E+02  0.7546771E-02  0.1307354E+00
         -2   -1    0    0    0  501 -0.00000000000E+00  0.00000000000E+00  0.21016276914E+02  0.21016276914E+02  0.00000000000E+00 0.  1.
          2   -1    0    0  501    0  0.00000000000E+00 -0.00000000000E+00 -0.43205371908E+03  0.43205371908E+03  0.00000000000E+00 0. -1.
         23    2    1    2    0    0 -0.14630806240E+02  0.14682251310E+02 -0.88205674321E+02  0.11736637935E+03  0.74598907663E+02 0.  0.
         23    2    1    2    0    0  0.14630806240E+02 -0.14682251310E+02 -0.32283176784E+03  0.33570361664E+03  0.89704731779E+02 0.  0.
          5    1    3    3  502    0  0.29677931824E+02  0.10872375210E+02 -0.28861037920E+02  0.43058537944E+02  0.47000000000E+01 0. -1.
         -5    1    3    3    0  502 -0.44308738065E+02  0.38098760991E+01 -0.59344636401E+02  0.74307841406E+02  0.47000000000E+01 0.  1.
          5    1    4    4  503    0  0.92065131719E+01  0.26431144472E+02 -0.25121790909E+03  0.25281592736E+03  0.47000000000E+01 0. -1.
         -5    1    4    4    0  503  0.54242930682E+01 -0.41113395782E+02 -0.71613858755E+02  0.82887689278E+02  0.47000000000E+01 0.  1.
<mgrwt>
<rscale>  0 0.88166333E+02</rscale>
<asrwt>0</asrwt>
<pdfrwt beam="1">  1        2 0.66469810E-01 0.92068278E+02</pdfrwt>
<pdfrwt beam="2">  1       -2 0.32332730E-02 0.92068278E+02</pdfrwt>
<totfact> 0.24948043E+04</totfact>
</mgrwt>
</event>
<event>
 8    1  0.2964543E-004  0.1009951E+03  0.7546771E-02  0.1278717E+00
         -2   -1    0    0    0  501 -0.00000000000E+00  0.00000000000E+00  0.29464186078E+02  0.29464186078E+02  0.00000000000E+00 0.  1.
          2   -1    0    0  501    0  0.00000000000E+00 -0.00000000000E+00 -0.61914298273E+03  0.61914298273E+03  0.00000000000E+00 0. -1.
         23    2    1    2    0    0 -0.13020738063E+01  0.41344631264E+02 -0.51223599388E+03  0.52209741950E+03  0.92135379161E+02 0.  0.
         23    2    1    2    0    0  0.13020738063E+01 -0.41344631264E+02 -0.77442802779E+02  0.12650974931E+03  0.91083780326E+02 0.  0.
          5    1    4    4  502    0  0.10518710585E+02  0.22400806009E+02 -0.50698273392E+02  0.56611344332E+02  0.47000000000E+01 0. -1.
         -5    1    4    4    0  502 -0.92166367791E+01 -0.63745437274E+02 -0.26744529387E+02  0.69898404981E+02  0.47000000000E+01 0.  1.
          5    1    3    3  503    0 -0.14161254299E+02  0.67032273640E+02 -0.41336643096E+03  0.41903193563E+03  0.47000000000E+01 0. -1.
         -5    1    3    3    0  503  0.12859180493E+02 -0.25687642376E+02 -0.98869562917E+02  0.10306548387E+03  0.47000000000E+01 0.  1.
<mgrwt>
<rscale>  0 0.10075460E+03</rscale>
<asrwt>0</asrwt>
<pdfrwt beam="1">  1        2 0.95252765E-01 0.10099506E+03</pdfrwt>
<pdfrwt beam="2">  1       -2 0.45329518E-02 0.10099506E+03</pdfrwt>
<totfact> 0.10335961E+04</totfact>
</mgrwt>
</event>
<event>
 8    1  0.2964543E-004  0.1134288E+03  0.7546771E-02  0.1254503E+00
          1   -1    0    0  501    0  0.00000000000E+00  0.00000000000E+00  0.43627832795E+03  0.43627832795E+03  0.00000000000E+00 0. -1.
         -1   -1    0    0    0  501 -0.00000000000E+00 -0.00000000000E+00 -0.81793612148E+02  0.81793612148E+02  0.00000000000E+00 0.  1.
         23    2    1    2    0    0  0.22065780903E+02  0.63890437312E+02  0.38446273834E+03  0.40074858395E+03  0.90658390103E+02 0.  0.
         23    2    1    2    0    0 -0.22065780903E+02 -0.63890437312E+02 -0.29978022538E+02  0.11732335615E+03  0.91088975166E+02 0.  0.
          5    1    4    4  502    0 -0.49032892003E+02 -0.83408293576E+01 -0.23014802859E+02  0.55005136880E+02  0.47000000000E+01 0. -1.
         -5    1    4    4    0  502  0.26967111100E+02 -0.55549607955E+02 -0.69632196784E+01  0.62318219272E+02  0.47000000000E+01 0.  1.
          5    1    3    3  503    0 -0.29568717496E+02  0.12372438948E+02  0.19506396098E+03  0.19773574582E+03  0.47000000000E+01 0. -1.
         -5    1    3    3    0  503  0.51634498400E+02  0.51517998364E+02  0.18939877736E+03  0.20301283813E+03  0.47000000000E+01 0.  1.
<mgrwt>
<rscale>  0 0.11334231E+03</rscale>
<asrwt>0</asrwt>
<pdfrwt beam="1">  1        1 0.67119741E-01 0.11342878E+03</pdfrwt>
<pdfrwt beam="2">  1       -1 0.12583633E-01 0.11342878E+03</pdfrwt>
<totfact> 0.22361177E+03</totfact>
</mgrwt>
</event>
<event>
 8    1  0.2964543E-004  0.1000702E+03  0.7546771E-02  0.1282110E+00
         -1   -1    0    0    0  501 -0.00000000000E+00  0.00000000000E+00  0.32338620846E+03  0.32338620846E+03  0.00000000000E+00 0.  1.
          1   -1    0    0  501    0  0.00000000000E+00 -0.00000000000E+00 -0.30997176216E+02  0.30997176216E+02  0.00000000000E+00 0. -1.
         23    2    1    2    0    0 -0.24793168725E+02 -0.51785294559E+01  0.11464084837E+03  0.15217283967E+03  0.96811831081E+02 0.  0.
         23    2    1    2    0    0  0.24793168725E+02  0.51785294559E+01  0.17774818388E+03  0.20221054500E+03  0.93022412652E+02 0.  0.
          5    1    4    4  502    0  0.59520415245E+02  0.76319018040E+01  0.12634138929E+03  0.13994699855E+03  0.47000000000E+01 0. -1.
         -5    1    3    3    0  503 -0.28756144486E+02  0.41430124461E+02  0.75932310862E+02  0.91275280834E+02  0.47000000000E+01 0.  1.
          5    1    3    3  503    0  0.39629757608E+01 -0.46608653917E+02  0.38708537506E+02  0.60897558840E+02  0.47000000000E+01 0. -1.
         -5    1    4    4    0  502 -0.34727246520E+02 -0.24533723481E+01  0.51406794586E+02  0.62263546448E+02  0.47000000000E+01 0.  1.
<mgrwt>
<rscale>  0 0.99142072E+02</rscale>
<asrwt>0</asrwt>
<pdfrwt beam="1">  1        1 0.47687966E-02 0.10007022E+03</pdfrwt>
<pdfrwt beam="2">  1       -1 0.49751722E-01 0.10007022E+03</pdfrwt>
<totfact> 0.68161698E+03</totfact>
</mgrwt>
</event>
<event>
 8    1  0.2964543E-004  0.9594314E+02  0.7546771E-02  0.1291686E+00
         -1   -1    0    0    0  501 -0.00000000000E+00  0.00000000000E+00  0.28882420417E+02  0.28882420417E+02  0.00000000000E+00 0.  1.
          1   -1    0    0  501    0  0.00000000000E+00 -0.00000000000E+00 -0.37024542695E+03  0.37024542695E+03  0.00000000000E+00 0. -1.
         23    2    1    2    0    0  0.88309253264E+01 -0.75118776669E+01 -0.89490113449E+02  0.13120048207E+03  0.95240078451E+02 0.  0.
         23    2    1    2    0    0 -0.88309253264E+01  0.75118776669E+01 -0.25187289308E+03  0.26792736529E+03  0.90612941978E+02 0.  0.
          5    1    4    4  502    0  0.19906784995E+02 -0.26731207497E+02 -0.18026290564E+03  0.18337841392E+03  0.47000000000E+01 0. -1.
         -5    1    4    4    0  502 -0.28737710321E+02  0.34243085164E+02 -0.71609987447E+02  0.84548951372E+02  0.47000000000E+01 0.  1.
          5    1    3    3  503    0  0.95445180259E+01  0.41909564438E+02 -0.58235360126E+02  0.72532451943E+02  0.47000000000E+01 0. -1.
         -5    1    3    3    0  503 -0.71359269955E+00 -0.49421442105E+02 -0.31254753323E+02  0.58668030132E+02  0.47000000000E+01 0.  1.
<mgrwt>
<rscale>  0 0.94774066E+02</rscale>
<asrwt>0</asrwt>
<pdfrwt beam="1">  1        1 0.56960830E-01 0.95943140E+02</pdfrwt>
<pdfrwt beam="2">  1       -1 0.44434497E-02 0.95943140E+02</pdfrwt>
<totfact> 0.12884637E+04</totfact>
</mgrwt>
</event>
<event>
 8    1  0.2964543E-004  0.1256310E+03  0.7546771E-02  0.1236748E+00
         -2   -1    0    0    0  501 -0.00000000000E+00  0.00000000000E+00  0.15416841644E+02  0.15416841644E+02  0.00000000000E+00 0.  1.
          2   -1    0    0  501    0  0.00000000000E+00 -0.00000000000E+00 -0.97308996489E+03  0.97308996489E+03  0.00000000000E+00 0. -1.
         23    2    1    2    0    0 -0.40981581462E+02 -0.65735411389E+02 -0.46494681637E+03  0.48162090215E+03  0.98906607480E+02 0.  0.
         23    2    1    2    0    0  0.40981581462E+02  0.65735411389E+02 -0.49272630687E+03  0.50688590439E+03  0.90296579390E+02 0.  0.
          5    1    3    3  502    0  0.28607238244E+01 -0.61602363692E+02 -0.38751024370E+03  0.39241472186E+03  0.47000000000E+01 0. -1.
         -5    1    4    4    0  503 -0.12356113985E+02  0.30989485332E+02 -0.54772474695E+02  0.64305021096E+02  0.47000000000E+01 0.  1.
          5    1    4    4  503    0  0.53337695447E+02  0.34745926057E+02 -0.43795383218E+03  0.44258088329E+03  0.47000000000E+01 0. -1.
         -5    1    3    3    0  502 -0.43842305287E+02 -0.41330476963E+01 -0.77436572671E+02  0.89206180296E+02  0.47000000000E+01 0.  1.
<mgrwt>
<rscale>  0 0.12393186E+03</rscale>
<asrwt>0</asrwt>
<pdfrwt beam="1">  1        2 0.14970610E+00 0.12563101E+03</pdfrwt>
<pdfrwt beam="2">  1       -2 0.23718226E-02 0.12563101E+03</pdfrwt>
<totfact> 0.15601754E+04</totfact>
</mgrwt>
</event>
<event>
 8    1  0.2964543E-004  0.9282026E+02  0.7546771E-02  0.1297725E+00
         -1   -1    0    0    0  501 -0.00000000000E+00  0.00000000000E+00  0.48648558745E+02  0.48648558745E+02  0.00000000000E+00 0.  1.
          1   -1    0    0  501    0  0.00000000000E+00 -0.00000000000E+00 -0.17367692651E+03  0.17367692651E+03  0.00000000000E+00 0. -1.
         23    2    1    2    0    0  0.11576117938E+02  0.14574043193E+02 -0.72275003849E+02  0.11556164257E+03  0.88229291117E+02 0.  0.
         23    2    1    2    0    0 -0.11576117938E+02 -0.14574043193E+02 -0.52753363920E+02  0.10676384269E+03  0.90935094760E+02 0.  0.
          5    1    4    4  502    0 -0.28243935289E+02  0.19777386704E+02 -0.58300381475E+02  0.67896166207E+02  0.47000000000E+01 0. -1.
         -5    1    3    3    0  503  0.17940744608E+02 -0.34739158051E+02 -0.24095263683E+02  0.46166558797E+02  0.47000000000E+01 0.  1.
          5    1    3    3  503    0 -0.63646266705E+01  0.49313201245E+02 -0.48179740167E+02  0.69395083775E+02  0.47000000000E+01 0. -1.
         -5    1    4    4    0  502  0.16667817352E+02 -0.34351429897E+02  0.55470175551E+01  0.38867676481E+02  0.47000000000E+01 0.  1.
<mgrwt>
<rscale>  0 0.92150747E+02</rscale>
<asrwt>0</asrwt>
<pdfrwt beam="1">  1        1 0.26719527E-01 0.92820260E+02</pdfrwt>
<pdfrwt beam="2">  1       -1 0.74843936E-02 0.92820260E+02</pdfrwt>
<totfact> 0.15076179E+04</totfact>
</mgrwt>
</event>
<event>
 8    1  0.2964543E-004  0.1180451E+03  0.7546771E-02  0.1247879E+00
          1   -1    0    0  501    0  0.00000000000E+00  0.00000000000E+00  0.12998187397E+03  0.12998187397E+03  0.00000000000E+00 0. -1.
         -1   -1    0    0    0  501 -0.00000000000E+00 -0.00000000000E+00 -0.12066853095E+03  0.12066853095E+03  0.00000000000E+00 0.  1.
         23    2    1    2    0    0  0.65941431024E+02 -0.24649004200E+02 -0.41973353121E+02  0.12194545667E+03  0.90294442219E+02 0.  0.
         23    2    1    2    0    0 -0.65941431024E+02  0.24649004200E+02  0.51286696139E+02  0.12870494826E+03  0.94756491973E+02 0.  0.
          5    1    3    3  502    0 -0.20369877104E+02 -0.79733319075E+01  0.38460859695E+01  0.22702164924E+02  0.47000000000E+01 0. -1.
         -5    1    4    4    0  503 -0.25874056553E+02  0.51780104192E+02  0.52252120447E-01  0.58075284957E+02  0.47000000000E+01 0.  1.
          5    1    4    4  503    0 -0.40067374471E+02 -0.27131099991E+02  0.51234444018E+02  0.70629663298E+02  0.47000000000E+01 0. -1.
         -5    1    3    3    0  502  0.86311308128E+02 -0.16675672293E+02 -0.45819439090E+02  0.99243291742E+02  0.47000000000E+01 0.  1.
<mgrwt>
<rscale>  0 0.11714717E+03</rscale>
<asrwt>0</asrwt>
<pdfrwt beam="1">  1        1 0.19997211E-01 0.11804507E+03</pdfrwt>
<pdfrwt beam="2">  1       -1 0.18564389E-01 0.11804507E+03</pdfrwt>
<totfact> 0.54908361E+03</totfact>
</mgrwt>
</event>
<event>
 8    1  0.2964543E-004  0.1050941E+03  0.7546771E-02  0.1271829E+00
         -2   -1    0    0    0  501 -0.00000000000E+00  0.00000000000E+00  0.76599080832E+02  0.76599080832E+02  0.00000000000E+00 0.  1.
          2   -1    0    0  501    0  0.00000000000E+00 -0.00000000000E+00 -0.39566206665E+03  0.39566206665E+03  0.00000000000E+00 0. -1.
         23    2    1    2    0    0 -0.26637653000E+02 -0.42723857040E+02  0.31644899497E+02  0.10614532160E+03  0.87923473058E+02 0.  0.
         23    2    1    2    0    0  0.26637653000E+02  0.42723857040E+02 -0.35070788532E+03  0.36611582589E+03  0.92249035906E+02 0.  0.
          5    1    3    3  502    0 -0.49568544984E+01 -0.29652812760E+02 -0.27892313373E+02  0.41278697368E+02  0.47000000000E+01 0. -1.
         -5    1    4    4    0  503  0.70053839073E+01 -0.25005430736E+02 -0.43464077420E+02  0.50848431598E+02  0.47000000000E+01 0.  1.
          5    1    4    4  503    0  0.19632269092E+02  0.67729287776E+02 -0.30724380790E+03  0.31526739429E+03  0.47000000000E+01 0. -1.
         -5    1    3    3    0  502 -0.21680798501E+02 -0.13071044280E+02  0.59537212870E+02  0.64866624227E+02  0.47000000000E+01 0.  1.
<mgrwt>
<rscale>  0 0.10413722E+03</rscale>
<asrwt>0</asrwt>
<pdfrwt beam="1">  1        2 0.60871087E-01 0.10509413E+03</pdfrwt>
<pdfrwt beam="2">  1       -2 0.11784474E-01 0.10509413E+03</pdfrwt>
<totfact> 0.39210740E+03</totfact>
</mgrwt>
</event>
<event>
 8    1  0.2964543E-004  0.1031502E+03  0.7546771E-02  0.1276232E+00
          2   -1    0    0  501    0  0.00000000000E+00  0.00000000000E+00  0.33821698117E+03  0.33821698117E+03  0.00000000000E+00 0. -1.
         -2   -1    0    0    0  501 -0.00000000000E+00 -0.00000000000E+00 -0.88606429833E+02  0.88606429833E+02  0.00000000000E+00 0.  1.
         23    2    1    2    0    0  0.26049713426E+02  0.26920615102E+02 -0.49658292546E+02  0.11027673853E+03  0.91058804935E+02 0.  0.
         23    2    1    2    0    0 -0.26049713426E+02 -0.26920615102E+02  0.29926884388E+03  0.31654667247E+03  0.96107480692E+02 0.  0.
          5    1    3    3  502    0  0.35521431552E+02  0.46082419365E+02 -0.26616070154E+01  0.58434027980E+02  0.47000000000E+01 0. -1.
         -5    1    4    4    0  503  0.30735486544E+02  0.10321741150E+02  0.68214041302E+02  0.75673336812E+02  0.47000000000E+01 0.  1.
          5    1    4    4  503    0 -0.56785199970E+02 -0.37242356252E+02  0.23105480258E+03  0.24087333566E+03  0.47000000000E+01 0. -1.
         -5    1    3    3    0  502 -0.94717181261E+01 -0.19161804263E+02 -0.46996685530E+02  0.51842710555E+02  0.47000000000E+01 0.  1.
<mgrwt>
<rscale>  0 0.10195792E+03</rscale>
<asrwt>0</asrwt>
<pdfrwt beam="1">  1        2 0.52033381E-01 0.10315016E+03</pdfrwt>
<pdfrwt beam="2">  1       -2 0.13631759E-01 0.10315016E+03</pdfrwt>
<totfact> 0.36635490E+03</totfact>
</mgrwt>
</event>
<event>
 8    1  0.2964543E-004  0.1293491E+03  0.7546771E-02  0.1233066E+00
         -2   -1    0    0    0  501 -0.00000000000E+00  0.00000000000E+00  0.47639021502E+02  0.47639021502E+02  0.00000000000E+00 0.  1.
          2   -1    0    0  501    0  0.00000000000E+00 -0.00000000000E+00 -0.57043270217E+03  0.57043270217E+03  0.00000000000E+00 0. -1.
         23    2    1    2    0    0  0.61033603695E+02  0.36019855775E+02 -0.49706690066E+02  0.12762040171E+03  0.93774629325E+02 0.  0.
         23    2    1    2    0    0 -0.61033603695E+02 -0.36019855775E+02 -0.47308699060E+03  0.49045132197E+03  0.10820659753E+03 0.  0.
          5    1    4    4  502    0 -0.82423273332E+02  0.44065639793E+01 -0.32767398629E+03  0.33794281334E+03  0.47000000000E+01 0. -1.
         -5    1    4    4    0  502  0.21389669638E+02 -0.40426419754E+02 -0.14541300431E+03  0.15250850863E+03  0.47000000000E+01 0.  1.
          5    1    3    3  503    0 -0.35032737149E+01 -0.22746761930E+02  0.56443364858E+01  0.24158572793E+02  0.47000000000E+01 0. -1.
         -5    1    3    3    0  503  0.64536877410E+02  0.58766617705E+02 -0.55351026551E+02  0.10346182892E+03  0.47000000000E+01 0.  1.
<mgrwt>
<rscale>  0 0.12629067E+03</rscale>
<asrwt>0</asrwt>
<pdfrwt beam="1">  1        2 0.87758873E-01 0.12934913E+03</pdfrwt>
<pdfrwt beam="2">  1       -2 0.73290806E-02 0.12934913E+03</pdfrwt>
<totfact> 0.55835445E+03</totfact>
</mgrwt>
</event>
<event>
 8    1  0.2964543E-004  0.1046895E+03  0.7546771E-02  0.1273064E+00
         -3   -1    0    0    0  501 -0.00000000000E+00  0.00000000000E+00  0.67576276760E+03  0.67576276760E+03  0.00000000000E+00 0.  1.
          3   -1    0    0  501    0  0.00000000000E+00 -0.00000000000E+00 -0.16795312424E+02  0.16795312424E+02  0.00000000000E+00 0. -1.
         23    2    1    2    0    0  0.42253917866E+02 -0.30582855537E+02  0.43196371057E+03  0.44446883706E+03  0.90770012908E+02 0.  0.
         23    2    1    2    0    0 -0.42253917866E+02  0.30582855537E+02  0.22700374461E+03  0.24808924296E+03  0.85421705552E+02 0.  0.
          5    1    4    4  502    0 -0.66131077771E+02  0.13749250291E+02  0.12863658367E+03  0.14536788500E+03  0.47000000000E+01 0. -1.
         -5    1    3    3    0  503  0.50966067610E+02  0.17794947623E+02  0.25820563237E+03  0.26383032198E+03  0.47000000000E+01 0. -1.
          5    1    3    3  503    0 -0.87121497445E+01 -0.48377803160E+02  0.17375807820E+03  0.18063851508E+03  0.47000000000E+01 0.  1.
         -5    1    4    4    0  502  0.23877159905E+02  0.16833605246E+02  0.98367160941E+02  0.10272135797E+03  0.47000000000E+01 0.  1.
<mgrwt>
<rscale>  0 0.10351965E+03</rscale>
<asrwt>0</asrwt>
<pdfrwt beam="1">  1        3 0.25838947E-02 0.10468954E+03</pdfrwt>
<pdfrwt beam="2">  1       -3 0.10396348E+00 0.10468954E+03</pdfrwt>
<totfact> 0.11724549E+03</totfact>
</mgrwt>
</event>
<event>
 7    1  0.2964543E-004  0.1571067E+03  0.7546771E-02  0.1209139E+00
         -1   -1    0    0    0  501 -0.00000000000E+00  0.00000000000E+00  0.38681852099E+02  0.38681852099E+02  0.00000000000E+00 0.  1.
          1   -1    0    0  501    0  0.00000000000E+00 -0.00000000000E+00 -0.50292825420E+03  0.50292825420E+03  0.00000000000E+00 0. -1.
         23    2    1    2    0    0  0.22634700578E+02 -0.36750949874E+02 -0.27552696626E+03  0.29605449975E+03  0.99348858570E+02 0.  0.
          5    1    1    2  502    0  0.14570201510E+01  0.79542641022E+02 -0.17806606395E+03  0.19508656484E+03  0.47000000000E+01 0. -1.
         -5    1    1    2    0  502 -0.24091720729E+02 -0.42791691147E+02 -0.10653371891E+02  0.50469041715E+02  0.47000000000E+01 0.  1.
          5    1    3    3  503    0  0.47449655425E+02  0.79879461954E+01 -0.76442347490E+02  0.90447772633E+02  0.47000000000E+01 0. -1.
         -5    1    3    3    0  503 -0.24814954846E+02 -0.44738896070E+02 -0.19908461877E+03  0.20560672712E+03  0.47000000000E+01 0.  1.
<mgrwt>
<rscale>  0 0.14316043E+03</rscale>
<asrwt>0</asrwt>
<pdfrwt beam="1">  1        1 0.77373570E-01 0.15710675E+03</pdfrwt>
<pdfrwt beam="2">  1       -1 0.59510548E-02 0.15710675E+03</pdfrwt>
<totfact> 0.58749089E+03</totfact>
</mgrwt>
</event>
<event>
 8    1  0.2964543E-004  0.1163752E+03  0.7546771E-02  0.1249348E+00
          1   -1    0    0  501    0  0.00000000000E+00  0.00000000000E+00  0.19482454910E+03  0.19482454910E+03  0.00000000000E+00 0. -1.
         -1   -1    0    0    0  501 -0.00000000000E+00 -0.00000000000E+00 -0.74465649886E+02  0.74465649886E+02  0.00000000000E+00 0.  1.
         23    2    1    2    0    0 -0.43516098725E+02  0.58358629714E+02  0.24665260488E+02  0.11862344846E+03  0.90353566282E+02 0.  0.
         23    2    1    2    0    0  0.43516098725E+02 -0.58358629714E+02  0.95693638724E+02  0.15066675052E+03  0.90795466352E+02 0.  0.
          5    1    4    4  502    0 -0.20472709217E+02 -0.42263473912E+02  0.23405349321E+02  0.52680484305E+02  0.47000000000E+01 0. -1.
         -5    1    3    3    0  503 -0.66281426645E+02  0.40923336417E+02 -0.35522959048E+01  0.78119496848E+02  0.47000000000E+01 0.  1.
          5    1    3    3  503    0  0.22765327920E+02  0.17435293297E+02  0.28217556392E+02  0.40503951615E+02  0.47000000000E+01 0. -1.
         -5    1    4    4    0  502  0.63988807943E+02 -0.16095155802E+02  0.72288289403E+02  0.97986266217E+02  0.47000000000E+01 0.  1.
<mgrwt>
<rscale>  0 0.11628904E+03</rscale>
<asrwt>0</asrwt>
<pdfrwt beam="1">  1        1 0.29973007E-01 0.11637524E+03</pdfrwt>
<pdfrwt beam="2">  1       -1 0.11456254E-01 0.11637524E+03</pdfrwt>
<totfact> 0.70153846E+03</totfact>
</mgrwt>
</event>
<event>
 8    1  0.2964543E-004  0.1170831E+03  0.7546771E-02  0.1248800E+00
         -2   -1    0    0    0  501 -0.00000000000E+00  0.00000000000E+00  0.67315681243E+02  0.67315681243E+02  0.00000000000E+00 0.  1.
          2   -1    0    0  501    0  0.00000000000E+00 -0.00000000000E+00 -0.20075070378E+03  0.20075070378E+03  0.00000000000E+00 0. -1.
         23    2    1    2    0    0  0.28852915258E+02 -0.64536106205E+02 -0.73085449653E+02  0.13802152951E+03  0.93333059169E+02 0.  0.
         23    2    1    2    0    0 -0.28852915258E+02  0.64536106205E+02 -0.60349572888E+02  0.13004485552E+03  0.90951601283E+02 0.  0.
          5    1    4    4  502    0 -0.38576436391E+02  0.36856512551E+02 -0.78645821362E+02  0.95151453902E+02  0.47000000000E+01 0. -1.
         -5    1    3    3    0  503  0.54640835226E+02 -0.97313213813E+01 -0.42134049233E+02  0.69840443833E+02  0.47000000000E+01 0.  1.
          5    1    3    3  503    0 -0.25787919969E+02 -0.54804784824E+02 -0.30951400420E+02  0.68181085675E+02  0.47000000000E+01 0. -1.
         -5    1    4    4    0  502  0.97235211332E+01  0.27679593654E+02  0.18296248474E+02  0.34893401616E+02  0.47000000000E+01 0.  1.
<mgrwt>
<rscale>  0 0.11660789E+03</rscale>
<asrwt>0</asrwt>
<pdfrwt beam="1">  1        2 0.30884723E-01 0.11708313E+03</pdfrwt>
<pdfrwt beam="2">  1       -2 0.10356259E-01 0.11708313E+03</pdfrwt>
<totfact> 0.99274677E+03</totfact>
</mgrwt>
</event>
<event>
 8    1  0.2964543E-004  0.1604521E+03  0.7546771E-02  0.1188296E+00
          1   -1    0    0  501    0  0.00000000000E+00  0.00000000000E+00  0.13443211755E+04  0.13443211755E+04  0.00000000000E+00 0. -1.
         -1   -1    0    0    0  501 -0.00000000000E+00 -0.00000000000E+00 -0.19877426396E+02  0.19877426396E+02  0.00000000000E+00 0.  1.
         23    2    1    2    0    0 -0.86415492192E+02 -0.10042383641E+03  0.52850747350E+03  0.55232691385E+03  0.90511247986E+02 0.  0.
         23    2    1    2    0    0  0.86415492192E+02  0.10042383641E+03  0.79593627561E+03  0.81187168805E+03  0.89824822926E+02 0.  0.
          5    1    3    3  502    0 -0.73481236692E+02 -0.20448257876E+02  0.30869323459E+03  0.31801136218E+03  0.47000000000E+01 0. -1.
         -5    1    3    3    0  502 -0.12934255500E+02 -0.79975578534E+02  0.21981423891E+03  0.23431555167E+03  0.47000000000E+01 0.  1.
          5    1    4    4  503    0 -0.51718739676E+01  0.35661257935E+02  0.89932961198E+02  0.96997428356E+02  0.47000000000E+01 0. -1.
         -5    1    4    4    0  503  0.91587366159E+02  0.64762578475E+02  0.70600331441E+03  0.71487425969E+03  0.47000000000E+01 0.  1.
<mgrwt>
<rscale>  0 0.16035544E+03</rscale>
<asrwt>0</asrwt>
<pdfrwt beam="1">  1        1 0.20681857E+00 0.16045208E+03</pdfrwt>
<pdfrwt beam="2">  1       -1 0.30580666E-02 0.16045208E+03</pdfrwt>
<totfact> 0.33106001E+03</totfact>
</mgrwt>
</event>
<event>
 8    1  0.2964543E-004  0.9725375E+02  0.7546771E-02  0.1287888E+00
          1   -1    0    0  501    0  0.00000000000E+00  0.00000000000E+00  0.36574984481E+03  0.36574984481E+03  0.00000000000E+00 0. -1.
         -1   -1    0    0    0  501 -0.00000000000E+00 -0.00000000000E+00 -0.51520830997E+02  0.51520830997E+02  0.00000000000E+00 0.  1.
         23    2    1    2    0    0  0.64314903722E+01 -0.20192538898E+02  0.63421948709E+01  0.94388986198E+02  0.91760310506E+02 0.  0.
         23    2    1    2    0    0 -0.64314903722E+01  0.20192538898E+02  0.30788681894E+03  0.32288168960E+03  0.94916750422E+02 0.  0.
          5    1    3    3  502    0 -0.30243085359E+02  0.17453096914E+02  0.19135384339E+02  0.40093736889E+02  0.47000000000E+01 0. -1.
         -5    1    3    3    0  502  0.36674575731E+02 -0.37645635812E+02 -0.12793189468E+02  0.54295249309E+02  0.47000000000E+01 0.  1.
          5    1    4    4  503    0 -0.63889728478E+01 -0.27159603761E+02  0.22909561766E+03  0.23083620834E+03  0.47000000000E+01 0. -1.
         -5    1    4    4    0  503 -0.42517524376E-01  0.47352142659E+02  0.78791201278E+02  0.92045481263E+02  0.47000000000E+01 0.  1.
<mgrwt>
<rscale>  0 0.96474926E+02</rscale>
<asrwt>0</asrwt>
<pdfrwt beam="1">  1        1 0.56269205E-01 0.97253752E+02</pdfrwt>
<pdfrwt beam="2">  1       -1 0.79262819E-02 0.97253752E+02</pdfrwt>
<totfact> 0.55734739E+03</totfact>
</mgrwt>
</event>
<event>
 8    1  0.2964543E-004  0.1212699E+03  0.7546771E-02  0.1242840E+00
          1   -1    0    0  501    0  0.00000000000E+00  0.00000000000E+00  0.10398197445E+04  0.10398197445E+04  0.00000000000E+00 0. -1.
         -1   -1    0    0    0  501 -0.00000000000E+00 -0.00000000000E+00 -0.24547792078E+02  0.24547792078E+02  0.00000000000E+00 0.  1.
         23    2    1    2    0    0  0.54830480466E+02 -0.50044137614E+02  0.14764005351E+03  0.18830161891E+03  0.90272459733E+02 0.  0.
         23    2    1    2    0    0 -0.54830480466E+02  0.50044137614E+02  0.86763189889E+03  0.87606591765E+03  0.95893601403E+02 0.  0.
          5    1    4    4  502    0 -0.78102490856E+02  0.22548545828E+02  0.68765723020E+03  0.69246154568E+03  0.47000000000E+01 0. -1.
         -5    1    3    3    0  503 -0.90492491053E+00 -0.42173207527E+02  0.16543046798E+02  0.45553931988E+02  0.47000000000E+01 0.  1.
          5    1    3    3  503    0  0.55735405377E+02 -0.78709300866E+01  0.13109700671E+03  0.14274768692E+03  0.47000000000E+01 0. -1.
         -5    1    4    4    0  502  0.23272010390E+02  0.27495591785E+02  0.17997466869E+03  0.18360437197E+03  0.47000000000E+01 0.  1.
<mgrwt>
<rscale>  0 0.12015606E+03</rscale>
<asrwt>0</asrwt>
<pdfrwt beam="1">  1        1 0.15997223E+00 0.12126986E+03</pdfrwt>
<pdfrwt beam="2">  1       -1 0.37765842E-02 0.12126986E+03</pdfrwt>
<totfact> 0.39098183E+03</totfact>
</mgrwt>
</event>
<event>
 7    1  0.2964543E-004  0.1562148E+03  0.7546771E-02  0.1213470E+00
         -1   -1    0    0    0  501 -0.00000000000E+00  0.00000000000E+00  0.33761637037E+02  0.33761637037E+02  0.00000000000E+00 0.  1.
          1   -1    0    0  501    0  0.00000000000E+00 -0.00000000000E+00 -0.56175395177E+03  0.56175395177E+03  0.00000000000E+00 0. -1.
         23    2    1    2    0    0 -0.46989068380E+02  0.83440506958E+01 -0.10847014018E+03  0.14785287475E+03  0.88414396643E+02 0.  0.
          5    1    1    2  502    0  0.16560917396E+02 -0.75688616728E+02 -0.16083858741E+03  0.17858939466E+03  0.47000000000E+01 0. -1.
         -5    1    1    2    0  502  0.30428150984E+02  0.67344566032E+02 -0.25868358715E+03  0.26907331939E+03  0.47000000000E+01 0.  1.
          5    1    3    3  503    0 -0.46213688023E+02 -0.23872973429E+02 -0.10207956057E+03  0.11466451285E+03  0.47000000000E+01 0. -1.
         -5    1    3    3    0  503 -0.77538035706E+00  0.32217024125E+02 -0.63905796076E+01  0.33188361904E+02  0.47000000000E+01 0.  1.
<mgrwt>
<rscale>  0 0.13989533E+03</rscale>
<asrwt>0</asrwt>
<pdfrwt beam="1">  1        1 0.86423677E-01 0.15621476E+03</pdfrwt>
<pdfrwt beam="2">  1       -1 0.51940985E-02 0.15621476E+03</pdfrwt>
<totfact> 0.62106761E+03</totfact>
</mgrwt>
</event>
<event>
 8    1  0.2964543E-004  0.1016767E+03  0.7546771E-02  0.1277266E+00
          1   -1    0    0  501    0  0.00000000000E+00  0.00000000000E+00  0.15649661886E+03  0.15649661886E+03  0.00000000000E+00 0. -1.
         -1   -1    0    0    0  501 -0.00000000000E+00 -0.00000000000E+00 -0.67418172471E+02  0.67418172471E+02  0.00000000000E+00 0.  1.
         23    2    1    2    0    0  0.18210907636E+02  0.38356101494E+02  0.25775901528E+02  0.10489300971E+03  0.92386788602E+02 0.  0.
         23    2    1    2    0    0 -0.18210907636E+02 -0.38356101494E+02  0.63302544858E+02  0.11902178161E+03  0.91411950173E+02 0.  0.
          5    1    3    3  502    0  0.70438673305E+01 -0.21139231119E+02  0.36710367612E+02  0.43199817702E+02  0.47000000000E+01 0. -1.
         -5    1    3    3    0  502  0.11167040306E+02  0.59495332613E+02 -0.10934466084E+02  0.61693192011E+02  0.47000000000E+01 0.  1.
          5    1    4    4  503    0 -0.43006265132E+02 -0.46084473010E+01  0.63386784159E+02  0.76881408892E+02  0.47000000000E+01 0. -1.
         -5    1    4    4    0  503  0.24795357496E+02 -0.33747654193E+02 -0.84239301537E-01  0.42140372722E+02  0.47000000000E+01 0.  1.
<mgrwt>
<rscale>  0 0.10145471E+03</rscale>
<asrwt>0</asrwt>
<pdfrwt beam="1">  1        1 0.24076403E-01 0.10167668E+03</pdfrwt>
<pdfrwt beam="2">  1       -1 0.10372027E-01 0.10167668E+03</pdfrwt>
<totfact> 0.10599277E+04</totfact>
</mgrwt>
</event>
<event>
 8    1  0.2964543E-004  0.1006041E+03  0.7546771E-02  0.1285778E+00
         -1   -1    0    0    0  501 -0.00000000000E+00  0.00000000000E+00  0.27363722872E+03  0.27363722872E+03  0.00000000000E+00 0.  1.
          1   -1    0    0  501    0  0.00000000000E+00 -0.00000000000E+00 -0.33095528993E+02  0.33095528993E+02  0.00000000000E+00 0. -1.
         23    2    1    2    0    0  0.44499421487E+02 -0.19069157695E+01  0.11069680746E+03  0.14958263888E+03  0.90207249328E+02 0.  0.
         23    2    1    2    0    0 -0.44499421487E+02  0.19069157695E+01  0.12984489226E+03  0.15715011883E+03  0.76502476837E+02 0.  0.
          5    1    3    3  502    0  0.61272375846E+01 -0.35741469792E+02  0.84158203983E+02  0.91758863338E+02  0.47000000000E+01 0. -1.
         -5    1    4    4    0  503 -0.24594707033E+02  0.18529688472E+02  0.12685744774E+03  0.13062599671E+03  0.47000000000E+01 0.  1.
          5    1    4    4  503    0 -0.19904714454E+02 -0.16622772702E+02  0.29874445243E+01  0.26524122126E+02  0.47000000000E+01 0. -1.
         -5    1    3    3    0  502  0.38372183902E+02  0.33834554022E+02  0.26538603481E+02  0.57823775543E+02  0.47000000000E+01 0.  1.
<mgrwt>
<rscale>  0 0.97437636E+02</rscale>
<asrwt>0</asrwt>
<pdfrwt beam="1">  1        1 0.50916200E-02 0.10060409E+03</pdfrwt>
<pdfrwt beam="2">  1       -1 0.42098034E-01 0.10060409E+03</pdfrwt>
<totfact> 0.84024555E+03</totfact>
</mgrwt>
</event>
<event>
 8    1  0.2964543E-004  0.1558840E+03  0.7546771E-02  0.1194217E+00
         -1   -1    0    0    0  501 -0.00000000000E+00  0.00000000000E+00  0.51360725132E+02  0.51360725132E+02  0.00000000000E+00 0.  1.
          1   -1    0    0  501    0  0.00000000000E+00 -0.00000000000E+00 -0.64306426407E+03  0.64306426407E+03  0.00000000000E+00 0. -1.
         23    2    1    2    0    0  0.10561832141E+03 -0.70893566868E+02 -0.48042055349E+03  0.50507793163E+03  0.90103724476E+02 0.  0.
         23    2    1    2    0    0 -0.10561832141E+03  0.70893566868E+02 -0.11128298545E+03  0.18934705757E+03  0.85365553473E+02 0.  0.
          5    1    3    3  502    0  0.63530611413E+02 -0.63691750123E+01 -0.32845314839E+03  0.33463452551E+03  0.47000000000E+01 0. -1.
         -5    1    3    3    0  502  0.42087709998E+02 -0.64524391856E+02 -0.15196740511E+03  0.17044340613E+03  0.47000000000E+01 0.  1.
          5    1    4    4  503    0 -0.80707038676E+02  0.87651594925E+02 -0.10370058402E+03  0.15802635638E+03  0.47000000000E+01 0. -1.
         -5    1    4    4    0  503 -0.24911282734E+02 -0.16758028057E+02 -0.75824014345E+01  0.31320701195E+02  0.47000000000E+01 0.  1.
<mgrwt>
<rscale>  0 0.15520708E+03</rscale>
<asrwt>0</asrwt>
<pdfrwt beam="1">  1        1 0.98932962E-01 0.15588396E+03</pdfrwt>
<pdfrwt beam="2">  1       -1 0.79016502E-02 0.15588396E+03</pdfrwt>
<totfact> 0.27512730E+03</totfact>
</mgrwt>
</event>
<event>
 8    1  0.2964543E-004  0.1007811E+03  0.7546771E-02  0.1279376E+00
         -2   -1    0    0    0  501 -0.00000000000E+00  0.00000000000E+00  0.37060008257E+02  0.37060008257E+02  0.00000000000E+00 0.  1.
          2   -1    0    0  501    0  0.00000000000E+00 -0.00000000000E+00 -0.29472681998E+03  0.29472681998E+03  0.00000000000E+00 0. -1.
         23    2    1    2    0    0  0.43390513261E+02  0.89074944354E+01 -0.17571655852E+03  0.20189198547E+03  0.89005532190E+02 0.  0.
         23    2    1    2    0    0 -0.43390513261E+02 -0.89074944354E+01 -0.81950253202E+02  0.12989484277E+03  0.90524836810E+02 0.  0.
          5    1    3    3  502    0 -0.10161180648E+02 -0.23677680213E+02 -0.10054354202E+03  0.10389887379E+03  0.47000000000E+01 0. -1.
         -5    1    3    3    0  502  0.53551693909E+02  0.32585174648E+02 -0.75173016501E+02  0.97993111683E+02  0.47000000000E+01 0.  1.
          5    1    4    4  503    0  0.90938659268E+01 -0.34605589116E+02 -0.10731917340E+02  0.37649823975E+02  0.47000000000E+01 0. -1.
         -5    1    4    4    0  503 -0.52484379188E+02  0.25698094680E+02 -0.71218335863E+02  0.92245018792E+02  0.47000000000E+01 0.  1.
<mgrwt>
<rscale>  0 0.10043873E+03</rscale>
<asrwt>0</asrwt>
<pdfrwt beam="1">  1        2 0.45342590E-01 0.10078108E+03</pdfrwt>
<pdfrwt beam="2">  1       -2 0.57015394E-02 0.10078108E+03</pdfrwt>
<totfact> 0.16276003E+04</totfact>
</mgrwt>
</event>
<event>
 8    1  0.2964543E-004  0.9445126E+02  0.7546771E-02  0.1293009E+00
          1   -1    0    0  501    0  0.00000000000E+00  0.00000000000E+00  0.93184487900E+03  0.93184487900E+03  0.00000000000E+00 0. -1.
         -1   -1    0    0    0  501 -0.00000000000E+00 -0.00000000000E+00 -0.12484656799E+02  0.12484656799E+02  0.00000000000E+00 0.  1.
         23    2    1    2    0    0 -0.25554083457E+02 -0.10526189479E+02  0.22569143395E+03  0.24425994725E+03  0.89232766552E+02 0.  0.
         23    2    1    2    0    0  0.25554083457E+02  0.10526189479E+02  0.69366878825E+03  0.70006958855E+03  0.90317380213E+02 0.  0.
          5    1    4    4  502    0  0.53102904953E+02 -0.15495183151E+02  0.45321703110E+03  0.45660462820E+03  0.47000000000E+01 0. -1.
         -5    1    3    3    0  503 -0.40539484471E+02 -0.27884683494E+02  0.63908615469E+02  0.80792366631E+02  0.47000000000E+01 0.  1.
          5    1    3    3  503    0  0.14985401014E+02  0.17358494014E+02  0.16178281848E+03  0.16346758062E+03  0.47000000000E+01 0. -1.
         -5    1    4    4    0  502 -0.27548821496E+02  0.26021372630E+02  0.24045175715E+03  0.24346496035E+03  0.47000000000E+01 0.  1.
<mgrwt>
<rscale>  0 0.94191038E+02</rscale>
<asrwt>0</asrwt>
<pdfrwt beam="1">  1        1 0.14336070E+00 0.94451263E+02</pdfrwt>
<pdfrwt beam="2">  1       -1 0.19207172E-02 0.94451263E+02</pdfrwt>
<totfact> 0.12271575E+04</totfact>
</mgrwt>
</event>
<event>
 8    1  0.2964543E-004  0.9437948E+02  0.7546771E-02  0.1294093E+00
          2   -1    0    0  501    0  0.00000000000E+00  0.00000000000E+00  0.49444798171E+03  0.49444798171E+03  0.00000000000E+00 0. -1.
         -2   -1    0    0    0  501 -0.00000000000E+00 -0.00000000000E+00 -0.25181195526E+02  0.25181195526E+02  0.00000000000E+00 0.  1.
         23    2    1    2    0    0  0.55381397905E+01 -0.19893167224E+01  0.89012250243E+02  0.12783714318E+03  0.91567057994E+02 0.  0.
         23    2    1    2    0    0 -0.55381397905E+01  0.19893167224E+01  0.38025453595E+03  0.39179203406E+03  0.94195846364E+02 0.  0.
          5    1    3    3  502    0  0.32304428746E+02  0.30341523275E+02  0.24866207440E+02  0.51035305658E+02  0.47000000000E+01 0. -1.
         -5    1    3    3    0  502 -0.26766288955E+02 -0.32330839997E+02  0.64146042803E+02  0.76801837521E+02  0.47000000000E+01 0.  1.
          5    1    4    4  503    0  0.11294838277E+02  0.42159540137E+02  0.26265190892E+03  0.26629516604E+03  0.47000000000E+01 0. -1.
         -5    1    4    4    0  503 -0.16832978067E+02 -0.40170223414E+02  0.11760262702E+03  0.12549686802E+03  0.47000000000E+01 0.  1.
<mgrwt>
<rscale>  0 0.93716646E+02</rscale>
<asrwt>0</asrwt>
<pdfrwt beam="1">  1        2 0.76068913E-01 0.94379478E+02</pdfrwt>
<pdfrwt beam="2">  1       -2 0.38740305E-02 0.94379478E+02</pdfrwt>
<totfact> 0.16613221E+04</totfact>
</mgrwt>
</event>
<event>
 8    1  0.2964543E-004  0.9152645E+02  0.7546771E-02  0.1300187E+00
         -1   -1    0    0    0  501 -0.00000000000E+00  0.00000000000E+00  0.52140726199E+03  0.52140726199E+03  0.00000000000E+00 0.  1.
          1   -1    0    0  501    0  0.00000000000E+00 -0.00000000000E+00 -0.15860754318E+02  0.15860754318E+02  0.00000000000E+00 0. -1.
         23    2    1    2    0    0  0.27214277606E+01 -0.15245394050E+02  0.27459451653E+03  0.28944643515E+03  0.90206774156E+02 0.  0.
         23    2    1    2    0    0 -0.27214277606E+01  0.15245394050E+02  0.23095199114E+03  0.24782158116E+03  0.88526186334E+02 0.  0.
          5    1    4    4  502    0  0.19947181068E+02 -0.15446416374E+02  0.17802716312E+02  0.31233131758E+02  0.47000000000E+01 0. -1.
         -5    1    4    4    0  502 -0.22668608828E+02  0.30691810424E+02  0.21314927483E+03  0.21658844940E+03  0.47000000000E+01 0.  1.
          5    1    3    3  503    0 -0.34361843161E+02 -0.33878355061E+02  0.17125940240E+03  0.17798975284E+03  0.47000000000E+01 0. -1.
         -5    1    3    3    0  503  0.37083270922E+02  0.18632961010E+02  0.10333511413E+03  0.11145668230E+03  0.47000000000E+01 0.  1.
<mgrwt>
<rscale>  0 0.91109631E+02</rscale>
<asrwt>0</asrwt>
<pdfrwt beam="1">  1        1 0.24401164E-02 0.91526446E+02</pdfrwt>
<pdfrwt beam="2">  1       -1 0.80216489E-01 0.91526446E+02</pdfrwt>
<totfact> 0.67866835E+03</totfact>
</mgrwt>
</event>
<event>
 8    1  0.2964543E-004  0.1011844E+03  0.7546771E-02  0.1278430E+00
          1   -1    0    0  501    0  0.00000000000E+00  0.00000000000E+00  0.12915153521E+03  0.12915153521E+03  0.00000000000E+00 0. -1.
         -1   -1    0    0    0  501 -0.00000000000E+00 -0.00000000000E+00 -0.93249900649E+02  0.93249900649E+02  0.00000000000E+00 0.  1.
         23    2    1    2    0    0  0.26782930621E+02  0.30709805381E+02 -0.26563253348E+02  0.10348907496E+03  0.91345304691E+02 0.  0.
         23    2    1    2    0    0 -0.26782930621E+02 -0.30709805381E+02  0.62464887908E+02  0.11891236089E+03  0.92616790232E+02 0.  0.
          5    1    3    3  502    0  0.27497249129E+02  0.62148794276E+02 -0.20288944662E+02  0.71079551315E+02  0.47000000000E+01 0. -1.
         -5    1    4    4    0  503  0.33325117906E+02 -0.21969688986E+02  0.27027567559E+02  0.48433564041E+02  0.47000000000E+01 0.  1.
          5    1    4    4  503    0 -0.60108048528E+02 -0.87401163955E+01  0.35437320350E+02  0.70478796854E+02  0.47000000000E+01 0. -1.
         -5    1    3    3    0  502 -0.71431850768E+00 -0.31438988895E+02 -0.62743086854E+01  0.32409523649E+02  0.47000000000E+01 0.  1.
<mgrwt>
<rscale>  0 0.10089253E+03</rscale>
<asrwt>0</asrwt>
<pdfrwt beam="1">  1        1 0.19869467E-01 0.10118442E+03</pdfrwt>
<pdfrwt beam="2">  1       -1 0.14346139E-01 0.10118442E+03</pdfrwt>
<totfact> 0.81971222E+03</totfact>
</mgrwt>
</event>
<event>
 8    1  0.2964543E-004  0.1795799E+03  0.7546771E-02  0.1168922E+00
          2   -1    0    0  501    0  0.00000000000E+00  0.00000000000E+00  0.86268732460E+02  0.86268732460E+02  0.00000000000E+00 0. -1.
         -2   -1    0    0    0  501 -0.00000000000E+00 -0.00000000000E+00 -0.78130293643E+03  0.78130293643E+03  0.00000000000E+00 0.  1.
         23    2    1    2    0    0  0.11541537411E+02  0.15024536115E+03 -0.66175642211E+03  0.68493443933E+03  0.92232035339E+02 0.  0.
         23    2    1    2    0    0 -0.11541537411E+02 -0.15024536115E+03 -0.33277781864E+02  0.18263722956E+03  0.97683525859E+02 0.  0.
          5    1    3    3  502    0  0.44017028292E+02  0.34227910724E+02 -0.22304195032E+03  0.22995401769E+03  0.47000000000E+01 0. -1.
         -5    1    3    3    0  502 -0.32475490881E+02  0.11601745043E+03 -0.43871447179E+03  0.45498042164E+03  0.47000000000E+01 0.  1.
          5    1    4    4  503    0 -0.26331406383E+01 -0.13067765475E+03  0.12959855763E+02  0.13142918527E+03  0.47000000000E+01 0. -1.
         -5    1    4    4    0  503 -0.89083967731E+01 -0.19567706404E+02 -0.46237637627E+02  0.51208044293E+02  0.47000000000E+01 0.  1.
<mgrwt>
<rscale>  0 0.17884893E+03</rscale>
<asrwt>0</asrwt>
<pdfrwt beam="1">  1        2 0.13272112E-01 0.17957992E+03</pdfrwt>
<pdfrwt beam="2">  1       -2 0.12020046E+00 0.17957992E+03</pdfrwt>
<totfact> 0.24998626E+02</totfact>
</mgrwt>
</event>
<event>
 8    1  0.2964543E-004  0.9936999E+02  0.7546771E-02  0.1282611E+00
          2   -1    0    0  501    0  0.00000000000E+00  0.00000000000E+00  0.36684108128E+03  0.36684108128E+03  0.00000000000E+00 0. -1.
         -2   -1    0    0    0  501 -0.00000000000E+00 -0.00000000000E+00 -0.26812727218E+02  0.26812727218E+02  0.00000000000E+00 0.  1.
         23    2    1    2    0    0  0.13672978835E+01 -0.39974452548E+02  0.19222369028E+03  0.21555098933E+03  0.88951984434E+02 0.  0.
         23    2    1    2    0    0 -0.13672978835E+01  0.39974452548E+02  0.14780466378E+03  0.17810281917E+03  0.90964659076E+02 0.  0.
          5    1    4    4  502    0 -0.11918137183E+02  0.63792491790E+02  0.68409852909E+02  0.94411450459E+02  0.47000000000E+01 0. -1.
         -5    1    3    3    0  503  0.15345312947E+02 -0.65109109814E+02  0.11661451089E+03  0.13452029201E+03  0.47000000000E+01 0.  1.
          5    1    3    3  503    0 -0.13978015063E+02  0.25134657265E+02  0.75609179384E+02  0.81030697319E+02  0.47000000000E+01 0. -1.
         -5    1    4    4    0  502  0.10550839300E+02 -0.23818039242E+02  0.79394810872E+02  0.83691368711E+02  0.47000000000E+01 0.  1.
<mgrwt>
<rscale>  0 0.98907001E+02</rscale>
<asrwt>0</asrwt>
<pdfrwt beam="1">  1        2 0.56437086E-01 0.99369993E+02</pdfrwt>
<pdfrwt beam="2">  1       -2 0.41250352E-02 0.99369993E+02</pdfrwt>
<totfact> 0.20905363E+04</totfact>
</mgrwt>
</event>
<event>
 8    1  0.2964543E-004  0.2662042E+03  0.7546771E-02  0.1105124E+00
          1   -1    0    0  501    0  0.00000000000E+00  0.00000000000E+00  0.13029329910E+04  0.13029329910E+04  0.00000000000E+00 0. -1.
         -1   -1    0    0    0  501 -0.00000000000E+00 -0.00000000000E+00 -0.31498829703E+03  0.31498829703E+03  0.00000000000E+00 0.  1.
         23    2    1    2    0    0  0.80738539675E+01  0.23788767041E+03 -0.24323099699E+03  0.36059117821E+03  0.11920129636E+03 0.  0.
         23    2    1    2    0    0 -0.80738539675E+01 -0.23788767041E+03  0.12311756910E+04  0.12573301099E+04  0.91813355251E+02 0.  0.
          5    1    3    3  502    0 -0.25337043775E+02  0.12321970538E+03 -0.54462036263E+02  0.13716145586E+03  0.47000000000E+01 0. -1.
         -5    1    4    4    0  503 -0.25073398765E+02 -0.11442228189E+02  0.14091640110E+03  0.14366322428E+03  0.47000000000E+01 0.  1.
          5    1    4    4  503    0  0.16999544798E+02 -0.22644544222E+03  0.10902592899E+04  0.11136668856E+04  0.47000000000E+01 0. -1.
         -5    1    3    3    0  502  0.33410897742E+02  0.11466796503E+03 -0.18876896073E+03  0.22342972234E+03  0.47000000000E+01 0.  1.
<mgrwt>
<rscale>  0 0.26338841E+03</rscale>
<asrwt>0</asrwt>
<pdfrwt beam="1">  1        1 0.20045123E+00 0.26620421E+03</pdfrwt>
<pdfrwt beam="2">  1       -1 0.48459739E-01 0.26620421E+03</pdfrwt>
<totfact> 0.43028261E+01</totfact>
</mgrwt>
</event>
<event>
 8    1  0.2964543E-004  0.1004003E+03  0.7546771E-02  0.1283747E+00
          1   -1    0    0  501    0  0.00000000000E+00  0.00000000000E+00  0.96914417643E+02  0.96914417643E+02  0.00000000000E+00 0. -1.
         -1   -1    0    0    0  501 -0.00000000000E+00 -0.00000000000E+00 -0.15685639473E+03  0.15685639473E+03  0.00000000000E+00 0.  1.
         23    2    1    2    0    0 -0.12249494849E+02  0.25296892428E+02  0.48252949050E+02  0.11139379176E+03  0.96385926666E+02 0.  0.
         23    2    1    2    0    0  0.12249494849E+02 -0.25296892428E+02 -0.10819492613E+03  0.14237702061E+03  0.88176476836E+02 0.  0.
          5    1    3    3  502    0 -0.28122960528E+02 -0.12372048942E+02  0.60878746044E+02  0.68354079788E+02  0.47000000000E+01 0. -1.
         -5    1    3    3    0  502  0.15873465679E+02  0.37668941369E+02 -0.12625796994E+02  0.43039711968E+02  0.47000000000E+01 0. -1.
          5    1    4    4  503    0 -0.33734740081E+02 -0.24274642790E+02 -0.29772496654E+02  0.51339872691E+02  0.47000000000E+01 0.  1.
         -5    1    4    4    0  503  0.45984234930E+02 -0.10222496374E+01 -0.78422429479E+02  0.91037147922E+02  0.47000000000E+01 0. -1.
<mgrwt>
<rscale>  0 0.98376825E+02</rscale>
<asrwt>0</asrwt>
<pdfrwt beam="1">  1        1 0.14909910E-01 0.10040035E+03</pdfrwt>
<pdfrwt beam="2">  1       -1 0.24131753E-01 0.10040035E+03</pdfrwt>
<totfact> 0.51795456E+03</totfact>
</mgrwt>
</event>
<event>
 8    1  0.2964543E-004  0.9557651E+02  0.7546771E-02  0.1292263E+00
          1   -1    0    0  501    0  0.00000000000E+00  0.00000000000E+00  0.45333996453E+02  0.45333996453E+02  0.00000000000E+00 0. -1.
         -1   -1    0    0    0  501 -0.00000000000E+00 -0.00000000000E+00 -0.19286979259E+03  0.19286979259E+03  0.00000000000E+00 0.  1.
         23    2    1    2    0    0  0.88374952628E+01  0.17777891742E+02 -0.70335178748E+02  0.11534287130E+03  0.89234443084E+02 0.  0.
         23    2    1    2    0    0 -0.88374952628E+01 -0.17777891742E+02 -0.77200617390E+02  0.12286091775E+03  0.93491791225E+02 0.  0.
          5    1    4    4  502    0 -0.12474713089E+02  0.24458236079E+02  0.67812232386E+01  0.28668776872E+02  0.47000000000E+01 0. -1.
         -5    1    3    3    0  503  0.36193423159E+02  0.41233801118E+02 -0.41541022894E+02  0.68977799455E+02  0.47000000000E+01 0.  1.
          5    1    3    3  503    0 -0.27355927896E+02 -0.23455909376E+02 -0.28794155854E+02  0.46365071843E+02  0.47000000000E+01 0. -1.
         -5    1    4    4    0  502  0.36372178260E+01 -0.42236127821E+02 -0.83981840629E+02  0.94192140873E+02  0.47000000000E+01 0.  1.
<mgrwt>
<rscale>  0 0.94519039E+02</rscale>
<asrwt>0</asrwt>
<pdfrwt beam="1">  1        1 0.69744610E-02 0.95576513E+02</pdfrwt>
<pdfrwt beam="2">  1       -1 0.29672276E-01 0.95576513E+02</pdfrwt>
<totfact> 0.99447238E+03</totfact>
</mgrwt>
</event>
<event>
 8    1  0.2964543E-004  0.9486753E+02  0.7546771E-02  0.1292349E+00
          1   -1    0    0  501    0  0.00000000000E+00  0.00000000000E+00  0.10283916933E+03  0.10283916933E+03  0.00000000000E+00 0. -1.
         -1   -1    0    0    0  501 -0.00000000000E+00 -0.00000000000E+00 -0.98967850781E+02  0.98967850781E+02  0.00000000000E+00 0.  1.
         23    2    1    2    0    0 -0.15821217234E+02 -0.22713455098E+01  0.38328458704E+02  0.10231773218E+03  0.93511377098E+02 0.  0.
         23    2    1    2    0    0  0.15821217234E+02  0.22713455098E+01 -0.34457140152E+02  0.99489287932E+02  0.91952998758E+02 0.  0.
          5    1    3    3  502    0  0.38720440388E+02 -0.48172141781E+01  0.96671348995E+01  0.40472478963E+02  0.47000000000E+01 0. -1.
         -5    1    3    3    0  502 -0.54541657622E+02  0.25458686682E+01  0.28661323804E+02  0.61845253218E+02  0.47000000000E+01 0.  1.
          5    1    4    4  503    0  0.48340433372E+02  0.21273212898E+02 -0.89863564890E+01  0.53779100852E+02  0.47000000000E+01 0. -1.
         -5    1    4    4    0  503 -0.32519216138E+02 -0.19001867388E+02 -0.25470783663E+02  0.45710187080E+02  0.47000000000E+01 0.  1.
<mgrwt>
<rscale>  0 0.94481241E+02</rscale>
<asrwt>0</asrwt>
<pdfrwt beam="1">  1        1 0.15821411E-01 0.94867526E+02</pdfrwt>
<pdfrwt beam="2">  1       -1 0.15225823E-01 0.94867526E+02</pdfrwt>
<totfact> 0.99217634E+03</totfact>
</mgrwt>
</event>
<event>
 8    1  0.2964543E-004  0.1700310E+03  0.7546771E-02  0.1178101E+00
         -2   -1    0    0    0  501 -0.00000000000E+00  0.00000000000E+00  0.71010815936E+03  0.71010815936E+03  0.00000000000E+00 0.  1.
          2   -1    0    0  501    0  0.00000000000E+00 -0.00000000000E+00 -0.25132857809E+03  0.25132857809E+03  0.00000000000E+00 0. -1.
         23    2    1    2    0    0 -0.37617691955E+02 -0.13722648047E+03 -0.21106466530E+03  0.27034930097E+03  0.91072794543E+02 0.  0.
         23    2    1    2    0    0  0.37617691955E+02  0.13722648047E+03  0.66984424657E+03  0.69108743649E+03  0.93082396436E+02 0.  0.
          5    1    4    4  502    0 -0.30564041124E+02  0.41154015828E+02  0.23241870108E+03  0.23805116307E+03  0.47000000000E+01 0.  1.
         -5    1    3    3    0  503 -0.14416902903E+02 -0.10540238855E+03 -0.79372943060E+02  0.13281439941E+03  0.47000000000E+01 0.  1.
          5    1    3    3  503    0 -0.23200789052E+02 -0.31824091916E+02 -0.13169172224E+03  0.13753490155E+03  0.47000000000E+01 0. -1.
         -5    1    4    4    0  502  0.68181733078E+02  0.96072464638E+02  0.43742554549E+03  0.45303627342E+03  0.47000000000E+01 0. -1.
<mgrwt>
<rscale>  0 0.16975737E+03</rscale>
<asrwt>0</asrwt>
<pdfrwt beam="1">  1        2 0.38665935E-01 0.17003097E+03</pdfrwt>
<pdfrwt beam="2">  1       -2 0.10924741E+00 0.17003097E+03</pdfrwt>
<totfact> 0.94137660E+01</totfact>
</mgrwt>
</event>
<event>
 8    1  0.2964543E-004  0.1265155E+03  0.7546771E-02  0.1235899E+00
          1   -1    0    0  501    0  0.00000000000E+00  0.00000000000E+00  0.33167437231E+03  0.33167437231E+03  0.00000000000E+00 0. -1.
         -1   -1    0    0    0  501 -0.00000000000E+00 -0.00000000000E+00 -0.45266881472E+02  0.45266881472E+02  0.00000000000E+00 0.  1.
         23    2    1    2    0    0  0.36754973998E+02  0.69529350104E+02  0.14989181987E+03  0.19614724261E+03  0.99100577589E+02 0.  0.
         23    2    1    2    0    0 -0.36754973998E+02 -0.69529350104E+02  0.13651567096E+03  0.18079401117E+03  0.88683072895E+02 0.  0.
          5    1    4    4  502    0 -0.43869624365E+01 -0.66750671013E+02  0.13146748854E+03  0.14758281764E+03  0.47000000000E+01 0. -1.
         -5    1    4    4    0  502 -0.32368011561E+02 -0.27786790912E+01  0.50481824213E+01  0.33211193530E+02  0.47000000000E+01 0.  1.
          5    1    3    3  503    0  0.16644082833E+02 -0.13996422192E+02  0.86392645337E+02  0.89211571535E+02  0.47000000000E+01 0. -1.
         -5    1    3    3    0  503  0.20110891165E+02  0.83525772296E+02  0.63499174538E+02  0.10693567107E+03  0.47000000000E+01 0.  1.
<mgrwt>
<rscale>  0 0.12447073E+03</rscale>
<asrwt>0</asrwt>
<pdfrwt beam="1">  1        1 0.51026825E-01 0.12651554E+03</pdfrwt>
<pdfrwt beam="2">  1       -1 0.69641358E-02 0.12651554E+03</pdfrwt>
<totfact> 0.77728773E+03</totfact>
</mgrwt>
</event>
<event>
 8    1  0.2964543E-004  0.1740027E+03  0.7546771E-02  0.1173981E+00
          4   -1    0    0  501    0  0.00000000000E+00  0.00000000000E+00  0.16022369667E+04  0.16022369667E+04  0.00000000000E+00 0. -1.
         -4   -1    0    0    0  501 -0.00000000000E+00 -0.00000000000E+00 -0.80269712152E+02  0.80269712152E+02  0.00000000000E+00 0.  1.
         23    2    1    2    0    0  0.10173961962E+03 -0.10669246711E+03  0.24269908286E+02  0.17473538587E+03  0.90604601920E+02 0.  0.
         23    2    1    2    0    0 -0.10173961962E+03  0.10669246711E+03  0.14976973462E+04  0.15077712930E+04  0.92426717963E+02 0.  0.
          5    1    4    4  502    0 -0.11099239204E+03  0.63073463623E+02  0.11871993337E+04  0.11940527295E+04  0.47000000000E+01 0. -1.
         -5    1    4    4    0  502  0.92527724158E+01  0.43619003486E+02  0.31049801252E+03  0.31371856343E+03  0.47000000000E+01 0.  1.
          5    1    3    3  503    0  0.48880133726E+01 -0.29499480212E+02  0.39608387984E+02  0.49850039180E+02  0.47000000000E+01 0. -1.
         -5    1    3    3    0  503  0.96851606248E+02 -0.77192986897E+02 -0.15338479698E+02  0.12488534669E+03  0.47000000000E+01 0.  1.
<mgrwt>
<rscale>  0 0.17376193E+03</rscale>
<asrwt>0</asrwt>
<pdfrwt beam="1">  1        4 0.24649797E+00 0.17400268E+03</pdfrwt>
<pdfrwt beam="2">  1       -4 0.12349188E-01 0.17400268E+03</pdfrwt>
<totfact> 0.70756348E+00</totfact>
</mgrwt>
</event>
<event>
 8    1  0.2964543E-004  0.1569760E+03  0.7546771E-02  0.1192637E+00
          2   -1    0    0  501    0  0.00000000000E+00  0.00000000000E+00  0.13102303923E+04  0.13102303923E+04  0.00000000000E+00 0. -1.
         -2   -1    0    0    0  501 -0.00000000000E+00 -0.00000000000E+00 -0.22285982723E+02  0.22285982723E+02  0.00000000000E+00 0.  1.
         23    2    1    2    0    0 -0.39558903445E+02 -0.11829335020E+03  0.91747121287E+03  0.93080334968E+03  0.95305958833E+02 0.  0.
         23    2    1    2    0    0  0.39558903445E+02  0.11829335020E+03  0.37047319676E+03  0.40171302539E+03  0.92545889754E+02 0.  0.
          5    1    4    4  502    0  0.55922784255E+02  0.37687157169E+02  0.22014435900E+03  0.23028961856E+03  0.47000000000E+01 0. -1.
         -5    1    3    3    0  503 -0.67725207663E+02 -0.91657563964E+02  0.58238237211E+03  0.59344682165E+03  0.47000000000E+01 0.  1.
          5    1    3    3  503    0  0.28166304218E+02 -0.26635786237E+02  0.33508884076E+03  0.33735652803E+03  0.47000000000E+01 0. -1.
         -5    1    4    4    0  502 -0.16363880811E+02  0.80606193032E+02  0.15032883776E+03  0.17142340684E+03  0.47000000000E+01 0.  1.
<mgrwt>
<rscale>  0 0.15655923E+03</rscale>
<asrwt>0</asrwt>
<pdfrwt beam="1">  1        2 0.20157385E+00 0.15697595E+03</pdfrwt>
<pdfrwt beam="2">  1       -2 0.34286138E-02 0.15697595E+03</pdfrwt>
<totfact> 0.59118880E+03</totfact>
</mgrwt>
</event>
<event>
 8    1  0.2964543E-004  0.1594480E+03  0.7546771E-02  0.1189580E+00
          1   -1    0    0  501    0  0.00000000000E+00  0.00000000000E+00  0.26586924636E+03  0.26586924636E+03  0.00000000000E+00 0. -1.
         -1   -1    0    0    0  501 -0.00000000000E+00 -0.00000000000E+00 -0.10308704493E+03  0.10308704493E+03  0.00000000000E+00 0.  1.
         23    2    1    2    0    0  0.12407598467E+02 -0.13177246350E+03  0.29764440030E+02  0.16130904654E+03  0.87274028031E+02 0.  0.
         23    2    1    2    0    0 -0.12407598467E+02  0.13177246350E+03  0.13301776141E+03  0.20764724475E+03  0.88914131427E+02 0.  0.
          5    1    4    4  502    0  0.20215211171E+02  0.12446880880E+02 -0.22239893568E+01  0.24302587002E+02  0.47000000000E+01 0. -1.
         -5    1    4    4    0  502 -0.32622809638E+02  0.11932558262E+03  0.13524175076E+03  0.18334465775E+03  0.47000000000E+01 0.  1.
          5    1    3    3  503    0  0.38182713163E+02 -0.54949403146E+02  0.42120648082E+02  0.79206031875E+02  0.47000000000E+01 0. -1.
         -5    1    3    3    0  503 -0.25775114696E+02 -0.76823060352E+02 -0.12356208051E+02  0.82103014663E+02  0.47000000000E+01 0.  1.
<mgrwt>
<rscale>  0 0.15922029E+03</rscale>
<asrwt>0</asrwt>
<pdfrwt beam="1">  1        1 0.40902961E-01 0.15944796E+03</pdfrwt>
<pdfrwt beam="2">  1       -1 0.15859545E-01 0.15944796E+03</pdfrwt>
<totfact> 0.29301482E+03</totfact>
</mgrwt>
</event>
<event>
 8    1  0.2964543E-004  0.1080313E+03  0.7546771E-02  0.1267437E+00
          1   -1    0    0  501    0  0.00000000000E+00  0.00000000000E+00  0.19140809788E+03  0.19140809788E+03  0.00000000000E+00 0. -1.
         -1   -1    0    0    0  501 -0.00000000000E+00 -0.00000000000E+00 -0.80715682094E+02  0.80715682094E+02  0.00000000000E+00 0.  1.
         23    2    1    2    0    0 -0.56230899590E+02 -0.42587413809E+01  0.12971243897E+03  0.16880780496E+03  0.92145033746E+02 0.  0.
         23    2    1    2    0    0  0.56230899590E+02  0.42587413809E+01 -0.19020023181E+02  0.10331597502E+03  0.84453410031E+02 0.  0.
          5    1    3    3  502    0  0.22985339189E+02  0.12035202298E+02  0.24259735943E+02  0.35830108847E+02  0.47000000000E+01 0. -1.
         -5    1    4    4    0  503  0.33778195299E+02  0.10024326728E+02 -0.51842787637E+02  0.62858716452E+02  0.47000000000E+01 0.  1.
          5    1    4    4  503    0  0.22452704290E+02 -0.57655853474E+01  0.32822764456E+02  0.40457258568E+02  0.47000000000E+01 0. -1.
         -5    1    3    3    0  502 -0.79216238779E+02 -0.16293943678E+02  0.10545270303E+03  0.13297769611E+03  0.47000000000E+01 0.  1.
<mgrwt>
<rscale>  0 0.10637321E+03</rscale>
<asrwt>0</asrwt>
<pdfrwt beam="1">  1        1 0.29447400E-01 0.10803128E+03</pdfrwt>
<pdfrwt beam="2">  1       -1 0.12417797E-01 0.10803128E+03</pdfrwt>
<totfact> 0.63024960E+03</totfact>
</mgrwt>
</event>
<event>
 8    1  0.2964543E-004  0.9981533E+02  0.7546771E-02  0.1284183E+00
          2   -1    0    0  501    0  0.00000000000E+00  0.00000000000E+00  0.80378253478E+03  0.80378253478E+03  0.00000000000E+00 0. -1.
         -2   -1    0    0    0  501 -0.00000000000E+00 -0.00000000000E+00 -0.11687196825E+02  0.11687196825E+02  0.00000000000E+00 0.  1.
         23    2    1    2    0    0 -0.33912366161E+02  0.17355049832E+02  0.35045045825E+03  0.36268578758E+03  0.85288982246E+02 0.  0.
         23    2    1    2    0    0  0.33912366161E+02 -0.17355049832E+02  0.44164487970E+03  0.45278394402E+03  0.92259708770E+02 0.  0.
          5    1    3    3  502    0 -0.43399918774E+02  0.44007461707E+02  0.27664337150E+03  0.28350283002E+03  0.47000000000E+01 0. -1.
         -5    1    4    4    0  503 -0.23721003397E+02 -0.14585774003E+02  0.27346453743E+03  0.27491884992E+03  0.47000000000E+01 0.  1.
          5    1    4    4  503    0  0.57633369558E+02 -0.27692758288E+01  0.16818034226E+03  0.17786509410E+03  0.47000000000E+01 0. -1.
         -5    1    3    3    0  502  0.94875526131E+01 -0.26652411876E+02  0.73807086755E+02  0.79182957564E+02  0.47000000000E+01 0.  1.
<mgrwt>
<rscale>  0 0.98173994E+02</rscale>
<asrwt>0</asrwt>
<pdfrwt beam="1">  1        2 0.12365881E+00 0.99815330E+02</pdfrwt>
<pdfrwt beam="2">  1       -2 0.17980309E-02 0.99815330E+02</pdfrwt>
<totfact> 0.29213701E+04</totfact>
</mgrwt>
</event>
<event>
 8    1  0.2964543E-004  0.9625506E+02  0.7546771E-02  0.1288585E+00
         -1   -1    0    0    0  501 -0.00000000000E+00  0.00000000000E+00  0.59796592358E+02  0.59796592358E+02  0.00000000000E+00 0.  1.
          1   -1    0    0  501    0  0.00000000000E+00 -0.00000000000E+00 -0.23583181340E+03  0.23583181340E+03  0.00000000000E+00 0. -1.
         23    2    1    2    0    0 -0.21351406673E+02  0.19103830799E+02 -0.17502740706E+03  0.19974891501E+03  0.91892311456E+02 0.  0.
         23    2    1    2    0    0  0.21351406673E+02 -0.19103830799E+02 -0.10078139825E+01  0.95879490757E+02  0.91493290140E+02 0.  0.
          5    1    3    3  502    0 -0.38899075930E+02  0.34841432704E+02 -0.16598457709E+03  0.17406904772E+03  0.47000000000E+01 0. -1.
         -5    1    4    4    0  503  0.23313152163E+02 -0.52411473013E+02 -0.14869918049E+02  0.59444680418E+02  0.47000000000E+01 0.  1.
          5    1    4    4  503    0 -0.19617454895E+01  0.33307642215E+02  0.13862104066E+02  0.36434810339E+02  0.47000000000E+01 0. -1.
         -5    1    3    3    0  502  0.17547669256E+02 -0.15737601905E+02 -0.90428299712E+01  0.25679867288E+02  0.47000000000E+01 0.  1.
<mgrwt>
<rscale>  0 0.96159699E+02</rscale>
<asrwt>0</asrwt>
<pdfrwt beam="1">  1        1 0.36281818E-01 0.96255056E+02</pdfrwt>
<pdfrwt beam="2">  1       -1 0.91994757E-02 0.96255056E+02</pdfrwt>
<totfact> 0.76271284E+03</totfact>
</mgrwt>
</event>
<event>
 8    1  0.2964543E-004  0.1048153E+03  0.7546771E-02  0.1271619E+00
         -2   -1    0    0    0  501 -0.00000000000E+00  0.00000000000E+00  0.70539262033E+02  0.70539262033E+02  0.00000000000E+00 0.  1.
          2   -1    0    0  501    0  0.00000000000E+00 -0.00000000000E+00 -0.36910214821E+03  0.36910214821E+03  0.00000000000E+00 0. -1.
         23    2    1    2    0    0  0.50241911285E+02 -0.11767558147E+02  0.19826278352E+02  0.10444309485E+03  0.88614635777E+02 0.  0.
         23    2    1    2    0    0 -0.50241911285E+02  0.11767558147E+02 -0.31838916453E+03  0.33519831540E+03  0.91233357278E+02 0.  0.
          5    1    3    3  502    0 -0.16251372501E+02 -0.14010218579E+02  0.29783219266E+02  0.37007073414E+02  0.47000000000E+01 0. -1.
         -5    1    3    3    0  502  0.66493283786E+02  0.22426604318E+01 -0.99569409143E+01  0.67436021434E+02  0.47000000000E+01 0.  1.
          5    1    4    4  503    0 -0.41899978658E+02  0.47844619938E+02 -0.24074583836E+03  0.24904892001E+03  0.47000000000E+01 0. -1.
         -5    1    4    4    0  503 -0.83419326277E+01 -0.36077061791E+02 -0.77643326173E+02  0.86149395393E+02  0.47000000000E+01 0.  1.
<mgrwt>
<rscale>  0 0.10424282E+03</rscale>
<asrwt>0</asrwt>
<pdfrwt beam="1">  1        2 0.56784947E-01 0.10481532E+03</pdfrwt>
<pdfrwt beam="2">  1       -2 0.10852194E-01 0.10481532E+03</pdfrwt>
<totfact> 0.48047079E+03</totfact>
</mgrwt>
</event>
<event>
 8    1  0.2964543E-004  0.1166272E+03  0.7546771E-02  0.1249123E+00
          1   -1    0    0  501    0  0.00000000000E+00  0.00000000000E+00  0.10069427107E+03  0.10069427107E+03  0.00000000000E+00 0. -1.
         -1   -1    0    0    0  501 -0.00000000000E+00 -0.00000000000E+00 -0.13476381109E+03  0.13476381109E+03  0.00000000000E+00 0.  1.
         23    2    1    2    0    0 -0.65844614893E+02  0.30283618921E+02 -0.88569089414E+01  0.11613676551E+03  0.90314409602E+02 0.  0.
         23    2    1    2    0    0  0.65844614893E+02 -0.30283618921E+02 -0.25212631081E+02  0.11932131665E+03  0.91374443667E+02 0.  0.
          5    1    4    4  502    0  0.14525738413E+02 -0.55924884790E+02 -0.20808275462E+02  0.61592728003E+02  0.47000000000E+01 0. -1.
         -5    1    4    4    0  502  0.51318876480E+02  0.25641265869E+02 -0.44043556197E+01  0.57728588646E+02  0.47000000000E+01 0.  1.
          5    1    3    3  503    0  0.19633746599E+02  0.20561604344E+02  0.37599191987E+01  0.29060119943E+02  0.47000000000E+01 0. -1.
         -5    1    3    3    0  503 -0.85478361492E+02  0.97220145762E+01 -0.12616828140E+02  0.87076645567E+02  0.47000000000E+01 0.  1.
<mgrwt>
<rscale>  0 0.11641947E+03</rscale>
<asrwt>0</asrwt>
<pdfrwt beam="1">  1        1 0.15491426E-01 0.11662718E+03</pdfrwt>
<pdfrwt beam="2">  1       -1 0.20732894E-01 0.11662718E+03</pdfrwt>
<totfact> 0.63698311E+03</totfact>
</mgrwt>
</event>
<event>
 8    1  0.2964543E-004  0.1786128E+03  0.7546771E-02  0.1169189E+00
         -2   -1    0    0    0  501 -0.00000000000E+00  0.00000000000E+00  0.43276108021E+03  0.43276108021E+03  0.00000000000E+00 0.  1.
          2   -1    0    0  501    0  0.00000000000E+00 -0.00000000000E+00 -0.73738038062E+02  0.73738038062E+02  0.00000000000E+00 0. -1.
         23    2    1    2    0    0  0.62221345436E+02  0.13968877638E+03  0.17119970266E+03  0.24741035005E+03  0.92293515708E+02 0.  0.
         23    2    1    2    0    0 -0.62221345436E+02 -0.13968877638E+03  0.18782333949E+03  0.25908876823E+03  0.92005069919E+02 0.  0.
          5    1    4    4  502    0  0.23998337497E+01 -0.97990604801E+02  0.12935552029E+03  0.16236643268E+03  0.47000000000E+01 0. -1.
         -5    1    4    4    0  502 -0.64621179185E+02 -0.41698171584E+02  0.58467819198E+02  0.96722335551E+02  0.47000000000E+01 0.  1.
          5    1    3    3  503    0  0.62701944402E+02  0.47632393070E+02  0.44004121647E+02  0.90326249912E+02  0.47000000000E+01 0. -1.
         -5    1    3    3    0  503 -0.48059896610E+00  0.92056383315E+02  0.12719558102E+03  0.15708410013E+03  0.47000000000E+01 0.  1.
<mgrwt>
<rscale>  0 0.17857560E+03</rscale>
<asrwt>0</asrwt>
<pdfrwt beam="1">  1        2 0.11344314E-01 0.17861283E+03</pdfrwt>
<pdfrwt beam="2">  1       -2 0.66578626E-01 0.17861283E+03</pdfrwt>
<totfact> 0.11463519E+03</totfact>
</mgrwt>
</event>
<event>
 8    1  0.2964543E-004  0.1111154E+03  0.7546771E-02  0.1259866E+00
         -4   -1    0    0    0  501 -0.00000000000E+00  0.00000000000E+00  0.68980438750E+02  0.68980438750E+02  0.00000000000E+00 0.  1.
          4   -1    0    0  501    0  0.00000000000E+00 -0.00000000000E+00 -0.17655537308E+03  0.17655537308E+03  0.00000000000E+00 0. -1.
         23    2    1    2    0    0  0.39937666065E+02  0.43385820884E+02 -0.66852343201E+02  0.12719327249E+03  0.90727868659E+02 0.  0.
         23    2    1    2    0    0 -0.39937666065E+02 -0.43385820884E+02 -0.40722591129E+02  0.11834253934E+03  0.94176857900E+02 0.  0.
          5    1    4    4  502    0 -0.44562271439E+02  0.17663852760E+02 -0.82049170271E+01  0.48859168981E+02  0.47000000000E+01 0. -1.
         -5    1    3    3    0  503 -0.25611177420E+02 -0.51856896661E+00 -0.30770426014E+02  0.40312658554E+02  0.47000000000E+01 0. -1.
          5    1    3    3  503    0  0.65548843485E+02  0.43904389851E+02 -0.36081917186E+02  0.86880613938E+02  0.47000000000E+01 0.  1.
         -5    1    4    4    0  502  0.46246053735E+01 -0.61049673644E+02 -0.32517674102E+02  0.69483370355E+02  0.47000000000E+01 0.  1.
<mgrwt>
<rscale>  0 0.11038120E+03</rscale>
<asrwt>0</asrwt>
<pdfrwt beam="1">  1        4 0.27162364E-01 0.11111538E+03</pdfrwt>
<pdfrwt beam="2">  1       -4 0.10612375E-01 0.11111538E+03</pdfrwt>
<totfact> 0.13853761E+03</totfact>
</mgrwt>
</event>
<event>
 8    1  0.2964543E-004  0.1220213E+03  0.7546771E-02  0.1249519E+00
          1   -1    0    0  501    0  0.00000000000E+00  0.00000000000E+00  0.67532411553E+02  0.67532411553E+02  0.00000000000E+00 0. -1.
         -1   -1    0    0    0  501 -0.00000000000E+00 -0.00000000000E+00 -0.27910045801E+03  0.27910045801E+03  0.00000000000E+00 0.  1.
         23    2    1    2    0    0  0.20180936566E+02 -0.35275546380E+02 -0.21393980169E+03  0.24629137278E+03  0.11505462696E+03 0.  0.
         23    2    1    2    0    0 -0.20180936566E+02  0.35275546380E+02  0.23717552328E+01  0.10034149679E+03  0.91712356755E+02 0.  0.
          5    1    3    3  502    0  0.48326656648E+02 -0.74317070854E+01 -0.28870373268E+02  0.56976174543E+02  0.47000000000E+01 0. -1.
         -5    1    3    3    0  502 -0.28145720082E+02 -0.27843839295E+02 -0.18506942842E+03  0.18931519824E+03  0.47000000000E+01 0.  1.
          5    1    4    4  503    0 -0.39534388897E+02  0.26853972070E+02  0.36237601715E+02  0.60161096229E+02  0.47000000000E+01 0. -1.
         -5    1    4    4    0  503  0.19353452331E+02  0.84215743096E+01 -0.33865846483E+02  0.40180400558E+02  0.47000000000E+01 0.  1.
<mgrwt>
<rscale>  0 0.11618942E+03</rscale>
<asrwt>0</asrwt>
<pdfrwt beam="1">  1        1 0.10389602E-01 0.12202132E+03</pdfrwt>
<pdfrwt beam="2">  1       -1 0.42938532E-01 0.12202132E+03</pdfrwt>
<totfact> 0.31695871E+03</totfact>
</mgrwt>
</event>
<event>
 8    1  0.3060647E-004  0.9726413E+02  0.7546771E-02  0.1286897E+00
          2   -1    0    0  501    0  0.00000000000E+00  0.00000000000E+00  0.18834345339E+03  0.18834345339E+03  0.00000000000E+00 0. -1.
         -2   -1    0    0    0  501 -0.00000000000E+00 -0.00000000000E+00 -0.26972035900E+03  0.26972035900E+03  0.00000000000E+00 0.  1.
         23    2    1    2    0    0 -0.22502442229E+02 -0.23792079298E+02  0.16619265199E+03  0.19256247773E+03  0.91585409930E+02 0.  0.
         23    2    1    2    0    0  0.22502442229E+02  0.23792079298E+02 -0.24756955760E+03  0.26550133465E+03  0.90154588955E+02 0.  0.
          5    1    4    4  502    0 -0.21831056357E+02  0.70747384232E+01 -0.18698255641E+03  0.18844419160E+03  0.47000000000E+01 0. -1.
         -5    1    3    3    0  503 -0.83235443717E+00  0.29934954422E+02  0.99900641387E+02  0.10439838342E+03  0.47000000000E+01 0.  1.
          5    1    3    3  503    0 -0.21670087792E+02 -0.53727033720E+02  0.66292010601E+02  0.88164094317E+02  0.47000000000E+01 0. -1.
         -5    1    4    4    0  502  0.44333498586E+02  0.16717340875E+02 -0.60587001188E+02  0.77057143055E+02  0.47000000000E+01 0.  1.
<mgrwt>
<rscale>  0 0.96925847E+02</rscale>
<asrwt>0</asrwt>
<pdfrwt beam="1">  1        2 0.28975916E-01 0.97264126E+02</pdfrwt>
<pdfrwt beam="2">  1       -2 0.41495440E-01 0.97264126E+02</pdfrwt>
<totfact> 0.98791399E+02</totfact>
</mgrwt>
</event>
<event>
 8    1  0.2964543E-004  0.9419726E+02  0.7546771E-02  0.1293085E+00
          4   -1    0    0  501    0  0.00000000000E+00  0.00000000000E+00  0.24579227300E+02  0.24579227300E+02  0.00000000000E+00 0. -1.
         -4   -1    0    0    0  501 -0.00000000000E+00 -0.00000000000E+00 -0.38661447252E+03  0.38661447252E+03  0.00000000000E+00 0.  1.
         23    2    1    2    0    0  0.30769150865E+02 -0.31429358073E+01 -0.23441806862E+03  0.25257696996E+03  0.88806960146E+02 0.  0.
         23    2    1    2    0    0 -0.30769150865E+02  0.31429358073E+01 -0.12761717661E+03  0.15861672986E+03  0.88974741003E+02 0.  0.
          5    1    3    3  502    0 -0.30910860507E+02 -0.60672804105E+00 -0.63295726293E+02  0.70599492797E+02  0.47000000000E+01 0. -1.
         -5    1    3    3    0  502  0.61680011372E+02 -0.25362077662E+01 -0.17112234232E+03  0.18197747716E+03  0.47000000000E+01 0.  1.
          5    1    4    4  503    0 -0.18443861091E+01  0.23173817487E+02  0.24024967392E+01  0.23838824796E+02  0.47000000000E+01 0. -1.
         -5    1    4    4    0  503 -0.28924764756E+02 -0.20030881680E+02 -0.13001967335E+03  0.13477790507E+03  0.47000000000E+01 0.  1.
<mgrwt>
<rscale>  0 0.94157616E+02</rscale>
<asrwt>0</asrwt>
<pdfrwt beam="1">  1        4 0.37814199E-02 0.94197257E+02</pdfrwt>
<pdfrwt beam="2">  1       -4 0.59479144E-01 0.94197257E+02</pdfrwt>
<totfact> 0.15276579E+03</totfact>
</mgrwt>
</event>
<event>
 8    1  0.2964543E-004  0.1191037E+03  0.7546771E-02  0.1253024E+00
         -2   -1    0    0    0  501 -0.00000000000E+00  0.00000000000E+00  0.22439690101E+03  0.22439690101E+03  0.00000000000E+00 0.  1.
          2   -1    0    0  501    0  0.00000000000E+00 -0.00000000000E+00 -0.54485293072E+02  0.54485293072E+02  0.00000000000E+00 0. -1.
         23    2    1    2    0    0  0.24725510475E+02 -0.36382224762E+02  0.10793685547E+03  0.16073599445E+03  0.11068278094E+03 0.  0.
         23    2    1    2    0    0 -0.24725510475E+02  0.36382224762E+02  0.61974752472E+02  0.11814619964E+03  0.90457931646E+02 0.  0.
          5    1    3    3  502    0 -0.64843107764E+01 -0.30154758683E+02 -0.14311319780E+02  0.34325786681E+02  0.47000000000E+01 0. -1.
         -5    1    3    3    0  502  0.31209821252E+02 -0.62274660794E+01  0.12224817525E+03  0.12641020777E+03  0.47000000000E+01 0.  1.
          5    1    4    4  503    0 -0.17886749404E+02  0.66614364325E+02  0.45084346095E+02  0.82535432400E+02  0.47000000000E+01 0. -1.
         -5    1    4    4    0  503 -0.68387610717E+01 -0.30232139563E+02  0.16890406377E+02  0.35610767236E+02  0.47000000000E+01 0.  1.
<mgrwt>
<rscale>  0 0.11417709E+03</rscale>
<asrwt>0</asrwt>
<pdfrwt beam="1">  1        2 0.83823529E-02 0.11910372E+03</pdfrwt>
<pdfrwt beam="2">  1       -2 0.34522600E-01 0.11910372E+03</pdfrwt>
<totfact> 0.59200821E+03</totfact>
</mgrwt>
</event>
<event>
 8    1  0.2964543E-004  0.9754580E+02  0.7546771E-02  0.1286429E+00
         -1   -1    0    0    0  501 -0.00000000000E+00  0.00000000000E+00  0.64811218808E+02  0.64811218808E+02  0.00000000000E+00 0.  1.
          1   -1    0    0  501    0  0.00000000000E+00 -0.00000000000E+00 -0.20120087303E+03  0.20120087303E+03  0.00000000000E+00 0. -1.
         23    2    1    2    0    0 -0.28828447564E+02  0.26231090752E+02  0.28871027084E+01  0.95973276034E+02  0.87654919084E+02 0.  0.
         23    2    1    2    0    0  0.28828447564E+02 -0.26231090752E+02 -0.13927675693E+03  0.17003881580E+03  0.89420547684E+02 0.  0.
          5    1    3    3  502    0 -0.38425925684E+02  0.52202775048E+02  0.12707942240E+02  0.66221320459E+02  0.47000000000E+01 0. -1.
         -5    1    4    4    0  503  0.27399958652E+02 -0.56336652327E+02 -0.68374647492E+02  0.92853425081E+02  0.47000000000E+01 0.  1.
          5    1    4    4  503    0  0.14284889118E+01  0.30105561575E+02 -0.70902109435E+02  0.77185390721E+02  0.47000000000E+01 0. -1.
         -5    1    3    3    0  502  0.95974781195E+01 -0.25971684296E+02 -0.98208395314E+01  0.29751955575E+02  0.47000000000E+01 0.  1.
<mgrwt>
<rscale>  0 0.97139279E+02</rscale>
<asrwt>0</asrwt>
<pdfrwt beam="1">  1        1 0.30953980E-01 0.97545804E+02</pdfrwt>
<pdfrwt beam="2">  1       -1 0.99709570E-02 0.97545804E+02</pdfrwt>
<totfact> 0.82156051E+03</totfact>
</mgrwt>
</event>
<event>
 8    1  0.2964543E-004  0.1069597E+03  0.7546771E-02  0.1266429E+00
          3   -1    0    0  501    0  0.00000000000E+00  0.00000000000E+00  0.30053194938E+02  0.30053194938E+02  0.00000000000E+00 0. -1.
         -3   -1    0    0    0  501 -0.00000000000E+00 -0.00000000000E+00 -0.54707110995E+03  0.54707110995E+03  0.00000000000E+00 0.  1.
         23    2    1    2    0    0  0.44109896235E+02 -0.29109360557E+02 -0.41787490991E+03  0.43128291747E+03  0.92695613437E+02 0.  0.
         23    2    1    2    0    0 -0.44109896235E+02  0.29109360557E+02 -0.99143005104E+02  0.14584138742E+03  0.92991058743E+02 0.  0.
          5    1    4    4  502    0 -0.46621100217E+02  0.50283824136E+02 -0.33108433388E+02  0.76290551949E+02  0.47000000000E+01 0. -1.
         -5    1    3    3    0  503  0.40018061061E+02 -0.61556530376E+02 -0.29649071576E+03  0.30548238276E+03  0.47000000000E+01 0.  1.
          5    1    3    3  503    0  0.40918351731E+01  0.32447169820E+02 -0.12138419415E+03  0.12580053471E+03  0.47000000000E+01 0. -1.
         -5    1    4    4    0  502  0.25112039822E+01 -0.21174463580E+02 -0.66034571716E+02  0.69550835473E+02  0.47000000000E+01 0.  1.
<mgrwt>
<rscale>  0 0.10689544E+03</rscale>
<asrwt>0</asrwt>
<pdfrwt beam="1">  1        3 0.46235687E-02 0.10695969E+03</pdfrwt>
<pdfrwt beam="2">  1       -3 0.84164781E-01 0.10695969E+03</pdfrwt>
<totfact> 0.76593350E+02</totfact>
</mgrwt>
</event>
<event>
 8    1  0.3556213E-004  0.9128947E+02  0.7546771E-02  0.1301947E+00
          1   -1    0    0  501    0  0.00000000000E+00  0.00000000000E+00  0.75043115647E+02  0.75043115647E+02  0.00000000000E+00 0. -1.
         -1   -1    0    0    0  501 -0.00000000000E+00 -0.00000000000E+00 -0.24095587602E+03  0.24095587602E+03  0.00000000000E+00 0.  1.
         23    2    1    2    0    0 -0.33160295132E+01  0.36468232331E+01  0.35705919943E+02  0.94676014119E+02  0.87546213848E+02 0.  0.
         23    2    1    2    0    0  0.33160295132E+01 -0.36468232331E+01 -0.20161868031E+03  0.22132297755E+03  0.91156309528E+02 0.  0.
          5    1    3    3  502    0  0.26841647729E+02  0.81982903824E+01  0.52372177432E+02  0.59603867214E+02  0.47000000000E+01 0. -1.
         -5    1    3    3    0  502 -0.30157677242E+02 -0.45514671493E+01 -0.16666257488E+02  0.35072146905E+02  0.47000000000E+01 0.  1.
          5    1    4    4  503    0  0.46192633369E+02 -0.33940777002E+01 -0.83905687742E+02  0.95955893912E+02  0.47000000000E+01 0. -1.
         -5    1    4    4    0  503 -0.42876603856E+02 -0.25274553283E+00 -0.11771299257E+03  0.12536708363E+03  0.47000000000E+01 0.  1.
<mgrwt>
<rscale>  0 0.90374662E+02</rscale>
<asrwt>0</asrwt>
<pdfrwt beam="1">  1        1 0.11545095E-01 0.91289474E+02</pdfrwt>
<pdfrwt beam="2">  1       -1 0.37070135E-01 0.91289474E+02</pdfrwt>
<totfact> 0.35031661E+03</totfact>
</mgrwt>
</event>
<event>
 8    1  0.2964543E-004  0.1673608E+03  0.7546771E-02  0.1180687E+00
          2   -1    0    0  501    0  0.00000000000E+00  0.00000000000E+00  0.25882121616E+03  0.25882121616E+03  0.00000000000E+00 0. -1.
         -2   -1    0    0    0  501 -0.00000000000E+00 -0.00000000000E+00 -0.14394382449E+03  0.14394382449E+03  0.00000000000E+00 0.  1.
         23    2    1    2    0    0 -0.94340493391E+02  0.10309485803E+03 -0.43114594724E+02  0.17261048702E+03  0.91688786163E+02 0.  0.
         23    2    1    2    0    0  0.94340493391E+02 -0.10309485803E+03  0.15799198640E+03  0.23015455363E+03  0.92092194815E+02 0.  0.
          5    1    4    4  502    0  0.10936025566E+03 -0.73178388569E+02  0.13865064975E+03  0.19120887728E+03  0.47000000000E+01 0. -1.
         -5    1    4    4    0  502 -0.15019762272E+02 -0.29916469457E+02  0.19341336645E+02  0.38945676354E+02  0.47000000000E+01 0.  1.
          5    1    3    3  503    0 -0.35840938978E+02  0.38083101422E+02  0.28258702514E+02  0.59628347189E+02  0.47000000000E+01 0. -1.
         -5    1    3    3    0  503 -0.58499554413E+02  0.65011756604E+02 -0.71373297238E+02  0.11298213984E+03  0.47000000000E+01 0.  1.
<mgrwt>
<rscale>  0 0.16730540E+03</rscale>
<asrwt>0</asrwt>
<pdfrwt beam="1">  1        2 0.39818649E-01 0.16736084E+03</pdfrwt>
<pdfrwt beam="2">  1       -2 0.22145204E-01 0.16736084E+03</pdfrwt>
<totfact> 0.22192675E+03</totfact>
</mgrwt>
</event>
<event>
 8    1  0.2964543E-004  0.9420590E+02  0.7546771E-02  0.1294914E+00
          2   -1    0    0  501    0  0.00000000000E+00  0.00000000000E+00  0.41906575722E+03  0.41906575722E+03  0.00000000000E+00 0. -1.
         -2   -1    0    0    0  501 -0.00000000000E+00 -0.00000000000E+00 -0.94052638774E+02  0.94052638774E+02  0.00000000000E+00 0.  1.
         23    2    1    2    0    0 -0.21237873188E+02  0.46364371754E+01 -0.63833609408E+02  0.11379578398E+03  0.91663553036E+02 0.  0.
         23    2    1    2    0    0  0.21237873188E+02 -0.46364371754E+01  0.38884672786E+03  0.39932261201E+03  0.88228265835E+02 0.  0.
          5    1    4    4  502    0  0.21388285550E+01  0.40915073197E+02  0.17953405901E+03  0.18420962555E+03  0.47000000000E+01 0. -1.
         -5    1    3    3    0  503 -0.50608031860E+02 -0.20715814622E+02 -0.41242801048E+02  0.68654034860E+02  0.47000000000E+01 0.  1.
          5    1    3    3  503    0  0.29370158672E+02  0.25352251797E+02 -0.22590808360E+02  0.45141749124E+02  0.47000000000E+01 0. -1.
         -5    1    4    4    0  502  0.19099044633E+02 -0.45551510372E+02  0.20931266885E+03  0.21511298646E+03  0.47000000000E+01 0.  1.
<mgrwt>
<rscale>  0 0.93359784E+02</rscale>
<asrwt>0</asrwt>
<pdfrwt beam="1">  1        2 0.64471654E-01 0.94205896E+02</pdfrwt>
<pdfrwt beam="2">  1       -2 0.14469637E-01 0.94205896E+02</pdfrwt>
<totfact> 0.26433961E+03</totfact>
</mgrwt>
</event>
<event>
 8    1  0.2964543E-004  0.9770978E+02  0.7546771E-02  0.1286483E+00
         -1   -1    0    0    0  501 -0.00000000000E+00  0.00000000000E+00  0.13360724365E+02  0.13360724365E+02  0.00000000000E+00 0.  1.
          1   -1    0    0  501    0  0.00000000000E+00 -0.00000000000E+00 -0.71354058168E+03  0.71354058168E+03  0.00000000000E+00 0. -1.
         23    2    1    2    0    0  0.31602994041E+02 -0.14235245383E+02 -0.29130606529E+03  0.30651460423E+03  0.88828978859E+02 0.  0.
         23    2    1    2    0    0 -0.31602994041E+02  0.14235245383E+02 -0.40887379202E+03  0.42038670181E+03  0.91355403884E+02 0.  0.
          5    1    3    3  502    0  0.15315599222E+02 -0.50837781411E+02 -0.13645867762E+03  0.14649951637E+03  0.47000000000E+01 0. -1.
         -5    1    4    4    0  503 -0.23950430565E+01  0.49951093352E+02 -0.18092139678E+03  0.18776445289E+03  0.47000000000E+01 0.  1.
          5    1    4    4  503    0 -0.29207950985E+02 -0.35715847969E+02 -0.22795239524E+03  0.23262224892E+03  0.47000000000E+01 0. -1.
         -5    1    3    3    0  502  0.16287394819E+02  0.36602536028E+02 -0.15484738767E+03  0.16001508786E+03  0.47000000000E+01 0.  1.
<mgrwt>
<rscale>  0 0.97114892E+02</rscale>
<asrwt>0</asrwt>
<pdfrwt beam="1">  1        1 0.10977551E+00 0.97709781E+02</pdfrwt>
<pdfrwt beam="2">  1       -1 0.20554954E-02 0.97709781E+02</pdfrwt>
<totfact> 0.16676330E+04</totfact>
</mgrwt>
</event>
<event>
 8    1  0.2964543E-004  0.1013683E+03  0.7546771E-02  0.1278956E+00
          1   -1    0    0  501    0  0.00000000000E+00  0.00000000000E+00  0.14620588303E+02  0.14620588303E+02  0.00000000000E+00 0. -1.
         -1   -1    0    0    0  501 -0.00000000000E+00 -0.00000000000E+00 -0.76534128519E+03  0.76534128519E+03  0.00000000000E+00 0.  1.
         23    2    1    2    0    0 -0.36750876308E+02  0.24675917742E+02 -0.49845460758E+03  0.50809110855E+03  0.87977559339E+02 0.  0.
         23    2    1    2    0    0  0.36750876308E+02 -0.24675917742E+02 -0.25226608931E+03  0.27187076494E+03  0.91192133370E+02 0.  0.
          5    1    4    4  502    0  0.42558450218E+02 -0.46585888608E+02 -0.23394069073E+03  0.24234645342E+03  0.47000000000E+01 0. -1.
         -5    1    4    4    0  502 -0.58075739101E+01  0.21909970866E+02 -0.18325398574E+02  0.29524311524E+02  0.47000000000E+01 0.  1.
          5    1    3    3  503    0  0.11594567390E+02  0.33769562396E+02 -0.94575407200E+02  0.10119987640E+03  0.47000000000E+01 0. -1.
         -5    1    3    3    0  503 -0.48345443697E+02 -0.90936446541E+01 -0.40387920038E+03  0.40689123215E+03  0.47000000000E+01 0.  1.
<mgrwt>
<rscale>  0 0.10064003E+03</rscale>
<asrwt>0</asrwt>
<pdfrwt beam="1">  1        1 0.22493214E-02 0.10136830E+03</pdfrwt>
<pdfrwt beam="2">  1       -1 0.11774481E+00 0.10136830E+03</pdfrwt>
<totfact> 0.33386132E+03</totfact>
</mgrwt>
</event>
<event>
 8    1  0.2964543E-004  0.9313549E+02  0.7546771E-02  0.1295712E+00
         -1   -1    0    0    0  501 -0.00000000000E+00  0.00000000000E+00  0.54711370681E+02  0.54711370681E+02  0.00000000000E+00 0.  1.
          1   -1    0    0  501    0  0.00000000000E+00 -0.00000000000E+00 -0.19534699490E+03  0.19534699490E+03  0.00000000000E+00 0. -1.
         23    2    1    2    0    0  0.14467783940E+02 -0.83714204127E+01 -0.12504013670E+03  0.15562617503E+03  0.91132173886E+02 0.  0.
         23    2    1    2    0    0 -0.14467783940E+02  0.83714204127E+01 -0.15595487520E+02  0.94432190551E+02  0.91623260853E+02 0.  0.
          5    1    3    3  502    0  0.25251067337E+01 -0.49200475901E+02 -0.73896896883E+02  0.88937643109E+02  0.47000000000E+01 0. -1.
         -5    1    3    3    0  502  0.11942677206E+02  0.40829055489E+02 -0.51143239814E+02  0.66688531920E+02  0.47000000000E+01 0.  1.
          5    1    4    4  503    0  0.98632420510E+01 -0.20039710217E+02 -0.42414719075E+02  0.48166086861E+02  0.47000000000E+01 0. -1.
         -5    1    4    4    0  503 -0.24331025991E+02  0.28411130629E+02  0.26819231555E+02  0.46266103689E+02  0.47000000000E+01 0.  1.
<mgrwt>
<rscale>  0 0.93014486E+02</rscale>
<asrwt>0</asrwt>
<pdfrwt beam="1">  1        1 0.30053384E-01 0.93135489E+02</pdfrwt>
<pdfrwt beam="2">  1       -1 0.84171338E-02 0.93135489E+02</pdfrwt>
<totfact> 0.10949061E+04</totfact>
</mgrwt>
</event>
<event>
 8    1  0.2964543E-004  0.9393197E+02  0.7546771E-02  0.1296575E+00
          1   -1    0    0  501    0  0.00000000000E+00  0.00000000000E+00  0.47094749090E+02  0.47094749090E+02  0.00000000000E+00 0. -1.
         -1   -1    0    0    0  501 -0.00000000000E+00 -0.00000000000E+00 -0.34740141435E+03  0.34740141435E+03  0.00000000000E+00 0.  1.
         23    2    1    2    0    0 -0.99457468597E+00  0.20684860906E+02 -0.14321304462E+02  0.95017443894E+02  0.91620752197E+02 0.  0.
         23    2    1    2    0    0  0.99457468597E+00 -0.20684860906E+02 -0.28598536080E+03  0.29947871954E+03  0.86435086746E+02 0.  0.
          5    1    3    3  502    0 -0.40098428619E+02 -0.25327973532E+01 -0.25671188678E+02  0.47910322148E+02  0.47000000000E+01 0.  1.
         -5    1    4    4    0  503 -0.11314360691E+02  0.30595926112E+02 -0.74466119799E+02  0.81433521663E+02  0.47000000000E+01 0.  1.
          5    1    4    4  503    0  0.12308935377E+02 -0.51280787017E+02 -0.21151924100E+03  0.21804519788E+03  0.47000000000E+01 0. -1.
         -5    1    3    3    0  502  0.39103853933E+02  0.23217658259E+02  0.11349884216E+02  0.47107121746E+02  0.47000000000E+01 0. -1.
<mgrwt>
<rscale>  0 0.92643000E+02</rscale>
<asrwt>0</asrwt>
<pdfrwt beam="1">  1        1 0.72453460E-02 0.93931969E+02</pdfrwt>
<pdfrwt beam="2">  1       -1 0.53446372E-01 0.93931969E+02</pdfrwt>
<totfact> 0.33921370E+03</totfact>
</mgrwt>
</event>
<event>
 8    1  0.2964543E-004  0.1079538E+03  0.7546771E-02  0.1264495E+00
          4   -1    0    0  501    0  0.00000000000E+00  0.00000000000E+00  0.34377858198E+03  0.34377858198E+03  0.00000000000E+00 0. -1.
         -4   -1    0    0    0  501 -0.00000000000E+00 -0.00000000000E+00 -0.45768691953E+02  0.45768691953E+02  0.00000000000E+00 0.  1.
         23    2    1    2    0    0 -0.33323088881E+01  0.57953477708E+02  0.49478809751E+02  0.11858283091E+03  0.90796615081E+02 0.  0.
         23    2    1    2    0    0  0.33323088881E+01 -0.57953477708E+02  0.24853108028E+03  0.27096444303E+03  0.91018249055E+02 0.  0.
          5    1    4    4  502    0  0.37804567704E+02 -0.55496909836E+02  0.11795719399E+03  0.13581267229E+03  0.47000000000E+01 0. -1.
         -5    1    4    4    0  502 -0.34472258816E+02 -0.24565678727E+01  0.13057388629E+03  0.13515177074E+03  0.47000000000E+01 0.  1.
          5    1    3    3  503    0  0.22712219912E+02  0.70543738874E+02  0.49555376731E+02  0.89275357130E+02  0.47000000000E+01 0. -1.
         -5    1    3    3    0  503 -0.26044528800E+02 -0.12590261166E+02 -0.76566979763E-01  0.29307473776E+02  0.47000000000E+01 0.  1.
<mgrwt>
<rscale>  0 0.10790711E+03</rscale>
<asrwt>0</asrwt>
<pdfrwt beam="1">  1        4 0.52889011E-01 0.10795384E+03</pdfrwt>
<pdfrwt beam="2">  1       -4 0.70413374E-02 0.10795384E+03</pdfrwt>
<totfact> 0.74309920E+02</totfact>
</mgrwt>
</event>
<event>
 8    1  0.2964543E-004  0.1038575E+03  0.7546771E-02  0.1275408E+00
         -2   -1    0    0    0  501 -0.00000000000E+00  0.00000000000E+00  0.31672820382E+03  0.31672820382E+03  0.00000000000E+00 0.  1.
          2   -1    0    0  501    0  0.00000000000E+00 -0.00000000000E+00 -0.10015066658E+03  0.10015066658E+03  0.00000000000E+00 0. -1.
         23    2    1    2    0    0 -0.35086647267E+02 -0.16406701688E+02  0.27899638019E+03  0.29570754832E+03  0.90020671511E+02 0.  0.
         23    2    1    2    0    0  0.35086647267E+02  0.16406701688E+02 -0.62418842955E+02  0.12117132208E+03  0.96364540480E+02 0.  0.
          5    1    4    4  502    0  0.33884077311E+02  0.54814895893E+02 -0.44876324472E+02  0.78668786727E+02  0.47000000000E+01 0. -1.
         -5    1    3    3    0  503  0.58475642293E+01 -0.35160625516E+02  0.21086034281E+03  0.21390333743E+03  0.47000000000E+01 0.  1.
          5    1    3    3  503    0 -0.40934211496E+02  0.18753923829E+02  0.68136037378E+02  0.81804210891E+02  0.47000000000E+01 0. -1.
         -5    1    4    4    0  502  0.12025699563E+01 -0.38408194206E+02 -0.17542518483E+02  0.42502535352E+02  0.47000000000E+01 0.  1.
<mgrwt>
<rscale>  0 0.10236105E+03</rscale>
<asrwt>0</asrwt>
<pdfrwt beam="1">  1        2 0.15407795E-01 0.10385749E+03</pdfrwt>
<pdfrwt beam="2">  1       -2 0.48727416E-01 0.10385749E+03</pdfrwt>
<totfact> 0.14697734E+03</totfact>
</mgrwt>
</event>
<event>
 8    1  0.2964543E-004  0.1294003E+03  0.7546771E-02  0.1228565E+00
         -2   -1    0    0    0  501 -0.00000000000E+00  0.00000000000E+00  0.21212119118E+02  0.21212119118E+02  0.00000000000E+00 0.  1.
          2   -1    0    0  501    0  0.00000000000E+00 -0.00000000000E+00 -0.11389835452E+04  0.11389835452E+04  0.00000000000E+00 0. -1.
         23    2    1    2    0    0 -0.47302587620E+02 -0.79236832486E+02 -0.88275403051E+03  0.89218782505E+03  0.90710673892E+02 0.  0.
         23    2    1    2    0    0  0.47302587620E+02  0.79236832486E+02 -0.23501739559E+03  0.26800783929E+03  0.89883342583E+02 0.  0.
          5    1    4    4  502    0 -0.20596666988E+02  0.22842749656E+01 -0.74153610225E+02  0.77138113229E+02  0.47000000000E+01 0. -1.
         -5    1    4    4    0  502  0.67899254608E+02  0.76952557520E+02 -0.16086378536E+03  0.19086972606E+03  0.47000000000E+01 0.  1.
          5    1    3    3  503    0 -0.70247949571E+02 -0.78156532447E+02 -0.75603285746E+03  0.76331578625E+03  0.47000000000E+01 0. -1.
         -5    1    3    3    0  503  0.22945361951E+02 -0.10803000394E+01 -0.12672117306E+03  0.12887203880E+03  0.47000000000E+01 0.  1.
<mgrwt>
<rscale>  0 0.12925540E+03</rscale>
<asrwt>0</asrwt>
<pdfrwt beam="1">  1        2 0.17522832E+00 0.12940030E+03</pdfrwt>
<pdfrwt beam="2">  1       -2 0.32634014E-02 0.12940030E+03</pdfrwt>
<totfact> 0.78446934E+03</totfact>
</mgrwt>
</event>
<event>
 8    1  0.2964543E-004  0.1060020E+03  0.7546771E-02  0.1268344E+00
          1   -1    0    0  501    0  0.00000000000E+00  0.00000000000E+00  0.14360802831E+02  0.14360802831E+02  0.00000000000E+00 0. -1.
         -1   -1    0    0    0  501 -0.00000000000E+00 -0.00000000000E+00 -0.82635140449E+03  0.82635140449E+03  0.00000000000E+00 0.  1.
         23    2    1    2    0    0 -0.50103209249E+02 -0.15863688395E+02 -0.30534376685E+03  0.32309513724E+03  0.91616939326E+02 0.  0.
         23    2    1    2    0    0  0.50103209249E+02  0.15863688395E+02 -0.50664683481E+03  0.51761707008E+03  0.92056655511E+02 0.  0.
          5    1    4    4  502    0  0.56135707764E+02 -0.26985858072E+02 -0.30256192864E+03  0.30894217078E+03  0.47000000000E+01 0. -1.
         -5    1    4    4    0  502 -0.60324985147E+01  0.42849546467E+02 -0.20408490617E+03  0.20867489929E+03  0.47000000000E+01 0.  1.
          5    1    3    3  503    0  0.15069024233E+02 -0.31946793417E+02 -0.14267089168E+03  0.14705354955E+03  0.47000000000E+01 0. -1.
         -5    1    3    3    0  503 -0.65172233482E+02  0.16083105022E+02 -0.16267287516E+03  0.17604158769E+03  0.47000000000E+01 0.  1.
<mgrwt>
<rscale>  0 0.10590642E+03</rscale>
<asrwt>0</asrwt>
<pdfrwt beam="1">  1        1 0.22093542E-02 0.10600196E+03</pdfrwt>
<pdfrwt beam="2">  1       -1 0.12713099E+00 0.10600196E+03</pdfrwt>
<totfact> 0.28656236E+03</totfact>
</mgrwt>
</event>
<event>
 8    1  0.2964543E-004  0.1691690E+03  0.7546771E-02  0.1182225E+00
          3   -1    0    0  501    0  0.00000000000E+00  0.00000000000E+00  0.39260787316E+02  0.39260787316E+02  0.00000000000E+00 0. -1.
         -3   -1    0    0    0  501 -0.00000000000E+00 -0.00000000000E+00 -0.69589192917E+03  0.69589192917E+03  0.00000000000E+00 0.  1.
         23    2    1    2    0    0  0.91768606516E+02  0.88150030528E+02 -0.37981740311E+03  0.41073938711E+03  0.90849762759E+02 0.  0.
         23    2    1    2    0    0 -0.91768606516E+02 -0.88150030528E+02 -0.27681373875E+03  0.32441332938E+03  0.11147312365E+03 0.  0.
          5    1    3    3  502    0  0.12872843785E+02  0.74739289394E+02 -0.19522481533E+03  0.20949102607E+03  0.47000000000E+01 0. -1.
         -5    1    3    3    0  502  0.78895762730E+02  0.13410741134E+02 -0.18459258778E+03  0.20124836103E+03  0.47000000000E+01 0.  1.
          5    1    4    4  503    0 -0.34607234384E+02 -0.43987386965E+02 -0.23368730837E+02  0.60833695142E+02  0.47000000000E+01 0. -1.
         -5    1    4    4    0  503 -0.57161372132E+02 -0.44162643563E+02 -0.25344500791E+03  0.26357963424E+03  0.47000000000E+01 0.  1.
<mgrwt>
<rscale>  0 0.16586918E+03</rscale>
<asrwt>0</asrwt>
<pdfrwt beam="1">  1        3 0.60401207E-02 0.16916903E+03</pdfrwt>
<pdfrwt beam="2">  1       -3 0.10706030E+00 0.16916903E+03</pdfrwt>
<totfact> 0.31187436E+02</totfact>
</mgrwt>
</event>
<event>
 8    1  0.2964543E-004  0.1072916E+03  0.7546771E-02  0.1265876E+00
         -2   -1    0    0    0  501 -0.00000000000E+00  0.00000000000E+00  0.64364125803E+02  0.64364125803E+02  0.00000000000E+00 0.  1.
          2   -1    0    0  501    0  0.00000000000E+00 -0.00000000000E+00 -0.23041922516E+03  0.23041922516E+03  0.00000000000E+00 0. -1.
         23    2    1    2    0    0  0.56536323545E+02 -0.11987619283E+02 -0.15336958748E+03  0.18717297485E+03  0.90395980300E+02 0.  0.
         23    2    1    2    0    0 -0.56536323545E+02  0.11987619283E+02 -0.12685511880E+02  0.10761037612E+03  0.89883324038E+02 0.  0.
          5    1    4    4  502    0  0.84226754315E+00 -0.23252885073E+02  0.21428532386E+02  0.31979338315E+02  0.47000000000E+01 0. -1.
         -5    1    4    4    0  502 -0.57378591088E+02  0.35240504356E+02 -0.34114044267E+02  0.75631037801E+02  0.47000000000E+01 0.  1.
          5    1    3    3  503    0  0.33410855874E+02 -0.31726692655E+02 -0.20254684005E+02  0.50549090409E+02  0.47000000000E+01 0.  1.
         -5    1    3    3    0  503  0.23125467671E+02  0.19739073372E+02 -0.13311490348E+03  0.13662388444E+03  0.47000000000E+01 0. -1.
<mgrwt>
<rscale>  0 0.10718357E+03</rscale>
<asrwt>0</asrwt>
<pdfrwt beam="1">  1        2 0.35449112E-01 0.10729162E+03</pdfrwt>
<pdfrwt beam="2">  1       -2 0.99021731E-02 0.10729162E+03</pdfrwt>
<totfact> 0.91261758E+03</totfact>
</mgrwt>
</event>
<event>
 8    1  0.2964543E-004  0.1048346E+03  0.7546771E-02  0.1272570E+00
         -2   -1    0    0    0  501 -0.00000000000E+00  0.00000000000E+00  0.21487410588E+03  0.21487410588E+03  0.00000000000E+00 0.  1.
          2   -1    0    0  501    0  0.00000000000E+00 -0.00000000000E+00 -0.79840230350E+02  0.79840230350E+02  0.00000000000E+00 0. -1.
         23    2    1    2    0    0  0.38454170971E+02  0.14278583521E+02 -0.23034128789E+02  0.10733533827E+03  0.96476435154E+02 0.  0.
         23    2    1    2    0    0 -0.38454170971E+02 -0.14278583521E+02  0.15806800432E+03  0.18737899796E+03  0.91884675948E+02 0.  0.
          5    1    3    3  502    0 -0.94537884484E+01 -0.33857644740E+02 -0.15964687162E+02  0.38893128693E+02  0.47000000000E+01 0. -1.
         -5    1    3    3    0  502  0.47907959419E+02  0.48136228261E+02 -0.70694416278E+01  0.68442209577E+02  0.47000000000E+01 0.  1.
          5    1    4    4  503    0 -0.16322008955E+02  0.31311287819E+02  0.11600611383E+03  0.12135202168E+03  0.47000000000E+01 0.  1.
         -5    1    4    4    0  503 -0.22132162016E+02 -0.45589871340E+02  0.42061890488E+02  0.66026976273E+02  0.47000000000E+01 0. -1.
<mgrwt>
<rscale>  0 0.10376601E+03</rscale>
<asrwt>0</asrwt>
<pdfrwt beam="1">  1        2 0.12283112E-01 0.10483465E+03</pdfrwt>
<pdfrwt beam="2">  1       -2 0.33057555E-01 0.10483465E+03</pdfrwt>
<totfact> 0.39862180E+03</totfact>
</mgrwt>
</event>
<event>
 8    1  0.2964543E-004  0.1768555E+03  0.7546771E-02  0.1170898E+00
         -1   -1    0    0    0  501 -0.00000000000E+00  0.00000000000E+00  0.56701633615E+03  0.56701633615E+03  0.00000000000E+00 0.  1.
          1   -1    0    0  501    0  0.00000000000E+00 -0.00000000000E+00 -0.10653351800E+03  0.10653351800E+03  0.00000000000E+00 0. -1.
         23    2    1    2    0    0  0.43014116143E+02  0.14472483855E+03  0.46417343076E+03  0.49672410909E+03  0.92099802623E+02 0.  0.
         23    2    1    2    0    0 -0.43014116143E+02 -0.14472483855E+03 -0.36906126174E+01  0.17682574506E+03  0.91968638201E+02 0.  0.
          5    1    3    3  502    0  0.32958304853E+02  0.81553131004E+02  0.13387178536E+03  0.16025263789E+03  0.47000000000E+01 0. -1.
         -5    1    3    3    0  502  0.10055811290E+02  0.63171707549E+02  0.33030164540E+03  0.33647147120E+03  0.47000000000E+01 0.  1.
          5    1    4    4  503    0 -0.69253251376E+02 -0.10427981795E+03 -0.17428557302E+02  0.12647583907E+03  0.47000000000E+01 0. -1.
         -5    1    4    4    0  503  0.26239135233E+02 -0.40445020603E+02  0.13737944685E+02  0.50349905994E+02  0.47000000000E+01 0.  1.
<mgrwt>
<rscale>  0 0.17683843E+03</rscale>
<asrwt>0</asrwt>
<pdfrwt beam="1">  1        1 0.16389772E-01 0.17685550E+03</pdfrwt>
<pdfrwt beam="2">  1       -1 0.87233281E-01 0.17685550E+03</pdfrwt>
<totfact> 0.45185076E+02</totfact>
</mgrwt>
</event>
<event>
 8    1  0.2964543E-004  0.1047704E+03  0.7546771E-02  0.1272200E+00
          1   -1    0    0  501    0  0.00000000000E+00  0.00000000000E+00  0.73989793271E+03  0.73989793271E+03  0.00000000000E+00 0. -1.
         -1   -1    0    0    0  501 -0.00000000000E+00 -0.00000000000E+00 -0.15157994988E+02  0.15157994988E+02  0.00000000000E+00 0.  1.
         23    2    1    2    0    0 -0.47129801744E+02 -0.12644003162E+02  0.27147431312E+03  0.28983923830E+03  0.89035904814E+02 0.  0.
         23    2    1    2    0    0  0.47129801744E+02  0.12644003162E+02  0.45326562460E+03  0.46521668940E+03  0.92713281784E+02 0.  0.
          5    1    3    3  502    0  0.22632082351E+02  0.87190936801E+01  0.10753557567E+03  0.11033686501E+03  0.47000000000E+01 0. -1.
         -5    1    3    3    0  502 -0.69761884095E+02 -0.21363096842E+02  0.16393873745E+03  0.17950237329E+03  0.47000000000E+01 0.  1.
          5    1    4    4  503    0  0.62724965778E+02 -0.21878201383E+02  0.28686944683E+03  0.29449829635E+03  0.47000000000E+01 0. -1.
         -5    1    4    4    0  503 -0.15595164034E+02  0.34522204546E+02  0.16639617777E+03  0.17071839305E+03  0.47000000000E+01 0.  1.
<mgrwt>
<rscale>  0 0.10395093E+03</rscale>
<asrwt>0</asrwt>
<pdfrwt beam="1">  1        1 0.11383042E+00 0.10477042E+03</pdfrwt>
<pdfrwt beam="2">  1       -1 0.23319998E-02 0.10477042E+03</pdfrwt>
<totfact> 0.13288366E+04</totfact>
</mgrwt>
</event>
<event>
 8    1  0.2964543E-004  0.9228864E+02  0.7546771E-02  0.1299209E+00
          1   -1    0    0  501    0  0.00000000000E+00  0.00000000000E+00  0.92517421251E+02  0.92517421251E+02  0.00000000000E+00 0. -1.
         -1   -1    0    0    0  501 -0.00000000000E+00 -0.00000000000E+00 -0.11978873976E+03  0.11978873976E+03  0.00000000000E+00 0.  1.
         23    2    1    2    0    0  0.58653620768E+01  0.10229093171E+02 -0.67563075298E+02  0.11437640428E+03  0.91532266954E+02 0.  0.
         23    2    1    2    0    0 -0.58653620768E+01 -0.10229093171E+02  0.40291756787E+02  0.97929756730E+02  0.88474712595E+02 0.  0.
          5    1    3    3  502    0 -0.24547015818E+02  0.28935239339E+02 -0.47973407928E+00  0.38237732751E+02  0.47000000000E+01 0. -1.
         -5    1    3    3    0  502  0.30412377895E+02 -0.18706146167E+02 -0.67083341219E+02  0.76138671533E+02  0.47000000000E+01 0.  1.
          5    1    4    4  503    0 -0.99515458097E+01 -0.40247541132E+02 -0.62574770445E+01  0.42191750973E+02  0.47000000000E+01 0. -1.
         -5    1    4    4    0  503  0.40861837329E+01  0.30018447961E+02  0.46549233831E+02  0.55738005757E+02  0.47000000000E+01 0.  1.
<mgrwt>
<rscale>  0 0.91521208E+02</rscale>
<asrwt>0</asrwt>
<pdfrwt beam="1">  1        1 0.14233450E-01 0.92288638E+02</pdfrwt>
<pdfrwt beam="2">  1       -1 0.18429037E-01 0.92288638E+02</pdfrwt>
<totfact> 0.84047645E+03</totfact>
</mgrwt>
</event>
<event>
 8    1  0.2964543E-004  0.9853866E+02  0.7546771E-02  0.1283630E+00
          1   -1    0    0  501    0  0.00000000000E+00  0.00000000000E+00  0.34333098760E+02  0.34333098760E+02  0.00000000000E+00 0. -1.
         -1   -1    0    0    0  501 -0.00000000000E+00 -0.00000000000E+00 -0.29165875263E+03  0.29165875263E+03  0.00000000000E+00 0.  1.
         23    2    1    2    0    0  0.35479903019E+02 -0.38344671833E+01 -0.98093701985E+02  0.13873619310E+03  0.91388348541E+02 0.  0.
         23    2    1    2    0    0 -0.35479903019E+02  0.38344671833E+01 -0.15923195189E+03  0.18725565829E+03  0.91849553100E+02 0.  0.
          5    1    4    4  502    0  0.17226295657E+02 -0.13268763689E+02 -0.43164900471E+01  0.22661143798E+02  0.47000000000E+01 0. -1.
         -5    1    4    4    0  502 -0.52706198676E+02  0.17103230872E+02 -0.15491546184E+03  0.16459451450E+03  0.47000000000E+01 0.  1.
          5    1    3    3  503    0 -0.28069149414E+02  0.13133486221E+02 -0.23511314393E+02  0.39182107060E+02  0.47000000000E+01 0.  1.
         -5    1    3    3    0  503  0.63549052433E+02 -0.16967953405E+02 -0.74582387592E+02  0.99554086038E+02  0.47000000000E+01 0. -1.
<mgrwt>
<rscale>  0 0.98431043E+02</rscale>
<asrwt>0</asrwt>
<pdfrwt beam="1">  1        1 0.52820152E-02 0.98538658E+02</pdfrwt>
<pdfrwt beam="2">  1       -1 0.44870577E-01 0.98538658E+02</pdfrwt>
<totfact> 0.71313976E+03</totfact>
</mgrwt>
</event>
<event>
 8    1  0.2964543E-004  0.9233741E+02  0.7546771E-02  0.1307196E+00
          2   -1    0    0  501    0  0.00000000000E+00  0.00000000000E+00  0.30681352122E+03  0.30681352122E+03  0.00000000000E+00 0.  1.
         -2   -1    0    0    0  501 -0.00000000000E+00 -0.00000000000E+00 -0.63990891721E+02  0.63990891721E+02  0.00000000000E+00 0. -1.
         23    2    1    2    0    0  0.91180427990E+01  0.10550103460E+02 -0.30129002883E+02  0.82657244145E+02  0.75696894305E+02 0.  0.
         23    2    1    2    0    0 -0.91180427990E+01 -0.10550103460E+02  0.27295163238E+03  0.28814716879E+03  0.91278441472E+02 0.  0.
          5    1    3    3  502    0 -0.19636740121E+02  0.28030031929E+02  0.36603213270E+01  0.34738626984E+02  0.47000000000E+01 0. -1.
         -5    1    4    4    0  503 -0.43129058060E+02 -0.57145995492E+01  0.72219053721E+02  0.84442015712E+02  0.47000000000E+01 0.  1.
          5    1    4    4  503    0  0.34011015261E+02 -0.48355039111E+01  0.20073257866E+03  0.20370515308E+03  0.47000000000E+01 0. -1.
         -5    1    3    3    0  502  0.28754782920E+02 -0.17479928469E+02 -0.33789324210E+02  0.47918617161E+02  0.47000000000E+01 0.  1.
<mgrwt>
<rscale>  0 0.88229617E+02</rscale>
<asrwt>0</asrwt>
<pdfrwt beam="1">  1        2 0.47202079E-01 0.92337410E+02</pdfrwt>
<pdfrwt beam="2">  1       -2 0.98447528E-02 0.92337410E+02</pdfrwt>
<totfact> 0.67349660E+03</totfact>
</mgrwt>
</event>
<event>
 8    1  0.2964543E-004  0.1115334E+03  0.7546771E-02  0.1259386E+00
          1   -1    0    0  501    0  0.00000000000E+00  0.00000000000E+00  0.11753545971E+04  0.11753545971E+04  0.00000000000E+00 0. -1.
         -1   -1    0    0    0  501 -0.00000000000E+00 -0.00000000000E+00 -0.12359778349E+02  0.12359778349E+02  0.00000000000E+00 0.  1.
         23    2    1    2    0    0 -0.59034203206E+02 -0.63575451144E+00  0.34403033950E+03  0.36165807866E+03  0.94626899107E+02 0.  0.
         23    2    1    2    0    0  0.59034203206E+02  0.63575451144E+00  0.81896447927E+03  0.82605629680E+03  0.90447475657E+02 0.  0.
          5    1    4    4  502    0  0.50602603341E+02 -0.40774111959E+02  0.52679029524E+03  0.53080434892E+03  0.47000000000E+01 0. -1.
         -5    1    3    3    0  503 -0.83500800112E+02 -0.12195727162E+01  0.22492083474E+03  0.23996946238E+03  0.47000000000E+01 0.  1.
          5    1    3    3  503    0  0.24466596906E+02  0.58381820480E+00  0.11910950476E+03  0.12168861628E+03  0.47000000000E+01 0. -1.
         -5    1    4    4    0  502  0.84315998652E+01  0.41409866471E+02  0.29217418402E+03  0.29525194788E+03  0.47000000000E+01 0.  1.
<mgrwt>
<rscale>  0 0.11064192E+03</rscale>
<asrwt>0</asrwt>
<pdfrwt beam="1">  1        1 0.18082370E+00 0.11153336E+03</pdfrwt>
<pdfrwt beam="2">  1       -1 0.19015053E-02 0.11153336E+03</pdfrwt>
<totfact> 0.84502021E+03</totfact>
</mgrwt>
</event>
<event>
 8    1  0.2964543E-004  0.1053298E+03  0.7546771E-02  0.1270816E+00
          1   -1    0    0  501    0  0.00000000000E+00  0.00000000000E+00  0.40126376734E+03  0.40126376734E+03  0.00000000000E+00 0. -1.
         -1   -1    0    0    0  501 -0.00000000000E+00 -0.00000000000E+00 -0.29996379723E+02  0.29996379723E+02  0.00000000000E+00 0.  1.
         23    2    1    2    0    0  0.38943925154E+02 -0.26741036698E+02  0.11901638223E+03  0.15893162334E+03  0.94141644913E+02 0.  0.
         23    2    1    2    0    0 -0.38943925154E+02  0.26741036698E+02  0.25225100538E+03  0.27232852372E+03  0.91107314560E+02 0.  0.
          5    1    3    3  502    0 -0.10905916651E+02  0.27440113992E+02  0.47867990826E+02  0.56438758133E+02  0.47000000000E+01 0. -1.
         -5    1    4    4    0  503  0.65389919391E+01 -0.22849106685E+02  0.23169278619E+02  0.33522314413E+02  0.47000000000E+01 0.  1.
          5    1    4    4  503    0 -0.45482917093E+02  0.49590143382E+02  0.22908172676E+03  0.23880620931E+03  0.47000000000E+01 0. -1.
         -5    1    3    3    0  502  0.49849841806E+02 -0.54181150690E+02  0.71148391408E+02  0.10249286521E+03  0.47000000000E+01 0.  1.
<mgrwt>
<rscale>  0 0.10464742E+03</rscale>
<asrwt>0</asrwt>
<pdfrwt beam="1">  1        1 0.61732883E-01 0.10532978E+03</pdfrwt>
<pdfrwt beam="2">  1       -1 0.46148279E-02 0.10532978E+03</pdfrwt>
<totfact> 0.11120510E+04</totfact>
</mgrwt>
</event>
<event>
 8    1  0.2964543E-004  0.1162267E+03  0.7546771E-02  0.1249549E+00
         -1   -1    0    0    0  501 -0.00000000000E+00  0.00000000000E+00  0.12806671314E+02  0.12806671314E+02  0.00000000000E+00 0.  1.
          1   -1    0    0  501    0  0.00000000000E+00 -0.00000000000E+00 -0.10646265661E+04  0.10646265661E+04  0.00000000000E+00 0. -1.
         23    2    1    2    0    0 -0.71872778978E+02  0.15059242427E+02 -0.46970337674E+03  0.48386972050E+03  0.90089772780E+02 0.  0.
         23    2    1    2    0    0  0.71872778978E+02 -0.15059242427E+02 -0.58211651801E+03  0.59356351687E+03  0.89808300747E+02 0.  0.
          5    1    3    3  502    0  0.75040679171E+01  0.22381843433E+02 -0.39022491997E+02  0.45848694991E+02  0.47000000000E+01 0. -1.
         -5    1    4    4    0  503 -0.24618166416E+01  0.28985368498E+02 -0.15137396293E+03  0.15421536494E+03  0.47000000000E+01 0.  1.
          5    1    4    4  503    0  0.74334595620E+02 -0.44044610925E+02 -0.43074255507E+03  0.43934815194E+03  0.47000000000E+01 0. -1.
         -5    1    3    3    0  502 -0.79376846895E+02 -0.73226010059E+01 -0.43068088474E+03  0.43802102551E+03  0.47000000000E+01 0.  1.
<mgrwt>
<rscale>  0 0.11617215E+03</rscale>
<asrwt>0</asrwt>
<pdfrwt beam="1">  1        1 0.16378877E+00 0.11622669E+03</pdfrwt>
<pdfrwt beam="2">  1       -1 0.19702563E-02 0.11622669E+03</pdfrwt>
<totfact> 0.96106314E+03</totfact>
</mgrwt>
</event>
<event>
 7    1  0.2964543E-004  0.2404354E+03  0.7546771E-02  0.1119503E+00
         -1   -1    0    0    0  501 -0.00000000000E+00  0.00000000000E+00  0.13175472204E+03  0.13175472204E+03  0.00000000000E+00 0.  1.
          1   -1    0    0  501    0  0.00000000000E+00 -0.00000000000E+00 -0.10969091767E+03  0.10969091767E+03  0.00000000000E+00 0. -1.
         23    2    1    2    0    0  0.68009531924E+01 -0.18351327346E+02  0.36070825228E+02  0.99686710181E+02  0.90847738411E+02 0.  0.
          5    1    3    3  502    0  0.34127333654E+02  0.15033181081E+02 -0.73480403332E+01  0.38298239287E+02  0.47000000000E+01 0. -1.
         -5    1    3    3    0  502 -0.27326380462E+02 -0.33384508427E+02  0.43418865562E+02  0.61388470894E+02  0.47000000000E+01 0.  1.
          5    1    1    2  503    0  0.27755799546E+02 -0.32412645246E+02  0.40865663538E+02  0.59271042143E+02  0.47000000000E+01 0. -1.
         -5    1    1    2    0  503 -0.34556752739E+02  0.50763972592E+02 -0.54872684392E+02  0.82487887386E+02  0.47000000000E+01 0.  1.
<mgrwt>
<rscale>  0 0.24043541E+03</rscale>
<asrwt>0</asrwt>
<pdfrwt beam="1">  1        1 0.16875526E-01 0.24043541E+03</pdfrwt>
<pdfrwt beam="2">  1       -1 0.20269957E-01 0.24043541E+03</pdfrwt>
<totfact> 0.61955091E+03</totfact>
</mgrwt>
</event>
<event>
 8    1  0.2964543E-004  0.1035124E+03  0.7546771E-02  0.1273440E+00
         -1   -1    0    0    0  501 -0.00000000000E+00  0.00000000000E+00  0.27304861468E+03  0.27304861468E+03  0.00000000000E+00 0.  1.
          1   -1    0    0  501    0  0.00000000000E+00 -0.00000000000E+00 -0.41268947440E+02  0.41268947440E+02  0.00000000000E+00 0. -1.
         23    2    1    2    0    0  0.28435715669E+02 -0.38957725320E+02  0.15336133439E+03  0.18502572259E+03  0.91588890426E+02 0.  0.
         23    2    1    2    0    0 -0.28435715669E+02  0.38957725320E+02  0.78418332855E+02  0.12929183953E+03  0.90778029018E+02 0.  0.
          5    1    3    3  502    0  0.12023949148E+02  0.28953391300E+02  0.64682731112E+02  0.72033463924E+02  0.47000000000E+01 0. -1.
         -5    1    4    4    0  503  0.20119440939E+02 -0.14901658703E+02  0.39108494836E+02  0.46673501092E+02  0.47000000000E+01 0.  1.
          5    1    4    4  503    0 -0.48555156608E+02  0.53859384022E+02  0.39309838019E+02  0.82618338434E+02  0.47000000000E+01 0. -1.
         -5    1    3    3    0  502  0.16411766521E+02 -0.67911116619E+02  0.88678603274E+02  0.11299225867E+03  0.47000000000E+01 0.  1.
<mgrwt>
<rscale>  0 0.10333275E+03</rscale>
<asrwt>0</asrwt>
<pdfrwt beam="1">  1        1 0.63490690E-02 0.10351241E+03</pdfrwt>
<pdfrwt beam="2">  1       -1 0.42007478E-01 0.10351241E+03</pdfrwt>
<totfact> 0.62778032E+03</totfact>
</mgrwt>
</event>
<event>
 8    1  0.2964543E-004  0.9397897E+02  0.7546771E-02  0.1294559E+00
          4   -1    0    0  501    0  0.00000000000E+00  0.00000000000E+00  0.38693955887E+02  0.38693955887E+02  0.00000000000E+00 0. -1.
         -4   -1    0    0    0  501 -0.00000000000E+00 -0.00000000000E+00 -0.23986848802E+03  0.23986848802E+03  0.00000000000E+00 0.  1.
         23    2    1    2    0    0  0.15225866604E+02  0.12544518557E+02 -0.65461023946E+02  0.11453031148E+03  0.91885007659E+02 0.  0.
         23    2    1    2    0    0 -0.15225866604E+02 -0.12544518557E+02 -0.13571350818E+03  0.16403213242E+03  0.89995512130E+02 0.  0.
          5    1    4    4  502    0 -0.41862515685E+02  0.21843154929E+02 -0.82169419085E+02  0.94886759190E+02  0.47000000000E+01 0. -1.
         -5    1    4    4    0  502  0.26636649080E+02 -0.34387673486E+02 -0.53544089097E+02  0.69145373230E+02  0.47000000000E+01 0.  1.
          5    1    3    3  503    0 -0.10317143524E+00  0.48998578014E+02 -0.54046466476E+02  0.73102543254E+02  0.47000000000E+01 0. -1.
         -5    1    3    3    0  503  0.15329038040E+02 -0.36454059457E+02 -0.11414557470E+02  0.41427768228E+02  0.47000000000E+01 0.  1.
<mgrwt>
<rscale>  0 0.93513893E+02</rscale>
<asrwt>0</asrwt>
<pdfrwt beam="1">  1        4 0.59529164E-02 0.93978969E+02</pdfrwt>
<pdfrwt beam="2">  1       -4 0.36902844E-01 0.93978969E+02</pdfrwt>
<totfact> 0.19284723E+03</totfact>
</mgrwt>
</event>
<event>
 8    1  0.2964543E-004  0.9507508E+02  0.7546771E-02  0.1293283E+00
          1   -1    0    0  501    0  0.00000000000E+00  0.00000000000E+00  0.80549354886E+02  0.80549354886E+02  0.00000000000E+00 0. -1.
         -1   -1    0    0    0  501 -0.00000000000E+00 -0.00000000000E+00 -0.25844170830E+03  0.25844170830E+03  0.00000000000E+00 0.  1.
         23    2    1    2    0    0  0.23121737514E+02  0.10811530821E+02 -0.21921005864E+03  0.23893999360E+03  0.91584751945E+02 0.  0.
         23    2    1    2    0    0 -0.23121737514E+02 -0.10811530821E+02  0.41317705225E+02  0.10005106959E+03  0.87473194841E+02 0.  0.
          5    1    3    3  502    0 -0.24168587277E+02 -0.21544028574E+02 -0.11893440465E+03  0.12335213167E+03  0.47000000000E+01 0. -1.
         -5    1    3    3    0  502  0.47290324791E+02  0.32355559395E+02 -0.10027565399E+03  0.11558786193E+03  0.47000000000E+01 0.  1.
          5    1    4    4  503    0  0.20297991392E+02  0.24821991525E+02  0.26253186600E+02  0.41706828271E+02  0.47000000000E+01 0. -1.
         -5    1    4    4    0  503 -0.43419728906E+02 -0.35633522346E+02  0.15064518626E+02  0.58344241314E+02  0.47000000000E+01 0.  1.
<mgrwt>
<rscale>  0 0.94070796E+02</rscale>
<asrwt>0</asrwt>
<pdfrwt beam="1">  1        1 0.12392209E-01 0.95075079E+02</pdfrwt>
<pdfrwt beam="2">  1       -1 0.39760263E-01 0.95075079E+02</pdfrwt>
<totfact> 0.28392294E+03</totfact>
</mgrwt>
</event>
<event>
 8    1  0.2964543E-004  0.9980280E+02  0.7546771E-02  0.1283352E+00
          3   -1    0    0  501    0  0.00000000000E+00  0.00000000000E+00  0.67577398380E+02  0.67577398380E+02  0.00000000000E+00 0. -1.
         -3   -1    0    0    0  501 -0.00000000000E+00 -0.00000000000E+00 -0.25307955786E+03  0.25307955786E+03  0.00000000000E+00 0.  1.
         23    2    1    2    0    0 -0.25733497250E+02 -0.81837272295E+00 -0.20105638435E+03  0.22446440290E+03  0.96424664218E+02 0.  0.
         23    2    1    2    0    0  0.25733497250E+02  0.81837272295E+00  0.15554224867E+02  0.96192553338E+02  0.91368434329E+02 0.  0.
          5    1    4    4  502    0  0.10967221601E+02 -0.44735825108E+02  0.26548501556E+01  0.46375771983E+02  0.47000000000E+01 0. -1.
         -5    1    3    3    0  503 -0.24485861129E+02  0.45139473069E+02 -0.12824923845E+03  0.13822838561E+03  0.47000000000E+01 0.  1.
          5    1    3    3  503    0 -0.12476361210E+01 -0.45957845792E+02 -0.72807145895E+02  0.86236017297E+02  0.47000000000E+01 0. -1.
         -5    1    4    4    0  502  0.14766275649E+02  0.45554197831E+02  0.12899374711E+02  0.49816781354E+02  0.47000000000E+01 0.  1.
<mgrwt>
<rscale>  0 0.98560774E+02</rscale>
<asrwt>0</asrwt>
<pdfrwt beam="1">  1        3 0.10396523E-01 0.99802798E+02</pdfrwt>
<pdfrwt beam="2">  1       -3 0.38935316E-01 0.99802798E+02</pdfrwt>
<totfact> 0.99029113E+02</totfact>
</mgrwt>
</event>
<event>
 8    1  0.2964543E-004  0.1221522E+03  0.7546771E-02  0.1241898E+00
          2   -1    0    0  501    0  0.00000000000E+00  0.00000000000E+00  0.39148777372E+03  0.39148777372E+03  0.00000000000E+00 0. -1.
         -2   -1    0    0    0  501 -0.00000000000E+00 -0.00000000000E+00 -0.39751442118E+02  0.39751442118E+02  0.00000000000E+00 0.  1.
         23    2    1    2    0    0 -0.49082337322E+02  0.52773468917E+02  0.10940963025E+03  0.15986605306E+03  0.91610986639E+02 0.  0.
         23    2    1    2    0    0  0.49082337322E+02 -0.52773468917E+02  0.24232670136E+03  0.27137316278E+03  0.98625800003E+02 0.  0.
          5    1    3    3  502    0 -0.11833173743E+02 -0.26193471244E+02  0.27415943119E+02  0.39998073376E+02  0.47000000000E+01 0. -1.
         -5    1    3    3    0  502 -0.37249163579E+02  0.78966940161E+02  0.81993687129E+02  0.11986797969E+03  0.47000000000E+01 0.  1.
          5    1    4    4  503    0  0.49928009250E+02 -0.73024668251E+02  0.23160084214E+03  0.24796461110E+03  0.47000000000E+01 0. -1.
         -5    1    4    4    0  503 -0.84567192871E+00  0.20251199334E+02  0.10725859221E+02  0.23408551675E+02  0.47000000000E+01 0.  1.
<mgrwt>
<rscale>  0 0.12073000E+03</rscale>
<asrwt>0</asrwt>
<pdfrwt beam="1">  1        2 0.60228886E-01 0.12215221E+03</pdfrwt>
<pdfrwt beam="2">  1       -2 0.61156068E-02 0.12215221E+03</pdfrwt>
<totfact> 0.11037980E+04</totfact>
</mgrwt>
</event>
<event>
 8    1  0.2964543E-004  0.1092153E+03  0.7546771E-02  0.1262316E+00
         -1   -1    0    0    0  501 -0.00000000000E+00  0.00000000000E+00  0.24947922857E+02  0.24947922857E+02  0.00000000000E+00 0.  1.
          1   -1    0    0  501    0  0.00000000000E+00 -0.00000000000E+00 -0.47939074498E+03  0.47939074498E+03  0.00000000000E+00 0. -1.
         23    2    1    2    0    0 -0.57950487409E+02  0.18503105133E+02 -0.25072679545E+03  0.27348107690E+03  0.90704738422E+02 0.  0.
         23    2    1    2    0    0  0.57950487409E+02 -0.18503105133E+02 -0.20371602667E+03  0.23085759094E+03  0.89968793932E+02 0.  0.
          5    1    4    4  502    0  0.63035782567E+02 -0.38932597809E+02 -0.19297045784E+03  0.20675817918E+03  0.47000000000E+01 0. -1.
         -5    1    4    4    0  502 -0.50852951587E+01  0.20429492676E+02 -0.10745568823E+02  0.24099411760E+02  0.47000000000E+01 0.  1.
          5    1    3    3  503    0 -0.30979832166E+02  0.52638428299E+02 -0.10761430478E+03  0.12382844071E+03  0.47000000000E+01 0. -1.
         -5    1    3    3    0  503 -0.26970655243E+02 -0.34135323165E+02 -0.14311249067E+03  0.14965263619E+03  0.47000000000E+01 0.  1.
<mgrwt>
<rscale>  0 0.10906233E+03</rscale>
<asrwt>0</asrwt>
<pdfrwt beam="1">  1        1 0.73752419E-01 0.10921526E+03</pdfrwt>
<pdfrwt beam="2">  1       -1 0.38381422E-02 0.10921526E+03</pdfrwt>
<totfact> 0.11658178E+04</totfact>
</mgrwt>
</event>
<event>
 8    1  0.2964543E-004  0.1111494E+03  0.7546771E-02  0.1258575E+00
         -1   -1    0    0    0  501 -0.00000000000E+00  0.00000000000E+00  0.40950437408E+02  0.40950437408E+02  0.00000000000E+00 0.  1.
          1   -1    0    0  501    0  0.00000000000E+00 -0.00000000000E+00 -0.47356421979E+03  0.47356421979E+03  0.00000000000E+00 0. -1.
         23    2    1    2    0    0  0.59742866094E+02 -0.18385680835E+02 -0.61165940275E+02  0.12686785550E+03  0.91907220614E+02 0.  0.
         23    2    1    2    0    0 -0.59742866094E+02  0.18385680835E+02 -0.37144784211E+03  0.38764680170E+03  0.91593122831E+02 0.  0.
          5    1    4    4  502    0 -0.55866592644E+02  0.46782776573E+02 -0.32308289373E+03  0.33123156639E+03  0.47000000000E+01 0. -1.
         -5    1    3    3    0  503  0.53126434192E+02  0.24520647225E+02 -0.99072880132E+01  0.59530870194E+02  0.47000000000E+01 0.  1.
          5    1    3    3  503    0  0.66164319027E+01 -0.42906328060E+02 -0.51258652262E+02  0.67336985308E+02  0.47000000000E+01 0.  1.
         -5    1    4    4    0  502 -0.38762734504E+01 -0.28397095739E+02 -0.48364948383E+02  0.56415235304E+02  0.47000000000E+01 0.  1.
<mgrwt>
<rscale>  0 0.11108441E+03</rscale>
<asrwt>0</asrwt>
<pdfrwt beam="1">  1        1 0.72856036E-01 0.11114936E+03</pdfrwt>
<pdfrwt beam="2">  1       -1 0.63000671E-02 0.11114936E+03</pdfrwt>
<totfact> 0.57210324E+03</totfact>
</mgrwt>
</event>
<event>
 8    1  0.2964543E-004  0.1320158E+03  0.7546771E-02  0.1224983E+00
         -3   -1    0    0    0  501 -0.00000000000E+00  0.00000000000E+00  0.38811028633E+02  0.38811028633E+02  0.00000000000E+00 0.  1.
          3   -1    0    0  501    0  0.00000000000E+00 -0.00000000000E+00 -0.49976496100E+03  0.49976496100E+03  0.00000000000E+00 0. -1.
         23    2    1    2    0    0 -0.10358826353E+02  0.95030988963E+02 -0.14198703570E+03  0.19387752276E+03  0.91049334845E+02 0.  0.
         23    2    1    2    0    0  0.10358826353E+02 -0.95030988963E+02 -0.31896689667E+03  0.34469846688E+03  0.89100829140E+02 0.  0.
          5    1    4    4  502    0  0.45079358072E+02 -0.42916689175E+02 -0.10972629463E+03  0.12623763491E+03  0.47000000000E+01 0. -1.
         -5    1    4    4    0  502 -0.34720531719E+02 -0.52114299787E+02 -0.20924060204E+03  0.21846083197E+03  0.47000000000E+01 0.  1.
          5    1    3    3  503    0  0.17135843432E+02  0.46430147010E+02 -0.12623140164E+03  0.13566817033E+03  0.47000000000E+01 0. -1.
         -5    1    3    3    0  503 -0.27494669785E+02  0.48600841953E+02 -0.15755634067E+02  0.58209352427E+02  0.47000000000E+01 0.  1.
<mgrwt>
<rscale>  0 0.13168048E+03</rscale>
<asrwt>0</asrwt>
<pdfrwt beam="1">  1        3 0.76886910E-01 0.13201582E+03</pdfrwt>
<pdfrwt beam="2">  1       -3 0.59709281E-02 0.13201582E+03</pdfrwt>
<totfact> 0.64388947E+02</totfact>
</mgrwt>
</event>
<event>
 8    1  0.1002023E-003  0.1191508E+03  0.7546771E-02  0.1255817E+00
         -2   -1    0    0    0  501 -0.00000000000E+00  0.00000000000E+00  0.15488630467E+03  0.15488630467E+03  0.00000000000E+00 0.  1.
          2   -1    0    0  501    0  0.00000000000E+00 -0.00000000000E+00 -0.25680809862E+03  0.25680809862E+03  0.00000000000E+00 0. -1.
         23    2    1    2    0    0  0.26191851297E+02 -0.45553061339E+01 -0.22263738471E+03  0.24207966248E+03  0.91260035215E+02 0.  0.
         23    2    1    2    0    0 -0.26191851297E+02  0.45553061339E+01  0.12071559076E+03  0.16961474081E+03  0.11614707296E+03 0.  0.
          5    1    4    4  502    0  0.42402427111E+02 -0.11588213652E+02  0.69521589110E+02  0.82386854977E+02  0.47000000000E+01 0. -1.
         -5    1    4    4    0  502 -0.68594278408E+02  0.16143519786E+02  0.51194001651E+02  0.87227885831E+02  0.47000000000E+01 0.  1.
          5    1    3    3  503    0  0.50088233422E+02 -0.31007290063E+02 -0.13899212375E+03  0.15103371686E+03  0.47000000000E+01 0. -1.
         -5    1    3    3    0  503 -0.23896382125E+02  0.26451983930E+02 -0.83645260962E+02  0.91045945620E+02  0.47000000000E+01 0.  1.
<mgrwt>
<rscale>  0 0.11260680E+03</rscale>
<asrwt>0</asrwt>
<pdfrwt beam="1">  1        2 0.39508938E-01 0.11915077E+03</pdfrwt>
<pdfrwt beam="2">  1       -2 0.23828663E-01 0.11915077E+03</pdfrwt>
<totfact> 0.19466940E+03</totfact>
</mgrwt>
</event>
<event>
 8    1  0.2964543E-004  0.1053758E+03  0.7546771E-02  0.1269772E+00
          2   -1    0    0  501    0  0.00000000000E+00  0.00000000000E+00  0.98631268131E+02  0.98631268131E+02  0.00000000000E+00 0. -1.
         -2   -1    0    0    0  501 -0.00000000000E+00 -0.00000000000E+00 -0.11492865987E+03  0.11492865987E+03  0.00000000000E+00 0.  1.
         23    2    1    2    0    0  0.54401699736E+01 -0.51105838204E+02 -0.25978031466E+02  0.10853068893E+03  0.91992663690E+02 0.  0.
         23    2    1    2    0    0 -0.54401699736E+01  0.51105838204E+02  0.96806397312E+01  0.10502923907E+03  0.91082512732E+02 0.  0.
          5    1    4    4  502    0 -0.41740647078E+02  0.51993809780E+02 -0.11358568241E+01  0.66850714616E+02  0.47000000000E+01 0.  1.
         -5    1    4    4    0  502  0.36300477105E+02 -0.88797157584E+00  0.10816496555E+02  0.38178524451E+02  0.47000000000E+01 0. -1.
          5    1    3    3  503    0  0.18097855192E+02  0.23077982013E+02 -0.38651971301E+01  0.29952551898E+02  0.47000000000E+01 0. -1.
         -5    1    3    3    0  503 -0.12657685219E+02 -0.74183820217E+02 -0.22112834336E+02  0.78578137032E+02  0.47000000000E+01 0.  1.
<mgrwt>
<rscale>  0 0.10517680E+03</rscale>
<asrwt>0</asrwt>
<pdfrwt beam="1">  1        2 0.15174041E-01 0.10537577E+03</pdfrwt>
<pdfrwt beam="2">  1       -2 0.17681332E-01 0.10537577E+03</pdfrwt>
<totfact> 0.91878981E+03</totfact>
</mgrwt>
</event>
<event>
 8    1  0.2964543E-004  0.9651405E+02  0.7546771E-02  0.1287856E+00
         -2   -1    0    0    0  501 -0.00000000000E+00  0.00000000000E+00  0.28997240765E+02  0.28997240765E+02  0.00000000000E+00 0.  1.
          2   -1    0    0  501    0  0.00000000000E+00 -0.00000000000E+00 -0.52865292086E+03  0.52865292086E+03  0.00000000000E+00 0. -1.
         23    2    1    2    0    0  0.11817303756E+02  0.25286355480E+02 -0.75117669982E+02  0.12230137627E+03  0.92390009488E+02 0.  0.
         23    2    1    2    0    0 -0.11817303756E+02 -0.25286355480E+02 -0.42453801011E+03  0.43534878535E+03  0.92287563814E+02 0.  0.
          5    1    3    3  502    0  0.24028689402E+02 -0.28950678003E+02 -0.45186795491E+02  0.58986915143E+02  0.47000000000E+01 0. -1.
         -5    1    4    4    0  503 -0.45283473639E+02 -0.14443292711E+02 -0.12670338477E+03  0.13540694000E+03  0.47000000000E+01 0.  1.
          5    1    4    4  503    0  0.33466169883E+02 -0.10843062769E+02 -0.29783462535E+03  0.29994184535E+03  0.47000000000E+01 0. -1.
         -5    1    3    3    0  502 -0.12211385646E+02  0.54237033483E+02 -0.29930874490E+02  0.63314461130E+02  0.47000000000E+01 0.  1.
<mgrwt>
<rscale>  0 0.96489527E+02</rscale>
<asrwt>0</asrwt>
<pdfrwt beam="1">  1        2 0.81331219E-01 0.96514052E+02</pdfrwt>
<pdfrwt beam="2">  1       -2 0.44611140E-02 0.96514052E+02</pdfrwt>
<totfact> 0.12570552E+04</totfact>
</mgrwt>
</event>
<event>
 8    1  0.2964543E-004  0.9591757E+02  0.7546771E-02  0.1289570E+00
          1   -1    0    0  501    0  0.00000000000E+00  0.00000000000E+00  0.18814070194E+03  0.18814070194E+03  0.00000000000E+00 0. -1.
         -1   -1    0    0    0  501 -0.00000000000E+00 -0.00000000000E+00 -0.73618566245E+02  0.73618566245E+02  0.00000000000E+00 0.  1.
         23    2    1    2    0    0 -0.25278819917E+02 -0.11602991678E+02  0.13387905277E+03  0.16469299113E+03  0.91796145913E+02 0.  0.
         23    2    1    2    0    0  0.25278819917E+02  0.11602991678E+02 -0.19356917073E+02  0.97066277055E+02  0.90958912430E+02 0.  0.
          5    1    4    4  502    0  0.24364557586E+02  0.43460636844E+02  0.12686279571E+02  0.51628386674E+02  0.47000000000E+01 0. -1.
         -5    1    4    4    0  502  0.91426233083E+00 -0.31857645165E+02 -0.32043196645E+02  0.45437890381E+02  0.47000000000E+01 0.  1.
          5    1    3    3  503    0 -0.54797558892E+02  0.60258208548E+01  0.52708480108E+02  0.76415684599E+02  0.47000000000E+01 0. -1.
         -5    1    3    3    0  503  0.29518738976E+02 -0.17628812533E+02  0.81170572660E+02  0.88277306528E+02  0.47000000000E+01 0.  1.
<mgrwt>
<rscale>  0 0.95716704E+02</rscale>
<asrwt>0</asrwt>
<pdfrwt beam="1">  1        1 0.28944723E-01 0.95917572E+02</pdfrwt>
<pdfrwt beam="2">  1       -1 0.11325933E-01 0.95917572E+02</pdfrwt>
<totfact> 0.73440178E+03</totfact>
</mgrwt>
</event>
<event>
 8    1  0.2964543E-004  0.1084861E+03  0.7546771E-02  0.1263522E+00
          2   -1    0    0  501    0  0.00000000000E+00  0.00000000000E+00  0.16546733714E+03  0.16546733714E+03  0.00000000000E+00 0. -1.
         -2   -1    0    0    0  501 -0.00000000000E+00 -0.00000000000E+00 -0.74501280983E+02  0.74501280983E+02  0.00000000000E+00 0.  1.
         23    2    1    2    0    0  0.19749181094E+02  0.58178355930E+02  0.19260452287E+02  0.10992660228E+03  0.89096249151E+02 0.  0.
         23    2    1    2    0    0 -0.19749181094E+02 -0.58178355930E+02  0.71705603867E+02  0.13004201585E+03  0.89411861667E+02 0.  0.
          5    1    3    3  502    0 -0.24783256915E+02 -0.46497655129E+01 -0.98333412987E+01  0.27470251978E+02  0.47000000000E+01 0. -1.
         -5    1    3    3    0  502  0.44532438009E+02  0.62828121443E+02  0.29093793586E+02  0.82456350297E+02  0.47000000000E+01 0.  1.
          5    1    4    4  503    0 -0.49912491897E+02 -0.19895003035E+02  0.16839685148E+02  0.56504274078E+02  0.47000000000E+01 0. -1.
         -5    1    4    4    0  503  0.30163310804E+02 -0.38283352895E+02  0.54865918719E+02  0.73537741768E+02  0.47000000000E+01 0.  1.
<mgrwt>
<rscale>  0 0.10842104E+03</rscale>
<asrwt>0</asrwt>
<pdfrwt beam="1">  1        2 0.25456513E-01 0.10848609E+03</pdfrwt>
<pdfrwt beam="2">  1       -2 0.11461736E-01 0.10848609E+03</pdfrwt>
<totfact> 0.10367599E+04</totfact>
</mgrwt>
</event>
<event>
 8    1  0.2964543E-004  0.9919740E+02  0.7546771E-02  0.1282760E+00
          1   -1    0    0  501    0  0.00000000000E+00  0.00000000000E+00  0.23662667965E+03  0.23662667965E+03  0.00000000000E+00 0. -1.
         -1   -1    0    0    0  501 -0.00000000000E+00 -0.00000000000E+00 -0.43690083124E+02  0.43690083124E+02  0.00000000000E+00 0.  1.
         23    2    1    2    0    0  0.24704996763E+02  0.17344568817E+02  0.62265047941E+02  0.11711985136E+03  0.94493134433E+02 0.  0.
         23    2    1    2    0    0 -0.24704996763E+02 -0.17344568817E+02  0.13067154859E+03  0.16319691142E+03  0.92989286227E+02 0.  0.
          5    1    4    4  502    0  0.20164210842E+02  0.10892885498E+01 -0.29713038265E+01  0.20945180707E+02  0.47000000000E+01 0.  1.
         -5    1    3    3    0  503  0.53595040348E+02 -0.10381089420E+02  0.51947631505E+02  0.75503919014E+02  0.47000000000E+01 0.  1.
          5    1    3    3  503    0 -0.28890043585E+02  0.27725658238E+02  0.10317416435E+02  0.41615932345E+02  0.47000000000E+01 0. -1.
         -5    1    4    4    0  502 -0.44869207605E+02 -0.18433857367E+02  0.13364285241E+03  0.14225173071E+03  0.47000000000E+01 0. -1.
<mgrwt>
<rscale>  0 0.98837578E+02</rscale>
<asrwt>0</asrwt>
<pdfrwt beam="1">  1        1 0.36404104E-01 0.99197396E+02</pdfrwt>
<pdfrwt beam="2">  1       -1 0.67215514E-02 0.99197396E+02</pdfrwt>
<totfact> 0.12171596E+04</totfact>
</mgrwt>
</event>
<event>
 8    1  0.2964543E-004  0.9426014E+02  0.7546771E-02  0.1293828E+00
         -2   -1    0    0    0  501 -0.00000000000E+00  0.00000000000E+00  0.26908785222E+02  0.26908785222E+02  0.00000000000E+00 0.  1.
          2   -1    0    0  501    0  0.00000000000E+00 -0.00000000000E+00 -0.40294679813E+03  0.40294679813E+03  0.00000000000E+00 0. -1.
         23    2    1    2    0    0 -0.23279040760E+02  0.10198997979E+02 -0.91669376535E+02  0.13027171381E+03  0.89002873701E+02 0.  0.
         23    2    1    2    0    0  0.23279040760E+02 -0.10198997979E+02 -0.28436863637E+03  0.29958386954E+03  0.90769159064E+02 0.  0.
          5    1    3    3  502    0 -0.13153451135E+01 -0.22287345503E+02 -0.87652199752E+02  0.90572921028E+02  0.47000000000E+01 0. -1.
         -5    1    3    3    0  502 -0.21963695647E+02  0.32486343482E+02 -0.40171767839E+01  0.39698792785E+02  0.47000000000E+01 0.  1.
          5    1    4    4  503    0  0.51053938217E+02 -0.30339779037E+02 -0.18479351665E+03  0.19415906004E+03  0.47000000000E+01 0. -1.
         -5    1    4    4    0  503 -0.27774897456E+02  0.20140781058E+02 -0.99575119722E+02  0.10542480950E+03  0.47000000000E+01 0.  1.
<mgrwt>
<rscale>  0 0.93832323E+02</rscale>
<asrwt>0</asrwt>
<pdfrwt beam="1">  1        2 0.61991809E-01 0.94260138E+02</pdfrwt>
<pdfrwt beam="2">  1       -2 0.41398135E-02 0.94260138E+02</pdfrwt>
<totfact> 0.18739657E+04</totfact>
</mgrwt>
</event>
<event>
 8    1  0.2964543E-004  0.1767938E+03  0.7546771E-02  0.1171375E+00
         -4   -1    0    0    0  501 -0.00000000000E+00  0.00000000000E+00  0.10843059821E+04  0.10843059821E+04  0.00000000000E+00 0.  1.
          4   -1    0    0  501    0  0.00000000000E+00 -0.00000000000E+00 -0.29140378805E+02  0.29140378805E+02  0.00000000000E+00 0. -1.
         23    2    1    2    0    0  0.10444833000E+03 -0.10673839465E+03  0.60470123201E+03  0.62953086392E+03  0.91339969897E+02 0.  0.
         23    2    1    2    0    0 -0.10444833000E+03  0.10673839465E+03  0.45046437132E+03  0.48391549702E+03  0.94623041030E+02 0.  0.
          5    1    3    3  502    0  0.59789716051E+02 -0.37886971920E+02  0.13314713656E+03  0.15086577730E+03  0.47000000000E+01 0. -1.
         -5    1    3    3    0  502  0.44658613949E+02 -0.68851422734E+02  0.47155409544E+03  0.47866508661E+03  0.47000000000E+01 0.  1.
          5    1    4    4  503    0 -0.61160072759E+02  0.50302297542E+01  0.21706145950E+03  0.22561831688E+03  0.47000000000E+01 0. -1.
         -5    1    4    4    0  503 -0.43288257241E+02  0.10170816490E+03  0.23340291182E+03  0.25829718014E+03  0.47000000000E+01 0.  1.
<mgrwt>
<rscale>  0 0.17635843E+03</rscale>
<asrwt>0</asrwt>
<pdfrwt beam="1">  1        4 0.44831360E-02 0.17679383E+03</pdfrwt>
<pdfrwt beam="2">  1       -4 0.16681627E+00 0.17679383E+03</pdfrwt>
<totfact> 0.11983919E+02</totfact>
</mgrwt>
</event>
<event>
 8    1  0.2964543E-004  0.9309926E+02  0.7546771E-02  0.1296774E+00
         -1   -1    0    0    0  501 -0.00000000000E+00  0.00000000000E+00  0.41549044241E+02  0.41549044241E+02  0.00000000000E+00 0.  1.
          1   -1    0    0  501    0  0.00000000000E+00 -0.00000000000E+00 -0.28535561601E+03  0.28535561601E+03  0.00000000000E+00 0. -1.
         23    2    1    2    0    0  0.13742181420E+02  0.24501203005E+01 -0.20825295082E+03  0.22724759041E+03  0.89873940500E+02 0.  0.
         23    2    1    2    0    0 -0.13742181420E+02 -0.24501203005E+01 -0.35553620942E+02  0.99657069838E+02  0.92046841157E+02 0.  0.
          5    1    4    4  502    0  0.22858543354E+02 -0.32480028650E+02 -0.33274263343E+02  0.52026261315E+02  0.47000000000E+01 0. -1.
         -5    1    4    4    0  502 -0.36600724774E+02  0.30029908350E+02 -0.22793575988E+01  0.47630808523E+02  0.47000000000E+01 0.  1.
          5    1    3    3  503    0 -0.12270009113E+02 -0.35646273161E+02 -0.13751854853E+03  0.14266972736E+03  0.47000000000E+01 0. -1.
         -5    1    3    3    0  503  0.26012190533E+02  0.38096393462E+02 -0.70734402294E+02  0.84577863055E+02  0.47000000000E+01 0.  1.
<mgrwt>
<rscale>  0 0.92557610E+02</rscale>
<asrwt>0</asrwt>
<pdfrwt beam="1">  1        1 0.43900864E-01 0.93099257E+02</pdfrwt>
<pdfrwt beam="2">  1       -1 0.63921607E-02 0.93099257E+02</pdfrwt>
<totfact> 0.10371299E+04</totfact>
</mgrwt>
</event>
<event>
 8    1  0.2964543E-004  0.1204304E+03  0.7546771E-02  0.1245668E+00
         -1   -1    0    0    0  501 -0.00000000000E+00  0.00000000000E+00  0.12960796099E+03  0.12960796099E+03  0.00000000000E+00 0.  1.
          1   -1    0    0  501    0  0.00000000000E+00 -0.00000000000E+00 -0.27453585335E+03  0.27453585335E+03  0.00000000000E+00 0. -1.
         23    2    1    2    0    0 -0.57485006103E+02  0.32325834308E+02 -0.23221003642E+03  0.26158171093E+03  0.10076708285E+03 0.  0.
         23    2    1    2    0    0  0.57485006103E+02 -0.32325834308E+02  0.87282144068E+02  0.14256210341E+03  0.91412773534E+02 0.  0.
          5    1    3    3  502    0 -0.12786429053E+02 -0.34939108262E+02 -0.52661653360E+02  0.64649623268E+02  0.47000000000E+01 0. -1.
         -5    1    3    3    0  502 -0.44698577050E+02  0.67264942570E+02 -0.17954838306E+03  0.19693208766E+03  0.47000000000E+01 0.  1.
          5    1    4    4  503    0  0.23727361314E+02  0.39395525481E+01 -0.15057263668E+02  0.28763152442E+02  0.47000000000E+01 0. -1.
         -5    1    4    4    0  503  0.33757644788E+02 -0.36265386856E+02  0.10233940774E+03  0.11379895097E+03  0.47000000000E+01 0.  1.
<mgrwt>
<rscale>  0 0.11845472E+03</rscale>
<asrwt>0</asrwt>
<pdfrwt beam="1">  1        1 0.42236285E-01 0.12043044E+03</pdfrwt>
<pdfrwt beam="2">  1       -1 0.19939686E-01 0.12043044E+03</pdfrwt>
<totfact> 0.19358000E+03</totfact>
</mgrwt>
</event>
<event>
 8    1  0.2964543E-004  0.9199445E+02  0.7546771E-02  0.1298255E+00
          2   -1    0    0  501    0  0.00000000000E+00  0.00000000000E+00  0.35975231480E+03  0.35975231480E+03  0.00000000000E+00 0. -1.
         -2   -1    0    0    0  501 -0.00000000000E+00 -0.00000000000E+00 -0.23550931192E+02  0.23550931192E+02  0.00000000000E+00 0.  1.
         23    2    1    2    0    0  0.65633395298E+01  0.48011909462E+01  0.18065250703E+03  0.20272717430E+03  0.91634327868E+02 0.  0.
         23    2    1    2    0    0 -0.65633395298E+01 -0.48011909462E+01  0.15554887657E+03  0.18057607169E+03  0.91357188013E+02 0.  0.
          5    1    4    4  502    0  0.11408900059E+02 -0.20048780044E+02  0.36721588001E+00  0.23544456446E+02  0.47000000000E+01 0. -1.
         -5    1    4    4    0  502 -0.17972239588E+02  0.15247589098E+02  0.15518166069E+03  0.15703161524E+03  0.47000000000E+01 0.  1.
          5    1    3    3  503    0  0.44996737510E+01 -0.38253980567E+02  0.13186651492E+03  0.13745720006E+03  0.47000000000E+01 0. -1.
         -5    1    3    3    0  503  0.20636657787E+01  0.43055171514E+02  0.48785992114E+02  0.65269974238E+02  0.47000000000E+01 0.  1.
<mgrwt>
<rscale>  0 0.91925360E+02</rscale>
<asrwt>0</asrwt>
<pdfrwt beam="1">  1        2 0.55346506E-01 0.91994450E+02</pdfrwt>
<pdfrwt beam="2">  1       -2 0.36232204E-02 0.91994450E+02</pdfrwt>
<totfact> 0.25614247E+04</totfact>
</mgrwt>
</event>
<event>
 8    1  0.2964543E-004  0.9576597E+02  0.7546771E-02  0.1289824E+00
          1   -1    0    0  501    0  0.00000000000E+00  0.00000000000E+00  0.48934504896E+03  0.48934504896E+03  0.00000000000E+00 0. -1.
         -1   -1    0    0    0  501 -0.00000000000E+00 -0.00000000000E+00 -0.38252796411E+02  0.38252796411E+02  0.00000000000E+00 0.  1.
         23    2    1    2    0    0  0.16743572263E+02  0.25101555920E+02  0.41418542050E+03  0.42496629356E+03  0.90201733806E+02 0.  0.
         23    2    1    2    0    0 -0.16743572263E+02 -0.25101555920E+02  0.36906832050E+02  0.10263155182E+03  0.90888315280E+02 0.  0.
          5    1    3    3  502    0  0.23095295700E+02  0.55208051301E+02  0.32520601702E+03  0.33069981118E+03  0.47000000000E+01 0. -1.
         -5    1    3    3    0  502 -0.63517234372E+01 -0.30106495382E+02  0.88979403486E+02  0.94266482376E+02  0.47000000000E+01 0.  1.
          5    1    4    4  503    0 -0.52696717158E+02 -0.52740257745E+01  0.12433906724E+02  0.54602668282E+02  0.47000000000E+01 0. -1.
         -5    1    4    4    0  503  0.35953144895E+02 -0.19827530145E+02  0.24472925327E+02  0.48028883534E+02  0.47000000000E+01 0.  1.
<mgrwt>
<rscale>  0 0.95602712E+02</rscale>
<asrwt>0</asrwt>
<pdfrwt beam="1">  1        1 0.75283849E-01 0.95765971E+02</pdfrwt>
<pdfrwt beam="2">  1       -1 0.58850459E-02 0.95765971E+02</pdfrwt>
<totfact> 0.60102646E+03</totfact>
</mgrwt>
</event>
<event>
 8    1  0.2964543E-004  0.9824699E+02  0.7546771E-02  0.1284792E+00
         -1   -1    0    0    0  501 -0.00000000000E+00  0.00000000000E+00  0.18915545583E+02  0.18915545583E+02  0.00000000000E+00 0.  1.
          1   -1    0    0  501    0  0.00000000000E+00 -0.00000000000E+00 -0.50306996084E+03  0.50306996084E+03  0.00000000000E+00 0. -1.
         23    2    1    2    0    0 -0.17589468387E+02  0.27003053010E+02 -0.23704650707E+03  0.25606298286E+03  0.91316211104E+02 0.  0.
         23    2    1    2    0    0  0.17589468387E+02 -0.27003053010E+02 -0.24710790819E+03  0.26592252356E+03  0.92811184543E+02 0.  0.
          5    1    4    4  502    0  0.25128441289E+02 -0.59363371787E+01 -0.24077117161E+03  0.24219728681E+03  0.47000000000E+01 0. -1.
         -5    1    3    3    0  503  0.47409678130E+01  0.57598788190E+02 -0.12774704752E+03  0.14029075282E+03  0.47000000000E+01 0.  1.
          5    1    3    3  503    0 -0.22330436200E+02 -0.30595735179E+02 -0.10929945955E+03  0.11577223004E+03  0.47000000000E+01 0. -1.
         -5    1    4    4    0  502 -0.75389729028E+01 -0.21066715831E+02 -0.63367365836E+01  0.23725236751E+02  0.47000000000E+01 0.  1.
<mgrwt>
<rscale>  0 0.97892316E+02</rscale>
<asrwt>0</asrwt>
<pdfrwt beam="1">  1        1 0.77395369E-01 0.98246986E+02</pdfrwt>
<pdfrwt beam="2">  1       -1 0.29100843E-02 0.98246986E+02</pdfrwt>
<totfact> 0.16217925E+04</totfact>
</mgrwt>
</event>
<event>
 8    1  0.2964543E-004  0.1048589E+03  0.7546771E-02  0.1271011E+00
          1   -1    0    0  501    0  0.00000000000E+00  0.00000000000E+00  0.67799425705E+03  0.67799425705E+03  0.00000000000E+00 0. -1.
         -1   -1    0    0    0  501 -0.00000000000E+00 -0.00000000000E+00 -0.16027295501E+02  0.16027295501E+02  0.00000000000E+00 0.  1.
         23    2    1    2    0    0  0.31351895739E+02 -0.41327091460E+02  0.33164069638E+03  0.34782314433E+03  0.91129130246E+02 0.  0.
         23    2    1    2    0    0 -0.31351895739E+02  0.41327091460E+02  0.33032626517E+03  0.34619840822E+03  0.89705220258E+02 0.  0.
          5    1    3    3  502    0  0.41087950255E+02 -0.65409397832E+02  0.22392682785E+03  0.23692176601E+03  0.47000000000E+01 0. -1.
         -5    1    4    4    0  503 -0.52726209214E+02  0.55985990010E+02  0.23566612784E+03  0.24794172305E+03  0.47000000000E+01 0.  1.
          5    1    4    4  503    0  0.21374313475E+02 -0.14658898550E+02  0.94660137325E+02  0.98256685176E+02  0.47000000000E+01 0. -1.
         -5    1    3    3    0  502 -0.97360545165E+01  0.24082306372E+02  0.10771386853E+03  0.11090137831E+03  0.47000000000E+01 0.  1.
<mgrwt>
<rscale>  0 0.10454875E+03</rscale>
<asrwt>0</asrwt>
<pdfrwt beam="1">  1        1 0.10430679E+00 0.10485890E+03</pdfrwt>
<pdfrwt beam="2">  1       -1 0.24657383E-02 0.10485890E+03</pdfrwt>
<totfact> 0.13886360E+04</totfact>
</mgrwt>
</event>
<event>
 8    1  0.2964543E-004  0.1437646E+03  0.7546771E-02  0.1209922E+00
         -2   -1    0    0    0  501 -0.00000000000E+00  0.00000000000E+00  0.83456879336E+03  0.83456879336E+03  0.00000000000E+00 0.  1.
          2   -1    0    0  501    0  0.00000000000E+00 -0.00000000000E+00 -0.37205714080E+02  0.37205714080E+02  0.00000000000E+00 0. -1.
         23    2    1    2    0    0  0.42246996038E+00  0.10581212859E+03  0.66310539059E+03  0.67851089160E+03  0.97323614550E+02 0.  0.
         23    2    1    2    0    0 -0.42246996038E+00 -0.10581212859E+03  0.13425768869E+03  0.19326361584E+03  0.90162704032E+02 0.  0.
          5    1    3    3  502    0  0.42924959225E+02  0.68370677732E+02  0.28852129198E+03  0.29963932923E+03  0.47000000000E+01 0. -1.
         -5    1    4    4    0  503  0.35725028962E+02 -0.18698027334E+02  0.63065082981E+02  0.75001257402E+02  0.47000000000E+01 0.  1.
          5    1    4    4  503    0 -0.36147498922E+02 -0.87114101257E+02  0.71192605707E+02  0.11826235844E+03  0.47000000000E+01 0. -1.
         -5    1    3    3    0  502 -0.42502489265E+02  0.37441450859E+02  0.37458409862E+03  0.37887156237E+03  0.47000000000E+01 0.  1.
<mgrwt>
<rscale>  0 0.14256271E+03</rscale>
<asrwt>0</asrwt>
<pdfrwt beam="1">  1        2 0.57239566E-02 0.14376464E+03</pdfrwt>
<pdfrwt beam="2">  1       -2 0.12839518E+00 0.14376464E+03</pdfrwt>
<totfact> 0.60584166E+02</totfact>
</mgrwt>
</event>
<event>
 8    1  0.2964543E-004  0.1149241E+03  0.7546771E-02  0.1253031E+00
          1   -1    0    0  501    0  0.00000000000E+00  0.00000000000E+00  0.47460467507E+03  0.47460467507E+03  0.00000000000E+00 0. -1.
         -1   -1    0    0    0  501 -0.00000000000E+00 -0.00000000000E+00 -0.32257745335E+02  0.32257745335E+02  0.00000000000E+00 0.  1.
         23    2    1    2    0    0  0.65696878728E+02 -0.80869789763E+01  0.11753573275E+03  0.16231942959E+03  0.90285489669E+02 0.  0.
         23    2    1    2    0    0 -0.65696878728E+02  0.80869789763E+01  0.32481119698E+03  0.34454299082E+03  0.93947217801E+02 0.  0.
          5    1    4    4  502    0 -0.67643096093E+02  0.42402543224E+02  0.23691092257E+03  0.25004487468E+03  0.47000000000E+01 0. -1.
         -5    1    4    4    0  502  0.19462173646E+01 -0.34315564248E+02  0.87900274411E+02  0.94498116136E+02  0.47000000000E+01 0.  1.
          5    1    3    3  503    0  0.48133485014E+02  0.33017794076E+02  0.96070424275E+02  0.11251054851E+03  0.47000000000E+01 0. -1.
         -5    1    3    3    0  503  0.17563393714E+02 -0.41104773053E+02  0.21465308479E+02  0.49808881081E+02  0.47000000000E+01 0.  1.
<mgrwt>
<rscale>  0 0.11417345E+03</rscale>
<asrwt>0</asrwt>
<pdfrwt beam="1">  1        1 0.73016099E-01 0.11492414E+03</pdfrwt>
<pdfrwt beam="2">  1       -1 0.49627304E-02 0.11492414E+03</pdfrwt>
<totfact> 0.81353348E+03</totfact>
</mgrwt>
</event>
<event>
 8    1  0.2964543E-004  0.1080792E+03  0.7546771E-02  0.1264461E+00
         -2   -1    0    0    0  501 -0.00000000000E+00  0.00000000000E+00  0.27028646412E+03  0.27028646412E+03  0.00000000000E+00 0.  1.
          2   -1    0    0  501    0  0.00000000000E+00 -0.00000000000E+00 -0.78787155291E+02  0.78787155291E+02  0.00000000000E+00 0. -1.
         23    2    1    2    0    0  0.52042761789E+01  0.55615947573E+02  0.21327758343E+03  0.23882206348E+03  0.91806493745E+02 0.  0.
         23    2    1    2    0    0 -0.52042761789E+01 -0.55615947573E+02 -0.21778274608E+02  0.11025155593E+03  0.92525100514E+02 0.  0.
          5    1    3    3  502    0 -0.19019752131E+02 -0.19856716123E+02  0.49789682844E+02  0.57071382181E+02  0.47000000000E+01 0. -1.
         -5    1    3    3    0  502  0.24224028310E+02  0.75472663696E+02  0.16348790059E+03  0.18175068130E+03  0.47000000000E+01 0.  1.
          5    1    4    4  503    0 -0.37648812824E+02 -0.21730821473E+02 -0.40427239621E+02  0.59549251988E+02  0.47000000000E+01 0. -1.
         -5    1    4    4    0  503  0.32444536645E+02 -0.33885126099E+02  0.18648965013E+02  0.50702303941E+02  0.47000000000E+01 0.  1.
<mgrwt>
<rscale>  0 0.10792523E+03</rscale>
<asrwt>0</asrwt>
<pdfrwt beam="1">  1        2 0.12121101E-01 0.10807919E+03</pdfrwt>
<pdfrwt beam="2">  1       -2 0.41582533E-01 0.10807919E+03</pdfrwt>
<totfact> 0.26504176E+03</totfact>
</mgrwt>
</event>
<event>
 8    1  0.2964543E-004  0.1040362E+03  0.7546771E-02  0.1273345E+00
         -2   -1    0    0    0  501 -0.00000000000E+00  0.00000000000E+00  0.54683738284E+02  0.54683738284E+02  0.00000000000E+00 0.  1.
          2   -1    0    0  501    0  0.00000000000E+00 -0.00000000000E+00 -0.19324012030E+03  0.19324012030E+03  0.00000000000E+00 0. -1.
         23    2    1    2    0    0 -0.23474228382E+02 -0.35002039138E+02 -0.72645326927E+02  0.12476622202E+03  0.92266377900E+02 0.  0.
         23    2    1    2    0    0  0.23474228382E+02  0.35002039138E+02 -0.65911055088E+02  0.12315763656E+03  0.95117580494E+02 0.  0.
          5    1    4    4  502    0  0.35038327604E+02  0.78270012424E+01 -0.81683048388E+02  0.89348512823E+02  0.47000000000E+01 0. -1.
         -5    1    4    4    0  502 -0.11564099222E+02  0.27175037896E+02  0.15771993300E+02  0.33809123740E+02  0.47000000000E+01 0.  1.
          5    1    3    3  503    0  0.11778031110E+02 -0.42209156870E+02 -0.57561644702E+00  0.44076708983E+02  0.47000000000E+01 0. -1.
         -5    1    3    3    0  503 -0.35252259492E+02  0.72071177321E+01 -0.72069710480E+02  0.80689513036E+02  0.47000000000E+01 0.  1.
<mgrwt>
<rscale>  0 0.10337999E+03</rscale>
<asrwt>0</asrwt>
<pdfrwt beam="1">  1        2 0.29729249E-01 0.10403623E+03</pdfrwt>
<pdfrwt beam="2">  1       -2 0.84128829E-02 0.10403623E+03</pdfrwt>
<totfact> 0.14139410E+04</totfact>
</mgrwt>
</event>
<event>
 8    1  0.2964543E-004  0.4695347E+03  0.7546771E-02  0.1022083E+00
          2   -1    0    0  501    0  0.00000000000E+00  0.00000000000E+00  0.25497878224E+03  0.25497878224E+03  0.00000000000E+00 0. -1.
         -2   -1    0    0    0  501 -0.00000000000E+00 -0.00000000000E+00 -0.86599503036E+03  0.86599503036E+03  0.00000000000E+00 0.  1.
         23    2    1    2    0    0  0.28157450027E+03 -0.36382877617E+03 -0.27728434698E+03  0.54491839975E+03  0.91618097229E+02 0.  0.
         23    2    1    2    0    0 -0.28157450027E+03  0.36382877617E+03 -0.33373190115E+03  0.57605541286E+03  0.93847105807E+02 0.  0.
          5    1    4    4  502    0 -0.26343950075E+03  0.28922278954E+03 -0.29456760683E+03  0.48973702897E+03  0.47000000000E+01 0. -1.
         -5    1    4    4    0  502 -0.18134999514E+02  0.74605986625E+02 -0.39164294313E+02  0.86318383886E+02  0.47000000000E+01 0.  1.
          5    1    3    3  503    0  0.25093121265E+02 -0.69051397681E+01 -0.25336705703E+01  0.26567935121E+02  0.47000000000E+01 0. -1.
         -5    1    3    3    0  503  0.25648137900E+03 -0.35692363640E+03 -0.27475067640E+03  0.51835046463E+03  0.47000000000E+01 0.  1.
<mgrwt>
<rscale>  0 0.46942458E+03</rscale>
<asrwt>0</asrwt>
<pdfrwt beam="1">  1        2 0.39227505E-01 0.46953472E+03</pdfrwt>
<pdfrwt beam="2">  1       -2 0.13323000E+00 0.46953472E+03</pdfrwt>
<totfact> 0.55298011E+01</totfact>
</mgrwt>
</event>
<event>
 8    1  0.2964543E-004  0.8591471E+02  0.7546771E-02  0.1315424E+00
          2   -1    0    0  501    0  0.00000000000E+00  0.00000000000E+00  0.10568782170E+04  0.10568782170E+04  0.00000000000E+00 0. -1.
         -2   -1    0    0    0  501 -0.00000000000E+00 -0.00000000000E+00 -0.74938680887E+01  0.74938680887E+01  0.00000000000E+00 0.  1.
         23    2    1    2    0    0 -0.55602106406E+01 -0.16567932377E+02  0.36101444474E+03  0.37109670692E+03  0.84118513123E+02 0.  0.
         23    2    1    2    0    0  0.55602106406E+01  0.16567932377E+02  0.68836990416E+03  0.69327537816E+03  0.80450063274E+02 0.  0.
          5    1    3    3  502    0  0.32856981746E+02 -0.22461489476E+02  0.25407197154E+03  0.25721344538E+03  0.47000000000E+01 0. -1.
         -5    1    4    4    0  503 -0.35045518882E+02 -0.48444577634E+01  0.33823787430E+03  0.34011557855E+03  0.47000000000E+01 0.  1.
          5    1    4    4  503    0  0.40605729523E+02  0.21412390140E+02  0.35013202986E+03  0.35315979960E+03  0.47000000000E+01 0. -1.
         -5    1    3    3    0  502 -0.38417192386E+02  0.58935570995E+01  0.10694247320E+03  0.11388326154E+03  0.47000000000E+01 0.  1.
<mgrwt>
<rscale>  0 0.85003209E+02</rscale>
<asrwt>0</asrwt>
<pdfrwt beam="1">  1        2 0.16259653E+00 0.85914705E+02</pdfrwt>
<pdfrwt beam="2">  1       -2 0.11529036E-02 0.85914705E+02</pdfrwt>
<totfact> 0.37981954E+04</totfact>
</mgrwt>
</event>
<event>
 8    1  0.2964543E-004  0.9317213E+02  0.7546771E-02  0.1305876E+00
         -1   -1    0    0    0  501 -0.00000000000E+00  0.00000000000E+00  0.47715821161E+03  0.47715821161E+03  0.00000000000E+00 0.  1.
          1   -1    0    0  501    0  0.00000000000E+00 -0.00000000000E+00 -0.42810828081E+02  0.42810828081E+02  0.00000000000E+00 0. -1.
         23    2    1    2    0    0 -0.84845277577E+01  0.96423192781E+01  0.43331029798E+03  0.44321423721E+03  0.92282632182E+02 0.  0.
         23    2    1    2    0    0  0.84845277577E+01 -0.96423192781E+01  0.10370855564E+01  0.76754802482E+02  0.75665465209E+02 0.  0.
          5    1    4    4  502    0  0.24672392547E+02 -0.31546336539E+02 -0.16989615925E+02  0.43756546394E+02  0.47000000000E+01 0. -1.
         -5    1    3    3    0  503 -0.26131913282E+02  0.39004925785E+02  0.13709604373E+03  0.14498853863E+03  0.47000000000E+01 0.  1.
          5    1    3    3  503    0  0.17647385524E+02 -0.29362606507E+02  0.29621425424E+03  0.29822569858E+03  0.47000000000E+01 0. -1.
         -5    1    4    4    0  502 -0.16187864789E+02  0.21904017261E+02  0.18026701481E+02  0.32998256089E+02  0.47000000000E+01 0.  1.
<mgrwt>
<rscale>  0 0.88762800E+02</rscale>
<asrwt>0</asrwt>
<pdfrwt beam="1">  1        1 0.65862816E-02 0.93172130E+02</pdfrwt>
<pdfrwt beam="2">  1       -1 0.73408952E-01 0.93172130E+02</pdfrwt>
<totfact> 0.21055352E+03</totfact>
</mgrwt>
</event>
<event>
 8    1  0.2964543E-004  0.1036224E+03  0.7546771E-02  0.1273417E+00
          1   -1    0    0  501    0  0.00000000000E+00  0.00000000000E+00  0.27593004119E+03  0.27593004119E+03  0.00000000000E+00 0. -1.
         -1   -1    0    0    0  501 -0.00000000000E+00 -0.00000000000E+00 -0.38896161691E+02  0.38896161691E+02  0.00000000000E+00 0.  1.
         23    2    1    2    0    0  0.98589574323E+01  0.47576233264E+02  0.10323763281E+03  0.14627236374E+03  0.91525398399E+02 0.  0.
         23    2    1    2    0    0 -0.98589574323E+01 -0.47576233264E+02  0.13379624668E+03  0.16855383914E+03  0.90267735370E+02 0.  0.
          5    1    4    4  502    0 -0.10425338770E+02 -0.72015710347E+02  0.74510633809E+02  0.10425389574E+03  0.47000000000E+01 0. -1.
         -5    1    4    4    0  502  0.56638133810E+00  0.24439477083E+02  0.59285612874E+02  0.64299943404E+02  0.47000000000E+01 0.  1.
          5    1    3    3  503    0  0.27326057840E+02 -0.17576125682E+02  0.17892713600E+02  0.37388137571E+02  0.47000000000E+01 0. -1.
         -5    1    3    3    0  503 -0.17467100408E+02  0.65152358946E+02  0.85344919214E+02  0.10888422617E+03  0.47000000000E+01 0.  1.
<mgrwt>
<rscale>  0 0.10334396E+03</rscale>
<asrwt>0</asrwt>
<pdfrwt beam="1">  1        1 0.42450774E-01 0.10362237E+03</pdfrwt>
<pdfrwt beam="2">  1       -1 0.59840251E-02 0.10362237E+03</pdfrwt>
<totfact> 0.12025995E+04</totfact>
</mgrwt>
</event>
<event>
 8    1  0.2964543E-004  0.9513312E+02  0.7546771E-02  0.1291813E+00
          2   -1    0    0  501    0  0.00000000000E+00  0.00000000000E+00  0.15287055127E+03  0.15287055127E+03  0.00000000000E+00 0. -1.
         -2   -1    0    0    0  501 -0.00000000000E+00 -0.00000000000E+00 -0.92331730435E+02  0.92331730435E+02  0.00000000000E+00 0.  1.
         23    2    1    2    0    0 -0.21067511417E+01  0.25088024770E+02 -0.44459615195E+02  0.10351607432E+03  0.90028178212E+02 0.  0.
         23    2    1    2    0    0  0.21067511417E+01 -0.25088024770E+02  0.10499843603E+03  0.14168620738E+03  0.91741279733E+02 0.  0.
          5    1    3    3  502    0  0.43486302507E+02  0.93630077249E+01 -0.17243792326E+02  0.47939157201E+02  0.47000000000E+01 0. -1.
         -5    1    3    3    0  502 -0.45593053648E+02  0.15725017045E+02 -0.27215822869E+02  0.55576917119E+02  0.47000000000E+01 0.  1.
          5    1    4    4  503    0  0.35295510383E+02 -0.13664573141E+02  0.98574369728E+02  0.10569526943E+03  0.47000000000E+01 0. -1.
         -5    1    4    4    0  503 -0.33188759242E+02 -0.11423451629E+02  0.64240663022E+01  0.35990937956E+02  0.47000000000E+01 0.  1.
<mgrwt>
<rscale>  0 0.94717672E+02</rscale>
<asrwt>0</asrwt>
<pdfrwt beam="1">  1        2 0.23518546E-01 0.95133116E+02</pdfrwt>
<pdfrwt beam="2">  1       -2 0.14204882E-01 0.95133116E+02</pdfrwt>
<totfact> 0.79403933E+03</totfact>
</mgrwt>
</event>
<event>
 8    1  0.3011024E-004  0.1283993E+03  0.7546771E-02  0.1233122E+00
         -2   -1    0    0    0  501 -0.00000000000E+00  0.00000000000E+00  0.22004694456E+02  0.22004694456E+02  0.00000000000E+00 0.  1.
          2   -1    0    0  501    0  0.00000000000E+00 -0.00000000000E+00 -0.74850523196E+03  0.74850523196E+03  0.00000000000E+00 0. -1.
         23    2    1    2    0    0  0.89468491474E+02 -0.18709143414E+02 -0.44860189158E+03  0.46438244598E+03  0.77799460102E+02 0.  0.
         23    2    1    2    0    0 -0.89468491474E+02  0.18709143414E+02 -0.27789864592E+03  0.30612748043E+03  0.90176126865E+02 0.  0.
          5    1    4    4  502    0 -0.46464521317E+02  0.77917393449E+01 -0.24785931957E+03  0.25234102964E+03  0.47000000000E+01 0. -1.
         -5    1    3    3    0  503  0.34447197527E+02 -0.32832609082E+02 -0.32212444997E+03  0.32565448086E+03  0.47000000000E+01 0.  1.
          5    1    3    3  503    0  0.55021293947E+02  0.14123465668E+02 -0.12647744162E+03  0.13872796512E+03  0.47000000000E+01 0. -1.
         -5    1    4    4    0  502 -0.43003970158E+02  0.10917404069E+02 -0.30039326353E+02  0.53786450791E+02  0.47000000000E+01 0.  1.
<mgrwt>
<rscale>  0 0.12625400E+03</rscale>
<asrwt>0</asrwt>
<pdfrwt beam="1">  1        2 0.11515464E+00 0.12839929E+03</pdfrwt>
<pdfrwt beam="2">  1       -2 0.33853378E-02 0.12839929E+03</pdfrwt>
<totfact> 0.12969069E+04</totfact>
</mgrwt>
</event>
<event>
 8    1  0.2964543E-004  0.9372336E+02  0.7546771E-02  0.1295157E+00
         -1   -1    0    0    0  501 -0.00000000000E+00  0.00000000000E+00  0.34688052086E+02  0.34688052086E+02  0.00000000000E+00 0.  1.
          1   -1    0    0  501    0  0.00000000000E+00 -0.00000000000E+00 -0.27117120821E+03  0.27117120821E+03  0.00000000000E+00 0. -1.
         23    2    1    2    0    0  0.39753359597E+00  0.46773517862E+01 -0.16381311213E+03  0.18872944853E+03  0.93605733701E+02 0.  0.
         23    2    1    2    0    0 -0.39753359597E+00 -0.46773517862E+01 -0.72670043986E+02  0.11712981176E+03  0.91741058738E+02 0.  0.
          5    1    3    3  502    0 -0.40763738279E+02  0.23429286694E+02 -0.97166675039E+02  0.10804659445E+03  0.47000000000E+01 0. -1.
         -5    1    3    3    0  502  0.41161271875E+02 -0.18751934907E+02 -0.66646437096E+02  0.80682854081E+02  0.47000000000E+01 0.  1.
          5    1    4    4  503    0 -0.21754388127E+02  0.30526606506E+02 -0.54620312291E+01  0.38171336009E+02  0.47000000000E+01 0. -1.
         -5    1    4    4    0  503  0.21356854531E+02 -0.35203958292E+02 -0.67208012756E+02  0.78958475755E+02  0.47000000000E+01 0.  1.
<mgrwt>
<rscale>  0 0.93254283E+02</rscale>
<asrwt>0</asrwt>
<pdfrwt beam="1">  1        1 0.41718647E-01 0.93723364E+02</pdfrwt>
<pdfrwt beam="2">  1       -1 0.53366235E-02 0.93723364E+02</pdfrwt>
<totfact> 0.14407246E+04</totfact>
</mgrwt>
</event>
<event>
 8    1  0.2964543E-004  0.9455107E+02  0.7546771E-02  0.1293982E+00
         -1   -1    0    0    0  501 -0.00000000000E+00  0.00000000000E+00  0.95769458765E+02  0.95769458765E+02  0.00000000000E+00 0.  1.
          1   -1    0    0  501    0  0.00000000000E+00 -0.00000000000E+00 -0.95458018747E+02  0.95458018747E+02  0.00000000000E+00 0. -1.
         23    2    1    2    0    0 -0.90388742958E+01 -0.23512525816E+02  0.22362547628E+02  0.97159601550E+02  0.91133772654E+02 0.  0.
         23    2    1    2    0    0  0.90388742958E+01  0.23512525816E+02 -0.22051107610E+02  0.94067875962E+02  0.87908895013E+02 0.  0.
          5    1    4    4  502    0 -0.32366395447E+02  0.35287725296E+02 -0.10392404707E+02  0.49222953857E+02  0.47000000000E+01 0. -1.
         -5    1    3    3    0  503  0.28935442125E+02 -0.41694484402E+02  0.19927404406E+02  0.54725508557E+02  0.47000000000E+01 0.  1.
          5    1    3    3  503    0 -0.37974316420E+02  0.18181958586E+02  0.24351432221E+01  0.42434092993E+02  0.47000000000E+01 0. -1.
         -5    1    4    4    0  502  0.41405269742E+02 -0.11775199480E+02 -0.11658702903E+02  0.44844922105E+02  0.47000000000E+01 0.  1.
<mgrwt>
<rscale>  0 0.93765255E+02</rscale>
<asrwt>0</asrwt>
<pdfrwt beam="1">  1        1 0.14685849E-01 0.94551069E+02</pdfrwt>
<pdfrwt beam="2">  1       -1 0.14733763E-01 0.94551069E+02</pdfrwt>
<totfact> 0.11480627E+04</totfact>
</mgrwt>
</event>
<event>
 8    1  0.2964543E-004  0.1094034E+03  0.7546771E-02  0.1268203E+00
         -1   -1    0    0    0  501 -0.00000000000E+00  0.00000000000E+00  0.18468309754E+03  0.18468309754E+03  0.00000000000E+00 0.  1.
          1   -1    0    0  501    0  0.00000000000E+00 -0.00000000000E+00 -0.92227495455E+02  0.92227495455E+02  0.00000000000E+00 0. -1.
         23    2    1    2    0    0 -0.23410873871E+02 -0.24917083971E+02  0.12950332603E+03  0.16140457950E+03  0.90063292985E+02 0.  0.
         23    2    1    2    0    0  0.23410873871E+02  0.24917083971E+02 -0.37047723940E+02  0.11550601349E+03  0.10392389145E+03 0.  0.
          5    1    4    4  502    0 -0.13345863302E+02  0.45650598899E+02 -0.51869906572E+02  0.70531315420E+02  0.47000000000E+01 0. -1.
         -5    1    3    3    0  503  0.26337943083E+02 -0.31370124678E+02  0.34061076596E+02  0.53479144599E+02  0.47000000000E+01 0.  1.
          5    1    3    3  503    0 -0.49748816954E+02  0.64530407067E+01  0.95442249431E+02  0.10792543490E+03  0.47000000000E+01 0. -1.
         -5    1    4    4    0  502  0.36756737173E+02 -0.20733514928E+02  0.14822182632E+02  0.44974698074E+02  0.47000000000E+01 0.  1.
<mgrwt>
<rscale>  0 0.10597869E+03</rscale>
<asrwt>0</asrwt>
<pdfrwt beam="1">  1        1 0.14188845E-01 0.10940341E+03</pdfrwt>
<pdfrwt beam="2">  1       -1 0.28412784E-01 0.10940341E+03</pdfrwt>
<totfact> 0.42486876E+03</totfact>
</mgrwt>
</event>
<event>
 8    1  0.2964543E-004  0.1493926E+03  0.7546771E-02  0.1202810E+00
          3   -1    0    0  501    0  0.00000000000E+00  0.00000000000E+00  0.92588446929E+02  0.92588446929E+02  0.00000000000E+00 0. -1.
         -3   -1    0    0    0  501 -0.00000000000E+00 -0.00000000000E+00 -0.25262766749E+03  0.25262766749E+03  0.00000000000E+00 0.  1.
         23    2    1    2    0    0  0.93382215304E+02  0.65105483641E+02 -0.30605212315E+02  0.14755145081E+03  0.88745644857E+02 0.  0.
         23    2    1    2    0    0 -0.93382215304E+02 -0.65105483641E+02 -0.12943400824E+03  0.19766466360E+03  0.96742930556E+02 0.  0.
          5    1    4    4  502    0 -0.88722897038E+02 -0.52863071053E+01 -0.82251612931E+02  0.12119040940E+03  0.47000000000E+01 0. -1.
         -5    1    4    4    0  502 -0.46593182658E+01 -0.59819176536E+02 -0.47182395314E+02  0.76474254201E+02  0.47000000000E+01 0.  1.
          5    1    3    3  503    0  0.24686351080E+02  0.57263394097E+02  0.15357889777E+02  0.64393066487E+02  0.47000000000E+01 0. -1.
         -5    1    3    3    0  503  0.68695864224E+02  0.78420895437E+01 -0.45963102092E+02  0.83158384326E+02  0.47000000000E+01 0.  1.
<mgrwt>
<rscale>  0 0.14811376E+03</rscale>
<asrwt>0</asrwt>
<pdfrwt beam="1">  1        3 0.14244377E-01 0.14939263E+03</pdfrwt>
<pdfrwt beam="2">  1       -3 0.38865794E-01 0.14939263E+03</pdfrwt>
<totfact> 0.62540627E+02</totfact>
</mgrwt>
</event>
<event>
 8    1  0.2964543E-004  0.9696493E+02  0.7546771E-02  0.1297119E+00
         -1   -1    0    0    0  501 -0.00000000000E+00  0.00000000000E+00  0.25355108761E+02  0.25355108761E+02  0.00000000000E+00 0.  1.
          1   -1    0    0  501    0  0.00000000000E+00 -0.00000000000E+00 -0.37873208488E+03  0.37873208488E+03  0.00000000000E+00 0. -1.
         23    2    1    2    0    0 -0.11144697557E+02 -0.31061736694E+02 -0.10397653298E+03  0.14217354693E+03  0.91176544501E+02 0.  0.
         23    2    1    2    0    0  0.11144697557E+02  0.31061736694E+02 -0.24940044314E+03  0.26191364671E+03  0.72863856079E+02 0.  0.
          5    1    3    3  502    0 -0.88887047776E+01  0.20238731013E+02 -0.83813788485E+02  0.86807006894E+02  0.47000000000E+01 0. -1.
         -5    1    4    4    0  503 -0.11997356189E+02 -0.19158602139E+02 -0.97406562637E+02  0.10010552950E+03  0.47000000000E+01 0.  1.
          5    1    4    4  503    0  0.23142053746E+02  0.50220338833E+02 -0.15199388051E+03  0.16180811721E+03  0.47000000000E+01 0. -1.
         -5    1    3    3    0  502 -0.22559927794E+01 -0.51300467706E+02 -0.20162744492E+02  0.55366540038E+02  0.47000000000E+01 0.  1.
<mgrwt>
<rscale>  0 0.92409806E+02</rscale>
<asrwt>0</asrwt>
<pdfrwt beam="1">  1        1 0.58266471E-01 0.96964932E+02</pdfrwt>
<pdfrwt beam="2">  1       -1 0.39007862E-02 0.96964932E+02</pdfrwt>
<totfact> 0.15160351E+04</totfact>
</mgrwt>
</event>
<event>
 8    1  0.2964543E-004  0.1841500E+03  0.7546771E-02  0.1165623E+00
          2   -1    0    0  501    0  0.00000000000E+00  0.00000000000E+00  0.96040110111E+03  0.96040110111E+03  0.00000000000E+00 0. -1.
         -2   -1    0    0    0  501 -0.00000000000E+00 -0.00000000000E+00 -0.52741775503E+02  0.52741775503E+02  0.00000000000E+00 0.  1.
         23    2    1    2    0    0  0.88009599507E+02 -0.12489924870E+03  0.75054627805E+03  0.77107733147E+03  0.88853945805E+02 0.  0.
         23    2    1    2    0    0 -0.88009599507E+02  0.12489924870E+03  0.15711304756E+03  0.24206554514E+03  0.10278962254E+03 0.  0.
          5    1    4    4  502    0 -0.45994155504E+02  0.11480887635E+03  0.15526753133E+03  0.19856141799E+03  0.47000000000E+01 0. -1.
         -5    1    4    4    0  502 -0.42015444004E+02  0.10090372352E+02  0.18455162253E+01  0.43504127151E+02  0.47000000000E+01 0.  1.
          5    1    3    3  503    0  0.60472109927E+02 -0.12915429430E+03  0.53556853867E+03  0.55425035627E+03  0.47000000000E+01 0. -1.
         -5    1    3    3    0  503  0.27537489580E+02  0.42550456010E+01  0.21497773938E+03  0.21682697520E+03  0.47000000000E+01 0.  1.
<mgrwt>
<rscale>  0 0.18227142E+03</rscale>
<asrwt>0</asrwt>
<pdfrwt beam="1">  1        2 0.14775400E+00 0.18414999E+03</pdfrwt>
<pdfrwt beam="2">  1       -2 0.81141200E-02 0.18414999E+03</pdfrwt>
<totfact> 0.25520750E+03</totfact>
</mgrwt>
</event>
<event>
 8    1  0.2964543E-004  0.1004493E+03  0.7546771E-02  0.1279634E+00
          1   -1    0    0  501    0  0.00000000000E+00  0.00000000000E+00  0.97735450652E+03  0.97735450652E+03  0.00000000000E+00 0. -1.
         -1   -1    0    0    0  501 -0.00000000000E+00 -0.00000000000E+00 -0.10632293985E+02  0.10632293985E+02  0.00000000000E+00 0.  1.
         23    2    1    2    0    0  0.38202092302E+02  0.17903221554E+02  0.39081023941E+03  0.40338038773E+03  0.90571346361E+02 0.  0.
         23    2    1    2    0    0 -0.38202092302E+02 -0.17903221554E+02  0.57591197313E+03  0.58460641277E+03  0.91159924681E+02 0.  0.
          5    1    3    3  502    0 -0.20695243961E+02 -0.16854350721E+02  0.64758494096E+02  0.70200532892E+02  0.47000000000E+01 0. -1.
         -5    1    4    4    0  503 -0.24381127773E+02  0.33357548559E+02  0.35153046083E+03  0.35398152541E+03  0.47000000000E+01 0.  1.
          5    1    4    4  503    0 -0.13820964528E+02 -0.51260770113E+02  0.22438151229E+03  0.23062488736E+03  0.47000000000E+01 0. -1.
         -5    1    3    3    0  502  0.58897336262E+02  0.34757572275E+02  0.32605174531E+03  0.33317985484E+03  0.47000000000E+01 0.  1.
<mgrwt>
<rscale>  0 0.10031555E+03</rscale>
<asrwt>0</asrwt>
<pdfrwt beam="1">  1        1 0.15036216E+00 0.10044928E+03</pdfrwt>
<pdfrwt beam="2">  1       -1 0.16357383E-02 0.10044928E+03</pdfrwt>
<totfact> 0.14349692E+04</totfact>
</mgrwt>
</event>
<event>
 7    1  0.2964543E-004  0.4824792E+03  0.7546771E-02  0.1018456E+00
         -2   -1    0    0    0  501 -0.00000000000E+00  0.00000000000E+00  0.68522251890E+02  0.68522251890E+02  0.00000000000E+00 0.  1.
          2   -1    0    0  501    0  0.00000000000E+00 -0.00000000000E+00 -0.84930878207E+03  0.84930878207E+03  0.00000000000E+00 0. -1.
         23    2    1    2    0    0 -0.14246386797E+02 -0.11967305014E+03 -0.29305814248E+03  0.32992882453E+03  0.91898617616E+02 0.  0.
          5    1    1    2  502    0  0.59706971609E+02 -0.90985426484E+02 -0.20754449520E+03  0.23439299857E+03  0.47000000000E+01 0. -1.
         -5    1    1    2    0  502 -0.45460584812E+02  0.21065847662E+03 -0.28018389251E+03  0.35350921086E+03  0.47000000000E+01 0.  1.
          5    1    3    3  503    0  0.74073100288E+01 -0.11981994303E+03 -0.27878809381E+03  0.30357301962E+03  0.47000000000E+01 0. -1.
         -5    1    3    3    0  503 -0.21653696826E+02  0.14689288994E+00 -0.14270048663E+02  0.26355804912E+02  0.47000000000E+01 0.  1.
<mgrwt>
<rscale>  0 0.48247922E+03</rscale>
<asrwt>0</asrwt>
<pdfrwt beam="1">  1        2 0.13066290E+00 0.48247922E+03</pdfrwt>
<pdfrwt beam="2">  1       -2 0.10541884E-01 0.48247922E+03</pdfrwt>
<totfact> 0.20056938E+03</totfact>
</mgrwt>
</event>
<event>
 8    1  0.2964543E-004  0.9964794E+02  0.7546771E-02  0.1282699E+00
          1   -1    0    0  501    0  0.00000000000E+00  0.00000000000E+00  0.83321696846E+03  0.83321696846E+03  0.00000000000E+00 0. -1.
         -1   -1    0    0    0  501 -0.00000000000E+00 -0.00000000000E+00 -0.14516904818E+02  0.14516904818E+02  0.00000000000E+00 0.  1.
         23    2    1    2    0    0 -0.26881900833E+02 -0.19685141751E+02  0.21262804767E+03  0.23352462435E+03  0.90625173786E+02 0.  0.
         23    2    1    2    0    0  0.26881900833E+02  0.19685141751E+02  0.60607201597E+03  0.61420924893E+03  0.93912573840E+02 0.  0.
          5    1    4    4  502    0  0.44570363773E+02  0.38148430200E+02  0.54013731940E+03  0.54333436654E+03  0.47000000000E+01 0. -1.
         -5    1    3    3    0  503 -0.38106419454E+02 -0.43155188064E+02  0.82334302728E+02  0.10057582645E+03  0.47000000000E+01 0.  1.
          5    1    3    3  503    0  0.11224518620E+02  0.23470046313E+02  0.13029374494E+03  0.13294879790E+03  0.47000000000E+01 0. -1.
         -5    1    4    4    0  502 -0.17688462940E+02 -0.18463288449E+02  0.65934696574E+02  0.70874882391E+02  0.47000000000E+01 0.  1.
<mgrwt>
<rscale>  0 0.98865801E+02</rscale>
<asrwt>0</asrwt>
<pdfrwt beam="1">  1        1 0.12818719E+00 0.99647945E+02</pdfrwt>
<pdfrwt beam="2">  1       -1 0.22333706E-02 0.99647945E+02</pdfrwt>
<totfact> 0.11816311E+04</totfact>
</mgrwt>
</event>
<event>
 8    1  0.2964543E-004  0.9195445E+02  0.7546771E-02  0.1298187E+00
         -1   -1    0    0    0  501 -0.00000000000E+00  0.00000000000E+00  0.15200323150E+02  0.15200323150E+02  0.00000000000E+00 0.  1.
          1   -1    0    0  501    0  0.00000000000E+00 -0.00000000000E+00 -0.55801914647E+03  0.55801914647E+03  0.00000000000E+00 0. -1.
         23    2    1    2    0    0  0.10317457295E+01  0.87202166818E+01 -0.28744813316E+03  0.30179763776E+03  0.91532935184E+02 0.  0.
         23    2    1    2    0    0 -0.10317457295E+01 -0.87202166818E+01 -0.25537069016E+03  0.27142183186E+03  0.91534227139E+02 0.  0.
          5    1    3    3  502    0 -0.88834385808E+01  0.42181890510E+02 -0.76539775581E+02  0.87969623246E+02  0.47000000000E+01 0. -1.
         -5    1    4    4    0  503  0.70233105167E+01  0.33979774377E+02 -0.47528523003E+02  0.59033909376E+02  0.47000000000E+01 0.  1.
          5    1    4    4  503    0 -0.80550562462E+01 -0.42699991059E+02 -0.20784216715E+03  0.21238792248E+03  0.47000000000E+01 0. -1.
         -5    1    3    3    0  502  0.99151843103E+01 -0.33461673828E+02 -0.21090835758E+03  0.21382801452E+03  0.47000000000E+01 0.  1.
<mgrwt>
<rscale>  0 0.91954131E+02</rscale>
<asrwt>0</asrwt>
<pdfrwt beam="1">  1        1 0.85849106E-01 0.91954453E+02</pdfrwt>
<pdfrwt beam="2">  1       -1 0.23385111E-02 0.91954453E+02</pdfrwt>
<totfact> 0.19280405E+04</totfact>
</mgrwt>
</event>
<event>
 8    1  0.2964543E-004  0.1025909E+03  0.7546771E-02  0.1275030E+00
         -2   -1    0    0    0  501 -0.00000000000E+00  0.00000000000E+00  0.21021293631E+03  0.21021293631E+03  0.00000000000E+00 0.  1.
          2   -1    0    0  501    0  0.00000000000E+00 -0.00000000000E+00 -0.10796857808E+03  0.10796857808E+03  0.00000000000E+00 0. -1.
         23    2    1    2    0    0  0.11143649146E+02  0.49972098894E+02 -0.65447627823E+02  0.12168932852E+03  0.88901682235E+02 0.  0.
         23    2    1    2    0    0 -0.11143649146E+02 -0.49972098894E+02  0.16769198605E+03  0.19649218587E+03  0.88697155183E+02 0.  0.
          5    1    3    3  502    0 -0.21057252337E+02  0.43307915787E+02 -0.73042783039E+02  0.87614619784E+02  0.47000000000E+01 0. -1.
         -5    1    4    4    0  503  0.24715979451E+02 -0.10061951981E+02  0.12461008207E+03  0.12752209641E+03  0.47000000000E+01 0.  1.
          5    1    4    4  503    0 -0.35859628597E+02 -0.39910146913E+02  0.43081903974E+02  0.68970089458E+02  0.47000000000E+01 0. -1.
         -5    1    3    3    0  502  0.32200901483E+02  0.66641831065E+01  0.75951552157E+01  0.34074708738E+02  0.47000000000E+01 0.  1.
<mgrwt>
<rscale>  0 0.10254661E+03</rscale>
<asrwt>0</asrwt>
<pdfrwt beam="1">  1        2 0.16610551E-01 0.10259094E+03</pdfrwt>
<pdfrwt beam="2">  1       -2 0.32340451E-01 0.10259094E+03</pdfrwt>
<totfact> 0.29114754E+03</totfact>
</mgrwt>
</event>
<event>
 8    1  0.2964543E-004  0.1228891E+03  0.7546771E-02  0.1239911E+00
         -2   -1    0    0    0  501 -0.00000000000E+00  0.00000000000E+00  0.19567282316E+02  0.19567282316E+02  0.00000000000E+00 0.  1.
          2   -1    0    0  501    0  0.00000000000E+00 -0.00000000000E+00 -0.91051818817E+03  0.91051818817E+03  0.00000000000E+00 0. -1.
         23    2    1    2    0    0  0.30724149032E+02  0.73759786956E+02 -0.24383924327E+03  0.27140859667E+03  0.88433988292E+02 0.  0.
         23    2    1    2    0    0 -0.30724149032E+02 -0.73759786956E+02 -0.64711166259E+03  0.65867687381E+03  0.93366164832E+02 0.  0.
          5    1    3    3  502    0  0.14732516882E+02  0.47929390745E+02 -0.37495681807E+02  0.62787655674E+02  0.47000000000E+01 0.  1.
         -5    1    3    3    0  502  0.15991632150E+02  0.25830396211E+02 -0.20634356146E+03  0.20862094100E+03  0.47000000000E+01 0. -1.
          5    1    4    4  503    0  0.18863444683E+01 -0.83549373238E+02 -0.53196198646E+03  0.53850691834E+03  0.47000000000E+01 0. -1.
         -5    1    4    4    0  503 -0.32610493500E+02  0.97895862821E+01 -0.11514967613E+03  0.12016995547E+03  0.47000000000E+01 0.  1.
<mgrwt>
<rscale>  0 0.12195237E+03</rscale>
<asrwt>0</asrwt>
<pdfrwt beam="1">  1        2 0.14007969E+00 0.12288906E+03</pdfrwt>
<pdfrwt beam="2">  1       -2 0.30103518E-02 0.12288906E+03</pdfrwt>
<totfact> 0.12013146E+04</totfact>
</mgrwt>
</event>
<event>
 8    1  0.2964543E-004  0.1336886E+03  0.7546771E-02  0.1222822E+00
         -1   -1    0    0    0  501 -0.00000000000E+00  0.00000000000E+00  0.62901762775E+03  0.62901762775E+03  0.00000000000E+00 0.  1.
          1   -1    0    0  501    0  0.00000000000E+00 -0.00000000000E+00 -0.31143301733E+02  0.31143301733E+02  0.00000000000E+00 0. -1.
         23    2    1    2    0    0 -0.96426460153E+02 -0.63374627668E+01  0.19166385400E+03  0.23251669392E+03  0.89391019509E+02 0.  0.
         23    2    1    2    0    0  0.96426460153E+02  0.63374627668E+01  0.40621047202E+03  0.42764423556E+03  0.92381919135E+02 0.  0.
          5    1    3    3  502    0 -0.34724828277E+02 -0.12577097296E+02  0.72922219862E+01  0.37937627453E+02  0.47000000000E+01 0. -1.
         -5    1    3    3    0  502 -0.61701631876E+02  0.62396345293E+01  0.18437163202E+03  0.19457906647E+03  0.47000000000E+01 0.  1.
          5    1    4    4  503    0  0.21496365693E+02  0.18897725284E+02  0.27043844638E+03  0.27198945024E+03  0.47000000000E+01 0. -1.
         -5    1    4    4    0  503  0.74930094459E+02 -0.12560262517E+02  0.13577202564E+03  0.15565478533E+03  0.47000000000E+01 0.  1.
<mgrwt>
<rscale>  0 0.13317338E+03</rscale>
<asrwt>0</asrwt>
<pdfrwt beam="1">  1        1 0.47912776E-02 0.13368861E+03</pdfrwt>
<pdfrwt beam="2">  1       -1 0.96771934E-01 0.13368861E+03</pdfrwt>
<totfact> 0.18610560E+03</totfact>
</mgrwt>
</event>
<event>
 8    1  0.2964543E-004  0.1092229E+03  0.7546771E-02  0.1263263E+00
          1   -1    0    0  501    0  0.00000000000E+00  0.00000000000E+00  0.37652449064E+03  0.37652449064E+03  0.00000000000E+00 0. -1.
         -1   -1    0    0    0  501 -0.00000000000E+00 -0.00000000000E+00 -0.44880184982E+02  0.44880184982E+02  0.00000000000E+00 0.  1.
         23    2    1    2    0    0  0.36196966944E+02  0.48082119124E+02  0.28191780470E+03  0.30139477332E+03  0.87971871543E+02 0.  0.
         23    2    1    2    0    0 -0.36196966944E+02 -0.48082119124E+02  0.49726500958E+02  0.12000990230E+03  0.91145713873E+02 0.  0.
          5    1    3    3  502    0  0.43712139448E+02 -0.10535646898E+02  0.93234965497E+02  0.10361756503E+03  0.47000000000E+01 0. -1.
         -5    1    4    4    0  503 -0.52413736026E+02 -0.25858242033E+02  0.65532981144E+02  0.87934691806E+02  0.47000000000E+01 0.  1.
          5    1    4    4  503    0  0.16216769083E+02 -0.22223877091E+02 -0.15806480187E+02  0.32075210495E+02  0.47000000000E+01 0. -1.
         -5    1    3    3    0  502 -0.75151725043E+01  0.58617766023E+02  0.18868283920E+03  0.19777720829E+03  0.47000000000E+01 0.  1.
<mgrwt>
<rscale>  0 0.10855835E+03</rscale>
<asrwt>0</asrwt>
<pdfrwt beam="1">  1        1 0.57926842E-01 0.10922295E+03</pdfrwt>
<pdfrwt beam="2">  1       -1 0.69046441E-02 0.10922295E+03</pdfrwt>
<totfact> 0.66578833E+03</totfact>
</mgrwt>
</event>
<event>
 8    1  0.2964543E-004  0.1745405E+03  0.7546771E-02  0.1173337E+00
         -2   -1    0    0    0  501 -0.00000000000E+00  0.00000000000E+00  0.23645226863E+03  0.23645226863E+03  0.00000000000E+00 0.  1.
          2   -1    0    0  501    0  0.00000000000E+00 -0.00000000000E+00 -0.19242057736E+03  0.19242057736E+03  0.00000000000E+00 0. -1.
         23    2    1    2    0    0 -0.77390411596E+02 -0.12683563740E+03 -0.10162966731E+03  0.20197267890E+03  0.91585037107E+02 0.  0.
         23    2    1    2    0    0  0.77390411596E+02  0.12683563740E+03  0.14566135859E+03  0.22690016709E+03  0.90498064711E+02 0.  0.
          5    1    4    4  502    0  0.19228200176E+02  0.63324710684E+02  0.11392557365E+02  0.67317330818E+02  0.47000000000E+01 0. -1.
         -5    1    3    3    0  503 -0.57860524332E+02 -0.35255400382E+02 -0.62137078877E+01  0.68201786617E+02  0.47000000000E+01 0.  1.
          5    1    3    3  503    0 -0.19529887264E+02 -0.91580237022E+02 -0.95415959426E+02  0.13377089229E+03  0.47000000000E+01 0. -1.
         -5    1    4    4    0  502  0.58162211420E+02  0.63510926720E+02  0.13426880122E+03  0.15958283627E+03  0.47000000000E+01 0.  1.
<mgrwt>
<rscale>  0 0.17439832E+03</rscale>
<asrwt>0</asrwt>
<pdfrwt beam="1">  1        2 0.29603166E-01 0.17454046E+03</pdfrwt>
<pdfrwt beam="2">  1       -2 0.36377272E-01 0.17454046E+03</pdfrwt>
<totfact> 0.12576482E+03</totfact>
</mgrwt>
</event>
<event>
 8    1  0.2964543E-004  0.1286917E+03  0.7546771E-02  0.1230824E+00
          2   -1    0    0  501    0  0.00000000000E+00  0.00000000000E+00  0.12607159627E+03  0.12607159627E+03  0.00000000000E+00 0. -1.
         -2   -1    0    0    0  501 -0.00000000000E+00 -0.00000000000E+00 -0.14126828651E+03  0.14126828651E+03  0.00000000000E+00 0.  1.
         23    2    1    2    0    0 -0.63373727241E+02 -0.52086323312E+02 -0.49253195793E+02  0.13779484478E+03  0.99158093824E+02 0.  0.
         23    2    1    2    0    0  0.63373727241E+02  0.52086323312E+02  0.34056505550E+02  0.12954503801E+03  0.94301945482E+02 0.  0.
          5    1    4    4  502    0 -0.24322928397E+02  0.80680035651E+01  0.16674355088E+01  0.26106854819E+02  0.47000000000E+01 0. -1.
         -5    1    4    4    0  502  0.87696655638E+02  0.44018319747E+02  0.32389070041E+02  0.10343818319E+03  0.47000000000E+01 0.  1.
          5    1    3    3  503    0 -0.41929947808E+02 -0.63977289545E+02 -0.71159705759E+02  0.10458015024E+03  0.47000000000E+01 0.  1.
         -5    1    3    3    0  503 -0.21443779432E+02  0.11890966232E+02  0.21906509966E+02  0.33214694537E+02  0.47000000000E+01 0. -1.
<mgrwt>
<rscale>  0 0.12775565E+03</rscale>
<asrwt>0</asrwt>
<pdfrwt beam="1">  1        2 0.19395630E-01 0.12869165E+03</pdfrwt>
<pdfrwt beam="2">  1       -2 0.21733583E-01 0.12869165E+03</pdfrwt>
<totfact> 0.49763151E+03</totfact>
</mgrwt>
</event>
<event>
 8    1  0.3450331E-004  0.1038560E+03  0.7546771E-02  0.1274058E+00
          1   -1    0    0  501    0  0.00000000000E+00  0.00000000000E+00  0.75463882216E+02  0.75463882216E+02  0.00000000000E+00 0. -1.
         -1   -1    0    0    0  501 -0.00000000000E+00 -0.00000000000E+00 -0.52389002312E+03  0.52389002312E+03  0.00000000000E+00 0.  1.
         23    2    1    2    0    0  0.45596834824E+02  0.16986979716E+02  0.33774731219E+02  0.10609561032E+03  0.88022254200E+02 0.  0.
         23    2    1    2    0    0 -0.45596834824E+02 -0.16986979716E+02 -0.48220087212E+03  0.49325829502E+03  0.91752033765E+02 0.  0.
          5    1    3    3  502    0  0.35537026958E+02 -0.44943696580E+01  0.60242512984E+02  0.70244786385E+02  0.47000000000E+01 0. -1.
         -5    1    4    4    0  503 -0.43098586494E+02 -0.49422699097E+02 -0.24016939322E+03  0.24900505775E+03  0.47000000000E+01 0.  1.
          5    1    4    4  503    0 -0.24982483301E+01  0.32435719382E+02 -0.24203147890E+03  0.24425323727E+03  0.47000000000E+01 0. -1.
         -5    1    3    3    0  502  0.10059807866E+02  0.21481349374E+02 -0.26467781766E+02  0.35850823935E+02  0.47000000000E+01 0.  1.
<mgrwt>
<rscale>  0 0.10302611E+03</rscale>
<asrwt>0</asrwt>
<pdfrwt beam="1">  1        1 0.11609828E-01 0.10385598E+03</pdfrwt>
<pdfrwt beam="2">  1       -1 0.80598468E-01 0.10385598E+03</pdfrwt>
<totfact> 0.82860556E+02</totfact>
</mgrwt>
</event>
<event>
 8    1  0.2964543E-004  0.1198178E+03  0.7546771E-02  0.1245018E+00
         -3   -1    0    0    0  501 -0.00000000000E+00  0.00000000000E+00  0.12796320295E+03  0.12796320295E+03  0.00000000000E+00 0.  1.
          3   -1    0    0  501    0  0.00000000000E+00 -0.00000000000E+00 -0.12114871568E+03  0.12114871568E+03  0.00000000000E+00 0. -1.
         23    2    1    2    0    0 -0.15102789355E+02 -0.75978807537E+02  0.43518889784E+02  0.12747630893E+03  0.91408107569E+02 0.  0.
         23    2    1    2    0    0  0.15102789355E+02  0.75978807537E+02 -0.36704402512E+02  0.12163560971E+03  0.86296784087E+02 0.  0.
          5    1    4    4  502    0  0.35335368206E+00  0.55608905339E+02 -0.63532902740E+02  0.84563555640E+02  0.47000000000E+01 0. -1.
         -5    1    3    3    0  503  0.10479559493E+02 -0.48797185723E+02  0.66585065468E+02  0.83346550289E+02  0.47000000000E+01 0.  1.
          5    1    3    3  503    0 -0.25582348848E+02 -0.27181621813E+02 -0.23066175684E+02  0.44129758641E+02  0.47000000000E+01 0. -1.
         -5    1    4    4    0  502  0.14749435673E+02  0.20369902197E+02  0.26828500228E+02  0.37072054066E+02  0.47000000000E+01 0.  1.
<mgrwt>
<rscale>  0 0.11884294E+03</rscale>
<asrwt>0</asrwt>
<pdfrwt beam="1">  1        3 0.18638264E-01 0.11981784E+03</pdfrwt>
<pdfrwt beam="2">  1       -3 0.19686647E-01 0.11981784E+03</pdfrwt>
<totfact> 0.13213827E+03</totfact>
</mgrwt>
</event>
<event>
 8    1  0.2964543E-004  0.9577800E+02  0.7546771E-02  0.1291650E+00
         -3   -1    0    0    0  501 -0.00000000000E+00  0.00000000000E+00  0.38705600946E+02  0.38705600946E+02  0.00000000000E+00 0.  1.
          3   -1    0    0  501    0  0.00000000000E+00 -0.00000000000E+00 -0.24496949667E+03  0.24496949667E+03  0.00000000000E+00 0. -1.
         23    2    1    2    0    0 -0.29707194669E+02 -0.86830679429E+01 -0.63245167594E+02  0.11154786985E+03  0.86516258351E+02 0.  0.
         23    2    1    2    0    0  0.29707194669E+02  0.86830679429E+01 -0.14301872813E+03  0.17212722777E+03  0.90639466349E+02 0.  0.
          5    1    4    4  502    0  0.28572565978E+02 -0.21598955961E+02 -0.13593622818E+03  0.14065437980E+03  0.47000000000E+01 0. -1.
         -5    1    3    3    0  503 -0.59648113979E+02 -0.30770951953E+01 -0.49859500486E+02  0.77945017831E+02  0.47000000000E+01 0.  1.
          5    1    3    3  503    0  0.29940919310E+02 -0.56059727476E+01 -0.13385667108E+02  0.33602852014E+02  0.47000000000E+01 0. -1.
         -5    1    4    4    0  502  0.11346286914E+01  0.30282023904E+02 -0.70824999547E+01  0.31472847974E+02  0.47000000000E+01 0.  1.
<mgrwt>
<rscale>  0 0.94789729E+02</rscale>
<asrwt>0</asrwt>
<pdfrwt beam="1">  1        3 0.37687614E-01 0.95778003E+02</pdfrwt>
<pdfrwt beam="2">  1       -3 0.59547080E-02 0.95778003E+02</pdfrwt>
<totfact> 0.25691496E+03</totfact>
</mgrwt>
</event>
<event>
 8    1  0.2964543E-004  0.9422583E+02  0.7546771E-02  0.1294607E+00
          4   -1    0    0  501    0  0.00000000000E+00  0.00000000000E+00  0.12417915914E+03  0.12417915914E+03  0.00000000000E+00 0. -1.
         -4   -1    0    0    0  501 -0.00000000000E+00 -0.00000000000E+00 -0.83988221670E+02  0.83988221670E+02  0.00000000000E+00 0.  1.
         23    2    1    2    0    0 -0.22965430757E+01 -0.20124119036E+02 -0.23663326717E+02  0.94343507836E+02  0.89053299560E+02 0.  0.
         23    2    1    2    0    0  0.22965430757E+01  0.20124119036E+02  0.63854264188E+02  0.11382387297E+03  0.92023109743E+02 0.  0.
          5    1    3    3  502    0  0.22472609331E+02  0.26196029153E+02  0.35248758235E+01  0.35010924911E+02  0.47000000000E+01 0. -1.
         -5    1    4    4    0  503  0.14650585100E+02 -0.30326375219E+02  0.36964119974E+01  0.34206463414E+02  0.47000000000E+01 0.  1.
          5    1    4    4  503    0 -0.12354042024E+02  0.50450494255E+02  0.60157852191E+02  0.79617409560E+02  0.47000000000E+01 0. -1.
         -5    1    3    3    0  502 -0.24769152407E+02 -0.46320148189E+02 -0.27188202541E+02  0.59332582926E+02  0.47000000000E+01 0.  1.
<mgrwt>
<rscale>  0 0.93492781E+02</rscale>
<asrwt>0</asrwt>
<pdfrwt beam="1">  1        4 0.19104486E-01 0.94225830E+02</pdfrwt>
<pdfrwt beam="2">  1       -4 0.12921265E-01 0.94225830E+02</pdfrwt>
<totfact> 0.18045105E+03</totfact>
</mgrwt>
</event>
<event>
 8    1  0.2964543E-004  0.9606781E+02  0.7546771E-02  0.1288986E+00
         -1   -1    0    0    0  501 -0.00000000000E+00  0.00000000000E+00  0.35534320578E+02  0.35534320578E+02  0.00000000000E+00 0.  1.
          1   -1    0    0  501    0  0.00000000000E+00 -0.00000000000E+00 -0.25922600116E+03  0.25922600116E+03  0.00000000000E+00 0. -1.
         23    2    1    2    0    0 -0.59503745356E+01 -0.28503238235E+02 -0.11828804128E+03  0.15238466264E+03  0.91548802029E+02 0.  0.
         23    2    1    2    0    0  0.59503745356E+01  0.28503238235E+02 -0.10540363930E+03  0.14237565909E+03  0.91175981358E+02 0.  0.
          5    1    4    4  502    0 -0.31789152444E+02  0.25609466764E+02 -0.93964196741E+02  0.10255610791E+03  0.47000000000E+01 0. -1.
         -5    1    4    4    0  502  0.37739526980E+02  0.28937714709E+01 -0.11439442562E+02  0.39819551179E+02  0.47000000000E+01 0.  1.
          5    1    3    3  503    0  0.16677744499E+01  0.28264752810E+02 -0.75394632833E+02  0.80672909847E+02  0.47000000000E+01 0. -1.
         -5    1    3    3    0  503 -0.76181489855E+01 -0.56767991046E+02 -0.42893408442E+02  0.71711752796E+02  0.47000000000E+01 0.  1.
<mgrwt>
<rscale>  0 0.95978885E+02</rscale>
<asrwt>0</asrwt>
<pdfrwt beam="1">  1        1 0.39880922E-01 0.96067813E+02</pdfrwt>
<pdfrwt beam="2">  1       -1 0.54668187E-02 0.96067813E+02</pdfrwt>
<totfact> 0.14726983E+04</totfact>
</mgrwt>
</event>
<event>
 8    1  0.2964543E-004  0.9375163E+02  0.7546771E-02  0.1294017E+00
         -1   -1    0    0    0  501 -0.00000000000E+00  0.00000000000E+00  0.40408117248E+02  0.40408117248E+02  0.00000000000E+00 0.  1.
          1   -1    0    0  501    0  0.00000000000E+00 -0.00000000000E+00 -0.61691396023E+03  0.61691396023E+03  0.00000000000E+00 0. -1.
         23    2    1    2    0    0  0.13486008121E+02 -0.17198585132E+02 -0.23796311425E+02  0.96717765585E+02  0.91161384351E+02 0.  0.
         23    2    1    2    0    0 -0.13486008121E+02  0.17198585132E+02 -0.55270953155E+03  0.56060431189E+03  0.91168549913E+02 0.  0.
          5    1    4    4  502    0 -0.30022560499E+02 -0.25844619474E+02 -0.36850952912E+03  0.37066246310E+03  0.47000000000E+01 0. -1.
         -5    1    4    4    0  502  0.16536552378E+02  0.43043204606E+02 -0.18420000243E+03  0.18994184879E+03  0.47000000000E+01 0.  1.
          5    1    3    3  503    0 -0.13994516315E+01  0.37009485805E+02 -0.92736039949E+01  0.38467521827E+02  0.47000000000E+01 0. -1.
         -5    1    3    3    0  503  0.14885459753E+02 -0.54208070937E+02 -0.14522707430E+02  0.58250243758E+02  0.47000000000E+01 0.  1.
<mgrwt>
<rscale>  0 0.93749889E+02</rscale>
<asrwt>0</asrwt>
<pdfrwt beam="1">  1        1 0.94909840E-01 0.93751631E+02</pdfrwt>
<pdfrwt beam="2">  1       -1 0.62166334E-02 0.93751631E+02</pdfrwt>
<totfact> 0.40833182E+03</totfact>
</mgrwt>
</event>
<event>
 8    1  0.2964543E-004  0.2484876E+03  0.7546771E-02  0.1114398E+00
          2   -1    0    0  501    0  0.00000000000E+00  0.00000000000E+00  0.23400369821E+04  0.23400369821E+04  0.00000000000E+00 0. -1.
         -2   -1    0    0    0  501 -0.00000000000E+00 -0.00000000000E+00 -0.26878787252E+02  0.26878787252E+02  0.00000000000E+00 0.  1.
         23    2    1    2    0    0 -0.12817766704E+03 -0.19068567121E+03  0.98447318235E+03  0.10153489807E+04  0.94633854115E+02 0.  0.
         23    2    1    2    0    0  0.12817766704E+03  0.19068567121E+03  0.13286850125E+04  0.13515667886E+04  0.92403366684E+02 0.  0.
          5    1    4    4  502    0  0.10206320783E+03  0.16943942078E+03  0.12539545458E+04  0.12694686718E+04  0.47000000000E+01 0. -1.
         -5    1    4    4    0  502  0.26114459212E+02  0.21246250424E+02  0.74730466639E+02  0.82098116794E+02  0.47000000000E+01 0.  1.
          5    1    3    3  503    0 -0.85390137821E+02 -0.46202913088E+02  0.41863641846E+03  0.42977287685E+03  0.47000000000E+01 0. -1.
         -5    1    3    3    0  503 -0.42787529219E+02 -0.14448275812E+03  0.56583676389E+03  0.58557610387E+03  0.47000000000E+01 0.  1.
<mgrwt>
<rscale>  0 0.24827715E+03</rscale>
<asrwt>0</asrwt>
<pdfrwt beam="1">  1        2 0.36000553E+00 0.24848764E+03</pdfrwt>
<pdfrwt beam="2">  1       -2 0.41351999E-02 0.24848764E+03</pdfrwt>
<totfact> 0.12838524E+03</totfact>
</mgrwt>
</event>
<event>
 8    1  0.2964543E-004  0.9582998E+02  0.7546771E-02  0.1293859E+00
          1   -1    0    0  501    0  0.00000000000E+00  0.00000000000E+00  0.18299617726E+02  0.18299617726E+02  0.00000000000E+00 0. -1.
         -1   -1    0    0    0  501 -0.00000000000E+00 -0.00000000000E+00 -0.46516028248E+03  0.46516028248E+03  0.00000000000E+00 0.  1.
         23    2    1    2    0    0 -0.27430813549E+02  0.51637633718E+01 -0.23441211338E+03  0.25039816573E+03  0.83493044725E+02 0.  0.
         23    2    1    2    0    0  0.27430813549E+02 -0.51637633718E+01 -0.21244855137E+03  0.23306173447E+03  0.91674811765E+02 0.  0.
          5    1    4    4  502    0 -0.30038375927E+02 -0.35802824016E+01 -0.12202240746E+03  0.12580413496E+03  0.47000000000E+01 0. -1.
         -5    1    3    3    0  503 -0.11723895701E+01  0.40865978353E+02 -0.14128529726E+03  0.14715647423E+03  0.47000000000E+01 0.  1.
          5    1    3    3  503    0 -0.26258423979E+02 -0.35702214981E+02 -0.93126816122E+02  0.10324169151E+03  0.47000000000E+01 0. -1.
         -5    1    4    4    0  502  0.57469189476E+02 -0.15834809701E+01 -0.90426143908E+02  0.10725759951E+03  0.47000000000E+01 0.  1.
<mgrwt>
<rscale>  0 0.93818866E+02</rscale>
<asrwt>0</asrwt>
<pdfrwt beam="1">  1        1 0.28153259E-02 0.95829980E+02</pdfrwt>
<pdfrwt beam="2">  1       -1 0.71563119E-01 0.95829980E+02</pdfrwt>
<totfact> 0.70325938E+03</totfact>
</mgrwt>
</event>
<event>
 8    1  0.2964543E-004  0.1032745E+03  0.7546771E-02  0.1274819E+00
         -1   -1    0    0    0  501 -0.00000000000E+00  0.00000000000E+00  0.72739059127E+02  0.72739059127E+02  0.00000000000E+00 0.  1.
          1   -1    0    0  501    0  0.00000000000E+00 -0.00000000000E+00 -0.20816719470E+03  0.20816719470E+03  0.00000000000E+00 0. -1.
         23    2    1    2    0    0  0.16425067602E+02 -0.25960647051E+02  0.10219660857E+02  0.10377896216E+03  0.98599662663E+02 0.  0.
         23    2    1    2    0    0 -0.16425067602E+02  0.25960647051E+02 -0.14564779643E+03  0.17712729167E+03  0.96005514470E+02 0.  0.
          5    1    4    4  502    0 -0.53272551183E+02 -0.50255423576E+00 -0.62218986290E+02  0.82045777011E+02  0.47000000000E+01 0. -1.
         -5    1    4    4    0  502  0.36847483581E+02  0.26463201287E+02 -0.83428810141E+02  0.95081514660E+02  0.47000000000E+01 0.  1.
          5    1    3    3  503    0 -0.39490181923E+02  0.18193314710E+01 -0.24945499994E+01  0.39888559952E+02  0.47000000000E+01 0. -1.
         -5    1    3    3    0  503  0.55915249525E+02 -0.27779978522E+02  0.12714210857E+02  0.63890402205E+02  0.47000000000E+01 0.  1.
<mgrwt>
<rscale>  0 0.10265047E+03</rscale>
<asrwt>0</asrwt>
<pdfrwt beam="1">  1        1 0.32025722E-01 0.10327454E+03</pdfrwt>
<pdfrwt beam="2">  1       -1 0.11190625E-01 0.10327454E+03</pdfrwt>
<totfact> 0.66418407E+03</totfact>
</mgrwt>
</event>
<event>
 8    1  0.2964543E-004  0.1382230E+03  0.7546771E-02  0.1216067E+00
          2   -1    0    0  501    0  0.00000000000E+00  0.00000000000E+00  0.51395917057E+03  0.51395917057E+03  0.00000000000E+00 0. -1.
         -2   -1    0    0    0  501 -0.00000000000E+00 -0.00000000000E+00 -0.41307032410E+02  0.41307032410E+02  0.00000000000E+00 0.  1.
         23    2    1    2    0    0  0.80891913315E+02 -0.61968148890E+02  0.32609593975E+03  0.35381069785E+03  0.91977686841E+02 0.  0.
         23    2    1    2    0    0 -0.80891913315E+02  0.61968148890E+02  0.14655619841E+03  0.20145550512E+03  0.93391906166E+02 0.  0.
          5    1    4    4  502    0 -0.85760978824E+02  0.10755590705E+02  0.90971541723E+02  0.12557284589E+03  0.47000000000E+01 0. -1.
         -5    1    3    3    0  503  0.16562802753E+01 -0.46371223582E+02  0.18862793747E+03  0.19430806066E+03  0.47000000000E+01 0.  1.
          5    1    3    3  503    0  0.79235633039E+02 -0.15596925308E+02  0.13746800228E+03  0.15950263719E+03  0.47000000000E+01 0. -1.
         -5    1    4    4    0  502  0.48690655090E+01  0.51212558185E+02  0.55584656682E+02  0.75882659239E+02  0.47000000000E+01 0.  1.
<mgrwt>
<rscale>  0 0.13798450E+03</rscale>
<asrwt>0</asrwt>
<pdfrwt beam="1">  1        2 0.79070637E-01 0.13822301E+03</pdfrwt>
<pdfrwt beam="2">  1       -2 0.63549284E-02 0.13822301E+03</pdfrwt>
<totfact> 0.78263785E+03</totfact>
</mgrwt>
</event>
<event>
 8    1  0.2964543E-004  0.9318133E+02  0.7546771E-02  0.1296975E+00
          2   -1    0    0  501    0  0.00000000000E+00  0.00000000000E+00  0.66299703654E+02  0.66299703654E+02  0.00000000000E+00 0. -1.
         -2   -1    0    0    0  501 -0.00000000000E+00 -0.00000000000E+00 -0.13756010192E+03  0.13756010192E+03  0.00000000000E+00 0.  1.
         23    2    1    2    0    0  0.15037470843E+02  0.11932433598E+02 -0.64310639198E+02  0.11321933454E+03  0.91182514221E+02 0.  0.
         23    2    1    2    0    0 -0.15037470843E+02 -0.11932433598E+02 -0.69497590723E+01  0.90640471033E+02  0.88311309225E+02 0.  0.
          5    1    4    4  502    0 -0.45014020235E+02 -0.30589719734E+02 -0.65525321488E+01  0.55018348291E+02  0.47000000000E+01 0. -1.
         -5    1    3    3    0  503  0.43055216090E+02  0.10123210644E+02 -0.71181362361E+02  0.83935137898E+02  0.47000000000E+01 0.  1.
          5    1    3    3  503    0 -0.28017745247E+02  0.18092229536E+01  0.68707231632E+01  0.29284196646E+02  0.47000000000E+01 0. -1.
         -5    1    4    4    0  502  0.29976549392E+02  0.18657286136E+02 -0.39722692355E+00  0.35622122742E+02  0.47000000000E+01 0.  1.
<mgrwt>
<rscale>  0 0.92471332E+02</rscale>
<asrwt>0</asrwt>
<pdfrwt beam="1">  1        2 0.10199954E-01 0.93181325E+02</pdfrwt>
<pdfrwt beam="2">  1       -2 0.21163093E-01 0.93181325E+02</pdfrwt>
<totfact> 0.10769963E+04</totfact>
</mgrwt>
</event>
<event>
 8    1  0.2964543E-004  0.1022678E+03  0.7546771E-02  0.1276961E+00
          2   -1    0    0  501    0  0.00000000000E+00  0.00000000000E+00  0.23416218979E+03  0.23416218979E+03  0.00000000000E+00 0. -1.
         -2   -1    0    0    0  501 -0.00000000000E+00 -0.00000000000E+00 -0.48271397242E+02  0.48271397242E+02  0.00000000000E+00 0.  1.
         23    2    1    2    0    0  0.41869737908E+02  0.15473101860E+02  0.13833312549E+03  0.17203123877E+03  0.92011964820E+02 0.  0.
         23    2    1    2    0    0 -0.41869737908E+02 -0.15473101860E+02  0.47557667059E+02  0.11040234827E+03  0.89075557665E+02 0.  0.
          5    1    3    3  502    0  0.16690913649E+02  0.30027853302E+02  0.13829005988E+03  0.14257099717E+03  0.47000000000E+01 0. -1.
         -5    1    4    4    0  503  0.53063653619E+01 -0.30064928439E+02 -0.11782276887E+02  0.33060088990E+02  0.47000000000E+01 0.  1.
          5    1    4    4  503    0 -0.47176103270E+02  0.14591826579E+02  0.59339943946E+02  0.77342259277E+02  0.47000000000E+01 0. -1.
         -5    1    3    3    0  502  0.25178824258E+02 -0.14554751442E+02  0.43065615835E-01  0.29460241602E+02  0.47000000000E+01 0.  1.
<mgrwt>
<rscale>  0 0.10160288E+03</rscale>
<asrwt>0</asrwt>
<pdfrwt beam="1">  1        2 0.36024952E-01 0.10226775E+03</pdfrwt>
<pdfrwt beam="2">  1       -2 0.74263690E-02 0.10226775E+03</pdfrwt>
<totfact> 0.13923343E+04</totfact>
</mgrwt>
</event>
<event>
 8    1  0.2964543E-004  0.1092163E+03  0.7546771E-02  0.1264862E+00
          2   -1    0    0  501    0  0.00000000000E+00  0.00000000000E+00  0.19333002350E+03  0.19333002350E+03  0.00000000000E+00 0. -1.
         -2   -1    0    0    0  501 -0.00000000000E+00 -0.00000000000E+00 -0.87929874068E+02  0.87929874068E+02  0.00000000000E+00 0.  1.
         23    2    1    2    0    0 -0.46669419958E+02 -0.12708032823E+02  0.13512005000E+03  0.17374010352E+03  0.97921738149E+02 0.  0.
         23    2    1    2    0    0  0.46669419958E+02  0.12708032823E+02 -0.29719900559E+02  0.10751979405E+03  0.91311033105E+02 0.  0.
          5    1    4    4  502    0  0.20742118933E+02 -0.16631395886E+02  0.27166954304E+02  0.38301073525E+02  0.47000000000E+01 0. -1.
         -5    1    3    3    0  503 -0.68783146319E+02 -0.14035486932E+01  0.50625991809E+02  0.85546316186E+02  0.47000000000E+01 0.  1.
          5    1    3    3  503    0  0.22113726361E+02 -0.11304484130E+02  0.84494058187E+02  0.88193787331E+02  0.47000000000E+01 0. -1.
         -5    1    4    4    0  502  0.25927301025E+02  0.29339428709E+02 -0.56886854863E+02  0.69218720529E+02  0.47000000000E+01 0.  1.
<mgrwt>
<rscale>  0 0.10771418E+03</rscale>
<asrwt>0</asrwt>
<pdfrwt beam="1">  1        2 0.29743080E-01 0.10921628E+03</pdfrwt>
<pdfrwt beam="2">  1       -2 0.13527673E-01 0.10921628E+03</pdfrwt>
<totfact> 0.67281292E+03</totfact>
</mgrwt>
</event>
<event>
 8    1  0.2964543E-004  0.9270944E+02  0.7546771E-02  0.1296621E+00
         -1   -1    0    0    0  501 -0.00000000000E+00  0.00000000000E+00  0.22666102545E+03  0.22666102545E+03  0.00000000000E+00 0.  1.
          1   -1    0    0  501    0  0.00000000000E+00 -0.00000000000E+00 -0.38034292970E+02  0.38034292970E+02  0.00000000000E+00 0. -1.
         23    2    1    2    0    0  0.11820043965E+02 -0.14693835205E+02  0.10497242429E+03  0.13982305133E+03  0.90419320889E+02 0.  0.
         23    2    1    2    0    0 -0.11820043965E+02  0.14693835205E+02  0.83654308195E+02  0.12487226709E+03  0.90771237608E+02 0.  0.
          5    1    4    4  502    0 -0.37289734360E+02  0.38824802989E+02  0.66047853811E+02  0.85336385023E+02  0.47000000000E+01 0. -1.
         -5    1    3    3    0  503  0.38700598495E+02 -0.33566373352E+02  0.89460182926E+02  0.10319715148E+03  0.47000000000E+01 0.  1.
          5    1    3    3  503    0 -0.26880554530E+02  0.18872538148E+02  0.15512241363E+02  0.36625899854E+02  0.47000000000E+01 0. -1.
         -5    1    4    4    0  502  0.25469690395E+02 -0.24130967785E+02  0.17606454384E+02  0.39535882070E+02  0.47000000000E+01 0.  1.
<mgrwt>
<rscale>  0 0.92623184E+02</rscale>
<asrwt>0</asrwt>
<pdfrwt beam="1">  1        1 0.58514298E-02 0.92709438E+02</pdfrwt>
<pdfrwt beam="2">  1       -1 0.34870926E-01 0.92709438E+02</pdfrwt>
<totfact> 0.95660423E+03</totfact>
</mgrwt>
</event>
<event>
 8    1  0.2964543E-004  0.1269532E+03  0.7546771E-02  0.1235063E+00
          1   -1    0    0  501    0  0.00000000000E+00  0.00000000000E+00  0.12154907232E+03  0.12154907232E+03  0.00000000000E+00 0. -1.
         -1   -1    0    0    0  501 -0.00000000000E+00 -0.00000000000E+00 -0.12669352886E+03  0.12669352886E+03  0.00000000000E+00 0.  1.
         23    2    1    2    0    0 -0.78347798370E+02 -0.97424383608E+01  0.12832957902E+02  0.12002284635E+03  0.89484670318E+02 0.  0.
         23    2    1    2    0    0  0.78347798370E+02  0.97424383608E+01 -0.17977414441E+02  0.12821975483E+03  0.99417430480E+02 0.  0.
          5    1    4    4  502    0  0.50469591140E+02  0.22910899796E+02  0.35731029180E+02  0.66112672050E+02  0.47000000000E+01 0. -1.
         -5    1    4    4    0  502  0.27878207230E+02 -0.13168461435E+02 -0.53708443621E+02  0.62107082777E+02  0.47000000000E+01 0.  1.
          5    1    3    3  503    0 -0.23734625973E+01  0.22026048414E+02 -0.20986751559E+02  0.30875781358E+02  0.47000000000E+01 0. -1.
         -5    1    3    3    0  503 -0.75974335772E+02 -0.31768486775E+02  0.33819709460E+02  0.89147064988E+02  0.47000000000E+01 0.  1.
<mgrwt>
<rscale>  0 0.12500419E+03</rscale>
<asrwt>0</asrwt>
<pdfrwt beam="1">  1        1 0.18699857E-01 0.12695321E+03</pdfrwt>
<pdfrwt beam="2">  1       -1 0.19491312E-01 0.12695321E+03</pdfrwt>
<totfact> 0.55597168E+03</totfact>
</mgrwt>
</event>
<event>
 8    1  0.2964543E-004  0.1584649E+03  0.7546771E-02  0.1191547E+00
          1   -1    0    0  501    0  0.00000000000E+00  0.00000000000E+00  0.87621976961E+02  0.87621976961E+02  0.00000000000E+00 0. -1.
         -1   -1    0    0    0  501 -0.00000000000E+00 -0.00000000000E+00 -0.31361213633E+03  0.31361213633E+03  0.00000000000E+00 0.  1.
         23    2    1    2    0    0  0.38273726051E+02 -0.11889522728E+03 -0.45814792221E+02  0.16128769125E+03  0.91179882573E+02 0.  0.
         23    2    1    2    0    0 -0.38273726051E+02  0.11889522728E+03 -0.18017536715E+03  0.23994642205E+03  0.97520097152E+02 0.  0.
          5    1    3    3  502    0 -0.54813547572E+01 -0.93523571543E+02 -0.56327098515E+02  0.10941451326E+03  0.47000000000E+01 0. -1.
         -5    1    3    3    0  502  0.43755080808E+02 -0.25371655739E+02  0.10512306293E+02  0.51873177993E+02  0.47000000000E+01 0.  1.
          5    1    4    4  503    0 -0.40264684900E+02  0.91903344255E+01 -0.21025777693E+02  0.46581975318E+02  0.47000000000E+01 0. -1.
         -5    1    4    4    0  503  0.19909588494E+01  0.10970489286E+03 -0.15914958946E+03  0.19336444673E+03  0.47000000000E+01 0.  1.
<mgrwt>
<rscale>  0 0.15750087E+03</rscale>
<asrwt>0</asrwt>
<pdfrwt beam="1">  1        1 0.13480304E-01 0.15846489E+03</pdfrwt>
<pdfrwt beam="2">  1       -1 0.48248021E-01 0.15846489E+03</pdfrwt>
<totfact> 0.18484437E+03</totfact>
</mgrwt>
</event>
<event>
 8    1  0.2964543E-004  0.9515466E+02  0.7546771E-02  0.1291652E+00
          1   -1    0    0  501    0  0.00000000000E+00  0.00000000000E+00  0.85700442548E+03  0.85700442548E+03  0.00000000000E+00 0. -1.
         -1   -1    0    0    0  501 -0.00000000000E+00 -0.00000000000E+00 -0.10438325517E+02  0.10438325517E+02  0.00000000000E+00 0.  1.
         23    2    1    2    0    0 -0.26896604215E+02  0.37916719913E-01  0.40181254744E+03  0.41292582068E+03  0.91274209664E+02 0.  0.
         23    2    1    2    0    0  0.26896604215E+02 -0.37916719913E-01  0.44475355253E+03  0.45451693032E+03  0.89757945081E+02 0.  0.
          5    1    4    4  502    0  0.52982157850E+02  0.22976971900E+02  0.30225533582E+03  0.30775871770E+03  0.47000000000E+01 0. -1.
         -5    1    3    3    0  503 -0.17097501966E+02  0.44513147936E+02  0.24130691779E+03  0.24601801455E+03  0.47000000000E+01 0.  1.
          5    1    3    3  503    0 -0.97991022482E+01 -0.44475231216E+02  0.16050562965E+03  0.16690780613E+03  0.47000000000E+01 0. -1.
         -5    1    4    4    0  502 -0.26085553636E+02 -0.23014888620E+02  0.14249821671E+03  0.14675821262E+03  0.47000000000E+01 0.  1.
<mgrwt>
<rscale>  0 0.94789201E+02</rscale>
<asrwt>0</asrwt>
<pdfrwt beam="1">  1        1 0.13184678E+00 0.95154664E+02</pdfrwt>
<pdfrwt beam="2">  1       -1 0.16058969E-02 0.95154664E+02</pdfrwt>
<totfact> 0.18063938E+04</totfact>
</mgrwt>
</event>
<event>
 8    1  0.2964543E-004  0.1105837E+03  0.7546771E-02  0.1262165E+00
          1   -1    0    0  501    0  0.00000000000E+00  0.00000000000E+00  0.51792016141E+03  0.51792016141E+03  0.00000000000E+00 0. -1.
         -1   -1    0    0    0  501 -0.00000000000E+00 -0.00000000000E+00 -0.34834792226E+02  0.34834792226E+02  0.00000000000E+00 0.  1.
         23    2    1    2    0    0  0.44427508882E+02 -0.27038869270E+02  0.72511432387E+02  0.12754944648E+03  0.91137530549E+02 0.  0.
         23    2    1    2    0    0 -0.44427508882E+02  0.27038869270E+02  0.41057393680E+03  0.42520550715E+03  0.97590274818E+02 0.  0.
          5    1    4    4  502    0  0.68627513324E+01 -0.22776553873E+02  0.33331743121E+02  0.41218489318E+02  0.47000000000E+01 0. -1.
         -5    1    3    3    0  503  0.27491594802E+02  0.53205514862E+01 -0.15354314468E+02  0.32279111290E+02  0.47000000000E+01 0.  1.
          5    1    3    3  503    0  0.16935914080E+02 -0.32359420756E+02  0.87865746855E+02  0.95270335193E+02  0.47000000000E+01 0. -1.
         -5    1    4    4    0  502 -0.51290260214E+02  0.49815423143E+02  0.37724219368E+03  0.38398701783E+03  0.47000000000E+01 0.  1.
<mgrwt>
<rscale>  0 0.10914318E+03</rscale>
<asrwt>0</asrwt>
<pdfrwt beam="1">  1        1 0.79680019E-01 0.11058375E+03</pdfrwt>
<pdfrwt beam="2">  1       -1 0.53591992E-02 0.11058375E+03</pdfrwt>
<totfact> 0.64719606E+03</totfact>
</mgrwt>
</event>
<event>
 8    1  0.2964543E-004  0.9602844E+02  0.7546771E-02  0.1289450E+00
          1   -1    0    0  501    0  0.00000000000E+00  0.00000000000E+00  0.38141348503E+03  0.38141348503E+03  0.00000000000E+00 0. -1.
         -1   -1    0    0    0  501 -0.00000000000E+00 -0.00000000000E+00 -0.23952203872E+02  0.23952203872E+02  0.00000000000E+00 0.  1.
         23    2    1    2    0    0 -0.16142324993E+02  0.23911028104E+02  0.17024448251E+03  0.19495753359E+03  0.90514883607E+02 0.  0.
         23    2    1    2    0    0  0.16142324993E+02 -0.23911028104E+02  0.18721679865E+03  0.21040815532E+03  0.91592304306E+02 0.  0.
          5    1    4    4  502    0 -0.23938433703E+02  0.86984174811E+01  0.13248400334E+03  0.13499189686E+03  0.47000000000E+01 0. -1.
         -5    1    3    3    0  503 -0.28809543956E+02 -0.25338564404E+02  0.42851302577E+02  0.57709243640E+02  0.47000000000E+01 0.  1.
          5    1    3    3  503    0  0.12667218964E+02  0.49249592508E+02  0.12739317994E+03  0.13724828995E+03  0.47000000000E+01 0. -1.
         -5    1    4    4    0  502  0.40080758695E+02 -0.32609445585E+02  0.54732795306E+02  0.75416258465E+02  0.47000000000E+01 0.  1.
<mgrwt>
<rscale>  0 0.95770634E+02</rscale>
<asrwt>0</asrwt>
<pdfrwt beam="1">  1        1 0.58678993E-01 0.96028444E+02</pdfrwt>
<pdfrwt beam="2">  1       -1 0.36849547E-02 0.96028444E+02</pdfrwt>
<totfact> 0.16308499E+04</totfact>
</mgrwt>
</event>
<event>
 8    1  0.2964543E-004  0.9724546E+02  0.7546771E-02  0.1287242E+00
          2   -1    0    0  501    0  0.00000000000E+00  0.00000000000E+00  0.29291110181E+03  0.29291110181E+03  0.00000000000E+00 0. -1.
         -2   -1    0    0    0  501 -0.00000000000E+00 -0.00000000000E+00 -0.36496314808E+02  0.36496314808E+02  0.00000000000E+00 0.  1.
         23    2    1    2    0    0 -0.67924240693E+01  0.26389201220E+02  0.18926045881E+03  0.21278204908E+03  0.93349623345E+02 0.  0.
         23    2    1    2    0    0  0.67924240693E+01 -0.26389201220E+02  0.67154328199E+02  0.11662536754E+03  0.91374206382E+02 0.  0.
          5    1    3    3  502    0  0.12872605234E+02 -0.31576214651E+02  0.51288352904E+02  0.61768490679E+02  0.47000000000E+01 0. -1.
         -5    1    4    4    0  503  0.13032323828E+02  0.26280729379E+02 -0.14956276430E+01  0.29746346047E+02  0.47000000000E+01 0.  1.
          5    1    4    4  503    0 -0.62398997588E+01 -0.52669930599E+02  0.68649955842E+02  0.86879021492E+02  0.47000000000E+01 0. -1.
         -5    1    3    3    0  502 -0.19665029303E+02  0.57965415871E+02  0.13797210590E+03  0.15101355840E+03  0.47000000000E+01 0.  1.
<mgrwt>
<rscale>  0 0.96768290E+02</rscale>
<asrwt>0</asrwt>
<pdfrwt beam="1">  1        2 0.45063245E-01 0.97245458E+02</pdfrwt>
<pdfrwt beam="2">  1       -2 0.56148179E-02 0.97245458E+02</pdfrwt>
<totfact> 0.16704556E+04</totfact>
</mgrwt>
</event>
<event>
 8    1  0.2964543E-004  0.9321660E+02  0.7546771E-02  0.1296450E+00
         -3   -1    0    0    0  501 -0.00000000000E+00  0.00000000000E+00  0.12444079966E+02  0.12444079966E+02  0.00000000000E+00 0.  1.
          3   -1    0    0  501    0  0.00000000000E+00 -0.00000000000E+00 -0.68785144741E+03  0.68785144741E+03  0.00000000000E+00 0. -1.
         23    2    1    2    0    0 -0.97699369513E-01  0.87027605420E+01 -0.36365781208E+03  0.37490788104E+03  0.90736802849E+02 0.  0.
         23    2    1    2    0    0  0.97699369513E-01 -0.87027605420E+01 -0.31174955537E+03  0.32538764634E+03  0.92809415114E+02 0.  0.
          5    1    3    3  502    0  0.18169455921E+02  0.45814373991E+02 -0.19427454773E+03  0.20048385443E+03  0.47000000000E+01 0. -1.
         -5    1    3    3    0  502 -0.18267155290E+02 -0.37111613449E+02 -0.16938326435E+03  0.17442402660E+03  0.47000000000E+01 0.  1.
          5    1    4    4  503    0 -0.28273339808E+02  0.22396317094E+02 -0.60499812356E+02  0.70592450434E+02  0.47000000000E+01 0. -1.
         -5    1    4    4    0  503  0.28371039178E+02 -0.31099077636E+02 -0.25124974302E+03  0.25479519591E+03  0.47000000000E+01 0.  1.
<mgrwt>
<rscale>  0 0.92696427E+02</rscale>
<asrwt>0</asrwt>
<pdfrwt beam="1">  1        3 0.10582334E+00 0.93216603E+02</pdfrwt>
<pdfrwt beam="2">  1       -3 0.19144730E-02 0.93216603E+02</pdfrwt>
<totfact> 0.17406602E+03</totfact>
</mgrwt>
</event>
<event>
 8    1  0.2964543E-004  0.1026135E+03  0.7546771E-02  0.1275738E+00
         -4   -1    0    0    0  501 -0.00000000000E+00  0.00000000000E+00  0.39493832734E+03  0.39493832734E+03  0.00000000000E+00 0.  1.
          4   -1    0    0  501    0  0.00000000000E+00 -0.00000000000E+00 -0.51649525006E+02  0.51649525006E+02  0.00000000000E+00 0. -1.
         23    2    1    2    0    0  0.10407452346E+02 -0.39797342444E+02  0.14309187833E+02  0.10197630103E+03  0.92207752305E+02 0.  0.
         23    2    1    2    0    0 -0.10407452346E+02  0.39797342444E+02  0.32897961450E+03  0.34461155131E+03  0.94007398715E+02 0.  0.
          5    1    4    4  502    0  0.18307454427E+02  0.32099372008E+02  0.42332048586E+02  0.56388162839E+02  0.47000000000E+01 0. -1.
         -5    1    3    3    0  503  0.15246046013E+02 -0.64374562263E+02 -0.96211464567E+01  0.67016286414E+02  0.47000000000E+01 0.  1.
          5    1    3    3  503    0 -0.48385936668E+01  0.24577219819E+02  0.23930334289E+02  0.34960014615E+02  0.47000000000E+01 0. -1.
         -5    1    4    4    0  502 -0.28714906773E+02  0.76979704362E+01  0.28664756591E+03  0.28822338848E+03  0.47000000000E+01 0.  1.
<mgrwt>
<rscale>  0 0.10219949E+03</rscale>
<asrwt>0</asrwt>
<pdfrwt beam="1">  1        4 0.79460810E-02 0.10261352E+03</pdfrwt>
<pdfrwt beam="2">  1       -4 0.60759741E-01 0.10261352E+03</pdfrwt>
<totfact> 0.45230324E+02</totfact>
</mgrwt>
</event>
<event>
 8    1  0.2964543E-004  0.1052617E+03  0.7546771E-02  0.1270743E+00
         -1   -1    0    0    0  501 -0.00000000000E+00  0.00000000000E+00  0.32679799264E+03  0.32679799264E+03  0.00000000000E+00 0.  1.
          1   -1    0    0  501    0  0.00000000000E+00 -0.00000000000E+00 -0.38241872235E+02  0.38241872235E+02  0.00000000000E+00 0. -1.
         23    2    1    2    0    0  0.37376155127E+02  0.24912826861E+02  0.20936067297E+03  0.23331310230E+03  0.92657899847E+02 0.  0.
         23    2    1    2    0    0 -0.37376155127E+02 -0.24912826861E+02  0.79195447437E+02  0.13172676258E+03  0.95196613227E+02 0.  0.
          5    1    4    4  502    0 -0.59789934279E+02 -0.44594757579E+02  0.61007493896E+02  0.96475556262E+02  0.47000000000E+01 0. -1.
         -5    1    3    3    0  503 -0.79736331923E+01  0.41685605081E+02  0.15328156740E+03  0.15911818690E+03  0.47000000000E+01 0.  1.
          5    1    3    3  503    0  0.45349788319E+02 -0.16772778220E+02  0.56079105566E+02  0.74194915398E+02  0.47000000000E+01 0. -1.
         -5    1    4    4    0  502  0.22413779152E+02  0.19681930718E+02  0.18187953542E+02  0.35251206315E+02  0.47000000000E+01 0.  1.
<mgrwt>
<rscale>  0 0.10468438E+03</rscale>
<asrwt>0</asrwt>
<pdfrwt beam="1">  1        1 0.58833652E-02 0.10526168E+03</pdfrwt>
<pdfrwt beam="2">  1       -1 0.50276612E-01 0.10526168E+03</pdfrwt>
<totfact> 0.50544080E+03</totfact>
</mgrwt>
</event>
<event>
 8    1  0.2964543E-004  0.9421867E+02  0.7546771E-02  0.1295225E+00
          1   -1    0    0  501    0  0.00000000000E+00  0.00000000000E+00  0.28590987749E+03  0.28590987749E+03  0.00000000000E+00 0. -1.
         -1   -1    0    0    0  501 -0.00000000000E+00 -0.00000000000E+00 -0.41134115760E+02  0.41134115760E+02  0.00000000000E+00 0.  1.
         23    2    1    2    0    0  0.56265625426E+01  0.10936695402E+02  0.38341619243E+02  0.10172137536E+03  0.93412466655E+02 0.  0.
         23    2    1    2    0    0 -0.56265625426E+01 -0.10936695402E+02  0.20643414249E+03  0.22532261789E+03  0.89464839106E+02 0.  0.
          5    1    4    4  502    0 -0.14149577864E+02 -0.48893232997E+02  0.11559961050E+03  0.12639667216E+03  0.47000000000E+01 0. -1.
         -5    1    3    3    0  503  0.35140445241E+02 -0.19764705301E+02 -0.48551775479E+01  0.40879789828E+02  0.47000000000E+01 0.  1.
          5    1    3    3  503    0 -0.29513882698E+02  0.30701400703E+02  0.43196796791E+02  0.60841585532E+02  0.47000000000E+01 0. -1.
         -5    1    4    4    0  502  0.85230153217E+01  0.37956537595E+02  0.90834531987E+02  0.98925945725E+02  0.47000000000E+01 0.  1.
<mgrwt>
<rscale>  0 0.93224969E+02</rscale>
<asrwt>0</asrwt>
<pdfrwt beam="1">  1        1 0.43986134E-01 0.94218674E+02</pdfrwt>
<pdfrwt beam="2">  1       -1 0.63283257E-02 0.94218674E+02</pdfrwt>
<totfact> 0.10512260E+04</totfact>
</mgrwt>
</event>
<event>
 8    1  0.2964543E-004  0.9791512E+02  0.7546771E-02  0.1285346E+00
          1   -1    0    0  501    0  0.00000000000E+00  0.00000000000E+00  0.15327063035E+03  0.15327063035E+03  0.00000000000E+00 0. -1.
         -1   -1    0    0    0  501 -0.00000000000E+00 -0.00000000000E+00 -0.69841098404E+02  0.69841098404E+02  0.00000000000E+00 0.  1.
         23    2    1    2    0    0  0.87947284846E+01 -0.34544540588E+02  0.37571459159E+01  0.96877581584E+02  0.90002650708E+02 0.  0.
         23    2    1    2    0    0 -0.87947284846E+01  0.34544540588E+02  0.79672386033E+02  0.12623414717E+03  0.91195933478E+02 0.  0.
          5    1    4    4  502    0  0.22708044029E+02  0.54115459174E+02  0.37151801773E+02  0.69616697424E+02  0.47000000000E+01 0. -1.
         -5    1    3    3    0  503  0.35121711100E+02 -0.52386675937E+02 -0.53287985237E+01  0.63469555694E+02  0.47000000000E+01 0.  1.
          5    1    3    3  503    0 -0.26326982615E+02  0.17842135349E+02  0.90859444396E+01  0.33408025889E+02  0.47000000000E+01 0. -1.
         -5    1    4    4    0  502 -0.31502772514E+02 -0.19570918586E+02  0.42520584259E+02  0.56617449749E+02  0.47000000000E+01 0.  1.
<mgrwt>
<rscale>  0 0.97636327E+02</rscale>
<asrwt>0</asrwt>
<pdfrwt beam="1">  1        1 0.23580097E-01 0.97915120E+02</pdfrwt>
<pdfrwt beam="2">  1       -1 0.10744784E-01 0.97915120E+02</pdfrwt>
<totfact> 0.10275429E+04</totfact>
</mgrwt>
</event>
<event>
 8    1  0.2964543E-004  0.9711627E+02  0.7546771E-02  0.1287295E+00
          2   -1    0    0  501    0  0.00000000000E+00  0.00000000000E+00  0.36049667277E+03  0.36049667277E+03  0.00000000000E+00 0. -1.
         -2   -1    0    0    0  501 -0.00000000000E+00 -0.00000000000E+00 -0.25909952223E+02  0.25909952223E+02  0.00000000000E+00 0.  1.
         23    2    1    2    0    0  0.31057507663E+02  0.12780377335E+02  0.15160092217E+03  0.17924636764E+03  0.89546155034E+02 0.  0.
         23    2    1    2    0    0 -0.31057507663E+02 -0.12780377335E+02  0.18298579838E+03  0.20716025736E+03  0.91124436858E+02 0.  0.
          5    1    3    3  502    0  0.52884825974E+02  0.12748419411E+02  0.14649828421E+03  0.15634309800E+03  0.47000000000E+01 0. -1.
         -5    1    3    3    0  502 -0.21827318312E+02  0.31957923515E-01  0.51026379622E+01  0.22903269639E+02  0.47000000000E+01 0.  1.
          5    1    4    4  503    0  0.15526759175E+02  0.23817571814E+02  0.24243578510E+02  0.37658970732E+02  0.47000000000E+01 0. -1.
         -5    1    4    4    0  503 -0.46584266837E+02 -0.36597949149E+02  0.15874221987E+03  0.16950128662E+03  0.47000000000E+01 0.  1.
<mgrwt>
<rscale>  0 0.96744301E+02</rscale>
<asrwt>0</asrwt>
<pdfrwt beam="1">  1        2 0.55461023E-01 0.97116270E+02</pdfrwt>
<pdfrwt beam="2">  1       -2 0.39861467E-02 0.97116270E+02</pdfrwt>
<totfact> 0.22342773E+04</totfact>
</mgrwt>
</event>
<event>
 8    1  0.2964543E-004  0.9933568E+02  0.7546771E-02  0.1283009E+00
          3   -1    0    0  501    0  0.00000000000E+00  0.00000000000E+00  0.25371027800E+02  0.25371027800E+02  0.00000000000E+00 0. -1.
         -3   -1    0    0    0  501 -0.00000000000E+00 -0.00000000000E+00 -0.38360919128E+03  0.38360919128E+03  0.00000000000E+00 0.  1.
         23    2    1    2    0    0 -0.28412213490E+02  0.15083035513E+02 -0.19821241239E+03  0.22062996498E+03  0.91403879492E+02 0.  0.
         23    2    1    2    0    0  0.28412213490E+02 -0.15083035513E+02 -0.16002575109E+03  0.18835025410E+03  0.93983112161E+02 0.  0.
          5    1    3    3  502    0 -0.17829393247E+02 -0.27613247574E+02 -0.24211418697E+02  0.41093326714E+02  0.47000000000E+01 0. -1.
         -5    1    3    3    0  502 -0.10582820244E+02  0.42696283087E+02 -0.17400099369E+03  0.17953663826E+03  0.47000000000E+01 0.  1.
          5    1    4    4  503    0  0.21526243600E+01 -0.46290678887E+02 -0.12821299478E+03  0.13641159326E+03  0.47000000000E+01 0. -1.
         -5    1    4    4    0  503  0.26259589130E+02  0.31207643374E+02 -0.31812756307E+02  0.51938660842E+02  0.47000000000E+01 0.  1.
<mgrwt>
<rscale>  0 0.98720831E+02</rscale>
<asrwt>0</asrwt>
<pdfrwt beam="1">  1        3 0.39032349E-02 0.99335679E+02</pdfrwt>
<pdfrwt beam="2">  1       -3 0.59016800E-01 0.99335679E+02</pdfrwt>
<totfact> 0.20792134E+03</totfact>
</mgrwt>
</event>
<event>
 8    1  0.2964543E-004  0.9336694E+02  0.7546771E-02  0.1295498E+00
          1   -1    0    0  501    0  0.00000000000E+00  0.00000000000E+00  0.42195289704E+02  0.42195289704E+02  0.00000000000E+00 0. -1.
         -1   -1    0    0    0  501 -0.00000000000E+00 -0.00000000000E+00 -0.43821371222E+03  0.43821371222E+03  0.00000000000E+00 0.  1.
         23    2    1    2    0    0 -0.11942174470E+02  0.14996361140E+02 -0.37401619264E+03  0.38549383525E+03  0.91377668395E+02 0.  0.
         23    2    1    2    0    0  0.11942174470E+02 -0.14996361140E+02 -0.22002229868E+02  0.94915166665E+02  0.90317685784E+02 0.  0.
          5    1    3    3  502    0 -0.14089463134E+02 -0.37634621382E+02 -0.15784808887E+03  0.16295087253E+03  0.47000000000E+01 0. -1.
         -5    1    3    3    0  502  0.21472886639E+01  0.52630982522E+02 -0.21616810378E+03  0.22254296273E+03  0.47000000000E+01 0.  1.
          5    1    4    4  503    0  0.12467629913E+02  0.27927836889E+02  0.18213114666E+02  0.35905618150E+02  0.47000000000E+01 0. -1.
         -5    1    4    4    0  503 -0.52545544267E+00 -0.42924198029E+02 -0.40215344534E+02  0.59009548514E+02  0.47000000000E+01 0.  1.
<mgrwt>
<rscale>  0 0.93106563E+02</rscale>
<asrwt>0</asrwt>
<pdfrwt beam="1">  1        1 0.64915828E-02 0.93366936E+02</pdfrwt>
<pdfrwt beam="2">  1       -1 0.67417496E-01 0.93366936E+02</pdfrwt>
<totfact> 0.25361994E+03</totfact>
</mgrwt>
</event>
<event>
 8    1  0.2964543E-004  0.1364494E+03  0.7546771E-02  0.1218871E+00
         -1   -1    0    0    0  501 -0.00000000000E+00  0.00000000000E+00  0.76550563082E+02  0.76550563082E+02  0.00000000000E+00 0.  1.
          1   -1    0    0  501    0  0.00000000000E+00 -0.00000000000E+00 -0.49935455107E+03  0.49935455107E+03  0.00000000000E+00 0. -1.
         23    2    1    2    0    0  0.93335898835E+02  0.36926370251E+02 -0.30556330214E+01  0.13453553183E+03  0.89528350813E+02 0.  0.
         23    2    1    2    0    0 -0.93335898835E+02 -0.36926370251E+02 -0.41974835497E+03  0.44136958233E+03  0.92429864621E+02 0.  0.
          5    1    4    4  502    0 -0.43530415357E+02 -0.60436762459E+02 -0.17137511005E+03  0.18691981613E+03  0.47000000000E+01 0. -1.
         -5    1    4    4    0  502 -0.49805483478E+02  0.23510392209E+02 -0.24837324491E+03  0.25444976619E+03  0.47000000000E+01 0.  1.
          5    1    3    3  503    0  0.52402607434E+02 -0.22781962056E+02 -0.18732904026E+02  0.60316355611E+02  0.47000000000E+01 0. -1.
         -5    1    3    3    0  503  0.40933291401E+02  0.59708332307E+02  0.15677271004E+02  0.74219176214E+02  0.47000000000E+01 0.  1.
<mgrwt>
<rscale>  0 0.13595959E+03</rscale>
<asrwt>0</asrwt>
<pdfrwt beam="1">  1        1 0.76823777E-01 0.13644936E+03</pdfrwt>
<pdfrwt beam="2">  1       -1 0.11777010E-01 0.13644936E+03</pdfrwt>
<totfact> 0.20948293E+03</totfact>
</mgrwt>
</event>
<event>
 8    1  0.2964543E-004  0.1050549E+03  0.7546771E-02  0.1270675E+00
          1   -1    0    0  501    0  0.00000000000E+00  0.00000000000E+00  0.40656758352E+03  0.40656758352E+03  0.00000000000E+00 0. -1.
         -1   -1    0    0    0  501 -0.00000000000E+00 -0.00000000000E+00 -0.44030619104E+02  0.44030619104E+02  0.00000000000E+00 0.  1.
         23    2    1    2    0    0  0.34965169244E+02  0.34546984291E+02  0.41042164676E+02  0.11278733497E+03  0.92846467159E+02 0.  0.
         23    2    1    2    0    0 -0.34965169244E+02 -0.34546984291E+02  0.32149479974E+03  0.33781086766E+03  0.91330273530E+02 0.  0.
          5    1    3    3  502    0 -0.31591097788E+01 -0.27607899752E+02  0.25669560610E+02  0.38120761341E+02  0.47000000000E+01 0. -1.
         -5    1    3    3    0  502  0.38124279023E+02  0.62154884042E+02  0.15372604066E+02  0.74666573626E+02  0.47000000000E+01 0.  1.
          5    1    4    4  503    0 -0.18597867486E+02 -0.65317446369E+02  0.22679968976E+03  0.23679619666E+03  0.47000000000E+01 0. -1.
         -5    1    4    4    0  503 -0.16367301759E+02  0.30770462078E+02  0.94695109975E+02  0.10101467100E+03  0.47000000000E+01 0.  1.
<mgrwt>
<rscale>  0 0.10471886E+03</rscale>
<asrwt>0</asrwt>
<pdfrwt beam="1">  1        1 0.62548857E-01 0.10505486E+03</pdfrwt>
<pdfrwt beam="2">  1       -1 0.67739417E-02 0.10505486E+03</pdfrwt>
<totfact> 0.62078465E+03</totfact>
</mgrwt>
</event>
<event>
 8    1  0.2964543E-004  0.1442376E+03  0.7546771E-02  0.1207773E+00
          1   -1    0    0  501    0  0.00000000000E+00  0.00000000000E+00  0.57961827548E+03  0.57961827548E+03  0.00000000000E+00 0. -1.
         -1   -1    0    0    0  501 -0.00000000000E+00 -0.00000000000E+00 -0.12500952988E+03  0.12500952988E+03  0.00000000000E+00 0.  1.
         23    2    1    2    0    0 -0.23113737880E+02  0.10889835449E+03 -0.70181447198E+02  0.16040547781E+03  0.91713604723E+02 0.  0.
         23    2    1    2    0    0  0.23113737880E+02 -0.10889835449E+03  0.52479019280E+03  0.54422232755E+03  0.91542879858E+02 0.  0.
          5    1    4    4  502    0  0.20756511603E+02 -0.51284794422E+02  0.42704295917E+03  0.43063759925E+03  0.47000000000E+01 0. -1.
         -5    1    3    3    0  503 -0.57116013380E+02  0.76814440870E+02 -0.57403163301E+02  0.11171351963E+03  0.47000000000E+01 0.  1.
          5    1    3    3  503    0  0.34002275500E+02  0.32083913624E+02 -0.12778283897E+02  0.48691958186E+02  0.47000000000E+01 0. -1.
         -5    1    4    4    0  502  0.23572262770E+01 -0.57613560072E+02  0.97747233632E+02  0.11358472830E+03  0.47000000000E+01 0.  1.
<mgrwt>
<rscale>  0 0.14421046E+03</rscale>
<asrwt>0</asrwt>
<pdfrwt beam="1">  1        1 0.89172041E-01 0.14423759E+03</pdfrwt>
<pdfrwt beam="2">  1       -1 0.19232236E-01 0.14423759E+03</pdfrwt>
<totfact> 0.79672584E+02</totfact>
</mgrwt>
</event>
<event>
 8    1  0.2964543E-004  0.9326315E+02  0.7546771E-02  0.1295297E+00
         -3   -1    0    0    0  501 -0.00000000000E+00  0.00000000000E+00  0.42902399299E+02  0.42902399299E+02  0.00000000000E+00 0.  1.
          3   -1    0    0  501    0  0.00000000000E+00 -0.00000000000E+00 -0.21492569022E+03  0.21492569022E+03  0.00000000000E+00 0. -1.
         23    2    1    2    0    0 -0.12212699621E+02 -0.96668573201E+01 -0.11733697757E+03  0.14971422570E+03  0.91672159942E+02 0.  0.
         23    2    1    2    0    0  0.12212699621E+02  0.96668573201E+01 -0.54686313350E+02  0.10811386382E+03  0.91953338818E+02 0.  0.
          5    1    4    4  502    0  0.28008562203E+02  0.29351471145E+02  0.68724628215E+01  0.41416291001E+02  0.47000000000E+01 0. -1.
         -5    1    3    3    0  503  0.22099904975E+02  0.41388728391E+01  0.35189974591E+01  0.23238102578E+02  0.47000000000E+01 0.  1.
          5    1    3    3  503    0 -0.34312604596E+02 -0.13805730159E+02 -0.12085597503E+03  0.12647612312E+03  0.47000000000E+01 0. -1.
         -5    1    4    4    0  502 -0.15795862582E+02 -0.19684613825E+02 -0.61558776172E+02  0.66697572819E+02  0.47000000000E+01 0.  1.
<mgrwt>
<rscale>  0 0.93193766E+02</rscale>
<asrwt>0</asrwt>
<pdfrwt beam="1">  1        3 0.33065491E-01 0.93263148E+02</pdfrwt>
<pdfrwt beam="2">  1       -3 0.66003690E-02 0.93263148E+02</pdfrwt>
<totfact> 0.27731431E+03</totfact>
</mgrwt>
</event>
<event>
 7    1  0.2964543E-004  0.3389535E+03  0.7546771E-02  0.1067243E+00
         -4   -1    0    0    0  501 -0.00000000000E+00  0.00000000000E+00  0.74862051328E+03  0.74862051328E+03  0.00000000000E+00 0.  1.
          4   -1    0    0  501    0  0.00000000000E+00 -0.00000000000E+00 -0.38367069146E+02  0.38367069146E+02  0.00000000000E+00 0. -1.
         23    2    1    2    0    0 -0.45245952337E+02  0.48578258518E+02  0.42744375815E+03  0.44233708424E+03  0.92449371607E+02 0.  0.
          5    1    3    3  502    0  0.27503667119E+02  0.23859179316E+02  0.12850955074E+03  0.13365068939E+03  0.47000000000E+01 0. -1.
         -5    1    3    3    0  502 -0.72749619456E+02  0.24719079201E+02  0.29893420741E+03  0.30868639485E+03  0.47000000000E+01 0.  1.
          5    1    1    2  503    0  0.30172574884E+02 -0.94057923828E+02  0.57789957498E+02  0.11453840621E+03  0.47000000000E+01 0. -1.
         -5    1    1    2    0  503  0.15073377453E+02  0.45479665310E+02  0.22501972848E+03  0.23011209197E+03  0.47000000000E+01 0.  1.
<mgrwt>
<rscale>  0 0.33895354E+03</rscale>
<asrwt>0</asrwt>
<pdfrwt beam="1">  1        4 0.59026266E-02 0.33895354E+03</pdfrwt>
<pdfrwt beam="2">  1       -4 0.11517238E+00 0.33895354E+03</pdfrwt>
<totfact> 0.21282057E+02</totfact>
</mgrwt>
</event>
<event>
 8    1  0.2964543E-004  0.1613545E+03  0.7546771E-02  0.1188191E+00
         -1   -1    0    0    0  501 -0.00000000000E+00  0.00000000000E+00  0.45432460036E+03  0.45432460036E+03  0.00000000000E+00 0.  1.
          1   -1    0    0  501    0  0.00000000000E+00 -0.00000000000E+00 -0.60458577221E+02  0.60458577221E+02  0.00000000000E+00 0. -1.
         23    2    1    2    0    0  0.11506712398E+03  0.57513997486E+02  0.12938037510E+03  0.20682009828E+03  0.97401071163E+02 0.  0.
         23    2    1    2    0    0 -0.11506712398E+03 -0.57513997486E+02  0.26448564804E+03  0.30796307930E+03  0.91325227976E+02 0.  0.
          5    1    3    3  502    0  0.93486054454E+02 -0.59785621096E+00  0.50413567860E+02  0.10631847268E+03  0.47000000000E+01 0. -1.
         -5    1    4    4    0  503 -0.83139814978E+02  0.89480766515E+01  0.14666444169E+03  0.16889299976E+03  0.47000000000E+01 0.  1.
          5    1    4    4  503    0 -0.31927309005E+02 -0.66462074137E+02  0.11782120635E+03  0.13907007954E+03  0.47000000000E+01 0. -1.
         -5    1    3    3    0  502  0.21581069529E+02  0.58111853697E+02  0.78966807240E+02  0.10050162560E+03  0.47000000000E+01 0.  1.
<mgrwt>
<rscale>  0 0.16044857E+03</rscale>
<asrwt>0</asrwt>
<pdfrwt beam="1">  1        1 0.93013199E-02 0.16135449E+03</pdfrwt>
<pdfrwt beam="2">  1       -1 0.69896090E-01 0.16135449E+03</pdfrwt>
<totfact> 0.14972864E+03</totfact>
</mgrwt>
</event>
<event>
 8    1  0.2964543E-004  0.9420200E+02  0.7546771E-02  0.1293260E+00
         -1   -1    0    0    0  501 -0.00000000000E+00  0.00000000000E+00  0.77862374193E+02  0.77862374193E+02  0.00000000000E+00 0.  1.
          1   -1    0    0  501    0  0.00000000000E+00 -0.00000000000E+00 -0.12718624555E+03  0.12718624555E+03  0.00000000000E+00 0. -1.
         23    2    1    2    0    0 -0.26807493905E+02  0.51783867698E+01 -0.58377788024E+02  0.11041252461E+03  0.89652116742E+02 0.  0.
         23    2    1    2    0    0  0.26807493905E+02 -0.51783867698E+01  0.90539166707E+01  0.94636095133E+02  0.90158525254E+02 0.  0.
          5    1    3    3  502    0  0.74500100409E+01 -0.35070319369E+02 -0.40792742707E+02  0.54512088639E+02  0.47000000000E+01 0. -1.
         -5    1    4    4    0  503 -0.12496086212E+02  0.22544881745E+02  0.31817063827E+02  0.41216979682E+02  0.47000000000E+01 0.  1.
          5    1    4    4  503    0  0.39303580116E+02 -0.27723268515E+02 -0.22763147157E+02  0.53419115451E+02  0.47000000000E+01 0. -1.
         -5    1    3    3    0  502 -0.34257503945E+02  0.40248706139E+02 -0.17585045317E+02  0.55900435966E+02  0.47000000000E+01 0.  1.
<mgrwt>
<rscale>  0 0.94080628E+02</rscale>
<asrwt>0</asrwt>
<pdfrwt beam="1">  1        1 0.19567115E-01 0.94202002E+02</pdfrwt>
<pdfrwt beam="2">  1       -1 0.11978827E-01 0.94202002E+02</pdfrwt>
<totfact> 0.10959902E+04</totfact>
</mgrwt>
</event>
<event>
 8    1  0.2964543E-004  0.1343047E+03  0.7546771E-02  0.1222473E+00
          3   -1    0    0  501    0  0.00000000000E+00  0.00000000000E+00  0.44966713368E+03  0.44966713368E+03  0.00000000000E+00 0. -1.
         -3   -1    0    0    0  501 -0.00000000000E+00 -0.00000000000E+00 -0.41608122217E+02  0.41608122217E+02  0.00000000000E+00 0.  1.
         23    2    1    2    0    0 -0.80325129479E+02 -0.54908532168E+02  0.26215850121E+03  0.29297069480E+03  0.87393792259E+02 0.  0.
         23    2    1    2    0    0  0.80325129479E+02  0.54908532168E+02  0.14590051025E+03  0.19830456109E+03  0.92577895457E+02 0.  0.
          5    1    4    4  502    0  0.76388814984E+02  0.67502898804E+01  0.12204096588E+03  0.14421132002E+03  0.47000000000E+01 0. -1.
         -5    1    3    3    0  503 -0.41441526501E+02  0.19289248407E+02  0.11002724643E+03  0.11923741099E+03  0.47000000000E+01 0.  1.
          5    1    3    3  503    0 -0.38883602978E+02 -0.74197780575E+02  0.15213125478E+03  0.17373328381E+03  0.47000000000E+01 0. -1.
         -5    1    4    4    0  502  0.39363144945E+01  0.48158242288E+02  0.23859544365E+02  0.54093241069E+02  0.47000000000E+01 0.  1.
<mgrwt>
<rscale>  0 0.13341599E+03</rscale>
<asrwt>0</asrwt>
<pdfrwt beam="1">  1        3 0.69179556E-01 0.13430465E+03</pdfrwt>
<pdfrwt beam="2">  1       -3 0.64012499E-02 0.13430465E+03</pdfrwt>
<totfact> 0.72328482E+02</totfact>
</mgrwt>
</event>
<event>
 8    1  0.2964543E-004  0.1106592E+03  0.7546771E-02  0.1262053E+00
          2   -1    0    0  501    0  0.00000000000E+00  0.00000000000E+00  0.72240680804E+02  0.72240680804E+02  0.00000000000E+00 0. -1.
         -2   -1    0    0    0  501 -0.00000000000E+00 -0.00000000000E+00 -0.18924123543E+03  0.18924123543E+03  0.00000000000E+00 0.  1.
         23    2    1    2    0    0  0.30360650162E+02 -0.41125102135E+02 -0.11042103031E+03  0.15632740511E+03  0.98144844745E+02 0.  0.
         23    2    1    2    0    0 -0.30360650162E+02  0.41125102135E+02 -0.65795243194E+01  0.10515451113E+03  0.91657721804E+02 0.  0.
          5    1    4    4  502    0 -0.12030986306E+02  0.52250717457E+02  0.30647684009E+02  0.61937489789E+02  0.47000000000E+01 0. -1.
         -5    1    3    3    0  503  0.66269244371E+02 -0.28386294026E+02 -0.73620581359E+02  0.10314782808E+03  0.47000000000E+01 0.  1.
          5    1    3    3  503    0 -0.35908594209E+02 -0.12738808109E+02 -0.36800448952E+02  0.53179577031E+02  0.47000000000E+01 0. -1.
         -5    1    4    4    0  502 -0.18329663857E+02 -0.11125615322E+02 -0.37227208329E+02  0.43217021338E+02  0.47000000000E+01 0.  1.
<mgrwt>
<rscale>  0 0.10920301E+03</rscale>
<asrwt>0</asrwt>
<pdfrwt beam="1">  1        2 0.11113951E-01 0.11065918E+03</pdfrwt>
<pdfrwt beam="2">  1       -2 0.29114036E-01 0.11065918E+03</pdfrwt>
<totfact> 0.56703199E+03</totfact>
</mgrwt>
</event>
<event>
 8    1  0.2964543E-004  0.1030766E+03  0.7546771E-02  0.1274698E+00
         -2   -1    0    0    0  501 -0.00000000000E+00  0.00000000000E+00  0.36031429284E+03  0.36031429284E+03  0.00000000000E+00 0.  1.
          2   -1    0    0  501    0  0.00000000000E+00 -0.00000000000E+00 -0.35783522466E+02  0.35783522466E+02  0.00000000000E+00 0. -1.
         23    2    1    2    0    0 -0.47466384711E+02 -0.57544984813E+01  0.24709606609E+03  0.26717565924E+03  0.89667134912E+02 0.  0.
         23    2    1    2    0    0  0.47466384711E+02  0.57544984813E+01  0.77434704282E+02  0.12892215606E+03  0.91316027982E+02 0.  0.
          5    1    4    4  502    0 -0.26591820009E+02  0.30113188671E+01  0.31524401146E+02  0.41618154696E+02  0.47000000000E+01 0. -1.
         -5    1    3    3    0  503  0.96657327596E+01  0.25906399794E+02  0.33107960748E+02  0.43391185798E+02  0.47000000000E+01 0.  1.
          5    1    3    3  503    0 -0.57132117471E+02 -0.31660898275E+02  0.21398810534E+03  0.22378447344E+03  0.47000000000E+01 0. -1.
         -5    1    4    4    0  502  0.74058204720E+02  0.27431796142E+01  0.45910303137E+02  0.87304001368E+02  0.47000000000E+01 0.  1.
<mgrwt>
<rscale>  0 0.10271020E+03</rscale>
<asrwt>0</asrwt>
<pdfrwt beam="1">  1        2 0.55051575E-02 0.10307662E+03</pdfrwt>
<pdfrwt beam="2">  1       -2 0.55432966E-01 0.10307662E+03</pdfrwt>
<totfact> 0.40156293E+03</totfact>
</mgrwt>
</event>
<event>
 8    1  0.2964543E-004  0.1027948E+03  0.7546771E-02  0.1274689E+00
          2   -1    0    0  501    0  0.00000000000E+00  0.00000000000E+00  0.58146720645E+03  0.58146720645E+03  0.00000000000E+00 0. -1.
         -2   -1    0    0    0  501 -0.00000000000E+00 -0.00000000000E+00 -0.26843734759E+02  0.26843734759E+02  0.00000000000E+00 0.  1.
         23    2    1    2    0    0  0.42996409862E+02 -0.22305134451E+02  0.45103639895E+03  0.46260198229E+03  0.90667251802E+02 0.  0.
         23    2    1    2    0    0 -0.42996409862E+02  0.22305134451E+02  0.10358707273E+03  0.14570895892E+03  0.90302872537E+02 0.  0.
          5    1    4    4  502    0 -0.52054092323E+02 -0.15599284944E+02  0.87876183227E+02  0.10342765489E+03  0.47000000000E+01 0. -1.
         -5    1    3    3    0  503  0.44066930325E+02  0.27576091299E+02  0.20762471395E+03  0.21408513962E+03  0.47000000000E+01 0.  1.
          5    1    3    3  503    0 -0.10705204625E+01 -0.49881225750E+02  0.24341168500E+03  0.24851684267E+03  0.47000000000E+01 0. -1.
         -5    1    4    4    0  502  0.90576824606E+01  0.37904419394E+02  0.15710889507E+02  0.42281304028E+02  0.47000000000E+01 0.  1.
<mgrwt>
<rscale>  0 0.10271435E+03</rscale>
<asrwt>0</asrwt>
<pdfrwt beam="1">  1        2 0.89456484E-01 0.10279475E+03</pdfrwt>
<pdfrwt beam="2">  1       -2 0.41298058E-02 0.10279475E+03</pdfrwt>
<totfact> 0.12749079E+04</totfact>
</mgrwt>
</event>
<event>
 8    1  0.2964543E-004  0.1019319E+03  0.7546771E-02  0.1276455E+00
          2   -1    0    0  501    0  0.00000000000E+00  0.00000000000E+00  0.60567761856E+03  0.60567761856E+03  0.00000000000E+00 0. -1.
         -2   -1    0    0    0  501 -0.00000000000E+00 -0.00000000000E+00 -0.22268393308E+02  0.22268393308E+02  0.00000000000E+00 0.  1.
         23    2    1    2    0    0  0.20316877077E+02  0.36095347318E+02  0.14006680028E+03  0.17303655654E+03  0.92775491200E+02 0.  0.
         23    2    1    2    0    0 -0.20316877077E+02 -0.36095347318E+02  0.44334242497E+03  0.45490945533E+03  0.93136765953E+02 0.  0.
          5    1    3    3  502    0  0.40289848115E+02  0.43969710343E+02  0.13865971591E+03  0.15101395334E+03  0.47000000000E+01 0. -1.
         -5    1    3    3    0  502 -0.19972971038E+02 -0.78743630254E+01  0.14070843694E+01  0.22022603197E+02  0.47000000000E+01 0.  1.
          5    1    4    4  503    0 -0.55995144950E+02 -0.34385975061E+02  0.28160743651E+03  0.28921045942E+03  0.47000000000E+01 0. -1.
         -5    1    4    4    0  503  0.35678267873E+02 -0.17093722571E+01  0.16173498846E+03  0.16569899591E+03  0.47000000000E+01 0.  1.
<mgrwt>
<rscale>  0 0.10184927E+03</rscale>
<asrwt>0</asrwt>
<pdfrwt beam="1">  1        2 0.93181159E-01 0.10193187E+03</pdfrwt>
<pdfrwt beam="2">  1       -2 0.34259071E-02 0.10193187E+03</pdfrwt>
<totfact> 0.16021407E+04</totfact>
</mgrwt>
</event>
<event>
 8    1  0.2964543E-004  0.9607224E+02  0.7546771E-02  0.1289229E+00
          1   -1    0    0  501    0  0.00000000000E+00  0.00000000000E+00  0.26217473687E+03  0.26217473687E+03  0.00000000000E+00 0. -1.
         -1   -1    0    0    0  501 -0.00000000000E+00 -0.00000000000E+00 -0.34922356757E+02  0.34922356757E+02  0.00000000000E+00 0.  1.
         23    2    1    2    0    0 -0.25606729419E+02  0.17504557888E+02  0.11693489357E+03  0.15133949924E+03  0.90927226714E+02 0.  0.
         23    2    1    2    0    0  0.25606729419E+02 -0.17504557888E+02  0.11031748654E+03  0.14575759438E+03  0.90073383113E+02 0.  0.
          5    1    4    4  502    0  0.62781862347E+01 -0.53173842886E+02  0.71157132447E+02  0.89175673184E+02  0.47000000000E+01 0. -1.
         -5    1    3    3    0  503 -0.49217212206E+02 -0.44893670631E+01  0.10582477108E+03  0.11689080618E+03  0.47000000000E+01 0.  1.
          5    1    3    3  503    0  0.23610482787E+02  0.21993924951E+02  0.11110122488E+02  0.34448693065E+02  0.47000000000E+01 0. -1.
         -5    1    4    4    0  502  0.19328543184E+02  0.35669284998E+02  0.39160354091E+02  0.56581921198E+02  0.47000000000E+01 0.  1.
<mgrwt>
<rscale>  0 0.95869667E+02</rscale>
<asrwt>0</asrwt>
<pdfrwt beam="1">  1        1 0.40334574E-01 0.96072237E+02</pdfrwt>
<pdfrwt beam="2">  1       -1 0.53726704E-02 0.96072237E+02</pdfrwt>
<totfact> 0.14900707E+04</totfact>
</mgrwt>
</event>
<event>
 8    1  0.2964543E-004  0.1053327E+03  0.7546771E-02  0.1269502E+00
          2   -1    0    0  501    0  0.00000000000E+00  0.00000000000E+00  0.10936316902E+03  0.10936316902E+03  0.00000000000E+00 0. -1.
         -2   -1    0    0    0  501 -0.00000000000E+00 -0.00000000000E+00 -0.12501623657E+03  0.12501623657E+03  0.00000000000E+00 0.  1.
         23    2    1    2    0    0 -0.11553121313E+02 -0.51305125788E+02 -0.58780502279E+02  0.12055961029E+03  0.91179940998E+02 0.  0.
         23    2    1    2    0    0  0.11553121313E+02  0.51305125788E+02  0.43127434725E+02  0.11381979531E+03  0.91264887189E+02 0.  0.
          5    1    3    3  502    0  0.31389842747E+02 -0.80268520762E+01  0.39260860041E+01  0.32973576288E+02  0.47000000000E+01 0. -1.
         -5    1    3    3    0  502 -0.42942964060E+02 -0.43278273711E+02 -0.62706588283E+02  0.87586034000E+02  0.47000000000E+01 0.  1.
          5    1    4    4  503    0  0.38963558682E+02  0.16998522333E+01  0.41188211776E+02  0.56917547313E+02  0.47000000000E+01 0. -1.
         -5    1    4    4    0  503 -0.27410437369E+02  0.49605273554E+02  0.19392229485E+01  0.56902247994E+02  0.47000000000E+01 0.  1.
<mgrwt>
<rscale>  0 0.10531426E+03</rscale>
<asrwt>0</asrwt>
<pdfrwt beam="1">  1        2 0.16825103E-01 0.10533266E+03</pdfrwt>
<pdfrwt beam="2">  1       -2 0.19233267E-01 0.10533266E+03</pdfrwt>
<totfact> 0.70905123E+03</totfact>
</mgrwt>
</event>
<event>
 8    1  0.2964543E-004  0.1064770E+03  0.7546771E-02  0.1267639E+00
         -1   -1    0    0    0  501 -0.00000000000E+00  0.00000000000E+00  0.30666793643E+03  0.30666793643E+03  0.00000000000E+00 0.  1.
          1   -1    0    0  501    0  0.00000000000E+00 -0.00000000000E+00 -0.37013968585E+02  0.37013968585E+02  0.00000000000E+00 0. -1.
         23    2    1    2    0    0  0.30189904057E+02 -0.45157950321E+02  0.15057922701E+03  0.18394417041E+03  0.90612821581E+02 0.  0.
         23    2    1    2    0    0 -0.30189904057E+02  0.45157950321E+02  0.11907474083E+03  0.15973773460E+03  0.91578813974E+02 0.  0.
          5    1    4    4  502    0  0.18546958746E+02  0.53479135795E+02  0.62269628392E+02  0.84282882391E+02  0.47000000000E+01 0. -1.
         -5    1    4    4    0  502 -0.48736862803E+02 -0.83211854737E+01  0.56805112437E+02  0.75454852213E+02  0.47000000000E+01 0.  1.
          5    1    3    3  503    0 -0.12902380750E+02 -0.15571883767E+02 -0.36052917367E+01  0.21072330711E+02  0.47000000000E+01 0. -1.
         -5    1    3    3    0  503  0.43092284807E+02 -0.29586066554E+02  0.15418451875E+03  0.16287183970E+03  0.47000000000E+01 0.  1.
<mgrwt>
<rscale>  0 0.10626896E+03</rscale>
<asrwt>0</asrwt>
<pdfrwt beam="1">  1        1 0.56944569E-02 0.10647699E+03</pdfrwt>
<pdfrwt beam="2">  1       -1 0.47179681E-01 0.10647699E+03</pdfrwt>
<totfact> 0.59294824E+03</totfact>
</mgrwt>
</event>
<event>
 8    1  0.2964543E-004  0.4698414E+03  0.7546771E-02  0.1022015E+00
         -1   -1    0    0    0  501 -0.00000000000E+00  0.00000000000E+00  0.27505732576E+03  0.27505732576E+03  0.00000000000E+00 0.  1.
          1   -1    0    0  501    0  0.00000000000E+00 -0.00000000000E+00 -0.90848133561E+03  0.90848133561E+03  0.00000000000E+00 0. -1.
         23    2    1    2    0    0  0.42779309902E+03  0.16995384394E+03 -0.51971380636E+03  0.70013307547E+03  0.90513193566E+02 0.  0.
         23    2    1    2    0    0 -0.42779309902E+03 -0.16995384394E+03 -0.11371020350E+03  0.48340558590E+03  0.94126008424E+02 0.  0.
          5    1    4    4  502    0 -0.38380241209E+03 -0.14173458520E+03 -0.12853320771E+03  0.42887744129E+03  0.47000000000E+01 0. -1.
         -5    1    3    3    0  503  0.32471290058E+03  0.15059106313E+03 -0.35044795442E+03  0.50095109028E+03  0.47000000000E+01 0.  1.
          5    1    3    3  503    0  0.10308019844E+03  0.19362780809E+02 -0.16926585194E+03  0.19918198519E+03  0.47000000000E+01 0. -1.
         -5    1    4    4    0  502 -0.43990686934E+02 -0.28219258740E+02  0.14823004210E+02  0.54528144610E+02  0.47000000000E+01 0.  1.
<mgrwt>
<rscale>  0 0.46966370E+03</rscale>
<asrwt>0</asrwt>
<pdfrwt beam="1">  1        1 0.13976636E+00 0.46984141E+03</pdfrwt>
<pdfrwt beam="2">  1       -1 0.42316511E-01 0.46984141E+03</pdfrwt>
<totfact> 0.10295785E+02</totfact>
</mgrwt>
</event>
<event>
 8    1  0.2964543E-004  0.1155285E+03  0.7546771E-02  0.1251196E+00
         -2   -1    0    0    0  501 -0.00000000000E+00  0.00000000000E+00  0.15514280291E+03  0.15514280291E+03  0.00000000000E+00 0.  1.
          2   -1    0    0  501    0  0.00000000000E+00 -0.00000000000E+00 -0.86006644716E+02  0.86006644716E+02  0.00000000000E+00 0. -1.
         23    2    1    2    0    0  0.60711099883E+02 -0.31279051479E+02  0.22504945443E+02  0.11770007077E+03  0.93180563315E+02 0.  0.
         23    2    1    2    0    0 -0.60711099883E+02  0.31279051479E+02  0.46631212754E+02  0.12344937686E+03  0.91657307038E+02 0.  0.
          5    1    4    4  502    0 -0.36740370371E+01 -0.25722911654E+02  0.31783815851E+02  0.41321515971E+02  0.47000000000E+01 0. -1.
         -5    1    4    4    0  502 -0.57037062845E+02  0.57001963133E+02  0.14847396903E+02  0.82127860887E+02  0.47000000000E+01 0.  1.
          5    1    3    3  503    0  0.24146814706E+02 -0.55637962820E+02 -0.11541356044E+02  0.61918853886E+02  0.47000000000E+01 0. -1.
         -5    1    3    3    0  503  0.36564285176E+02  0.24358911342E+02  0.34046301487E+02  0.55781216885E+02  0.47000000000E+01 0.  1.
<mgrwt>
<rscale>  0 0.11522101E+03</rscale>
<asrwt>0</asrwt>
<pdfrwt beam="1">  1        2 0.13231792E-01 0.11552850E+03</pdfrwt>
<pdfrwt beam="2">  1       -2 0.23868124E-01 0.11552850E+03</pdfrwt>
<totfact> 0.65449548E+03</totfact>
</mgrwt>
</event>
<event>
 8    1  0.2964543E-004  0.1007416E+03  0.7546771E-02  0.1280453E+00
          1   -1    0    0  501    0  0.00000000000E+00  0.00000000000E+00  0.20262766828E+03  0.20262766828E+03  0.00000000000E+00 0. -1.
         -1   -1    0    0    0  501 -0.00000000000E+00 -0.00000000000E+00 -0.56039794832E+02  0.56039794832E+02  0.00000000000E+00 0.  1.
         23    2    1    2    0    0 -0.35680336884E+02 -0.83593382998E+01  0.12177508144E+03  0.15804443957E+03  0.93839807347E+02 0.  0.
         23    2    1    2    0    0  0.35680336884E+02  0.83593382998E+01  0.24812792015E+02  0.10062302355E+03  0.90367877273E+02 0.  0.
          5    1    4    4  502    0  0.30576043031E+02 -0.37765170975E+02  0.22947195594E+02  0.53942249970E+02  0.47000000000E+01 0. -1.
         -5    1    3    3    0  503  0.13763386211E+02  0.19405438613E+02  0.89288670920E+02  0.92523286812E+02  0.47000000000E+01 0.  1.
          5    1    3    3  503    0 -0.49443723095E+02 -0.27764776912E+02  0.32486410517E+02  0.65521152758E+02  0.47000000000E+01 0. -1.
         -5    1    4    4    0  502  0.51042938535E+01  0.46124509275E+02  0.18655964209E+01  0.46680773576E+02  0.47000000000E+01 0.  1.
<mgrwt>
<rscale>  0 0.99925281E+02</rscale>
<asrwt>0</asrwt>
<pdfrwt beam="1">  1        1 0.31173487E-01 0.10074162E+03</pdfrwt>
<pdfrwt beam="2">  1       -1 0.86215070E-02 0.10074162E+03</pdfrwt>
<totfact> 0.10168061E+04</totfact>
</mgrwt>
</event>
<event>
 8    1  0.2964543E-004  0.1149659E+03  0.7546771E-02  0.1251659E+00
          1   -1    0    0  501    0  0.00000000000E+00  0.00000000000E+00  0.44750759669E+03  0.44750759669E+03  0.00000000000E+00 0. -1.
         -1   -1    0    0    0  501 -0.00000000000E+00 -0.00000000000E+00 -0.35080837507E+02  0.35080837507E+02  0.00000000000E+00 0.  1.
         23    2    1    2    0    0 -0.91838341795E+01  0.69682972300E+02  0.11021286345E+03  0.15926088340E+03  0.90978537425E+02 0.  0.
         23    2    1    2    0    0  0.91838341795E+01 -0.69682972300E+02  0.30221389573E+03  0.32332755080E+03  0.90925281924E+02 0.  0.
          5    1    3    3  502    0  0.33698036581E+02  0.18282354126E+02  0.72850278914E+02  0.82456384105E+02  0.47000000000E+01 0. -1.
         -5    1    4    4    0  503 -0.26852563805E+02  0.99173413771E+00  0.34015153790E+02  0.43602344052E+02  0.47000000000E+01 0.  1.
          5    1    4    4  503    0  0.36036397985E+02 -0.70674706438E+02  0.26819874194E+03  0.27972520674E+03  0.47000000000E+01 0. -1.
         -5    1    3    3    0  502 -0.42881870760E+02  0.51400618174E+02  0.37362584541E+02  0.76804499296E+02  0.47000000000E+01 0.  1.
<mgrwt>
<rscale>  0 0.11495534E+03</rscale>
<asrwt>0</asrwt>
<pdfrwt beam="1">  1        1 0.68847319E-01 0.11496588E+03</pdfrwt>
<pdfrwt beam="2">  1       -1 0.53970522E-02 0.11496588E+03</pdfrwt>
<totfact> 0.77495108E+03</totfact>
</mgrwt>
</event>
<event>
 8    1  0.2964543E-004  0.1529633E+03  0.7546771E-02  0.1197389E+00
         -2   -1    0    0    0  501 -0.00000000000E+00  0.00000000000E+00  0.47318993741E+03  0.47318993741E+03  0.00000000000E+00 0.  1.
          2   -1    0    0  501    0  0.00000000000E+00 -0.00000000000E+00 -0.50060669485E+02  0.50060669485E+02  0.00000000000E+00 0. -1.
         23    2    1    2    0    0 -0.62837396266E+02 -0.10608798608E+03  0.17057741165E+03  0.22798767043E+03  0.87627195234E+02 0.  0.
         23    2    1    2    0    0  0.62837396266E+02  0.10608798608E+03  0.25255185628E+03  0.29526293646E+03  0.90523822156E+02 0.  0.
          5    1    4    4  502    0  0.40978297569E+02  0.97292984971E+02  0.11724926804E+03  0.15784367790E+03  0.47000000000E+01 0. -1.
         -5    1    4    4    0  502  0.21859098697E+02  0.87950011133E+01  0.13530258824E+03  0.13741925857E+03  0.47000000000E+01 0.  1.
          5    1    3    3  503    0  0.20781705425E+02 -0.12066789133E+02  0.37471859439E+02  0.44762896802E+02  0.47000000000E+01 0. -1.
         -5    1    3    3    0  503 -0.83619101690E+02 -0.94021196950E+02  0.13310555221E+03  0.18322477363E+03  0.47000000000E+01 0.  1.
<mgrwt>
<rscale>  0 0.15253744E+03</rscale>
<asrwt>0</asrwt>
<pdfrwt beam="1">  1        2 0.77016418E-02 0.15296327E+03</pdfrwt>
<pdfrwt beam="2">  1       -2 0.72798449E-01 0.15296327E+03</pdfrwt>
<totfact> 0.15237733E+03</totfact>
</mgrwt>
</event>
<event>
 8    1  0.2964543E-004  0.9450668E+02  0.7546771E-02  0.1293529E+00
         -2   -1    0    0    0  501 -0.00000000000E+00  0.00000000000E+00  0.11171853387E+03  0.11171853387E+03  0.00000000000E+00 0.  1.
          2   -1    0    0  501    0  0.00000000000E+00 -0.00000000000E+00 -0.82561392096E+02  0.82561392096E+02  0.00000000000E+00 0. -1.
         23    2    1    2    0    0 -0.18622500092E+02  0.39472417244E+01  0.36914580920E+02  0.99455402087E+02  0.90367651806E+02 0.  0.
         23    2    1    2    0    0  0.18622500092E+02 -0.39472417244E+01 -0.77574391507E+01  0.94824523875E+02  0.92569618336E+02 0.  0.
          5    1    4    4  502    0 -0.32748803384E+02  0.14843934525E+02 -0.15394178113E+02  0.39394126910E+02  0.47000000000E+01 0. -1.
         -5    1    4    4    0  502  0.51371303476E+02 -0.18791176250E+02  0.76367389621E+01  0.55430396964E+02  0.47000000000E+01 0.  1.
          5    1    3    3  503    0 -0.42776349803E+02 -0.27677085321E+02  0.12998808784E+02  0.52791061593E+02  0.47000000000E+01 0. -1.
         -5    1    3    3    0  503  0.24153849711E+02  0.31624327046E+02  0.23915772136E+02  0.46664340494E+02  0.47000000000E+01 0.  1.
<mgrwt>
<rscale>  0 0.93963065E+02</rscale>
<asrwt>0</asrwt>
<pdfrwt beam="1">  1        2 0.12701753E-01 0.94506679E+02</pdfrwt>
<pdfrwt beam="2">  1       -2 0.17187467E-01 0.94506679E+02</pdfrwt>
<totfact> 0.11736224E+04</totfact>
</mgrwt>
</event>
<event>
 8    1  0.2964543E-004  0.1593366E+03  0.7546771E-02  0.1190097E+00
          1   -1    0    0  501    0  0.00000000000E+00  0.00000000000E+00  0.45156290751E+03  0.45156290751E+03  0.00000000000E+00 0. -1.
         -1   -1    0    0    0  501 -0.00000000000E+00 -0.00000000000E+00 -0.55466347802E+02  0.55466347802E+02  0.00000000000E+00 0.  1.
         23    2    1    2    0    0 -0.72543035942E+02 -0.10466711471E+03  0.20353968165E+03  0.25709668606E+03  0.91938060724E+02 0.  0.
         23    2    1    2    0    0  0.72543035942E+02  0.10466711471E+03  0.19255687806E+03  0.24993256926E+03  0.95762419154E+02 0.  0.
          5    1    3    3  502    0 -0.52274139223E+01 -0.25485149306E+02  0.12223135082E+03  0.12505763397E+03  0.47000000000E+01 0. -1.
         -5    1    4    4    0  503 -0.17098941790E+01  0.80222743106E+02  0.86298777646E+02  0.11793295245E+03  0.47000000000E+01 0.  1.
          5    1    4    4  503    0  0.74252930121E+02  0.24444371602E+02  0.10625810041E+03  0.13199961681E+03  0.47000000000E+01 0. -1.
         -5    1    3    3    0  502 -0.67315622020E+02 -0.79181965402E+02  0.81308330832E+02  0.13203905209E+03  0.47000000000E+01 0.  1.
<mgrwt>
<rscale>  0 0.15876632E+03</rscale>
<asrwt>0</asrwt>
<pdfrwt beam="1">  1        1 0.69471214E-01 0.15933656E+03</pdfrwt>
<pdfrwt beam="2">  1       -1 0.85332846E-02 0.15933656E+03</pdfrwt>
<totfact> 0.39291853E+03</totfact>
</mgrwt>
</event>
<event>
 8    1  0.2964543E-004  0.9428731E+02  0.7546771E-02  0.1294293E+00
          2   -1    0    0  501    0  0.00000000000E+00  0.00000000000E+00  0.66142115263E+02  0.66142115263E+02  0.00000000000E+00 0. -1.
         -2   -1    0    0    0  501 -0.00000000000E+00 -0.00000000000E+00 -0.13882219862E+03  0.13882219862E+03  0.00000000000E+00 0.  1.
         23    2    1    2    0    0  0.17539506452E+02 -0.16552882813E+02 -0.12065987126E+02  0.95056215553E+02  0.91150775388E+02 0.  0.
         23    2    1    2    0    0 -0.17539506452E+02  0.16552882813E+02 -0.60614096235E+02  0.10990809834E+03  0.88453881776E+02 0.  0.
          5    1    3    3  502    0 -0.89666252561E+01  0.33560237407E+02  0.55824432287E+01  0.35495683903E+02  0.47000000000E+01 0. -1.
         -5    1    3    3    0  502  0.26506131709E+02 -0.50113120221E+02 -0.17648430355E+02  0.59560531650E+02  0.47000000000E+01 0.  1.
          5    1    4    4  503    0 -0.47097709642E+02  0.32491885074E+02 -0.33324799669E+02  0.66381843317E+02  0.47000000000E+01 0. -1.
         -5    1    4    4    0  503  0.29558203190E+02 -0.15939002261E+02 -0.27289296565E+02  0.43526255018E+02  0.47000000000E+01 0.  1.
<mgrwt>
<rscale>  0 0.93629304E+02</rscale>
<asrwt>0</asrwt>
<pdfrwt beam="1">  1        2 0.10175710E-01 0.94287306E+02</pdfrwt>
<pdfrwt beam="2">  1       -2 0.21357261E-01 0.94287306E+02</pdfrwt>
<totfact> 0.10647614E+04</totfact>
</mgrwt>
</event>
<event>
 8    1  0.2964543E-004  0.1078300E+03  0.7546771E-02  0.1264661E+00
         -2   -1    0    0    0  501 -0.00000000000E+00  0.00000000000E+00  0.63923145339E+02  0.63923145339E+02  0.00000000000E+00 0.  1.
          2   -1    0    0  501    0  0.00000000000E+00 -0.00000000000E+00 -0.18293087220E+03  0.18293087220E+03  0.00000000000E+00 0. -1.
         23    2    1    2    0    0  0.54564976727E+02  0.40649381525E+01 -0.69075887565E+02  0.12802433856E+03  0.92870299949E+02 0.  0.
         23    2    1    2    0    0 -0.54564976727E+02 -0.40649381525E+01 -0.49931839301E+02  0.11882967899E+03  0.92916325932E+02 0.  0.
          5    1    3    3  502    0 -0.17761511095E+02 -0.23608781512E+02 -0.15080487299E+02  0.33501596052E+02  0.47000000000E+01 0. -1.
         -5    1    4    4    0  503  0.18260359649E+02 -0.22910997951E+02 -0.25033492682E+01  0.29777698352E+02  0.47000000000E+01 0.  1.
          5    1    4    4  503    0 -0.72825336376E+02  0.18846059798E+02 -0.47428490033E+02  0.89051980635E+02  0.47000000000E+01 0. -1.
         -5    1    3    3    0  502  0.72326487822E+02  0.27673719665E+02 -0.53995400266E+02  0.94522742505E+02  0.47000000000E+01 0.  1.
<mgrwt>
<rscale>  0 0.10782006E+03</rscale>
<asrwt>0</asrwt>
<pdfrwt beam="1">  1        2 0.28143211E-01 0.10782998E+03</pdfrwt>
<pdfrwt beam="2">  1       -2 0.98343301E-02 0.10782998E+03</pdfrwt>
<totfact> 0.11816505E+04</totfact>
</mgrwt>
</event>
<event>
 8    1  0.2964543E-004  0.9591673E+02  0.7546771E-02  0.1289129E+00
          1   -1    0    0  501    0  0.00000000000E+00  0.00000000000E+00  0.13621995625E+03  0.13621995625E+03  0.00000000000E+00 0. -1.
         -1   -1    0    0    0  501 -0.00000000000E+00 -0.00000000000E+00 -0.10575935248E+03  0.10575935248E+03  0.00000000000E+00 0.  1.
         23    2    1    2    0    0 -0.83194267381E+01 -0.29489998954E+02  0.87969779366E+02  0.13014316109E+03  0.90882822349E+02 0.  0.
         23    2    1    2    0    0  0.83194267381E+01  0.29489998954E+02 -0.57509175591E+02  0.11183614764E+03  0.90890845209E+02 0.  0.
          5    1    3    3  502    0  0.13601079330E+02 -0.48848068719E+02  0.86635390621E+02  0.10049330368E+03  0.47000000000E+01 0. -1.
         -5    1    3    3    0  502 -0.21920506068E+02  0.19358069765E+02  0.13343887445E+01  0.29649857413E+02  0.47000000000E+01 0.  1.
          5    1    4    4  503    0 -0.31975487843E+02 -0.15066296436E+02 -0.21527746513E+02  0.41652838811E+02  0.47000000000E+01 0. -1.
         -5    1    4    4    0  503  0.40294914581E+02  0.44556295390E+02 -0.35981429077E+02  0.70183308831E+02  0.47000000000E+01 0.  1.
<mgrwt>
<rscale>  0 0.95914827E+02</rscale>
<asrwt>0</asrwt>
<pdfrwt beam="1">  1        1 0.20956916E-01 0.95916728E+02</pdfrwt>
<pdfrwt beam="2">  1       -1 0.16270670E-01 0.95916728E+02</pdfrwt>
<totfact> 0.62753983E+03</totfact>
</mgrwt>
</event>
<event>
 8    1  0.2964543E-004  0.1034913E+03  0.7546771E-02  0.1276156E+00
         -1   -1    0    0    0  501 -0.00000000000E+00  0.00000000000E+00  0.48384524595E+03  0.48384524595E+03  0.00000000000E+00 0.  1.
          1   -1    0    0  501    0  0.00000000000E+00 -0.00000000000E+00 -0.79403387816E+02  0.79403387816E+02  0.00000000000E+00 0. -1.
         23    2    1    2    0    0 -0.32085533021E+02  0.18849950118E+02  0.44547778364E+03  0.45734112867E+03  0.96569406206E+02 0.  0.
         23    2    1    2    0    0  0.32085533021E+02 -0.18849950118E+02 -0.41035925501E+02  0.10590750509E+03  0.90264336283E+02 0.  0.
          5    1    3    3  502    0  0.14156343857E+02 -0.30184850069E+02  0.10648915725E+03  0.11168508341E+03  0.47000000000E+01 0. -1.
         -5    1    3    3    0  502 -0.46241876878E+02  0.49034800187E+02  0.33898862639E+03  0.34565604526E+03  0.47000000000E+01 0.  1.
          5    1    4    4  503    0  0.21353801956E+02  0.37753612015E+01 -0.66367910772E+02  0.69978766711E+02  0.47000000000E+01 0. -1.
         -5    1    4    4    0  503  0.10731731065E+02 -0.22625311320E+02  0.25331985271E+02  0.35928738382E+02  0.47000000000E+01 0.  1.
<mgrwt>
<rscale>  0 0.10199491E+03</rscale>
<asrwt>0</asrwt>
<pdfrwt beam="1">  1        1 0.12215906E-01 0.10349131E+03</pdfrwt>
<pdfrwt beam="2">  1       -1 0.74437728E-01 0.10349131E+03</pdfrwt>
<totfact> 0.91009130E+02</totfact>
</mgrwt>
</event>
<event>
 8    1  0.2964543E-004  0.1198052E+03  0.7546771E-02  0.1244095E+00
          1   -1    0    0  501    0  0.00000000000E+00  0.00000000000E+00  0.13969543621E+04  0.13969543621E+04  0.00000000000E+00 0. -1.
         -1   -1    0    0    0  501 -0.00000000000E+00 -0.00000000000E+00 -0.14398828529E+02  0.14398828529E+02  0.00000000000E+00 0.  1.
         23    2    1    2    0    0 -0.74437417123E+02  0.79975357830E+01  0.31063717774E+03  0.33293953825E+03  0.93532830011E+02 0.  0.
         23    2    1    2    0    0  0.74437417123E+02 -0.79975357830E+01  0.10719183558E+04  0.10784136524E+04  0.91444816269E+02 0.  0.
          5    1    3    3  502    0 -0.34736116850E+02 -0.37474676083E+02  0.20357401097E+03  0.20994146113E+03  0.47000000000E+01 0. -1.
         -5    1    3    3    0  502 -0.39701300272E+02  0.45472211866E+02  0.10706316677E+03  0.12299807712E+03  0.47000000000E+01 0.  1.
          5    1    4    4  503    0  0.59362675167E+01 -0.41198622693E+02  0.39082419134E+03  0.39306259593E+03  0.47000000000E+01 0. -1.
         -5    1    4    4    0  503  0.68501149606E+02  0.33201086910E+02  0.68109416448E+03  0.68535105643E+03  0.47000000000E+01 0.  1.
<mgrwt>
<rscale>  0 0.11939737E+03</rscale>
<asrwt>0</asrwt>
<pdfrwt beam="1">  1        1 0.21491595E+00 0.11980517E+03</pdfrwt>
<pdfrwt beam="2">  1       -1 0.22152055E-02 0.11980517E+03</pdfrwt>
<totfact> 0.48432407E+03</totfact>
</mgrwt>
</event>
<event>
 8    1  0.2964543E-004  0.9297431E+02  0.7546771E-02  0.1296287E+00
          1   -1    0    0  501    0  0.00000000000E+00  0.00000000000E+00  0.20743595581E+03  0.20743595581E+03  0.00000000000E+00 0. -1.
         -1   -1    0    0    0  501 -0.00000000000E+00 -0.00000000000E+00 -0.43405943910E+02  0.43405943910E+02  0.00000000000E+00 0.  1.
         23    2    1    2    0    0  0.14947224949E+02 -0.10389841170E+02  0.54047711002E+02  0.10682687022E+03  0.90329711631E+02 0.  0.
         23    2    1    2    0    0 -0.14947224949E+02  0.10389841170E+02  0.10998230090E+03  0.14401502950E+03  0.91174853320E+02 0.  0.
          5    1    4    4  502    0 -0.34044303714E+02  0.35610838070E+02  0.98136626484E+02  0.10990920735E+03  0.47000000000E+01 0. -1.
         -5    1    3    3    0  503  0.50190967855E+02 -0.20501562276E+02  0.25378341375E+02  0.60046627889E+02  0.47000000000E+01 0.  1.
          5    1    3    3  503    0 -0.35243742906E+02  0.10111721105E+02  0.28669369628E+02  0.46780242331E+02  0.47000000000E+01 0. -1.
         -5    1    4    4    0  502  0.19097078764E+02 -0.25220996900E+02  0.11845674412E+02  0.34105822146E+02  0.47000000000E+01 0.  1.
<mgrwt>
<rscale>  0 0.92766454E+02</rscale>
<asrwt>0</asrwt>
<pdfrwt beam="1">  1        1 0.31913223E-01 0.92974309E+02</pdfrwt>
<pdfrwt beam="2">  1       -1 0.66778377E-02 0.92974309E+02</pdfrwt>
<totfact> 0.14353716E+04</totfact>
</mgrwt>
</event>
<event>
 8    1  0.2964543E-004  0.9268633E+02  0.7546771E-02  0.1310296E+00
          2   -1    0    0  501    0  0.00000000000E+00  0.00000000000E+00  0.22798197620E+03  0.22798197620E+03  0.00000000000E+00 0. -1.
         -2   -1    0    0    0  501 -0.00000000000E+00 -0.00000000000E+00 -0.47830118300E+02  0.47830118300E+02  0.00000000000E+00 0.  1.
         23    2    1    2    0    0 -0.15041294079E+02 -0.66319913358E+01 -0.14246268472E+01  0.71947494341E+02  0.70029911778E+02 0.  0.
         23    2    1    2    0    0  0.15041294079E+02  0.66319913358E+01  0.18157648475E+03  0.20386460016E+03  0.91216947701E+02 0.  0.
          5    1    4    4  502    0  0.42914246162E+02  0.32712093478E+02  0.10983014872E+03  0.12246005533E+03  0.47000000000E+01 0. -1.
         -5    1    3    3    0  503 -0.41279750737E+02  0.66926506874E+01 -0.21611181185E+01  0.42137510909E+02  0.47000000000E+01 0.  1.
          5    1    3    3  503    0  0.26238456657E+02 -0.13324642023E+02  0.73649127127E+00  0.29809983432E+02  0.47000000000E+01 0. -1.
         -5    1    4    4    0  502 -0.27872952083E+02 -0.26080102142E+02  0.71746336031E+02  0.81404544833E+02  0.47000000000E+01 0.  1.
<mgrwt>
<rscale>  0 0.86995019E+02</rscale>
<asrwt>0</asrwt>
<pdfrwt beam="1">  1        2 0.35074149E-01 0.92686328E+02</pdfrwt>
<pdfrwt beam="2">  1       -2 0.73584799E-02 0.92686328E+02</pdfrwt>
<totfact> 0.14390090E+04</totfact>
</mgrwt>
</event>
<event>
 8    1  0.2964543E-004  0.1029824E+03  0.7546771E-02  0.1274672E+00
          1   -1    0    0  501    0  0.00000000000E+00  0.00000000000E+00  0.40804774966E+03  0.40804774966E+03  0.00000000000E+00 0. -1.
         -1   -1    0    0    0  501 -0.00000000000E+00 -0.00000000000E+00 -0.26054182270E+02  0.26054182270E+02  0.00000000000E+00 0.  1.
         23    2    1    2    0    0 -0.47510215000E+02 -0.91219027803E+01  0.16584942171E+03  0.19467833164E+03  0.89739581507E+02 0.  0.
         23    2    1    2    0    0  0.47510215000E+02  0.91219027803E+01  0.21614414568E+03  0.23942360029E+03  0.90911710049E+02 0.  0.
          5    1    4    4  502    0  0.67669818082E+02  0.13151186546E+02  0.20332409436E+03  0.21474388311E+03  0.47000000000E+01 0. -1.
         -5    1    3    3    0  503 -0.48517025598E+02  0.11630839153E+02  0.32704795241E+02  0.59840386229E+02  0.47000000000E+01 0.  1.
          5    1    3    3  503    0  0.10068105985E+01 -0.20752741933E+02  0.13314462647E+03  0.13483794541E+03  0.47000000000E+01 0. -1.
         -5    1    4    4    0  502 -0.20159603082E+02 -0.40292837653E+01  0.12820051319E+02  0.24679717176E+02  0.47000000000E+01 0.  1.
<mgrwt>
<rscale>  0 0.10272308E+03</rscale>
<asrwt>0</asrwt>
<pdfrwt beam="1">  1        1 0.62776572E-01 0.10298237E+03</pdfrwt>
<pdfrwt beam="2">  1       -1 0.40083360E-02 0.10298237E+03</pdfrwt>
<totfact> 0.13353548E+04</totfact>
</mgrwt>
</event>
<event>
 8    1  0.2964543E-004  0.1067151E+03  0.7546771E-02  0.1267087E+00
          2   -1    0    0  501    0  0.00000000000E+00  0.00000000000E+00  0.17068330015E+03  0.17068330015E+03  0.00000000000E+00 0. -1.
         -2   -1    0    0    0  501 -0.00000000000E+00 -0.00000000000E+00 -0.10441174174E+03  0.10441174174E+03  0.00000000000E+00 0.  1.
         23    2    1    2    0    0 -0.56187210821E+02 -0.83487503901E+01  0.11627806110E+03  0.15782490217E+03  0.90340511163E+02 0.  0.
         23    2    1    2    0    0  0.56187210821E+02  0.83487503901E+01 -0.50006502698E+02  0.11727013972E+03  0.89581979583E+02 0.  0.
          5    1    3    3  502    0 -0.76596812214E+02  0.88931403735E+01  0.70364855500E+02  0.10449623188E+03  0.47000000000E+01 0. -1.
         -5    1    4    4    0  503  0.14616821039E+02  0.46598024215E+02 -0.18628273366E+02  0.52479804560E+02  0.47000000000E+01 0.  1.
          5    1    4    4  503    0  0.41570389782E+02 -0.38249273825E+02 -0.31378229333E+02  0.64790335165E+02  0.47000000000E+01 0. -1.
         -5    1    3    3    0  502  0.20409601393E+02 -0.17241890764E+02  0.45913205602E+02  0.53328670289E+02  0.47000000000E+01 0.  1.
<mgrwt>
<rscale>  0 0.10655439E+03</rscale>
<asrwt>0</asrwt>
<pdfrwt beam="1">  1        2 0.26258969E-01 0.10671510E+03</pdfrwt>
<pdfrwt beam="2">  1       -2 0.16063345E-01 0.10671510E+03</pdfrwt>
<totfact> 0.58170112E+03</totfact>
</mgrwt>
</event>
<event>
 8    1  0.2964543E-004  0.1127157E+03  0.7546771E-02  0.1256102E+00
         -1   -1    0    0    0  501 -0.00000000000E+00  0.00000000000E+00  0.45908740254E+03  0.45908740254E+03  0.00000000000E+00 0.  1.
          1   -1    0    0  501    0  0.00000000000E+00 -0.00000000000E+00 -0.27449678369E+02  0.27449678369E+02  0.00000000000E+00 0. -1.
         23    2    1    2    0    0  0.18665614857E+02  0.63541054937E+02  0.20794292233E+03  0.23652712071E+03  0.91208272904E+02 0.  0.
         23    2    1    2    0    0 -0.18665614857E+02 -0.63541054937E+02  0.22369480185E+03  0.25000996020E+03  0.89887401706E+02 0.  0.
          5    1    4    4  502    0 -0.38313787964E+02 -0.12610244044E+02  0.16412381307E+03  0.16907300382E+03  0.47000000000E+01 0.  1.
         -5    1    3    3    0  503  0.37403992983E+02  0.49660485699E+02  0.20282873006E+03  0.21219520793E+03  0.47000000000E+01 0.  1.
          5    1    3    3  503    0 -0.18738378126E+02  0.13880569238E+02  0.51141922684E+01  0.24331912783E+02  0.47000000000E+01 0. -1.
         -5    1    4    4    0  502  0.19648173106E+02 -0.50930810893E+02  0.59570988773E+02  0.80936956380E+02  0.47000000000E+01 0. -1.
<mgrwt>
<rscale>  0 0.11244817E+03</rscale>
<asrwt>0</asrwt>
<pdfrwt beam="1">  1        1 0.42230278E-02 0.11271566E+03</pdfrwt>
<pdfrwt beam="2">  1       -1 0.70628826E-01 0.11271566E+03</pdfrwt>
<totfact> 0.41952686E+03</totfact>
</mgrwt>
</event>
<event>
 8    1  0.2964543E-004  0.3204019E+03  0.7546771E-02  0.1075659E+00
          3   -1    0    0  501    0  0.00000000000E+00  0.00000000000E+00  0.81159976176E+02  0.81159976176E+02  0.00000000000E+00 0. -1.
         -3   -1    0    0    0  501 -0.00000000000E+00 -0.00000000000E+00 -0.14600112378E+04  0.14600112378E+04  0.00000000000E+00 0.  1.
         23    2    1    2    0    0 -0.87051324413E+02  0.29289884606E+03 -0.97748606780E+03  0.10286575789E+04  0.96383270610E+02 0.  0.
         23    2    1    2    0    0  0.87051324413E+02 -0.29289884606E+03 -0.40136519379E+03  0.51251363500E+03  0.90600994341E+02 0.  0.
          5    1    3    3  502    0  0.12355745926E+02  0.26179349656E+02 -0.45247671536E+02  0.53920910463E+02  0.47000000000E+01 0. -1.
         -5    1    3    3    0  502 -0.99407070339E+02  0.26671949640E+03 -0.93223839627E+03  0.97473666847E+03  0.47000000000E+01 0.  1.
          5    1    4    4  503    0  0.18057396404E+02 -0.20945017206E+03 -0.26921839393E+03  0.34160807627E+03  0.47000000000E+01 0. -1.
         -5    1    4    4    0  503  0.68993928009E+02 -0.83448673998E+02 -0.13214679986E+03  0.17090555874E+03  0.47000000000E+01 0.  1.
<mgrwt>
<rscale>  0 0.31997817E+03</rscale>
<asrwt>0</asrwt>
<pdfrwt beam="1">  1        3 0.12486150E-01 0.32040194E+03</pdfrwt>
<pdfrwt beam="2">  1       -3 0.22461711E+00 0.32040194E+03</pdfrwt>
<totfact> 0.14411563E+01</totfact>
</mgrwt>
</event>
<event>
 8    1  0.2964543E-004  0.1085485E+03  0.7546771E-02  0.1264446E+00
          3   -1    0    0  501    0  0.00000000000E+00  0.00000000000E+00  0.11848258754E+03  0.11848258754E+03  0.00000000000E+00 0. -1.
         -3   -1    0    0    0  501 -0.00000000000E+00 -0.00000000000E+00 -0.97359810958E+02  0.97359810958E+02  0.00000000000E+00 0.  1.
         23    2    1    2    0    0 -0.27533011524E+02  0.49853005182E+02  0.14478431001E+02  0.10709077701E+03  0.89528881975E+02 0.  0.
         23    2    1    2    0    0  0.27533011524E+02 -0.49853005182E+02  0.66443455828E+01  0.10875162149E+03  0.92408760398E+02 0.  0.
          5    1    4    4  502    0  0.25085751203E+02 -0.85223336996E+01 -0.38721882764E+02  0.47152935114E+02  0.47000000000E+01 0. -1.
         -5    1    3    3    0  503 -0.54265535983E+02  0.89154596291E+01 -0.21467231662E+01  0.55235244512E+02  0.47000000000E+01 0.  1.
          5    1    3    3  503    0  0.26732524459E+02  0.40937545553E+02  0.16625154167E+02  0.51855532501E+02  0.47000000000E+01 0. -1.
         -5    1    4    4    0  502  0.24472603208E+01 -0.41330671483E+02  0.45366228347E+02  0.61598686372E+02  0.47000000000E+01 0.  1.
<mgrwt>
<rscale>  0 0.10793301E+03</rscale>
<asrwt>0</asrwt>
<pdfrwt beam="1">  1        3 0.18228090E-01 0.10854846E+03</pdfrwt>
<pdfrwt beam="2">  1       -3 0.14978432E-01 0.10854846E+03</pdfrwt>
<totfact> 0.21629009E+03</totfact>
</mgrwt>
</event>
<event>
 8    1  0.2964543E-004  0.1318511E+03  0.7546771E-02  0.1225102E+00
          1   -1    0    0  501    0  0.00000000000E+00  0.00000000000E+00  0.15084401597E+04  0.15084401597E+04  0.00000000000E+00 0. -1.
         -1   -1    0    0    0  501 -0.00000000000E+00 -0.00000000000E+00 -0.11788225495E+02  0.11788225495E+02  0.00000000000E+00 0.  1.
         23    2    1    2    0    0 -0.70531897508E+02 -0.62213382384E+02  0.61995063861E+03  0.63381662060E+03  0.92409202588E+02 0.  0.
         23    2    1    2    0    0  0.70531897508E+02  0.62213382384E+02  0.87670129562E+03  0.88641176462E+03  0.90969232157E+02 0.  0.
          5    1    4    4  502    0  0.78355174449E+01  0.61423895991E+02  0.56710869939E+03  0.57049860408E+03  0.47000000000E+01 0. -1.
         -5    1    4    4    0  502  0.62696380064E+02  0.78948639295E+00  0.30959259623E+03  0.31591316054E+03  0.47000000000E+01 0.  1.
          5    1    3    3  503    0 -0.80686104968E+02 -0.20366325636E+02  0.48422824900E+03  0.49134928705E+03  0.47000000000E+01 0. -1.
         -5    1    3    3    0  503  0.10154207459E+02 -0.41847056748E+02  0.13572238961E+03  0.14246733355E+03  0.47000000000E+01 0.  1.
<mgrwt>
<rscale>  0 0.13159909E+03</rscale>
<asrwt>0</asrwt>
<pdfrwt beam="1">  1        1 0.23206756E+00 0.13185111E+03</pdfrwt>
<pdfrwt beam="2">  1       -1 0.18135744E-02 0.13185111E+03</pdfrwt>
<totfact> 0.54840887E+03</totfact>
</mgrwt>
</event>
<event>
 8    1  0.2964543E-004  0.9955669E+02  0.7546771E-02  0.1281279E+00
          2   -1    0    0  501    0  0.00000000000E+00  0.00000000000E+00  0.36608287588E+03  0.36608287588E+03  0.00000000000E+00 0. -1.
         -2   -1    0    0    0  501 -0.00000000000E+00 -0.00000000000E+00 -0.60644843511E+02  0.60644843511E+02  0.00000000000E+00 0.  1.
         23    2    1    2    0    0  0.37143821894E+02 -0.10959260614E+02  0.31149171852E+03  0.32698714930E+03  0.91617335700E+02 0.  0.
         23    2    1    2    0    0 -0.37143821894E+02  0.10959260614E+02 -0.60536861461E+01  0.99740570098E+02  0.91715676465E+02 0.  0.
          5    1    3    3  502    0  0.21241647925E+02 -0.31079516076E+02  0.29194817879E+03  0.29440273950E+03  0.47000000000E+01 0. -1.
         -5    1    4    4    0  503 -0.42375021663E+02  0.45823511397E+02 -0.11858291005E+02  0.63703577005E+02  0.47000000000E+01 0.  1.
          5    1    4    4  503    0  0.52311997683E+01 -0.34864250782E+02  0.58046048590E+01  0.36036993093E+02  0.47000000000E+01 0. -1.
         -5    1    3    3    0  502  0.15902173969E+02  0.20120255462E+02  0.19543539734E+02  0.32584409802E+02  0.47000000000E+01 0.  1.
<mgrwt>
<rscale>  0 0.99534034E+02</rscale>
<asrwt>0</asrwt>
<pdfrwt beam="1">  1        2 0.56320441E-01 0.99556688E+02</pdfrwt>
<pdfrwt beam="2">  1       -2 0.93299761E-02 0.99556688E+02</pdfrwt>
<totfact> 0.61154973E+03</totfact>
</mgrwt>
</event>
<event>
 8    1  0.2964543E-004  0.9875266E+02  0.7546771E-02  0.1285085E+00
         -1   -1    0    0    0  501 -0.00000000000E+00  0.00000000000E+00  0.15867395410E+03  0.15867395410E+03  0.00000000000E+00 0.  1.
          1   -1    0    0  501    0  0.00000000000E+00 -0.00000000000E+00 -0.61429482005E+02  0.61429482005E+02  0.00000000000E+00 0. -1.
         23    2    1    2    0    0 -0.10683778293E+02 -0.29335705301E+02  0.71257664629E+02  0.12177742959E+03  0.93687570497E+02 0.  0.
         23    2    1    2    0    0  0.10683778293E+02  0.29335705301E+02  0.25986807464E+02  0.98326006511E+02  0.89543077176E+02 0.  0.
          5    1    3    3  502    0 -0.10576282916E+02 -0.63278037166E+02  0.49742597036E+02  0.81316564781E+02  0.47000000000E+01 0.  1.
         -5    1    4    4    0  503  0.37565160391E+02 -0.51294068214E+01  0.36810574587E+02  0.53052431527E+02  0.47000000000E+01 0.  1.
          5    1    4    4  503    0 -0.26881382098E+02  0.34465112122E+02 -0.10823767123E+02  0.45273574984E+02  0.47000000000E+01 0. -1.
         -5    1    3    3    0  502 -0.10749537690E+00  0.33942331865E+02  0.21515067593E+02  0.40460864811E+02  0.47000000000E+01 0. -1.
<mgrwt>
<rscale>  0 0.97756985E+02</rscale>
<asrwt>0</asrwt>
<pdfrwt beam="1">  1        1 0.94506896E-02 0.98752659E+02</pdfrwt>
<pdfrwt beam="2">  1       -1 0.24411377E-01 0.98752659E+02</pdfrwt>
<totfact> 0.91854710E+03</totfact>
</mgrwt>
</event>
<event>
 8    1  0.2964543E-004  0.1028210E+03  0.7546771E-02  0.1279455E+00
          3   -1    0    0  501    0  0.00000000000E+00  0.00000000000E+00  0.20328676233E+03  0.20328676233E+03  0.00000000000E+00 0. -1.
         -3   -1    0    0    0  501 -0.00000000000E+00 -0.00000000000E+00 -0.58449441460E+02  0.58449441460E+02  0.00000000000E+00 0.  1.
         23    2    1    2    0    0  0.18481089854E+02  0.14045326605E+02  0.18332885637E+02  0.10444258855E+03  0.10016654994E+03 0.  0.
         23    2    1    2    0    0 -0.18481089854E+02 -0.14045326605E+02  0.12650443523E+03  0.15729361524E+03  0.90548812134E+02 0.  0.
          5    1    3    3  502    0 -0.44879389137E+01  0.35126215611E+02 -0.30058561468E+02  0.46686183570E+02  0.47000000000E+01 0. -1.
         -5    1    4    4    0  503  0.14130398205E+02 -0.37332884256E+02  0.10308097941E+03  0.11063991466E+03  0.47000000000E+01 0.  1.
          5    1    4    4  503    0 -0.32611488059E+02  0.23287557651E+02  0.23423455827E+02  0.46653700578E+02  0.47000000000E+01 0. -1.
         -5    1    3    3    0  502  0.22969028768E+02 -0.21080889005E+02  0.48391447105E+02  0.57756404984E+02  0.47000000000E+01 0.  1.
<mgrwt>
<rscale>  0 0.10040084E+03</rscale>
<asrwt>0</asrwt>
<pdfrwt beam="1">  1        3 0.31274886E-01 0.10282101E+03</pdfrwt>
<pdfrwt beam="2">  1       -3 0.89922218E-02 0.10282101E+03</pdfrwt>
<totfact> 0.19050880E+03</totfact>
</mgrwt>
</event>
<event>
 8    1  0.2964543E-004  0.9321150E+02  0.7546771E-02  0.1295444E+00
          1   -1    0    0  501    0  0.00000000000E+00  0.00000000000E+00  0.80874877894E+03  0.80874877894E+03  0.00000000000E+00 0. -1.
         -1   -1    0    0    0  501 -0.00000000000E+00 -0.00000000000E+00 -0.10721949639E+02  0.10721949639E+02  0.00000000000E+00 0.  1.
         23    2    1    2    0    0  0.14756969938E+02  0.91342713457E+00  0.41573764815E+03  0.42605888755E+03  0.92031413434E+02 0.  0.
         23    2    1    2    0    0 -0.14756969938E+02 -0.91342713457E+00  0.38228918116E+03  0.39341184104E+03  0.91701996312E+02 0.  0.
          5    1    3    3  502    0  0.44394834649E+02  0.88463693023E+01  0.35444703210E+03  0.35735689186E+03  0.47000000000E+01 0. -1.
         -5    1    3    3    0  502 -0.29637864711E+02 -0.79329421677E+01  0.61290616045E+02  0.68701995686E+02  0.47000000000E+01 0.  1.
          5    1    4    4  503    0 -0.14203053880E+02  0.42981022818E+02  0.14245458451E+03  0.14954763024E+03  0.47000000000E+01 0. -1.
         -5    1    4    4    0  503 -0.55391605848E+00 -0.43894449953E+02  0.23983459664E+03  0.24386421080E+03  0.47000000000E+01 0.  1.
<mgrwt>
<rscale>  0 0.93130085E+02</rscale>
<asrwt>0</asrwt>
<pdfrwt beam="1">  1        1 0.12442284E+00 0.93211499E+02</pdfrwt>
<pdfrwt beam="2">  1       -1 0.16495313E-02 0.93211499E+02</pdfrwt>
<totfact> 0.18945071E+04</totfact>
</mgrwt>
</event>
<event>
 8    1  0.2964543E-004  0.9943709E+02  0.7546771E-02  0.1281991E+00
         -1   -1    0    0    0  501 -0.00000000000E+00  0.00000000000E+00  0.36796124057E+03  0.36796124057E+03  0.00000000000E+00 0.  1.
          1   -1    0    0  501    0  0.00000000000E+00 -0.00000000000E+00 -0.71807924999E+02  0.71807924999E+02  0.00000000000E+00 0. -1.
         23    2    1    2    0    0  0.74527605576E+01 -0.37486289744E+02 -0.26625340728E+02  0.10202104181E+03  0.90766836699E+02 0.  0.
         23    2    1    2    0    0 -0.74527605576E+01  0.37486289744E+02  0.32277865630E+03  0.33774812376E+03  0.91798521681E+02 0.  0.
          5    1    3    3  502    0 -0.77568691052E+01  0.25572121813E+02 -0.25106367845E+02  0.36966500222E+02  0.47000000000E+01 0. -1.
         -5    1    4    4    0  503  0.36762019325E+02  0.24597495811E+02  0.89780130634E+02  0.10019503342E+03  0.47000000000E+01 0.  1.
          5    1    4    4  503    0 -0.44214779882E+02  0.12888793932E+02  0.23299852567E+03  0.23755309034E+03  0.47000000000E+01 0. -1.
         -5    1    3    3    0  502  0.15209629663E+02 -0.63058411556E+02 -0.15189728831E+01  0.65054541587E+02  0.47000000000E+01 0.  1.
<mgrwt>
<rscale>  0 0.99198319E+02</rscale>
<asrwt>0</asrwt>
<pdfrwt beam="1">  1        1 0.11047373E-01 0.99437086E+02</pdfrwt>
<pdfrwt beam="2">  1       -1 0.56609420E-01 0.99437086E+02</pdfrwt>
<totfact> 0.17538267E+03</totfact>
</mgrwt>
</event>
<event>
 8    1  0.2964543E-004  0.1239619E+03  0.7546771E-02  0.1242678E+00
          2   -1    0    0  501    0  0.00000000000E+00  0.00000000000E+00  0.74744424685E+03  0.74744424685E+03  0.00000000000E+00 0. -1.
         -2   -1    0    0    0  501 -0.00000000000E+00 -0.00000000000E+00 -0.18623193537E+02  0.18623193537E+02  0.00000000000E+00 0.  1.
         23    2    1    2    0    0 -0.53100737299E+02 -0.28069618844E+02  0.33380425199E+03  0.35607840780E+03  0.10843874793E+03 0.  0.
         23    2    1    2    0    0  0.53100737299E+02  0.28069618844E+02  0.39501680132E+03  0.40998903258E+03  0.91897452129E+02 0.  0.
          5    1    4    4  502    0  0.46523206388E+02  0.60304890768E+02  0.26232983737E+03  0.27320344463E+03  0.47000000000E+01 0. -1.
         -5    1    3    3    0  503 -0.24295165642E+02 -0.51558504138E+02  0.73681468569E+02  0.93271556399E+02  0.47000000000E+01 0.  1.
          5    1    3    3  503    0 -0.28805571657E+02  0.23488885294E+02  0.26012278342E+03  0.26280685140E+03  0.47000000000E+01 0. -1.
         -5    1    4    4    0  502  0.65775309107E+01 -0.32235271923E+02  0.13268696395E+03  0.13678558795E+03  0.47000000000E+01 0.  1.
<mgrwt>
<rscale>  0 0.12025465E+03</rscale>
<asrwt>0</asrwt>
<pdfrwt beam="1">  1        2 0.11499140E+00 0.12396190E+03</pdfrwt>
<pdfrwt beam="2">  1       -2 0.28651073E-02 0.12396190E+03</pdfrwt>
<totfact> 0.16556286E+04</totfact>
</mgrwt>
</event>
<event>
 8    1  0.2964543E-004  0.1024483E+03  0.7546771E-02  0.1275489E+00
         -1   -1    0    0    0  501 -0.00000000000E+00  0.00000000000E+00  0.44285135189E+03  0.44285135189E+03  0.00000000000E+00 0.  1.
          1   -1    0    0  501    0  0.00000000000E+00 -0.00000000000E+00 -0.39498352390E+02  0.39498352390E+02  0.00000000000E+00 0. -1.
         23    2    1    2    0    0  0.45356774684E+02  0.12197295462E+01  0.35446911063E+03  0.36883634069E+03  0.91286204183E+02 0.  0.
         23    2    1    2    0    0 -0.45356774684E+02 -0.12197295462E+01  0.48883888875E+02  0.11351336359E+03  0.91852731983E+02 0.  0.
          5    1    4    4  502    0  0.20050050531E+02 -0.19619370899E+02  0.33021792048E+02  0.43582714358E+02  0.47000000000E+01 0. -1.
         -5    1    4    4    0  502 -0.65406825215E+02  0.18399641353E+02  0.15862096827E+02  0.69930649235E+02  0.47000000000E+01 0.  1.
          5    1    3    3  503    0  0.42865305918E+02 -0.37848636411E+02  0.26375904134E+03  0.26992753772E+03  0.47000000000E+01 0. -1.
         -5    1    3    3    0  503  0.24914687658E+01  0.39068365957E+02  0.90710069287E+02  0.98908802972E+02  0.47000000000E+01 0.  1.
<mgrwt>
<rscale>  0 0.10232113E+03</rscale>
<asrwt>0</asrwt>
<pdfrwt beam="1">  1        1 0.60766699E-02 0.10244828E+03</pdfrwt>
<pdfrwt beam="2">  1       -1 0.68130974E-01 0.10244828E+03</pdfrwt>
<totfact> 0.27303624E+03</totfact>
</mgrwt>
</event>
<event>
 8    1  0.2964543E-004  0.9884141E+02  0.7546771E-02  0.1283384E+00
         -3   -1    0    0    0  501 -0.00000000000E+00  0.00000000000E+00  0.96738247044E+02  0.96738247044E+02  0.00000000000E+00 0.  1.
          3   -1    0    0  501    0  0.00000000000E+00 -0.00000000000E+00 -0.20402108542E+03  0.20402108542E+03  0.00000000000E+00 0. -1.
         23    2    1    2    0    0 -0.21936261895E+02 -0.26771771180E+02  0.53685648864E+02  0.11248009773E+03  0.92583455177E+02 0.  0.
         23    2    1    2    0    0  0.21936261895E+02  0.26771771180E+02 -0.16096848724E+03  0.18827923474E+03  0.91325182899E+02 0.  0.
          5    1    4    4  502    0 -0.65281780052E+01 -0.31569306441E+02 -0.53250159243E+02  0.62425216673E+02  0.47000000000E+01 0. -1.
         -5    1    3    3    0  503 -0.21643809737E+02  0.32462009378E+02  0.24128799902E+02  0.46114266095E+02  0.47000000000E+01 0.  1.
          5    1    3    3  503    0 -0.29245215790E+00 -0.59233780558E+02  0.29556848961E+02  0.66365831631E+02  0.47000000000E+01 0. -1.
         -5    1    4    4    0  502  0.28464439900E+02  0.58341077622E+02 -0.10771832800E+03  0.12585401807E+03  0.47000000000E+01 0.  1.
<mgrwt>
<rscale>  0 0.98545678E+02</rscale>
<asrwt>0</asrwt>
<pdfrwt beam="1">  1        3 0.31387859E-01 0.98841406E+02</pdfrwt>
<pdfrwt beam="2">  1       -3 0.14882807E-01 0.98841406E+02</pdfrwt>
<totfact> 0.81361548E+02</totfact>
</mgrwt>
</event>
<event>
 8    1  0.2964543E-004  0.9479414E+02  0.7546771E-02  0.1292549E+00
          2   -1    0    0  501    0  0.00000000000E+00  0.00000000000E+00  0.18086105819E+03  0.18086105819E+03  0.00000000000E+00 0. -1.
         -2   -1    0    0    0  501 -0.00000000000E+00 -0.00000000000E+00 -0.75126438184E+02  0.75126438184E+02  0.00000000000E+00 0.  1.
         23    2    1    2    0    0 -0.31185345121E+02  0.78372371380E-01 -0.22532670101E+02  0.97435360048E+02  0.89517575220E+02 0.  0.
         23    2    1    2    0    0  0.31185345121E+02 -0.78372371380E-01  0.12826729011E+03  0.15855213633E+03  0.87827958700E+02 0.  0.
          5    1    3    3  502    0 -0.16937382559E+02 -0.35774115377E+02  0.15772460767E+02  0.42866336181E+02  0.47000000000E+01 0. -1.
         -5    1    4    4    0  503  0.12500390556E+02  0.30237326272E+02  0.93849079938E+01  0.34361637944E+02  0.47000000000E+01 0.  1.
          5    1    4    4  503    0  0.18684954566E+02 -0.30315698643E+02  0.11888238212E+03  0.12419049838E+03  0.47000000000E+01 0. -1.
         -5    1    3    3    0  502 -0.14247962563E+02  0.35852487749E+02 -0.38305130868E+02  0.54569023867E+02  0.47000000000E+01 0.  1.
<mgrwt>
<rscale>  0 0.94393121E+02</rscale>
<asrwt>0</asrwt>
<pdfrwt beam="1">  1        2 0.27824778E-01 0.94794136E+02</pdfrwt>
<pdfrwt beam="2">  1       -2 0.11557914E-01 0.94794136E+02</pdfrwt>
<totfact> 0.91814119E+03</totfact>
</mgrwt>
</event>
<event>
 8    1  0.2964543E-004  0.9840919E+02  0.7546771E-02  0.1284154E+00
          1   -1    0    0  501    0  0.00000000000E+00  0.00000000000E+00  0.10896593853E+04  0.10896593853E+04  0.00000000000E+00 0. -1.
         -1   -1    0    0    0  501 -0.00000000000E+00 -0.00000000000E+00 -0.10451239664E+02  0.10451239664E+02  0.00000000000E+00 0.  1.
         23    2    1    2    0    0  0.37150343730E+02  0.15866844619E+01  0.75976071739E+03  0.76610750961E+03  0.91113681655E+02 0.  0.
         23    2    1    2    0    0 -0.37150343730E+02 -0.15866844619E+01  0.31944742821E+03  0.33400311532E+03  0.90159614269E+02 0.  0.
          5    1    3    3  502    0  0.16206516941E+02 -0.44455660187E+02  0.35411090780E+03  0.35728921330E+03  0.47000000000E+01 0. -1.
         -5    1    3    3    0  502  0.20943826789E+02  0.46042344649E+02  0.40564980959E+03  0.40881829632E+03  0.47000000000E+01 0.  1.
          5    1    4    4  503    0  0.26890733428E+02 -0.27847478396E+01  0.50287282550E+02  0.57286710074E+02  0.47000000000E+01 0. -1.
         -5    1    4    4    0  503 -0.64041077158E+02  0.11980633777E+01  0.26916014566E+03  0.27671640525E+03  0.47000000000E+01 0.  1.
<mgrwt>
<rscale>  0 0.98187775E+02</rscale>
<asrwt>0</asrwt>
<pdfrwt beam="1">  1        1 0.16763982E+00 0.98409190E+02</pdfrwt>
<pdfrwt beam="2">  1       -1 0.16078839E-02 0.98409190E+02</pdfrwt>
<totfact> 0.12210120E+04</totfact>
</mgrwt>
</event>
<event>
 8    1  0.2964543E-004  0.9501355E+02  0.7546771E-02  0.1291152E+00
         -2   -1    0    0    0  501 -0.00000000000E+00  0.00000000000E+00  0.95544612514E+02  0.95544612514E+02  0.00000000000E+00 0.  1.
          2   -1    0    0  501    0  0.00000000000E+00 -0.00000000000E+00 -0.94518208715E+02  0.94518208715E+02  0.00000000000E+00 0. -1.
         23    2    1    2    0    0 -0.24037398002E+02  0.33110036021E+01 -0.15267381122E+01  0.95025817549E+02  0.91863027514E+02 0.  0.
         23    2    1    2    0    0  0.24037398002E+02 -0.33110036021E+01  0.25531419106E+01  0.95037003680E+02  0.91851806118E+02 0.  0.
          5    1    4    4  502    0  0.41369629213E+02  0.24364366795E+02 -0.22869373509E+02  0.53386953792E+02  0.47000000000E+01 0. -1.
         -5    1    4    4    0  502 -0.17332231211E+02 -0.27675370397E+02  0.25422515420E+02  0.41650049887E+02  0.47000000000E+01 0.  1.
          5    1    3    3  503    0 -0.41740674559E+02  0.36963316258E+02 -0.67471675882E+01  0.56357651937E+02  0.47000000000E+01 0. -1.
         -5    1    3    3    0  503  0.17703276557E+02 -0.33652312655E+02  0.52204294760E+01  0.38668165612E+02  0.47000000000E+01 0.  1.
<mgrwt>
<rscale>  0 0.95010840E+02</rscale>
<asrwt>0</asrwt>
<pdfrwt beam="1">  1        2 0.14541263E-01 0.95013552E+02</pdfrwt>
<pdfrwt beam="2">  1       -2 0.14699171E-01 0.95013552E+02</pdfrwt>
<totfact> 0.12931817E+04</totfact>
</mgrwt>
</event>
<event>
 8    1  0.2964543E-004  0.1440454E+03  0.7546771E-02  0.1208003E+00
          2   -1    0    0  501    0  0.00000000000E+00  0.00000000000E+00  0.54221064108E+02  0.54221064108E+02  0.00000000000E+00 0. -1.
         -2   -1    0    0    0  501 -0.00000000000E+00 -0.00000000000E+00 -0.62651420262E+03  0.62651420262E+03  0.00000000000E+00 0.  1.
         23    2    1    2    0    0 -0.11098057056E+03 -0.10557421073E+02 -0.49857480092E+03  0.51896618993E+03  0.91219120807E+02 0.  0.
         23    2    1    2    0    0  0.11098057056E+03  0.10557421073E+02 -0.73718337595E+02  0.16176907680E+03  0.91141070474E+02 0.  0.
          5    1    3    3  502    0 -0.10449994395E+03 -0.35977443872E+02 -0.32387158657E+03  0.34224188718E+03  0.47000000000E+01 0.  1.
         -5    1    4    4    0  503  0.77409051875E+02  0.29077757830E+01 -0.93713840897E+02  0.12167575949E+03  0.47000000000E+01 0.  1.
          5    1    4    4  503    0  0.33571518690E+02  0.76496452900E+01  0.19995503302E+02  0.40093317305E+02  0.47000000000E+01 0. -1.
         -5    1    3    3    0  502 -0.64806266175E+01  0.25420022799E+02 -0.17470321435E+03  0.17672430275E+03  0.47000000000E+01 0. -1.
<mgrwt>
<rscale>  0 0.14403303E+03</rscale>
<asrwt>0</asrwt>
<pdfrwt beam="1">  1        2 0.83417022E-02 0.14404539E+03</pdfrwt>
<pdfrwt beam="2">  1       -2 0.96386800E-01 0.14404539E+03</pdfrwt>
<totfact> 0.73855204E+02</totfact>
</mgrwt>
</event>
<event>
 8    1  0.2964543E-004  0.9627376E+02  0.7546771E-02  0.1289550E+00
         -2   -1    0    0    0  501 -0.00000000000E+00  0.00000000000E+00  0.17764365249E+02  0.17764365249E+02  0.00000000000E+00 0.  1.
          2   -1    0    0  501    0  0.00000000000E+00 -0.00000000000E+00 -0.51357888992E+03  0.51357888992E+03  0.00000000000E+00 0. -1.
         23    2    1    2    0    0 -0.22767634159E+02 -0.98422339232E+01 -0.26714058461E+03  0.28322955784E+03  0.90772549556E+02 0.  0.
         23    2    1    2    0    0  0.22767634159E+02  0.98422339232E+01 -0.22867394006E+03  0.24811369734E+03  0.93023659397E+02 0.  0.
          5    1    3    3  502    0 -0.23284427602E+01 -0.48796878282E+02 -0.12219597654E+03  0.13168334617E+03  0.47000000000E+01 0. -1.
         -5    1    3    3    0  502 -0.20439191399E+02  0.38954644359E+02 -0.14494460808E+03  0.15154621167E+03  0.47000000000E+01 0.  1.
          5    1    4    4  503    0  0.45706376857E+02  0.47188525406E+01 -0.21622711448E+03  0.22110539453E+03  0.47000000000E+01 0. -1.
         -5    1    4    4    0  503 -0.22938742698E+02  0.51233813826E+01 -0.12446825588E+02  0.27008302808E+02  0.47000000000E+01 0.  1.
<mgrwt>
<rscale>  0 0.95725762E+02</rscale>
<asrwt>0</asrwt>
<pdfrwt beam="1">  1        2 0.79012124E-01 0.96273755E+02</pdfrwt>
<pdfrwt beam="2">  1       -2 0.27329797E-02 0.96273755E+02</pdfrwt>
<totfact> 0.26589683E+04</totfact>
</mgrwt>
</event>
<event>
 8    1  0.2964543E-004  0.1218924E+03  0.7546771E-02  0.1243932E+00
          4   -1    0    0  501    0  0.00000000000E+00  0.00000000000E+00  0.34226059376E+03  0.34226059376E+03  0.00000000000E+00 0. -1.
         -4   -1    0    0    0  501 -0.00000000000E+00 -0.00000000000E+00 -0.56026810827E+02  0.56026810827E+02  0.00000000000E+00 0.  1.
         23    2    1    2    0    0  0.89248984495E+01  0.68905351222E+02  0.24496618314E+03  0.26959877199E+03  0.88585922918E+02 0.  0.
         23    2    1    2    0    0 -0.89248984495E+01 -0.68905351222E+02  0.41267599796E+02  0.12868863260E+03  0.10015062719E+03 0.  0.
          5    1    4    4  502    0 -0.56747177712E+00  0.22306789108E+02  0.27854450902E+02  0.35998268008E+02  0.47000000000E+01 0. -1.
         -5    1    4    4    0  502 -0.83574266724E+01 -0.91212140330E+02  0.13413148894E+02  0.92690364588E+02  0.47000000000E+01 0.  1.
          5    1    3    3  503    0  0.36374456939E+02 -0.20787307342E+00  0.61919639672E+02  0.71967187704E+02  0.47000000000E+01 0.  1.
         -5    1    3    3    0  503 -0.27449558489E+02  0.69113224296E+02  0.18304654347E+03  0.19763158429E+03  0.47000000000E+01 0. -1.
<mgrwt>
<rscale>  0 0.11949539E+03</rscale>
<asrwt>0</asrwt>
<pdfrwt beam="1">  1        4 0.52655475E-01 0.12189237E+03</pdfrwt>
<pdfrwt beam="2">  1       -4 0.86195096E-02 0.12189237E+03</pdfrwt>
<totfact> 0.55145166E+02</totfact>
</mgrwt>
</event>
<event>
 8    1  0.2964543E-004  0.1061824E+03  0.7546771E-02  0.1269893E+00
         -1   -1    0    0    0  501 -0.00000000000E+00  0.00000000000E+00  0.89576873175E+02  0.89576873175E+02  0.00000000000E+00 0.  1.
          1   -1    0    0  501    0  0.00000000000E+00 -0.00000000000E+00 -0.22496226746E+03  0.22496226746E+03  0.00000000000E+00 0. -1.
         23    2    1    2    0    0 -0.59266688759E+00 -0.48804913195E+02  0.38508444618E+02  0.11294958410E+03  0.94299721294E+02 0.  0.
         23    2    1    2    0    0  0.59266688759E+00  0.48804913195E+02 -0.17389383891E+03  0.20158955653E+03  0.89537764593E+02 0.  0.
          5    1    3    3  502    0 -0.32593757723E+02 -0.38063701050E+02 -0.12259103349E+02  0.51803223790E+02  0.47000000000E+01 0. -1.
         -5    1    3    3    0  502  0.32001090836E+02 -0.10741212146E+02  0.50767547967E+02  0.61146360313E+02  0.47000000000E+01 0.  1.
          5    1    4    4  503    0 -0.10220688094E+02  0.67735198710E+02 -0.16278599345E+03  0.17667452922E+03  0.47000000000E+01 0. -1.
         -5    1    4    4    0  503  0.10813354981E+02 -0.18930285515E+02 -0.11107845451E+02  0.24915027316E+02  0.47000000000E+01 0.  1.
<mgrwt>
<rscale>  0 0.10511505E+03</rscale>
<asrwt>0</asrwt>
<pdfrwt beam="1">  1        1 0.34609580E-01 0.10618243E+03</pdfrwt>
<pdfrwt beam="2">  1       -1 0.13781057E-01 0.10618243E+03</pdfrwt>
<totfact> 0.43934084E+03</totfact>
</mgrwt>
</event>
<event>
 8    1  0.2964543E-004  0.1020288E+03  0.7546771E-02  0.1278981E+00
         -1   -1    0    0    0  501 -0.00000000000E+00  0.00000000000E+00  0.71155406237E+02  0.71155406237E+02  0.00000000000E+00 0.  1.
          1   -1    0    0  501    0  0.00000000000E+00 -0.00000000000E+00 -0.27064356594E+03  0.27064356594E+03  0.00000000000E+00 0. -1.
         23    2    1    2    0    0  0.32347859597E+02 -0.24639790305E+02  0.18223268042E+02  0.10364345901E+03  0.93575508601E+02 0.  0.
         23    2    1    2    0    0 -0.32347859597E+02  0.24639790305E+02 -0.21771142775E+03  0.23815551317E+03  0.87557292077E+02 0.  0.
          5    1    3    3  502    0 -0.30038460021E+02 -0.25028637850E+02  0.49968135160E+01  0.39696346662E+02  0.47000000000E+01 0. -1.
         -5    1    4    4    0  503 -0.15357221011E+02 -0.28944201425E+02 -0.41203617105E+02  0.52852995145E+02  0.47000000000E+01 0.  1.
          5    1    4    4  503    0 -0.16990638586E+02  0.53583991730E+02 -0.17650781064E+03  0.18530251803E+03  0.47000000000E+01 0. -1.
         -5    1    3    3    0  502  0.62386319617E+02  0.38884754490E+00  0.13226454526E+02  0.63947112344E+02  0.47000000000E+01 0.  1.
<mgrwt>
<rscale>  0 0.10062777E+03</rscale>
<asrwt>0</asrwt>
<pdfrwt beam="1">  1        1 0.41637471E-01 0.10202882E+03</pdfrwt>
<pdfrwt beam="2">  1       -1 0.10946986E-01 0.10202882E+03</pdfrwt>
<totfact> 0.49735992E+03</totfact>
</mgrwt>
</event>
<event>
 8    1  0.2964543E-004  0.9791606E+02  0.7546771E-02  0.1287100E+00
         -3   -1    0    0    0  501 -0.00000000000E+00  0.00000000000E+00  0.16258083734E+03  0.16258083734E+03  0.00000000000E+00 0.  1.
          3   -1    0    0  501    0  0.00000000000E+00 -0.00000000000E+00 -0.18553703048E+03  0.18553703048E+03  0.00000000000E+00 0. -1.
         23    2    1    2    0    0  0.18295605869E+02 -0.25349025008E+02  0.13362806602E+03  0.16566235019E+03  0.92791443453E+02 0.  0.
         23    2    1    2    0    0 -0.18295605869E+02  0.25349025008E+02 -0.15658425916E+03  0.18245551764E+03  0.88284106367E+02 0.  0.
          5    1    4    4  502    0  0.48543005134E+01  0.51878710726E+02 -0.12259550955E+03  0.13329183704E+03  0.47000000000E+01 0. -1.
         -5    1    4    4    0  502 -0.23149906383E+02 -0.26529685718E+02 -0.33988749611E+02  0.49163680598E+02  0.47000000000E+01 0.  1.
          5    1    3    3  503    0  0.21873851947E+02  0.26623638742E+02  0.18916923322E+02  0.39588174078E+02  0.47000000000E+01 0. -1.
         -5    1    3    3    0  503 -0.35782460780E+01 -0.51972663750E+02  0.11471114270E+03  0.12607417611E+03  0.47000000000E+01 0.  1.
<mgrwt>
<rscale>  0 0.96833129E+02</rscale>
<asrwt>0</asrwt>
<pdfrwt beam="1">  1        3 0.28544159E-01 0.97916057E+02</pdfrwt>
<pdfrwt beam="2">  1       -3 0.25012437E-01 0.97916057E+02</pdfrwt>
<totfact> 0.39139427E+02</totfact>
</mgrwt>
</event>
<event>
 8    1  0.2964543E-004  0.1495152E+03  0.7546771E-02  0.1201179E+00
         -2   -1    0    0    0  501 -0.00000000000E+00  0.00000000000E+00  0.20792512207E+03  0.20792512207E+03  0.00000000000E+00 0.  1.
          2   -1    0    0  501    0  0.00000000000E+00 -0.00000000000E+00 -0.10877680493E+03  0.10877680493E+03  0.00000000000E+00 0. -1.
         23    2    1    2    0    0 -0.30319663944E+01 -0.11108586931E+03  0.68333301373E+02  0.16439048838E+03  0.10002764324E+03 0.  0.
         23    2    1    2    0    0  0.30319663944E+01  0.11108586931E+03  0.30815015760E+02  0.15231143862E+03  0.99498472131E+02 0.  0.
          5    1    4    4  502    0  0.35682841849E+02  0.53350532432E+02 -0.21341662278E+02  0.67801925209E+02  0.47000000000E+01 0. -1.
         -5    1    4    4    0  502 -0.32650875455E+02  0.57735336880E+02  0.52156678038E+02  0.84509513409E+02  0.47000000000E+01 0.  1.
          5    1    3    3  503    0  0.45935252076E+02 -0.31354812358E+02  0.26656389605E+02  0.61853251718E+02  0.47000000000E+01 0. -1.
         -5    1    3    3    0  503 -0.48967218470E+02 -0.79731056955E+02  0.41676911767E+02  0.10253723666E+03  0.47000000000E+01 0.  1.
<mgrwt>
<rscale>  0 0.14942674E+03</rscale>
<asrwt>0</asrwt>
<pdfrwt beam="1">  1        2 0.16734893E-01 0.14951519E+03</pdfrwt>
<pdfrwt beam="2">  1       -2 0.31988480E-01 0.14951519E+03</pdfrwt>
<totfact> 0.30078074E+03</totfact>
</mgrwt>
</event>
<event>
 8    1  0.2964543E-004  0.9696856E+02  0.7546771E-02  0.1287767E+00
         -1   -1    0    0    0  501 -0.00000000000E+00  0.00000000000E+00  0.20911055431E+02  0.20911055431E+02  0.00000000000E+00 0.  1.
          1   -1    0    0  501    0  0.00000000000E+00 -0.00000000000E+00 -0.55591043849E+03  0.55591043849E+03  0.00000000000E+00 0. -1.
         23    2    1    2    0    0 -0.17344417049E+02  0.26764714186E+02 -0.13865840363E+03  0.16920122559E+03  0.91573593986E+02 0.  0.
         23    2    1    2    0    0  0.17344417049E+02 -0.26764714186E+02 -0.39634097943E+03  0.40762026834E+03  0.89726988424E+02 0.  0.
          5    1    3    3  502    0  0.93320045117E+01  0.21738750576E+02 -0.13956781759E+03  0.14163659587E+03  0.47000000000E+01 0. -1.
         -5    1    3    3    0  502 -0.26676421561E+02  0.50259636093E+01  0.90941395888E+00  0.27564629714E+02  0.47000000000E+01 0.  1.
          5    1    4    4  503    0  0.21671879079E+02  0.23714671349E+02 -0.67922229405E+02  0.75283299790E+02  0.47000000000E+01 0. -1.
         -5    1    4    4    0  503 -0.43274620295E+01 -0.50479385535E+02 -0.32841875003E+03  0.33233696855E+03  0.47000000000E+01 0.  1.
<mgrwt>
<rscale>  0 0.96530114E+02</rscale>
<asrwt>0</asrwt>
<pdfrwt beam="1">  1        1 0.85524677E-01 0.96968561E+02</pdfrwt>
<pdfrwt beam="2">  1       -1 0.32170857E-02 0.96968561E+02</pdfrwt>
<totfact> 0.12304594E+04</totfact>
</mgrwt>
</event>
<event>
 8    1  0.2964543E-004  0.9962809E+02  0.7546771E-02  0.1281889E+00
          1   -1    0    0  501    0  0.00000000000E+00  0.00000000000E+00  0.56772870803E+03  0.56772870803E+03  0.00000000000E+00 0. -1.
         -1   -1    0    0    0  501 -0.00000000000E+00 -0.00000000000E+00 -0.17344340899E+02  0.17344340899E+02  0.00000000000E+00 0.  1.
         23    2    1    2    0    0  0.21783129210E+01  0.39861378645E+02  0.24812464075E+03  0.26681733599E+03  0.89621308216E+02 0.  0.
         23    2    1    2    0    0 -0.21783129210E+01 -0.39861378645E+02  0.30225972639E+03  0.31825571294E+03  0.91280239195E+02 0.  0.
          5    1    4    4  502    0  0.17281699006E+02 -0.58910347053E+02  0.26384406972E+03  0.27093332988E+03  0.47000000000E+01 0. -1.
         -5    1    4    4    0  502 -0.19460011927E+02  0.19048968408E+02  0.38415656664E+02  0.47322383061E+02  0.47000000000E+01 0.  1.
          5    1    3    3  503    0 -0.33957657103E+02 -0.10354887009E+02  0.10022632847E+03  0.10643191758E+03  0.47000000000E+01 0. -1.
         -5    1    3    3    0  503  0.36135970024E+02  0.50216265654E+02  0.14789831227E+03  0.16038541841E+03  0.47000000000E+01 0.  1.
<mgrwt>
<rscale>  0 0.99246485E+02</rscale>
<asrwt>0</asrwt>
<pdfrwt beam="1">  1        1 0.87342864E-01 0.99628092E+02</pdfrwt>
<pdfrwt beam="2">  1       -1 0.26683606E-02 0.99628092E+02</pdfrwt>
<totfact> 0.15710055E+04</totfact>
</mgrwt>
</event>
<event>
 8    1  0.2964543E-004  0.1084133E+03  0.7546771E-02  0.1264412E+00
         -1   -1    0    0    0  501 -0.00000000000E+00  0.00000000000E+00  0.16028676668E+02  0.16028676668E+02  0.00000000000E+00 0.  1.
          1   -1    0    0  501    0  0.00000000000E+00 -0.00000000000E+00 -0.10986116104E+04  0.10986116104E+04  0.00000000000E+00 0. -1.
         23    2    1    2    0    0 -0.57886834949E+02 -0.14906754524E+02 -0.21754899490E+03  0.24306585455E+03  0.90445273380E+02 0.  0.
         23    2    1    2    0    0  0.57886834949E+02  0.14906754524E+02 -0.86503393881E+03  0.87157443250E+03  0.88233661892E+02 0.  0.
          5    1    3    3  502    0  0.19516002941E+02 -0.22818362927E+02 -0.65123282887E+02  0.71865736143E+02  0.47000000000E+01 0. -1.
         -5    1    3    3    0  502 -0.77402837889E+02  0.79116084026E+01 -0.15242571201E+03  0.17120011841E+03  0.47000000000E+01 0.  1.
          5    1    4    4  503    0  0.64832272276E+02 -0.20193389832E+02 -0.64744107458E+03  0.65100924078E+03  0.47000000000E+01 0. -1.
         -5    1    4    4    0  503 -0.69454373276E+01  0.35100144356E+02 -0.21759286423E+03  0.22056519172E+03  0.47000000000E+01 0.  1.
<mgrwt>
<rscale>  0 0.10795083E+03</rscale>
<asrwt>0</asrwt>
<pdfrwt beam="1">  1        1 0.16901717E+00 0.10841330E+03</pdfrwt>
<pdfrwt beam="2">  1       -1 0.24659503E-02 0.10841330E+03</pdfrwt>
<totfact> 0.65617605E+03</totfact>
</mgrwt>
</event>
<event>
 8    1  0.2964543E-004  0.1164711E+03  0.7546771E-02  0.1250360E+00
         -1   -1    0    0    0  501 -0.00000000000E+00  0.00000000000E+00  0.18677198954E+02  0.18677198954E+02  0.00000000000E+00 0.  1.
          1   -1    0    0  501    0  0.00000000000E+00 -0.00000000000E+00 -0.75956767328E+03  0.75956767328E+03  0.00000000000E+00 0. -1.
         23    2    1    2    0    0 -0.69926672229E+02 -0.18346786435E+02 -0.46778918960E+03  0.48134451263E+03  0.87404060956E+02 0.  0.
         23    2    1    2    0    0  0.69926672229E+02  0.18346786435E+02 -0.27310128472E+03  0.29690035960E+03  0.91319043749E+02 0.  0.
          5    1    3    3  502    0 -0.50201509481E+02  0.31604641338E+02 -0.24860565999E+03  0.25562845907E+03  0.47000000000E+01 0. -1.
         -5    1    4    4    0  503  0.59294483962E+02  0.43408587653E+02 -0.25082818710E+03  0.26141348617E+03  0.47000000000E+01 0.  1.
          5    1    4    4  503    0  0.10632188267E+02 -0.25061801218E+02 -0.22273097621E+02  0.35486873422E+02  0.47000000000E+01 0. -1.
         -5    1    3    3    0  502 -0.19725162748E+02 -0.49951427774E+02 -0.21918352962E+03  0.22571605357E+03  0.47000000000E+01 0.  1.
<mgrwt>
<rscale>  0 0.11570263E+03</rscale>
<asrwt>0</asrwt>
<pdfrwt beam="1">  1        1 0.11685658E+00 0.11647108E+03</pdfrwt>
<pdfrwt beam="2">  1       -1 0.28734148E-02 0.11647108E+03</pdfrwt>
<totfact> 0.95368555E+03</totfact>
</mgrwt>
</event>
<event>
 8    1  0.2964543E-004  0.9291601E+02  0.7546771E-02  0.1297501E+00
          1   -1    0    0  501    0  0.00000000000E+00  0.00000000000E+00  0.46800186354E+02  0.46800186354E+02  0.00000000000E+00 0. -1.
         -1   -1    0    0    0  501 -0.00000000000E+00 -0.00000000000E+00 -0.36407227594E+03  0.36407227594E+03  0.00000000000E+00 0.  1.
         23    2    1    2    0    0 -0.25200940224E+02  0.53532018971E+01 -0.11140721894E+02  0.90950909318E+02  0.86511317541E+02 0.  0.
         23    2    1    2    0    0  0.25200940224E+02 -0.53532018971E+01 -0.30613136769E+03  0.31992155298E+03  0.89272849258E+02 0.  0.
          5    1    4    4  502    0 -0.16971265799E+02 -0.34826580486E+02 -0.16721888714E+03  0.17171243632E+03  0.47000000000E+01 0. -1.
         -5    1    3    3    0  503  0.24141526729E+02 -0.36870231524E+01  0.19831807459E+02  0.31808772998E+02  0.47000000000E+01 0. -1.
          5    1    3    3  503    0 -0.49342466953E+02  0.90402250495E+01 -0.30972529353E+02  0.59142136320E+02  0.47000000000E+01 0.  1.
         -5    1    4    4    0  502  0.42172206023E+02  0.29473378589E+02 -0.13891248055E+03  0.14820911666E+03  0.47000000000E+01 0.  1.
<mgrwt>
<rscale>  0 0.92246307E+02</rscale>
<asrwt>0</asrwt>
<pdfrwt beam="1">  1        1 0.72000288E-02 0.92916015E+02</pdfrwt>
<pdfrwt beam="2">  1       -1 0.56011118E-01 0.92916015E+02</pdfrwt>
<totfact> 0.31355404E+03</totfact>
</mgrwt>
</event>
<event>
 8    1  0.2964543E-004  0.9766358E+02  0.7546771E-02  0.1285868E+00
         -2   -1    0    0    0  501 -0.00000000000E+00  0.00000000000E+00  0.40801630672E+02  0.40801630672E+02  0.00000000000E+00 0.  1.
          2   -1    0    0  501    0  0.00000000000E+00 -0.00000000000E+00 -0.24249352556E+03  0.24249352556E+03  0.00000000000E+00 0. -1.
         23    2    1    2    0    0 -0.23500932905E+02  0.24061726984E+02 -0.13189757317E+03  0.16411930184E+03  0.91689229874E+02 0.  0.
         23    2    1    2    0    0  0.23500932905E+02 -0.24061726984E+02 -0.69794321716E+02  0.11917585439E+03  0.90555929534E+02 0.  0.
          5    1    3    3  502    0 -0.33573930110E+02 -0.27285120628E+02 -0.74733605156E+02  0.86480566200E+02  0.47000000000E+01 0. -1.
         -5    1    3    3    0  502  0.10072997205E+02  0.51346847612E+02 -0.57163968019E+02  0.77638735642E+02  0.47000000000E+01 0.  1.
          5    1    4    4  503    0  0.15655758549E+02 -0.54201433784E+02 -0.66761780857E+02  0.87533556898E+02  0.47000000000E+01 0. -1.
         -5    1    4    4    0  503  0.78451743561E+01  0.30139706800E+02 -0.30325408581E+01  0.31642297495E+02  0.47000000000E+01 0.  1.
<mgrwt>
<rscale>  0 0.97396695E+02</rscale>
<asrwt>0</asrwt>
<pdfrwt beam="1">  1        2 0.37306696E-01 0.97663583E+02</pdfrwt>
<pdfrwt beam="2">  1       -2 0.62771740E-02 0.97663583E+02</pdfrwt>
<totfact> 0.17236423E+04</totfact>
</mgrwt>
</event>
<event>
 8    1  0.2964543E-004  0.1007267E+03  0.7546771E-02  0.1282267E+00
         -3   -1    0    0    0  501 -0.00000000000E+00  0.00000000000E+00  0.32159748332E+03  0.32159748332E+03  0.00000000000E+00 0.  1.
          3   -1    0    0  501    0  0.00000000000E+00 -0.00000000000E+00 -0.31374015536E+02  0.31374015536E+02  0.00000000000E+00 0. -1.
         23    2    1    2    0    0 -0.30498836983E+01  0.28680092517E+02  0.18305982354E+03  0.20590037314E+03  0.89734136022E+02 0.  0.
         23    2    1    2    0    0  0.30498836983E+01 -0.28680092517E+02  0.10716364424E+03  0.14707112571E+03  0.96509169897E+02 0.  0.
          5    1    3    3  502    0 -0.25020311888E+02 -0.51416444540E+01  0.15348577035E+03  0.15566767235E+03  0.47000000000E+01 0.  1.
         -5    1    3    3    0  502  0.21970428189E+02  0.33821736971E+02  0.29574053187E+02  0.50232700788E+02  0.47000000000E+01 0. -1.
          5    1    4    4  503    0  0.43892423341E+02 -0.48400517123E+00  0.24365842532E+02  0.50423837320E+02  0.47000000000E+01 0. -1.
         -5    1    4    4    0  503 -0.40842539642E+02 -0.28196087346E+02  0.82797801708E+02  0.96647288393E+02  0.47000000000E+01 0.  1.
<mgrwt>
<rscale>  0 0.99068352E+02</rscale>
<asrwt>0</asrwt>
<pdfrwt beam="1">  1        3 0.48267718E-02 0.10072671E+03</pdfrwt>
<pdfrwt beam="2">  1       -3 0.49476534E-01 0.10072671E+03</pdfrwt>
<totfact> 0.21330432E+03</totfact>
</mgrwt>
</event>
<event>
 8    1  0.2964543E-004  0.1625895E+03  0.7546771E-02  0.1186257E+00
          2   -1    0    0  501    0  0.00000000000E+00  0.00000000000E+00  0.48939167663E+03  0.48939167663E+03  0.00000000000E+00 0. -1.
         -2   -1    0    0    0  501 -0.00000000000E+00 -0.00000000000E+00 -0.56300737430E+02  0.56300737430E+02  0.00000000000E+00 0.  1.
         23    2    1    2    0    0 -0.12736061015E+03  0.41117442296E+02  0.15439872266E+03  0.22303983552E+03  0.89422780044E+02 0.  0.
         23    2    1    2    0    0  0.12736061015E+03 -0.41117442296E+02  0.27869221654E+03  0.32265257854E+03  0.92325325900E+02 0.  0.
          5    1    4    4  502    0  0.10904438639E+03 -0.63367429063E+02  0.25686774962E+03  0.28619790367E+03  0.47000000000E+01 0. -1.
         -5    1    3    3    0  503 -0.10210125895E+03 -0.92182409734E+01  0.11509125160E+03  0.15420028937E+03  0.47000000000E+01 0.  1.
          5    1    3    3  503    0 -0.25259351191E+02  0.50335683270E+02  0.39307471065E+02  0.68839546152E+02  0.47000000000E+01 0. -1.
         -5    1    4    4    0  502  0.18316223755E+02  0.22249986767E+02  0.21824466916E+02  0.36454674871E+02  0.47000000000E+01 0.  1.
<mgrwt>
<rscale>  0 0.16218031E+03</rscale>
<asrwt>0</asrwt>
<pdfrwt beam="1">  1        2 0.75291024E-01 0.16258947E+03</pdfrwt>
<pdfrwt beam="2">  1       -2 0.86616522E-02 0.16258947E+03</pdfrwt>
<totfact> 0.51731148E+03</totfact>
</mgrwt>
</event>
<event>
 8    1  0.2964543E-004  0.1842370E+03  0.7546771E-02  0.1164428E+00
         -2   -1    0    0    0  501 -0.00000000000E+00  0.00000000000E+00  0.37442109955E+02  0.37442109955E+02  0.00000000000E+00 0.  1.
          2   -1    0    0  501    0  0.00000000000E+00 -0.00000000000E+00 -0.10111185269E+04  0.10111185269E+04  0.00000000000E+00 0. -1.
         23    2    1    2    0    0  0.15979843580E+03 -0.99023012105E+01 -0.31079672569E+03  0.36130025887E+03  0.91157428151E+02 0.  0.
         23    2    1    2    0    0 -0.15979843580E+03  0.99023012105E+01 -0.66287969126E+03  0.68726037799E+03  0.85344867526E+02 0.  0.
          5    1    4    4  502    0 -0.89982425940E+02  0.37126811208E+02 -0.47576002597E+03  0.48563868195E+03  0.47000000000E+01 0. -1.
         -5    1    4    4    0  502 -0.69816009864E+02 -0.27224509997E+02 -0.18711966529E+03  0.20162169605E+03  0.47000000000E+01 0.  1.
          5    1    3    3  503    0  0.72632739549E+02  0.39318183349E+02 -0.16206673706E+03  0.18195920328E+03  0.47000000000E+01 0. -1.
         -5    1    3    3    0  503  0.87165696256E+02 -0.49220484559E+02 -0.14872998863E+03  0.17934105559E+03  0.47000000000E+01 0.  1.
<mgrwt>
<rscale>  0 0.18353155E+03</rscale>
<asrwt>0</asrwt>
<pdfrwt beam="1">  1        2 0.15555671E+00 0.18423700E+03</pdfrwt>
<pdfrwt beam="2">  1       -2 0.57603241E-02 0.18423700E+03</pdfrwt>
<totfact> 0.40282559E+03</totfact>
</mgrwt>
</event>
<event>
 8    1  0.2964543E-004  0.1508140E+03  0.7546771E-02  0.1199547E+00
          1   -1    0    0  501    0  0.00000000000E+00  0.00000000000E+00  0.54486926830E+03  0.54486926830E+03  0.00000000000E+00 0. -1.
         -1   -1    0    0    0  501 -0.00000000000E+00 -0.00000000000E+00 -0.49753593609E+02  0.49753593609E+02  0.00000000000E+00 0.  1.
         23    2    1    2    0    0 -0.11706758638E+03  0.26063855156E+02  0.12763423756E+03  0.19739815238E+03  0.91057057061E+02 0.  0.
         23    2    1    2    0    0  0.11706758638E+03 -0.26063855156E+02  0.36748143714E+03  0.39722470953E+03  0.91436966779E+02 0.  0.
          5    1    4    4  502    0 -0.12204140911E+01  0.21618688687E+02  0.39539299234E+02  0.45324422721E+02  0.47000000000E+01 0.  1.
         -5    1    4    4    0  502  0.11828800047E+03 -0.47682543843E+02  0.32794213790E+03  0.35190028681E+03  0.47000000000E+01 0. -1.
          5    1    3    3  503    0 -0.11979675031E+03 -0.56607636113E+00  0.11889665442E+03  0.16884930044E+03  0.47000000000E+01 0. -1.
         -5    1    3    3    0  503  0.27291639245E+01  0.26629931517E+02  0.87375831402E+01  0.28548851946E+02  0.47000000000E+01 0.  1.
<mgrwt>
<rscale>  0 0.15075646E+03</rscale>
<asrwt>0</asrwt>
<pdfrwt beam="1">  1        1 0.83826037E-01 0.15081400E+03</pdfrwt>
<pdfrwt beam="2">  1       -1 0.76543994E-02 0.15081400E+03</pdfrwt>
<totfact> 0.36139145E+03</totfact>
</mgrwt>
</event>
<event>
 8    1  0.2964543E-004  0.1156350E+03  0.7546771E-02  0.1250578E+00
          3   -1    0    0  501    0  0.00000000000E+00  0.00000000000E+00  0.36897071759E+02  0.36897071759E+02  0.00000000000E+00 0. -1.
         -3   -1    0    0    0  501 -0.00000000000E+00 -0.00000000000E+00 -0.37322760344E+03  0.37322760344E+03  0.00000000000E+00 0.  1.
         23    2    1    2    0    0 -0.70115222463E+02 -0.15259613325E+01 -0.13224173108E+03  0.17566822918E+03  0.91940080075E+02 0.  0.
         23    2    1    2    0    0  0.70115222463E+02  0.15259613325E+01 -0.20408880060E+03  0.23445644602E+03  0.91646677906E+02 0.  0.
          5    1    3    3  502    0 -0.60811681761E+01  0.30856175660E+02 -0.91133107397E+01  0.33079096351E+02  0.47000000000E+01 0. -1.
         -5    1    3    3    0  502 -0.64034054287E+02 -0.32382136993E+02 -0.12312842034E+03  0.14258913283E+03  0.47000000000E+01 0.  1.
          5    1    4    4  503    0  0.86208162588E+02 -0.13333906464E+02 -0.18659467615E+03  0.20603228758E+03  0.47000000000E+01 0. -1.
         -5    1    4    4    0  503 -0.16092940125E+02  0.14859867796E+02 -0.17494124454E+02  0.28424158443E+02  0.47000000000E+01 0.  1.
<mgrwt>
<rscale>  0 0.11557666E+03</rscale>
<asrwt>0</asrwt>
<pdfrwt beam="1">  1        3 0.56764727E-02 0.11563499E+03</pdfrwt>
<pdfrwt beam="2">  1       -3 0.57419630E-01 0.11563499E+03</pdfrwt>
<totfact> 0.12567364E+03</totfact>
</mgrwt>
</event>
<event>
 8    1  0.2964543E-004  0.1356826E+03  0.7546771E-02  0.1220437E+00
          3   -1    0    0  501    0  0.00000000000E+00  0.00000000000E+00  0.10043301701E+04  0.10043301701E+04  0.00000000000E+00 0. -1.
         -3   -1    0    0    0  501 -0.00000000000E+00 -0.00000000000E+00 -0.21465374017E+02  0.21465374017E+02  0.00000000000E+00 0.  1.
         23    2    1    2    0    0 -0.98951445806E+02 -0.23554004116E+02  0.27691850312E+03  0.30692842677E+03  0.84705501928E+02 0.  0.
         23    2    1    2    0    0  0.98951445806E+02  0.23554004116E+02  0.70594629297E+03  0.71886711734E+03  0.89797461576E+02 0.  0.
          5    1    4    4  502    0  0.57012990121E+02  0.57771516038E+02  0.43266076411E+03  0.44023341071E+03  0.47000000000E+01 0. -1.
         -5    1    3    3    0  503 -0.88237668741E+02 -0.51357082081E+02  0.21379988647E+03  0.23697239822E+03  0.47000000000E+01 0.  1.
          5    1    3    3  503    0 -0.10713777065E+02  0.27803077965E+02  0.63118616649E+02  0.69956028554E+02  0.47000000000E+01 0. -1.
         -5    1    4    4    0  502  0.41938455685E+02 -0.34217511922E+02  0.27328552886E+03  0.27863370663E+03  0.47000000000E+01 0.  1.
<mgrwt>
<rscale>  0 0.13484616E+03</rscale>
<asrwt>0</asrwt>
<pdfrwt beam="1">  1        3 0.15451230E+00 0.13568258E+03</pdfrwt>
<pdfrwt beam="2">  1       -3 0.33023660E-02 0.13568258E+03</pdfrwt>
<totfact> 0.32669928E+02</totfact>
</mgrwt>
</event>
<event>
 8    1  0.2964543E-004  0.9689201E+02  0.7546771E-02  0.1288251E+00
          3   -1    0    0  501    0  0.00000000000E+00  0.00000000000E+00  0.81124629874E+03  0.81124629874E+03  0.00000000000E+00 0. -1.
         -3   -1    0    0    0  501 -0.00000000000E+00 -0.00000000000E+00 -0.11309399107E+02  0.11309399107E+02  0.00000000000E+00 0.  1.
         23    2    1    2    0    0  0.11133147034E+02 -0.20578518723E+02  0.39223332542E+03  0.40402356877E+03  0.94024678451E+02 0.  0.
         23    2    1    2    0    0 -0.11133147034E+02  0.20578518723E+02  0.40770357421E+03  0.41853212907E+03  0.91648874764E+02 0.  0.
          5    1    3    3  502    0  0.45567690889E+01 -0.47840675827E+02  0.34869307159E+03  0.35202051444E+03  0.47000000000E+01 0. -1.
         -5    1    4    4    0  503  0.29037722410E+02 -0.21338173359E+02  0.15596810345E+03  0.16014570321E+03  0.47000000000E+01 0.  1.
          5    1    4    4  503    0 -0.40170869444E+02  0.41916692082E+02  0.25173547077E+03  0.25838642586E+03  0.47000000000E+01 0. -1.
         -5    1    3    3    0  502  0.65763779452E+01  0.27262157104E+02  0.43540253831E+02  0.52003054339E+02  0.47000000000E+01 0.  1.
<mgrwt>
<rscale>  0 0.96310868E+02</rscale>
<asrwt>0</asrwt>
<pdfrwt beam="1">  1        3 0.12480708E+00 0.96892015E+02</pdfrwt>
<pdfrwt beam="2">  1       -3 0.17399082E-02 0.96892015E+02</pdfrwt>
<totfact> 0.13831174E+03</totfact>
</mgrwt>
</event>
<event>
 8    1  0.2964543E-004  0.1059637E+03  0.7546771E-02  0.1268946E+00
          2   -1    0    0  501    0  0.00000000000E+00  0.00000000000E+00  0.21817013392E+03  0.21817013392E+03  0.00000000000E+00 0. -1.
         -2   -1    0    0    0  501 -0.00000000000E+00 -0.00000000000E+00 -0.99714612574E+02  0.99714612574E+02  0.00000000000E+00 0.  1.
         23    2    1    2    0    0 -0.26982819352E+02  0.43403228666E+02 -0.52344429340E+02  0.11688490012E+03  0.91160450818E+02 0.  0.
         23    2    1    2    0    0  0.26982819352E+02 -0.43403228666E+02  0.17079995068E+03  0.20099984637E+03  0.92824578053E+02 0.  0.
          5    1    4    4  502    0  0.45920048358E+02 -0.29807091306E+02  0.16835264006E+03  0.17709267333E+03  0.47000000000E+01 0. -1.
         -5    1    4    4    0  502 -0.18937229007E+02 -0.13596137359E+02  0.24473106231E+01  0.23907173041E+02  0.47000000000E+01 0.  1.
          5    1    3    3  503    0  0.32667414623E+02  0.23823528449E+02 -0.13385317479E+02  0.42848304632E+02  0.47000000000E+01 0. -1.
         -5    1    3    3    0  503 -0.59650233974E+02  0.19579700217E+02 -0.38959111861E+02  0.74036595484E+02  0.47000000000E+01 0.  1.
<mgrwt>
<rscale>  0 0.10559818E+03</rscale>
<asrwt>0</asrwt>
<pdfrwt beam="1">  1        2 0.33564636E-01 0.10596374E+03</pdfrwt>
<pdfrwt beam="2">  1       -2 0.15340710E-01 0.10596374E+03</pdfrwt>
<totfact> 0.48126563E+03</totfact>
</mgrwt>
</event>
<event>
 8    1  0.2964543E-004  0.1080391E+03  0.7546771E-02  0.1266043E+00
          1   -1    0    0  501    0  0.00000000000E+00  0.00000000000E+00  0.46394529356E+03  0.46394529356E+03  0.00000000000E+00 0. -1.
         -1   -1    0    0    0  501 -0.00000000000E+00 -0.00000000000E+00 -0.57123864980E+02  0.57123864980E+02  0.00000000000E+00 0.  1.
         23    2    1    2    0    0  0.93725193854E+01 -0.40390421815E+02  0.74473692425E+01  0.10829552474E+03  0.99765861281E+02 0.  0.
         23    2    1    2    0    0 -0.93725193854E+01  0.40390421815E+02  0.39937405933E+03  0.41277363379E+03  0.95724621657E+02 0.  0.
          5    1    3    3  502    0  0.37512101168E+02 -0.59504371486E+01 -0.31053034289E+02  0.49284342086E+02  0.47000000000E+01 0. -1.
         -5    1    3    3    0  502 -0.28139581782E+02 -0.34439984666E+02  0.38500403531E+02  0.59011182659E+02  0.47000000000E+01 0.  1.
          5    1    4    4  503    0 -0.26313964128E+02  0.65608229282E+02  0.31776560545E+03  0.32556709672E+03  0.47000000000E+01 0. -1.
         -5    1    4    4    0  503  0.16941444742E+02 -0.25217807467E+02  0.81608453882E+02  0.87206537073E+02  0.47000000000E+01 0.  1.
<mgrwt>
<rscale>  0 0.10709683E+03</rscale>
<asrwt>0</asrwt>
<pdfrwt beam="1">  1        1 0.71376196E-01 0.10803915E+03</pdfrwt>
<pdfrwt beam="2">  1       -1 0.87882872E-02 0.10803915E+03</pdfrwt>
<totfact> 0.35649440E+03</totfact>
</mgrwt>
</event>
<event>
 8    1  0.2964543E-004  0.9421266E+02  0.7546771E-02  0.1293947E+00
          2   -1    0    0  501    0  0.00000000000E+00  0.00000000000E+00  0.70315288678E+03  0.70315288678E+03  0.00000000000E+00 0. -1.
         -2   -1    0    0    0  501 -0.00000000000E+00 -0.00000000000E+00 -0.13321766097E+02  0.13321766097E+02  0.00000000000E+00 0.  1.
         23    2    1    2    0    0 -0.14503765460E+02  0.32665306223E+01  0.25333691059E+03  0.27028802361E+03  0.93032231013E+02 0.  0.
         23    2    1    2    0    0  0.14503765460E+02 -0.32665306223E+01  0.43649421009E+03  0.44618662926E+03  0.91292295698E+02 0.  0.
          5    1    3    3  502    0 -0.28022711759E+00  0.26180618415E+02  0.23683239067E+03  0.23832157808E+03  0.47000000000E+01 0. -1.
         -5    1    4    4    0  503 -0.35317162129E+02  0.15269228217E+02  0.16430813788E+03  0.16881855776E+03  0.47000000000E+01 0.  1.
          5    1    4    4  503    0  0.49820927589E+02 -0.18535758840E+02  0.27218607221E+03  0.27736807150E+03  0.47000000000E+01 0. -1.
         -5    1    3    3    0  502 -0.14223538343E+02 -0.22914087792E+02  0.16504519920E+02  0.31966445535E+02  0.47000000000E+01 0.  1.
<mgrwt>
<rscale>  0 0.93780261E+02</rscale>
<asrwt>0</asrwt>
<pdfrwt beam="1">  1        2 0.10817734E+00 0.94212661E+02</pdfrwt>
<pdfrwt beam="2">  1       -2 0.20495030E-02 0.94212661E+02</pdfrwt>
<totfact> 0.28248072E+04</totfact>
</mgrwt>
</event>
<event>
 8    1  0.2964543E-004  0.1167789E+03  0.7546771E-02  0.1249839E+00
          1   -1    0    0  501    0  0.00000000000E+00  0.00000000000E+00  0.25393653372E+03  0.25393653372E+03  0.00000000000E+00 0. -1.
         -1   -1    0    0    0  501 -0.00000000000E+00 -0.00000000000E+00 -0.17385818063E+03  0.17385818063E+03  0.00000000000E+00 0.  1.
         23    2    1    2    0    0  0.65897362627E+02  0.29502431867E+02  0.21872731639E+03  0.24651908298E+03  0.87847387278E+02 0.  0.
         23    2    1    2    0    0 -0.65897362627E+02 -0.29502431867E+02 -0.13864896330E+03  0.18127563137E+03  0.91784876844E+02 0.  0.
          5    1    3    3  502    0  0.77820778943E+02  0.80586820310E+01  0.11068063355E+03  0.13562193272E+03  0.47000000000E+01 0. -1.
         -5    1    3    3    0  502 -0.11923416315E+02  0.21443749836E+02  0.10804668284E+03  0.11089715026E+03  0.47000000000E+01 0.  1.
          5    1    4    4  503    0 -0.42557247729E+02  0.26045995733E+02 -0.34436422879E+02  0.60806828964E+02  0.47000000000E+01 0. -1.
         -5    1    4    4    0  503 -0.23340114898E+02 -0.55548427599E+02 -0.10421254042E+03  0.12046880240E+03  0.47000000000E+01 0.  1.
<mgrwt>
<rscale>  0 0.11600408E+03</rscale>
<asrwt>0</asrwt>
<pdfrwt beam="1">  1        1 0.39067159E-01 0.11677893E+03</pdfrwt>
<pdfrwt beam="2">  1       -1 0.26747412E-01 0.11677893E+03</pdfrwt>
<totfact> 0.13213239E+03</totfact>
</mgrwt>
</event>
<event>
 8    1  0.2964543E-004  0.1209392E+03  0.7546771E-02  0.1241650E+00
         -2   -1    0    0    0  501 -0.00000000000E+00  0.00000000000E+00  0.37868476608E+02  0.37868476608E+02  0.00000000000E+00 0. -1.
          2   -1    0    0  501    0  0.00000000000E+00 -0.00000000000E+00 -0.42014451468E+03  0.42014451468E+03  0.00000000000E+00 0.  1.
         23    2    1    2    0    0 -0.72547668236E+02 -0.28304273546E+02 -0.12521569078E+03  0.17392443413E+03  0.92230382752E+02 0.  0.
         23    2    1    2    0    0  0.72547668236E+02  0.28304273546E+02 -0.25706034730E+03  0.28408855716E+03  0.92531022316E+02 0.  0.
          5    1    4    4  502    0  0.76856222263E+02 -0.62370706684E+01 -0.21933972978E+03  0.23254631154E+03  0.47000000000E+01 0. -1.
         -5    1    4    4    0  502 -0.43085540275E+01  0.34541344214E+02 -0.37720617518E+02  0.51542245623E+02  0.47000000000E+01 0.  1.
          5    1    3    3  503    0 -0.38331863005E+02 -0.60406049740E+02 -0.60247621497E+02  0.93648750460E+02  0.47000000000E+01 0. -1.
         -5    1    3    3    0  503 -0.34215805231E+02  0.32101776194E+02 -0.64968069278E+02  0.80275683667E+02  0.47000000000E+01 0.  1.
<mgrwt>
<rscale>  0 0.12088168E+03</rscale>
<asrwt>0</asrwt>
<pdfrwt beam="1">  1        2 0.64637620E-01 0.12093918E+03</pdfrwt>
<pdfrwt beam="2">  1       -2 0.58259193E-02 0.12093918E+03</pdfrwt>
<totfact> 0.11008022E+04</totfact>
</mgrwt>
</event>
<event>
 8    1  0.2964543E-004  0.9647276E+02  0.7546771E-02  0.1289592E+00
         -2   -1    0    0    0  501 -0.00000000000E+00  0.00000000000E+00  0.32040208559E+02  0.32040208559E+02  0.00000000000E+00 0.  1.
          2   -1    0    0  501    0  0.00000000000E+00 -0.00000000000E+00 -0.34746258663E+03  0.34746258663E+03  0.00000000000E+00 0. -1.
         23    2    1    2    0    0 -0.93992664465E+01 -0.17893310741E+02 -0.72967652163E+02  0.11855972147E+03  0.91233834260E+02 0.  0.
         23    2    1    2    0    0  0.93992664465E+01  0.17893310741E+02 -0.24245472591E+03  0.26094307372E+03  0.94331738179E+02 0.  0.
          5    1    3    3  502    0 -0.35863557607E+02  0.24148978041E+02 -0.36012577395E+02  0.56465596918E+02  0.47000000000E+01 0. -1.
         -5    1    3    3    0  502  0.26464291161E+02 -0.42042288782E+02 -0.36955074768E+02  0.62094124551E+02  0.47000000000E+01 0.  1.
          5    1    4    4  503    0 -0.10778166064E+02  0.52884755015E+02 -0.11425798076E+03  0.12645134378E+03  0.47000000000E+01 0. -1.
         -5    1    4    4    0  503  0.20177432510E+02 -0.34991444274E+02 -0.12819674515E+03  0.13449172994E+03  0.47000000000E+01 0.  1.
<mgrwt>
<rscale>  0 0.95706966E+02</rscale>
<asrwt>0</asrwt>
<pdfrwt beam="1">  1        2 0.53455784E-01 0.96472761E+02</pdfrwt>
<pdfrwt beam="2">  1       -2 0.49292627E-02 0.96472761E+02</pdfrwt>
<totfact> 0.16950196E+04</totfact>
</mgrwt>
</event>
<event>
 8    1  0.2964543E-004  0.8585008E+02  0.7546771E-02  0.1316731E+00
         -2   -1    0    0    0  501 -0.00000000000E+00  0.00000000000E+00  0.65952562886E+01  0.65952562886E+01  0.00000000000E+00 0.  1.
          2   -1    0    0  501    0  0.00000000000E+00 -0.00000000000E+00 -0.11107126806E+04  0.11107126806E+04  0.00000000000E+00 0. -1.
         23    2    1    2    0    0 -0.87158722500E+00 -0.49514552005E+01 -0.40521667559E+03  0.41315419431E+03  0.80439775759E+02 0.  0.
         23    2    1    2    0    0  0.87158722500E+00  0.49514552005E+01 -0.69890074871E+03  0.70415374257E+03  0.85702742404E+02 0.  0.
          5    1    3    3  502    0  0.87578950410E+01 -0.41155220067E+02 -0.23704157479E+03  0.24079296303E+03  0.47000000000E+01 0. -1.
         -5    1    4    4    0  503 -0.21558538190E+02  0.38470755653E+02 -0.31384584705E+03  0.31696383913E+03  0.47000000000E+01 0.  1.
          5    1    4    4  503    0  0.22430125415E+02 -0.33519300453E+02 -0.38505490166E+03  0.38718990343E+03  0.47000000000E+01 0. -1.
         -5    1    3    3    0  502 -0.96294822660E+01  0.36203764867E+02 -0.16817510080E+03  0.17236123128E+03  0.47000000000E+01 0.  1.
<mgrwt>
<rscale>  0 0.84505486E+02</rscale>
<asrwt>0</asrwt>
<pdfrwt beam="1">  1        2 0.17087894E+00 0.85850082E+02</pdfrwt>
<pdfrwt beam="2">  1       -2 0.10146544E-02 0.85850082E+02</pdfrwt>
<totfact> 0.42433121E+04</totfact>
</mgrwt>
</event>
<event>
 8    1  0.2964543E-004  0.9631079E+02  0.7546771E-02  0.1290148E+00
          1   -1    0    0  501    0  0.00000000000E+00  0.00000000000E+00  0.54734510265E+02  0.54734510265E+02  0.00000000000E+00 0. -1.
         -1   -1    0    0    0  501 -0.00000000000E+00 -0.00000000000E+00 -0.20080476071E+03  0.20080476071E+03  0.00000000000E+00 0.  1.
         23    2    1    2    0    0  0.12462008688E+02 -0.70138047337E+01 -0.16983435724E+02  0.94482840545E+02  0.91837219857E+02 0.  0.
         23    2    1    2    0    0 -0.12462008688E+02  0.70138047337E+01 -0.12908681472E+03  0.16105643043E+03  0.95243230368E+02 0.  0.
          5    1    4    4  502    0  0.37124686870E+02  0.10260957220E+02 -0.26551262580E+02  0.47016902948E+02  0.47000000000E+01 0. -1.
         -5    1    3    3    0  503  0.55936199100E+01 -0.39335771755E+02  0.19946759930E+02  0.44705198299E+02  0.47000000000E+01 0.  1.
          5    1    3    3  503    0  0.68683887776E+01  0.32321967021E+02 -0.36930195654E+02  0.49777642246E+02  0.47000000000E+01 0. -1.
         -5    1    4    4    0  502 -0.49586695558E+02 -0.32471524860E+01 -0.10253555214E+03  0.11403952748E+03  0.47000000000E+01 0.  1.
<mgrwt>
<rscale>  0 0.95457804E+02</rscale>
<asrwt>0</asrwt>
<pdfrwt beam="1">  1        1 0.84206940E-02 0.96310789E+02</pdfrwt>
<pdfrwt beam="2">  1       -1 0.30893040E-01 0.96310789E+02</pdfrwt>
<totfact> 0.72424843E+03</totfact>
</mgrwt>
</event>
<event>
 8    1  0.2964543E-004  0.1179296E+03  0.7546771E-02  0.1247625E+00
         -1   -1    0    0    0  501 -0.00000000000E+00  0.00000000000E+00  0.14532924038E+02  0.14532924038E+02  0.00000000000E+00 0.  1.
          1   -1    0    0  501    0  0.00000000000E+00 -0.00000000000E+00 -0.96511846796E+03  0.96511846796E+03  0.00000000000E+00 0. -1.
         23    2    1    2    0    0  0.42526527856E+02 -0.58619715871E+02 -0.56435484097E+03  0.57654468898E+03  0.93073171226E+02 0.  0.
         23    2    1    2    0    0 -0.42526527856E+02  0.58619715871E+02 -0.38623070295E+03  0.40310670302E+03  0.89867020958E+02 0.  0.
          5    1    4    4  502    0 -0.29492147727E+02  0.26810058666E+02 -0.35229474864E+03  0.35457332943E+03  0.47000000000E+01 0. -1.
         -5    1    3    3    0  503  0.21623031646E+02  0.86596195628E+01 -0.33827291867E+02  0.41339087842E+02  0.47000000000E+01 0.  1.
          5    1    3    3  503    0  0.20903496210E+02 -0.67279335434E+02 -0.53052754910E+03  0.53520560114E+03  0.47000000000E+01 0. -1.
         -5    1    4    4    0  502 -0.13034380129E+02  0.31809657205E+02 -0.33935954309E+02  0.48533373587E+02  0.47000000000E+01 0.  1.
<mgrwt>
<rscale>  0 0.11729612E+03</rscale>
<asrwt>0</asrwt>
<pdfrwt beam="1">  1        1 0.14847975E+00 0.11792961E+03</pdfrwt>
<pdfrwt beam="2">  1       -1 0.22358347E-02 0.11792961E+03</pdfrwt>
<totfact> 0.94650305E+03</totfact>
</mgrwt>
</event>
<event>
 8    1  0.2964543E-004  0.9248196E+02  0.7546771E-02  0.1298764E+00
          2   -1    0    0  501    0  0.00000000000E+00  0.00000000000E+00  0.27127558840E+03  0.27127558840E+03  0.00000000000E+00 0. -1.
         -2   -1    0    0    0  501 -0.00000000000E+00 -0.00000000000E+00 -0.20562046727E+03  0.20562046727E+03  0.00000000000E+00 0.  1.
         23    2    1    2    0    0 -0.57780710592E+01 -0.21412052055E+02 -0.18714206480E+03  0.20874641393E+03  0.89783354986E+02 0.  0.
         23    2    1    2    0    0  0.57780710592E+01  0.21412052055E+02  0.25279718593E+03  0.26814964174E+03  0.86636892114E+02 0.  0.
          5    1    4    4  502    0 -0.20516216763E+01 -0.22528162273E+02  0.18749139147E+03  0.18890960569E+03  0.47000000000E+01 0. -1.
         -5    1    4    4    0  502  0.78296927355E+01  0.43940214329E+02  0.65305794455E+02  0.79240036049E+02  0.47000000000E+01 0.  1.
          5    1    3    3  503    0 -0.22872312621E+02  0.26615228915E+02 -0.11469937876E+03  0.12003978750E+03  0.47000000000E+01 0. -1.
         -5    1    3    3    0  503  0.17094241562E+02 -0.48027280970E+02 -0.72442686035E+02  0.88706626426E+02  0.47000000000E+01 0.  1.
<mgrwt>
<rscale>  0 0.91709468E+02</rscale>
<asrwt>0</asrwt>
<pdfrwt beam="1">  1        2 0.41734706E-01 0.92481960E+02</pdfrwt>
<pdfrwt beam="2">  1       -2 0.31633918E-01 0.92481960E+02</pdfrwt>
<totfact> 0.11053073E+03</totfact>
</mgrwt>
</event>
<event>
 8    1  0.2964543E-004  0.1973223E+03  0.7546771E-02  0.1152260E+00
          1   -1    0    0  501    0  0.00000000000E+00  0.00000000000E+00  0.95149900504E+03  0.95149900504E+03  0.00000000000E+00 0. -1.
         -1   -1    0    0    0  501 -0.00000000000E+00 -0.00000000000E+00 -0.45176041305E+02  0.45176041305E+02  0.00000000000E+00 0.  1.
         23    2    1    2    0    0 -0.17186346566E+03 -0.20398559040E+02  0.60906334997E+03  0.63988467002E+03  0.92417934469E+02 0.  0.
         23    2    1    2    0    0  0.17186346566E+03  0.20398559040E+02  0.29725961376E+03  0.35679037632E+03  0.94778386880E+02 0.  0.
          5    1    4    4  502    0  0.12726240919E+03  0.56417695948E+02  0.19834435100E+03  0.24236593982E+03  0.47000000000E+01 0. -1.
         -5    1    3    3    0  503 -0.16534867292E+03 -0.41225414630E+02  0.56939036751E+03  0.59436285134E+03  0.47000000000E+01 0.  1.
          5    1    3    3  503    0 -0.65147927478E+01  0.20826855590E+02  0.39672982458E+02  0.45521818674E+02  0.47000000000E+01 0. -1.
         -5    1    4    4    0  502  0.44601056474E+02 -0.36019136908E+02  0.98915262759E+02  0.11442443650E+03  0.47000000000E+01 0.  1.
<mgrwt>
<rscale>  0 0.19704100E+03</rscale>
<asrwt>0</asrwt>
<pdfrwt beam="1">  1        1 0.14638445E+00 0.19732231E+03</pdfrwt>
<pdfrwt beam="2">  1       -1 0.69501609E-02 0.19732231E+03</pdfrwt>
<totfact> 0.18545277E+03</totfact>
</mgrwt>
</event>
<event>
 8    1  0.2964543E-004  0.1093748E+03  0.7546771E-02  0.1263912E+00
         -3   -1    0    0    0  501 -0.00000000000E+00  0.00000000000E+00  0.68275376933E+02  0.68275376933E+02  0.00000000000E+00 0.  1.
          3   -1    0    0  501    0  0.00000000000E+00 -0.00000000000E+00 -0.21309827551E+03  0.21309827551E+03  0.00000000000E+00 0. -1.
         23    2    1    2    0    0  0.41518398576E+02  0.32562882247E+02 -0.13835484768E+03  0.17636584097E+03  0.95805674481E+02 0.  0.
         23    2    1    2    0    0 -0.41518398576E+02 -0.32562882247E+02 -0.64680508905E+01  0.10500781147E+03  0.90557639473E+02 0.  0.
          5    1    3    3  502    0  0.44482570906E+02 -0.24573970645E+02 -0.76653074506E+02  0.92088886295E+02  0.47000000000E+01 0. -1.
         -5    1    4    4    0  503 -0.25936587668E+02  0.29407777595E+02  0.53567739857E+01  0.39853594448E+02  0.47000000000E+01 0.  1.
          5    1    4    4  503    0 -0.15581810908E+02 -0.61970659842E+02 -0.11824824876E+02  0.65154217022E+02  0.47000000000E+01 0. -1.
         -5    1    3    3    0  502 -0.29641723300E+01  0.57136852893E+02 -0.61701773177E+02  0.84276954675E+02  0.47000000000E+01 0.  1.
<mgrwt>
<rscale>  0 0.10821488E+03</rscale>
<asrwt>0</asrwt>
<pdfrwt beam="1">  1        3 0.32784350E-01 0.10937480E+03</pdfrwt>
<pdfrwt beam="2">  1       -3 0.10503904E-01 0.10937480E+03</pdfrwt>
<totfact> 0.13687927E+03</totfact>
</mgrwt>
</event>
<event>
 8    1  0.2964543E-004  0.1592566E+03  0.7546771E-02  0.1189650E+00
          1   -1    0    0  501    0  0.00000000000E+00  0.00000000000E+00  0.24532052340E+03  0.24532052340E+03  0.00000000000E+00 0. -1.
         -1   -1    0    0    0  501 -0.00000000000E+00 -0.00000000000E+00 -0.13812979882E+03  0.13812979882E+03  0.00000000000E+00 0.  1.
         23    2    1    2    0    0 -0.77806119483E+02 -0.10564330472E+03  0.15014980632E+03  0.21887813244E+03  0.90268335874E+02 0.  0.
         23    2    1    2    0    0  0.77806119483E+02  0.10564330472E+03 -0.42959081735E+02  0.16457218978E+03  0.89578026795E+02 0.  0.
          5    1    3    3  502    0 -0.77518312955E+02 -0.75246221804E+02  0.15368549828E+03  0.18791595228E+03  0.47000000000E+01 0. -1.
         -5    1    4    4    0  503  0.49799815449E+02  0.11299965108E+03 -0.51711042981E+02  0.13395919054E+03  0.47000000000E+01 0.  1.
          5    1    4    4  503    0  0.28006304034E+02 -0.73563463540E+01  0.87519612459E+01  0.30612999248E+02  0.47000000000E+01 0. -1.
         -5    1    3    3    0  502 -0.28780652886E+00 -0.30397082921E+02 -0.35356919638E+01  0.30962180161E+02  0.47000000000E+01 0.  1.
<mgrwt>
<rscale>  0 0.15915897E+03</rscale>
<asrwt>0</asrwt>
<pdfrwt beam="1">  1        1 0.37741619E-01 0.15925662E+03</pdfrwt>
<pdfrwt beam="2">  1       -1 0.21250738E-01 0.15925662E+03</pdfrwt>
<totfact> 0.20274304E+03</totfact>
</mgrwt>
</event>
<event>
 8    1  0.2964543E-004  0.1035546E+03  0.7546771E-02  0.1273077E+00
         -1   -1    0    0    0  501 -0.00000000000E+00  0.00000000000E+00  0.47650325087E+02  0.47650325087E+02  0.00000000000E+00 0.  1.
          1   -1    0    0  501    0  0.00000000000E+00 -0.00000000000E+00 -0.22469434488E+03  0.22469434488E+03  0.00000000000E+00 0. -1.
         23    2    1    2    0    0  0.45418117258E+01  0.48435634647E+02 -0.89391432189E+02  0.13680054964E+03  0.91416210136E+02 0.  0.
         23    2    1    2    0    0 -0.45418117258E+01 -0.48435634647E+02 -0.87652587600E+02  0.13554412032E+03  0.91228250470E+02 0.  0.
          5    1    4    4  502    0 -0.26183879531E+02  0.96818480583E+01 -0.62207545939E+02  0.68346195951E+02  0.47000000000E+01 0. -1.
         -5    1    3    3    0  503  0.35417820129E+02  0.18687590067E+02 -0.32341598842E+01  0.40449941846E+02  0.47000000000E+01 0.  1.
          5    1    3    3  503    0 -0.30876008403E+02  0.29748044580E+02 -0.86157272305E+02  0.96350607794E+02  0.47000000000E+01 0. -1.
         -5    1    4    4    0  502  0.21642067805E+02 -0.58117482705E+02 -0.25445041660E+02  0.67197924372E+02  0.47000000000E+01 0.  1.
<mgrwt>
<rscale>  0 0.10351314E+03</rscale>
<asrwt>0</asrwt>
<pdfrwt beam="1">  1        1 0.34568361E-01 0.10355463E+03</pdfrwt>
<pdfrwt beam="2">  1       -1 0.73308192E-02 0.10355463E+03</pdfrwt>
<totfact> 0.11442826E+04</totfact>
</mgrwt>
</event>
<event>
 8    1  0.2964543E-004  0.1410802E+03  0.7546771E-02  0.1212630E+00
         -1   -1    0    0    0  501 -0.00000000000E+00  0.00000000000E+00  0.98960140548E+02  0.98960140548E+02  0.00000000000E+00 0.  1.
          1   -1    0    0  501    0  0.00000000000E+00 -0.00000000000E+00 -0.21096519438E+03  0.21096519438E+03  0.00000000000E+00 0. -1.
         23    2    1    2    0    0  0.87749450517E+02 -0.62166311443E+02 -0.17127315997E+02  0.13990945497E+03  0.87844716932E+02 0.  0.
         23    2    1    2    0    0 -0.87749450517E+02  0.62166311443E+02 -0.94877737838E+02  0.17001587996E+03  0.91318114066E+02 0.  0.
          5    1    3    3  502    0  0.43651258339E+02 -0.56892098340E+02  0.27338874049E+02  0.76887237188E+02  0.47000000000E+01 0.  1.
         -5    1    3    3    0  502  0.44098192178E+02 -0.52742131032E+01 -0.44466190046E+02  0.63022217784E+02  0.47000000000E+01 0. -1.
          5    1    4    4  503    0 -0.47853719293E+02  0.80336946202E+02 -0.80973718485E+02  0.12378544527E+03  0.47000000000E+01 0. -1.
         -5    1    4    4    0  503 -0.39895731224E+02 -0.18170634759E+02 -0.13904019353E+02  0.46230434690E+02  0.47000000000E+01 0.  1.
<mgrwt>
<rscale>  0 0.14052110E+03</rscale>
<asrwt>0</asrwt>
<pdfrwt beam="1">  1        1 0.32456184E-01 0.14108017E+03</pdfrwt>
<pdfrwt beam="2">  1       -1 0.15224637E-01 0.14108017E+03</pdfrwt>
<totfact> 0.41398799E+03</totfact>
</mgrwt>
</event>
<event>
 8    1  0.2964543E-004  0.2040964E+03  0.7546771E-02  0.1146616E+00
         -1   -1    0    0    0  501 -0.00000000000E+00  0.00000000000E+00  0.46697010448E+02  0.46697010448E+02  0.00000000000E+00 0.  1.
          1   -1    0    0  501    0  0.00000000000E+00 -0.00000000000E+00 -0.88792417930E+03  0.88792417930E+03  0.00000000000E+00 0. -1.
         23    2    1    2    0    0  0.17247465248E+03  0.53653477217E+02 -0.44416806141E+03  0.48881550166E+03  0.95021716050E+02 0.  0.
         23    2    1    2    0    0 -0.17247465248E+03 -0.53653477217E+02 -0.39705910745E+03  0.44580568809E+03  0.91981385961E+02 0.  0.
          5    1    3    3  502    0  0.21502003655E+02 -0.37814923362E+01 -0.80790981315E+01  0.23748635162E+02  0.47000000000E+01 0. -1.
         -5    1    3    3    0  502  0.15097264882E+03  0.57434969553E+02 -0.43608896328E+03  0.46506686650E+03  0.47000000000E+01 0.  1.
          5    1    4    4  503    0 -0.16113201779E+03 -0.14717383701E+02 -0.31781828054E+03  0.35666605948E+03  0.47000000000E+01 0. -1.
         -5    1    4    4    0  503 -0.11342634688E+02 -0.38936093516E+02 -0.79240826910E+02  0.89139628614E+02  0.47000000000E+01 0.  1.
<mgrwt>
<rscale>  0 0.20374606E+03</rscale>
<asrwt>0</asrwt>
<pdfrwt beam="1">  1        1 0.13660371E+00 0.20409637E+03</pdfrwt>
<pdfrwt beam="2">  1       -1 0.71841558E-02 0.20409637E+03</pdfrwt>
<totfact> 0.19755052E+03</totfact>
</mgrwt>
</event>
<event>
 8    1  0.2964543E-004  0.1106995E+03  0.7546771E-02  0.1260536E+00
          1   -1    0    0  501    0  0.00000000000E+00  0.00000000000E+00  0.78101526794E+03  0.78101526794E+03  0.00000000000E+00 0. -1.
         -1   -1    0    0    0  501 -0.00000000000E+00 -0.00000000000E+00 -0.17334587921E+02  0.17334587921E+02  0.00000000000E+00 0.  1.
         23    2    1    2    0    0  0.59780144557E+02 -0.17993913734E+02  0.24959027467E+03  0.27303787493E+03  0.91416242119E+02 0.  0.
         23    2    1    2    0    0 -0.59780144557E+02  0.17993913734E+02  0.51409040535E+03  0.52531198093E+03  0.88126533006E+02 0.  0.
          5    1    4    4  502    0 -0.36901719518E+02  0.46098838708E+02  0.18629561540E+03  0.19548653701E+03  0.47000000000E+01 0. -1.
         -5    1    4    4    0  502 -0.22878425039E+02 -0.28104924974E+02  0.32779478995E+03  0.32982544392E+03  0.47000000000E+01 0.  1.
          5    1    3    3  503    0  0.53872686417E+02 -0.37115412816E+02  0.24262219403E+03  0.25133133360E+03  0.47000000000E+01 0. -1.
         -5    1    3    3    0  503  0.59074581396E+01  0.19121499082E+02  0.69680806309E+01  0.21706541330E+02  0.47000000000E+01 0.  1.
<mgrwt>
<rscale>  0 0.11001804E+03</rscale>
<asrwt>0</asrwt>
<pdfrwt beam="1">  1        1 0.12015617E+00 0.11069948E+03</pdfrwt>
<pdfrwt beam="2">  1       -1 0.26668603E-02 0.11069948E+03</pdfrwt>
<totfact> 0.10162099E+04</totfact>
</mgrwt>
</event>
<event>
 8    1  0.2964543E-004  0.9978176E+02  0.7546771E-02  0.1281112E+00
          2   -1    0    0  501    0  0.00000000000E+00  0.00000000000E+00  0.14880277375E+02  0.14880277375E+02  0.00000000000E+00 0. -1.
         -2   -1    0    0    0  501 -0.00000000000E+00 -0.00000000000E+00 -0.76162135369E+03  0.76162135369E+03  0.00000000000E+00 0.  1.
         23    2    1    2    0    0  0.19777501504E+02 -0.36369385429E+02 -0.51084534608E+03  0.52037042439E+03  0.90047371979E+02 0.  0.
         23    2    1    2    0    0 -0.19777501504E+02  0.36369385429E+02 -0.23589573023E+03  0.25613120668E+03  0.90788312743E+02 0.  0.
          5    1    3    3  502    0  0.41075605899E+02  0.11066903715E+01 -0.11602090236E+03  0.12317211514E+03  0.47000000000E+01 0. -1.
         -5    1    3    3    0  502 -0.21298104395E+02 -0.37476075801E+02 -0.39482444372E+03  0.39719830925E+03  0.47000000000E+01 0.  1.
          5    1    4    4  503    0  0.19838068525E+02  0.26260464150E+02 -0.25906833382E+02  0.42147537960E+02  0.47000000000E+01 0. -1.
         -5    1    4    4    0  503 -0.39615570029E+02  0.10108921279E+02 -0.20998889685E+03  0.21398366872E+03  0.47000000000E+01 0.  1.
<mgrwt>
<rscale>  0 0.99612911E+02</rscale>
<asrwt>0</asrwt>
<pdfrwt beam="1">  1        2 0.22892734E-02 0.99781759E+02</pdfrwt>
<pdfrwt beam="2">  1       -2 0.11717252E+00 0.99781759E+02</pdfrwt>
<totfact> 0.24874820E+03</totfact>
</mgrwt>
</event>
<event>
 8    1  0.2964543E-004  0.3532899E+03  0.7546771E-02  0.1061315E+00
         -1   -1    0    0    0  501 -0.00000000000E+00  0.00000000000E+00  0.73623967800E+03  0.73623967800E+03  0.00000000000E+00 0.  1.
          1   -1    0    0  501    0  0.00000000000E+00 -0.00000000000E+00 -0.33960466407E+03  0.33960466407E+03  0.00000000000E+00 0. -1.
         23    2    1    2    0    0  0.11244578337E+03  0.32169277348E+03 -0.18263740268E+03  0.39733844025E+03  0.91603059616E+02 0.  0.
         23    2    1    2    0    0 -0.11244578337E+03 -0.32169277348E+03  0.57927241661E+03  0.67850590182E+03  0.93184931431E+02 0.  0.
          5    1    3    3  502    0  0.39577899417E+02  0.21062796020E+03 -0.14633963317E+03  0.25955332011E+03  0.47000000000E+01 0. -1.
         -5    1    3    3    0  502  0.72867883956E+02  0.11106481328E+03 -0.36297769510E+02  0.13778512014E+03  0.47000000000E+01 0.  1.
          5    1    4    4  503    0  0.71776256638E+01 -0.10157799169E+03  0.14754132710E+03  0.17933248425E+03  0.47000000000E+01 0. -1.
         -5    1    4    4    0  503 -0.11962340904E+03 -0.22011478179E+03  0.43173108951E+03  0.49917341756E+03  0.47000000000E+01 0.  1.
<mgrwt>
<rscale>  0 0.35318633E+03</rscale>
<asrwt>0</asrwt>
<pdfrwt beam="1">  1        1 0.52246872E-01 0.35328986E+03</pdfrwt>
<pdfrwt beam="2">  1       -1 0.11326764E+00 0.35328986E+03</pdfrwt>
<totfact> 0.56505089E+01</totfact>
</mgrwt>
</event>
<event>
 8    1  0.2964543E-004  0.9619799E+02  0.7546771E-02  0.1290006E+00
         -2   -1    0    0    0  501 -0.00000000000E+00  0.00000000000E+00  0.41155114581E+03  0.41155114581E+03  0.00000000000E+00 0.  1.
          2   -1    0    0  501    0  0.00000000000E+00 -0.00000000000E+00 -0.47257918884E+02  0.47257918884E+02  0.00000000000E+00 0. -1.
         23    2    1    2    0    0 -0.28336918382E+02  0.73403289443E+01  0.12802653962E+02  0.94392165601E+02  0.88820671051E+02 0.  0.
         23    2    1    2    0    0  0.28336918382E+02 -0.73403289443E+01  0.35149057296E+03  0.36441689909E+03  0.91636194212E+02 0.  0.
          5    1    4    4  502    0  0.12276353102E+02  0.22686076889E+02  0.25351467323E+02  0.36471273977E+02  0.47000000000E+01 0. -1.
         -5    1    3    3    0  503 -0.13132783882E+02 -0.17260974566E+02  0.45417309107E+02  0.50549314753E+02  0.47000000000E+01 0.  1.
          5    1    3    3  503    0 -0.15204134500E+02  0.24601303510E+02 -0.32614655145E+02  0.43842850848E+02  0.47000000000E+01 0. -1.
         -5    1    4    4    0  502  0.16060565280E+02 -0.30026405833E+02  0.32613910564E+03  0.32794562511E+03  0.47000000000E+01 0.  1.
<mgrwt>
<rscale>  0 0.95521365E+02</rscale>
<asrwt>0</asrwt>
<pdfrwt beam="1">  1        2 0.72704493E-02 0.96197991E+02</pdfrwt>
<pdfrwt beam="2">  1       -2 0.63315558E-01 0.96197991E+02</pdfrwt>
<totfact> 0.21407497E+03</totfact>
</mgrwt>
</event>
<event>
 8    1  0.2964543E-004  0.1190988E+03  0.7546771E-02  0.1244612E+00
         -2   -1    0    0    0  501 -0.00000000000E+00  0.00000000000E+00  0.37069650919E+02  0.37069650919E+02  0.00000000000E+00 0.  1.
          2   -1    0    0  501    0  0.00000000000E+00 -0.00000000000E+00 -0.48143757147E+03  0.48143757147E+03  0.00000000000E+00 0. -1.
         23    2    1    2    0    0  0.63767782445E+02 -0.47505606787E+02 -0.33968290748E+03  0.35994024910E+03  0.88596797565E+02 0.  0.
         23    2    1    2    0    0 -0.63767782445E+02  0.47505606787E+02 -0.10468501307E+03  0.15856697328E+03  0.88664650794E+02 0.  0.
          5    1    4    4  502    0 -0.65168333481E+02 -0.34468345579E+01 -0.74458224716E+02  0.99120681923E+02  0.47000000000E+01 0. -1.
         -5    1    3    3    0  503  0.62418404013E+02 -0.24308560735E+02 -0.10886936889E+03  0.12791244180E+03  0.47000000000E+01 0.  1.
          5    1    3    3  503    0  0.13493784320E+01 -0.23197046052E+02 -0.23081353858E+03  0.23202780730E+03  0.47000000000E+01 0. -1.
         -5    1    4    4    0  502  0.14005510362E+01  0.50952441345E+02 -0.30226788356E+02  0.59446291361E+02  0.47000000000E+01 0.  1.
<mgrwt>
<rscale>  0 0.11908621E+03</rscale>
<asrwt>0</asrwt>
<pdfrwt beam="1">  1        2 0.74067317E-01 0.11909884E+03</pdfrwt>
<pdfrwt beam="2">  1       -2 0.57030233E-02 0.11909884E+03</pdfrwt>
<totfact> 0.98057830E+03</totfact>
</mgrwt>
</event>
<event>
 8    1  0.2964543E-004  0.9546514E+02  0.7546771E-02  0.1291198E+00
         -1   -1    0    0    0  501 -0.00000000000E+00  0.00000000000E+00  0.31538855334E+03  0.31538855334E+03  0.00000000000E+00 0.  1.
          1   -1    0    0  501    0  0.00000000000E+00 -0.00000000000E+00 -0.31380369229E+02  0.31380369229E+02  0.00000000000E+00 0. -1.
         23    2    1    2    0    0 -0.27709138728E+02 -0.13603687159E+02  0.19734952688E+03  0.21922688876E+03  0.90336793858E+02 0.  0.
         23    2    1    2    0    0  0.27709138728E+02  0.13603687159E+02  0.86658657238E+02  0.12754203381E+03  0.88342463407E+02 0.  0.
          5    1    4    4  502    0  0.36597042077E+02 -0.27303596174E+02  0.23348731979E+02  0.51498379954E+02  0.47000000000E+01 0. -1.
         -5    1    4    4    0  502 -0.88879033483E+01  0.40907283334E+02  0.63309925258E+02  0.76043653857E+02  0.47000000000E+01 0.  1.
          5    1    3    3  503    0 -0.13064410064E+02 -0.44506138948E+02  0.52021005815E+02  0.69855209257E+02  0.47000000000E+01 0. -1.
         -5    1    3    3    0  503 -0.14644728665E+02  0.30902451788E+02  0.14532852106E+03  0.14937167951E+03  0.47000000000E+01 0.  1.
<mgrwt>
<rscale>  0 0.94990367E+02</rscale>
<asrwt>0</asrwt>
<pdfrwt beam="1">  1        1 0.48277493E-02 0.95465140E+02</pdfrwt>
<pdfrwt beam="2">  1       -1 0.48521314E-01 0.95465140E+02</pdfrwt>
<totfact> 0.69846892E+03</totfact>
</mgrwt>
</event>
<event>
 8    1  0.2964543E-004  0.9796751E+02  0.7546771E-02  0.1285006E+00
          1   -1    0    0  501    0  0.00000000000E+00  0.00000000000E+00  0.64069063493E+03  0.64069063493E+03  0.00000000000E+00 0. -1.
         -1   -1    0    0    0  501 -0.00000000000E+00 -0.00000000000E+00 -0.15180797724E+02  0.15180797724E+02  0.00000000000E+00 0.  1.
         23    2    1    2    0    0  0.14939011873E+02  0.28607417075E+02  0.26722120116E+03  0.28461342943E+03  0.92499056605E+02 0.  0.
         23    2    1    2    0    0 -0.14939011873E+02 -0.28607417075E+02  0.35828863605E+03  0.37125800323E+03  0.91761646967E+02 0.  0.
          5    1    3    3  502    0  0.27502160536E+02  0.54183391402E+02  0.22738007604E+03  0.23540602737E+03  0.47000000000E+01 0. -1.
         -5    1    3    3    0  502 -0.12563148664E+02 -0.25575974327E+02  0.39841125117E+02  0.49207402062E+02  0.47000000000E+01 0.  1.
          5    1    4    4  503    0  0.20446681601E+02 -0.35041505478E+02  0.29883774198E+03  0.30161574880E+03  0.47000000000E+01 0. -1.
         -5    1    4    4    0  503 -0.35385693474E+02  0.64340884031E+01  0.59450894071E+02  0.69642254430E+02  0.47000000000E+01 0.  1.
<mgrwt>
<rscale>  0 0.97793063E+02</rscale>
<asrwt>0</asrwt>
<pdfrwt beam="1">  1        1 0.98567769E-01 0.97967514E+02</pdfrwt>
<pdfrwt beam="2">  1       -1 0.23355078E-02 0.97967514E+02</pdfrwt>
<totfact> 0.16142280E+04</totfact>
</mgrwt>
</event>
<event>
 8    1  0.2964543E-004  0.9684920E+02  0.7546771E-02  0.1287811E+00
          1   -1    0    0  501    0  0.00000000000E+00  0.00000000000E+00  0.12638539799E+04  0.12638539799E+04  0.00000000000E+00 0. -1.
         -1   -1    0    0    0  501 -0.00000000000E+00 -0.00000000000E+00 -0.74183781322E+01  0.74183781322E+01  0.00000000000E+00 0.  1.
         23    2    1    2    0    0  0.16885396852E+02 -0.18565085100E+02  0.55879586570E+03  0.56712660552E+03  0.93541371366E+02 0.  0.
         23    2    1    2    0    0 -0.16885396852E+02  0.18565085100E+02  0.69763973604E+03  0.70414575248E+03  0.92142609165E+02 0.  0.
          5    1    3    3  502    0  0.52523571932E+02  0.47132309295E+01  0.35025458589E+03  0.35423340482E+03  0.47000000000E+01 0. -1.
         -5    1    4    4    0  503 -0.25799654805E+02  0.52478362783E+02  0.49194058321E+03  0.49542630951E+03  0.47000000000E+01 0.  1.
          5    1    4    4  503    0  0.89142579525E+01 -0.33913277684E+02  0.20569915283E+03  0.20871944297E+03  0.47000000000E+01 0. -1.
         -5    1    3    3    0  502 -0.35638175080E+02 -0.23278316029E+02  0.20854127981E+03  0.21289320070E+03  0.47000000000E+01 0.  1.
<mgrwt>
<rscale>  0 0.96509843E+02</rscale>
<asrwt>0</asrwt>
<pdfrwt beam="1">  1        1 0.19443890E+00 0.96849198E+02</pdfrwt>
<pdfrwt beam="2">  1       -1 0.11412899E-02 0.96849198E+02</pdfrwt>
<totfact> 0.15105772E+04</totfact>
</mgrwt>
</event>
<event>
 8    1  0.2964543E-004  0.1231551E+03  0.7546771E-02  0.1238715E+00
          2   -1    0    0  501    0  0.00000000000E+00  0.00000000000E+00  0.60166254502E+02  0.60166254502E+02  0.00000000000E+00 0. -1.
         -2   -1    0    0    0  501 -0.00000000000E+00 -0.00000000000E+00 -0.36693097321E+03  0.36693097321E+03  0.00000000000E+00 0.  1.
         23    2    1    2    0    0 -0.72819567973E+02  0.32930124093E+02 -0.27399589186E+03  0.29965713210E+03  0.91288364598E+02 0.  0.
         23    2    1    2    0    0  0.72819567973E+02 -0.32930124093E+02 -0.32768826854E+02  0.12744009562E+03  0.93702184631E+02 0.  0.
          5    1    4    4  502    0  0.32824903144E+02 -0.63039474584E+02 -0.29361891360E+02  0.77043236474E+02  0.47000000000E+01 0. -1.
         -5    1    3    3    0  503 -0.70605178619E+02  0.58769609609E+02 -0.23707122453E+03  0.25429080550E+03  0.47000000000E+01 0.  1.
          5    1    3    3  503    0 -0.22143893539E+01 -0.25839485516E+02 -0.36924667327E+02  0.45366326600E+02  0.47000000000E+01 0. -1.
         -5    1    4    4    0  502  0.39994664829E+02  0.30109350491E+02 -0.34069354940E+01  0.50396859141E+02  0.47000000000E+01 0.  1.
<mgrwt>
<rscale>  0 0.12269594E+03</rscale>
<asrwt>0</asrwt>
<pdfrwt beam="1">  1        2 0.92563467E-02 0.12315511E+03</pdfrwt>
<pdfrwt beam="2">  1       -2 0.56450920E-01 0.12315511E+03</pdfrwt>
<totfact> 0.20347752E+03</totfact>
</mgrwt>
</event>
<event>
 8    1  0.2964543E-004  0.1067644E+03  0.7546771E-02  0.1267810E+00
         -1   -1    0    0    0  501 -0.00000000000E+00  0.00000000000E+00  0.50394121443E+02  0.50394121443E+02  0.00000000000E+00 0.  1.
          1   -1    0    0  501    0  0.00000000000E+00 -0.00000000000E+00 -0.49475911809E+03  0.49475911809E+03  0.00000000000E+00 0. -1.
         23    2    1    2    0    0  0.23940887464E+02  0.47699519679E+02 -0.18457296942E+02  0.10606783031E+03  0.89784756753E+02 0.  0.
         23    2    1    2    0    0 -0.23940887464E+02 -0.47699519679E+02 -0.42590769971E+03  0.43908540923E+03  0.92467386994E+02 0.  0.
          5    1    4    4  502    0  0.27686308046E+02 -0.15526185596E+02 -0.26608147695E+03  0.26800939623E+03  0.47000000000E+01 0. -1.
         -5    1    3    3    0  503 -0.11560408023E+02  0.63801429092E+02 -0.85289072218E+01  0.65567504499E+02  0.47000000000E+01 0.  1.
          5    1    3    3  503    0  0.35501295487E+02 -0.16101909413E+02 -0.99283897199E+01  0.40500325806E+02  0.47000000000E+01 0. -1.
         -5    1    4    4    0  502 -0.51627195510E+02 -0.32173334083E+02 -0.15982622276E+03  0.17107601300E+03  0.47000000000E+01 0.  1.
<mgrwt>
<rscale>  0 0.10618089E+03</rscale>
<asrwt>0</asrwt>
<pdfrwt beam="1">  1        1 0.76116792E-01 0.10676436E+03</pdfrwt>
<pdfrwt beam="2">  1       -1 0.77529413E-02 0.10676436E+03</pdfrwt>
<totfact> 0.39600469E+03</totfact>
</mgrwt>
</event>
<event>
 8    1  0.2964543E-004  0.1020192E+03  0.7546771E-02  0.1280392E+00
         -2   -1    0    0    0  501 -0.00000000000E+00  0.00000000000E+00  0.23335963551E+02  0.23335963551E+02  0.00000000000E+00 0.  1.
          2   -1    0    0  501    0  0.00000000000E+00 -0.00000000000E+00 -0.41488240809E+03  0.41488240809E+03  0.00000000000E+00 0. -1.
         23    2    1    2    0    0 -0.39827979526E+00  0.46674282395E+02 -0.22299028883E+03  0.24521946727E+03  0.90715329179E+02 0.  0.
         23    2    1    2    0    0  0.39827979526E+00 -0.46674282395E+02 -0.16855615570E+03  0.19299890437E+03  0.81601177689E+02 0.  0.
          5    1    3    3  502    0  0.27719343507E+02  0.43030722079E+02 -0.20492602405E+03  0.21127415928E+03  0.47000000000E+01 0. -1.
         -5    1    3    3    0  502 -0.28117623302E+02  0.36435603159E+01 -0.18064264782E+02  0.33945307982E+02  0.47000000000E+01 0.  1.
          5    1    4    4  503    0 -0.39016931047E+02 -0.16955935694E+02 -0.96090541694E+02  0.10519176235E+03  0.47000000000E+01 0. -1.
         -5    1    4    4    0  503  0.39415210842E+02 -0.29718346701E+02 -0.72465614008E+02  0.87807142021E+02  0.47000000000E+01 0.  1.
<mgrwt>
<rscale>  0 0.99954422E+02</rscale>
<asrwt>0</asrwt>
<pdfrwt beam="1">  1        2 0.63828061E-01 0.10201921E+03</pdfrwt>
<pdfrwt beam="2">  1       -2 0.35901483E-02 0.10201921E+03</pdfrwt>
<totfact> 0.22583117E+04</totfact>
</mgrwt>
</event>
<event>
 8    1  0.2964543E-004  0.9521727E+02  0.7546771E-02  0.1291652E+00
          1   -1    0    0  501    0  0.00000000000E+00  0.00000000000E+00  0.25029986269E+02  0.25029986269E+02  0.00000000000E+00 0. -1.
         -1   -1    0    0    0  501 -0.00000000000E+00 -0.00000000000E+00 -0.37579853663E+03  0.37579853663E+03  0.00000000000E+00 0.  1.
         23    2    1    2    0    0 -0.23334973688E+02  0.32426884199E+01 -0.22014816594E+03  0.23918690341E+03  0.90499302595E+02 0.  0.
         23    2    1    2    0    0  0.23334973688E+02 -0.32426884199E+01 -0.13062038442E+03  0.16164161949E+03  0.92256665343E+02 0.  0.
          5    1    3    3  502    0 -0.25967075123E+02 -0.21728115882E+02 -0.24939592313E+02  0.42313984390E+02  0.47000000000E+01 0. -1.
         -5    1    4    4    0  503  0.46097061197E+02 -0.26597890219E+02 -0.44838601210E+02  0.69749386905E+02  0.47000000000E+01 0.  1.
          5    1    4    4  503    0 -0.22762087509E+02  0.23355201799E+02 -0.85781783213E+02  0.91892232588E+02  0.47000000000E+01 0. -1.
         -5    1    3    3    0  502  0.26321014349E+01  0.24970804302E+02 -0.19520857362E+03  0.19687291902E+03  0.47000000000E+01 0.  1.
<mgrwt>
<rscale>  0 0.94788960E+02</rscale>
<asrwt>0</asrwt>
<pdfrwt beam="1">  1        1 0.38507670E-02 0.95217269E+02</pdfrwt>
<pdfrwt beam="2">  1       -1 0.57815161E-01 0.95217269E+02</pdfrwt>
<totfact> 0.68890434E+03</totfact>
</mgrwt>
</event>
<event>
 8    1  0.2964543E-004  0.1091901E+03  0.7546771E-02  0.1262835E+00
         -1   -1    0    0    0  501 -0.00000000000E+00  0.00000000000E+00  0.25700766891E+03  0.25700766891E+03  0.00000000000E+00 0.  1.
          1   -1    0    0  501    0  0.00000000000E+00 -0.00000000000E+00 -0.16741870236E+03  0.16741870236E+03  0.00000000000E+00 0. -1.
         23    2    1    2    0    0 -0.24612398114E+01 -0.59024258778E+02 -0.13605302080E+03  0.17445028200E+03  0.91828947484E+02 0.  0.
         23    2    1    2    0    0  0.24612398114E+01  0.59024258778E+02  0.22564198735E+03  0.24997608928E+03  0.89910054653E+02 0.  0.
          5    1    4    4  502    0  0.25598612264E+01  0.23919144243E+02  0.31843876558E+01  0.24716566824E+02  0.47000000000E+01 0. -1.
         -5    1    4    4    0  502 -0.98621415068E-01  0.35105114535E+02  0.22245759970E+03  0.22525952245E+03  0.47000000000E+01 0.  1.
          5    1    3    3  503    0  0.39515358972E+02 -0.95699358164E+01 -0.73971078526E+02  0.84539089920E+02  0.47000000000E+01 0. -1.
         -5    1    3    3    0  503 -0.41976598783E+02 -0.49454322962E+02 -0.62081942273E+02  0.89911192081E+02  0.47000000000E+01 0.  1.
<mgrwt>
<rscale>  0 0.10878566E+03</rscale>
<asrwt>0</asrwt>
<pdfrwt beam="1">  1        1 0.25756723E-01 0.10919009E+03</pdfrwt>
<pdfrwt beam="2">  1       -1 0.39539642E-01 0.10919009E+03</pdfrwt>
<totfact> 0.11393194E+03</totfact>
</mgrwt>
</event>
<event>
 8    1  0.2964543E-004  0.9532023E+02  0.7546771E-02  0.1290828E+00
         -1   -1    0    0    0  501 -0.00000000000E+00  0.00000000000E+00  0.91915028616E+02  0.91915028616E+02  0.00000000000E+00 0.  1.
          1   -1    0    0  501    0  0.00000000000E+00 -0.00000000000E+00 -0.23618461074E+03  0.23618461074E+03  0.00000000000E+00 0. -1.
         23    2    1    2    0    0 -0.98038143055E+01 -0.21559468063E+02  0.53374732270E+02  0.10867033153E+03  0.91648532295E+02 0.  0.
         23    2    1    2    0    0  0.98038143055E+01  0.21559468063E+02 -0.19764431440E+03  0.21942930783E+03  0.92331038567E+02 0.  0.
          5    1    3    3  502    0  0.24187029737E+01  0.22638697403E+02 -0.13923483220E+02  0.27098231108E+02  0.47000000000E+01 0. -1.
         -5    1    4    4    0  503 -0.13784876773E+02 -0.23609523252E+02 -0.19058837458E+02  0.33656525386E+02  0.47000000000E+01 0.  1.
          5    1    4    4  503    0  0.23588691078E+02  0.45168991315E+02 -0.17858547694E+03  0.18577278244E+03  0.47000000000E+01 0. -1.
         -5    1    3    3    0  502 -0.12222517279E+02 -0.44198165466E+02  0.67298215490E+02  0.81572100423E+02  0.47000000000E+01 0.  1.
<mgrwt>
<rscale>  0 0.95154560E+02</rscale>
<asrwt>0</asrwt>
<pdfrwt beam="1">  1        1 0.36336094E-01 0.95320229E+02</pdfrwt>
<pdfrwt beam="2">  1       -1 0.14140774E-01 0.95320229E+02</pdfrwt>
<totfact> 0.39506041E+03</totfact>
</mgrwt>
</event>
<event>
 8    1  0.2964543E-004  0.1000312E+03  0.7546771E-02  0.1281470E+00
         -1   -1    0    0    0  501 -0.00000000000E+00  0.00000000000E+00  0.14356631367E+03  0.14356631367E+03  0.00000000000E+00 0.  1.
          1   -1    0    0  501    0  0.00000000000E+00 -0.00000000000E+00 -0.10163644893E+03  0.10163644893E+03  0.00000000000E+00 0. -1.
         23    2    1    2    0    0  0.20285955283E+02  0.24653186518E+02  0.91568500457E+02  0.13561352012E+03  0.94799456627E+02 0.  0.
         23    2    1    2    0    0 -0.20285955283E+02 -0.24653186518E+02 -0.49638635716E+02  0.10958924247E+03  0.92339094229E+02 0.  0.
          5    1    4    4  502    0  0.21574281521E+02 -0.45429721660E+02 -0.22021023634E+02  0.55102855780E+02  0.47000000000E+01 0. -1.
         -5    1    4    4    0  502 -0.41860236804E+02  0.20776535141E+02 -0.27617612082E+02  0.54486386693E+02  0.47000000000E+01 0.  1.
          5    1    3    3  503    0 -0.15528139138E+02 -0.26524120160E+02  0.97825720227E+01  0.32595103478E+02  0.47000000000E+01 0. -1.
         -5    1    3    3    0  503  0.35814094422E+02  0.51177306678E+02  0.81785928434E+02  0.10301841664E+03  0.47000000000E+01 0.  1.
<mgrwt>
<rscale>  0 0.99443894E+02</rscale>
<asrwt>0</asrwt>
<pdfrwt beam="1">  1        1 0.15636377E-01 0.10003118E+03</pdfrwt>
<pdfrwt beam="2">  1       -1 0.22087125E-01 0.10003118E+03</pdfrwt>
<totfact> 0.56211491E+03</totfact>
</mgrwt>
</event>
<event>
 8    1  0.2964543E-004  0.1066765E+03  0.7546771E-02  0.1268249E+00
         -2   -1    0    0    0  501 -0.00000000000E+00  0.00000000000E+00  0.42718598690E+02  0.42718598690E+02  0.00000000000E+00 0.  1.
          2   -1    0    0  501    0  0.00000000000E+00 -0.00000000000E+00 -0.30209959431E+03  0.30209959431E+03  0.00000000000E+00 0. -1.
         23    2    1    2    0    0 -0.41185535870E+02 -0.26695316597E+02 -0.63297346891E+02  0.12159482598E+03  0.91486935069E+02 0.  0.
         23    2    1    2    0    0  0.41185535870E+02  0.26695316597E+02 -0.19608364873E+03  0.22322336702E+03  0.94715289115E+02 0.  0.
          5    1    3    3  502    0  0.28773179038E+02 -0.60208766751E+01 -0.11103121105E+02  0.31772882875E+02  0.47000000000E+01 0. -1.
         -5    1    3    3    0  502 -0.69958714908E+02 -0.20674439921E+02 -0.52194225786E+02  0.89821943105E+02  0.47000000000E+01 0.  1.
          5    1    4    4  503    0  0.24816957035E+02  0.27831078637E+00 -0.18941670030E+03  0.19109352465E+03  0.47000000000E+01 0. -1.
         -5    1    4    4    0  503  0.16368578835E+02  0.26417005810E+02 -0.66669484307E+01  0.32129842365E+02  0.47000000000E+01 0.  1.
<mgrwt>
<rscale>  0 0.10595528E+03</rscale>
<asrwt>0</asrwt>
<pdfrwt beam="1">  1        2 0.46476861E-01 0.10667649E+03</pdfrwt>
<pdfrwt beam="2">  1       -2 0.65720921E-02 0.10667649E+03</pdfrwt>
<totfact> 0.12869013E+04</totfact>
</mgrwt>
</event>
<event>
 8    1  0.2964543E-004  0.1088320E+03  0.7546771E-02  0.1262899E+00
          2   -1    0    0  501    0  0.00000000000E+00  0.00000000000E+00  0.68705047861E+03  0.68705047861E+03  0.00000000000E+00 0. -1.
         -2   -1    0    0    0  501 -0.00000000000E+00 -0.00000000000E+00 -0.19209612145E+02  0.19209612145E+02  0.00000000000E+00 0.  1.
         23    2    1    2    0    0 -0.27215902586E+02  0.52432280850E+02  0.21982255899E+03  0.24528831535E+03  0.91403231767E+02 0.  0.
         23    2    1    2    0    0  0.27215902586E+02 -0.52432280850E+02  0.44801830748E+03  0.46097177541E+03  0.91020461758E+02 0.  0.
          5    1    4    4  502    0  0.37159531809E+02  0.10950987410E+02  0.24252017605E+03  0.24563973767E+03  0.47000000000E+01 0. -1.
         -5    1    3    3    0  503 -0.51347073122E+02  0.78384556369E+01  0.71734746626E+02  0.88690062456E+02  0.47000000000E+01 0.  1.
          5    1    3    3  503    0  0.24131170536E+02  0.44593825213E+02  0.14808781236E+03  0.15659825289E+03  0.47000000000E+01 0. -1.
         -5    1    4    4    0  502 -0.99436292230E+01 -0.63383268260E+02  0.20549813143E+03  0.21533203774E+03  0.47000000000E+01 0.  1.
<mgrwt>
<rscale>  0 0.10875157E+03</rscale>
<asrwt>0</asrwt>
<pdfrwt beam="1">  1        2 0.10570005E+00 0.10883198E+03</pdfrwt>
<pdfrwt beam="2">  1       -2 0.29553255E-02 0.10883198E+03</pdfrwt>
<totfact> 0.17306822E+04</totfact>
</mgrwt>
</event>
<event>
 8    1  0.2964543E-004  0.9510788E+02  0.7546771E-02  0.1293571E+00
         -1   -1    0    0    0  501 -0.00000000000E+00  0.00000000000E+00  0.14505826512E+03  0.14505826512E+03  0.00000000000E+00 0.  1.
          1   -1    0    0  501    0  0.00000000000E+00 -0.00000000000E+00 -0.26052106833E+03  0.26052106833E+03  0.00000000000E+00 0. -1.
         23    2    1    2    0    0  0.16968026620E+02 -0.17061485615E+02  0.12075867342E+03  0.15093036882E+03  0.87282935379E+02 0.  0.
         23    2    1    2    0    0 -0.16968026620E+02  0.17061485615E+02 -0.23622147663E+03  0.25464896462E+03  0.92013591088E+02 0.  0.
          5    1    4    4  502    0 -0.37694346906E+02  0.42936142630E+02 -0.18301163559E+03  0.19178040800E+03  0.47000000000E+01 0. -1.
         -5    1    4    4    0  502  0.20726320287E+02 -0.25874657015E+02 -0.53209841038E+02  0.62868556620E+02  0.47000000000E+01 0.  1.
          5    1    3    3  503    0  0.51942573729E+02 -0.17589477692E+02  0.68563941074E+02  0.87923402497E+02  0.47000000000E+01 0. -1.
         -5    1    3    3    0  503 -0.34974547109E+02  0.52799207701E+00  0.52194732343E+02  0.63006966325E+02  0.47000000000E+01 0.  1.
<mgrwt>
<rscale>  0 0.93944500E+02</rscale>
<asrwt>0</asrwt>
<pdfrwt beam="1">  1        1 0.40080164E-01 0.95107882E+02</pdfrwt>
<pdfrwt beam="2">  1       -1 0.22316656E-01 0.95107882E+02</pdfrwt>
<totfact> 0.17081788E+03</totfact>
</mgrwt>
</event>
<event>
 8    1  0.2964543E-004  0.1169752E+03  0.7546771E-02  0.1251984E+00
         -1   -1    0    0    0  501 -0.00000000000E+00  0.00000000000E+00  0.76980760770E+02  0.76980760770E+02  0.00000000000E+00 0.  1.
          1   -1    0    0  501    0  0.00000000000E+00 -0.00000000000E+00 -0.26094562876E+03  0.26094562876E+03  0.00000000000E+00 0. -1.
         23    2    1    2    0    0 -0.33950920272E+02  0.49818275263E+02  0.12660997519E+02  0.10913627328E+03  0.90088288638E+02 0.  0.
         23    2    1    2    0    0  0.33950920272E+02 -0.49818275263E+02 -0.19662586551E+03  0.22879011625E+03  0.10024300858E+03 0.  0.
          5    1    3    3  502    0  0.10309178780E+02  0.26091863079E+02 -0.31253067794E+02  0.42260013400E+02  0.47000000000E+01 0. -1.
         -5    1    4    4    0  503  0.25349491561E+02 -0.23288666062E+02 -0.50143894629E+01  0.35102603765E+02  0.47000000000E+01 0.  1.
          5    1    4    4  503    0  0.86014287109E+01 -0.26529609200E+02 -0.19161147604E+03  0.19368751248E+03  0.47000000000E+01 0. -1.
         -5    1    3    3    0  502 -0.44260099052E+02  0.23726412184E+02  0.43914065313E+02  0.66876259880E+02  0.47000000000E+01 0.  1.
<mgrwt>
<rscale>  0 0.11476961E+03</rscale>
<asrwt>0</asrwt>
<pdfrwt beam="1">  1        1 0.40145483E-01 0.11697515E+03</pdfrwt>
<pdfrwt beam="2">  1       -1 0.11843194E-01 0.11697515E+03</pdfrwt>
<totfact> 0.46513249E+03</totfact>
</mgrwt>
</event>
<event>
 8    1  0.2964543E-004  0.1052544E+03  0.7546771E-02  0.1270842E+00
         -2   -1    0    0    0  501 -0.00000000000E+00  0.00000000000E+00  0.23305845375E+02  0.23305845375E+02  0.00000000000E+00 0.  1.
          2   -1    0    0  501    0  0.00000000000E+00 -0.00000000000E+00 -0.64718659976E+03  0.64718659976E+03  0.00000000000E+00 0. -1.
         23    2    1    2    0    0  0.34678491890E+00 -0.51406767425E+02 -0.48749307145E+03  0.49821336938E+03  0.89018485301E+02 0.  0.
         23    2    1    2    0    0 -0.34678491890E+00  0.51406767425E+02 -0.13638768294E+03  0.17227907576E+03  0.91846088041E+02 0.  0.
          5    1    4    4  502    0 -0.40081865226E+02  0.31289453809E+00 -0.52131971684E+02  0.65927887079E+02  0.47000000000E+01 0. -1.
         -5    1    4    4    0  502  0.39735080308E+02  0.51093872887E+02 -0.84255711258E+02  0.10635118868E+03  0.47000000000E+01 0.  1.
          5    1    3    3  503    0 -0.24248728772E+02 -0.55203227148E+02 -0.44223190851E+03  0.44634801225E+03  0.47000000000E+01 0. -1.
         -5    1    3    3    0  503  0.24595513691E+02  0.37964597233E+01 -0.45261162942E+02  0.51865357137E+02  0.47000000000E+01 0.  1.
<mgrwt>
<rscale>  0 0.10463437E+03</rscale>
<asrwt>0</asrwt>
<pdfrwt beam="1">  1        2 0.99567155E-01 0.10525436E+03</pdfrwt>
<pdfrwt beam="2">  1       -2 0.35855152E-02 0.10525436E+03</pdfrwt>
<totfact> 0.13934955E+04</totfact>
</mgrwt>
</event>
<event>
 8    1  0.2964543E-004  0.9201656E+02  0.7546771E-02  0.1298076E+00
          2   -1    0    0  501    0  0.00000000000E+00  0.00000000000E+00  0.21090726868E+02  0.21090726868E+02  0.00000000000E+00 0. -1.
         -2   -1    0    0    0  501 -0.00000000000E+00 -0.00000000000E+00 -0.41493411285E+03  0.41493411285E+03  0.00000000000E+00 0.  1.
         23    2    1    2    0    0  0.52386490201E+00  0.14961502782E+02 -0.15731616275E+03  0.18225098556E+03  0.90790559387E+02 0.  0.
         23    2    1    2    0    0 -0.52386490201E+00 -0.14961502782E+02 -0.23652722324E+03  0.25377385417E+03  0.90729932912E+02 0.  0.
          5    1    3    3  502    0 -0.30023309021E+02  0.34505566903E+01 -0.11377252415E+02  0.32631844854E+02  0.47000000000E+01 0. -1.
         -5    1    3    3    0  502  0.30547173923E+02  0.11510946091E+02 -0.14593891034E+03  0.14961914070E+03  0.47000000000E+01 0.  1.
          5    1    4    4  503    0  0.23662191758E+02 -0.46149488101E+02 -0.14093474261E+03  0.15024768299E+03  0.47000000000E+01 0. -1.
         -5    1    4    4    0  503 -0.24186056660E+02  0.31187985319E+02 -0.95592480631E+02  0.10352617117E+03  0.47000000000E+01 0.  1.
<mgrwt>
<rscale>  0 0.92001598E+02</rscale>
<asrwt>0</asrwt>
<pdfrwt beam="1">  1        2 0.32447274E-02 0.92016557E+02</pdfrwt>
<pdfrwt beam="2">  1       -2 0.63836013E-01 0.92016557E+02</pdfrwt>
<totfact> 0.59467926E+03</totfact>
</mgrwt>
</event>
<event>
 8    1  0.2964543E-004  0.9456123E+02  0.7546771E-02  0.1300834E+00
         -1   -1    0    0    0  501 -0.00000000000E+00  0.00000000000E+00  0.38138199728E+02  0.38138199728E+02  0.00000000000E+00 0.  1.
          1   -1    0    0  501    0  0.00000000000E+00 -0.00000000000E+00 -0.22167007902E+03  0.22167007902E+03  0.00000000000E+00 0. -1.
         23    2    1    2    0    0  0.17715841182E+02 -0.79414596472E+01 -0.12469572465E+03  0.14843719244E+03  0.78151510182E+02 0.  0.
         23    2    1    2    0    0 -0.17715841182E+02  0.79414596472E+01 -0.58836154641E+02  0.11137108630E+03  0.92546787960E+02 0.  0.
          5    1    4    4  502    0 -0.18608299815E+02 -0.35061469998E+02 -0.21094292292E+01  0.40026431169E+02  0.47000000000E+01 0. -1.
         -5    1    4    4    0  502  0.89245863319E+00  0.43002929645E+02 -0.56726725412E+02  0.71344655136E+02  0.47000000000E+01 0.  1.
          5    1    3    3  503    0 -0.17724950693E+02 -0.14191298290E+02 -0.10421611121E+03  0.10676448220E+03  0.47000000000E+01 0. -1.
         -5    1    3    3    0  503  0.35440791875E+02  0.62498386429E+01 -0.20479613435E+02  0.41672710234E+02  0.47000000000E+01 0.  1.
<mgrwt>
<rscale>  0 0.90838515E+02</rscale>
<asrwt>0</asrwt>
<pdfrwt beam="1">  1        1 0.34103089E-01 0.94561228E+02</pdfrwt>
<pdfrwt beam="2">  1       -1 0.58674154E-02 0.94561228E+02</pdfrwt>
<totfact> 0.16046532E+04</totfact>
</mgrwt>
</event>
<event>
 8    1  0.2964543E-004  0.9461102E+02  0.7546771E-02  0.1296378E+00
          3   -1    0    0  501    0  0.00000000000E+00  0.00000000000E+00  0.20270278894E+02  0.20270278894E+02  0.00000000000E+00 0. -1.
         -3   -1    0    0    0  501 -0.00000000000E+00 -0.00000000000E+00 -0.82604977097E+03  0.82604977097E+03  0.00000000000E+00 0.  1.
         23    2    1    2    0    0  0.86111033479E+01 -0.26221300581E+02 -0.71176022909E+03  0.71802079977E+03  0.90496063378E+02 0.  0.
         23    2    1    2    0    0 -0.86111033479E+01  0.26221300581E+02 -0.94019262983E+02  0.12829925009E+03  0.82821301949E+02 0.  0.
          5    1    3    3  502    0 -0.24210383410E+02  0.23929194666E+02 -0.27706944689E+03  0.27919225889E+03  0.47000000000E+01 0. -1.
         -5    1    4    4    0  503 -0.33037547075E+02  0.13968271229E+02 -0.93838400377E+02  0.10057001294E+03  0.47000000000E+01 0.  1.
          5    1    4    4  503    0  0.24426443728E+02  0.12253029353E+02 -0.18086260634E+00  0.27729237147E+02  0.47000000000E+01 0. -1.
         -5    1    3    3    0  502  0.32821486758E+02 -0.50150495248E+02 -0.43469078220E+03  0.43882854089E+03  0.47000000000E+01 0.  1.
<mgrwt>
<rscale>  0 0.92727453E+02</rscale>
<asrwt>0</asrwt>
<pdfrwt beam="1">  1        3 0.31185036E-02 0.94611020E+02</pdfrwt>
<pdfrwt beam="2">  1       -3 0.12708461E+00 0.94611020E+02</pdfrwt>
<totfact> 0.54218254E+02</totfact>
</mgrwt>
</event>
<event>
 8    1  0.2964543E-004  0.9942748E+02  0.7546771E-02  0.1286346E+00
          1   -1    0    0  501    0  0.00000000000E+00  0.00000000000E+00  0.33618149005E+03  0.33618149005E+03  0.00000000000E+00 0. -1.
         -1   -1    0    0    0  501 -0.00000000000E+00 -0.00000000000E+00 -0.28250394004E+02  0.28250394004E+02  0.00000000000E+00 0.  1.
         23    2    1    2    0    0  0.60418977049E+01 -0.35259122939E+02  0.20062316887E+03  0.22390953550E+03  0.92769143152E+02 0.  0.
         23    2    1    2    0    0 -0.60418977049E+01  0.35259122939E+02  0.10730792718E+03  0.14052234856E+03  0.83377628478E+02 0.  0.
          5    1    4    4  502    0 -0.10385046007E+02 -0.22206305507E+02  0.62726331489E+02  0.67510383252E+02  0.47000000000E+01 0. -1.
         -5    1    4    4    0  502  0.43431483023E+01  0.57465428445E+02  0.44581595690E+02  0.73011965306E+02  0.47000000000E+01 0.  1.
          5    1    3    3  503    0 -0.86657422694E+01 -0.49237801645E+02  0.19632169467E+03  0.20264193544E+03  0.47000000000E+01 0. -1.
         -5    1    3    3    0  503  0.14707639974E+02  0.13978678707E+02  0.43014741996E+01  0.21267600060E+02  0.47000000000E+01 0.  1.
<mgrwt>
<rscale>  0 0.97177330E+02</rscale>
<asrwt>0</asrwt>
<pdfrwt beam="1">  1        1 0.51720226E-01 0.99427482E+02</pdfrwt>
<pdfrwt beam="2">  1       -1 0.43462147E-02 0.99427482E+02</pdfrwt>
<totfact> 0.15040278E+04</totfact>
</mgrwt>
</event>
<event>
 8    1  0.2964543E-004  0.1393072E+03  0.7546771E-02  0.1218893E+00
         -3   -1    0    0    0  501 -0.00000000000E+00  0.00000000000E+00  0.61503287740E+02  0.61503287740E+02  0.00000000000E+00 0.  1.
          3   -1    0    0  501    0  0.00000000000E+00 -0.00000000000E+00 -0.29186731219E+03  0.29186731219E+03  0.00000000000E+00 0. -1.
         23    2    1    2    0    0 -0.33650295544E+02 -0.79032358179E+02 -0.14388484246E+03  0.20027314592E+03  0.10967237143E+03 0.  0.
         23    2    1    2    0    0  0.33650295544E+02  0.79032358179E+02 -0.86479181986E+02  0.15309745401E+03  0.92637602941E+02 0.  0.
          5    1    4    4  502    0 -0.17722527707E+02  0.51014074461E+02 -0.76175525201E+02  0.93495050249E+02  0.47000000000E+01 0. -1.
         -5    1    4    4    0  502  0.51372823251E+02  0.28018283718E+02 -0.10303656785E+02  0.59602403764E+02  0.47000000000E+01 0.  1.
          5    1    3    3  503    0 -0.58865604544E+02 -0.91583593960E+02 -0.99912300449E+02  0.14784205038E+03  0.47000000000E+01 0. -1.
         -5    1    3    3    0  503  0.25215309000E+02  0.12551235781E+02 -0.43972542016E+02  0.52431095534E+02  0.47000000000E+01 0.  1.
<mgrwt>
<rscale>  0 0.13594393E+03</rscale>
<asrwt>0</asrwt>
<pdfrwt beam="1">  1        3 0.44902664E-01 0.13930716E+03</pdfrwt>
<pdfrwt beam="2">  1       -3 0.94620442E-02 0.13930716E+03</pdfrwt>
<totfact> 0.92822303E+02</totfact>
</mgrwt>
</event>
<event>
 8    1  0.2964543E-004  0.1035665E+03  0.7546771E-02  0.1274150E+00
          2   -1    0    0  501    0  0.00000000000E+00  0.00000000000E+00  0.34496022907E+03  0.34496022907E+03  0.00000000000E+00 0. -1.
         -2   -1    0    0    0  501 -0.00000000000E+00 -0.00000000000E+00 -0.39611025392E+02  0.39611025392E+02  0.00000000000E+00 0.  1.
         23    2    1    2    0    0  0.30901542753E+02 -0.31693081734E+02  0.58623977961E+02  0.11699069816E+03  0.91053258532E+02 0.  0.
         23    2    1    2    0    0 -0.30901542753E+02  0.31693081734E+02  0.24672522572E+03  0.26758055630E+03  0.93630445541E+02 0.  0.
          5    1    3    3  502    0 -0.25036166674E+02 -0.25674351892E+01  0.45788595355E+02  0.52460335776E+02  0.47000000000E+01 0. -1.
         -5    1    3    3    0  502  0.55937709426E+02 -0.29125646545E+02  0.12835382606E+02  0.64530362382E+02  0.47000000000E+01 0.  1.
          5    1    4    4  503    0  0.17737474686E+02  0.24758062334E+02  0.18959667543E+03  0.19208479636E+03  0.47000000000E+01 0. -1.
         -5    1    4    4    0  503 -0.48639017439E+02  0.69350194002E+01  0.57128550288E+02  0.75495759944E+02  0.47000000000E+01 0.  1.
<mgrwt>
<rscale>  0 0.10298055E+03</rscale>
<asrwt>0</asrwt>
<pdfrwt beam="1">  1        2 0.53070802E-01 0.10356649E+03</pdfrwt>
<pdfrwt beam="2">  1       -2 0.60940042E-02 0.10356649E+03</pdfrwt>
<totfact> 0.12514922E+04</totfact>
</mgrwt>
</event>
<event>
 8    1  0.2964543E-004  0.9624424E+02  0.7546771E-02  0.1288861E+00
          2   -1    0    0  501    0  0.00000000000E+00  0.00000000000E+00  0.25221393000E+03  0.25221393000E+03  0.00000000000E+00 0. -1.
         -2   -1    0    0    0  501 -0.00000000000E+00 -0.00000000000E+00 -0.45073132843E+02  0.45073132843E+02  0.00000000000E+00 0.  1.
         23    2    1    2    0    0  0.20194648176E+02 -0.17743563783E+02  0.16910084359E+03  0.19457144953E+03  0.92413720847E+02 0.  0.
         23    2    1    2    0    0 -0.20194648176E+02  0.17743563783E+02  0.38039953565E+02  0.10271561331E+03  0.91546716374E+02 0.  0.
          5    1    3    3  502    0  0.51709725200E+02 -0.26527328555E+02  0.13513938427E+03  0.14718131003E+03  0.47000000000E+01 0. -1.
         -5    1    3    3    0  502 -0.31515077024E+02  0.87837647717E+01  0.33961459317E+02  0.47390139506E+02  0.47000000000E+01 0.  1.
          5    1    4    4  503    0  0.15193432334E+02 -0.30163886018E+02  0.22919484328E+02  0.41086410986E+02  0.47000000000E+01 0. -1.
         -5    1    4    4    0  503 -0.35388080510E+02  0.47907449801E+02  0.15120469237E+02  0.61629202320E+02  0.47000000000E+01 0.  1.
<mgrwt>
<rscale>  0 0.96035514E+02</rscale>
<asrwt>0</asrwt>
<pdfrwt beam="1">  1        2 0.38802142E-01 0.96244240E+02</pdfrwt>
<pdfrwt beam="2">  1       -2 0.69343283E-02 0.96244240E+02</pdfrwt>
<totfact> 0.14205774E+04</totfact>
</mgrwt>
</event>
<event>
 8    1  0.2964543E-004  0.9955461E+02  0.7546771E-02  0.1281495E+00
          1   -1    0    0  501    0  0.00000000000E+00  0.00000000000E+00  0.53439848085E+03  0.53439848085E+03  0.00000000000E+00 0. -1.
         -1   -1    0    0    0  501 -0.00000000000E+00 -0.00000000000E+00 -0.23587825339E+02  0.23587825339E+02  0.00000000000E+00 0.  1.
         23    2    1    2    0    0  0.24068496260E+02 -0.31412507756E+02  0.12477194983E+03  0.15931726643E+03  0.90818025541E+02 0.  0.
         23    2    1    2    0    0 -0.24068496260E+02  0.31412507756E+02  0.38603870569E+03  0.39866903976E+03  0.91351424845E+02 0.  0.
          5    1    4    4  502    0 -0.58647891891E+02  0.17600171919E+02  0.26044649539E+03  0.26758887914E+03  0.47000000000E+01 0. -1.
         -5    1    3    3    0  503  0.55093344270E+02 -0.25999066175E+02  0.53333446087E+02  0.81103480174E+02  0.47000000000E+01 0.  1.
          5    1    3    3  503    0 -0.31024848010E+02 -0.54134415807E+01  0.71438503742E+02  0.78213786257E+02  0.47000000000E+01 0. -1.
         -5    1    4    4    0  502  0.34579395631E+02  0.13812335837E+02  0.12559221029E+03  0.13108016063E+03  0.47000000000E+01 0.  1.
<mgrwt>
<rscale>  0 0.99432082E+02</rscale>
<asrwt>0</asrwt>
<pdfrwt beam="1">  1        1 0.82215142E-01 0.99554613E+02</pdfrwt>
<pdfrwt beam="2">  1       -1 0.36288966E-02 0.99554613E+02</pdfrwt>
<totfact> 0.10907014E+04</totfact>
</mgrwt>
</event>
<event>
 8    1  0.2964543E-004  0.9308375E+02  0.7546771E-02  0.1296028E+00
         -1   -1    0    0    0  501 -0.00000000000E+00  0.00000000000E+00  0.10166057588E+03  0.10166057588E+03  0.00000000000E+00 0.  1.
          1   -1    0    0  501    0  0.00000000000E+00 -0.00000000000E+00 -0.19644098218E+03  0.19644098218E+03  0.00000000000E+00 0. -1.
         23    2    1    2    0    0  0.13648788552E+02 -0.15163702625E+02  0.65044134979E+02  0.11355758166E+03  0.90820468794E+02 0.  0.
         23    2    1    2    0    0 -0.13648788552E+02  0.15163702625E+02 -0.15982454127E+03  0.18454397640E+03  0.89979819546E+02 0.  0.
          5    1    3    3  502    0  0.36047175707E+02  0.15620314109E+02  0.18215667390E+01  0.39608095065E+02  0.47000000000E+01 0. -1.
         -5    1    4    4    0  503 -0.25466456001E+01 -0.35110887299E+02 -0.37024582511E+02  0.51304673479E+02  0.47000000000E+01 0.  1.
          5    1    4    4  503    0 -0.11102142952E+02  0.50274589925E+02 -0.12279995876E+03  0.13323930292E+03  0.47000000000E+01 0. -1.
         -5    1    3    3    0  502 -0.22398387154E+02 -0.30784016735E+02  0.63222568240E+02  0.73949486599E+02  0.47000000000E+01 0.  1.
<mgrwt>
<rscale>  0 0.92878065E+02</rscale>
<asrwt>0</asrwt>
<pdfrwt beam="1">  1        1 0.30221689E-01 0.93083752E+02</pdfrwt>
<pdfrwt beam="2">  1       -1 0.15640089E-01 0.93083752E+02</pdfrwt>
<totfact> 0.42288659E+03</totfact>
</mgrwt>
</event>
<event>
 8    1  0.2964543E-004  0.1003171E+03  0.7546771E-02  0.1279736E+00
          1   -1    0    0  501    0  0.00000000000E+00  0.00000000000E+00  0.76589640244E+03  0.76589640244E+03  0.00000000000E+00 0. -1.
         -1   -1    0    0    0  501 -0.00000000000E+00 -0.00000000000E+00 -0.13602015351E+02  0.13602015351E+02  0.00000000000E+00 0.  1.
         23    2    1    2    0    0 -0.40419587942E+02 -0.13728209885E+02  0.44967236646E+03  0.46068247592E+03  0.90558818629E+02 0.  0.
         23    2    1    2    0    0  0.40419587942E+02  0.13728209885E+02  0.30262202063E+03  0.31881594187E+03  0.90781664345E+02 0.  0.
          5    1    3    3  502    0 -0.33593826234E+02  0.35202761311E+02  0.26422959325E+03  0.26871387667E+03  0.47000000000E+01 0. -1.
         -5    1    3    3    0  502 -0.68257617074E+01 -0.48930971196E+02  0.18544277320E+03  0.19196859925E+03  0.47000000000E+01 0.  1.
          5    1    4    4  503    0  0.20762280128E+02  0.45900163352E+02  0.93898785817E+02  0.10666287662E+03  0.47000000000E+01 0. -1.
         -5    1    4    4    0  503  0.19657307814E+02 -0.32171953467E+02  0.20872323481E+03  0.21215306524E+03  0.47000000000E+01 0.  1.
<mgrwt>
<rscale>  0 0.10026664E+03</rscale>
<asrwt>0</asrwt>
<pdfrwt beam="1">  1        1 0.11783018E+00 0.10031708E+03</pdfrwt>
<pdfrwt beam="2">  1       -1 0.20926183E-02 0.10031708E+03</pdfrwt>
<totfact> 0.14711634E+04</totfact>
</mgrwt>
</event>
<event>
 8    1  0.2964543E-004  0.1132658E+03  0.7546771E-02  0.1255752E+00
          1   -1    0    0  501    0  0.00000000000E+00  0.00000000000E+00  0.42658471141E+03  0.42658471141E+03  0.00000000000E+00 0. -1.
         -1   -1    0    0    0  501 -0.00000000000E+00 -0.00000000000E+00 -0.48591647018E+02  0.48591647018E+02  0.00000000000E+00 0.  1.
         23    2    1    2    0    0 -0.43729952438E+02 -0.48092945746E+02  0.38511632580E+02  0.11729818208E+03  0.89724453219E+02 0.  0.
         23    2    1    2    0    0  0.43729952438E+02  0.48092945746E+02  0.33948143181E+03  0.35787817634E+03  0.92757244396E+02 0.  0.
          5    1    3    3  502    0  0.12817719819E+02 -0.51923015127E+02  0.22529876601E+02  0.58223524291E+02  0.47000000000E+01 0. -1.
         -5    1    3    3    0  502 -0.56547672257E+02  0.38300693815E+01  0.15981755980E+02  0.59074657793E+02  0.47000000000E+01 0.  1.
          5    1    4    4  503    0  0.21621523099E+02  0.74240831542E+02  0.25772708070E+03  0.26911805858E+03  0.47000000000E+01 0. -1.
         -5    1    4    4    0  503  0.22108429339E+02 -0.26147885796E+02  0.81754351117E+02  0.88760117767E+02  0.47000000000E+01 0.  1.
<mgrwt>
<rscale>  0 0.11264321E+03</rscale>
<asrwt>0</asrwt>
<pdfrwt beam="1">  1        1 0.65628415E-01 0.11326582E+03</pdfrwt>
<pdfrwt beam="2">  1       -1 0.74756383E-02 0.11326582E+03</pdfrwt>
<totfact> 0.50687394E+03</totfact>
</mgrwt>
</event>
<event>
 8    1  0.2964543E-004  0.1258074E+03  0.7546771E-02  0.1234004E+00
          2   -1    0    0  501    0  0.00000000000E+00  0.00000000000E+00  0.76895910589E+03  0.76895910589E+03  0.00000000000E+00 0. -1.
         -2   -1    0    0    0  501 -0.00000000000E+00 -0.00000000000E+00 -0.21935281006E+02  0.21935281006E+02  0.00000000000E+00 0.  1.
         23    2    1    2    0    0 -0.33373767428E+02  0.80990743368E+02  0.27175900745E+03  0.29926022075E+03  0.89612570155E+02 0.  0.
         23    2    1    2    0    0  0.33373767428E+02 -0.80990743368E+02  0.47526481744E+03  0.49163416615E+03  0.90300596718E+02 0.  0.
          5    1    4    4  502    0  0.33157498877E+02 -0.47246758982E+01  0.27862328504E+03  0.28066842940E+03  0.47000000000E+01 0. -1.
         -5    1    4    4    0  502  0.21626855110E+00 -0.76266067470E+02  0.19664153240E+03  0.21096573675E+03  0.47000000000E+01 0.  1.
          5    1    3    3  503    0 -0.47261766019E+01  0.68492652573E+02  0.25368008716E+03  0.26284835328E+03  0.47000000000E+01 0. -1.
         -5    1    3    3    0  503 -0.28647590826E+02  0.12498090795E+02  0.18078920289E+02  0.36411867468E+02  0.47000000000E+01 0.  1.
<mgrwt>
<rscale>  0 0.12568401E+03</rscale>
<asrwt>0</asrwt>
<pdfrwt beam="1">  1        2 0.11830138E+00 0.12580742E+03</pdfrwt>
<pdfrwt beam="2">  1       -2 0.33746592E-02 0.12580742E+03</pdfrwt>
<totfact> 0.12591324E+04</totfact>
</mgrwt>
</event>
<event>
 8    1  0.2964543E-004  0.1322398E+03  0.7546771E-02  0.1233805E+00
         -1   -1    0    0    0  501 -0.00000000000E+00  0.00000000000E+00  0.20607242830E+02  0.20607242830E+02  0.00000000000E+00 0.  1.
          1   -1    0    0  501    0  0.00000000000E+00 -0.00000000000E+00 -0.83649485650E+03  0.83649485650E+03  0.00000000000E+00 0. -1.
         23    2    1    2    0    0  0.10907827207E+02 -0.57499962750E+02 -0.27094886563E+03  0.30149736562E+03  0.11858392504E+03 0.  0.
         23    2    1    2    0    0 -0.10907827207E+02  0.57499962750E+02 -0.54493874804E+03  0.55560473371E+03  0.91176502436E+02 0.  0.
          5    1    4    4  502    0 -0.39650354281E+02  0.47439423143E+02 -0.47689880935E+03  0.48091289629E+03  0.47000000000E+01 0. -1.
         -5    1    3    3    0  503  0.47492641245E+02 -0.76509630921E+02 -0.17212972406E+03  0.19431934155E+03  0.47000000000E+01 0.  1.
          5    1    3    3  503    0 -0.36584814038E+02  0.19009668172E+02 -0.98819141573E+02  0.10717802407E+03  0.47000000000E+01 0. -1.
         -5    1    4    4    0  502  0.28742527074E+02  0.10060539606E+02 -0.68039938689E+02  0.74691837416E+02  0.47000000000E+01 0.  1.
<mgrwt>
<rscale>  0 0.12581220E+03</rscale>
<asrwt>0</asrwt>
<pdfrwt beam="1">  1        1 0.12869153E+00 0.13223983E+03</pdfrwt>
<pdfrwt beam="2">  1       -1 0.31703448E-02 0.13223983E+03</pdfrwt>
<totfact> 0.72082820E+03</totfact>
</mgrwt>
</event>
<event>
 8    1  0.2964543E-004  0.1133231E+03  0.7546771E-02  0.1255816E+00
         -3   -1    0    0    0  501 -0.00000000000E+00  0.00000000000E+00  0.78673624924E+02  0.78673624924E+02  0.00000000000E+00 0.  1.
          3   -1    0    0  501    0  0.00000000000E+00 -0.00000000000E+00 -0.17008004901E+03  0.17008004901E+03  0.00000000000E+00 0. -1.
         23    2    1    2    0    0 -0.48667405104E+02 -0.40757117411E+02 -0.13671080288E+02  0.11133128293E+03  0.90432832440E+02 0.  0.
         23    2    1    2    0    0  0.48667405104E+02  0.40757117411E+02 -0.77735343801E+02  0.13742239101E+03  0.93874761973E+02 0.  0.
          5    1    4    4  502    0  0.64545681628E+02  0.59419919997E+02 -0.54901277273E+02  0.10360073434E+03  0.47000000000E+01 0. -1.
         -5    1    4    4    0  502 -0.15878276524E+02 -0.18662802585E+02 -0.22834066528E+02  0.33821656670E+02  0.47000000000E+01 0.  1.
          5    1    3    3  503    0 -0.46791910285E+01 -0.41448986481E+02 -0.41528620034E+02  0.59047689124E+02  0.47000000000E+01 0. -1.
         -5    1    3    3    0  503 -0.43988214075E+02  0.69186906939E+00  0.27857539747E+02  0.52283593804E+02  0.47000000000E+01 0.  1.
<mgrwt>
<rscale>  0 0.11260777E+03</rscale>
<asrwt>0</asrwt>
<pdfrwt beam="1">  1        3 0.26166161E-01 0.11332312E+03</pdfrwt>
<pdfrwt beam="2">  1       -3 0.12103635E-01 0.11332312E+03</pdfrwt>
<totfact> 0.16464216E+03</totfact>
</mgrwt>
</event>
<event>
 8    1  0.2964543E-004  0.1050465E+03  0.7546771E-02  0.1270434E+00
         -1   -1    0    0    0  501 -0.00000000000E+00  0.00000000000E+00  0.23163872340E+02  0.23163872340E+02  0.00000000000E+00 0.  1.
          1   -1    0    0  501    0  0.00000000000E+00 -0.00000000000E+00 -0.51178757438E+03  0.51178757438E+03  0.00000000000E+00 0. -1.
         23    2    1    2    0    0 -0.30713651491E+02  0.42728950612E+02 -0.17124163914E+03  0.20089417040E+03  0.90915769358E+02 0.  0.
         23    2    1    2    0    0  0.30713651491E+02 -0.42728950612E+02 -0.31738206290E+03  0.33405727632E+03  0.89965540082E+02 0.  0.
          5    1    4    4  502    0  0.84834590139E+01 -0.68873791917E+02 -0.20784855729E+03  0.21917728226E+03  0.47000000000E+01 0.  1.
         -5    1    4    4    0  502  0.22230192477E+02  0.26144841305E+02 -0.10953350561E+03  0.11487999406E+03  0.47000000000E+01 0. -1.
          5    1    3    3  503    0  0.13202071328E+01  0.27544101019E+02 -0.16139666859E+03  0.16380291536E+03  0.47000000000E+01 0. -1.
         -5    1    3    3    0  503 -0.32033858623E+02  0.15184849592E+02 -0.98449705467E+01  0.37091255041E+02  0.47000000000E+01 0.  1.
<mgrwt>
<rscale>  0 0.10484057E+03</rscale>
<asrwt>0</asrwt>
<pdfrwt beam="1">  1        1 0.78736549E-01 0.10504651E+03</pdfrwt>
<pdfrwt beam="2">  1       -1 0.35636727E-02 0.10504651E+03</pdfrwt>
<totfact> 0.11898445E+04</totfact>
</mgrwt>
</event>
<event>
 8    1  0.2964543E-004  0.1260758E+03  0.7546771E-02  0.1233653E+00
          1   -1    0    0  501    0  0.00000000000E+00  0.00000000000E+00  0.90036182101E+03  0.90036182101E+03  0.00000000000E+00 0. -1.
         -1   -1    0    0    0  501 -0.00000000000E+00 -0.00000000000E+00 -0.18941077055E+02  0.18941077055E+02  0.00000000000E+00 0.  1.
         23    2    1    2    0    0 -0.22324829480E+02  0.83257555098E+02  0.31559920414E+03  0.33960545957E+03  0.91097705926E+02 0.  0.
         23    2    1    2    0    0  0.22324829480E+02 -0.83257555098E+02  0.56582153981E+03  0.57969743849E+03  0.92004819352E+02 0.  0.
          5    1    4    4  502    0  0.43423076469E+02 -0.78455060787E+01  0.14545654967E+03  0.15207502549E+03  0.47000000000E+01 0. -1.
         -5    1    4    4    0  502 -0.21098246988E+02 -0.75412049020E+02  0.42036499014E+03  0.42762241300E+03  0.47000000000E+01 0.  1.
          5    1    3    3  503    0  0.96094025310E+01  0.90591280927E+02  0.25011827875E+03  0.26623366459E+03  0.47000000000E+01 0. -1.
         -5    1    3    3    0  503 -0.31934232011E+02 -0.73337258291E+01  0.65480925392E+02  0.73371794982E+02  0.47000000000E+01 0.  1.
<mgrwt>
<rscale>  0 0.12591036E+03</rscale>
<asrwt>0</asrwt>
<pdfrwt beam="1">  1        1 0.13851717E+00 0.12607579E+03</pdfrwt>
<pdfrwt beam="2">  1       -1 0.29140126E-02 0.12607579E+03</pdfrwt>
<totfact> 0.72460343E+03</totfact>
</mgrwt>
</event>
<event>
 8    1  0.2964543E-004  0.1466125E+03  0.7546771E-02  0.1204846E+00
          1   -1    0    0  501    0  0.00000000000E+00  0.00000000000E+00  0.69278776136E+02  0.69278776136E+02  0.00000000000E+00 0. -1.
         -1   -1    0    0    0  501 -0.00000000000E+00 -0.00000000000E+00 -0.31698803657E+03  0.31698803657E+03  0.00000000000E+00 0.  1.
         23    2    1    2    0    0  0.11212273861E+03 -0.23371752846E+02 -0.93562379678E+02  0.17353111383E+03  0.90782053478E+02 0.  0.
         23    2    1    2    0    0 -0.11212273861E+03  0.23371752846E+02 -0.15414688075E+03  0.21273569887E+03  0.91528516777E+02 0.  0.
          5    1    3    3  502    0  0.23264952791E+02  0.26625639484E+02 -0.90561174279E+00  0.35680426552E+02  0.47000000000E+01 0. -1.
         -5    1    3    3    0  502  0.88857785816E+02 -0.49997392330E+02 -0.92656767935E+02  0.13785068728E+03  0.47000000000E+01 0.  1.
          5    1    4    4  503    0 -0.78362561822E+02 -0.29137556939E+02 -0.94590755878E+02  0.12632968542E+03  0.47000000000E+01 0. -1.
         -5    1    4    4    0  503 -0.33760176785E+02  0.52509309785E+02 -0.59556124877E+02  0.86406013454E+02  0.47000000000E+01 0.  1.
<mgrwt>
<rscale>  0 0.14649612E+03</rscale>
<asrwt>0</asrwt>
<pdfrwt beam="1">  1        1 0.10658273E-01 0.14661247E+03</pdfrwt>
<pdfrwt beam="2">  1       -1 0.48767390E-01 0.14661247E+03</pdfrwt>
<totfact> 0.24617045E+03</totfact>
</mgrwt>
</event>
<event>
 8    1  0.2964543E-004  0.9887212E+02  0.7546771E-02  0.1286085E+00
         -1   -1    0    0    0  501 -0.00000000000E+00  0.00000000000E+00  0.49694353444E+02  0.49694353444E+02  0.00000000000E+00 0.  1.
          1   -1    0    0  501    0  0.00000000000E+00 -0.00000000000E+00 -0.19298685320E+03  0.19298685320E+03  0.00000000000E+00 0. -1.
         23    2    1    2    0    0  0.28194412166E+02  0.18726459858E+02 -0.48666866207E+02  0.11020054438E+03  0.92898282761E+02 0.  0.
         23    2    1    2    0    0 -0.28194412166E+02 -0.18726459858E+02 -0.94625633546E+02  0.13248066226E+03  0.86322130256E+02 0.  0.
          5    1    4    4  502    0 -0.57827959952E+02 -0.50281553168E+01 -0.71413814297E+02  0.92148674275E+02  0.47000000000E+01 0. -1.
         -5    1    3    3    0  503  0.31332617188E+02  0.49381486788E+02 -0.83871908207E+01  0.59268027697E+02  0.47000000000E+01 0.  1.
          5    1    3    3  503    0 -0.31382050224E+01 -0.30655026930E+02 -0.40279675386E+02  0.50932516687E+02  0.47000000000E+01 0. -1.
         -5    1    4    4    0  502  0.29633547787E+02 -0.13698304541E+02 -0.23211819248E+02  0.40331987981E+02  0.47000000000E+01 0.  1.
<mgrwt>
<rscale>  0 0.97297007E+02</rscale>
<asrwt>0</asrwt>
<pdfrwt beam="1">  1        1 0.29690285E-01 0.98872120E+02</pdfrwt>
<pdfrwt beam="2">  1       -1 0.76452853E-02 0.98872120E+02</pdfrwt>
<totfact> 0.12903430E+04</totfact>
</mgrwt>
</event>
<event>
 8    1  0.2964543E-004  0.9230708E+02  0.7546771E-02  0.1299430E+00
          3   -1    0    0  501    0  0.00000000000E+00  0.00000000000E+00  0.31256874789E+03  0.31256874789E+03  0.00000000000E+00 0. -1.
         -3   -1    0    0    0  501 -0.00000000000E+00 -0.00000000000E+00 -0.26593817546E+02  0.26593817546E+02  0.00000000000E+00 0.  1.
         23    2    1    2    0    0 -0.82668665097E+01 -0.11297055471E+02  0.16508115131E+03  0.18913588624E+03  0.91239423516E+02 0.  0.
         23    2    1    2    0    0  0.82668665097E+01  0.11297055471E+02  0.12089377904E+03  0.15002667919E+03  0.87731032798E+02 0.  0.
          5    1    4    4  502    0 -0.30799121030E+02 -0.19585082247E+02  0.67390075424E+02  0.76783289643E+02  0.47000000000E+01 0. -1.
         -5    1    3    3    0  503  0.27865069952E+02  0.13516936009E+02  0.19203352811E+02  0.36742733182E+02  0.47000000000E+01 0.  1.
          5    1    3    3  503    0 -0.36131936461E+02 -0.24813991481E+02  0.14587779850E+03  0.15239315306E+03  0.47000000000E+01 0. -1.
         -5    1    4    4    0  502  0.39065987539E+02  0.30882137718E+02  0.53503703611E+02  0.73243389549E+02  0.47000000000E+01 0.  1.
<mgrwt>
<rscale>  0 0.91428048E+02</rscale>
<asrwt>0</asrwt>
<pdfrwt beam="1">  1        3 0.48087497E-01 0.92307080E+02</pdfrwt>
<pdfrwt beam="2">  1       -3 0.40913568E-02 0.92307080E+02</pdfrwt>
<totfact> 0.28705830E+03</totfact>
</mgrwt>
</event>
<event>
 8    1  0.2964543E-004  0.9592246E+02  0.7546771E-02  0.1290347E+00
          1   -1    0    0  501    0  0.00000000000E+00  0.00000000000E+00  0.59091685158E+02  0.59091685158E+02  0.00000000000E+00 0. -1.
         -1   -1    0    0    0  501 -0.00000000000E+00 -0.00000000000E+00 -0.15834267004E+03  0.15834267004E+03  0.00000000000E+00 0.  1.
         23    2    1    2    0    0  0.17092047992E+02  0.13529424171E+02 -0.27604126937E+02  0.97708038541E+02  0.91157498587E+02 0.  0.
         23    2    1    2    0    0 -0.17092047992E+02 -0.13529424171E+02 -0.71646857941E+02  0.11972631665E+03  0.93412714463E+02 0.  0.
          5    1    3    3  502    0 -0.21720646798E+02  0.62711133649E+01  0.23506490593E+02  0.32950849157E+02  0.47000000000E+01 0. -1.
         -5    1    4    4    0  503  0.20474976552E+02  0.78920072696E+00 -0.76150959214E+02  0.78999405643E+02  0.47000000000E+01 0.  1.
          5    1    4    4  503    0 -0.37567024544E+02 -0.14318624898E+02  0.45041012735E+01  0.40726911009E+02  0.47000000000E+01 0. -1.
         -5    1    3    3    0  502  0.38812694790E+02  0.72583108065E+01 -0.51110617530E+02  0.64757189384E+02  0.47000000000E+01 0.  1.
<mgrwt>
<rscale>  0 0.95368988E+02</rscale>
<asrwt>0</asrwt>
<pdfrwt beam="1">  1        1 0.90910287E-02 0.95922462E+02</pdfrwt>
<pdfrwt beam="2">  1       -1 0.24360410E-01 0.95922462E+02</pdfrwt>
<totfact> 0.96743629E+03</totfact>
</mgrwt>
</event>
<event>
 8    1  0.2964543E-004  0.1256732E+03  0.7546771E-02  0.1235430E+00
         -2   -1    0    0    0  501 -0.00000000000E+00  0.00000000000E+00  0.43479227113E+02  0.43479227113E+02  0.00000000000E+00 0.  1.
          2   -1    0    0  501    0  0.00000000000E+00 -0.00000000000E+00 -0.38550803212E+03  0.38550803212E+03  0.00000000000E+00 0. -1.
         23    2    1    2    0    0  0.29772471153E+02 -0.75073051215E+02 -0.23105055710E+03  0.26132707968E+03  0.91570298589E+02 0.  0.
         23    2    1    2    0    0 -0.29772471153E+02  0.75073051215E+02 -0.11097824791E+03  0.16766017955E+03  0.96288115777E+02 0.  0.
          5    1    3    3  502    0  0.20780217493E+02 -0.21167903373E+02 -0.19115779657E+03  0.19350268929E+03  0.47000000000E+01 0. -1.
         -5    1    3    3    0  502  0.89922536600E+01 -0.53905147843E+02 -0.39892760524E+02  0.67824390392E+02  0.47000000000E+01 0.  1.
          5    1    4    4  503    0  0.16354187976E+02  0.35382544430E+02 -0.97567310039E+02  0.10517059429E+03  0.47000000000E+01 0. -1.
         -5    1    4    4    0  503 -0.46126659129E+02  0.39690506786E+02 -0.13410937868E+02  0.62489585259E+02  0.47000000000E+01 0.  1.
<mgrwt>
<rscale>  0 0.12476928E+03</rscale>
<asrwt>0</asrwt>
<pdfrwt beam="1">  1        2 0.59308926E-01 0.12567324E+03</pdfrwt>
<pdfrwt beam="2">  1       -2 0.66891121E-02 0.12567324E+03</pdfrwt>
<totfact> 0.98133179E+03</totfact>
</mgrwt>
</event>
<event>
 8    1  0.2964543E-004  0.9430416E+02  0.7546771E-02  0.1294547E+00
         -1   -1    0    0    0  501 -0.00000000000E+00  0.00000000000E+00  0.49015257892E+03  0.49015257892E+03  0.00000000000E+00 0. -1.
          1   -1    0    0  501    0  0.00000000000E+00 -0.00000000000E+00 -0.18647282339E+02  0.18647282339E+02  0.00000000000E+00 0.  1.
         23    2    1    2    0    0  0.17109413460E+02 -0.18904349912E+02  0.17039700775E+03  0.19326939228E+03  0.87566039470E+02 0.  0.
         23    2    1    2    0    0 -0.17109413460E+02  0.18904349912E+02  0.30110828883E+03  0.31553046897E+03  0.90791898179E+02 0.  0.
          5    1    4    4  502    0 -0.45966886374E+02  0.29595748902E+02  0.24775676505E+03  0.25376045323E+03  0.47000000000E+01 0. -1.
         -5    1    3    3    0  503  0.48518907383E+02 -0.16617364465E+01  0.61262679307E+02  0.78307417385E+02  0.47000000000E+01 0.  1.
          5    1    3    3  503    0 -0.31409493922E+02 -0.17242613466E+02  0.10913432844E+03  0.11496197490E+03  0.47000000000E+01 0. -1.
         -5    1    4    4    0  502  0.28857472914E+02 -0.10691398990E+02  0.53351523778E+02  0.61770015742E+02  0.47000000000E+01 0.  1.
<mgrwt>
<rscale>  0 0.93519027E+02</rscale>
<asrwt>0</asrwt>
<pdfrwt beam="1">  1        1 0.28688130E-02 0.94304163E+02</pdfrwt>
<pdfrwt beam="2">  1       -1 0.75408079E-01 0.94304163E+02</pdfrwt>
<totfact> 0.61697644E+03</totfact>
</mgrwt>
</event>
<event>
 8    1  0.2964543E-004  0.9602187E+02  0.7546771E-02  0.1292042E+00
         -3   -1    0    0    0  501 -0.00000000000E+00  0.00000000000E+00  0.16720847789E+03  0.16720847789E+03  0.00000000000E+00 0.  1.
          3   -1    0    0  501    0  0.00000000000E+00 -0.00000000000E+00 -0.35542655285E+03  0.35542655285E+03  0.00000000000E+00 0. -1.
         23    2    1    2    0    0  0.28064640030E+02 -0.28156190105E+01  0.14690394448E+03  0.17550204805E+03  0.91785882555E+02 0.  0.
         23    2    1    2    0    0 -0.28064640030E+02  0.28156190105E+01 -0.33512201944E+03  0.34713298268E+03  0.86017370443E+02 0.  0.
          5    1    4    4  502    0  0.18510359419E+02 -0.26973389337E+02 -0.91897878070E+02  0.97660161437E+02  0.47000000000E+01 0. -1.
         -5    1    3    3    0  503  0.50122319504E+02 -0.22085292695E+01  0.14423464845E+03  0.15278366512E+03  0.47000000000E+01 0.  1.
          5    1    3    3  503    0 -0.22057679474E+02 -0.60708974101E+00  0.26692960294E+01  0.22718382932E+02  0.47000000000E+01 0. -1.
         -5    1    4    4    0  502 -0.46574999449E+02  0.29789008347E+02 -0.24322414137E+03  0.24947282124E+03  0.47000000000E+01 0.  1.
<mgrwt>
<rscale>  0 0.94616787E+02</rscale>
<asrwt>0</asrwt>
<pdfrwt beam="1">  1        3 0.54681008E-01 0.96021872E+02</pdfrwt>
<pdfrwt beam="2">  1       -3 0.25724381E-01 0.96021872E+02</pdfrwt>
<totfact> 0.10720624E+02</totfact>
</mgrwt>
</event>
<event>
 8    1  0.2964543E-004  0.1211762E+03  0.7546771E-02  0.1261885E+00
         -1   -1    0    0    0  501 -0.00000000000E+00  0.00000000000E+00  0.24166541787E+02  0.24166541787E+02  0.00000000000E+00 0.  1.
          1   -1    0    0  501    0  0.00000000000E+00 -0.00000000000E+00 -0.42515134173E+03  0.42515134173E+03  0.00000000000E+00 0. -1.
         23    2    1    2    0    0 -0.22341101270E+02  0.10748224470E+02 -0.21531536817E+03  0.24707158522E+03  0.11861286320E+03 0.  0.
         23    2    1    2    0    0  0.22341101270E+02 -0.10748224470E+02 -0.18566943177E+03  0.20224629830E+03  0.76261249311E+02 0.  0.
          5    1    4    4  502    0  0.45123677928E+01 -0.38971337680E+02 -0.14008197964E+03  0.14554785345E+03  0.47000000000E+01 0. -1.
         -5    1    3    3    0  503  0.14740574448E+02  0.47647831859E+02 -0.40148510946E+02  0.64199636659E+02  0.47000000000E+01 0.  1.
          5    1    3    3  503    0 -0.37081675718E+02 -0.36899607390E+02 -0.17516685722E+03  0.18287194856E+03  0.47000000000E+01 0. -1.
         -5    1    4    4    0  502  0.17828733477E+02  0.28223113211E+02 -0.45587452132E+02  0.56698444851E+02  0.47000000000E+01 0.  1.
<mgrwt>
<rscale>  0 0.10929313E+03</rscale>
<asrwt>0</asrwt>
<pdfrwt beam="1">  1        1 0.65407896E-01 0.12117615E+03</pdfrwt>
<pdfrwt beam="2">  1       -1 0.37179296E-02 0.12117615E+03</pdfrwt>
<totfact> 0.14352250E+04</totfact>
</mgrwt>
</event>
<event>
 8    1  0.2964543E-004  0.1958902E+03  0.7546771E-02  0.1153275E+00
          1   -1    0    0  501    0  0.00000000000E+00  0.00000000000E+00  0.92830199206E+03  0.92830199206E+03  0.00000000000E+00 0. -1.
         -1   -1    0    0    0  501 -0.00000000000E+00 -0.00000000000E+00 -0.81239726021E+02  0.81239726021E+02  0.00000000000E+00 0.  1.
         23    2    1    2    0    0 -0.11707319080E+03  0.12797742821E+03  0.77744488675E+03  0.80174405455E+03  0.91041874662E+02 0.  0.
         23    2    1    2    0    0  0.11707319080E+03 -0.12797742821E+03  0.69617379288E+02  0.20779766353E+03  0.90823649639E+02 0.  0.
          5    1    4    4  502    0  0.27057523659E+02 -0.18078268901E+02 -0.21203398253E+02  0.39122979059E+02  0.47000000000E+01 0. -1.
         -5    1    3    3    0  503  0.14707995103E+02  0.19003118163E+02  0.82729106276E+02  0.86276524299E+02  0.47000000000E+01 0.  1.
          5    1    3    3  503    0 -0.13178118590E+03  0.10897431005E+03  0.69471578048E+03  0.71546753026E+03  0.47000000000E+01 0. -1.
         -5    1    4    4    0  502  0.90015667138E+02 -0.10989915931E+03  0.90820777541E+02  0.16867468447E+03  0.47000000000E+01 0.  1.
<mgrwt>
<rscale>  0 0.19586488E+03</rscale>
<asrwt>0</asrwt>
<pdfrwt beam="1">  1        1 0.14281568E+00 0.19589022E+03</pdfrwt>
<pdfrwt beam="2">  1       -1 0.12498420E-01 0.19589022E+03</pdfrwt>
<totfact> 0.78465642E+02</totfact>
</mgrwt>
</event>
<event>
 8    1  0.2964543E-004  0.9265970E+02  0.7546771E-02  0.1297335E+00
         -2   -1    0    0    0  501 -0.00000000000E+00  0.00000000000E+00  0.13820973571E+03  0.13820973571E+03  0.00000000000E+00 0.  1.
          2   -1    0    0  501    0  0.00000000000E+00 -0.00000000000E+00 -0.62852779189E+02  0.62852779189E+02  0.00000000000E+00 0. -1.
         23    2    1    2    0    0  0.14874325228E+02  0.21045579889E+01  0.54190909551E+02  0.10734278641E+03  0.91433825262E+02 0.  0.
         23    2    1    2    0    0 -0.14874325228E+02 -0.21045579889E+01  0.21166046967E+02  0.93719728482E+02  0.90053935212E+02 0.  0.
          5    1    3    3  502    0 -0.12379207660E+02 -0.39993081433E+02  0.21526742393E+02  0.47309428055E+02  0.47000000000E+01 0. -1.
         -5    1    4    4    0  503 -0.24384024420E+02  0.38187072011E+02  0.24856677667E+02  0.51891979538E+02  0.47000000000E+01 0.  1.
          5    1    4    4  503    0  0.95096991918E+01 -0.40291630000E+02 -0.36906306999E+01  0.41827748944E+02  0.47000000000E+01 0. -1.
         -5    1    3    3    0  502  0.27253532888E+02  0.42097639422E+02  0.32664167158E+02  0.60033358360E+02  0.47000000000E+01 0.  1.
<mgrwt>
<rscale>  0 0.92317464E+02</rscale>
<asrwt>0</asrwt>
<pdfrwt beam="1">  1        2 0.96696583E-02 0.92659695E+02</pdfrwt>
<pdfrwt beam="2">  1       -2 0.21263036E-01 0.92659695E+02</pdfrwt>
<totfact> 0.11393488E+04</totfact>
</mgrwt>
</event>
<event>
 8    1  0.2964543E-004  0.1109365E+03  0.7546771E-02  0.1259090E+00
         -1   -1    0    0    0  501 -0.00000000000E+00  0.00000000000E+00  0.17510662499E+03  0.17510662499E+03  0.00000000000E+00 0.  1.
          1   -1    0    0  501    0  0.00000000000E+00 -0.00000000000E+00 -0.70067797131E+02  0.70067797131E+02  0.00000000000E+00 0. -1.
         23    2    1    2    0    0  0.31619240621E+01  0.62057743203E+02  0.57525913710E+02  0.12449142483E+03  0.91256357878E+02 0.  0.
         23    2    1    2    0    0 -0.31619240621E+01 -0.62057743203E+02  0.47512914146E+02  0.12068299729E+03  0.91900748464E+02 0.  0.
          5    1    4    4  502    0 -0.31083741288E+02  0.46641081168E+01 -0.36113304836E+01  0.31985693440E+02  0.47000000000E+01 0. -1.
         -5    1    3    3    0  503  0.29783236233E+02  0.50743973762E+02  0.70920544728E+02  0.92270286106E+02  0.47000000000E+01 0.  1.
          5    1    3    3  503    0 -0.26621312171E+02  0.11313769442E+02 -0.13394631017E+02  0.32221138726E+02  0.47000000000E+01 0. -1.
         -5    1    4    4    0  502  0.27921817225E+02 -0.66721851320E+02  0.51124244629E+02  0.88697303847E+02  0.47000000000E+01 0.  1.
<mgrwt>
<rscale>  0 0.11080296E+03</rscale>
<asrwt>0</asrwt>
<pdfrwt beam="1">  1        1 0.10779661E-01 0.11093651E+03</pdfrwt>
<pdfrwt beam="2">  1       -1 0.26939481E-01 0.11093651E+03</pdfrwt>
<totfact> 0.66414122E+03</totfact>
</mgrwt>
</event>
<event>
 8    1  0.2964543E-004  0.2999526E+03  0.7546771E-02  0.1085959E+00
         -1   -1    0    0    0  501 -0.00000000000E+00  0.00000000000E+00  0.55009461030E+03  0.55009461030E+03  0.00000000000E+00 0.  1.
          1   -1    0    0  501    0  0.00000000000E+00 -0.00000000000E+00 -0.20663479853E+03  0.20663479853E+03  0.00000000000E+00 0. -1.
         23    2    1    2    0    0 -0.12801533517E+03  0.25250649867E+03  0.35160162794E+03  0.46216370901E+03  0.99116755653E+02 0.  0.
         23    2    1    2    0    0  0.12801533517E+03 -0.25250649867E+03 -0.81418161607E+01  0.29456569982E+03  0.80964216982E+02 0.  0.
          5    1    4    4  502    0  0.11665906899E+03 -0.22550750334E+03  0.18609846142E+02  0.25462008722E+03  0.47000000000E+01 0. -1.
         -5    1    3    3    0  503 -0.21770853731E+02  0.12382514219E+03  0.10242119215E+03  0.16223078164E+03  0.47000000000E+01 0.  1.
          5    1    3    3  503    0 -0.10624448144E+03  0.12868135648E+03  0.24918043579E+03  0.29993292737E+03  0.47000000000E+01 0. -1.
         -5    1    4    4    0  502  0.11356266173E+02 -0.26998995329E+02 -0.26751662303E+02  0.39945612602E+02  0.47000000000E+01 0.  1.
<mgrwt>
<rscale>  0 0.29856822E+03</rscale>
<asrwt>0</asrwt>
<pdfrwt beam="1">  1        1 0.31789969E-01 0.29995264E+03</pdfrwt>
<pdfrwt beam="2">  1       -1 0.84629939E-01 0.29995264E+03</pdfrwt>
<totfact> 0.20473666E+02</totfact>
</mgrwt>
</event>
<event>
 8    1  0.2964543E-004  0.9799736E+02  0.7546771E-02  0.1292523E+00
          2   -1    0    0  501    0  0.00000000000E+00  0.00000000000E+00  0.50944410081E+02  0.50944410081E+02  0.00000000000E+00 0. -1.
         -2   -1    0    0    0  501 -0.00000000000E+00 -0.00000000000E+00 -0.17768692746E+03  0.17768692746E+03  0.00000000000E+00 0.  1.
         23    2    1    2    0    0 -0.29439004078E+02  0.75733124088E+01 -0.10020687859E+03  0.14016027229E+03  0.93163691379E+02 0.  0.
         23    2    1    2    0    0  0.29439004078E+02 -0.75733124088E+01 -0.26535638795E+02  0.88471065251E+02  0.78733596631E+02 0.  0.
          5    1    4    4  502    0  0.10847662354E+02  0.35175477777E+02 -0.72833649719E+01  0.37816972654E+02  0.47000000000E+01 0. -1.
         -5    1    4    4    0  502  0.18591341724E+02 -0.42748790186E+02 -0.19252273823E+02  0.50654092597E+02  0.47000000000E+01 0.  1.
          5    1    3    3  503    0  0.63973434344E+01  0.43888148058E+02 -0.61389276089E+02  0.75880358208E+02  0.47000000000E+01 0. -1.
         -5    1    3    3    0  503 -0.35836347512E+02 -0.36314835649E+02 -0.38817602499E+02  0.64279914087E+02  0.47000000000E+01 0.  1.
<mgrwt>
<rscale>  0 0.94404693E+02</rscale>
<asrwt>0</asrwt>
<pdfrwt beam="1">  1        2 0.78376015E-02 0.97997364E+02</pdfrwt>
<pdfrwt beam="2">  1       -2 0.27336451E-01 0.97997364E+02</pdfrwt>
<totfact> 0.96234940E+03</totfact>
</mgrwt>
</event>
<event>
 8    1  0.2964543E-004  0.9452705E+02  0.7546771E-02  0.1293259E+00
         -2   -1    0    0    0  501 -0.00000000000E+00  0.00000000000E+00  0.19187437438E+03  0.19187437438E+03  0.00000000000E+00 0.  1.
          2   -1    0    0  501    0  0.00000000000E+00 -0.00000000000E+00 -0.56577665169E+02  0.56577665169E+02  0.00000000000E+00 0. -1.
         23    2    1    2    0    0  0.13218671844E+02 -0.15253696040E+02  0.13697383024E+02  0.95514300997E+02  0.92346926667E+02 0.  0.
         23    2    1    2    0    0 -0.13218671844E+02  0.15253696040E+02  0.12159932618E+03  0.15293773855E+03  0.90532575443E+02 0.  0.
          5    1    3    3  502    0 -0.31422408116E+02  0.17859618443E+02 -0.47663475146E+01  0.36757880398E+02  0.47000000000E+01 0. -1.
         -5    1    4    4    0  503  0.38769039791E+02  0.77352563760E+01  0.47309038246E+02  0.61831284454E+02  0.47000000000E+01 0.  1.
          5    1    4    4  503    0 -0.51987711635E+02  0.75184396645E+01  0.74290287938E+02  0.91106454096E+02  0.47000000000E+01 0. -1.
         -5    1    3    3    0  502  0.44641079961E+02 -0.33113314483E+02  0.18463730539E+02  0.58756420598E+02  0.47000000000E+01 0.  1.
<mgrwt>
<rscale>  0 0.94080979E+02</rscale>
<asrwt>0</asrwt>
<pdfrwt beam="1">  1        2 0.87042563E-02 0.94527051E+02</pdfrwt>
<pdfrwt beam="2">  1       -2 0.29519134E-01 0.94527051E+02</pdfrwt>
<totfact> 0.73531105E+03</totfact>
</mgrwt>
</event>
<event>
 8    1  0.2964543E-004  0.9539591E+02  0.7546771E-02  0.1290791E+00
         -3   -1    0    0    0  501 -0.00000000000E+00  0.00000000000E+00  0.44742143216E+02  0.44742143216E+02  0.00000000000E+00 0.  1.
          3   -1    0    0  501    0  0.00000000000E+00 -0.00000000000E+00 -0.24112800428E+03  0.24112800428E+03  0.00000000000E+00 0. -1.
         23    2    1    2    0    0  0.23065680703E+02  0.83731006991E+01 -0.39854401524E+02  0.10256036269E+03  0.91258535117E+02 0.  0.
         23    2    1    2    0    0 -0.23065680703E+02 -0.83731006991E+01 -0.15653145954E+03  0.18330978481E+03  0.92185925930E+02 0.  0.
          5    1    4    4  502    0  0.17521534436E+01  0.22373363735E+02 -0.13714229577E+03  0.13904580805E+03  0.47000000000E+01 0. -1.
         -5    1    4    4    0  502 -0.24817834147E+02 -0.30746464434E+02 -0.19389163767E+02  0.44263976759E+02  0.47000000000E+01 0.  1.
          5    1    3    3  503    0 -0.23007587036E+02 -0.22996963479E+01 -0.48795098785E+02  0.54200455071E+02  0.47000000000E+01 0. -1.
         -5    1    3    3    0  503  0.46073267739E+02  0.10672797047E+02  0.89406972604E+01  0.48359907615E+02  0.47000000000E+01 0.  1.
<mgrwt>
<rscale>  0 0.95171145E+02</rscale>
<asrwt>0</asrwt>
<pdfrwt beam="1">  1        3 0.37096616E-01 0.95395909E+02</pdfrwt>
<pdfrwt beam="2">  1       -3 0.68834067E-02 0.95395909E+02</pdfrwt>
<totfact> 0.21003357E+03</totfact>
</mgrwt>
</event>
<event>
 8    1  0.2964543E-004  0.1004501E+03  0.7546771E-02  0.1283542E+00
         -1   -1    0    0    0  501 -0.00000000000E+00  0.00000000000E+00  0.11480285301E+02  0.11480285301E+02  0.00000000000E+00 0.  1.
          1   -1    0    0  501    0  0.00000000000E+00 -0.00000000000E+00 -0.90320852063E+03  0.90320852063E+03  0.00000000000E+00 0. -1.
         23    2    1    2    0    0 -0.42695962526E+02 -0.13869215374E+02 -0.31737741839E+03  0.33289434565E+03  0.89860554804E+02 0.  0.
         23    2    1    2    0    0  0.42695962526E+02  0.13869215374E+02 -0.57435081693E+03  0.58179446028E+03  0.81182712109E+02 0.  0.
          5    1    4    4  502    0  0.27039690697E+02 -0.28381478730E+02 -0.38853924713E+03  0.39053999766E+03  0.47000000000E+01 0. -1.
         -5    1    4    4    0  502  0.15656271829E+02  0.42250694104E+02 -0.18581156980E+03  0.19125446262E+03  0.47000000000E+01 0.  1.
          5    1    3    3  503    0  0.21138900938E+02 -0.10597332327E+02 -0.17630285630E+03  0.17794365323E+03  0.47000000000E+01 0. -1.
         -5    1    3    3    0  503 -0.63834863465E+02 -0.32718830468E+01 -0.14107456210E+03  0.15495069242E+03  0.47000000000E+01 0.  1.
<mgrwt>
<rscale>  0 0.98471936E+02</rscale>
<asrwt>0</asrwt>
<pdfrwt beam="1">  1        1 0.13895514E+00 0.10045009E+03</pdfrwt>
<pdfrwt beam="2">  1       -1 0.17661979E-02 0.10045009E+03</pdfrwt>
<totfact> 0.14602857E+04</totfact>
</mgrwt>
</event>
<event>
 8    1  0.2964543E-004  0.9449172E+02  0.7546771E-02  0.1295511E+00
         -1   -1    0    0    0  501 -0.00000000000E+00  0.00000000000E+00  0.30530107342E+03  0.30530107342E+03  0.00000000000E+00 0.  1.
          1   -1    0    0  501    0  0.00000000000E+00 -0.00000000000E+00 -0.33941435745E+02  0.33941435745E+02  0.00000000000E+00 0. -1.
         23    2    1    2    0    0 -0.19655379492E+02 -0.98408711986E+01  0.21232209291E+03  0.23239912988E+03  0.91899443641E+02 0.  0.
         23    2    1    2    0    0  0.19655379492E+02  0.98408711986E+01  0.59037544772E+02  0.10684337929E+03  0.86295418867E+02 0.  0.
          5    1    4    4  502    0  0.84199845116E+01 -0.21965913907E+02  0.67595334725E+02  0.71725984061E+02  0.47000000000E+01 0. -1.
         -5    1    4    4    0  502  0.11235394981E+02  0.31806785105E+02 -0.85577899529E+01  0.35117395233E+02  0.47000000000E+01 0.  1.
          5    1    3    3  503    0  0.36066208045E+02  0.20037414370E+01  0.67434792153E+02  0.76644161781E+02  0.47000000000E+01 0. -1.
         -5    1    3    3    0  503 -0.55721587537E+02 -0.11844612636E+02  0.14488730075E+03  0.15575496809E+03  0.47000000000E+01 0.  1.
<mgrwt>
<rscale>  0 0.93101134E+02</rscale>
<asrwt>0</asrwt>
<pdfrwt beam="1">  1        1 0.52217596E-02 0.94491716E+02</pdfrwt>
<pdfrwt beam="2">  1       -1 0.46969394E-01 0.94491716E+02</pdfrwt>
<totfact> 0.66526276E+03</totfact>
</mgrwt>
</event>
<event>
 8    1  0.2964543E-004  0.9456736E+02  0.7546771E-02  0.1292542E+00
          1   -1    0    0  501    0  0.00000000000E+00  0.00000000000E+00  0.78630314061E+02  0.78630314061E+02  0.00000000000E+00 0. -1.
         -1   -1    0    0    0  501 -0.00000000000E+00 -0.00000000000E+00 -0.21290590288E+03  0.21290590288E+03  0.00000000000E+00 0.  1.
         23    2    1    2    0    0 -0.22286568291E+02  0.11021646451E+02 -0.16716334542E+03  0.19205876744E+03  0.91240442132E+02 0.  0.
         23    2    1    2    0    0  0.22286568291E+02 -0.11021646451E+02  0.32887756607E+02  0.99477449499E+02  0.90531710508E+02 0.  0.
          5    1    4    4  502    0 -0.22779614066E+02 -0.55747417925E-01  0.45571502459E+02  0.51164106180E+02  0.47000000000E+01 0. -1.
         -5    1    4    4    0  502  0.45066182357E+02 -0.10965899033E+02 -0.12683745852E+02  0.48313343319E+02  0.47000000000E+01 0.  1.
          5    1    3    3  503    0  0.10551939298E+02 -0.23000857315E+02 -0.12776512511E+03  0.13033188426E+03  0.47000000000E+01 0. -1.
         -5    1    3    3    0  503 -0.32838507588E+02  0.34022503766E+02 -0.39398220310E+02  0.61726883177E+02  0.47000000000E+01 0.  1.
<mgrwt>
<rscale>  0 0.94395994E+02</rscale>
<asrwt>0</asrwt>
<pdfrwt beam="1">  1        1 0.12096972E-01 0.94567363E+02</pdfrwt>
<pdfrwt beam="2">  1       -1 0.32754754E-01 0.94567363E+02</pdfrwt>
<totfact> 0.40776059E+03</totfact>
</mgrwt>
</event>
<event>
 8    1  0.2964543E-004  0.1327097E+03  0.7546771E-02  0.1223925E+00
         -2   -1    0    0    0  501 -0.00000000000E+00  0.00000000000E+00  0.18406474125E+02  0.18406474125E+02  0.00000000000E+00 0.  1.
          2   -1    0    0  501    0  0.00000000000E+00 -0.00000000000E+00 -0.10383669414E+04  0.10383669414E+04  0.00000000000E+00 0. -1.
         23    2    1    2    0    0  0.65259692301E+02 -0.68936396314E+02 -0.66779454828E+03  0.68085344977E+03  0.92740536849E+02 0.  0.
         23    2    1    2    0    0 -0.65259692301E+02  0.68936396314E+02 -0.35216591905E+03  0.37591996581E+03  0.91016108346E+02 0.  0.
          5    1    3    3  502    0  0.75539789368E+02 -0.19108326435E+02 -0.47656051088E+03  0.48291137743E+03  0.47000000000E+01 0. -1.
         -5    1    4    4    0  503 -0.70414307961E+02  0.93936614737E+01 -0.20507627765E+03  0.21708243894E+03  0.47000000000E+01 0.  1.
          5    1    4    4  503    0  0.51546156605E+01  0.59542734840E+02 -0.14708964139E+03  0.15883752686E+03  0.47000000000E+01 0. -1.
         -5    1    3    3    0  502 -0.10280097067E+02 -0.49828069879E+02 -0.19123403740E+03  0.19794207234E+03  0.47000000000E+01 0.  1.
<mgrwt>
<rscale>  0 0.13240885E+03</rscale>
<asrwt>0</asrwt>
<pdfrwt beam="1">  1        2 0.15974877E+00 0.13270969E+03</pdfrwt>
<pdfrwt beam="2">  1       -2 0.28317650E-02 0.13270969E+03</pdfrwt>
<totfact> 0.11052032E+04</totfact>
</mgrwt>
</event>
<event>
 8    1  0.2964543E-004  0.9577940E+02  0.7546771E-02  0.1291402E+00
         -2   -1    0    0    0  501 -0.00000000000E+00  0.00000000000E+00  0.26704892111E+02  0.26704892111E+02  0.00000000000E+00 0.  1.
          2   -1    0    0  501    0  0.00000000000E+00 -0.00000000000E+00 -0.33198147918E+03  0.33198147918E+03  0.00000000000E+00 0. -1.
         23    2    1    2    0    0  0.26539592911E+01 -0.15309781172E+02 -0.16421949471E+03  0.19010979763E+03  0.94510633345E+02 0.  0.
         23    2    1    2    0    0 -0.26539592911E+01  0.15309781172E+02 -0.14105709236E+03  0.16857657366E+03  0.90991895139E+02 0.  0.
          5    1    3    3  502    0  0.10888592948E+01 -0.52716997031E+02 -0.12468821209E+03  0.13546035444E+03  0.47000000000E+01 0. -1.
         -5    1    4    4    0  503  0.28489049349E+02 -0.27019739523E+02 -0.61097354568E+02  0.72778217839E+02  0.47000000000E+01 0.  1.
          5    1    4    4  503    0 -0.31143008640E+02  0.42329520695E+02 -0.79959737796E+02  0.95798355820E+02  0.47000000000E+01 0. -1.
         -5    1    3    3    0  502  0.15650999963E+01  0.37407215858E+02 -0.39531282619E+02  0.54649443197E+02  0.47000000000E+01 0.  1.
<mgrwt>
<rscale>  0 0.94899762E+02</rscale>
<asrwt>0</asrwt>
<pdfrwt beam="1">  1        2 0.51074074E-01 0.95779396E+02</pdfrwt>
<pdfrwt beam="2">  1       -2 0.41084450E-02 0.95779396E+02</pdfrwt>
<totfact> 0.23265969E+04</totfact>
</mgrwt>
</event>
<event>
 8    1  0.2964543E-004  0.1635156E+03  0.7546771E-02  0.1184887E+00
         -2   -1    0    0    0  501 -0.00000000000E+00  0.00000000000E+00  0.83921433402E+02  0.83921433402E+02  0.00000000000E+00 0.  1.
          2   -1    0    0  501    0  0.00000000000E+00 -0.00000000000E+00 -0.60936856624E+03  0.60936856624E+03  0.00000000000E+00 0. -1.
         23    2    1    2    0    0 -0.11082532547E+03 -0.79236143699E+02 -0.50263342814E+03  0.52856192662E+03  0.90425261715E+02 0.  0.
         23    2    1    2    0    0  0.11082532547E+03  0.79236143699E+02 -0.22813704701E+02  0.16472807302E+03  0.89745493963E+02 0.  0.
          5    1    4    4  502    0  0.59635717546E+02 -0.83138282104E+01  0.11742062736E+01  0.60407013724E+02  0.47000000000E+01 0. -1.
         -5    1    4    4    0  502  0.51189607922E+02  0.87549971909E+02 -0.23987910974E+02  0.10432105930E+03  0.47000000000E+01 0.  1.
          5    1    3    3  503    0 -0.35708366841E+02  0.16639156442E+02 -0.16167141597E+03  0.16646827245E+03  0.47000000000E+01 0. -1.
         -5    1    3    3    0  503 -0.75116958626E+02 -0.95875300141E+02 -0.34096201217E+03  0.36209365417E+03  0.47000000000E+01 0.  1.
<mgrwt>
<rscale>  0 0.16342177E+03</rscale>
<asrwt>0</asrwt>
<pdfrwt beam="1">  1        2 0.93749008E-01 0.16351559E+03</pdfrwt>
<pdfrwt beam="2">  1       -2 0.12910990E-01 0.16351559E+03</pdfrwt>
<totfact> 0.21469037E+03</totfact>
</mgrwt>
</event>
<event>
 8    1  0.2964543E-004  0.9444724E+02  0.7546771E-02  0.1292442E+00
          2   -1    0    0  501    0  0.00000000000E+00  0.00000000000E+00  0.33976841593E+03  0.33976841593E+03  0.00000000000E+00 0. -1.
         -2   -1    0    0    0  501 -0.00000000000E+00 -0.00000000000E+00 -0.26786103083E+02  0.26786103083E+02  0.00000000000E+00 0.  1.
         23    2    1    2    0    0  0.23348681155E+02 -0.16355634973E+02  0.18253052167E+03  0.20551806000E+03  0.90042289719E+02 0.  0.
         23    2    1    2    0    0 -0.23348681155E+02  0.16355634973E+02  0.13045179117E+03  0.16103645901E+03  0.90013352361E+02 0.  0.
          5    1    4    4  502    0 -0.11837894717E+01  0.51579618988E+02  0.62085718676E+02  0.80861516904E+02  0.47000000000E+01 0. -1.
         -5    1    4    4    0  502 -0.22164891683E+02 -0.35223984014E+02  0.68366072498E+02  0.80174942107E+02  0.47000000000E+01 0.  1.
          5    1    3    3  503    0  0.27195886539E+02  0.18627848539E+02  0.16008607945E+03  0.16351224975E+03  0.47000000000E+01 0. -1.
         -5    1    3    3    0  503 -0.38472053846E+01 -0.34983483513E+02  0.22444442223E+02  0.42005810249E+02  0.47000000000E+01 0.  1.
<mgrwt>
<rscale>  0 0.94440345E+02</rscale>
<asrwt>0</asrwt>
<pdfrwt beam="1">  1        2 0.52272061E-01 0.94447243E+02</pdfrwt>
<pdfrwt beam="2">  1       -2 0.41209392E-02 0.94447243E+02</pdfrwt>
<totfact> 0.22572986E+04</totfact>
</mgrwt>
</event>
<event>
 8    1  0.2964543E-004  0.1000330E+03  0.7546771E-02  0.1280460E+00
          3   -1    0    0  501    0  0.00000000000E+00  0.00000000000E+00  0.32705795262E+02  0.32705795262E+02  0.00000000000E+00 0. -1.
         -3   -1    0    0    0  501 -0.00000000000E+00 -0.00000000000E+00 -0.41090891735E+03  0.41090891735E+03  0.00000000000E+00 0.  1.
         23    2    1    2    0    0  0.15106428169E+02  0.38817322552E+02 -0.30160821073E+03  0.31762510723E+03  0.90461081489E+02 0.  0.
         23    2    1    2    0    0 -0.15106428169E+02 -0.38817322552E+02 -0.76594911359E+02  0.12598960538E+03  0.90948400289E+02 0.  0.
          5    1    3    3  502    0 -0.19065612397E+02  0.30507146875E+02 -0.26179191127E+03  0.26429392425E+03  0.47000000000E+01 0.  1.
         -5    1    4    4    0  503  0.15830859129E+02 -0.36939707652E+02  0.28701868400E+01  0.40564591390E+02  0.47000000000E+01 0.  1.
          5    1    4    4  503    0 -0.30937287298E+02 -0.18776149003E+01 -0.79465098199E+02  0.85425013988E+02  0.47000000000E+01 0. -1.
         -5    1    3    3    0  502  0.34172040566E+02  0.83101756775E+01 -0.39816299453E+02  0.53331182983E+02  0.47000000000E+01 0. -1.
<mgrwt>
<rscale>  0 0.99922097E+02</rscale>
<asrwt>0</asrwt>
<pdfrwt beam="1">  1        3 0.50316607E-02 0.10003300E+03</pdfrwt>
<pdfrwt beam="2">  1       -3 0.63216758E-01 0.10003300E+03</pdfrwt>
<totfact> 0.12162434E+03</totfact>
</mgrwt>
</event>
<event>
 8    1  0.2964543E-004  0.9345903E+02  0.7546771E-02  0.1294881E+00
          1   -1    0    0  501    0  0.00000000000E+00  0.00000000000E+00  0.20252015380E+03  0.20252015380E+03  0.00000000000E+00 0. -1.
         -1   -1    0    0    0  501 -0.00000000000E+00 -0.00000000000E+00 -0.10186948961E+03  0.10186948961E+03  0.00000000000E+00 0.  1.
         23    2    1    2    0    0 -0.20638270014E+02 -0.77756397369E+01 -0.65359897719E+02  0.11404607217E+03  0.90819555086E+02 0.  0.
         23    2    1    2    0    0  0.20638270014E+02  0.77756397369E+01  0.16601056191E+03  0.19034357124E+03  0.90469716957E+02 0.  0.
          5    1    3    3  502    0 -0.34965966016E+02 -0.32141458029E+02 -0.59610680521E+01  0.48096948302E+02  0.47000000000E+01 0. -1.
         -5    1    3    3    0  502  0.14327696002E+02  0.24365818292E+02 -0.59398829667E+02  0.65949123872E+02  0.47000000000E+01 0.  1.
          5    1    4    4  503    0  0.33403873184E+02 -0.32063701606E+02  0.57639703354E+02  0.74083230944E+02  0.47000000000E+01 0. -1.
         -5    1    4    4    0  503 -0.12765603170E+02  0.39839341343E+02  0.10837085855E+03  0.11626034030E+03  0.47000000000E+01 0.  1.
<mgrwt>
<rscale>  0 0.93373934E+02</rscale>
<asrwt>0</asrwt>
<pdfrwt beam="1">  1        1 0.31156947E-01 0.93459030E+02</pdfrwt>
<pdfrwt beam="2">  1       -1 0.15672229E-01 0.93459030E+02</pdfrwt>
<totfact> 0.40615514E+03</totfact>
</mgrwt>
</event>
<event>
 8    1  0.2964543E-004  0.1163248E+03  0.7546771E-02  0.1249664E+00
         -2   -1    0    0    0  501 -0.00000000000E+00  0.00000000000E+00  0.17739384832E+02  0.17739384832E+02  0.00000000000E+00 0.  1.
          2   -1    0    0  501    0  0.00000000000E+00 -0.00000000000E+00 -0.11654640409E+04  0.11654640409E+04  0.00000000000E+00 0. -1.
         23    2    1    2    0    0  0.68758535430E+02 -0.16221025603E+02 -0.22224955388E+03  0.25044642057E+03  0.91310938608E+02 0.  0.
         23    2    1    2    0    0 -0.68758535430E+02  0.16221025603E+02 -0.92547510220E+03  0.93275700517E+03  0.92415410229E+02 0.  0.
          5    1    3    3  502    0 -0.20050918140E+02 -0.14160102546E+02 -0.67099323614E+02  0.71602772655E+02  0.47000000000E+01 0. -1.
         -5    1    3    3    0  502  0.88809453570E+02 -0.20609230560E+01 -0.15515023026E+03  0.17884364791E+03  0.47000000000E+01 0.  1.
          5    1    4    4  503    0 -0.15880519639E+02  0.50107210057E+02 -0.46834556942E+03  0.47130943741E+03  0.47000000000E+01 0. -1.
         -5    1    4    4    0  503 -0.52878015791E+02 -0.33886184454E+02 -0.45712953278E+03  0.46144756776E+03  0.47000000000E+01 0.  1.
<mgrwt>
<rscale>  0 0.11610533E+03</rscale>
<asrwt>0</asrwt>
<pdfrwt beam="1">  1        2 0.17930219E+00 0.11632483E+03</pdfrwt>
<pdfrwt beam="2">  1       -2 0.27291357E-02 0.11632483E+03</pdfrwt>
<totfact> 0.98004325E+03</totfact>
</mgrwt>
</event>
<event>
 8    1  0.2964543E-004  0.2144597E+03  0.7546771E-02  0.1138184E+00
         -1   -1    0    0    0  501 -0.00000000000E+00  0.00000000000E+00  0.16626713888E+03  0.16626713888E+03  0.00000000000E+00 0.  1.
          1   -1    0    0  501    0  0.00000000000E+00 -0.00000000000E+00 -0.47253290472E+03  0.47253290472E+03  0.00000000000E+00 0. -1.
         23    2    1    2    0    0  0.18368279483E+03 -0.61301150525E+02 -0.35903964642E+03  0.41794256924E+03  0.90935819733E+02 0.  0.
         23    2    1    2    0    0 -0.18368279483E+03  0.61301150525E+02  0.52773880582E+02  0.22085747436E+03  0.92172345836E+02 0.  0.
          5    1    3    3  502    0  0.16220667134E+03 -0.29218392885E+02 -0.33164175512E+03  0.37036881949E+03  0.47000000000E+01 0. -1.
         -5    1    3    3    0  502  0.21476123485E+02 -0.32082757640E+02 -0.27397891301E+02  0.47573749752E+02  0.47000000000E+01 0.  1.
          5    1    4    4  503    0 -0.13390143923E+03  0.49127723123E+02 -0.58790286580E+01  0.14282780396E+03  0.47000000000E+01 0. -1.
         -5    1    4    4    0  503 -0.49781355603E+02  0.12173427403E+02  0.58652909240E+02  0.78029670400E+02  0.47000000000E+01 0.  1.
<mgrwt>
<rscale>  0 0.21432739E+03</rscale>
<asrwt>0</asrwt>
<pdfrwt beam="1">  1        1 0.72697370E-01 0.21445965E+03</pdfrwt>
<pdfrwt beam="2">  1       -1 0.25579560E-01 0.21445965E+03</pdfrwt>
<totfact> 0.65582816E+02</totfact>
</mgrwt>
</event>
<event>
 8    1  0.2964543E-004  0.1058725E+03  0.7546771E-02  0.1268537E+00
         -1   -1    0    0    0  501 -0.00000000000E+00  0.00000000000E+00  0.15379524850E+03  0.15379524850E+03  0.00000000000E+00 0.  1.
          1   -1    0    0  501    0  0.00000000000E+00 -0.00000000000E+00 -0.76042036219E+02  0.76042036219E+02  0.00000000000E+00 0. -1.
         23    2    1    2    0    0 -0.45382603321E+02 -0.25439955616E+02  0.14749943325E+02  0.10663660374E+03  0.91907738538E+02 0.  0.
         23    2    1    2    0    0  0.45382603321E+02  0.25439955616E+02  0.63003268954E+02  0.12320068098E+03  0.92207504405E+02 0.  0.
          5    1    3    3  502    0  0.19064055644E+02  0.89958723016E+01 -0.16346440164E+02  0.27086159604E+02  0.47000000000E+01 0. -1.
         -5    1    4    4    0  503 -0.24917121875E+02  0.17708938769E+02  0.35725893090E+02  0.47253559781E+02  0.47000000000E+01 0.  1.
          5    1    4    4  503    0  0.70299725196E+02  0.77310168472E+01  0.27277375864E+02  0.75947121197E+02  0.47000000000E+01 0. -1.
         -5    1    3    3    0  502 -0.64446658965E+02 -0.34435827918E+02  0.31096383489E+02  0.79550444136E+02  0.47000000000E+01 0.  1.
<mgrwt>
<rscale>  0 0.10580724E+03</rscale>
<asrwt>0</asrwt>
<pdfrwt beam="1">  1        1 0.11698775E-01 0.10587255E+03</pdfrwt>
<pdfrwt beam="2">  1       -1 0.23660807E-01 0.10587255E+03</pdfrwt>
<totfact> 0.73496133E+03</totfact>
</mgrwt>
</event>
<event>
 7    1  0.2964543E-004  0.1677949E+03  0.7546771E-02  0.1188522E+00
          1   -1    0    0  501    0  0.00000000000E+00  0.00000000000E+00  0.78536222420E+02  0.78536222420E+02  0.00000000000E+00 0. -1.
         -1   -1    0    0    0  501 -0.00000000000E+00 -0.00000000000E+00 -0.34042610720E+03  0.34042610720E+03  0.00000000000E+00 0.  1.
         23    2    1    2    0    0 -0.62797839354E+02 -0.68772268030E+02 -0.19201804344E+03  0.23720093655E+03  0.10353821429E+03 0.  0.
          5    1    3    3  502    0 -0.66364545057E+02 -0.23343499080E+01 -0.13033144318E+03  0.14634916164E+03  0.47000000000E+01 0. -1.
         -5    1    1    2    0  503  0.53158873230E+02 -0.63470112210E+01 -0.88580130825E+02  0.10360830050E+03  0.47000000000E+01 0.  1.
          5    1    1    2  503    0  0.96389661239E+01  0.75119279251E+02  0.18708289484E+02  0.78153092572E+02  0.47000000000E+01 0. -1.
         -5    1    3    3    0  502  0.35667057034E+01 -0.66437918122E+02 -0.61686600258E+02  0.90851774916E+02  0.47000000000E+01 0.  1.
<mgrwt>
<rscale>  0 0.16015507E+03</rscale>
<asrwt>0</asrwt>
<pdfrwt beam="1">  1        1 0.12082496E-01 0.16779490E+03</pdfrwt>
<pdfrwt beam="2">  1       -1 0.52373247E-01 0.16779490E+03</pdfrwt>
<totfact> 0.18397262E+03</totfact>
</mgrwt>
</event>
<event>
 7    1  0.2964543E-004  0.3358410E+03  0.7546771E-02  0.1087671E+00
          1   -1    0    0  501    0  0.00000000000E+00  0.00000000000E+00  0.21852190845E+03  0.21852190845E+03  0.00000000000E+00 0. -1.
         -1   -1    0    0    0  501 -0.00000000000E+00 -0.00000000000E+00 -0.40070690334E+03  0.40070690334E+03  0.00000000000E+00 0.  1.
         23    2    1    2    0    0  0.15207928636E+03 -0.92352147734E+02 -0.19968232445E+03  0.28293230713E+03  0.92307265102E+02 0.  0.
          5    1    3    3  502    0  0.14357561910E+03 -0.42784733070E+02 -0.15191585858E+03  0.21341276876E+03  0.47000000000E+01 0. -1.
         -5    1    3    3    0  502  0.85036672627E+01 -0.49567414664E+02 -0.47766465874E+02  0.69519538372E+02  0.47000000000E+01 0.  1.
          5    1    1    2  503    0  0.30232114934E+02  0.12626300850E+03  0.64339236838E+02  0.14497570654E+03  0.47000000000E+01 0. -1.
         -5    1    1    2    0  503 -0.18231140129E+03 -0.33910860765E+02 -0.46841907277E+02  0.19132079813E+03  0.47000000000E+01 0.  1.
<mgrwt>
<rscale>  0 0.29518778E+03</rscale>
<asrwt>0</asrwt>
<pdfrwt beam="1">  1        1 0.33618756E-01 0.33584101E+03</pdfrwt>
<pdfrwt beam="2">  1       -1 0.61647215E-01 0.33584101E+03</pdfrwt>
<totfact> 0.36206533E+02</totfact>
</mgrwt>
</event>
<event>
 8    1  0.2964543E-004  0.9672534E+02  0.7546771E-02  0.1287685E+00
          2   -1    0    0  501    0  0.00000000000E+00  0.00000000000E+00  0.71243776618E+03  0.71243776618E+03  0.00000000000E+00 0.  1.
         -2   -1    0    0    0  501 -0.00000000000E+00 -0.00000000000E+00 -0.35120626545E+02  0.35120626545E+02  0.00000000000E+00 0. -1.
         23    2    1    2    0    0  0.19458539056E+02  0.18472974405E+02  0.42741093507E+02  0.10574777502E+03  0.92929571835E+02 0.  0.
         23    2    1    2    0    0 -0.19458539056E+02 -0.18472974405E+02  0.63457604612E+03  0.64181061770E+03  0.92272559071E+02 0.  0.
          5    1    3    3  502    0  0.13768106216E+02 -0.29930598379E+02  0.45886444508E+02  0.56683835947E+02  0.47000000000E+01 0. -1.
         -5    1    3    3    0  502  0.56904328397E+01  0.48403572784E+02 -0.31453510016E+01  0.49063939070E+02  0.47000000000E+01 0.  1.
          5    1    4    4  503    0  0.15572177151E+02 -0.47587091355E+02  0.32699912353E+03  0.33084368024E+03  0.47000000000E+01 0. -1.
         -5    1    4    4    0  503 -0.35030716207E+02  0.29114116950E+02  0.30757692260E+03  0.31096693747E+03  0.47000000000E+01 0.  1.
<mgrwt>
<rscale>  0 0.96567185E+02</rscale>
<asrwt>0</asrwt>
<pdfrwt beam="1">  1        2 0.10960580E+00 0.96725337E+02</pdfrwt>
<pdfrwt beam="2">  1       -2 0.54031738E-02 0.96725337E+02</pdfrwt>
<totfact> 0.67492551E+03</totfact>
</mgrwt>
</event>
<event>
 8    1  0.2964543E-004  0.1064967E+03  0.7546771E-02  0.1267917E+00
         -2   -1    0    0    0  501 -0.00000000000E+00  0.00000000000E+00  0.14682300252E+03  0.14682300252E+03  0.00000000000E+00 0.  1.
          2   -1    0    0  501    0  0.00000000000E+00 -0.00000000000E+00 -0.25603485147E+03  0.25603485147E+03  0.00000000000E+00 0. -1.
         23    2    1    2    0    0  0.26018393002E+02  0.38576111406E+02  0.11432949253E+03  0.15524469760E+03  0.94152058522E+02 0.  0.
         23    2    1    2    0    0 -0.26018393002E+02 -0.38576111406E+02 -0.22354134148E+03  0.24761315640E+03  0.95793897118E+02 0.  0.
          5    1    3    3  502    0  0.18143744909E+01  0.29137057377E+02 -0.75666937134E+01  0.30522203740E+02  0.47000000000E+01 0. -1.
         -5    1    3    3    0  502  0.24204018511E+02  0.94390540297E+01  0.12189618624E+03  0.12472249386E+03  0.47000000000E+01 0.  1.
          5    1    4    4  503    0 -0.40489577532E+02 -0.13179613121E+02 -0.21126274919E+03  0.21556239766E+03  0.47000000000E+01 0. -1.
         -5    1    4    4    0  503  0.14471184530E+02 -0.25396498286E+02 -0.12278592290E+02  0.32050758735E+02  0.47000000000E+01 0.  1.
<mgrwt>
<rscale>  0 0.10612616E+03</rscale>
<asrwt>0</asrwt>
<pdfrwt beam="1">  1        2 0.39389977E-01 0.10649668E+03</pdfrwt>
<pdfrwt beam="2">  1       -2 0.22588154E-01 0.10649668E+03</pdfrwt>
<totfact> 0.21310341E+03</totfact>
</mgrwt>
</event>
<event>
 8    1  0.2964543E-004  0.9835233E+02  0.7546771E-02  0.1288921E+00
         -2   -1    0    0    0  501 -0.00000000000E+00  0.00000000000E+00  0.15673720003E+02  0.15673720003E+02  0.00000000000E+00 0.  1.
          2   -1    0    0  501    0  0.00000000000E+00 -0.00000000000E+00 -0.60985278437E+03  0.60985278437E+03  0.00000000000E+00 0. -1.
         23    2    1    2    0    0 -0.78215951955E+01  0.93818928652E+01 -0.19611142005E+03  0.21548866478E+03  0.88467385574E+02 0.  0.
         23    2    1    2    0    0  0.78215951955E+01 -0.93818928652E+01 -0.39806764432E+03  0.41003783959E+03  0.97590897008E+02 0.  0.
          5    1    3    3  502    0 -0.35789254042E+02 -0.24885284045E+02 -0.11330347908E+03  0.12149039649E+03  0.47000000000E+01 0. -1.
         -5    1    3    3    0  502  0.27967658847E+02  0.34267176910E+02 -0.82807940961E+02  0.93998268287E+02  0.47000000000E+01 0.  1.
          5    1    4    4  503    0 -0.32504137267E+02 -0.36783288844E+02 -0.20688459537E+03  0.21268017086E+03  0.47000000000E+01 0. -1.
         -5    1    4    4    0  503  0.40325732462E+02  0.27401395978E+02 -0.19118304895E+03  0.19735766873E+03  0.47000000000E+01 0.  1.
<mgrwt>
<rscale>  0 0.96008441E+02</rscale>
<asrwt>0</asrwt>
<pdfrwt beam="1">  1        2 0.93823517E-01 0.98352328E+02</pdfrwt>
<pdfrwt beam="2">  1       -2 0.24113412E-02 0.98352328E+02</pdfrwt>
<totfact> 0.26420804E+04</totfact>
</mgrwt>
</event>
<event>
 8    1  0.2964543E-004  0.1000505E+03  0.7546771E-02  0.1281021E+00
          2   -1    0    0  501    0  0.00000000000E+00  0.00000000000E+00  0.25504628389E+03  0.25504628389E+03  0.00000000000E+00 0. -1.
         -2   -1    0    0    0  501 -0.00000000000E+00 -0.00000000000E+00 -0.39116364900E+02  0.39116364900E+02  0.00000000000E+00 0.  1.
         23    2    1    2    0    0 -0.36506879558E+02 -0.19814777331E+02  0.90815253803E+02  0.13396344572E+03  0.89293990892E+02 0.  0.
         23    2    1    2    0    0  0.36506879558E+02  0.19814777331E+02  0.12511466518E+03  0.16019920307E+03  0.91020478818E+02 0.  0.
          5    1    4    4  502    0  0.26979680030E+01 -0.26903546760E+02  0.86218335273E+02  0.90480778052E+02  0.47000000000E+01 0. -1.
         -5    1    4    4    0  502  0.33808911554E+02  0.46718324091E+02  0.38896329911E+02  0.69718425018E+02  0.47000000000E+01 0.  1.
          5    1    3    3  503    0  0.26279287921E+02  0.60240393871E+01  0.12148262031E+02  0.29942616695E+02  0.47000000000E+01 0. -1.
         -5    1    3    3    0  503 -0.62786167479E+02 -0.25838816718E+02  0.78666991771E+02  0.10402082902E+03  0.47000000000E+01 0.  1.
<mgrwt>
<rscale>  0 0.99656174E+02</rscale>
<asrwt>0</asrwt>
<pdfrwt beam="1">  1        2 0.39237889E-01 0.10005051E+03</pdfrwt>
<pdfrwt beam="2">  1       -2 0.60179024E-02 0.10005051E+03</pdfrwt>
<totfact> 0.17456312E+04</totfact>
</mgrwt>
</event>
<event>
 8    1  0.2964543E-004  0.1595876E+03  0.7546771E-02  0.1190041E+00
          3   -1    0    0  501    0  0.00000000000E+00  0.00000000000E+00  0.58742165862E+02  0.58742165862E+02  0.00000000000E+00 0. -1.
         -3   -1    0    0    0  501 -0.00000000000E+00 -0.00000000000E+00 -0.48964538570E+03  0.48964538570E+03  0.00000000000E+00 0.  1.
         23    2    1    2    0    0  0.11064201360E+03 -0.62364500634E+02 -0.11784817891E+03  0.19838447473E+03  0.96629293847E+02 0.  0.
         23    2    1    2    0    0 -0.11064201360E+03  0.62364500634E+02 -0.31305504092E+03  0.35000307683E+03  0.91475182578E+02 0.  0.
          5    1    4    4  502    0 -0.26807072901E+02  0.16104045101E+02 -0.11620208831E+02  0.33690928741E+02  0.47000000000E+01 0. -1.
         -5    1    4    4    0  502 -0.83834940698E+02  0.46260455533E+02 -0.30143483209E+03  0.31631214809E+03  0.47000000000E+01 0.  1.
          5    1    3    3  503    0  0.10597096871E+03 -0.13264851023E+02 -0.61408785804E+02  0.12328394646E+03  0.47000000000E+01 0. -1.
         -5    1    3    3    0  503  0.46710448937E+01 -0.49099649611E+02 -0.56439393104E+02  0.75100528269E+02  0.47000000000E+01 0.  1.
<mgrwt>
<rscale>  0 0.15881527E+03</rscale>
<asrwt>0</asrwt>
<pdfrwt beam="1">  1        3 0.90372559E-02 0.15958761E+03</pdfrwt>
<pdfrwt beam="2">  1       -3 0.75330062E-01 0.15958761E+03</pdfrwt>
<totfact> 0.35249372E+02</totfact>
</mgrwt>
</event>
<event>
 8    1  0.2964543E-004  0.1098027E+03  0.7546771E-02  0.1264481E+00
          1   -1    0    0  501    0  0.00000000000E+00  0.00000000000E+00  0.19212992851E+03  0.19212992851E+03  0.00000000000E+00 0. -1.
         -1   -1    0    0    0  501 -0.00000000000E+00 -0.00000000000E+00 -0.11442471033E+03  0.11442471033E+03  0.00000000000E+00 0.  1.
         23    2    1    2    0    0 -0.18173336241E+02  0.52224505334E+02  0.14655488415E+03  0.18312556771E+03  0.94862903044E+02 0.  0.
         23    2    1    2    0    0  0.18173336241E+02 -0.52224505334E+02 -0.68849665977E+02  0.12342907112E+03  0.86236824999E+02 0.  0.
          5    1    3    3  502    0 -0.36219103035E+02  0.62791016049E+02  0.60783476746E+02  0.94716715349E+02  0.47000000000E+01 0. -1.
         -5    1    3    3    0  502  0.18045766794E+02 -0.10566510715E+02  0.85771407408E+02  0.88408852365E+02  0.47000000000E+01 0.  1.
          5    1    4    4  503    0 -0.24143711227E+02 -0.46817027394E+02 -0.15806498267E+02  0.55196813615E+02  0.47000000000E+01 0. -1.
         -5    1    4    4    0  503  0.42317047468E+02 -0.54074779400E+01 -0.53043167710E+02  0.68232257509E+02  0.47000000000E+01 0.  1.
<mgrwt>
<rscale>  0 0.10791451E+03</rscale>
<asrwt>0</asrwt>
<pdfrwt beam="1">  1        1 0.29558451E-01 0.10980273E+03</pdfrwt>
<pdfrwt beam="2">  1       -1 0.17603802E-01 0.10980273E+03</pdfrwt>
<totfact> 0.36476665E+03</totfact>
</mgrwt>
</event>
<event>
 8    1  0.2964543E-004  0.1073038E+03  0.7546771E-02  0.1269760E+00
          2   -1    0    0  501    0  0.00000000000E+00  0.00000000000E+00  0.49421611054E+03  0.49421611054E+03  0.00000000000E+00 0. -1.
         -2   -1    0    0    0  501 -0.00000000000E+00 -0.00000000000E+00 -0.21602818645E+02  0.21602818645E+02  0.00000000000E+00 0.  1.
         23    2    1    2    0    0  0.54718499095E+02  0.51192716336E+01  0.24037713229E+03  0.25999136814E+03  0.82425873941E+02 0.  0.
         23    2    1    2    0    0 -0.54718499095E+02 -0.51192716336E+01  0.23223615961E+03  0.25582756104E+03  0.92161738677E+02 0.  0.
          5    1    3    3  502    0  0.44873741290E+02  0.28585086771E+02  0.22178845380E+03  0.22812927932E+03  0.47000000000E+01 0. -1.
         -5    1    3    3    0  502  0.98447578050E+01 -0.23465815137E+02  0.18588678494E+02  0.31862088827E+02  0.47000000000E+01 0.  1.
          5    1    4    4  503    0 -0.55458757736E+02  0.34410531134E+02  0.11913214489E+03  0.13592025753E+03  0.47000000000E+01 0. -1.
         -5    1    4    4    0  503  0.74025864080E+00 -0.39529802768E+02  0.11310401472E+03  0.11990730351E+03  0.47000000000E+01 0.  1.
<mgrwt>
<rscale>  0 0.10518263E+03</rscale>
<asrwt>0</asrwt>
<pdfrwt beam="1">  1        2 0.76033239E-01 0.10730381E+03</pdfrwt>
<pdfrwt beam="2">  1       -2 0.33235109E-02 0.10730381E+03</pdfrwt>
<totfact> 0.21068539E+04</totfact>
</mgrwt>
</event>
<event>
 8    1  0.2964543E-004  0.9604553E+02  0.7546771E-02  0.1289552E+00
         -2   -1    0    0    0  501 -0.00000000000E+00  0.00000000000E+00  0.64648239597E+03  0.64648239597E+03  0.00000000000E+00 0.  1.
          2   -1    0    0  501    0  0.00000000000E+00 -0.00000000000E+00 -0.17837014150E+02  0.17837014150E+02  0.00000000000E+00 0. -1.
         23    2    1    2    0    0  0.15766756072E+02 -0.10652121727E+02  0.46510191209E+03  0.47465863277E+03  0.92838411951E+02 0.  0.
         23    2    1    2    0    0 -0.15766756072E+02  0.10652121727E+02  0.16354346972E+03  0.18966077735E+03  0.94141838100E+02 0.  0.
          5    1    4    4  502    0 -0.49359387599E+02  0.28687350667E+02  0.10565725439E+03  0.12018676565E+03  0.47000000000E+01 0. -1.
         -5    1    3    3    0  503  0.45687967395E+02 -0.27686952849E+02  0.35970645810E+03  0.36368225654E+03  0.47000000000E+01 0.  1.
          5    1    3    3  503    0 -0.29921211322E+02  0.17034831121E+02  0.10539545400E+03  0.11097637623E+03  0.47000000000E+01 0. -1.
         -5    1    4    4    0  502  0.33592631526E+02 -0.18035228939E+02  0.57886215336E+02  0.69474011700E+02  0.47000000000E+01 0.  1.
<mgrwt>
<rscale>  0 0.95724616E+02</rscale>
<asrwt>0</asrwt>
<pdfrwt beam="1">  1        2 0.27441565E-02 0.96045531E+02</pdfrwt>
<pdfrwt beam="2">  1       -2 0.99458812E-01 0.96045531E+02</pdfrwt>
<totfact> 0.28479790E+03</totfact>
</mgrwt>
</event>
<event>
 8    1  0.2964543E-004  0.1050823E+03  0.7546771E-02  0.1270126E+00
          1   -1    0    0  501    0  0.00000000000E+00  0.00000000000E+00  0.96342202558E+02  0.96342202558E+02  0.00000000000E+00 0. -1.
         -1   -1    0    0    0  501 -0.00000000000E+00 -0.00000000000E+00 -0.48733198125E+03  0.48733198125E+03  0.00000000000E+00 0.  1.
         23    2    1    2    0    0  0.45664422773E+02  0.22399055843E+02 -0.45076911169E+03  0.46277810967E+03  0.91563254245E+02 0.  0.
         23    2    1    2    0    0 -0.45664422773E+02 -0.22399055843E+02  0.59779333001E+02  0.12089607413E+03  0.91952894879E+02 0.  0.
          5    1    3    3  502    0  0.44251405844E+02 -0.28965315033E+02 -0.22171765736E+03  0.22798681097E+03  0.47000000000E+01 0. -1.
         -5    1    3    3    0  502  0.14130169290E+01  0.51364370876E+02 -0.22905145433E+03  0.23479129870E+03  0.47000000000E+01 0.  1.
          5    1    4    4  503    0 -0.72455171207E+02 -0.94692733013E+01  0.51947326458E+02  0.89777690422E+02  0.47000000000E+01 0. -1.
         -5    1    4    4    0  503  0.26790748434E+02 -0.12929782542E+02  0.78320065439E+01  0.31118383710E+02  0.47000000000E+01 0.  1.
<mgrwt>
<rscale>  0 0.10499701E+03</rscale>
<asrwt>0</asrwt>
<pdfrwt beam="1">  1        1 0.14821877E-01 0.10508231E+03</pdfrwt>
<pdfrwt beam="2">  1       -1 0.74974153E-01 0.10508231E+03</pdfrwt>
<totfact> 0.69896700E+02</totfact>
</mgrwt>
</event>
<event>
 8    1  0.2964543E-004  0.9813793E+02  0.7546771E-02  0.1284325E+00
          3   -1    0    0  501    0  0.00000000000E+00  0.00000000000E+00  0.15097160091E+03  0.15097160091E+03  0.00000000000E+00 0. -1.
         -3   -1    0    0    0  501 -0.00000000000E+00 -0.00000000000E+00 -0.64240189712E+02  0.64240189712E+02  0.00000000000E+00 0.  1.
         23    2    1    2    0    0 -0.38592644547E+02 -0.20908560105E+02  0.33623749088E+02  0.10362560284E+03  0.87642164297E+02 0.  0.
         23    2    1    2    0    0  0.38592644547E+02  0.20908560105E+02  0.53107662114E+02  0.11158618778E+03  0.87775243835E+02 0.  0.
          5    1    3    3  502    0 -0.43507296199E+02 -0.50963605982E+02  0.24251613412E+02  0.71417117768E+02  0.47000000000E+01 0. -1.
         -5    1    3    3    0  502  0.49146516519E+01  0.30055045877E+02  0.93721356760E+01  0.32208485073E+02  0.47000000000E+01 0.  1.
          5    1    4    4  503    0 -0.52700893820E+01  0.28754063411E+02 -0.12499596458E+02  0.32138760342E+02  0.47000000000E+01 0. -1.
         -5    1    4    4    0  503  0.43862733929E+02 -0.78455033061E+01  0.65607258572E+02  0.79447427442E+02  0.47000000000E+01 0.  1.
<mgrwt>
<rscale>  0 0.98108165E+02</rscale>
<asrwt>0</asrwt>
<pdfrwt beam="1">  1        3 0.23226400E-01 0.98137931E+02</pdfrwt>
<pdfrwt beam="2">  1       -3 0.98831061E-02 0.98137931E+02</pdfrwt>
<totfact> 0.27727369E+03</totfact>
</mgrwt>
</event>
<event>
 8    1  0.2964543E-004  0.9292713E+02  0.7546771E-02  0.1296500E+00
          2   -1    0    0  501    0  0.00000000000E+00  0.00000000000E+00  0.21370087960E+03  0.21370087960E+03  0.00000000000E+00 0. -1.
         -2   -1    0    0    0  501 -0.00000000000E+00 -0.00000000000E+00 -0.63068308835E+02  0.63068308835E+02  0.00000000000E+00 0.  1.
         23    2    1    2    0    0  0.10405447188E+02 -0.12686561197E+02 -0.81651104283E+01  0.93285155640E+02  0.91467092816E+02 0.  0.
         23    2    1    2    0    0 -0.10405447188E+02  0.12686561197E+02  0.15879768120E+03  0.18348403280E+03  0.90445920708E+02 0.  0.
          5    1    4    4  502    0  0.36299471972E+02  0.88419534093E+01  0.36547506418E+02  0.52475156321E+02  0.47000000000E+01 0. -1.
         -5    1    3    3    0  503  0.22628795652E+02  0.10259830464E+02 -0.42807140126E+02  0.49717881688E+02  0.47000000000E+01 0.  1.
          5    1    3    3  503    0 -0.12223348465E+02 -0.22946391662E+02  0.34642029698E+02  0.43567273951E+02  0.47000000000E+01 0. -1.
         -5    1    4    4    0  502 -0.46704919160E+02  0.38446077880E+01  0.12225017478E+03  0.13100887648E+03  0.47000000000E+01 0.  1.
<mgrwt>
<rscale>  0 0.92674866E+02</rscale>
<asrwt>0</asrwt>
<pdfrwt beam="1">  1        2 0.32877058E-01 0.92927129E+02</pdfrwt>
<pdfrwt beam="2">  1       -2 0.97028168E-02 0.92927129E+02</pdfrwt>
<totfact> 0.10080982E+04</totfact>
</mgrwt>
</event>
<event>
 8    1  0.2964543E-004  0.9541763E+02  0.7546771E-02  0.1291260E+00
          2   -1    0    0  501    0  0.00000000000E+00  0.00000000000E+00  0.12381711093E+02  0.12381711093E+02  0.00000000000E+00 0. -1.
         -2   -1    0    0    0  501 -0.00000000000E+00 -0.00000000000E+00 -0.72148679946E+03  0.72148679946E+03  0.00000000000E+00 0.  1.
         23    2    1    2    0    0 -0.23149650598E+02 -0.63498473162E+01 -0.36001213033E+03  0.37244228725E+03  0.92348776180E+02 0.  0.
         23    2    1    2    0    0  0.23149650598E+02  0.63498473162E+01 -0.34909295803E+03  0.36142622330E+03  0.90480907695E+02 0.  0.
          5    1    4    4  502    0  0.50659652629E+02 -0.14740874283E+02 -0.14532861259E+03  0.15468092777E+03  0.47000000000E+01 0. -1.
         -5    1    4    4    0  502 -0.27510002031E+02  0.21090721599E+02 -0.20376434544E+03  0.20674529553E+03  0.47000000000E+01 0.  1.
          5    1    3    3  503    0 -0.34619925439E+02 -0.37595560650E+02 -0.12636972361E+03  0.13639414380E+03  0.47000000000E+01 0. -1.
         -5    1    3    3    0  503  0.11470274840E+02  0.31245713334E+02 -0.23364240673E+03  0.23604814345E+03  0.47000000000E+01 0.  1.
<mgrwt>
<rscale>  0 0.94962730E+02</rscale>
<asrwt>0</asrwt>
<pdfrwt beam="1">  1        2 0.19048788E-02 0.95417626E+02</pdfrwt>
<pdfrwt beam="2">  1       -2 0.11099796E+00 0.95417626E+02</pdfrwt>
<totfact> 0.36059222E+03</totfact>
</mgrwt>
</event>
<event>
 8    1  0.2964543E-004  0.1890066E+03  0.7546771E-02  0.1160683E+00
         -1   -1    0    0    0  501 -0.00000000000E+00  0.00000000000E+00  0.76382420187E+02  0.76382420187E+02  0.00000000000E+00 0.  1.
          1   -1    0    0  501    0  0.00000000000E+00 -0.00000000000E+00 -0.45702802737E+03  0.45702802737E+03  0.00000000000E+00 0. -1.
         23    2    1    2    0    0 -0.14893599397E+03 -0.61225560379E+02 -0.21045432834E+03  0.27907100008E+03  0.87516279754E+02 0.  0.
         23    2    1    2    0    0  0.14893599397E+03  0.61225560379E+02 -0.17019127884E+03  0.25433944748E+03  0.98959504881E+02 0.  0.
          5    1    4    4  502    0  0.58564938181E+02  0.63364274048E+02 -0.12808223871E+03  0.15450577039E+03  0.47000000000E+01 0. -1.
         -5    1    3    3    0  503 -0.21666253766E+02 -0.33755867229E+02 -0.12847168910E+02  0.42379533665E+02  0.47000000000E+01 0.  1.
          5    1    3    3  503    0 -0.12726974021E+03 -0.27469693150E+02 -0.19760715943E+03  0.23669146641E+03  0.47000000000E+01 0. -1.
         -5    1    4    4    0  502  0.90371055792E+02 -0.21387136695E+01 -0.42109040131E+02  0.99833677093E+02  0.47000000000E+01 0.  1.
<mgrwt>
<rscale>  0 0.18755700E+03</rscale>
<asrwt>0</asrwt>
<pdfrwt beam="1">  1        1 0.70312003E-01 0.18900657E+03</pdfrwt>
<pdfrwt beam="2">  1       -1 0.11751142E-01 0.18900657E+03</pdfrwt>
<totfact> 0.23809931E+03</totfact>
</mgrwt>
</event>
<event>
 8    1  0.2964543E-004  0.9511387E+02  0.7546771E-02  0.1294342E+00
          2   -1    0    0  501    0  0.00000000000E+00  0.00000000000E+00  0.51245894912E+02  0.51245894912E+02  0.00000000000E+00 0. -1.
         -2   -1    0    0    0  501 -0.00000000000E+00 -0.00000000000E+00 -0.27092861814E+03  0.27092861814E+03  0.00000000000E+00 0.  1.
         23    2    1    2    0    0  0.29275424938E+01 -0.20638609816E+02 -0.11666040402E+02  0.95826639372E+02  0.92801538750E+02 0.  0.
         23    2    1    2    0    0 -0.29275424938E+01  0.20638609816E+02 -0.20801668283E+03  0.22634787368E+03  0.86763453512E+02 0.  0.
          5    1    3    3  502    0  0.36008871368E+02 -0.27214487240E+02  0.19752611847E+02  0.49492654079E+02  0.47000000000E+01 0. -1.
         -5    1    4    4    0  503 -0.43625793680E+02  0.17829068883E+02 -0.12641420750E+03  0.13499528669E+03  0.47000000000E+01 0.  1.
          5    1    4    4  503    0  0.40698251186E+02  0.28095409331E+01 -0.81602475323E+02  0.91352586985E+02  0.47000000000E+01 0. -1.
         -5    1    3    3    0  502 -0.33081328874E+02  0.65758774246E+01 -0.31418652249E+02  0.46333985293E+02  0.47000000000E+01 0.  1.
<mgrwt>
<rscale>  0 0.93608120E+02</rscale>
<asrwt>0</asrwt>
<pdfrwt beam="1">  1        2 0.78839837E-02 0.95113870E+02</pdfrwt>
<pdfrwt beam="2">  1       -2 0.41681327E-01 0.95113870E+02</pdfrwt>
<totfact> 0.44165845E+03</totfact>
</mgrwt>
</event>
<event>
 8    1  0.2964543E-004  0.1753727E+03  0.7546771E-02  0.1172443E+00
          2   -1    0    0  501    0  0.00000000000E+00  0.00000000000E+00  0.25618238819E+03  0.25618238819E+03  0.00000000000E+00 0. -1.
         -2   -1    0    0    0  501 -0.00000000000E+00 -0.00000000000E+00 -0.16608883065E+03  0.16608883065E+03  0.00000000000E+00 0.  1.
         23    2    1    2    0    0  0.14776907116E+03  0.26375325380E+02 -0.66357521882E+02  0.18750710997E+03  0.90687592298E+02 0.  0.
         23    2    1    2    0    0 -0.14776907116E+03 -0.26375325380E+02  0.15645107942E+03  0.23476410887E+03  0.90032718396E+02 0.  0.
          5    1    3    3  502    0  0.45069773650E+02 -0.15953272424E+02  0.14331931795E+02  0.50132680628E+02  0.47000000000E+01 0. -1.
         -5    1    3    3    0  502  0.10269929751E+03  0.42328597804E+02 -0.80689453677E+02  0.13737442934E+03  0.47000000000E+01 0.  1.
          5    1    4    4  503    0 -0.85657429740E+01 -0.33880919997E+02  0.37137544542E+02  0.51211091642E+02  0.47000000000E+01 0. -1.
         -5    1    4    4    0  503 -0.13920332819E+03  0.75055946170E+01  0.11931353488E+03  0.18355301723E+03  0.47000000000E+01 0.  1.
<mgrwt>
<rscale>  0 0.17528824E+03</rscale>
<asrwt>0</asrwt>
<pdfrwt beam="1">  1        2 0.39412675E-01 0.17537273E+03</pdfrwt>
<pdfrwt beam="2">  1       -2 0.25552128E-01 0.17537273E+03</pdfrwt>
<totfact> 0.17512770E+03</totfact>
</mgrwt>
</event>
<event>
 8    1  0.2964543E-004  0.9962051E+02  0.7546771E-02  0.1281789E+00
          1   -1    0    0  501    0  0.00000000000E+00  0.00000000000E+00  0.82362976539E+02  0.82362976539E+02  0.00000000000E+00 0. -1.
         -1   -1    0    0    0  501 -0.00000000000E+00 -0.00000000000E+00 -0.18784879118E+03  0.18784879118E+03  0.00000000000E+00 0.  1.
         23    2    1    2    0    0 -0.35870133107E+02 -0.19721139311E+02  0.29313313383E+02  0.10259598507E+03  0.89392818653E+02 0.  0.
         23    2    1    2    0    0  0.35870133107E+02  0.19721139311E+02 -0.13479912803E+03  0.16761578265E+03  0.90822111246E+02 0.  0.
          5    1    4    4  502    0 -0.30010713441E+02  0.11940669389E+02 -0.36897858015E+02  0.49262200852E+02  0.47000000000E+01 0. -1.
         -5    1    3    3    0  503  0.12338073121E+02  0.23835635684E+02  0.25539606751E+02  0.37346045170E+02  0.47000000000E+01 0.  1.
          5    1    3    3  503    0 -0.48208206228E+02 -0.43556774995E+02  0.37737066320E+01  0.65249939904E+02  0.47000000000E+01 0. -1.
         -5    1    4    4    0  502  0.65880846548E+02  0.77804699223E+01 -0.97901270015E+02  0.11835358180E+03  0.47000000000E+01 0.  1.
<mgrwt>
<rscale>  0 0.99293576E+02</rscale>
<asrwt>0</asrwt>
<pdfrwt beam="1">  1        1 0.12671227E-01 0.99620508E+02</pdfrwt>
<pdfrwt beam="2">  1       -1 0.28899814E-01 0.99620508E+02</pdfrwt>
<totfact> 0.47502252E+03</totfact>
</mgrwt>
</event>
<event>
 8    1  0.2964543E-004  0.1336040E+03  0.7546771E-02  0.1225251E+00
         -1   -1    0    0    0  501 -0.00000000000E+00  0.00000000000E+00  0.13234632044E+03  0.13234632044E+03  0.00000000000E+00 0.  1.
          1   -1    0    0  501    0  0.00000000000E+00 -0.00000000000E+00 -0.13239532954E+03  0.13239532954E+03  0.00000000000E+00 0. -1.
         23    2    1    2    0    0 -0.86859624182E+01  0.85370859620E+02 -0.27483385494E+02  0.12835006717E+03  0.91404450927E+02 0.  0.
         23    2    1    2    0    0  0.86859624182E+01 -0.85370859620E+02  0.27434376394E+02  0.13639158281E+03  0.10240307241E+03 0.  0.
          5    1    4    4  502    0  0.46750860480E+02 -0.65222633394E+02 -0.75047504510E+01  0.80734417331E+02  0.47000000000E+01 0. -1.
         -5    1    3    3    0  503 -0.42732444438E+02  0.14739316876E+02 -0.19300613469E+02  0.49375226074E+02  0.47000000000E+01 0.  1.
          5    1    3    3  503    0  0.34046482019E+02  0.70631542744E+02 -0.81827720250E+01  0.78974841097E+02  0.47000000000E+01 0. -1.
         -5    1    4    4    0  502 -0.38064898062E+02 -0.20148226226E+02  0.34939126845E+02  0.55657165480E+02  0.47000000000E+01 0.  1.
<mgrwt>
<rscale>  0 0.13149691E+03</rscale>
<asrwt>0</asrwt>
<pdfrwt beam="1">  1        1 0.20368512E-01 0.13360396E+03</pdfrwt>
<pdfrwt beam="2">  1       -1 0.20360972E-01 0.13360396E+03</pdfrwt>
<totfact> 0.46656114E+03</totfact>
</mgrwt>
</event>
<event>
 8    1  0.2964543E-004  0.9342546E+02  0.7546771E-02  0.1296019E+00
          1   -1    0    0  501    0  0.00000000000E+00  0.00000000000E+00  0.80614439615E+02  0.80614439615E+02  0.00000000000E+00 0. -1.
         -1   -1    0    0    0  501 -0.00000000000E+00 -0.00000000000E+00 -0.12287158742E+03  0.12287158742E+03  0.00000000000E+00 0.  1.
         23    2    1    2    0    0  0.36313702839E+01 -0.61138423878E+01 -0.59274491777E+02  0.11064258735E+03  0.93154446171E+02 0.  0.
         23    2    1    2    0    0 -0.36313702839E+01  0.61138423878E+01  0.17017343975E+02  0.92843439681E+02  0.90993122691E+02 0.  0.
          5    1    3    3  502    0  0.35197119018E+02 -0.31944969352E+02 -0.14552297875E+02  0.49931729666E+02  0.47000000000E+01 0. -1.
         -5    1    4    4    0  503 -0.38632043124E+02 -0.22390400076E+02  0.15279743829E+02  0.47427052860E+02  0.47000000000E+01 0.  1.
          5    1    4    4  503    0  0.35000672840E+02  0.28504242464E+02  0.17376001466E+01  0.45416386822E+02  0.47000000000E+01 0. -1.
         -5    1    3    3    0  502 -0.31565748734E+02  0.25831126964E+02 -0.44722193902E+02  0.60710857685E+02  0.47000000000E+01 0.  1.
<mgrwt>
<rscale>  0 0.92882011E+02</rscale>
<asrwt>0</asrwt>
<pdfrwt beam="1">  1        1 0.12402222E-01 0.93425461E+02</pdfrwt>
<pdfrwt beam="2">  1       -1 0.18903321E-01 0.93425461E+02</pdfrwt>
<totfact> 0.96532555E+03</totfact>
</mgrwt>
</event>
<event>
 8    1  0.2964543E-004  0.9290279E+02  0.7546771E-02  0.1299321E+00
          1   -1    0    0  501    0  0.00000000000E+00  0.00000000000E+00  0.17754343174E+03  0.17754343174E+03  0.00000000000E+00 0. -1.
         -1   -1    0    0    0  501 -0.00000000000E+00 -0.00000000000E+00 -0.87469590435E+02  0.87469590435E+02  0.00000000000E+00 0.  1.
         23    2    1    2    0    0 -0.13861679827E+02  0.19481102742E+02  0.13727209537E+03  0.16575450882E+03  0.89773434238E+02 0.  0.
         23    2    1    2    0    0  0.13861679827E+02 -0.19481102742E+02 -0.47198254062E+02  0.99258513359E+02  0.83981651306E+02 0.  0.
          5    1    4    4  502    0 -0.34003487211E+01 -0.45696428139E+02 -0.48223923665E+01  0.46314915354E+02  0.47000000000E+01 0.  1.
         -5    1    4    4    0  502  0.17262028548E+02  0.26215325398E+02 -0.42375861696E+02  0.52943598005E+02  0.47000000000E+01 0. -1.
          5    1    3    3  503    0 -0.49752571472E+02  0.49911171077E+01  0.53648395339E+02  0.73487889754E+02  0.47000000000E+01 0. -1.
         -5    1    3    3    0  503  0.35890891645E+02  0.14489985634E+02  0.83623700029E+02  0.92266619063E+02  0.47000000000E+01 0.  1.
<mgrwt>
<rscale>  0 0.91474185E+02</rscale>
<asrwt>0</asrwt>
<pdfrwt beam="1">  1        1 0.27314374E-01 0.92902793E+02</pdfrwt>
<pdfrwt beam="2">  1       -1 0.13456860E-01 0.92902793E+02</pdfrwt>
<totfact> 0.60435921E+03</totfact>
</mgrwt>
</event>
<event>
 8    1  0.2964543E-004  0.1623882E+03  0.7546771E-02  0.1187722E+00
          1   -1    0    0  501    0  0.00000000000E+00  0.00000000000E+00  0.51788647076E+03  0.51788647076E+03  0.00000000000E+00 0. -1.
         -1   -1    0    0    0  501 -0.00000000000E+00 -0.00000000000E+00 -0.49372324348E+02  0.49372324348E+02  0.00000000000E+00 0.  1.
         23    2    1    2    0    0  0.55701975133E+02 -0.11499259084E+03  0.20708973184E+03  0.25950460620E+03  0.90169161161E+02 0.  0.
         23    2    1    2    0    0 -0.55701975133E+02  0.11499259084E+03  0.26142441457E+03  0.30775418891E+03  0.10021931087E+03 0.  0.
          5    1    3    3  502    0  0.10015769841E+02 -0.59142892172E+02  0.16547870566E+03  0.17607807748E+03  0.47000000000E+01 0. -1.
         -5    1    4    4    0  503  0.21101940022E+02  0.69763037769E+02  0.12292954122E+03  0.14298928427E+03  0.47000000000E+01 0.  1.
          5    1    4    4  503    0 -0.76803915155E+02  0.45229553076E+02  0.13849487336E+03  0.16476490464E+03  0.47000000000E+01 0. -1.
         -5    1    3    3    0  502  0.45686205292E+02 -0.55849698673E+02  0.41611026175E+02  0.83426528726E+02  0.47000000000E+01 0.  1.
<mgrwt>
<rscale>  0 0.16086629E+03</rscale>
<asrwt>0</asrwt>
<pdfrwt beam="1">  1        1 0.79674838E-01 0.16238817E+03</pdfrwt>
<pdfrwt beam="2">  1       -1 0.75957426E-02 0.16238817E+03</pdfrwt>
<totfact> 0.39231649E+03</totfact>
</mgrwt>
</event>
<event>
 8    1  0.2964543E-004  0.9446650E+02  0.7546771E-02  0.1292886E+00
          1   -1    0    0  501    0  0.00000000000E+00  0.00000000000E+00  0.46805934848E+03  0.46805934848E+03  0.00000000000E+00 0. -1.
         -1   -1    0    0    0  501 -0.00000000000E+00 -0.00000000000E+00 -0.22531716451E+02  0.22531716451E+02  0.00000000000E+00 0.  1.
         23    2    1    2    0    0 -0.16632278350E+02 -0.13613432664E+02  0.12499689963E+03  0.15667847635E+03  0.91988922173E+02 0.  0.
         23    2    1    2    0    0  0.16632278350E+02  0.13613432664E+02  0.32053073240E+03  0.33391258858E+03  0.91080778253E+02 0.  0.
          5    1    4    4  502    0  0.30027693312E+02  0.46416524847E+02  0.22961747670E+03  0.23622538338E+03  0.47000000000E+01 0. -1.
         -5    1    3    3    0  503 -0.28394403649E+02  0.33615025934E+02  0.72484657819E+02  0.84925424616E+02  0.47000000000E+01 0.  1.
          5    1    3    3  503    0  0.11762125299E+02 -0.47228458599E+02  0.52512241808E+02  0.71753051732E+02  0.47000000000E+01 0. -1.
         -5    1    4    4    0  502 -0.13395414962E+02 -0.32803092183E+02  0.90913255700E+02  0.97687205204E+02  0.47000000000E+01 0.  1.
<mgrwt>
<rscale>  0 0.94244698E+02</rscale>
<asrwt>0</asrwt>
<pdfrwt beam="1">  1        1 0.72009123E-01 0.94466502E+02</pdfrwt>
<pdfrwt beam="2">  1       -1 0.34664183E-02 0.94466502E+02</pdfrwt>
<totfact> 0.13765034E+04</totfact>
</mgrwt>
</event>
<event>
 8    1  0.2964543E-004  0.1142032E+03  0.7546771E-02  0.1255401E+00
         -3   -1    0    0    0  501 -0.00000000000E+00  0.00000000000E+00  0.14234453782E+03  0.14234453782E+03  0.00000000000E+00 0.  1.
          3   -1    0    0  501    0  0.00000000000E+00 -0.00000000000E+00 -0.15786560727E+03  0.15786560727E+03  0.00000000000E+00 0. -1.
         23    2    1    2    0    0 -0.38235061511E+01  0.59858377572E+02  0.92423445713E+02  0.14691654716E+03  0.97184021046E+02 0.  0.
         23    2    1    2    0    0  0.38235061511E+01 -0.59858377572E+02 -0.10794451517E+03  0.15329359793E+03  0.90825460345E+02 0.  0.
          5    1    4    4  502    0 -0.22962426849E+02 -0.40793456607E+01 -0.83118738571E+02  0.86456513979E+02  0.47000000000E+01 0. -1.
         -5    1    3    3    0  503  0.95036040054E+01  0.26943171012E+02  0.10502573902E+03  0.10894378739E+03  0.47000000000E+01 0.  1.
          5    1    3    3  503    0 -0.13327110156E+02  0.32915206560E+02 -0.12602293309E+02  0.37972759771E+02  0.47000000000E+01 0. -1.
         -5    1    4    4    0  502  0.26785933000E+02 -0.55779031911E+02 -0.24825776601E+02  0.66837083954E+02  0.47000000000E+01 0.  1.
<mgrwt>
<rscale>  0 0.11283905E+03</rscale>
<asrwt>0</asrwt>
<pdfrwt beam="1">  1        3 0.24287016E-01 0.11420323E+03</pdfrwt>
<pdfrwt beam="2">  1       -3 0.21899160E-01 0.11420323E+03</pdfrwt>
<totfact> 0.68064342E+02</totfact>
</mgrwt>
</event>
<event>
 8    1  0.2964543E-004  0.1153271E+03  0.7546771E-02  0.1255380E+00
          2   -1    0    0  501    0  0.00000000000E+00  0.00000000000E+00  0.10904013144E+03  0.10904013144E+03  0.00000000000E+00 0. -1.
         -2   -1    0    0    0  501 -0.00000000000E+00 -0.00000000000E+00 -0.11344989929E+03  0.11344989929E+03  0.00000000000E+00 0.  1.
         23    2    1    2    0    0 -0.54403993171E+02  0.32547803941E+02 -0.14487765939E+02  0.10672344057E+03  0.84621766651E+02 0.  0.
         23    2    1    2    0    0  0.54403993171E+02 -0.32547803941E+02  0.10077998092E+02  0.11576659016E+03  0.96338898358E+02 0.  0.
          5    1    4    4  502    0  0.72877671917E+02 -0.15196372093E+02  0.32723384342E+02  0.81455476622E+02  0.47000000000E+01 0. -1.
         -5    1    4    4    0  502 -0.18473678747E+02 -0.17351431848E+02 -0.22645386250E+02  0.34311113535E+02  0.47000000000E+01 0.  1.
          5    1    3    3  503    0 -0.30463075797E+02 -0.27008763750E+02 -0.11666911238E+01  0.40999066751E+02  0.47000000000E+01 0. -1.
         -5    1    3    3    0  503 -0.23940917373E+02  0.59556567690E+02 -0.13321074815E+02  0.65724373819E+02  0.47000000000E+01 0.  1.
<mgrwt>
<rscale>  0 0.11285056E+03</rscale>
<asrwt>0</asrwt>
<pdfrwt beam="1">  1        2 0.16775405E-01 0.11532709E+03</pdfrwt>
<pdfrwt beam="2">  1       -2 0.17453831E-01 0.11532709E+03</pdfrwt>
<totfact> 0.84242992E+03</totfact>
</mgrwt>
</event>
<event>
 8    1  0.2964543E-004  0.1091257E+03  0.7546771E-02  0.1263534E+00
          2   -1    0    0  501    0  0.00000000000E+00  0.00000000000E+00  0.10743855604E+04  0.10743855604E+04  0.00000000000E+00 0. -1.
         -2   -1    0    0    0  501 -0.00000000000E+00 -0.00000000000E+00 -0.21638827846E+02  0.21638827846E+02  0.00000000000E+00 0.  1.
         23    2    1    2    0    0 -0.19009125590E+02  0.49567021755E+02  0.91764632576E+03  0.92411211384E+03  0.95342452619E+02 0.  0.
         23    2    1    2    0    0  0.19009125590E+02 -0.49567021755E+02  0.13510040675E+03  0.17191227436E+03  0.92105774355E+02 0.  0.
          5    1    4    4  502    0 -0.16064726446E+02 -0.65181145160E+02  0.79114398705E+02  0.10386450406E+03  0.47000000000E+01 0. -1.
         -5    1    4    4    0  502  0.35073852036E+02  0.15614123405E+02  0.55986008043E+02  0.68047770301E+02  0.47000000000E+01 0.  1.
          5    1    3    3  503    0 -0.12527452159E+02  0.77438564662E+02  0.73329729693E+03  0.73749622646E+03  0.47000000000E+01 0. -1.
         -5    1    3    3    0  503 -0.64816734314E+01 -0.27871542907E+02  0.18434902883E+03  0.18661588738E+03  0.47000000000E+01 0.  1.
<mgrwt>
<rscale>  0 0.10841474E+03</rscale>
<asrwt>0</asrwt>
<pdfrwt beam="1">  1        2 0.16529004E+00 0.10912571E+03</pdfrwt>
<pdfrwt beam="2">  1       -2 0.33290513E-02 0.10912571E+03</pdfrwt>
<totfact> 0.82195324E+03</totfact>
</mgrwt>
</event>
<event>
 8    1  0.2964543E-004  0.9350018E+02  0.7546771E-02  0.1297529E+00
         -2   -1    0    0    0  501 -0.00000000000E+00  0.00000000000E+00  0.33992634319E+03  0.33992634319E+03  0.00000000000E+00 0.  1.
          2   -1    0    0  501    0  0.00000000000E+00 -0.00000000000E+00 -0.98075014678E+02  0.98075014678E+02  0.00000000000E+00 0. -1.
         23    2    1    2    0    0 -0.25506845160E+02  0.38085747410E+01  0.30993869737E+03  0.32233730141E+03  0.84700858098E+02 0.  0.
         23    2    1    2    0    0  0.25506845160E+02 -0.38085747410E+01 -0.68087368853E+02  0.11566405646E+03  0.89873131514E+02 0.  0.
          5    1    4    4  502    0  0.11162390347E+02  0.20644914155E+02 -0.80777913299E+02  0.84249467154E+02  0.47000000000E+01 0. -1.
         -5    1    3    3    0  503 -0.18566765085E+02  0.42646157636E+02  0.20141194007E+03  0.20676624272E+03  0.47000000000E+01 0.  1.
          5    1    3    3  503    0 -0.69400800751E+01 -0.38837582895E+02  0.10852675730E+03  0.11557105869E+03  0.47000000000E+01 0. -1.
         -5    1    4    4    0  502  0.14344454813E+02 -0.24453488896E+02  0.12690544446E+02  0.31414589308E+02  0.47000000000E+01 0.  1.
<mgrwt>
<rscale>  0 0.92234687E+02</rscale>
<asrwt>0</asrwt>
<pdfrwt beam="1">  1        2 0.15088464E-01 0.93500183E+02</pdfrwt>
<pdfrwt beam="2">  1       -2 0.52296360E-01 0.93500183E+02</pdfrwt>
<totfact> 0.13037854E+03</totfact>
</mgrwt>
</event>
<event>
 8    1  0.2964543E-004  0.1194389E+03  0.7546771E-02  0.1244957E+00
          1   -1    0    0  501    0  0.00000000000E+00  0.00000000000E+00  0.42089868349E+02  0.42089868349E+02  0.00000000000E+00 0. -1.
         -1   -1    0    0    0  501 -0.00000000000E+00 -0.00000000000E+00 -0.59798941122E+03  0.59798941122E+03  0.00000000000E+00 0.  1.
         23    2    1    2    0    0 -0.41176103728E+02 -0.65382424944E+02 -0.63319491311E+02  0.13322549699E+03  0.88143871362E+02 0.  0.
         23    2    1    2    0    0  0.41176103728E+02  0.65382424944E+02 -0.49258005156E+03  0.50685378258E+03  0.91078629273E+02 0.  0.
          5    1    3    3  502    0 -0.63656329295E+02 -0.40332886354E+02 -0.64378484695E+02  0.99224741232E+02  0.47000000000E+01 0. -1.
         -5    1    4    4    0  503  0.34204722822E+02 -0.14317453986E+02 -0.11726888794E+03  0.12308141464E+03  0.47000000000E+01 0.  1.
          5    1    4    4  503    0  0.69713809060E+01  0.79699878930E+02 -0.37531116362E+03  0.38377236794E+03  0.47000000000E+01 0. -1.
         -5    1    3    3    0  502  0.22480225567E+02 -0.25049538590E+02  0.10589933836E+01  0.34000755758E+02  0.47000000000E+01 0.  1.
<mgrwt>
<rscale>  0 0.11887934E+03</rscale>
<asrwt>0</asrwt>
<pdfrwt beam="1">  1        1 0.64753640E-02 0.11943890E+03</pdfrwt>
<pdfrwt beam="2">  1       -1 0.91998376E-01 0.11943890E+03</pdfrwt>
<totfact> 0.13715063E+03</totfact>
</mgrwt>
</event>
<event>
 8    1  0.2964543E-004  0.1078440E+03  0.7546771E-02  0.1266579E+00
          2   -1    0    0  501    0  0.00000000000E+00  0.00000000000E+00  0.67064832291E+03  0.67064832291E+03  0.00000000000E+00 0. -1.
         -2   -1    0    0    0  501 -0.00000000000E+00 -0.00000000000E+00 -0.22953580415E+02  0.22953580415E+02  0.00000000000E+00 0.  1.
         23    2    1    2    0    0 -0.46023846618E+02 -0.30540654872E+02  0.14732026338E+03  0.18257488874E+03  0.92625071867E+02 0.  0.
         23    2    1    2    0    0  0.46023846618E+02  0.30540654872E+02  0.50037447912E+03  0.51102701459E+03  0.87880966247E+02 0.  0.
          5    1    3    3  502    0  0.96861118321E+01  0.25236296109E+02  0.51961082244E+02  0.58759981890E+02  0.47000000000E+01 0. -1.
         -5    1    3    3    0  502 -0.55709958450E+02 -0.55776950982E+02  0.95359181138E+02  0.12381490685E+03  0.47000000000E+01 0.  1.
          5    1    4    4  503    0  0.72160892161E+02  0.24016726706E+02  0.35187733514E+03  0.36003297975E+03  0.47000000000E+01 0. -1.
         -5    1    4    4    0  503 -0.26137045543E+02  0.65239281661E+01  0.14849714397E+03  0.15099403484E+03  0.47000000000E+01 0.  1.
<mgrwt>
<rscale>  0 0.10681791E+03</rscale>
<asrwt>0</asrwt>
<pdfrwt beam="1">  1        2 0.10317665E+00 0.10784401E+03</pdfrwt>
<pdfrwt beam="2">  1       -2 0.35313206E-02 0.10784401E+03</pdfrwt>
<totfact> 0.13703268E+04</totfact>
</mgrwt>
</event>
<event>
 8    1  0.2964543E-004  0.9391444E+02  0.7546771E-02  0.1293812E+00
          1   -1    0    0  501    0  0.00000000000E+00  0.00000000000E+00  0.22996199088E+03  0.22996199088E+03  0.00000000000E+00 0. -1.
         -1   -1    0    0    0  501 -0.00000000000E+00 -0.00000000000E+00 -0.41037497112E+02  0.41037497112E+02  0.00000000000E+00 0.  1.
         23    2    1    2    0    0 -0.18668749664E+02  0.21043989320E+01  0.13003891829E+03  0.16040587035E+03  0.92016152195E+02 0.  0.
         23    2    1    2    0    0  0.18668749664E+02 -0.21043989320E+01  0.58885575483E+02  0.11059361764E+03  0.91708704902E+02 0.  0.
          5    1    3    3  502    0 -0.38654476405E+02 -0.13079798548E+02  0.12840774731E+03  0.13481798561E+03  0.47000000000E+01 0. -1.
         -5    1    4    4    0  503  0.21845855392E+02  0.41923796588E+02  0.19877873527E+02  0.51498213310E+02  0.47000000000E+01 0.  1.
          5    1    4    4  503    0 -0.31771057278E+01 -0.44028195520E+02  0.39007701956E+02  0.59095404334E+02  0.47000000000E+01 0. -1.
         -5    1    3    3    0  502  0.19985726741E+02  0.15184197480E+02  0.16311709783E+01  0.25587884736E+02  0.47000000000E+01 0.  1.
<mgrwt>
<rscale>  0 0.93839051E+02</rscale>
<asrwt>0</asrwt>
<pdfrwt beam="1">  1        1 0.35378767E-01 0.93914445E+02</pdfrwt>
<pdfrwt beam="2">  1       -1 0.63134612E-02 0.93914445E+02</pdfrwt>
<totfact> 0.13759565E+04</totfact>
</mgrwt>
</event>
<event>
 8    1  0.2964543E-004  0.9312365E+02  0.7546771E-02  0.1296351E+00
          1   -1    0    0  501    0  0.00000000000E+00  0.00000000000E+00  0.29060627635E+02  0.29060627635E+02  0.00000000000E+00 0. -1.
         -1   -1    0    0    0  501 -0.00000000000E+00 -0.00000000000E+00 -0.32191065176E+03  0.32191065176E+03  0.00000000000E+00 0.  1.
         23    2    1    2    0    0 -0.32074979768E+01  0.30428362532E+02 -0.95429835075E+02  0.13333741946E+03  0.87953628209E+02 0.  0.
         23    2    1    2    0    0  0.32074979768E+01 -0.30428362532E+02 -0.19742018905E+03  0.21763385994E+03  0.86334191706E+02 0.  0.
          5    1    3    3  502    0 -0.23635271421E+02 -0.20887861062E+02 -0.58813556019E+02  0.66903312074E+02  0.47000000000E+01 0. -1.
         -5    1    3    3    0  502  0.20427773444E+02  0.51316223594E+02 -0.36616279056E+02  0.66434107382E+02  0.47000000000E+01 0.  1.
          5    1    4    4  503    0  0.20584058268E+02 -0.54861543472E+02 -0.10470305514E+03  0.12007627643E+03  0.47000000000E+01 0. -1.
         -5    1    4    4    0  503 -0.17376560291E+02  0.24433180940E+02 -0.92717133914E+02  0.97557583506E+02  0.47000000000E+01 0.  1.
<mgrwt>
<rscale>  0 0.92739280E+02</rscale>
<asrwt>0</asrwt>
<pdfrwt beam="1">  1        1 0.44708661E-02 0.93123649E+02</pdfrwt>
<pdfrwt beam="2">  1       -1 0.49524713E-01 0.93123649E+02</pdfrwt>
<totfact> 0.74539266E+03</totfact>
</mgrwt>
</event>
<event>
 8    1  0.2964543E-004  0.1024926E+03  0.7546771E-02  0.1276515E+00
          1   -1    0    0  501    0  0.00000000000E+00  0.00000000000E+00  0.99276876257E+02  0.99276876257E+02  0.00000000000E+00 0. -1.
         -1   -1    0    0    0  501 -0.00000000000E+00 -0.00000000000E+00 -0.10509426740E+03  0.10509426740E+03  0.00000000000E+00 0.  1.
         23    2    1    2    0    0  0.33346641640E+02 -0.32018350809E+02 -0.17019897842E+02  0.10126810350E+03  0.88478124793E+02 0.  0.
         23    2    1    2    0    0 -0.33346641640E+02  0.32018350809E+02  0.11202506698E+02  0.10310304016E+03  0.91474408642E+02 0.  0.
          5    1    3    3  502    0 -0.49305287992E+01 -0.50006707018E+02 -0.27455935267E+02  0.57453452833E+02  0.47000000000E+01 0. -1.
         -5    1    3    3    0  502  0.38277170439E+02  0.17988356210E+02  0.10436037425E+02  0.43814650667E+02  0.47000000000E+01 0.  1.
          5    1    4    4  503    0 -0.59514996014E+02  0.87681402344E+01  0.24824926356E+02  0.65247850557E+02  0.47000000000E+01 0. -1.
         -5    1    4    4    0  503  0.26168354374E+02  0.23250210574E+02 -0.13622419658E+02  0.37855189601E+02  0.47000000000E+01 0.  1.
<mgrwt>
<rscale>  0 0.10181978E+03</rscale>
<asrwt>0</asrwt>
<pdfrwt beam="1">  1        1 0.15273366E-01 0.10249264E+03</pdfrwt>
<pdfrwt beam="2">  1       -1 0.16168349E-01 0.10249264E+03</pdfrwt>
<totfact> 0.95175224E+03</totfact>
</mgrwt>
</event>
<event>
 8    1  0.2964543E-004  0.9366395E+02  0.7546771E-02  0.1295011E+00
          2   -1    0    0  501    0  0.00000000000E+00  0.00000000000E+00  0.72967053466E+02  0.72967053466E+02  0.00000000000E+00 0. -1.
         -2   -1    0    0    0  501 -0.00000000000E+00 -0.00000000000E+00 -0.11886643688E+03  0.11886643688E+03  0.00000000000E+00 0.  1.
         23    2    1    2    0    0  0.16951119551E+02 -0.13101453745E+02 -0.17228869250E+02  0.93879760545E+02  0.89764062743E+02 0.  0.
         23    2    1    2    0    0 -0.16951119551E+02  0.13101453745E+02 -0.28670514165E+02  0.97953729802E+02  0.91180843686E+02 0.  0.
          5    1    4    4  502    0  0.33356408080E+02 -0.20110974626E+01 -0.30066300626E+02  0.45196978951E+02  0.47000000000E+01 0. -1.
         -5    1    4    4    0  502 -0.50307527632E+02  0.15112551208E+02  0.13957864609E+01  0.52756750850E+02  0.47000000000E+01 0.  1.
          5    1    3    3  503    0  0.48132186042E+02 -0.13220220276E+02  0.11258344403E+02  0.51384062472E+02  0.47000000000E+01 0. -1.
         -5    1    3    3    0  503 -0.31181066491E+02  0.11876653100E+00 -0.28487213653E+02  0.42495698073E+02  0.47000000000E+01 0.  1.
<mgrwt>
<rscale>  0 0.93317364E+02</rscale>
<asrwt>0</asrwt>
<pdfrwt beam="1">  1        2 0.11225701E-01 0.93663946E+02</pdfrwt>
<pdfrwt beam="2">  1       -2 0.18287144E-01 0.93663946E+02</pdfrwt>
<totfact> 0.12260113E+04</totfact>
</mgrwt>
</event>
<event>
 7    1  0.2964543E-004  0.3906324E+03  0.7546771E-02  0.1047072E+00
         -1   -1    0    0    0  501 -0.00000000000E+00  0.00000000000E+00  0.11085123342E+03  0.11085123342E+03  0.00000000000E+00 0.  1.
          1   -1    0    0  501    0  0.00000000000E+00 -0.00000000000E+00 -0.34414066748E+03  0.34414066748E+03  0.00000000000E+00 0. -1.
         23    2    1    2    0    0  0.25934789642E+01 -0.11443354109E+03 -0.58042249840E+02  0.16113265982E+03  0.97432385966E+02 0.  0.
          5    1    1    2  502    0 -0.64489670428E+02  0.97001129028E+02 -0.19433333208E+03  0.22661789555E+03  0.47000000000E+01 0. -1.
         -5    1    1    2    0  502  0.61896191464E+02  0.17432412066E+02  0.19086147862E+02  0.67241345528E+02  0.47000000000E+01 0.  1.
          5    1    3    3  503    0  0.23305632318E+02 -0.28059423549E+01 -0.39227297122E+02  0.45955376723E+02  0.47000000000E+01 0. -1.
         -5    1    3    3    0  503 -0.20712153354E+02 -0.11162759874E+03 -0.18814952718E+02  0.11517728310E+03  0.47000000000E+01 0.  1.
<mgrwt>
<rscale>  0 0.39063240E+03</rscale>
<asrwt>0</asrwt>
<pdfrwt beam="1">  1        1 0.52944717E-01 0.39063240E+03</pdfrwt>
<pdfrwt beam="2">  1       -1 0.17054036E-01 0.39063240E+03</pdfrwt>
<totfact> 0.19314040E+03</totfact>
</mgrwt>
</event>
<event>
 8    1  0.2964543E-004  0.9992366E+02  0.7546771E-02  0.1281720E+00
          3   -1    0    0  501    0  0.00000000000E+00  0.00000000000E+00  0.27882058614E+02  0.27882058614E+02  0.00000000000E+00 0. -1.
         -3   -1    0    0    0  501 -0.00000000000E+00 -0.00000000000E+00 -0.39855651325E+03  0.39855651325E+03  0.00000000000E+00 0.  1.
         23    2    1    2    0    0  0.35789468417E+02  0.77475425832E+01 -0.10871087101E+03  0.14606443274E+03  0.90420432263E+02 0.  0.
         23    2    1    2    0    0 -0.35789468417E+02 -0.77475425832E+01 -0.26196358363E+03  0.28037413912E+03  0.92972190875E+02 0.  0.
          5    1    3    3  502    0  0.63060235944E+02  0.19328867603E+02 -0.62606514541E+02  0.91059673528E+02  0.47000000000E+01 0. -1.
         -5    1    4    4    0  503 -0.40686524657E+02  0.18704453494E+02 -0.52610495222E+02  0.69247412058E+02  0.47000000000E+01 0.  1.
          5    1    4    4  503    0  0.48970562400E+01 -0.26451996077E+02 -0.20935308841E+03  0.21112672707E+03  0.47000000000E+01 0. -1.
         -5    1    3    3    0  502 -0.27270767527E+02 -0.11581325019E+02 -0.46104356467E+02  0.55004759211E+02  0.47000000000E+01 0.  1.
<mgrwt>
<rscale>  0 0.99325883E+02</rscale>
<asrwt>0</asrwt>
<pdfrwt beam="1">  1        3 0.42895478E-02 0.99923665E+02</pdfrwt>
<pdfrwt beam="2">  1       -3 0.61316383E-01 0.99923665E+02</pdfrwt>
<totfact> 0.16622104E+03</totfact>
</mgrwt>
</event>
<event>
 8    1  0.2964543E-004  0.1073121E+03  0.7546771E-02  0.1265871E+00
         -1   -1    0    0    0  501 -0.00000000000E+00  0.00000000000E+00  0.16338990948E+03  0.16338990948E+03  0.00000000000E+00 0.  1.
          1   -1    0    0  501    0  0.00000000000E+00 -0.00000000000E+00 -0.79505535301E+02  0.79505535301E+02  0.00000000000E+00 0. -1.
         23    2    1    2    0    0  0.53746623193E+02  0.12275655915E+02  0.83686633993E+02  0.13608581492E+03  0.92067937305E+02 0.  0.
         23    2    1    2    0    0 -0.53746623193E+02 -0.12275655915E+02  0.19774018915E+00  0.10680962987E+03  0.91481510146E+02 0.  0.
          5    1    4    4  502    0 -0.74788688710E+02  0.10153108425E+02 -0.17066810498E+01  0.75640176691E+02  0.47000000000E+01 0. -1.
         -5    1    3    3    0  503  0.75579029141E+02 -0.83790172641E+01  0.52527576292E+02  0.92539904081E+02  0.47000000000E+01 0.  1.
          5    1    3    3  503    0 -0.21832405949E+02  0.20654673179E+02  0.31159057700E+02  0.43545910835E+02  0.47000000000E+01 0. -1.
         -5    1    4    4    0  502  0.21042065518E+02 -0.22428764340E+02  0.19044212390E+01  0.31169453177E+02  0.47000000000E+01 0.  1.
<mgrwt>
<rscale>  0 0.10718625E+03</rscale>
<asrwt>0</asrwt>
<pdfrwt beam="1">  1        1 0.12231621E-01 0.10731214E+03</pdfrwt>
<pdfrwt beam="2">  1       -1 0.25136909E-01 0.10731214E+03</pdfrwt>
<totfact> 0.62914697E+03</totfact>
</mgrwt>
</event>
<event>
 8    1  0.2964543E-004  0.1295756E+03  0.7546771E-02  0.1228453E+00
         -1   -1    0    0    0  501 -0.00000000000E+00  0.00000000000E+00  0.97054516567E+02  0.97054516567E+02  0.00000000000E+00 0.  1.
          1   -1    0    0  501    0  0.00000000000E+00 -0.00000000000E+00 -0.19265223515E+03  0.19265223515E+03  0.00000000000E+00 0. -1.
         23    2    1    2    0    0  0.86669494918E+02 -0.20330922565E+02  0.14299351453E+00  0.12859771187E+03  0.92803034911E+02 0.  0.
         23    2    1    2    0    0 -0.86669494918E+02  0.20330922565E+02 -0.95740712094E+02  0.16110903985E+03  0.94153550152E+02 0.  0.
          5    1    3    3  502    0  0.27243226723E+02  0.58493360474E+01  0.42418682262E+02  0.50969037065E+02  0.47000000000E+01 0. -1.
         -5    1    3    3    0  502  0.59426268195E+02 -0.26180258613E+02 -0.42275688747E+02  0.77628674803E+02  0.47000000000E+01 0.  1.
          5    1    4    4  503    0 -0.57312490948E+02 -0.16136668191E+02 -0.97145363525E+02  0.11403694723E+03  0.47000000000E+01 0. -1.
         -5    1    4    4    0  503 -0.29357003971E+02  0.36467590757E+02  0.14046514307E+01  0.47072092617E+02  0.47000000000E+01 0.  1.
<mgrwt>
<rscale>  0 0.12933042E+03</rscale>
<asrwt>0</asrwt>
<pdfrwt beam="1">  1        1 0.29638805E-01 0.12957561E+03</pdfrwt>
<pdfrwt beam="2">  1       -1 0.14931464E-01 0.12957561E+03</pdfrwt>
<totfact> 0.47546206E+03</totfact>
</mgrwt>
</event>
<event>
 8    1  0.2964543E-004  0.1110314E+03  0.7546771E-02  0.1261859E+00
         -1   -1    0    0    0  501 -0.00000000000E+00  0.00000000000E+00  0.15768796440E+02  0.15768796440E+02  0.00000000000E+00 0.  1.
          1   -1    0    0  501    0  0.00000000000E+00 -0.00000000000E+00 -0.88511209141E+03  0.88511209141E+03  0.00000000000E+00 0. -1.
         23    2    1    2    0    0 -0.21356304425E+02  0.47633409197E+02 -0.23798691899E+03  0.25983577102E+03  0.90287434803E+02 0.  0.
         23    2    1    2    0    0  0.21356304425E+02 -0.47633409197E+02 -0.63135637598E+03  0.64104511683E+03  0.97994565689E+02 0.  0.
          5    1    4    4  502    0 -0.78810140874E+01 -0.57374731009E+02 -0.56211236282E+03  0.56510739562E+03  0.47000000000E+01 0. -1.
         -5    1    3    3    0  503  0.25290595597E+02  0.50831070247E+02 -0.14063383352E+03  0.15173456118E+03  0.47000000000E+01 0.  1.
          5    1    3    3  503    0 -0.46646900022E+02 -0.31976610493E+01 -0.97353085470E+02  0.10810120984E+03  0.47000000000E+01 0. -1.
         -5    1    4    4    0  502  0.29237318512E+02  0.97413218121E+01 -0.69244013161E+02  0.75937721214E+02  0.47000000000E+01 0.  1.
<mgrwt>
<rscale>  0 0.10930681E+03</rscale>
<asrwt>0</asrwt>
<pdfrwt beam="1">  1        1 0.13617110E+00 0.11103138E+03</pdfrwt>
<pdfrwt beam="2">  1       -1 0.24259685E-02 0.11103138E+03</pdfrwt>
<totfact> 0.96317051E+03</totfact>
</mgrwt>
</event>
<event>
 8    1  0.2964543E-004  0.1127338E+03  0.7546771E-02  0.1257967E+00
         -1   -1    0    0    0  501 -0.00000000000E+00  0.00000000000E+00  0.40961634194E+02  0.40961634194E+02  0.00000000000E+00 0.  1.
          1   -1    0    0  501    0  0.00000000000E+00 -0.00000000000E+00 -0.30524207888E+03  0.30524207888E+03  0.00000000000E+00 0. -1.
         23    2    1    2    0    0 -0.80488372243E+01 -0.42750822139E+02 -0.10534908200E+03  0.15429627439E+03  0.10400237804E+03 0.  0.
         23    2    1    2    0    0  0.80488372243E+01  0.42750822139E+02 -0.15893136269E+03  0.19190743869E+03  0.98371085206E+02 0.  0.
          5    1    4    4  502    0 -0.75474600313E+01  0.60805446275E+02 -0.15568574700E+03  0.16737505271E+03  0.47000000000E+01 0. -1.
         -5    1    4    4    0  502  0.15596297256E+02 -0.18054624136E+02 -0.32456156862E+01  0.24532385982E+02  0.47000000000E+01 0.  1.
          5    1    3    3  503    0 -0.31953610728E+02 -0.42576714958E+02 -0.11599139876E+03  0.12771023640E+03  0.47000000000E+01 0. -1.
         -5    1    3    3    0  503  0.23904773504E+02 -0.17410718034E+00  0.10642316762E+02  0.26586037983E+02  0.47000000000E+01 0.  1.
<mgrwt>
<rscale>  0 0.11141764E+03</rscale>
<asrwt>0</asrwt>
<pdfrwt beam="1">  1        1 0.46960319E-01 0.11273381E+03</pdfrwt>
<pdfrwt beam="2">  1       -1 0.63017899E-02 0.11273381E+03</pdfrwt>
<totfact> 0.99106923E+03</totfact>
</mgrwt>
</event>
<event>
 8    1  0.2964543E-004  0.1239890E+03  0.7546771E-02  0.1241562E+00
          2   -1    0    0  501    0  0.00000000000E+00  0.00000000000E+00  0.23937963878E+03  0.23937963878E+03  0.00000000000E+00 0. -1.
         -2   -1    0    0    0  501 -0.00000000000E+00 -0.00000000000E+00 -0.96043988124E+02  0.96043988124E+02  0.00000000000E+00 0.  1.
         23    2    1    2    0    0  0.96142907376E+01  0.66499843858E+02 -0.31265661628E+02  0.12787029079E+03  0.10420463449E+03 0.  0.
         23    2    1    2    0    0 -0.96142907376E+01 -0.66499843858E+02  0.17460131228E+03  0.20755333612E+03  0.89878280264E+02 0.  0.
          5    1    4    4  502    0 -0.10764897875E+01 -0.25901038072E+02  0.16173046782E+03  0.16386231057E+03  0.47000000000E+01 0. -1.
         -5    1    4    4    0  502 -0.85378009501E+01 -0.40598805787E+02  0.12870844463E+02  0.43691025549E+02  0.47000000000E+01 0.  1.
          5    1    3    3  503    0  0.26222643180E+02 -0.12746298961E+02  0.16415695695E+02  0.33788462790E+02  0.47000000000E+01 0. -1.
         -5    1    3    3    0  503 -0.16608352443E+02  0.79246142819E+02 -0.47681357323E+02  0.94081827995E+02  0.47000000000E+01 0.  1.
<mgrwt>
<rscale>  0 0.12093514E+03</rscale>
<asrwt>0</asrwt>
<pdfrwt beam="1">  1        2 0.36827637E-01 0.12398899E+03</pdfrwt>
<pdfrwt beam="2">  1       -2 0.14775998E-01 0.12398899E+03</pdfrwt>
<totfact> 0.46801194E+03</totfact>
</mgrwt>
</event>
<event>
 8    1  0.2964543E-004  0.1154734E+03  0.7546771E-02  0.1250889E+00
         -1   -1    0    0    0  501 -0.00000000000E+00  0.00000000000E+00  0.67887697588E+02  0.67887697588E+02  0.00000000000E+00 0.  1.
          1   -1    0    0  501    0  0.00000000000E+00 -0.00000000000E+00 -0.44768136079E+03  0.44768136079E+03  0.00000000000E+00 0. -1.
         23    2    1    2    0    0 -0.34727572750E+02  0.61782982246E+02  0.33174505348E+01  0.11552101366E+03  0.91164455328E+02 0.  0.
         23    2    1    2    0    0  0.34727572750E+02 -0.61782982246E+02 -0.38311111374E+03  0.40004804472E+03  0.90780897813E+02 0.  0.
          5    1    4    4  502    0  0.38176994332E+02 -0.26268982136E+02 -0.34303949177E+03  0.34618741345E+03  0.47000000000E+01 0. -1.
         -5    1    3    3    0  503 -0.54017584215E+02  0.14023848013E+02  0.22500293695E+02  0.60356614665E+02  0.47000000000E+01 0.  1.
          5    1    3    3  503    0  0.19290011465E+02  0.47759134233E+02 -0.19182843160E+02  0.55164398997E+02  0.47000000000E+01 0. -1.
         -5    1    4    4    0  502 -0.34494215818E+01 -0.35514000109E+02 -0.40071621965E+02  0.53860631262E+02  0.47000000000E+01 0.  1.
<mgrwt>
<rscale>  0 0.11539765E+03</rscale>
<asrwt>0</asrwt>
<pdfrwt beam="1">  1        1 0.68874059E-01 0.11547337E+03</pdfrwt>
<pdfrwt beam="2">  1       -1 0.10444261E-01 0.11547337E+03</pdfrwt>
<totfact> 0.28809089E+03</totfact>
</mgrwt>
</event>
<event>
 8    1  0.2964543E-004  0.1089455E+03  0.7546771E-02  0.1265725E+00
          4   -1    0    0  501    0  0.00000000000E+00  0.00000000000E+00  0.42031390438E+02  0.42031390438E+02  0.00000000000E+00 0. -1.
         -4   -1    0    0    0  501 -0.00000000000E+00 -0.00000000000E+00 -0.33238793088E+03  0.33238793088E+03  0.00000000000E+00 0.  1.
         23    2    1    2    0    0  0.57002369593E+02 -0.17407333817E+02 -0.64900383044E+02  0.12681161816E+03  0.91196717980E+02 0.  0.
         23    2    1    2    0    0 -0.57002369593E+02  0.17407333817E+02 -0.22545615739E+03  0.24760770316E+03  0.83227461490E+02 0.  0.
          5    1    4    4  502    0 -0.49803051022E+02 -0.21560827096E+02 -0.80057597119E+02  0.96832442976E+02  0.47000000000E+01 0. -1.
         -5    1    3    3    0  503  0.81139802245E+02 -0.15500898085E+02 -0.58492652372E+02  0.10132830666E+03  0.47000000000E+01 0.  1.
          5    1    3    3  503    0 -0.24137432653E+02 -0.19064357324E+01 -0.64077306715E+01  0.25483311492E+02  0.47000000000E+01 0. -1.
         -5    1    4    4    0  502 -0.71993185711E+01  0.38968160913E+02 -0.14539856028E+03  0.15077526018E+03  0.47000000000E+01 0.  1.
<mgrwt>
<rscale>  0 0.10726240E+03</rscale>
<asrwt>0</asrwt>
<pdfrwt beam="1">  1        4 0.64663678E-02 0.10894552E+03</pdfrwt>
<pdfrwt beam="2">  1       -4 0.51136605E-01 0.10894552E+03</pdfrwt>
<totfact> 0.91644140E+02</totfact>
</mgrwt>
</event>
<event>
 8    1  0.2964543E-004  0.9383822E+02  0.7546771E-02  0.1294314E+00
         -3   -1    0    0    0  501 -0.00000000000E+00  0.00000000000E+00  0.60651059887E+02  0.60651059887E+02  0.00000000000E+00 0.  1.
          3   -1    0    0  501    0  0.00000000000E+00 -0.00000000000E+00 -0.56825322504E+03  0.56825322504E+03  0.00000000000E+00 0. -1.
         23    2    1    2    0    0 -0.30838168979E+02 -0.97714172725E+01  0.18250370987E+02  0.94744663397E+02  0.87160782119E+02 0.  0.
         23    2    1    2    0    0  0.30838168979E+02  0.97714172725E+01 -0.52585253614E+03  0.53415962154E+03  0.88085970773E+02 0.  0.
          5    1    3    3  502    0  0.70660894522E+01  0.33552061570E+02  0.12096697359E+02  0.36661840417E+02  0.47000000000E+01 0. -1.
         -5    1    3    3    0  502 -0.37904258431E+02 -0.43323478842E+02  0.61536736284E+01  0.58082822980E+02  0.47000000000E+01 0.  1.
          5    1    4    4  503    0  0.52800746673E+02  0.32259885801E+02 -0.34665214360E+03  0.35216248770E+03  0.47000000000E+01 0. -1.
         -5    1    4    4    0  503 -0.21962577694E+02 -0.22488468529E+02 -0.17920039254E+03  0.18199713383E+03  0.47000000000E+01 0.  1.
<mgrwt>
<rscale>  0 0.93620481E+02</rscale>
<asrwt>0</asrwt>
<pdfrwt beam="1">  1        3 0.87423572E-01 0.93838220E+02</pdfrwt>
<pdfrwt beam="2">  1       -3 0.93309324E-02 0.93838220E+02</pdfrwt>
<totfact> 0.22548385E+02</totfact>
</mgrwt>
</event>
<event>
 8    1  0.2964543E-004  0.1044417E+03  0.7546771E-02  0.1271851E+00
         -1   -1    0    0    0  501 -0.00000000000E+00  0.00000000000E+00  0.33126022674E+02  0.33126022674E+02  0.00000000000E+00 0.  1.
          1   -1    0    0  501    0  0.00000000000E+00 -0.00000000000E+00 -0.10218965276E+04  0.10218965276E+04  0.00000000000E+00 0. -1.
         23    2    1    2    0    0 -0.87569230310E+01 -0.50784825277E+02 -0.59821845027E+02  0.12036079983E+03  0.90842098245E+02 0.  0.
         23    2    1    2    0    0  0.87569230310E+01  0.50784825277E+02 -0.92894865988E+03  0.93466175043E+03  0.89393472001E+02 0.  0.
          5    1    4    4  502    0  0.38949924567E+02  0.58719684760E+02 -0.69846112202E+03  0.70202216986E+03  0.47000000000E+01 0. -1.
         -5    1    3    3    0  503 -0.49171030743E+02 -0.35239351434E+02 -0.38563707435E+02  0.71894726406E+02  0.47000000000E+01 0.  1.
          5    1    3    3  503    0  0.40414107712E+02 -0.15545473843E+02 -0.21258137592E+02  0.48466073423E+02  0.47000000000E+01 0. -1.
         -5    1    4    4    0  502 -0.30193001536E+02 -0.79348594825E+01 -0.23048753786E+03  0.23263958056E+03  0.47000000000E+01 0.  1.
<mgrwt>
<rscale>  0 0.10412589E+03</rscale>
<asrwt>0</asrwt>
<pdfrwt beam="1">  1        1 0.15721485E+00 0.10444170E+03</pdfrwt>
<pdfrwt beam="2">  1       -1 0.50963111E-02 0.10444170E+03</pdfrwt>
<totfact> 0.25839554E+03</totfact>
</mgrwt>
</event>
<event>
 8    1  0.2964543E-004  0.1028173E+03  0.7546771E-02  0.1277495E+00
         -4   -1    0    0    0  501 -0.00000000000E+00  0.00000000000E+00  0.54536524284E+02  0.54536524284E+02  0.00000000000E+00 0.  1.
          4   -1    0    0  501    0  0.00000000000E+00 -0.00000000000E+00 -0.20247317675E+03  0.20247317675E+03  0.00000000000E+00 0. -1.
         23    2    1    2    0    0  0.15913763126E+02 -0.28128087655E+02 -0.36183126176E+02  0.10899822774E+03  0.97606136383E+02 0.  0.
         23    2    1    2    0    0 -0.15913763126E+02  0.28128087655E+02 -0.11175352629E+03  0.14801147329E+03  0.91510154708E+02 0.  0.
          5    1    4    4  502    0  0.44990539174E+01  0.59158160344E+02 -0.65372559522E+02  0.88405831029E+02  0.47000000000E+01 0. -1.
         -5    1    4    4    0  502 -0.20412817044E+02 -0.31030072690E+02 -0.46380966765E+02  0.59605642257E+02  0.47000000000E+01 0.  1.
          5    1    3    3  503    0 -0.33756066190E+02  0.14275164734E+02 -0.17646728124E+02  0.40948129948E+02  0.47000000000E+01 0. -1.
         -5    1    3    3    0  503  0.49669829316E+02 -0.42403252388E+02 -0.18536398052E+02  0.68050097796E+02  0.47000000000E+01 0.  1.
<mgrwt>
<rscale>  0 0.10134390E+03</rscale>
<asrwt>0</asrwt>
<pdfrwt beam="1">  1        4 0.31149720E-01 0.10281729E+03</pdfrwt>
<pdfrwt beam="2">  1       -4 0.83902344E-02 0.10281729E+03</pdfrwt>
<totfact> 0.15570324E+03</totfact>
</mgrwt>
</event>
<event>
 8    1  0.2964543E-004  0.9662503E+02  0.7546771E-02  0.1288545E+00
         -2   -1    0    0    0  501 -0.00000000000E+00  0.00000000000E+00  0.37190130157E+03  0.37190130157E+03  0.00000000000E+00 0.  1.
          2   -1    0    0  501    0  0.00000000000E+00 -0.00000000000E+00 -0.27941499632E+02  0.27941499632E+02  0.00000000000E+00 0. -1.
         23    2    1    2    0    0 -0.57289518378E+01 -0.29782245680E+02  0.10190934587E+03  0.13921889519E+03  0.89869811148E+02 0.  0.
         23    2    1    2    0    0  0.57289518378E+01  0.29782245680E+02  0.24205045606E+03  0.26062390601E+03  0.91741997222E+02 0.  0.
          5    1    4    4  502    0 -0.75935601213E+01 -0.21786590892E+02  0.16323653405E+02  0.28650817763E+02  0.47000000000E+01 0. -1.
         -5    1    3    3    0  503  0.33708416426E+02  0.82906996590E+01  0.19383790198E+02  0.40035164059E+02  0.47000000000E+01 0.  1.
          5    1    3    3  503    0 -0.39437368264E+02 -0.38072945339E+02  0.82525555674E+02  0.99183731134E+02  0.47000000000E+01 0. -1.
         -5    1    4    4    0  502  0.13322511959E+02  0.51568836572E+02  0.22572680266E+03  0.23197308824E+03  0.47000000000E+01 0.  1.
<mgrwt>
<rscale>  0 0.96178003E+02</rscale>
<asrwt>0</asrwt>
<pdfrwt beam="1">  1        2 0.42986925E-02 0.96625034E+02</pdfrwt>
<pdfrwt beam="2">  1       -2 0.57215582E-01 0.96625034E+02</pdfrwt>
<totfact> 0.51621815E+03</totfact>
</mgrwt>
</event>
<event>
 8    1  0.2964543E-004  0.1347681E+03  0.7546771E-02  0.1220621E+00
          2   -1    0    0  501    0  0.00000000000E+00  0.00000000000E+00  0.13993549183E+04  0.13993549183E+04  0.00000000000E+00 0. -1.
         -2   -1    0    0    0  501 -0.00000000000E+00 -0.00000000000E+00 -0.22442472036E+02  0.22442472036E+02  0.00000000000E+00 0.  1.
         23    2    1    2    0    0 -0.11567034481E+02  0.98906631318E+02  0.11502677906E+04  0.11581115105E+04  0.90498412417E+02 0.  0.
         23    2    1    2    0    0  0.11567034481E+02 -0.98906631318E+02  0.22664465566E+03  0.26368587983E+03  0.90808178478E+02 0.  0.
          5    1    3    3  502    0  0.33254078221E+02  0.73412331953E+02  0.79536410517E+03  0.79945065763E+03  0.47000000000E+01 0. -1.
         -5    1    3    3    0  502 -0.44821112702E+02  0.25494299365E+02  0.35490368542E+03  0.35866085285E+03  0.47000000000E+01 0.  1.
          5    1    4    4  503    0 -0.33554311886E+02 -0.34610922838E+02  0.46669376360E+02  0.67260155484E+02  0.47000000000E+01 0. -1.
         -5    1    4    4    0  503  0.45121346367E+02 -0.64295708480E+02  0.17997527930E+03  0.19642572435E+03  0.47000000000E+01 0.  1.
<mgrwt>
<rscale>  0 0.13471595E+03</rscale>
<asrwt>0</asrwt>
<pdfrwt beam="1">  1        2 0.21528530E+00 0.13476811E+03</pdfrwt>
<pdfrwt beam="2">  1       -2 0.34526891E-02 0.13476811E+03</pdfrwt>
<totfact> 0.52192502E+03</totfact>
</mgrwt>
</event>
<event>
 8    1  0.2964543E-004  0.9248384E+02  0.7546771E-02  0.1297398E+00
          2   -1    0    0  501    0  0.00000000000E+00  0.00000000000E+00  0.79291197686E+03  0.79291197686E+03  0.00000000000E+00 0. -1.
         -2   -1    0    0    0  501 -0.00000000000E+00 -0.00000000000E+00 -0.10882706718E+02  0.10882706718E+02  0.00000000000E+00 0.  1.
         23    2    1    2    0    0  0.64596134846E+01  0.28471747314E+01  0.44507415776E+03  0.45458141915E+03  0.92214032127E+02 0.  0.
         23    2    1    2    0    0 -0.64596134846E+01 -0.28471747314E+01  0.33695511238E+03  0.34921326443E+03  0.91440271660E+02 0.  0.
          5    1    3    3  502    0 -0.32953446223E+02  0.26126647443E+02  0.14674428134E+03  0.15272362434E+03  0.47000000000E+01 0. -1.
         -5    1    4    4    0  503 -0.28722697678E+02  0.30967313281E+02  0.98156515986E+02  0.10696148599E+03  0.47000000000E+01 0.  1.
          5    1    4    4  503    0  0.22263084194E+02 -0.33814488013E+02  0.23879859640E+03  0.24225177844E+03  0.47000000000E+01 0. -1.
         -5    1    3    3    0  502  0.39413059707E+02 -0.23279472712E+02  0.29832987642E+03  0.30185779481E+03  0.47000000000E+01 0.  1.
<mgrwt>
<rscale>  0 0.92290363E+02</rscale>
<asrwt>0</asrwt>
<pdfrwt beam="1">  1        2 0.12198641E+00 0.92483840E+02</pdfrwt>
<pdfrwt beam="2">  1       -2 0.16742632E-02 0.92483840E+02</pdfrwt>
<totfact> 0.32651241E+04</totfact>
</mgrwt>
</event>
<event>
 8    1  0.2964543E-004  0.9899682E+02  0.7546771E-02  0.1285069E+00
          1   -1    0    0  501    0  0.00000000000E+00  0.00000000000E+00  0.89609679489E+03  0.89609679489E+03  0.00000000000E+00 0. -1.
         -1   -1    0    0    0  501 -0.00000000000E+00 -0.00000000000E+00 -0.10822847978E+02  0.10822847978E+02  0.00000000000E+00 0.  1.
         23    2    1    2    0    0 -0.20749321842E+01 -0.33108114531E+02  0.34328245519E+03  0.35596125217E+03  0.88119897952E+02 0.  0.
         23    2    1    2    0    0  0.20749321842E+01  0.33108114531E+02  0.54199149171E+03  0.55095839069E+03  0.93273354117E+02 0.  0.
          5    1    3    3  502    0  0.17284550514E+02 -0.51010292105E+02  0.12702630217E+03  0.13805280522E+03  0.47000000000E+01 0. -1.
         -5    1    3    3    0  502 -0.19359482698E+02  0.17902177574E+02  0.21625615303E+03  0.21790844695E+03  0.47000000000E+01 0.  1.
          5    1    4    4  503    0  0.46475255741E+02  0.20403529085E+02  0.33256619802E+03  0.33645002521E+03  0.47000000000E+01 0. -1.
         -5    1    4    4    0  503 -0.44400323557E+02  0.12704585446E+02  0.20942529369E+03  0.21450836548E+03  0.47000000000E+01 0.  1.
<mgrwt>
<rscale>  0 0.97764070E+02</rscale>
<asrwt>0</asrwt>
<pdfrwt beam="1">  1        1 0.13786099E+00 0.98996824E+02</pdfrwt>
<pdfrwt beam="2">  1       -1 0.16650542E-02 0.98996824E+02</pdfrwt>
<totfact> 0.16064200E+04</totfact>
</mgrwt>
</event>
<event>
 8    1  0.2964543E-004  0.1060704E+03  0.7546771E-02  0.1268781E+00
          1   -1    0    0  501    0  0.00000000000E+00  0.00000000000E+00  0.20557255295E+02  0.20557255295E+02  0.00000000000E+00 0. -1.
         -1   -1    0    0    0  501 -0.00000000000E+00 -0.00000000000E+00 -0.54055058698E+03  0.54055058698E+03  0.00000000000E+00 0.  1.
         23    2    1    2    0    0 -0.53999009741E+02 -0.48703212527E+01 -0.27507836065E+03  0.29482034528E+03  0.91166432469E+02 0.  0.
         23    2    1    2    0    0  0.53999009741E+02  0.48703212527E+01 -0.24491497104E+03  0.26628749700E+03  0.89364841733E+02 0.  0.
          5    1    3    3  502    0 -0.24183858679E+02  0.12241101166E+02 -0.12949717070E+02  0.30405406601E+02  0.47000000000E+01 0. -1.
         -5    1    3    3    0  502 -0.29815151062E+02 -0.17111422418E+02 -0.26212864358E+03  0.26441493868E+03  0.47000000000E+01 0.  1.
          5    1    4    4  503    0 -0.10148169418E+02  0.30112634498E+02 -0.11159868321E+03  0.11612972140E+03  0.47000000000E+01 0.  1.
         -5    1    4    4    0  503  0.64147179159E+02 -0.25242313245E+02 -0.13331628783E+03  0.15015777560E+03  0.47000000000E+01 0. -1.
<mgrwt>
<rscale>  0 0.10568218E+03</rscale>
<asrwt>0</asrwt>
<pdfrwt beam="1">  1        1 0.31626550E-02 0.10607041E+03</pdfrwt>
<pdfrwt beam="2">  1       -1 0.83161620E-01 0.10607041E+03</pdfrwt>
<totfact> 0.44691968E+03</totfact>
</mgrwt>
</event>
<event>
 8    1  0.2964543E-004  0.1046143E+03  0.7546771E-02  0.1271536E+00
         -2   -1    0    0    0  501 -0.00000000000E+00  0.00000000000E+00  0.26956235911E+02  0.26956235911E+02  0.00000000000E+00 0.  1.
          2   -1    0    0  501    0  0.00000000000E+00 -0.00000000000E+00 -0.63533695050E+03  0.63533695050E+03  0.00000000000E+00 0. -1.
         23    2    1    2    0    0  0.44543438282E+02 -0.27234303333E+02 -0.10183193374E+03  0.14505454043E+03  0.89136141929E+02 0.  0.
         23    2    1    2    0    0 -0.44543438282E+02  0.27234303333E+02 -0.50654878085E+03  0.51723864598E+03  0.90654974192E+02 0.  0.
          5    1    4    4  502    0  0.13408361178E+02 -0.22174310276E+02 -0.17857593395E+03  0.18050744686E+03  0.47000000000E+01 0. -1.
         -5    1    3    3    0  503  0.26648918364E+01 -0.53002202124E+02 -0.44832860007E+02  0.69630527895E+02  0.47000000000E+01 0.  1.
          5    1    3    3  503    0  0.41878546445E+02  0.25767898791E+02 -0.56999073735E+02  0.75424012536E+02  0.47000000000E+01 0. -1.
         -5    1    4    4    0  502 -0.57951799459E+02  0.49408613609E+02 -0.32797284690E+03  0.33673119912E+03  0.47000000000E+01 0.  1.
<mgrwt>
<rscale>  0 0.10428439E+03</rscale>
<asrwt>0</asrwt>
<pdfrwt beam="1">  1        2 0.97744147E-01 0.10461429E+03</pdfrwt>
<pdfrwt beam="2">  1       -2 0.41471132E-02 0.10461429E+03</pdfrwt>
<totfact> 0.11480277E+04</totfact>
</mgrwt>
</event>
<event>
 7    1  0.2964543E-004  0.2050898E+03  0.7546771E-02  0.1164468E+00
          1   -1    0    0  501    0  0.00000000000E+00  0.00000000000E+00  0.18754515333E+03  0.18754515333E+03  0.00000000000E+00 0. -1.
         -1   -1    0    0    0  501 -0.00000000000E+00 -0.00000000000E+00 -0.53631695193E+03  0.53631695193E+03  0.00000000000E+00 0.  1.
         23    2    1    2    0    0  0.24211392584E+02 -0.90990408411E+02 -0.46836565815E+03  0.48644994287E+03  0.91660848960E+02 0.  0.
          5    1    3    3  502    0  0.21457024041E+02 -0.32856289343E+02 -0.48594949141E+02  0.62637837703E+02  0.47000000000E+01 0. -1.
         -5    1    1    2    0  503 -0.44361251174E+02  0.94048101137E+02 -0.11441111049E+02  0.10471845566E+03  0.47000000000E+01 0.  1.
          5    1    1    2  503    0  0.20149858590E+02 -0.30576927258E+01  0.13103497059E+03  0.13269370673E+03  0.47000000000E+01 0. -1.
         -5    1    3    3    0  502  0.27543685436E+01 -0.58134119069E+02 -0.41977070901E+03  0.42381210517E+03  0.47000000000E+01 0.  1.
<mgrwt>
<rscale>  0 0.18348929E+03</rscale>
<asrwt>0</asrwt>
<pdfrwt beam="1">  1        1 0.28853101E-01 0.20508984E+03</pdfrwt>
<pdfrwt beam="2">  1       -1 0.82510298E-01 0.20508984E+03</pdfrwt>
<totfact> 0.24621678E+02</totfact>
</mgrwt>
</event>
<event>
 8    1  0.2964543E-004  0.9570090E+02  0.7546771E-02  0.1297467E+00
          1   -1    0    0  501    0  0.00000000000E+00  0.00000000000E+00  0.41778315624E+02  0.41778315624E+02  0.00000000000E+00 0. -1.
         -1   -1    0    0    0  501 -0.00000000000E+00 -0.00000000000E+00 -0.19700551789E+03  0.19700551789E+03  0.00000000000E+00 0.  1.
         23    2    1    2    0    0  0.90731329275E+01 -0.25961465172E+02 -0.93976617021E+02  0.12516034835E+03  0.77956326469E+02 0.  0.
         23    2    1    2    0    0 -0.90731329275E+01  0.25961465172E+02 -0.61250585241E+02  0.11362348516E+03  0.91664293885E+02 0.  0.
          5    1    3    3  502    0  0.20527782071E+02  0.10400052625E+02  0.16100013215E+00  0.23487589327E+02  0.47000000000E+01 0. -1.
         -5    1    4    4    0  503  0.29448006221E+02 -0.19680155900E+02 -0.24875201503E+02  0.43535723911E+02  0.47000000000E+01 0.  1.
          5    1    4    4  503    0 -0.38521139148E+02  0.45641621072E+02 -0.36375383738E+02  0.70087761253E+02  0.47000000000E+01 0. -1.
         -5    1    3    3    0  502 -0.11454649143E+02 -0.36361517797E+02 -0.94137617153E+02  0.10167275902E+03  0.47000000000E+01 0.  1.
<mgrwt>
<rscale>  0 0.92260856E+02</rscale>
<asrwt>0</asrwt>
<pdfrwt beam="1">  1        1 0.64274333E-02 0.95700900E+02</pdfrwt>
<pdfrwt beam="2">  1       -1 0.30308541E-01 0.95700900E+02</pdfrwt>
<totfact> 0.10709407E+04</totfact>
</mgrwt>
</event>
<event>
 8    1  0.2964543E-004  0.9849711E+02  0.7546771E-02  0.1284204E+00
         -2   -1    0    0    0  501 -0.00000000000E+00  0.00000000000E+00  0.31626315714E+03  0.31626315714E+03  0.00000000000E+00 0. -1.
          2   -1    0    0  501    0  0.00000000000E+00 -0.00000000000E+00 -0.59381858923E+02  0.59381858923E+02  0.00000000000E+00 0.  1.
         23    2    1    2    0    0  0.31427418649E+02 -0.17447540188E+02  0.25951626773E+03  0.27711266374E+03  0.90280872220E+02 0.  0.
         23    2    1    2    0    0 -0.31427418649E+02  0.17447540188E+02 -0.26349695154E+01  0.98532352317E+02  0.91703773572E+02 0.  0.
          5    1    3    3  502    0  0.52222168109E+02 -0.29014461508E+02  0.23540369775E+03  0.24291147509E+03  0.47000000000E+01 0. -1.
         -5    1    4    4    0  503 -0.39297111294E+02 -0.28504891024E+02 -0.13137287539E+02  0.50512078677E+02  0.47000000000E+01 0.  1.
          5    1    4    4  503    0  0.78696926447E+01  0.45952431212E+02  0.10502318023E+02  0.48020273641E+02  0.47000000000E+01 0. -1.
         -5    1    3    3    0  502 -0.20794749460E+02  0.11566921320E+02  0.24112569982E+02  0.34201188650E+02  0.47000000000E+01 0.  1.
<mgrwt>
<rscale>  0 0.98164589E+02</rscale>
<asrwt>0</asrwt>
<pdfrwt beam="1">  1        2 0.91356708E-02 0.98497114E+02</pdfrwt>
<pdfrwt beam="2">  1       -2 0.48655869E-01 0.98497114E+02</pdfrwt>
<totfact> 0.27410477E+03</totfact>
</mgrwt>
</event>
<event>
 8    1  0.2964543E-004  0.1051474E+03  0.7546771E-02  0.1270744E+00
          1   -1    0    0  501    0  0.00000000000E+00  0.00000000000E+00  0.69900485118E+03  0.69900485118E+03  0.00000000000E+00 0. -1.
         -1   -1    0    0    0  501 -0.00000000000E+00 -0.00000000000E+00 -0.17577457631E+02  0.17577457631E+02  0.00000000000E+00 0.  1.
         23    2    1    2    0    0 -0.25167462557E+02 -0.48209039175E+02  0.22142048899E+03  0.24511836889E+03  0.89991495117E+02 0.  0.
         23    2    1    2    0    0  0.25167462557E+02  0.48209039175E+02  0.46000690456E+03  0.47146393992E+03  0.87831553401E+02 0.  0.
          5    1    3    3  502    0  0.25565231784E+02 -0.10398975513E+01  0.22383898263E+02  0.34318965085E+02  0.47000000000E+01 0. -1.
         -5    1    4    4    0  503  0.30254642939E+02 -0.46522262675E+01  0.56330041244E+02  0.64281802831E+02  0.47000000000E+01 0.  1.
          5    1    4    4  503    0 -0.50871803824E+01  0.52861265442E+02  0.40367686331E+03  0.40718213708E+03  0.47000000000E+01 0. -1.
         -5    1    3    3    0  502 -0.50732694341E+02 -0.47169141624E+02  0.19903659073E+03  0.21079940381E+03  0.47000000000E+01 0.  1.
<mgrwt>
<rscale>  0 0.10468373E+03</rscale>
<asrwt>0</asrwt>
<pdfrwt beam="1">  1        1 0.10753919E+00 0.10514743E+03</pdfrwt>
<pdfrwt beam="2">  1       -1 0.27042248E-02 0.10514743E+03</pdfrwt>
<totfact> 0.11648553E+04</totfact>
</mgrwt>
</event>
<event>
 8    1  0.2964543E-004  0.2297839E+03  0.7546771E-02  0.1127001E+00
          1   -1    0    0  501    0  0.00000000000E+00  0.00000000000E+00  0.95439084056E+03  0.95439084056E+03  0.00000000000E+00 0. -1.
         -1   -1    0    0    0  501 -0.00000000000E+00 -0.00000000000E+00 -0.96706977496E+02  0.96706977496E+02  0.00000000000E+00 0.  1.
         23    2    1    2    0    0  0.44633864148E+02 -0.20509743994E+03  0.77444716177E+03  0.80781746410E+03  0.93506722944E+02 0.  0.
         23    2    1    2    0    0 -0.44633864148E+02  0.20509743994E+03  0.83236701293E+02  0.24328035395E+03  0.90552970577E+02 0.  0.
          5    1    3    3  502    0  0.67550785448E+02 -0.15778850740E+03  0.50919473794E+03  0.53736551139E+03  0.47000000000E+01 0. -1.
         -5    1    3    3    0  502 -0.22916921300E+02 -0.47308932541E+02  0.26525242383E+03  0.27045195271E+03  0.47000000000E+01 0.  1.
          5    1    4    4  503    0 -0.59778450974E+02  0.68598022310E+02  0.36123680393E+02  0.98011030761E+02  0.47000000000E+01 0. -1.
         -5    1    4    4    0  503  0.15144586826E+02  0.13649941763E+03  0.47113020900E+02  0.14526932319E+03  0.47000000000E+01 0.  1.
<mgrwt>
<rscale>  0 0.22948683E+03</rscale>
<asrwt>0</asrwt>
<pdfrwt beam="1">  1        1 0.14682935E+00 0.22978392E+03</pdfrwt>
<pdfrwt beam="2">  1       -1 0.14877997E-01 0.22978392E+03</pdfrwt>
<totfact> 0.56830747E+02</totfact>
</mgrwt>
</event>
<event>
 8    1  0.2964543E-004  0.9134195E+02  0.7546771E-02  0.1300108E+00
          1   -1    0    0  501    0  0.00000000000E+00  0.00000000000E+00  0.13895426640E+03  0.13895426640E+03  0.00000000000E+00 0. -1.
         -1   -1    0    0    0  501 -0.00000000000E+00 -0.00000000000E+00 -0.12323953228E+03  0.12323953228E+03  0.00000000000E+00 0.  1.
         23    2    1    2    0    0 -0.39405713379E+01 -0.14305631644E+02  0.10213695596E+03  0.13702302688E+03  0.90128646528E+02 0.  0.
         23    2    1    2    0    0  0.39405713379E+01  0.14305631644E+02 -0.86422221838E+02  0.12517077179E+03  0.89323806925E+02 0.  0.
          5    1    3    3  502    0 -0.35804275438E+02 -0.16524167729E+02  0.96363919283E+02  0.10422614451E+03  0.47000000000E+01 0. -1.
         -5    1    3    3    0  502  0.31863704100E+02  0.22185360850E+01  0.57730366739E+01  0.32796882379E+02  0.47000000000E+01 0.  1.
          5    1    4    4  503    0  0.40135343394E+02  0.29101130887E+00 -0.13815769935E+02  0.42707095147E+02  0.47000000000E+01 0. -1.
         -5    1    4    4    0  503 -0.36194772057E+02  0.14014620335E+02 -0.72606451903E+02  0.82463676642E+02  0.47000000000E+01 0.  1.
<mgrwt>
<rscale>  0 0.91142788E+02</rscale>
<asrwt>0</asrwt>
<pdfrwt beam="1">  1        1 0.21377579E-01 0.91341952E+02</pdfrwt>
<pdfrwt beam="2">  1       -1 0.18959928E-01 0.91341952E+02</pdfrwt>
<totfact> 0.47962184E+03</totfact>
</mgrwt>
</event>
<event>
 8    1  0.2964543E-004  0.1191336E+03  0.7546771E-02  0.1249329E+00
         -2   -1    0    0    0  501 -0.00000000000E+00  0.00000000000E+00  0.86212868390E+01  0.86212868390E+01  0.00000000000E+00 0.  1.
          2   -1    0    0  501    0  0.00000000000E+00 -0.00000000000E+00 -0.16727773537E+04  0.16727773537E+04  0.00000000000E+00 0. -1.
         23    2    1    2    0    0 -0.61615385659E+02  0.36537204254E+02 -0.52520530908E+03  0.53623418384E+03  0.81086744835E+02 0.  0.
         23    2    1    2    0    0  0.61615385659E+02 -0.36537204254E+02 -0.11389507577E+04  0.11451644567E+04  0.95191287376E+02 0.  0.
          5    1    3    3  502    0 -0.33621948687E+02  0.40047064832E+02 -0.47916909506E+03  0.48203663190E+03  0.47000000000E+01 0. -1.
         -5    1    3    3    0  502 -0.27993436972E+02 -0.35098605782E+01 -0.46036214024E+02  0.54197551941E+02  0.47000000000E+01 0.  1.
          5    1    4    4  503    0  0.64174081862E+02  0.15911520805E+02 -0.66064879015E+03  0.66396566418E+03  0.47000000000E+01 0. -1.
         -5    1    4    4    0  503 -0.25586962030E+01 -0.52448725059E+02 -0.47830196760E+03  0.48119879249E+03  0.47000000000E+01 0.  1.
<mgrwt>
<rscale>  0 0.11629978E+03</rscale>
<asrwt>0</asrwt>
<pdfrwt beam="1">  1        2 0.25735049E+00 0.11913356E+03</pdfrwt>
<pdfrwt beam="2">  1       -2 0.13263512E-02 0.11913356E+03</pdfrwt>
<totfact> 0.15052204E+04</totfact>
</mgrwt>
</event>
<event>
 8    1  0.2964543E-004  0.1226603E+03  0.7546771E-02  0.1242100E+00
          2   -1    0    0  501    0  0.00000000000E+00  0.00000000000E+00  0.56060661644E+03  0.56060661644E+03  0.00000000000E+00 0. -1.
         -2   -1    0    0    0  501 -0.00000000000E+00 -0.00000000000E+00 -0.26327527614E+02  0.26327527614E+02  0.00000000000E+00 0.  1.
         23    2    1    2    0    0 -0.18958528907E+02 -0.67043489694E+02  0.33872826587E+03  0.36025323096E+03  0.10095195386E+03 0.  0.
         23    2    1    2    0    0  0.18958528907E+02  0.67043489694E+02  0.19555082296E+03  0.22668091310E+03  0.91048650040E+02 0.  0.
          5    1    3    3  502    0 -0.56022325777E+02 -0.47735544130E+02  0.26803650627E+03  0.27799791699E+03  0.47000000000E+01 0. -1.
         -5    1    4    4    0  503  0.48585489117E+02  0.15552345755E+02  0.61923819047E+02  0.80368368010E+02  0.47000000000E+01 0.  1.
          5    1    4    4  503    0 -0.29626960210E+02  0.51491143939E+02  0.13362700391E+03  0.14631254509E+03  0.47000000000E+01 0. -1.
         -5    1    3    3    0  502  0.37063796870E+02 -0.19307945564E+02  0.70691759598E+02  0.82255313964E+02  0.47000000000E+01 0.  1.
<mgrwt>
<rscale>  0 0.12060615E+03</rscale>
<asrwt>0</asrwt>
<pdfrwt beam="1">  1        2 0.86247162E-01 0.12266031E+03</pdfrwt>
<pdfrwt beam="2">  1       -2 0.40503893E-02 0.12266031E+03</pdfrwt>
<totfact> 0.13859940E+04</totfact>
</mgrwt>
</event>
<event>
 8    1  0.2964543E-004  0.9280780E+02  0.7546771E-02  0.1296207E+00
          1   -1    0    0  501    0  0.00000000000E+00  0.00000000000E+00  0.97987889550E+02  0.97987889550E+02  0.00000000000E+00 0. -1.
         -1   -1    0    0    0  501 -0.00000000000E+00 -0.00000000000E+00 -0.14080566994E+03  0.14080566994E+03  0.00000000000E+00 0.  1.
         23    2    1    2    0    0 -0.27611590842E+01 -0.13743636395E+02  0.51796477133E+02  0.10625999747E+03  0.91715868195E+02 0.  0.
         23    2    1    2    0    0  0.27611590842E+01  0.13743636395E+02 -0.94614257518E+02  0.13253356201E+03  0.91742987706E+02 0.  0.
          5    1    4    4  502    0  0.11109463999E+02 -0.34016342164E+02 -0.68101768984E+02  0.77074461810E+02  0.47000000000E+01 0. -1.
         -5    1    4    4    0  502 -0.83483049144E+01  0.47759978560E+02 -0.26512488534E+02  0.55459100202E+02  0.47000000000E+01 0.  1.
          5    1    3    3  503    0 -0.21709276158E+02  0.91585420000E+01  0.67972824687E+02  0.72094149963E+02  0.47000000000E+01 0. -1.
         -5    1    3    3    0  503  0.18948117074E+02 -0.22902178395E+02 -0.16176347555E+02  0.34165847510E+02  0.47000000000E+01 0.  1.
<mgrwt>
<rscale>  0 0.92801095E+02</rscale>
<asrwt>0</asrwt>
<pdfrwt beam="1">  1        1 0.15075060E-01 0.92807798E+02</pdfrwt>
<pdfrwt beam="2">  1       -1 0.21662411E-01 0.92807798E+02</pdfrwt>
<totfact> 0.60420828E+03</totfact>
</mgrwt>
</event>
<event>
 8    1  0.2964543E-004  0.9819022E+02  0.7546771E-02  0.1285142E+00
         -1   -1    0    0    0  501 -0.00000000000E+00  0.00000000000E+00  0.23812153693E+03  0.23812153693E+03  0.00000000000E+00 0.  1.
          1   -1    0    0  501    0  0.00000000000E+00 -0.00000000000E+00 -0.44751150137E+02  0.44751150137E+02  0.00000000000E+00 0. -1.
         23    2    1    2    0    0  0.21061275534E+02  0.20521961500E+02  0.50162769809E+02  0.11026160788E+03  0.93683458876E+02 0.  0.
         23    2    1    2    0    0 -0.21061275534E+02 -0.20521961500E+02  0.14320761699E+03  0.17261107919E+03  0.91768376166E+02 0.  0.
          5    1    3    3  502    0  0.86415693723E+01  0.54953734425E+02  0.11859474553E+02  0.57072995235E+02  0.47000000000E+01 0. -1.
         -5    1    3    3    0  502  0.12419706162E+02 -0.34431772925E+02  0.38303295255E+02  0.53188612647E+02  0.47000000000E+01 0.  1.
          5    1    4    4  503    0 -0.51166336400E+02 -0.20323084934E+02  0.49892353683E+02  0.74447019536E+02  0.47000000000E+01 0. -1.
         -5    1    4    4    0  503  0.30105060866E+02 -0.19887656584E+00  0.93315263303E+02  0.98164059650E+02  0.47000000000E+01 0.  1.
<mgrwt>
<rscale>  0 0.97730631E+02</rscale>
<asrwt>0</asrwt>
<pdfrwt beam="1">  1        1 0.68847925E-02 0.98190217E+02</pdfrwt>
<pdfrwt beam="2">  1       -1 0.36634082E-01 0.98190217E+02</pdfrwt>
<totfact> 0.71083836E+03</totfact>
</mgrwt>
</event>
<event>
 8    1  0.2964543E-004  0.1218922E+03  0.7546771E-02  0.1240587E+00
          1   -1    0    0  501    0  0.00000000000E+00  0.00000000000E+00  0.13225200167E+03  0.13225200167E+03  0.00000000000E+00 0. -1.
         -1   -1    0    0    0  501 -0.00000000000E+00 -0.00000000000E+00 -0.14704118679E+03  0.14704118679E+03  0.00000000000E+00 0.  1.
         23    2    1    2    0    0  0.26371711137E+02  0.76590285534E+02  0.61740647656E+02  0.13536776843E+03  0.89168302502E+02 0.  0.
         23    2    1    2    0    0 -0.26371711137E+02 -0.76590285534E+02 -0.76529832778E+02  0.14392542002E+03  0.91083325791E+02 0.  0.
          5    1    4    4  502    0 -0.13732068802E+01 -0.89379253271E+02 -0.72460003230E+02  0.11516544048E+03  0.47000000000E+01 0. -1.
         -5    1    4    4    0  502 -0.24998504257E+02  0.12788967737E+02 -0.40698295481E+01  0.28759979545E+02  0.47000000000E+01 0.  1.
          5    1    3    3  503    0  0.22587613459E+02 -0.14696416321E+02  0.52724443532E+01  0.27858097636E+02  0.47000000000E+01 0. -1.
         -5    1    3    3    0  503  0.37840976781E+01  0.91286701854E+02  0.56468203302E+02  0.10750967080E+03  0.47000000000E+01 0.  1.
<mgrwt>
<rscale>  0 0.12153457E+03</rscale>
<asrwt>0</asrwt>
<pdfrwt beam="1">  1        1 0.20346462E-01 0.12189221E+03</pdfrwt>
<pdfrwt beam="2">  1       -1 0.22621721E-01 0.12189221E+03</pdfrwt>
<totfact> 0.39199377E+03</totfact>
</mgrwt>
</event>
<event>
 8    1  0.2964543E-004  0.1178100E+03  0.7546771E-02  0.1248400E+00
         -2   -1    0    0    0  501 -0.00000000000E+00  0.00000000000E+00  0.48801062867E+02  0.48801062867E+02  0.00000000000E+00 0. -1.
          2   -1    0    0  501    0  0.00000000000E+00 -0.00000000000E+00 -0.27546386524E+03  0.27546386524E+03  0.00000000000E+00 0.  1.
         23    2    1    2    0    0 -0.66188127597E+02 -0.36138741710E+02 -0.11604105841E+03  0.16265936891E+03  0.85473189770E+02 0.  0.
         23    2    1    2    0    0  0.66188127597E+02  0.36138741710E+02 -0.11062174396E+03  0.16160555919E+03  0.90511378506E+02 0.  0.
          5    1    4    4  502    0  0.46317848317E+02  0.29410978740E+02 -0.12441889866E+03  0.13606065224E+03  0.47000000000E+01 0.  1.
         -5    1    4    4    0  502  0.19870279280E+02  0.67277629695E+01  0.13797154708E+02  0.25544906954E+02  0.47000000000E+01 0. -1.
          5    1    3    3  503    0  0.11341610823E+02 -0.28230142009E+02 -0.13087856610E+02  0.33450785410E+02  0.47000000000E+01 0. -1.
         -5    1    3    3    0  503 -0.77529738420E+02 -0.79085997009E+01 -0.10295320180E+03  0.12920858350E+03  0.47000000000E+01 0.  1.
<mgrwt>
<rscale>  0 0.11684181E+03</rscale>
<asrwt>0</asrwt>
<pdfrwt beam="1">  1        2 0.42379055E-01 0.11780996E+03</pdfrwt>
<pdfrwt beam="2">  1       -2 0.75078560E-02 0.11780996E+03</pdfrwt>
<totfact> 0.11677269E+04</totfact>
</mgrwt>
</event>
<event>
 8    1  0.2964543E-004  0.9523866E+02  0.7546771E-02  0.1297109E+00
         -4   -1    0    0    0  501 -0.00000000000E+00  0.00000000000E+00  0.41336422551E+02  0.41336422551E+02  0.00000000000E+00 0.  1.
          4   -1    0    0  501    0  0.00000000000E+00 -0.00000000000E+00 -0.22407453987E+03  0.22407453987E+03  0.00000000000E+00 0. -1.
         23    2    1    2    0    0  0.17123698028E+02 -0.16151373780E+02 -0.48625098957E+02  0.10693363655E+03  0.92283879789E+02 0.  0.
         23    2    1    2    0    0 -0.17123698028E+02  0.16151373780E+02 -0.13411301836E+03  0.15847732587E+03  0.81084358607E+02 0.  0.
          5    1    3    3  502    0  0.50275419474E+02  0.10497683991E+02 -0.33716019414E+02  0.61617198391E+02  0.47000000000E+01 0. -1.
         -5    1    3    3    0  502 -0.33151721446E+02 -0.26649057771E+02 -0.14909079543E+02  0.45316438163E+02  0.47000000000E+01 0.  1.
          5    1    4    4  503    0 -0.48574386309E+02  0.19086136535E+02 -0.86959654659E+02  0.10152745024E+03  0.47000000000E+01 0.  1.
         -5    1    4    4    0  503  0.31450688281E+02 -0.29347627556E+01 -0.47153363701E+02  0.56949875628E+02  0.47000000000E+01 0. -1.
<mgrwt>
<rscale>  0 0.92413776E+02</rscale>
<asrwt>0</asrwt>
<pdfrwt beam="1">  1        4 0.34473006E-01 0.95238660E+02</pdfrwt>
<pdfrwt beam="2">  1       -4 0.63594496E-02 0.95238660E+02</pdfrwt>
<totfact> 0.19821960E+03</totfact>
</mgrwt>
</event>
<event>
 8    1  0.2964543E-004  0.1590709E+03  0.7546771E-02  0.1189890E+00
         -2   -1    0    0    0  501 -0.00000000000E+00  0.00000000000E+00  0.23759259637E+02  0.23759259637E+02  0.00000000000E+00 0. -1.
          2   -1    0    0  501    0  0.00000000000E+00 -0.00000000000E+00 -0.16666614783E+04  0.16666614783E+04  0.00000000000E+00 0.  1.
         23    2    1    2    0    0  0.70642163455E+00 -0.13002118729E+03 -0.31304532098E+03  0.35114230890E+03  0.91638092193E+02 0.  0.
         23    2    1    2    0    0 -0.70642163455E+00  0.13002118729E+03 -0.13298568977E+04  0.13392784291E+04  0.90781793188E+02 0.  0.
          5    1    4    4  502    0  0.28414502192E+02  0.40423969758E+01 -0.22532125061E+03  0.22719040668E+03  0.47000000000E+01 0. -1.
         -5    1    4    4    0  502 -0.29120923826E+02  0.12597879032E+03 -0.11045356471E+04  0.11120880224E+04  0.47000000000E+01 0.  1.
          5    1    3    3  503    0  0.41924954533E+02 -0.88423235546E+02 -0.22368681288E+03  0.24420125031E+03  0.47000000000E+01 0. -1.
         -5    1    3    3    0  503 -0.41218532898E+02 -0.41597951747E+02 -0.89358508096E+02  0.10694105859E+03  0.47000000000E+01 0.  1.
<mgrwt>
<rscale>  0 0.15894781E+03</rscale>
<asrwt>0</asrwt>
<pdfrwt beam="1">  1        2 0.25640943E+00 0.15907089E+03</pdfrwt>
<pdfrwt beam="2">  1       -2 0.36552711E-02 0.15907089E+03</pdfrwt>
<totfact> 0.34908508E+03</totfact>
</mgrwt>
</event>
<event>
 8    1  0.2964543E-004  0.1065918E+03  0.7546771E-02  0.1268789E+00
          1   -1    0    0  501    0  0.00000000000E+00  0.00000000000E+00  0.14531416117E+02  0.14531416117E+02  0.00000000000E+00 0. -1.
         -1   -1    0    0    0  501 -0.00000000000E+00 -0.00000000000E+00 -0.88632320219E+03  0.88632320219E+03  0.00000000000E+00 0.  1.
         23    2    1    2    0    0 -0.90635704406E+00 -0.46379712942E+02 -0.60243444196E+03  0.61117342103E+03  0.91944518376E+02 0.  0.
         23    2    1    2    0    0  0.90635704406E+00  0.46379712942E+02 -0.26935734411E+03  0.28968119728E+03  0.95968317543E+02 0.  0.
          5    1    4    4  502    0 -0.18416123748E+02 -0.20282887219E+02 -0.14071502515E+03  0.14343415713E+03  0.47000000000E+01 0. -1.
         -5    1    3    3    0  503 -0.36835660314E+02 -0.28875279464E+01 -0.12606375742E+03  0.13145099704E+03  0.47000000000E+01 0.  1.
          5    1    3    3  503    0  0.35929303270E+02 -0.43492184996E+02 -0.47637068454E+03  0.47972242399E+03  0.47000000000E+01 0. -1.
         -5    1    4    4    0  502  0.19322480792E+02  0.66662600161E+02 -0.12864231896E+03  0.14624704015E+03  0.47000000000E+01 0.  1.
<mgrwt>
<rscale>  0 0.10567818E+03</rscale>
<asrwt>0</asrwt>
<pdfrwt beam="1">  1        1 0.22356029E-02 0.10659183E+03</pdfrwt>
<pdfrwt beam="2">  1       -1 0.13635739E+00 0.10659183E+03</pdfrwt>
<totfact> 0.23795636E+03</totfact>
</mgrwt>
</event>
<event>
 8    1  0.2964543E-004  0.1239328E+03  0.7546771E-02  0.1237264E+00
          1   -1    0    0  501    0  0.00000000000E+00  0.00000000000E+00  0.14182055960E+03  0.14182055960E+03  0.00000000000E+00 0. -1.
         -1   -1    0    0    0  501 -0.00000000000E+00 -0.00000000000E+00 -0.64619792913E+03  0.64619792913E+03  0.00000000000E+00 0.  1.
         23    2    1    2    0    0  0.31951382288E+02 -0.75559585162E+02 -0.61182473749E+03  0.62399328187E+03  0.91148037173E+02 0.  0.
         23    2    1    2    0    0 -0.31951382288E+02  0.75559585162E+02  0.10744736796E+03  0.16402520686E+03  0.92893432831E+02 0.  0.
          5    1    4    4  502    0  0.50070074436E+01  0.45853954327E+02  0.10673525054E+03  0.11637078224E+03  0.47000000000E+01 0. -1.
         -5    1    4    4    0  502 -0.36958389731E+02  0.29705630834E+02  0.71211742301E+00  0.47654424621E+02  0.47000000000E+01 0.  1.
          5    1    3    3  503    0 -0.15568976607E+02 -0.63630116264E+02 -0.23630921109E+03  0.24526581085E+03  0.47000000000E+01 0. -1.
         -5    1    3    3    0  503  0.47520358895E+02 -0.11929468898E+02 -0.37551552640E+03  0.37872747102E+03  0.47000000000E+01 0.  1.
<mgrwt>
<rscale>  0 0.12360578E+03</rscale>
<asrwt>0</asrwt>
<pdfrwt beam="1">  1        1 0.21818548E-01 0.12393277E+03</pdfrwt>
<pdfrwt beam="2">  1       -1 0.99415065E-01 0.12393277E+03</pdfrwt>
<totfact> 0.23717143E+02</totfact>
</mgrwt>
</event>
<event>
 7    1  0.2964543E-004  0.2974449E+03  0.7546771E-02  0.1088754E+00
         -2   -1    0    0    0  501 -0.00000000000E+00  0.00000000000E+00  0.11717729200E+03  0.11717729200E+03  0.00000000000E+00 0.  1.
          2   -1    0    0  501    0  0.00000000000E+00 -0.00000000000E+00 -0.12101306169E+04  0.12101306169E+04  0.00000000000E+00 0. -1.
         23    2    1    2    0    0 -0.23114658576E+03 -0.13147170733E+03 -0.96252577245E+03  0.10025236273E+04  0.88793056005E+02 0.  0.
          5    1    3    3  502    0 -0.22264269653E+03 -0.96960745612E+02 -0.79838739225E+03  0.83451523330E+03  0.47000000000E+01 0. -1.
         -5    1    3    3    0  502 -0.85038892289E+01 -0.34510961714E+02 -0.16413838020E+03  0.16800839403E+03  0.47000000000E+01 0.  1.
          5    1    1    2  503    0  0.24825381234E+01 -0.20161666721E+02 -0.20293953357E+02  0.29096225586E+02  0.47000000000E+01 0. -1.
         -5    1    1    2    0  503  0.22866404763E+03  0.15163337405E+03 -0.11013359912E+03  0.29568805600E+03  0.47000000000E+01 0.  1.
<mgrwt>
<rscale>  0 0.29307663E+03</rscale>
<asrwt>0</asrwt>
<pdfrwt beam="1">  1        2 0.18617395E+00 0.29744492E+03</pdfrwt>
<pdfrwt beam="2">  1       -2 0.18027275E-01 0.29744492E+03</pdfrwt>
<totfact> 0.49632811E+02</totfact>
</mgrwt>
</event>
<event>
 8    1  0.2964543E-004  0.9280119E+02  0.7546771E-02  0.1296421E+00
         -3   -1    0    0    0  501 -0.00000000000E+00  0.00000000000E+00  0.69618679755E+02  0.69618679755E+02  0.00000000000E+00 0.  1.
          3   -1    0    0  501    0  0.00000000000E+00 -0.00000000000E+00 -0.19691221137E+03  0.19691221137E+03  0.00000000000E+00 0. -1.
         23    2    1    2    0    0  0.58388722815E+01  0.10573807919E+02 -0.14509649373E+03  0.17203747583E+03  0.91640617372E+02 0.  0.
         23    2    1    2    0    0 -0.58388722815E+01 -0.10573807919E+02  0.17802962115E+02  0.94493415300E+02  0.92011750508E+02 0.  0.
          5    1    3    3  502    0 -0.40034422269E+02 -0.22913268167E+01 -0.41424527169E+02  0.57845367975E+02  0.47000000000E+01 0. -1.
         -5    1    3    3    0  502  0.45873294551E+02  0.12865134736E+02 -0.10367196656E+03  0.11419210785E+03  0.47000000000E+01 0.  1.
          5    1    4    4  503    0  0.34057873636E+01 -0.46428270454E+02 -0.10130685460E+02  0.47873839128E+02  0.47000000000E+01 0. -1.
         -5    1    4    4    0  503 -0.92446596450E+01  0.35854462536E+02  0.27933647574E+02  0.46619576172E+02  0.47000000000E+01 0.  1.
<mgrwt>
<rscale>  0 0.92709058E+02</rscale>
<asrwt>0</asrwt>
<pdfrwt beam="1">  1        3 0.30294186E-01 0.92801186E+02</pdfrwt>
<pdfrwt beam="2">  1       -3 0.10710566E-01 0.92801186E+02</pdfrwt>
<totfact> 0.14876168E+03</totfact>
</mgrwt>
</event>
<event>
 8    1  0.2964543E-004  0.1074432E+03  0.7546771E-02  0.1267966E+00
          1   -1    0    0  501    0  0.00000000000E+00  0.00000000000E+00  0.70602965345E+02  0.70602965345E+02  0.00000000000E+00 0. -1.
         -1   -1    0    0    0  501 -0.00000000000E+00 -0.00000000000E+00 -0.15574913696E+03  0.15574913696E+03  0.00000000000E+00 0.  1.
         23    2    1    2    0    0  0.41824538865E+02 -0.29599557140E+02 -0.45165179813E+02  0.11171129563E+03  0.88397365736E+02 0.  0.
         23    2    1    2    0    0 -0.41824538865E+02  0.29599557140E+02 -0.39980991802E+02  0.11464080668E+03  0.94438387408E+02 0.  0.
          5    1    3    3  502    0  0.67053688514E+02 -0.31026631567E+02 -0.22324112182E+02  0.77325965849E+02  0.47000000000E+01 0. -1.
         -5    1    3    3    0  502 -0.25229149650E+02  0.14270744263E+01 -0.22841067632E+02  0.34385329779E+02  0.47000000000E+01 0.  1.
          5    1    4    4  503    0  0.30168780759E+02  0.14127772432E+02 -0.13364180706E+02  0.36200008457E+02  0.47000000000E+01 0. -1.
         -5    1    4    4    0  503 -0.71993319624E+02  0.15471784709E+02 -0.26616811096E+02  0.78440798221E+02  0.47000000000E+01 0.  1.
<mgrwt>
<rscale>  0 0.10610093E+03</rscale>
<asrwt>0</asrwt>
<pdfrwt beam="1">  1        1 0.10861995E-01 0.10744317E+03</pdfrwt>
<pdfrwt beam="2">  1       -1 0.23961405E-01 0.10744317E+03</pdfrwt>
<totfact> 0.79441060E+03</totfact>
</mgrwt>
</event>
<event>
 8    1  0.2964543E-004  0.1091731E+03  0.7546771E-02  0.1262559E+00
         -1   -1    0    0    0  501 -0.00000000000E+00  0.00000000000E+00  0.54568167634E+02  0.54568167634E+02  0.00000000000E+00 0.  1.
          1   -1    0    0  501    0  0.00000000000E+00 -0.00000000000E+00 -0.26706597847E+03  0.26706597847E+03  0.00000000000E+00 0. -1.
         23    2    1    2    0    0 -0.56399042702E+02  0.11892239999E+02 -0.17583931731E+03  0.20647072105E+03  0.91588294825E+02 0.  0.
         23    2    1    2    0    0  0.56399042702E+02 -0.11892239999E+02 -0.36658493530E+02  0.11516342506E+03  0.92717268799E+02 0.  0.
          5    1    4    4  502    0  0.71931963179E+01  0.30513058680E+02 -0.38673704685E+02  0.50005342288E+02  0.47000000000E+01 0. -1.
         -5    1    3    3    0  503  0.86362593605E+01 -0.18884406537E+02 -0.98334198016E+02  0.10061267458E+03  0.47000000000E+01 0.  1.
          5    1    3    3  503    0 -0.65035302062E+02  0.30776646536E+02 -0.77505119293E+02  0.10585804647E+03  0.47000000000E+01 0. -1.
         -5    1    4    4    0  502  0.49205846384E+02 -0.42405298679E+02  0.20152111542E+01  0.65158082771E+02  0.47000000000E+01 0.  1.
<mgrwt>
<rscale>  0 0.10893304E+03</rscale>
<asrwt>0</asrwt>
<pdfrwt beam="1">  1        1 0.41087074E-01 0.10917312E+03</pdfrwt>
<pdfrwt beam="2">  1       -1 0.83951026E-02 0.10917312E+03</pdfrwt>
<totfact> 0.75894324E+03</totfact>
</mgrwt>
</event>
<event>
 8    1  0.2964543E-004  0.1030377E+03  0.7546771E-02  0.1274218E+00
         -1   -1    0    0    0  501 -0.00000000000E+00  0.00000000000E+00  0.10693032471E+02  0.10693032471E+02  0.00000000000E+00 0.  1.
          1   -1    0    0  501    0  0.00000000000E+00 -0.00000000000E+00 -0.10875517455E+04  0.10875517455E+04  0.00000000000E+00 0. -1.
         23    2    1    2    0    0 -0.86954184898E+00  0.47884967484E+02 -0.37258802985E+03  0.38647657943E+03  0.90821694778E+02 0.  0.
         23    2    1    2    0    0  0.86954184898E+00 -0.47884967484E+02 -0.70427068320E+03  0.71176819857E+03  0.91230735300E+02 0.  0.
          5    1    4    4  502    0  0.23976431027E+02 -0.67805824258E+02 -0.47876037840E+03  0.48415502577E+03  0.47000000000E+01 0. -1.
         -5    1    3    3    0  503  0.91231727791E+01  0.70952196306E+02 -0.21024975084E+03  0.22213620635E+03  0.47000000000E+01 0.  1.
          5    1    3    3  503    0 -0.99927146281E+01 -0.23067228822E+02 -0.16233827901E+03  0.16434037308E+03  0.47000000000E+01 0. -1.
         -5    1    4    4    0  502 -0.23106889178E+02  0.19920856775E+02 -0.22551030479E+03  0.22761317280E+03  0.47000000000E+01 0.  1.
<mgrwt>
<rscale>  0 0.10294711E+03</rscale>
<asrwt>0</asrwt>
<pdfrwt beam="1">  1        1 0.16731559E+00 0.10303773E+03</pdfrwt>
<pdfrwt beam="2">  1       -1 0.16450826E-02 0.10303773E+03</pdfrwt>
<totfact> 0.11896152E+04</totfact>
</mgrwt>
</event>
<event>
 8    1  0.2964543E-004  0.1281814E+03  0.7546771E-02  0.1230329E+00
          2   -1    0    0  501    0  0.00000000000E+00  0.00000000000E+00  0.21424530027E+03  0.21424530027E+03  0.00000000000E+00 0. -1.
         -2   -1    0    0    0  501 -0.00000000000E+00 -0.00000000000E+00 -0.54172399980E+03  0.54172399980E+03  0.00000000000E+00 0.  1.
         23    2    1    2    0    0 -0.66736420267E+02  0.61746808073E+02 -0.51400174131E+03  0.52964800565E+03  0.89793105098E+02 0.  0.
         23    2    1    2    0    0  0.66736420267E+02 -0.61746808073E+02  0.18652304178E+03  0.22632129443E+03  0.90355216216E+02 0.  0.
          5    1    3    3  502    0 -0.12268198016E+02  0.19549254124E+02 -0.20167434992E+02  0.31008022406E+02  0.47000000000E+01 0. -1.
         -5    1    3    3    0  502 -0.54468222251E+02  0.42197553950E+02 -0.49383430632E+03  0.49863998325E+03  0.47000000000E+01 0.  1.
          5    1    4    4  503    0  0.47846751863E+02 -0.11261073131E+02  0.15721132186E+03  0.16478353423E+03  0.47000000000E+01 0. -1.
         -5    1    4    4    0  503  0.18889668405E+02 -0.50485734942E+02  0.29311719919E+02  0.61537760194E+02  0.47000000000E+01 0.  1.
<mgrwt>
<rscale>  0 0.12808243E+03</rscale>
<asrwt>0</asrwt>
<pdfrwt beam="1">  1        2 0.32960815E-01 0.12818145E+03</pdfrwt>
<pdfrwt beam="2">  1       -2 0.83342154E-01 0.12818145E+03</pdfrwt>
<totfact> 0.20794541E+02</totfact>
</mgrwt>
</event>
<event>
 8    1  0.2964543E-004  0.9822830E+02  0.7546771E-02  0.1284479E+00
          3   -1    0    0  501    0  0.00000000000E+00  0.00000000000E+00  0.24240579705E+02  0.24240579705E+02  0.00000000000E+00 0. -1.
         -3   -1    0    0    0  501 -0.00000000000E+00 -0.00000000000E+00 -0.43045990046E+03  0.43045990046E+03  0.00000000000E+00 0.  1.
         23    2    1    2    0    0  0.69169937837E+01  0.34568499770E+02 -0.13708711173E+03  0.16820275786E+03  0.90865095456E+02 0.  0.
         23    2    1    2    0    0 -0.69169937837E+01 -0.34568499770E+02 -0.26913220903E+03  0.28649772230E+03  0.91684093316E+02 0.  0.
          5    1    3    3  502    0 -0.29166964034E+02  0.34436167319E+02 -0.28261169351E+02  0.53454140192E+02  0.47000000000E+01 0. -1.
         -5    1    3    3    0  502  0.36083957818E+02  0.13233245043E+00 -0.10882594238E+03  0.11474861767E+03  0.47000000000E+01 0.  1.
          5    1    4    4  503    0 -0.48303077892E+02 -0.16953610459E+02 -0.16857718089E+03  0.17624122150E+03  0.47000000000E+01 0. -1.
         -5    1    4    4    0  503  0.41386084108E+02 -0.17614889311E+02 -0.10055502814E+03  0.11025650080E+03  0.47000000000E+01 0.  1.
<mgrwt>
<rscale>  0 0.98036743E+02</rscale>
<asrwt>0</asrwt>
<pdfrwt beam="1">  1        3 0.37293200E-02 0.98228300E+02</pdfrwt>
<pdfrwt beam="2">  1       -3 0.66224598E-01 0.98228300E+02</pdfrwt>
<totfact> 0.17561666E+03</totfact>
</mgrwt>
</event>
<event>
 8    1  0.2964543E-004  0.1031723E+03  0.7546771E-02  0.1274565E+00
         -2   -1    0    0    0  501 -0.00000000000E+00  0.00000000000E+00  0.36422656436E+02  0.36422656436E+02  0.00000000000E+00 0.  1.
          2   -1    0    0  501    0  0.00000000000E+00 -0.00000000000E+00 -0.40194838386E+03  0.40194838386E+03  0.00000000000E+00 0. -1.
         23    2    1    2    0    0  0.37005428076E+02 -0.25588586573E+02 -0.64952580953E+02  0.12058377344E+03  0.91090236434E+02 0.  0.
         23    2    1    2    0    0 -0.37005428076E+02  0.25588586573E+02 -0.30057314647E+03  0.31778726686E+03  0.92845856822E+02 0.  0.
          5    1    3    3  502    0 -0.26635569474E+02  0.74790382870E+01 -0.28494379859E+02  0.39992615049E+02  0.47000000000E+01 0. -1.
         -5    1    4    4    0  503  0.11000419057E+02 -0.28303415724E+02 -0.82776782693E+02  0.88295969976E+02  0.47000000000E+01 0.  1.
          5    1    4    4  503    0 -0.48005847133E+02  0.53892002296E+02 -0.21779636377E+03  0.22949129688E+03  0.47000000000E+01 0. -1.
         -5    1    3    3    0  502  0.63640997550E+02 -0.33067624860E+02 -0.36458201093E+02  0.80591158386E+02  0.47000000000E+01 0.  1.
<mgrwt>
<rscale>  0 0.10277580E+03</rscale>
<asrwt>0</asrwt>
<pdfrwt beam="1">  1        2 0.61838215E-01 0.10317233E+03</pdfrwt>
<pdfrwt beam="2">  1       -2 0.56034854E-02 0.10317233E+03</pdfrwt>
<totfact> 0.12079581E+04</totfact>
</mgrwt>
</event>
<event>
 8    1  0.2964543E-004  0.9965731E+02  0.7546771E-02  0.1283009E+00
          1   -1    0    0  501    0  0.00000000000E+00  0.00000000000E+00  0.11143143336E+03  0.11143143336E+03  0.00000000000E+00 0. -1.
         -1   -1    0    0    0  501 -0.00000000000E+00 -0.00000000000E+00 -0.95264798483E+02  0.95264798483E+02  0.00000000000E+00 0.  1.
         23    2    1    2    0    0 -0.24654134017E+02  0.29569448165E+02  0.40422964556E+02  0.10412943042E+03  0.87901897741E+02 0.  0.
         23    2    1    2    0    0  0.24654134017E+02 -0.29569448165E+02 -0.24256329679E+02  0.10256680143E+03  0.91920621389E+02 0.  0.
          5    1    3    3  502    0  0.25433421079E+02 -0.13975378089E+02  0.11210166571E+02  0.31463120237E+02  0.47000000000E+01 0. -1.
         -5    1    4    4    0  503 -0.29445266133E+01 -0.45344356355E+02 -0.45156275203E+02  0.64233636675E+02  0.47000000000E+01 0.  1.
          5    1    4    4  503    0  0.27598660630E+02  0.15774908190E+02  0.20899945524E+02  0.38333164752E+02  0.47000000000E+01 0. -1.
         -5    1    3    3    0  502 -0.50087555096E+02  0.43544826254E+02  0.29212797985E+02  0.72666310179E+02  0.47000000000E+01 0.  1.
<mgrwt>
<rscale>  0 0.98720641E+02</rscale>
<asrwt>0</asrwt>
<pdfrwt beam="1">  1        1 0.17143297E-01 0.99657309E+02</pdfrwt>
<pdfrwt beam="2">  1       -1 0.14656123E-01 0.99657309E+02</pdfrwt>
<totfact> 0.95462312E+03</totfact>
</mgrwt>
</event>
<event>
 8    1  0.2964543E-004  0.9964703E+02  0.7546771E-02  0.1283925E+00
          1   -1    0    0  501    0  0.00000000000E+00  0.00000000000E+00  0.59463518315E+02  0.59463518315E+02  0.00000000000E+00 0. -1.
         -1   -1    0    0    0  501 -0.00000000000E+00 -0.00000000000E+00 -0.20058984451E+03  0.20058984451E+03  0.00000000000E+00 0.  1.
         23    2    1    2    0    0  0.21532574642E+02  0.23450008589E+01 -0.13182911291E+03  0.16525266897E+03  0.97264478574E+02 0.  0.
         23    2    1    2    0    0 -0.21532574642E+02 -0.23450008589E+01 -0.92972132796E+01  0.94800693848E+02  0.91823649347E+02 0.  0.
          5    1    4    4  502    0 -0.55421067695E+02  0.30222059392E+01  0.76850029753E+01  0.56229687390E+02  0.47000000000E+01 0. -1.
         -5    1    4    4    0  502  0.33888493053E+02 -0.53672067981E+01 -0.16982216255E+02  0.38571006458E+02  0.47000000000E+01 0.  1.
          5    1    3    3  503    0 -0.30385051024E+02 -0.16774911934E+02 -0.19839337347E+02  0.40253425972E+02  0.47000000000E+01 0. -1.
         -5    1    3    3    0  503  0.51917625666E+02  0.19119912793E+02 -0.11198977556E+03  0.12499924300E+03  0.47000000000E+01 0.  1.
<mgrwt>
<rscale>  0 0.98293880E+02</rscale>
<asrwt>0</asrwt>
<pdfrwt beam="1">  1        1 0.91482338E-02 0.99647025E+02</pdfrwt>
<pdfrwt beam="2">  1       -1 0.30859975E-01 0.99647025E+02</pdfrwt>
<totfact> 0.65211758E+03</totfact>
</mgrwt>
</event>
<event>
 8    1  0.2964543E-004  0.1192883E+03  0.7546771E-02  0.1245578E+00
          2   -1    0    0  501    0  0.00000000000E+00  0.00000000000E+00  0.97736429100E+03  0.97736429100E+03  0.00000000000E+00 0. -1.
         -2   -1    0    0    0  501 -0.00000000000E+00 -0.00000000000E+00 -0.14748891070E+02  0.14748891070E+02  0.00000000000E+00 0.  1.
         23    2    1    2    0    0  0.52952935970E+02  0.49525289132E+02  0.57225022113E+03  0.58392857845E+03  0.90804743542E+02 0.  0.
         23    2    1    2    0    0 -0.52952935970E+02 -0.49525289132E+02  0.39036517880E+03  0.40818460363E+03  0.94725551596E+02 0.  0.
          5    1    3    3  502    0 -0.10058230573E+02  0.51056187071E+02  0.22645646046E+03  0.23240593952E+03  0.47000000000E+01 0. -1.
         -5    1    3    3    0  502  0.63011166543E+02 -0.15308979390E+01  0.34579376068E+03  0.35152263893E+03  0.47000000000E+01 0.  1.
          5    1    4    4  503    0 -0.51581951990E+02  0.49827463611E+01  0.28225758764E+03  0.28701386954E+03  0.47000000000E+01 0. -1.
         -5    1    4    4    0  503 -0.13709839793E+01 -0.54508035493E+02  0.10810759116E+03  0.12117073408E+03  0.47000000000E+01 0.  1.
<mgrwt>
<rscale>  0 0.11850842E+03</rscale>
<asrwt>0</asrwt>
<pdfrwt beam="1">  1        2 0.15036369E+00 0.11928830E+03</pdfrwt>
<pdfrwt beam="2">  1       -2 0.22690609E-02 0.11928830E+03</pdfrwt>
<totfact> 0.16480708E+04</totfact>
</mgrwt>
</event>
<event>
 8    1  0.2964543E-004  0.1029228E+03  0.7546771E-02  0.1279827E+00
         -3   -1    0    0    0  501 -0.00000000000E+00  0.00000000000E+00  0.34976276320E+02  0.34976276320E+02  0.00000000000E+00 0.  1.
          3   -1    0    0  501    0  0.00000000000E+00 -0.00000000000E+00 -0.28012817479E+03  0.28012817479E+03  0.00000000000E+00 0. -1.
         23    2    1    2    0    0  0.48463891490E+01 -0.37129501455E+02 -0.10398203865E+03  0.14630571070E+03  0.95869751509E+02 0.  0.
         23    2    1    2    0    0 -0.48463891490E+01  0.37129501455E+02 -0.14116985982E+03  0.16879874041E+03  0.84628589007E+02 0.  0.
          5    1    4    4  502    0 -0.43808064816E+02  0.27825128300E+02 -0.75666409864E+02  0.91874261301E+02  0.47000000000E+01 0. -1.
         -5    1    4    4    0  502  0.38961675667E+02  0.93043731554E+01 -0.65503449951E+02  0.76924479109E+02  0.47000000000E+01 0.  1.
          5    1    3    3  503    0  0.11036352656E+02 -0.64094427960E+02 -0.97840777366E+02  0.11757892877E+03  0.47000000000E+01 0. -1.
         -5    1    3    3    0  503 -0.61899635070E+01  0.26964926505E+02 -0.61412612854E+01  0.28726781926E+02  0.47000000000E+01 0.  1.
<mgrwt>
<rscale>  0 0.10022331E+03</rscale>
<asrwt>0</asrwt>
<pdfrwt beam="1">  1        3 0.43096642E-01 0.10292277E+03</pdfrwt>
<pdfrwt beam="2">  1       -3 0.53809656E-02 0.10292277E+03</pdfrwt>
<totfact> 0.23665172E+03</totfact>
</mgrwt>
</event>
<event>
 8    1  0.2964543E-004  0.9118879E+02  0.7546771E-02  0.1301844E+00
          1   -1    0    0  501    0  0.00000000000E+00  0.00000000000E+00  0.37034438997E+03  0.37034438997E+03  0.00000000000E+00 0. -1.
         -1   -1    0    0    0  501 -0.00000000000E+00 -0.00000000000E+00 -0.21762728268E+02  0.21762728268E+02  0.00000000000E+00 0.  1.
         23    2    1    2    0    0  0.47550173416E+01  0.49684450010E+01  0.18696038941E+03  0.20801342152E+03  0.90929097041E+02 0.  0.
         23    2    1    2    0    0 -0.47550173416E+01 -0.49684450010E+01  0.16162127230E+03  0.18409369672E+03  0.87873533434E+02 0.  0.
          5    1    4    4  502    0 -0.41511877505E+02  0.16555570478E+02  0.74513806179E+02  0.87015631924E+02  0.47000000000E+01 0. -1.
         -5    1    4    4    0  502  0.36756860163E+02 -0.21524015479E+02  0.87107466119E+02  0.97078064799E+02  0.47000000000E+01 0.  1.
          5    1    3    3  503    0 -0.50588846498E+01  0.40721325317E+02  0.44419541859E+02  0.60654796582E+02  0.47000000000E+01 0. -1.
         -5    1    3    3    0  503  0.98139019913E+01 -0.35752880316E+02  0.14254084755E+03  0.14735862494E+03  0.47000000000E+01 0.  1.
<mgrwt>
<rscale>  0 0.90417422E+02</rscale>
<asrwt>0</asrwt>
<pdfrwt beam="1">  1        1 0.56976055E-01 0.91188795E+02</pdfrwt>
<pdfrwt beam="2">  1       -1 0.33481123E-02 0.91188795E+02</pdfrwt>
<totfact> 0.19332489E+04</totfact>
</mgrwt>
</event>
<event>
 8    1  0.2964543E-004  0.9551037E+02  0.7546771E-02  0.1291292E+00
         -1   -1    0    0    0  501 -0.00000000000E+00  0.00000000000E+00  0.10319898650E+03  0.10319898650E+03  0.00000000000E+00 0.  1.
          1   -1    0    0  501    0  0.00000000000E+00 -0.00000000000E+00 -0.95505021164E+02  0.95505021164E+02  0.00000000000E+00 0. -1.
         23    2    1    2    0    0 -0.19683334141E+02 -0.19370478447E+02  0.34655089892E+02  0.10160318245E+03  0.91430751663E+02 0.  0.
         23    2    1    2    0    0  0.19683334141E+02  0.19370478447E+02 -0.26961124553E+02  0.97100825222E+02  0.89101172514E+02 0.  0.
          5    1    4    4  502    0  0.47535727894E+01  0.53997268336E+02 -0.93055752810E+01  0.55199503379E+02  0.47000000000E+01 0. -1.
         -5    1    3    3    0  503 -0.44268023610E+00 -0.54413723326E+02  0.14116145280E+02  0.56412807141E+02  0.47000000000E+01 0.  1.
          5    1    3    3  503    0 -0.19240653905E+02  0.35043244880E+02  0.20538944612E+02  0.45190375305E+02  0.47000000000E+01 0. -1.
         -5    1    4    4    0  502  0.14929761352E+02 -0.34626789889E+02 -0.17655549272E+02  0.41901321843E+02  0.47000000000E+01 0.  1.
<mgrwt>
<rscale>  0 0.94948525E+02</rscale>
<asrwt>0</asrwt>
<pdfrwt beam="1">  1        1 0.14693080E-01 0.95510373E+02</pdfrwt>
<pdfrwt beam="2">  1       -1 0.15876767E-01 0.95510373E+02</pdfrwt>
<totfact> 0.10224923E+04</totfact>
</mgrwt>
</event>
<event>
 8    1  0.2964543E-004  0.9140048E+02  0.7546771E-02  0.1302584E+00
          1   -1    0    0  501    0  0.00000000000E+00  0.00000000000E+00  0.62083351656E+03  0.62083351656E+03  0.00000000000E+00 0. -1.
         -1   -1    0    0    0  501 -0.00000000000E+00 -0.00000000000E+00 -0.13256064144E+02  0.13256064144E+02  0.00000000000E+00 0.  1.
         23    2    1    2    0    0  0.14813598925E+01  0.16563759177E+02  0.23193668332E+03  0.24748896675E+03  0.84732585516E+02 0.  0.
         23    2    1    2    0    0 -0.14813598925E+01 -0.16563759177E+02  0.37564076909E+03  0.38660061395E+03  0.89874883909E+02 0.  0.
          5    1    4    4  502    0 -0.29706598387E+02 -0.42784890013E+02  0.20020326551E+03  0.20692140131E+03  0.47000000000E+01 0. -1.
         -5    1    3    3    0  503 -0.36975096920E+02  0.22033304940E+02  0.84477732433E+02  0.94927349040E+02  0.47000000000E+01 0.  1.
          5    1    3    3  503    0  0.38456456812E+02 -0.54695457626E+01  0.14745895089E+03  0.15256161771E+03  0.47000000000E+01 0. -1.
         -5    1    4    4    0  502  0.28225238495E+02  0.26221130835E+02  0.17543750358E+03  0.17967921264E+03  0.47000000000E+01 0.  1.
<mgrwt>
<rscale>  0 0.90110578E+02</rscale>
<asrwt>0</asrwt>
<pdfrwt beam="1">  1        1 0.95512826E-01 0.91400478E+02</pdfrwt>
<pdfrwt beam="2">  1       -1 0.20393950E-02 0.91400478E+02</pdfrwt>
<totfact> 0.20326222E+04</totfact>
</mgrwt>
</event>
<event>
 8    1  0.2964543E-004  0.2350302E+03  0.7546771E-02  0.1123235E+00
          1   -1    0    0  501    0  0.00000000000E+00  0.00000000000E+00  0.10541711398E+04  0.10541711398E+04  0.00000000000E+00 0. -1.
         -1   -1    0    0    0  501 -0.00000000000E+00 -0.00000000000E+00 -0.97168327898E+02  0.97168327898E+02  0.00000000000E+00 0.  1.
         23    2    1    2    0    0 -0.19783260227E+03 -0.88586497410E+02  0.86988094054E+02  0.25013760859E+03  0.89535404619E+02 0.  0.
         23    2    1    2    0    0  0.19783260227E+03  0.88586497410E+02  0.87001471780E+03  0.90120185906E+03  0.90850842236E+02 0.  0.
          5    1    4    4  502    0  0.20010753739E+02  0.41705720709E+02  0.11376582292E+03  0.12290056904E+03  0.47000000000E+01 0. -1.
         -5    1    4    4    0  502  0.17782184853E+03  0.46880776701E+02  0.75624889488E+03  0.77830129002E+03  0.47000000000E+01 0.  1.
          5    1    3    3  503    0 -0.17820474328E+03 -0.72109148835E+02  0.10439005802E+03  0.21880592791E+03  0.47000000000E+01 0. -1.
         -5    1    3    3    0  503 -0.19627858993E+02 -0.16477348575E+02 -0.17401963968E+02  0.31331680687E+02  0.47000000000E+01 0.  1.
<mgrwt>
<rscale>  0 0.23490373E+03</rscale>
<asrwt>0</asrwt>
<pdfrwt beam="1">  1        1 0.16218017E+00 0.23503017E+03</pdfrwt>
<pdfrwt beam="2">  1       -1 0.14948974E-01 0.23503017E+03</pdfrwt>
<totfact> 0.47497733E+02</totfact>
</mgrwt>
</event>
<event>
 8    1  0.2964543E-004  0.1097145E+03  0.7546771E-02  0.1265593E+00
         -2   -1    0    0    0  501 -0.00000000000E+00  0.00000000000E+00  0.18569053481E+02  0.18569053481E+02  0.00000000000E+00 0.  1.
          2   -1    0    0  501    0  0.00000000000E+00 -0.00000000000E+00 -0.60434719008E+03  0.60434719008E+03  0.00000000000E+00 0. -1.
         23    2    1    2    0    0  0.14112733261E+02 -0.37696185417E+02 -0.34448900418E+03  0.36153830985E+03  0.10206421437E+03 0.  0.
         23    2    1    2    0    0 -0.14112733261E+02  0.37696185417E+02 -0.24128913242E+03  0.26137793371E+03  0.92075008395E+02 0.  0.
          5    1    4    4  502    0  0.24630323307E+02  0.21774465811E+02 -0.19870534061E+03  0.20146136745E+03  0.47000000000E+01 0. -1.
         -5    1    3    3    0  503 -0.14012429305E+02  0.30370416212E+02 -0.77552478955E+02  0.84588340497E+02  0.47000000000E+01 0.  1.
          5    1    3    3  503    0  0.28125162567E+02 -0.68066601629E+02 -0.26693652522E+03  0.27694996935E+03  0.47000000000E+01 0. -1.
         -5    1    4    4    0  502 -0.38743056568E+02  0.15921719605E+02 -0.42583791810E+02  0.59916566259E+02  0.47000000000E+01 0.  1.
<mgrwt>
<rscale>  0 0.10733155E+03</rscale>
<asrwt>0</asrwt>
<pdfrwt beam="1">  1        2 0.92976483E-01 0.10971452E+03</pdfrwt>
<pdfrwt beam="2">  1       -2 0.28567777E-02 0.10971452E+03</pdfrwt>
<totfact> 0.21087460E+04</totfact>
</mgrwt>
</event>
<event>
 8    1  0.2964543E-004  0.1038292E+03  0.7546771E-02  0.1272982E+00
         -1   -1    0    0    0  501 -0.00000000000E+00  0.00000000000E+00  0.19089527149E+03  0.19089527149E+03  0.00000000000E+00 0.  1.
          1   -1    0    0  501    0  0.00000000000E+00 -0.00000000000E+00 -0.83419356302E+02  0.83419356302E+02  0.00000000000E+00 0. -1.
         23    2    1    2    0    0 -0.44041913579E+02  0.22318732788E+02  0.13271269197E+03  0.16850268724E+03  0.91338277914E+02 0.  0.
         23    2    1    2    0    0  0.44041913579E+02 -0.22318732788E+02 -0.25236776782E+02  0.10581194055E+03  0.90119120482E+02 0.  0.
          5    1    3    3  502    0  0.27444678835E+02  0.14676113901E+02  0.34548698235E+02  0.46736508913E+02  0.47000000000E+01 0. -1.
         -5    1    4    4    0  503  0.21847322464E+02 -0.50347970014E+02 -0.38700435248E+02  0.67320407543E+02  0.47000000000E+01 0.  1.
          5    1    4    4  503    0  0.22194591114E+02  0.28029237226E+02  0.13463658466E+02  0.38491533010E+02  0.47000000000E+01 0. -1.
         -5    1    3    3    0  502 -0.71486592414E+02  0.76426188871E+01  0.98163993739E+02  0.12176617833E+03  0.47000000000E+01 0.  1.
<mgrwt>
<rscale>  0 0.10356042E+03</rscale>
<asrwt>0</asrwt>
<pdfrwt beam="1">  1        1 0.12833747E-01 0.10382917E+03</pdfrwt>
<pdfrwt beam="2">  1       -1 0.29368503E-01 0.10382917E+03</pdfrwt>
<totfact> 0.45625564E+03</totfact>
</mgrwt>
</event>
<event>
 8    1  0.4193927E-004  0.1049637E+03  0.7546771E-02  0.1270745E+00
         -3   -1    0    0    0  501 -0.00000000000E+00  0.00000000000E+00  0.14863024133E+03  0.14863024133E+03  0.00000000000E+00 0.  1.
          3   -1    0    0  501    0  0.00000000000E+00 -0.00000000000E+00 -0.24359102623E+03  0.24359102623E+03  0.00000000000E+00 0. -1.
         23    2    1    2    0    0 -0.27273696465E+02  0.44296389474E+02 -0.21135491288E+03  0.23548911936E+03  0.89878815614E+02 0.  0.
         23    2    1    2    0    0  0.27273696465E+02 -0.44296389474E+02  0.11639412798E+03  0.15673214820E+03  0.91166598121E+02 0.  0.
          5    1    4    4  502    0  0.44548423072E+02  0.64078160637E+01  0.27837281522E+02  0.53128394926E+02  0.47000000000E+01 0. -1.
         -5    1    3    3    0  503 -0.42794132692E+02 -0.12180881088E+02 -0.81939982877E+02  0.93359319036E+02  0.47000000000E+01 0.  1.
          5    1    3    3  503    0  0.15520436227E+02  0.56477270562E+02 -0.12941493001E+03  0.14212980032E+03  0.47000000000E+01 0. -1.
         -5    1    4    4    0  502 -0.17274726607E+02 -0.50704205537E+02  0.88556846456E+02  0.10360375328E+03  0.47000000000E+01 0.  1.
<mgrwt>
<rscale>  0 0.10468342E+03</rscale>
<asrwt>0</asrwt>
<pdfrwt beam="1">  1        3 0.37475542E-01 0.10496368E+03</pdfrwt>
<pdfrwt beam="2">  1       -3 0.22866191E-01 0.10496368E+03</pdfrwt>
<totfact> 0.27989191E+02</totfact>
</mgrwt>
</event>
<event>
 8    1  0.2964543E-004  0.1033370E+03  0.7546771E-02  0.1277226E+00
         -2   -1    0    0    0  501 -0.00000000000E+00  0.00000000000E+00  0.25535362876E+02  0.25535362876E+02  0.00000000000E+00 0.  1.
          2   -1    0    0  501    0  0.00000000000E+00 -0.00000000000E+00 -0.42098046776E+03  0.42098046776E+03  0.00000000000E+00 0. -1.
         23    2    1    2    0    0  0.23259538326E+02 -0.32617117143E+02 -0.25222739247E+03  0.26990933283E+03  0.87335605468E+02 0.  0.
         23    2    1    2    0    0 -0.23259538326E+02  0.32617117143E+02 -0.14321771241E+03  0.17660649780E+03  0.95255758168E+02 0.  0.
          5    1    3    3  502    0 -0.61782318437E+01 -0.46971188277E+02 -0.21454074734E+03  0.21975960809E+03  0.47000000000E+01 0. -1.
         -5    1    4    4    0  503 -0.12283318972E+02  0.66255246836E+02 -0.90067427504E+02  0.11258272139E+03  0.47000000000E+01 0.  1.
          5    1    4    4  503    0 -0.10976219354E+02 -0.33638129693E+02 -0.53150284906E+02  0.64023776413E+02  0.47000000000E+01 0. -1.
         -5    1    3    3    0  502  0.29437770170E+02  0.14354071135E+02 -0.37686645129E+02  0.50149724743E+02  0.47000000000E+01 0.  1.
<mgrwt>
<rscale>  0 0.10147434E+03</rscale>
<asrwt>0</asrwt>
<pdfrwt beam="1">  1        2 0.64766220E-01 0.10333703E+03</pdfrwt>
<pdfrwt beam="2">  1       -2 0.39285177E-02 0.10333703E+03</pdfrwt>
<totfact> 0.19501021E+04</totfact>
</mgrwt>
</event>
<event>
 8    1  0.2964543E-004  0.1046286E+03  0.7546771E-02  0.1270871E+00
         -1   -1    0    0    0  501 -0.00000000000E+00  0.00000000000E+00  0.44002167848E+02  0.44002167848E+02  0.00000000000E+00 0.  1.
          1   -1    0    0  501    0  0.00000000000E+00 -0.00000000000E+00 -0.44738367105E+03  0.44738367105E+03  0.00000000000E+00 0. -1.
         23    2    1    2    0    0 -0.46919069013E+02  0.69222599775E+01 -0.36540343647E+03  0.38007782896E+03  0.93221070375E+02 0.  0.
         23    2    1    2    0    0  0.46919069013E+02 -0.69222599775E+01 -0.37978066733E+02  0.11130800994E+03  0.93262118804E+02 0.  0.
          5    1    4    4  502    0 -0.29703251114E+01 -0.37040812489E+02 -0.37269067071E+02  0.52838603137E+02  0.47000000000E+01 0. -1.
         -5    1    3    3    0  503 -0.79503664270E+01  0.44937507436E+02 -0.22031548402E+03  0.22504130821E+03  0.47000000000E+01 0.  1.
          5    1    3    3  503    0 -0.38968702586E+02 -0.38015247459E+02 -0.14508795245E+03  0.15503652075E+03  0.47000000000E+01 0. -1.
         -5    1    4    4    0  502  0.49889394124E+02  0.30118552511E+02 -0.70899966254E+00  0.58469406804E+02  0.47000000000E+01 0.  1.
<mgrwt>
<rscale>  0 0.10461943E+03</rscale>
<asrwt>0</asrwt>
<pdfrwt beam="1">  1        1 0.68828258E-01 0.10462858E+03</pdfrwt>
<pdfrwt beam="2">  1       -1 0.67695642E-02 0.10462858E+03</pdfrwt>
<totfact> 0.55072375E+03</totfact>
</mgrwt>
</event>
<event>
 8    1  0.2964543E-004  0.9388673E+02  0.7546771E-02  0.1296108E+00
          1   -1    0    0  501    0  0.00000000000E+00  0.00000000000E+00  0.15562703951E+03  0.15562703951E+03  0.00000000000E+00 0. -1.
         -1   -1    0    0    0  501 -0.00000000000E+00 -0.00000000000E+00 -0.55611916574E+02  0.55611916574E+02  0.00000000000E+00 0.  1.
         23    2    1    2    0    0  0.87413080236E+01  0.13367914000E+02  0.65796198789E+02  0.11131071685E+03  0.88350576227E+02 0.  0.
         23    2    1    2    0    0 -0.87413080236E+01 -0.13367914000E+02  0.34218924142E+02  0.99928239231E+02  0.92518142197E+02 0.  0.
          5    1    3    3  502    0  0.28745387552E+02  0.81874397792E+01 -0.10577380160E+02  0.32051559193E+02  0.47000000000E+01 0. -1.
         -5    1    3    3    0  502 -0.20004079528E+02  0.51804742203E+01  0.76373578949E+02  0.79259157656E+02  0.47000000000E+01 0.  1.
          5    1    4    4  503    0  0.37694633049E+02 -0.40294812313E+01  0.35730991693E+02  0.52305982899E+02  0.47000000000E+01 0. -1.
         -5    1    4    4    0  503 -0.46435941072E+02 -0.93384327682E+01 -0.15120675515E+01  0.47622256332E+02  0.47000000000E+01 0.  1.
<mgrwt>
<rscale>  0 0.92843466E+02</rscale>
<asrwt>0</asrwt>
<pdfrwt beam="1">  1        1 0.23942621E-01 0.93886731E+02</pdfrwt>
<pdfrwt beam="2">  1       -1 0.85556796E-02 0.93886731E+02</pdfrwt>
<totfact> 0.14161474E+04</totfact>
</mgrwt>
</event>
<event>
 8    1  0.2964543E-004  0.1144866E+03  0.7546771E-02  0.1253167E+00
         -1   -1    0    0    0  501 -0.00000000000E+00  0.00000000000E+00  0.77617724613E+02  0.77617724613E+02  0.00000000000E+00 0.  1.
          1   -1    0    0  501    0  0.00000000000E+00 -0.00000000000E+00 -0.17838494989E+03  0.17838494989E+03  0.00000000000E+00 0. -1.
         23    2    1    2    0    0  0.28214222212E+02 -0.63288730907E+02 -0.17138473806E+02  0.11422482338E+03  0.89174420084E+02 0.  0.
         23    2    1    2    0    0 -0.28214222212E+02  0.63288730907E+02 -0.83628751472E+02  0.14177785112E+03  0.91135532047E+02 0.  0.
          5    1    4    4  502    0 -0.38734361353E+02  0.81096890224E+02 -0.79685580023E+02  0.12020373545E+03  0.47000000000E+01 0. -1.
         -5    1    3    3    0  503 -0.12652018743E+02 -0.56101011478E+02  0.17145626274E+02  0.60195178938E+02  0.47000000000E+01 0.  1.
          5    1    3    3  503    0  0.40866240955E+02 -0.71877194292E+01 -0.34284100079E+02  0.54029644443E+02  0.47000000000E+01 0. -1.
         -5    1    4    4    0  502  0.10520139141E+02 -0.17808159317E+02 -0.39431714485E+01  0.21574115669E+02  0.47000000000E+01 0.  1.
<mgrwt>
<rscale>  0 0.11409593E+03</rscale>
<asrwt>0</asrwt>
<pdfrwt beam="1">  1        1 0.27443838E-01 0.11448664E+03</pdfrwt>
<pdfrwt beam="2">  1       -1 0.11941188E-01 0.11448664E+03</pdfrwt>
<totfact> 0.73346858E+03</totfact>
</mgrwt>
</event>
<event>
 8    1  0.2964543E-004  0.1913141E+03  0.7546771E-02  0.1157559E+00
          1   -1    0    0  501    0  0.00000000000E+00  0.00000000000E+00  0.86007198563E+03  0.86007198563E+03  0.00000000000E+00 0. -1.
         -1   -1    0    0    0  501 -0.00000000000E+00 -0.00000000000E+00 -0.21760503988E+03  0.21760503988E+03  0.00000000000E+00 0.  1.
         23    2    1    2    0    0  0.13010405229E+03 -0.10506484233E+03 -0.16263298840E+03  0.25015845231E+03  0.90355281130E+02 0.  0.
         23    2    1    2    0    0 -0.13010405229E+03  0.10506484233E+03  0.80509993416E+03  0.82751857320E+03  0.92926850254E+02 0.  0.
          5    1    4    4  502    0 -0.12898129395E+03  0.60458170691E+02  0.67548833799E+03  0.69036073856E+03  0.47000000000E+01 0. -1.
         -5    1    4    4    0  502 -0.11227583393E+01  0.44606671640E+02  0.12961159617E+03  0.13715783464E+03  0.47000000000E+01 0.  1.
          5    1    3    3  503    0 -0.60486552185E+01 -0.22935190943E+02 -0.49076725614E+02  0.54710366572E+02  0.47000000000E+01 0. -1.
         -5    1    3    3    0  503  0.13615270751E+03 -0.82129651388E+02 -0.11355626279E+03  0.19544808574E+03  0.47000000000E+01 0.  1.
<mgrwt>
<rscale>  0 0.19100440E+03</rscale>
<asrwt>0</asrwt>
<pdfrwt beam="1">  1        1 0.13231877E+00 0.19131410E+03</pdfrwt>
<pdfrwt beam="2">  1       -1 0.33477699E-01 0.19131410E+03</pdfrwt>
<totfact> 0.17837032E+02</totfact>
</mgrwt>
</event>
<event>
 8    1  0.2964543E-004  0.9330691E+02  0.7546771E-02  0.1296593E+00
         -2   -1    0    0    0  501 -0.00000000000E+00  0.00000000000E+00  0.95336342029E+02  0.95336342029E+02  0.00000000000E+00 0.  1.
          2   -1    0    0  501    0  0.00000000000E+00 -0.00000000000E+00 -0.10325666026E+03  0.10325666026E+03  0.00000000000E+00 0. -1.
         23    2    1    2    0    0 -0.47624120273E+01  0.39906319726E+01  0.33222300561E+02  0.99044941779E+02  0.93099804111E+02 0.  0.
         23    2    1    2    0    0  0.47624120273E+01 -0.39906319726E+01 -0.41142618796E+02  0.99548060515E+02  0.90435035020E+02 0.  0.
          5    1    3    3  502    0  0.18867462655E+01  0.47169317291E+02  0.72165901355E+01  0.47986180077E+02  0.47000000000E+01 0. -1.
         -5    1    4    4    0  503 -0.39913299122E+02  0.22865510399E+01 -0.35809685540E+02  0.53876927724E+02  0.47000000000E+01 0.  1.
          5    1    4    4  503    0  0.44675711150E+02 -0.62771830125E+01 -0.53329332557E+01  0.45671132791E+02  0.47000000000E+01 0. -1.
         -5    1    3    3    0  502 -0.66491582928E+01 -0.43178685318E+02  0.26005710425E+02  0.51058761702E+02  0.47000000000E+01 0.  1.
<mgrwt>
<rscale>  0 0.92635016E+02</rscale>
<asrwt>0</asrwt>
<pdfrwt beam="1">  1        2 0.15885640E-01 0.93306909E+02</pdfrwt>
<pdfrwt beam="2">  1       -2 0.14667130E-01 0.93306909E+02</pdfrwt>
<totfact> 0.11696038E+04</totfact>
</mgrwt>
</event>
<event>
 8    1  0.2964543E-004  0.9078934E+02  0.7546771E-02  0.1311491E+00
          1   -1    0    0  501    0  0.00000000000E+00  0.00000000000E+00  0.10464198269E+03  0.10464198269E+03  0.00000000000E+00 0. -1.
         -1   -1    0    0    0  501 -0.00000000000E+00 -0.00000000000E+00 -0.66430415193E+02  0.66430415193E+02  0.00000000000E+00 0.  1.
         23    2    1    2    0    0  0.12937524929E+02  0.93347409695E+01  0.76985637455E+01  0.75292715843E+02  0.73179288293E+02 0.  0.
         23    2    1    2    0    0 -0.12937524929E+02 -0.93347409695E+01  0.30513003756E+02  0.95779682044E+02  0.89376658889E+02 0.  0.
          5    1    3    3  502    0 -0.24700181208E+02 -0.85523987630E+01 -0.11780286190E+02  0.29053530233E+02  0.47000000000E+01 0. -1.
         -5    1    4    4    0  503  0.20763135611E+02  0.18496799202E+02 -0.15469002833E+02  0.32165500614E+02  0.47000000000E+01 0.  1.
          5    1    4    4  503    0 -0.33700660539E+02 -0.27831540172E+02  0.45982006589E+02  0.63614181430E+02  0.47000000000E+01 0. -1.
         -5    1    3    3    0  502  0.37637706137E+02  0.17887139732E+02  0.19478849936E+02  0.46239185610E+02  0.47000000000E+01 0.  1.
<mgrwt>
<rscale>  0 0.86525445E+02</rscale>
<asrwt>0</asrwt>
<pdfrwt beam="1">  1        1 0.16098766E-01 0.90789339E+02</pdfrwt>
<pdfrwt beam="2">  1       -1 0.10220064E-01 0.90789339E+02</pdfrwt>
<totfact> 0.17793003E+04</totfact>
</mgrwt>
</event>
<event>
 8    1  0.2964543E-004  0.9120826E+02  0.7546771E-02  0.1300518E+00
         -1   -1    0    0    0  501 -0.00000000000E+00  0.00000000000E+00  0.10591906255E+03  0.10591906255E+03  0.00000000000E+00 0.  1.
          1   -1    0    0  501    0  0.00000000000E+00 -0.00000000000E+00 -0.88962278356E+02  0.88962278356E+02  0.00000000000E+00 0. -1.
         23    2    1    2    0    0 -0.81992370985E+01 -0.68943380866E+01  0.43067473549E+02  0.10000924463E+03  0.89623001220E+02 0.  0.
         23    2    1    2    0    0  0.81992370985E+01  0.68943380866E+01 -0.26110689358E+02  0.94872096270E+02  0.90576968183E+02 0.  0.
          5    1    4    4  502    0 -0.23947284664E+02  0.38456988284E+02 -0.88460020408E+01  0.46397781658E+02  0.47000000000E+01 0. -1.
         -5    1    4    4    0  502  0.32146521763E+02 -0.31562650197E+02 -0.17264687317E+02  0.48474314612E+02  0.47000000000E+01 0.  1.
          5    1    3    3  503    0 -0.35887325067E+02  0.24565380148E+02  0.65625422055E+01  0.44232510244E+02  0.47000000000E+01 0. -1.
         -5    1    3    3    0  503  0.27688087968E+02 -0.31459718235E+02  0.36504931343E+02  0.55776734389E+02  0.47000000000E+01 0.  1.
<mgrwt>
<rscale>  0 0.90970508E+02</rscale>
<asrwt>0</asrwt>
<pdfrwt beam="1">  1        1 0.13686504E-01 0.91208259E+02</pdfrwt>
<pdfrwt beam="2">  1       -1 0.16295240E-01 0.91208259E+02</pdfrwt>
<totfact> 0.10709139E+04</totfact>
</mgrwt>
</event>
<event>
 8    1  0.2964543E-004  0.9691182E+02  0.7546771E-02  0.1288540E+00
          4   -1    0    0  501    0  0.00000000000E+00  0.00000000000E+00  0.85966184969E+02  0.85966184969E+02  0.00000000000E+00 0. -1.
         -4   -1    0    0    0  501 -0.00000000000E+00 -0.00000000000E+00 -0.12874225437E+03  0.12874225437E+03  0.00000000000E+00 0.  1.
         23    2    1    2    0    0  0.14965047299E+02  0.21374780013E+02 -0.66757832550E+02  0.11767968882E+03  0.93333097515E+02 0.  0.
         23    2    1    2    0    0 -0.14965047299E+02 -0.21374780013E+02  0.23981763152E+02  0.97028750520E+02  0.90325077372E+02 0.  0.
          5    1    4    4  502    0 -0.37960187617E+02 -0.34406626081E+02  0.40527966951E+02  0.65493494848E+02  0.47000000000E+01 0. -1.
         -5    1    3    3    0  503 -0.31650723068E+02  0.33204505415E+02 -0.45850533154E+02  0.65028215730E+02  0.47000000000E+01 0.  1.
          5    1    3    3  503    0  0.46615770367E+02 -0.11829725401E+02 -0.20907299396E+02  0.52651473085E+02  0.47000000000E+01 0. -1.
         -5    1    4    4    0  502  0.22995140317E+02  0.13031846068E+02 -0.16546203799E+02  0.31535255672E+02  0.47000000000E+01 0.  1.
<mgrwt>
<rscale>  0 0.96180214E+02</rscale>
<asrwt>0</asrwt>
<pdfrwt beam="1">  1        4 0.13225567E-01 0.96911821E+02</pdfrwt>
<pdfrwt beam="2">  1       -4 0.19806501E-01 0.96911821E+02</pdfrwt>
<totfact> 0.16377029E+03</totfact>
</mgrwt>
</event>
<event>
 8    1  0.2964543E-004  0.9320678E+02  0.7546771E-02  0.1295955E+00
          1   -1    0    0  501    0  0.00000000000E+00  0.00000000000E+00  0.17627696822E+03  0.17627696822E+03  0.00000000000E+00 0. -1.
         -1   -1    0    0    0  501 -0.00000000000E+00 -0.00000000000E+00 -0.49839328592E+02  0.49839328592E+02  0.00000000000E+00 0.  1.
         23    2    1    2    0    0  0.15239739168E+02 -0.14784785198E+02  0.80216535189E+02  0.12207835342E+03  0.89541009226E+02 0.  0.
         23    2    1    2    0    0 -0.15239739168E+02  0.14784785198E+02  0.46221104442E+02  0.10403794339E+03  0.90756066720E+02 0.  0.
          5    1    4    4  502    0  0.28072932841E+02  0.32581029951E+02  0.93727114391E+01  0.44266813650E+02  0.47000000000E+01 0. -1.
         -5    1    4    4    0  502 -0.43312672010E+02 -0.17796244753E+02  0.36848393003E+02  0.59771129743E+02  0.47000000000E+01 0.  1.
          5    1    3    3  503    0  0.44175870256E+02  0.13677044823E+02  0.23248631288E+02  0.51972665169E+02  0.47000000000E+01 0. -1.
         -5    1    3    3    0  503 -0.28936131088E+02 -0.28461830021E+02  0.56967903902E+02  0.70105688253E+02  0.47000000000E+01 0.  1.
<mgrwt>
<rscale>  0 0.92909686E+02</rscale>
<asrwt>0</asrwt>
<pdfrwt beam="1">  1        1 0.27119533E-01 0.93206776E+02</pdfrwt>
<pdfrwt beam="2">  1       -1 0.76675891E-02 0.93206776E+02</pdfrwt>
<totfact> 0.14284071E+04</totfact>
</mgrwt>
</event>
<event>
 8    1  0.2964543E-004  0.9409324E+02  0.7546771E-02  0.1294922E+00
         -3   -1    0    0    0  501 -0.00000000000E+00  0.00000000000E+00  0.18139525792E+03  0.18139525792E+03  0.00000000000E+00 0.  1.
          3   -1    0    0  501    0  0.00000000000E+00 -0.00000000000E+00 -0.71598341863E+02  0.71598341863E+02  0.00000000000E+00 0. -1.
         23    2    1    2    0    0  0.19395976426E+02  0.16616568984E+02 -0.18204421927E+02  0.95838083351E+02  0.90560603887E+02 0.  0.
         23    2    1    2    0    0 -0.19395976426E+02 -0.16616568984E+02  0.12800133799E+03  0.15715551644E+03  0.87528278592E+02 0.  0.
          5    1    3    3  502    0  0.25958332367E+02 -0.23455261948E+02  0.19413690761E+02  0.40286048718E+02  0.47000000000E+01 0. -1.
         -5    1    3    3    0  502 -0.65623559414E+01  0.40071830931E+02 -0.37618112688E+02  0.55552034633E+02  0.47000000000E+01 0.  1.
          5    1    4    4  503    0  0.34079822332E+02 -0.10373450875E+02  0.63920960423E+02  0.73328179812E+02  0.47000000000E+01 0. -1.
         -5    1    4    4    0  503 -0.53475798758E+02 -0.62431181089E+01  0.64080377566E+02  0.83827336624E+02  0.47000000000E+01 0.  1.
<mgrwt>
<rscale>  0 0.93355925E+02</rscale>
<asrwt>0</asrwt>
<pdfrwt beam="1">  1        3 0.11015130E-01 0.94093237E+02</pdfrwt>
<pdfrwt beam="2">  1       -3 0.27906963E-01 0.94093237E+02</pdfrwt>
<totfact> 0.16541982E+03</totfact>
</mgrwt>
</event>
<event>
 8    1  0.2964543E-004  0.1206991E+03  0.7546771E-02  0.1242806E+00
          1   -1    0    0  501    0  0.00000000000E+00  0.00000000000E+00  0.15363505203E+03  0.15363505203E+03  0.00000000000E+00 0. -1.
         -1   -1    0    0    0  501 -0.00000000000E+00 -0.00000000000E+00 -0.10584824592E+03  0.10584824592E+03  0.00000000000E+00 0.  1.
         23    2    1    2    0    0 -0.61732880079E+02  0.41922436966E+02 -0.21138990506E+02  0.12049039137E+03  0.92209751590E+02 0.  0.
         23    2    1    2    0    0  0.61732880079E+02 -0.41922436966E+02  0.68925796618E+02  0.13899290658E+03  0.94867399227E+02 0.  0.
          5    1    3    3  502    0  0.23969085738E+01  0.20936040155E+02  0.29099553495E+02  0.36234472008E+02  0.47000000000E+01 0. -1.
         -5    1    4    4    0  503  0.27671999326E+02 -0.62162303449E+02  0.11654490047E+02  0.69193992912E+02  0.47000000000E+01 0.  1.
          5    1    4    4  503    0  0.34060880753E+02  0.20239866483E+02  0.57271306571E+02  0.69798913668E+02  0.47000000000E+01 0. -1.
         -5    1    3    3    0  502 -0.64129788653E+02  0.20986396811E+02 -0.50238544001E+02  0.84255919359E+02  0.47000000000E+01 0.  1.
<mgrwt>
<rscale>  0 0.12017630E+03</rscale>
<asrwt>0</asrwt>
<pdfrwt beam="1">  1        1 0.23636162E-01 0.12069906E+03</pdfrwt>
<pdfrwt beam="2">  1       -1 0.16284345E-01 0.12069906E+03</pdfrwt>
<totfact> 0.54794932E+03</totfact>
</mgrwt>
</event>
<event>
 8    1  0.7587564E-004  0.9553284E+02  0.7546771E-02  0.1291668E+00
          2   -1    0    0  501    0  0.00000000000E+00  0.00000000000E+00  0.26343601389E+03  0.26343601389E+03  0.00000000000E+00 0. -1.
         -2   -1    0    0    0  501 -0.00000000000E+00 -0.00000000000E+00 -0.15240535717E+03  0.15240535717E+03  0.00000000000E+00 0.  1.
         23    2    1    2    0    0 -0.11411655308E+02 -0.16623853419E+02  0.23929764853E+03  0.25766235193E+03  0.93380643755E+02 0.  0.
         23    2    1    2    0    0  0.11411655308E+02  0.16623853419E+02 -0.12826699181E+03  0.15817901914E+03  0.90341588031E+02 0.  0.
          5    1    4    4  502    0  0.27372639137E+02 -0.24953016064E+02 -0.95935981622E+02  0.10294521336E+03  0.47000000000E+01 0. -1.
         -5    1    4    4    0  502 -0.15960983829E+02  0.41576869483E+02 -0.32331010186E+02  0.55233805775E+02  0.47000000000E+01 0.  1.
          5    1    3    3  503    0  0.18360423883E+02 -0.24146295137E+02  0.21763695360E+03  0.21979099687E+03  0.47000000000E+01 0. -1.
         -5    1    3    3    0  503 -0.29772079191E+02  0.75224417183E+01  0.21660694934E+02  0.37871355056E+02  0.47000000000E+01 0.  1.
<mgrwt>
<rscale>  0 0.94781938E+02</rscale>
<asrwt>0</asrwt>
<pdfrwt beam="1">  1        2 0.40528618E-01 0.95532837E+02</pdfrwt>
<pdfrwt beam="2">  1       -2 0.23446978E-01 0.95532837E+02</pdfrwt>
<totfact> 0.19307486E+03</totfact>
</mgrwt>
</event>
<event>
 8    1  0.2964543E-004  0.9734770E+02  0.7546771E-02  0.1286159E+00
          2   -1    0    0  501    0  0.00000000000E+00  0.00000000000E+00  0.18207582769E+03  0.18207582769E+03  0.00000000000E+00 0. -1.
         -2   -1    0    0    0  501 -0.00000000000E+00 -0.00000000000E+00 -0.94727939201E+02  0.94727939201E+02  0.00000000000E+00 0.  1.
         23    2    1    2    0    0 -0.23706407414E+02 -0.21271236355E+02  0.13681222778E+03  0.16791117077E+03  0.91989762214E+02 0.  0.
         23    2    1    2    0    0  0.23706407414E+02  0.21271236355E+02 -0.49464339290E+02  0.10889259612E+03  0.91631967016E+02 0.  0.
          5    1    4    4  502    0 -0.16066228634E+02 -0.18742681049E+02  0.97634401247E+01  0.26959721039E+02  0.47000000000E+01 0. -1.
         -5    1    3    3    0  503  0.29959090091E+02 -0.22135859876E+02  0.86060856739E+02  0.93894112883E+02  0.47000000000E+01 0.  1.
          5    1    3    3  503    0 -0.53665497505E+02  0.86462352148E+00  0.50751371039E+02  0.74017057889E+02  0.47000000000E+01 0. -1.
         -5    1    4    4    0  502  0.39772636048E+02  0.40013917404E+02 -0.59227779415E+02  0.81932875078E+02  0.47000000000E+01 0.  1.
<mgrwt>
<rscale>  0 0.97263086E+02</rscale>
<asrwt>0</asrwt>
<pdfrwt beam="1">  1        2 0.28011666E-01 0.97347705E+02</pdfrwt>
<pdfrwt beam="2">  1       -2 0.14573529E-01 0.97347705E+02</pdfrwt>
<totfact> 0.63103176E+03</totfact>
</mgrwt>
</event>
<event>
 8    1  0.2964543E-004  0.9824621E+02  0.7546771E-02  0.1285380E+00
          2   -1    0    0  501    0  0.00000000000E+00  0.00000000000E+00  0.67630446889E+03  0.67630446889E+03  0.00000000000E+00 0. -1.
         -2   -1    0    0    0  501 -0.00000000000E+00 -0.00000000000E+00 -0.14748767282E+02  0.14748767282E+02  0.00000000000E+00 0.  1.
         23    2    1    2    0    0  0.10210864649E+02  0.21804537743E+02  0.41694144733E+03  0.42836023172E+03  0.95250291303E+02 0.  0.
         23    2    1    2    0    0 -0.10210864649E+02 -0.21804537743E+02  0.24461425427E+03  0.26269300445E+03  0.92691863558E+02 0.  0.
          5    1    4    4  502    0 -0.30115581014E+02 -0.33214064320E+02  0.23150697809E+03  0.23585523779E+03  0.47000000000E+01 0. -1.
         -5    1    3    3    0  503  0.47619160084E+02 -0.85713133008E+01  0.24249457713E+03  0.24731914959E+03  0.47000000000E+01 0.  1.
          5    1    3    3  503    0 -0.37408295435E+02  0.30375851044E+02  0.17444687020E+03  0.18104108213E+03  0.47000000000E+01 0. -1.
         -5    1    4    4    0  502  0.19904716365E+02  0.11409526577E+02  0.13107276181E+02  0.26837766658E+02  0.47000000000E+01 0.  1.
<mgrwt>
<rscale>  0 0.97620671E+02</rscale>
<asrwt>0</asrwt>
<pdfrwt beam="1">  1        2 0.10404682E+00 0.98246209E+02</pdfrwt>
<pdfrwt beam="2">  1       -2 0.22690416E-02 0.98246209E+02</pdfrwt>
<totfact> 0.25631618E+04</totfact>
</mgrwt>
</event>
<event>
 8    1  0.2964543E-004  0.1095040E+03  0.7546771E-02  0.1261728E+00
          4   -1    0    0  501    0  0.00000000000E+00  0.00000000000E+00  0.36742402721E+03  0.36742402721E+03  0.00000000000E+00 0. -1.
         -4   -1    0    0    0  501 -0.00000000000E+00 -0.00000000000E+00 -0.68972441395E+02  0.68972441395E+02  0.00000000000E+00 0.  1.
         23    2    1    2    0    0 -0.24809682336E+02  0.54098718363E+02 -0.93148596648E+01  0.10989946984E+03  0.91918089597E+02 0.  0.
         23    2    1    2    0    0  0.24809682336E+02 -0.54098718363E+02  0.30776644548E+03  0.32649699877E+03  0.91312176468E+02 0.  0.
          5    1    4    4  502    0  0.50992145836E+02 -0.62648594070E+02  0.22133904153E+03  0.23566524263E+03  0.47000000000E+01 0. -1.
         -5    1    4    4    0  502 -0.26182463500E+02  0.85498757071E+01  0.86427403948E+02  0.90831756136E+02  0.47000000000E+01 0.  1.
          5    1    3    3  503    0  0.20160124565E+02 -0.12679375549E+02  0.11126535856E+02  0.26703688639E+02  0.47000000000E+01 0. -1.
         -5    1    3    3    0  503 -0.44969806900E+02  0.66778093913E+02 -0.20441395521E+02  0.83195781204E+02  0.47000000000E+01 0.  1.
<mgrwt>
<rscale>  0 0.10937676E+03</rscale>
<asrwt>0</asrwt>
<pdfrwt beam="1">  1        4 0.56526772E-01 0.10950400E+03</pdfrwt>
<pdfrwt beam="2">  1       -4 0.10611145E-01 0.10950400E+03</pdfrwt>
<totfact> 0.32928053E+02</totfact>
</mgrwt>
</event>
<event>
 8    1  0.2964543E-004  0.1352116E+03  0.7546771E-02  0.1220360E+00
          4   -1    0    0  501    0  0.00000000000E+00  0.00000000000E+00  0.15266950357E+03  0.15266950357E+03  0.00000000000E+00 0. -1.
         -4   -1    0    0    0  501 -0.00000000000E+00 -0.00000000000E+00 -0.14073343353E+03  0.14073343353E+03  0.00000000000E+00 0.  1.
         23    2    1    2    0    0  0.96537693673E+02 -0.10643332906E+02  0.64051608230E+02  0.14849538220E+03  0.92279267352E+02 0.  0.
         23    2    1    2    0    0 -0.96537693673E+02  0.10643332906E+02 -0.52115538198E+02  0.14490755490E+03  0.94071054580E+02 0.  0.
          5    1    3    3  502    0  0.23091244893E+02 -0.23501560903E+00  0.70066510136E+02  0.73923383754E+02  0.47000000000E+01 0. -1.
         -5    1    3    3    0  502  0.73446448780E+02 -0.10408317297E+02 -0.60149019054E+01  0.74571998447E+02  0.47000000000E+01 0.  1.
          5    1    4    4  503    0 -0.40707177306E+02 -0.41570940474E+02 -0.26944788045E+02  0.64290971209E+02  0.47000000000E+01 0. -1.
         -5    1    4    4    0  503 -0.55830516367E+02  0.52214273380E+02 -0.25170750152E+02  0.80616583689E+02  0.47000000000E+01 0.  1.
<mgrwt>
<rscale>  0 0.13490040E+03</rscale>
<asrwt>0</asrwt>
<pdfrwt beam="1">  1        4 0.23487616E-01 0.13521158E+03</pdfrwt>
<pdfrwt beam="2">  1       -4 0.21651297E-01 0.13521158E+03</pdfrwt>
<totfact> 0.54406244E+02</totfact>
</mgrwt>
</event>
<event>
 8    1  0.2964543E-004  0.1030012E+03  0.7546771E-02  0.1275726E+00
          1   -1    0    0  501    0  0.00000000000E+00  0.00000000000E+00  0.19291432967E+03  0.19291432967E+03  0.00000000000E+00 0. -1.
         -1   -1    0    0    0  501 -0.00000000000E+00 -0.00000000000E+00 -0.68183702774E+02  0.68183702774E+02  0.00000000000E+00 0.  1.
         23    2    1    2    0    0  0.38426086718E+02 -0.23802468829E+02  0.67520876920E+00  0.99856020461E+02  0.89037336284E+02 0.  0.
         23    2    1    2    0    0 -0.38426086718E+02  0.23802468829E+02  0.12405541812E+03  0.16124201198E+03  0.92553325161E+02 0.  0.
          5    1    4    4  502    0 -0.45327172912E+02  0.52222451383E+02  0.10569124751E+03  0.12639013740E+03  0.47000000000E+01 0. -1.
         -5    1    4    4    0  502  0.69010861933E+01 -0.28419982555E+02  0.18364170611E+02  0.34851874574E+02  0.47000000000E+01 0.  1.
          5    1    3    3  503    0 -0.18401370009E+02 -0.35191292503E+02 -0.87879413317E+01  0.40943319346E+02  0.47000000000E+01 0. -1.
         -5    1    3    3    0  503  0.56827456727E+02  0.11388823674E+02  0.94631501009E+01  0.58912701115E+02  0.47000000000E+01 0.  1.
<mgrwt>
<rscale>  0 0.10220513E+03</rscale>
<asrwt>0</asrwt>
<pdfrwt beam="1">  1        1 0.29679127E-01 0.10300116E+03</pdfrwt>
<pdfrwt beam="2">  1       -1 0.10489800E-01 0.10300116E+03</pdfrwt>
<totfact> 0.80475212E+03</totfact>
</mgrwt>
</event>
<event>
 8    1  0.2964543E-004  0.1028068E+03  0.7546771E-02  0.1275617E+00
          2   -1    0    0  501    0  0.00000000000E+00  0.00000000000E+00  0.25535338075E+02  0.25535338075E+02  0.00000000000E+00 0. -1.
         -2   -1    0    0    0  501 -0.00000000000E+00 -0.00000000000E+00 -0.50776737824E+03  0.50776737824E+03  0.00000000000E+00 0.  1.
         23    2    1    2    0    0 -0.45587730559E+02 -0.42787883789E+01 -0.11921459035E+03  0.15600853203E+03  0.89610235493E+02 0.  0.
         23    2    1    2    0    0  0.45587730559E+02  0.42787883789E+01 -0.36301744982E+03  0.37729418429E+03  0.92047180405E+02 0.  0.
          5    1    4    4  502    0 -0.19628606053E+02  0.26290076747E+02 -0.98457626264E+02  0.10388669058E+03  0.47000000000E+01 0. -1.
         -5    1    4    4    0  502  0.65216336612E+02 -0.22011288368E+02 -0.26455982355E+03  0.27340749371E+03  0.47000000000E+01 0.  1.
          5    1    3    3  503    0 -0.41004534548E+02 -0.31430262246E+02 -0.11700170971E+03  0.12798719980E+03  0.47000000000E+01 0. -1.
         -5    1    3    3    0  503 -0.45831960109E+01  0.27151473867E+02 -0.22128806404E+01  0.28021332223E+02  0.47000000000E+01 0.  1.
<mgrwt>
<rscale>  0 0.10225839E+03</rscale>
<asrwt>0</asrwt>
<pdfrwt beam="1">  1        2 0.39285139E-02 0.10280677E+03</pdfrwt>
<pdfrwt beam="2">  1       -2 0.78118050E-01 0.10280677E+03</pdfrwt>
<totfact> 0.30449081E+03</totfact>
</mgrwt>
</event>
<event>
 8    1  0.2964543E-004  0.9704787E+02  0.7546771E-02  0.1286833E+00
         -1   -1    0    0    0  501 -0.00000000000E+00  0.00000000000E+00  0.36446721045E+02  0.36446721045E+02  0.00000000000E+00 0.  1.
          1   -1    0    0  501    0  0.00000000000E+00 -0.00000000000E+00 -0.63526944537E+03  0.63526944537E+03  0.00000000000E+00 0. -1.
         23    2    1    2    0    0 -0.42372353663E+01  0.34011926680E+02 -0.55866314608E+03  0.56702980587E+03  0.90793857927E+02 0.  0.
         23    2    1    2    0    0  0.42372353663E+01 -0.34011926680E+02 -0.40159578244E+02  0.10468636054E+03  0.90397328716E+02 0.  0.
          5    1    4    4  502    0  0.44266885019E+02 -0.23661463836E+02 -0.37793279331E+02  0.63006697602E+02  0.47000000000E+01 0. -1.
         -5    1    4    4    0  502 -0.40029649652E+02 -0.10350462844E+02 -0.23662989137E+01  0.41679662942E+02  0.47000000000E+01 0.  1.
          5    1    3    3  503    0 -0.23578871226E+02  0.59536432313E+02 -0.34414592633E+03  0.35008435920E+03  0.47000000000E+01 0. -1.
         -5    1    3    3    0  503  0.19341635859E+02 -0.25524505633E+02 -0.21451721975E+03  0.21694544668E+03  0.47000000000E+01 0.  1.
<mgrwt>
<rscale>  0 0.96955023E+02</rscale>
<asrwt>0</asrwt>
<pdfrwt beam="1">  1        1 0.97733764E-01 0.97047875E+02</pdfrwt>
<pdfrwt beam="2">  1       -1 0.56071876E-02 0.97047875E+02</pdfrwt>
<totfact> 0.45768378E+03</totfact>
</mgrwt>
</event>
<event>
 8    1  0.2964543E-004  0.9858426E+02  0.7546771E-02  0.1287182E+00
         -1   -1    0    0    0  501 -0.00000000000E+00  0.00000000000E+00  0.37485292955E+02  0.37485292955E+02  0.00000000000E+00 0.  1.
          1   -1    0    0  501    0  0.00000000000E+00 -0.00000000000E+00 -0.37427097354E+03  0.37427097354E+03  0.00000000000E+00 0. -1.
         23    2    1    2    0    0  0.91674409338E+01 -0.11613266442E+02 -0.41752527744E+02  0.10068807728E+03  0.90420713345E+02 0.  0.
         23    2    1    2    0    0 -0.91674409338E+01  0.11613266442E+02 -0.29503315284E+03  0.31106818922E+03  0.97467672272E+02 0.  0.
          5    1    3    3  502    0  0.37608916142E+02 -0.23752654815E+02 -0.51226015415E+02  0.68005983850E+02  0.47000000000E+01 0. -1.
         -5    1    3    3    0  502 -0.28441475208E+02  0.12139388373E+02  0.94734876708E+01  0.32682093427E+02  0.47000000000E+01 0.  1.
          5    1    4    4  503    0 -0.64567098789E+01  0.49856402327E+02 -0.97547792350E+02  0.10984084736E+03  0.47000000000E+01 0.  1.
         -5    1    4    4    0  503 -0.27107310549E+01 -0.38243135886E+02 -0.19748536049E+03  0.20122734186E+03  0.47000000000E+01 0. -1.
<mgrwt>
<rscale>  0 0.96795929E+02</rscale>
<asrwt>0</asrwt>
<pdfrwt beam="1">  1        1 0.57580152E-01 0.98584264E+02</pdfrwt>
<pdfrwt beam="2">  1       -1 0.57669679E-02 0.98584264E+02</pdfrwt>
<totfact> 0.86928400E+03</totfact>
</mgrwt>
</event>
<event>
 8    1  0.2964543E-004  0.9401866E+02  0.7546771E-02  0.1294465E+00
         -3   -1    0    0    0  501 -0.00000000000E+00  0.00000000000E+00  0.25922932113E+02  0.25922932113E+02  0.00000000000E+00 0.  1.
          3   -1    0    0  501    0  0.00000000000E+00 -0.00000000000E+00 -0.34129945474E+03  0.34129945474E+03  0.00000000000E+00 0. -1.
         23    2    1    2    0    0 -0.96680391860E+00  0.15305003553E+02 -0.18543275480E+03  0.20790578299E+03  0.92759528907E+02 0.  0.
         23    2    1    2    0    0  0.96680391860E+00 -0.15305003553E+02 -0.12994376782E+03  0.15931660386E+03  0.90891251651E+02 0.  0.
          5    1    3    3  502    0 -0.39610777741E+02  0.30249393157E+02 -0.12332425511E+03  0.13309771372E+03  0.47000000000E+01 0. -1.
         -5    1    4    4    0  503  0.22156231661E+02  0.24905492343E+02 -0.17495909793E+02  0.37939148774E+02  0.47000000000E+01 0.  1.
          5    1    4    4  503    0 -0.21189427742E+02 -0.40210495896E+02 -0.11244785803E+03  0.12137745509E+03  0.47000000000E+01 0. -1.
         -5    1    3    3    0  502  0.38643973823E+02 -0.14944389604E+02 -0.62108499700E+02  0.74808069273E+02  0.47000000000E+01 0.  1.
<mgrwt>
<rscale>  0 0.93554544E+02</rscale>
<asrwt>0</asrwt>
<pdfrwt beam="1">  1        3 0.52507608E-01 0.94018658E+02</pdfrwt>
<pdfrwt beam="2">  1       -3 0.39881434E-02 0.94018658E+02</pdfrwt>
<totfact> 0.25190236E+03</totfact>
</mgrwt>
</event>
<event>
 8    1  0.2964543E-004  0.1591168E+03  0.7546771E-02  0.1190786E+00
         -3   -1    0    0    0  501 -0.00000000000E+00  0.00000000000E+00  0.23710702950E+02  0.23710702950E+02  0.00000000000E+00 0.  1.
          3   -1    0    0  501    0  0.00000000000E+00 -0.00000000000E+00 -0.10426042378E+04  0.10426042378E+04  0.00000000000E+00 0. -1.
         23    2    1    2    0    0 -0.29682276436E+01  0.12473536063E+03 -0.50059691024E+03  0.52414378907E+03  0.92529587228E+02 0.  0.
         23    2    1    2    0    0  0.29682276436E+01 -0.12473536063E+03 -0.51829662466E+03  0.54217115173E+03  0.98744347018E+02 0.  0.
          5    1    3    3  502    0 -0.42657038542E+02  0.88314719013E+02 -0.27022760724E+03  0.28751376010E+03  0.47000000000E+01 0. -1.
         -5    1    3    3    0  502  0.39688810899E+02  0.36420641616E+02 -0.23036930300E+03  0.23663002898E+03  0.47000000000E+01 0.  1.
          5    1    4    4  503    0  0.28117316175E+02  0.31386434629E+01 -0.97464366240E+02  0.10159639382E+03  0.47000000000E+01 0. -1.
         -5    1    4    4    0  503 -0.25149088531E+02 -0.12787400409E+03 -0.42083225842E+03  0.44057475790E+03  0.47000000000E+01 0.  1.
<mgrwt>
<rscale>  0 0.15816323E+03</rscale>
<asrwt>0</asrwt>
<pdfrwt beam="1">  1        3 0.16040065E+00 0.15911683E+03</pdfrwt>
<pdfrwt beam="2">  1       -3 0.36478006E-02 0.15911683E+03</pdfrwt>
<totfact> 0.25957992E+02</totfact>
</mgrwt>
</event>
<event>
 8    1  0.2964543E-004  0.1218475E+03  0.7546771E-02  0.1240193E+00
          1   -1    0    0  501    0  0.00000000000E+00  0.00000000000E+00  0.16760054018E+03  0.16760054018E+03  0.00000000000E+00 0. -1.
         -1   -1    0    0    0  501 -0.00000000000E+00 -0.00000000000E+00 -0.12463655654E+03  0.12463655654E+03  0.00000000000E+00 0.  1.
         23    2    1    2    0    0  0.73463086739E+02 -0.29510019172E+02 -0.57343533187E+02  0.13441313174E+03  0.92254771379E+02 0.  0.
         23    2    1    2    0    0 -0.73463086739E+02  0.29510019172E+02  0.10030751683E+03  0.15782396497E+03  0.92623645160E+02 0.  0.
          5    1    3    3  502    0  0.47810414534E+02  0.27989292995E+02 -0.12545596360E+02  0.56997528441E+02  0.47000000000E+01 0. -1.
         -5    1    4    4    0  503 -0.56290597019E+02  0.40791483859E+02  0.16765566102E+02  0.71664151951E+02  0.47000000000E+01 0.  1.
          5    1    4    4  503    0 -0.17172489720E+02 -0.11281464687E+02  0.83541950727E+02  0.86159813022E+02  0.47000000000E+01 0. -1.
         -5    1    3    3    0  502  0.25652672205E+02 -0.57499312167E+02 -0.44797936827E+02  0.77415603304E+02  0.47000000000E+01 0.  1.
<mgrwt>
<rscale>  0 0.12177737E+03</rscale>
<asrwt>0</asrwt>
<pdfrwt beam="1">  1        1 0.25784698E-01 0.12184747E+03</pdfrwt>
<pdfrwt beam="2">  1       -1 0.19174855E-01 0.12184747E+03</pdfrwt>
<totfact> 0.37962538E+03</totfact>
</mgrwt>
</event>
<event>
 8    1  0.2964543E-004  0.1237472E+03  0.7546771E-02  0.1237107E+00
         -2   -1    0    0    0  501 -0.00000000000E+00  0.00000000000E+00  0.63062677853E+02  0.63062677853E+02  0.00000000000E+00 0.  1.
          2   -1    0    0  501    0  0.00000000000E+00 -0.00000000000E+00 -0.39467040595E+03  0.39467040595E+03  0.00000000000E+00 0. -1.
         23    2    1    2    0    0  0.30024087506E+02  0.77492583232E+02 -0.23759881899E+02  0.12600756645E+03  0.91688759004E+02 0.  0.
         23    2    1    2    0    0 -0.30024087506E+02 -0.77492583232E+02 -0.30784784620E+03  0.33172551736E+03  0.91460243654E+02 0.  0.
          5    1    4    4  502    0 -0.54465064981E+02 -0.16211211998E+02 -0.15614111732E+03  0.16622690882E+03  0.47000000000E+01 0. -1.
         -5    1    3    3    0  503  0.47186792590E+02  0.28602904005E+02  0.19120461782E+02  0.58586701317E+02  0.47000000000E+01 0.  1.
          5    1    3    3  503    0 -0.17162705084E+02  0.48889679227E+02 -0.42880343681E+02  0.67420865130E+02  0.47000000000E+01 0. -1.
         -5    1    4    4    0  502  0.24440977475E+02 -0.61281371234E+02 -0.15170672888E+03  0.16549860854E+03  0.47000000000E+01 0.  1.
<mgrwt>
<rscale>  0 0.12370489E+03</rscale>
<asrwt>0</asrwt>
<pdfrwt beam="1">  1        2 0.60718524E-01 0.12374722E+03</pdfrwt>
<pdfrwt beam="2">  1       -2 0.97019504E-02 0.12374722E+03</pdfrwt>
<totfact> 0.53882106E+03</totfact>
</mgrwt>
</event>
<event>
 8    1  0.2964543E-004  0.1136038E+03  0.7546771E-02  0.1254499E+00
         -1   -1    0    0    0  501 -0.00000000000E+00  0.00000000000E+00  0.42187793456E+02  0.42187793456E+02  0.00000000000E+00 0.  1.
          1   -1    0    0  501    0  0.00000000000E+00 -0.00000000000E+00 -0.30462099647E+03  0.30462099647E+03  0.00000000000E+00 0. -1.
         23    2    1    2    0    0 -0.64673996224E+02 -0.21532489847E+02 -0.14272574548E+03  0.18177640188E+03  0.89585980774E+02 0.  0.
         23    2    1    2    0    0  0.64673996224E+02  0.21532489847E+02 -0.11970745753E+03  0.16503238804E+03  0.90881460198E+02 0.  0.
          5    1    3    3  502    0  0.10717750290E+02 -0.30507947646E+02 -0.66464135851E+02  0.74061976717E+02  0.47000000000E+01 0. -1.
         -5    1    4    4    0  503  0.12231396628E+01  0.33808346149E+02 -0.67606831064E+01  0.34818058189E+02  0.47000000000E+01 0.  1.
          5    1    4    4  503    0  0.63450856561E+02 -0.12275856302E+02 -0.11294677442E+03  0.13021432985E+03  0.47000000000E+01 0. -1.
         -5    1    3    3    0  502 -0.75391746514E+02  0.89754577995E+01 -0.76261609634E+02  0.10771442517E+03  0.47000000000E+01 0.  1.
<mgrwt>
<rscale>  0 0.11334445E+03</rscale>
<asrwt>0</asrwt>
<pdfrwt beam="1">  1        1 0.46864771E-01 0.11360376E+03</pdfrwt>
<pdfrwt beam="2">  1       -1 0.64904294E-02 0.11360376E+03</pdfrwt>
<totfact> 0.95151106E+03</totfact>
</mgrwt>
</event>
<event>
 8    1  0.2964543E-004  0.9850978E+02  0.7546771E-02  0.1284413E+00
          2   -1    0    0  501    0  0.00000000000E+00  0.00000000000E+00  0.34563115049E+03  0.34563115049E+03  0.00000000000E+00 0. -1.
         -2   -1    0    0    0  501 -0.00000000000E+00 -0.00000000000E+00 -0.11448211451E+03  0.11448211451E+03  0.00000000000E+00 0.  1.
         23    2    1    2    0    0  0.35301606457E+02 -0.19025800901E+02 -0.85114963741E+02  0.12886246361E+03  0.88049945809E+02 0.  0.
         23    2    1    2    0    0 -0.35301606457E+02  0.19025800901E+02  0.31626399972E+03  0.33125080140E+03  0.89977727185E+02 0.  0.
          5    1    4    4  502    0 -0.22420195939E+02 -0.22535905900E+02  0.38904922544E+02  0.50460036057E+02  0.47000000000E+01 0. -1.
         -5    1    3    3    0  503  0.17529237419E+02  0.18861496904E+02 -0.82631001703E+02  0.86677578834E+02  0.47000000000E+01 0.  1.
          5    1    3    3  503    0  0.17772369038E+02 -0.37887297806E+02 -0.24839620372E+01  0.42184884777E+02  0.47000000000E+01 0. -1.
         -5    1    4    4    0  502 -0.12881410518E+02  0.41561706801E+02  0.27735907717E+03  0.28079076534E+03  0.47000000000E+01 0.  1.
<mgrwt>
<rscale>  0 0.98067397E+02</rscale>
<asrwt>0</asrwt>
<pdfrwt beam="1">  1        2 0.53174023E-01 0.98509776E+02</pdfrwt>
<pdfrwt beam="2">  1       -2 0.17612633E-01 0.98509776E+02</pdfrwt>
<totfact> 0.23541123E+03</totfact>
</mgrwt>
</event>
<event>
 8    1  0.2964543E-004  0.9601091E+02  0.7546771E-02  0.1290473E+00
          1   -1    0    0  501    0  0.00000000000E+00  0.00000000000E+00  0.48362905503E+02  0.48362905503E+02  0.00000000000E+00 0. -1.
         -1   -1    0    0    0  501 -0.00000000000E+00 -0.00000000000E+00 -0.33004552688E+03  0.33004552688E+03  0.00000000000E+00 0.  1.
         23    2    1    2    0    0  0.74352367473E-01  0.68693615943E+01 -0.26734589510E+03  0.28406323582E+03  0.95764819510E+02 0.  0.
         23    2    1    2    0    0 -0.74352367473E-01 -0.68693615943E+01 -0.14336726268E+02  0.94345196564E+02  0.92996132918E+02 0.  0.
          5    1    3    3  502    0 -0.24521341461E+02 -0.50843622259E+01 -0.13749168855E+02  0.28953006243E+02  0.47000000000E+01 0. -1.
         -5    1    4    4    0  503  0.52140059261E+01  0.30990816874E+02 -0.37694070127E+02  0.49300603557E+02  0.47000000000E+01 0.  1.
          5    1    4    4  503    0 -0.52883582935E+01 -0.37860178468E+02  0.23357343858E+02  0.45044593007E+02  0.47000000000E+01 0. -1.
         -5    1    3    3    0  502  0.24595693829E+02  0.11953723820E+02 -0.25359672625E+03  0.25511022957E+03  0.47000000000E+01 0.  1.
<mgrwt>
<rscale>  0 0.95312989E+02</rscale>
<asrwt>0</asrwt>
<pdfrwt beam="1">  1        1 0.74404472E-02 0.96010907E+02</pdfrwt>
<pdfrwt beam="2">  1       -1 0.50776234E-01 0.96010907E+02</pdfrwt>
<totfact> 0.36001476E+03</totfact>
</mgrwt>
</event>
<event>
 8    1  0.2964543E-004  0.1079857E+03  0.7546771E-02  0.1266995E+00
          2   -1    0    0  501    0  0.00000000000E+00  0.00000000000E+00  0.45695793299E+03  0.45695793299E+03  0.00000000000E+00 0. -1.
         -2   -1    0    0    0  501 -0.00000000000E+00 -0.00000000000E+00 -0.34314046275E+02  0.34314046275E+02  0.00000000000E+00 0.  1.
         23    2    1    2    0    0 -0.43600243916E+02  0.15330302014E+01  0.34045568530E+03  0.35556711362E+03  0.92814692704E+02 0.  0.
         23    2    1    2    0    0  0.43600243916E+02 -0.15330302014E+01  0.82188201410E+02  0.13570486564E+03  0.98780456857E+02 0.  0.
          5    1    4    4  502    0 -0.20976975063E+00 -0.45498191764E+02  0.35053461309E+02  0.57627811054E+02  0.47000000000E+01 0. -1.
         -5    1    3    3    0  503 -0.18219681673E+02  0.45317079368E+02  0.12714518737E+03  0.13628493370E+03  0.47000000000E+01 0.  1.
          5    1    3    3  503    0 -0.25380562243E+02 -0.43784049166E+02  0.21331049794E+03  0.21928217992E+03  0.47000000000E+01 0. -1.
         -5    1    4    4    0  502  0.43810013667E+02  0.43965161563E+02  0.47134740101E+02  0.78077054588E+02  0.47000000000E+01 0.  1.
<mgrwt>
<rscale>  0 0.10660211E+03</rscale>
<asrwt>0</asrwt>
<pdfrwt beam="1">  1        2 0.70301216E-01 0.10798569E+03</pdfrwt>
<pdfrwt beam="2">  1       -2 0.52790844E-02 0.10798569E+03</pdfrwt>
<totfact> 0.11564435E+04</totfact>
</mgrwt>
</event>
<event>
 8    1  0.2964543E-004  0.1012794E+03  0.7546771E-02  0.1279470E+00
         -1   -1    0    0    0  501 -0.00000000000E+00  0.00000000000E+00  0.90841833858E+02  0.90841833858E+02  0.00000000000E+00 0.  1.
          1   -1    0    0  501    0  0.00000000000E+00 -0.00000000000E+00 -0.15629462242E+03  0.15629462242E+03  0.00000000000E+00 0. -1.
         23    2    1    2    0    0 -0.38293178313E+02 -0.25729649731E+01  0.34802170261E+02  0.10709208568E+03  0.93725856126E+02 0.  0.
         23    2    1    2    0    0  0.38293178313E+02  0.25729649731E+01 -0.10025495882E+03  0.14004437060E+03  0.89935428578E+02 0.  0.
          5    1    3    3  502    0  0.26624488438E+00  0.40201176795E+02  0.17219947560E+01  0.40512476695E+02  0.47000000000E+01 0. -1.
         -5    1    4    4    0  503 -0.60235101499E+00  0.38705195597E+02 -0.66094888749E+02  0.76740336927E+02  0.47000000000E+01 0.  1.
          5    1    4    4  503    0  0.38895529328E+02 -0.36132230624E+02 -0.34160070074E+02  0.63304033671E+02  0.47000000000E+01 0. -1.
         -5    1    3    3    0  502 -0.38559423197E+02 -0.42774141768E+02  0.33080175505E+02  0.66579608986E+02  0.47000000000E+01 0.  1.
<mgrwt>
<rscale>  0 0.10039358E+03</rscale>
<asrwt>0</asrwt>
<pdfrwt beam="1">  1        1 0.24045327E-01 0.10127943E+03</pdfrwt>
<pdfrwt beam="2">  1       -1 0.13975667E-01 0.10127943E+03</pdfrwt>
<totfact> 0.67215667E+03</totfact>
</mgrwt>
</event>
<event>
 8    1  0.2964543E-004  0.9874240E+02  0.7546771E-02  0.1283676E+00
          2   -1    0    0  501    0  0.00000000000E+00  0.00000000000E+00  0.10536533964E+03  0.10536533964E+03  0.00000000000E+00 0. -1.
         -2   -1    0    0    0  501 -0.00000000000E+00 -0.00000000000E+00 -0.13614945240E+03  0.13614945240E+03  0.00000000000E+00 0.  1.
         23    2    1    2    0    0  0.27096095513E+02  0.25127160081E+02  0.53845867104E+02  0.11246972849E+03  0.91566860035E+02 0.  0.
         23    2    1    2    0    0 -0.27096095513E+02 -0.25127160081E+02 -0.84629979861E+02  0.12904506355E+03  0.90137796557E+02 0.  0.
          5    1    4    4  502    0 -0.12896939186E+02 -0.55262567518E+02 -0.74776518541E+02  0.93988829837E+02  0.47000000000E+01 0. -1.
         -5    1    3    3    0  503  0.31235226882E+02  0.53213166111E+02  0.14214828526E+02  0.63493557121E+02  0.47000000000E+01 0.  1.
          5    1    3    3  503    0 -0.41391313688E+01 -0.28086006029E+02  0.39631038578E+02  0.48976171369E+02  0.47000000000E+01 0. -1.
         -5    1    4    4    0  502 -0.14199156327E+02  0.30135407437E+02 -0.98534613204E+01  0.35056233708E+02  0.47000000000E+01 0.  1.
<mgrwt>
<rscale>  0 0.98409791E+02</rscale>
<asrwt>0</asrwt>
<pdfrwt beam="1">  1        2 0.16210052E-01 0.98742404E+02</pdfrwt>
<pdfrwt beam="2">  1       -2 0.20946070E-01 0.98742404E+02</pdfrwt>
<totfact> 0.63775754E+03</totfact>
</mgrwt>
</event>
<event>
 8    1  0.2964543E-004  0.1060506E+03  0.7546771E-02  0.1269190E+00
         -1   -1    0    0    0  501 -0.00000000000E+00  0.00000000000E+00  0.26416480763E+02  0.26416480763E+02  0.00000000000E+00 0.  1.
          1   -1    0    0  501    0  0.00000000000E+00 -0.00000000000E+00 -0.81995126932E+03  0.81995126932E+03  0.00000000000E+00 0. -1.
         23    2    1    2    0    0  0.11292943579E+02  0.55036535338E+02 -0.69136575974E+03  0.69910866314E+03  0.87233928803E+02 0.  0.
         23    2    1    2    0    0 -0.11292943579E+02 -0.55036535338E+02 -0.10216902881E+03  0.14725908694E+03  0.89945413678E+02 0.  0.
          5    1    4    4  502    0 -0.30873495444E+02  0.69486814735E+01 -0.64458507388E+02  0.71961420704E+02  0.47000000000E+01 0. -1.
         -5    1    3    3    0  503 -0.21691625492E+02 -0.13887936938E+02 -0.22234783314E+03  0.22388401085E+03  0.47000000000E+01 0.  1.
          5    1    3    3  503    0  0.32984569071E+02  0.68924472277E+02 -0.46901792660E+03  0.47522465229E+03  0.47000000000E+01 0. -1.
         -5    1    4    4    0  502  0.19580551865E+02 -0.61985216812E+02 -0.37710521421E+02  0.75297666235E+02  0.47000000000E+01 0.  1.
<mgrwt>
<rscale>  0 0.10547346E+03</rscale>
<asrwt>0</asrwt>
<pdfrwt beam="1">  1        1 0.12614632E+00 0.10605059E+03</pdfrwt>
<pdfrwt beam="2">  1       -1 0.40640750E-02 0.10605059E+03</pdfrwt>
<totfact> 0.51143144E+03</totfact>
</mgrwt>
</event>
<event>
 8    1  0.2964543E-004  0.1339794E+03  0.7546771E-02  0.1221693E+00
          1   -1    0    0  501    0  0.00000000000E+00  0.00000000000E+00  0.40364267784E+03  0.40364267784E+03  0.00000000000E+00 0. -1.
         -1   -1    0    0    0  501 -0.00000000000E+00 -0.00000000000E+00 -0.70659282963E+02  0.70659282963E+02  0.00000000000E+00 0.  1.
         23    2    1    2    0    0  0.10746301337E+02 -0.96862983498E+02  0.31095948828E+03  0.33859455707E+03  0.91937751540E+02 0.  0.
         23    2    1    2    0    0 -0.10746301337E+02  0.96862983498E+02  0.22023906600E+02  0.13570740374E+03  0.91834233286E+02 0.  0.
          5    1    4    4  502    0  0.16533405960E+02  0.31505729963E+02  0.48167450830E+02  0.60067943636E+02  0.47000000000E+01 0. -1.
         -5    1    3    3    0  503 -0.37193717819E+02 -0.18495786742E+02  0.89015926892E+02  0.98343235725E+02  0.47000000000E+01 0.  1.
          5    1    3    3  503    0  0.47940019156E+02 -0.78367196756E+02  0.22194356139E+03  0.24025132134E+03  0.47000000000E+01 0. -1.
         -5    1    4    4    0  502 -0.27279707298E+02  0.65357253535E+02 -0.26143544230E+02  0.75639460104E+02  0.47000000000E+01 0.  1.
<mgrwt>
<rscale>  0 0.13396161E+03</rscale>
<asrwt>0</asrwt>
<pdfrwt beam="1">  1        1 0.62098872E-01 0.13397937E+03</pdfrwt>
<pdfrwt beam="2">  1       -1 0.10870659E-01 0.13397937E+03</pdfrwt>
<totfact> 0.31094471E+03</totfact>
</mgrwt>
</event>
<event>
 7    1  0.2964543E-004  0.1123509E+03  0.7546771E-02  0.1270749E+00
          2   -1    0    0  501    0  0.00000000000E+00  0.00000000000E+00  0.13311034243E+04  0.13311034243E+04  0.00000000000E+00 0. -1.
         -2   -1    0    0    0  501 -0.00000000000E+00 -0.00000000000E+00 -0.82113138225E+01  0.82113138225E+01  0.00000000000E+00 0.  1.
         23    2    1    2    0    0 -0.64070980807E+02 -0.11706407968E+02  0.96620650081E+03  0.97271667738E+03  0.91545626148E+02 0.  0.
          5    1    3    3  502    0  0.94067917573E+01  0.27095767806E+02  0.23646503993E+03  0.23824456652E+03  0.47000000000E+01 0. -1.
         -5    1    1    2    0  503  0.53119539368E+02  0.29341034107E+02  0.21996725205E+03  0.22823291550E+03  0.47000000000E+01 0. -1.
          5    1    1    2  503    0  0.10951441440E+02 -0.17634626139E+02  0.13671835765E+03  0.13836514527E+03  0.47000000000E+01 0.  1.
         -5    1    3    3    0  502 -0.73477772565E+02 -0.38802175774E+02  0.72974146088E+03  0.73447211086E+03  0.47000000000E+01 0.  1.
<mgrwt>
<rscale>  0 0.10468121E+03</rscale>
<asrwt>0</asrwt>
<pdfrwt beam="1">  1        2 0.20478497E+00 0.11235093E+03</pdfrwt>
<pdfrwt beam="2">  1       -2 0.12632801E-02 0.11235093E+03</pdfrwt>
<totfact> 0.24169564E+04</totfact>
</mgrwt>
</event>
<event>
 8    1  0.2964543E-004  0.1225887E+03  0.7546771E-02  0.1239193E+00
          2   -1    0    0  501    0  0.00000000000E+00  0.00000000000E+00  0.49862819980E+03  0.49862819980E+03  0.00000000000E+00 0. -1.
         -2   -1    0    0    0  501 -0.00000000000E+00 -0.00000000000E+00 -0.68367188475E+02  0.68367188475E+02  0.00000000000E+00 0.  1.
         23    2    1    2    0    0 -0.63012775105E+02  0.52227263424E+02  0.23264077938E+01  0.12184819681E+03  0.90240090986E+02 0.  0.
         23    2    1    2    0    0  0.63012775105E+02 -0.52227263424E+02  0.42793460353E+03  0.44514719147E+03  0.91267191802E+02 0.  0.
          5    1    4    4  502    0  0.17863849031E+02 -0.66994838411E+02  0.18622972655E+03  0.19877380744E+03  0.47000000000E+01 0. -1.
         -5    1    4    4    0  502  0.45148926074E+02  0.14767574987E+02  0.24170487699E+03  0.24637338402E+03  0.47000000000E+01 0.  1.
          5    1    3    3  503    0 -0.19987395564E+02  0.64702240671E+01  0.42150717447E+02  0.47330040801E+02  0.47000000000E+01 0. -1.
         -5    1    3    3    0  503 -0.43025379541E+02  0.45757039357E+02 -0.39824309654E+02  0.74518156007E+02  0.47000000000E+01 0.  1.
<mgrwt>
<rscale>  0 0.12239760E+03</rscale>
<asrwt>0</asrwt>
<pdfrwt beam="1">  1        2 0.76712028E-01 0.12258873E+03</pdfrwt>
<pdfrwt beam="2">  1       -2 0.10518029E-01 0.12258873E+03</pdfrwt>
<totfact> 0.36885453E+03</totfact>
</mgrwt>
</event>
<event>
 8    1  0.2964543E-004  0.9455361E+02  0.7546771E-02  0.1292496E+00
          1   -1    0    0  501    0  0.00000000000E+00  0.00000000000E+00  0.16148779418E+03  0.16148779418E+03  0.00000000000E+00 0. -1.
         -1   -1    0    0    0  501 -0.00000000000E+00 -0.00000000000E+00 -0.88015895562E+02  0.88015895562E+02  0.00000000000E+00 0.  1.
         23    2    1    2    0    0 -0.96664561717E+01 -0.25418919944E+02  0.11302594744E+03  0.14701023325E+03  0.89986565771E+02 0.  0.
         23    2    1    2    0    0  0.96664561717E+01  0.25418919944E+02 -0.39554048830E+02  0.10249345649E+03  0.90558400922E+02 0.  0.
          5    1    3    3  502    0 -0.30343505175E+02  0.23822885496E+02  0.60832364039E+02  0.72186734891E+02  0.47000000000E+01 0. -1.
         -5    1    3    3    0  502  0.20677049003E+02 -0.49241805439E+02  0.52193583405E+02  0.74823498362E+02  0.47000000000E+01 0.  1.
          5    1    4    4  503    0 -0.84919360401E+01  0.55397621709E+02 -0.36393676513E+02  0.66989545146E+02  0.47000000000E+01 0. -1.
         -5    1    4    4    0  503  0.18158392212E+02 -0.29978701765E+02 -0.31603723169E+01  0.35503911340E+02  0.47000000000E+01 0.  1.
<mgrwt>
<rscale>  0 0.94416433E+02</rscale>
<asrwt>0</asrwt>
<pdfrwt beam="1">  1        1 0.24844276E-01 0.94553614E+02</pdfrwt>
<pdfrwt beam="2">  1       -1 0.13540907E-01 0.94553614E+02</pdfrwt>
<totfact> 0.67403462E+03</totfact>
</mgrwt>
</event>
<event>
 8    1  0.2964543E-004  0.1010587E+03  0.7546771E-02  0.1280042E+00
          2   -1    0    0  501    0  0.00000000000E+00  0.00000000000E+00  0.20744281596E+03  0.20744281596E+03  0.00000000000E+00 0. -1.
         -2   -1    0    0    0  501 -0.00000000000E+00 -0.00000000000E+00 -0.49739417243E+02  0.49739417243E+02  0.00000000000E+00 0.  1.
         23    2    1    2    0    0 -0.14104597574E+02 -0.38295082278E+02  0.10505476723E+03  0.14323166106E+03  0.88393164968E+02 0.  0.
         23    2    1    2    0    0  0.14104597574E+02  0.38295082278E+02  0.52648631488E+02  0.11395057214E+03  0.92452157870E+02 0.  0.
          5    1    4    4  502    0 -0.32221953703E+02  0.75807369218E+00  0.42080870392E+02  0.53213895075E+02  0.47000000000E+01 0. -1.
         -5    1    4    4    0  502  0.46326551276E+02  0.37537008585E+02  0.10567761096E+02  0.60736677068E+02  0.47000000000E+01 0.  1.
          5    1    3    3  503    0 -0.27041230986E+02 -0.63199990840E+02  0.74001195104E+02  0.10111248139E+03  0.47000000000E+01 0. -1.
         -5    1    3    3    0  503  0.12936633413E+02  0.24904908563E+02  0.31053572126E+02  0.42119179674E+02  0.47000000000E+01 0.  1.
<mgrwt>
<rscale>  0 0.10012081E+03</rscale>
<asrwt>0</asrwt>
<pdfrwt beam="1">  1        2 0.31914279E-01 0.10105867E+03</pdfrwt>
<pdfrwt beam="2">  1       -2 0.76522181E-02 0.10105867E+03</pdfrwt>
<totfact> 0.15112703E+04</totfact>
</mgrwt>
</event>
<event>
 8    1  0.2964543E-004  0.1000077E+03  0.7546771E-02  0.1280753E+00
          4   -1    0    0  501    0  0.00000000000E+00  0.00000000000E+00  0.43992033842E+02  0.43992033842E+02  0.00000000000E+00 0. -1.
         -4   -1    0    0    0  501 -0.00000000000E+00 -0.00000000000E+00 -0.34445623386E+03  0.34445623386E+03  0.00000000000E+00 0.  1.
         23    2    1    2    0    0 -0.74057146899E+01  0.39198163669E+02 -0.36449594509E+02  0.10644299472E+03  0.91707129171E+02 0.  0.
         23    2    1    2    0    0  0.74057146899E+01 -0.39198163669E+02 -0.26401460551E+03  0.28200527298E+03  0.90729936736E+02 0.  0.
          5    1    4    4  502    0  0.37860992846E+02 -0.27707258732E+02 -0.65053485200E+02  0.80344215114E+02  0.47000000000E+01 0. -1.
         -5    1    3    3    0  503 -0.31100610115E+02 -0.17508227187E+02 -0.24801206730E+02  0.43714709470E+02  0.47000000000E+01 0.  1.
          5    1    3    3  503    0  0.23694895425E+02  0.56706390855E+02 -0.11648387779E+02  0.62728285254E+02  0.47000000000E+01 0. -1.
         -5    1    4    4    0  502 -0.30455278156E+02 -0.11490904937E+02 -0.19896112031E+03  0.20166105787E+03  0.47000000000E+01 0.  1.
<mgrwt>
<rscale>  0 0.99783105E+02</rscale>
<asrwt>0</asrwt>
<pdfrwt beam="1">  1        4 0.67680054E-02 0.10000769E+03</pdfrwt>
<pdfrwt beam="2">  1       -4 0.52993265E-01 0.10000769E+03</pdfrwt>
<totfact> 0.77573020E+02</totfact>
</mgrwt>
</event>
<event>
 8    1  0.2964543E-004  0.9508120E+02  0.7546771E-02  0.1291040E+00
         -1   -1    0    0    0  501 -0.00000000000E+00  0.00000000000E+00  0.17132294608E+02  0.17132294608E+02  0.00000000000E+00 0.  1.
          1   -1    0    0  501    0  0.00000000000E+00 -0.00000000000E+00 -0.54788147434E+03  0.54788147434E+03  0.00000000000E+00 0. -1.
         23    2    1    2    0    0  0.10515691152E+01  0.23555471961E+02 -0.21041320310E+03  0.23086474113E+03  0.92026336438E+02 0.  0.
         23    2    1    2    0    0 -0.10515691152E+01 -0.23555471961E+02 -0.32033597663E+03  0.33414902782E+03  0.92111176382E+02 0.  0.
          5    1    3    3  502    0  0.26203573744E+02  0.32856609277E+02 -0.39729488315E+02  0.58023325412E+02  0.47000000000E+01 0. -1.
         -5    1    4    4    0  503  0.22686433781E+02 -0.51517011430E+02 -0.22248726666E+03  0.22954596614E+03  0.47000000000E+01 0.  1.
          5    1    4    4  503    0 -0.23738002897E+02  0.27961539469E+02 -0.97848709967E+02  0.10460306168E+03  0.47000000000E+01 0. -1.
         -5    1    3    3    0  502 -0.25152004629E+02 -0.93011373156E+01 -0.17068371479E+03  0.17284141571E+03  0.47000000000E+01 0.  1.
<mgrwt>
<rscale>  0 0.95060648E+02</rscale>
<asrwt>0</asrwt>
<pdfrwt beam="1">  1        1 0.84289436E-01 0.95081201E+02</pdfrwt>
<pdfrwt beam="2">  1       -1 0.26357383E-02 0.95081201E+02</pdfrwt>
<totfact> 0.16687825E+04</totfact>
</mgrwt>
</event>
<event>
 8    1  0.2964543E-004  0.1617004E+03  0.7546771E-02  0.1187023E+00
          1   -1    0    0  501    0  0.00000000000E+00  0.00000000000E+00  0.43873878103E+03  0.43873878103E+03  0.00000000000E+00 0. -1.
         -1   -1    0    0    0  501 -0.00000000000E+00 -0.00000000000E+00 -0.97445056502E+02  0.97445056502E+02  0.00000000000E+00 0.  1.
         23    2    1    2    0    0 -0.47539930006E+02  0.12496906363E+03  0.31560818586E+01  0.16173124199E+03  0.90938011718E+02 0.  0.
         23    2    1    2    0    0  0.47539930006E+02 -0.12496906363E+03  0.33813764267E+03  0.37445259554E+03  0.89444782449E+02 0.  0.
          5    1    4    4  502    0  0.92759015413E+01 -0.12075517142E+03  0.27203269567E+03  0.29781157011E+03  0.47000000000E+01 0. -1.
         -5    1    3    3    0  503  0.98735494141E+01  0.71575807874E+02 -0.27449095436E+02  0.77434656912E+02  0.47000000000E+01 0.  1.
          5    1    3    3  503    0 -0.57413479420E+02  0.53393255752E+02  0.30605177295E+02  0.84296585080E+02  0.47000000000E+01 0. -1.
         -5    1    4    4    0  502  0.38264028465E+02 -0.42138922040E+01  0.66104947002E+02  0.76641025437E+02  0.47000000000E+01 0.  1.
<mgrwt>
<rscale>  0 0.16149128E+03</rscale>
<asrwt>0</asrwt>
<pdfrwt beam="1">  1        1 0.67498273E-01 0.16170044E+03</pdfrwt>
<pdfrwt beam="2">  1       -1 0.14991547E-01 0.16170044E+03</pdfrwt>
<totfact> 0.17082680E+03</totfact>
</mgrwt>
</event>
<event>
 8    1  0.2964543E-004  0.1283367E+03  0.7546771E-02  0.1230019E+00
          2   -1    0    0  501    0  0.00000000000E+00  0.00000000000E+00  0.49475434854E+03  0.49475434854E+03  0.00000000000E+00 0. -1.
         -2   -1    0    0    0  501 -0.00000000000E+00 -0.00000000000E+00 -0.14927205047E+03  0.14927205047E+03  0.00000000000E+00 0.  1.
         23    2    1    2    0    0  0.73224259693E+02 -0.47035418008E+02 -0.11119540988E+03  0.16965856498E+03  0.94050447841E+02 0.  0.
         23    2    1    2    0    0 -0.73224259693E+02  0.47035418008E+02  0.45667770795E+03  0.47436783403E+03  0.94319617617E+02 0.  0.
          5    1    3    3  502    0 -0.21786931740E+02 -0.18002045741E+02 -0.23364246678E+02  0.36969204324E+02  0.47000000000E+01 0. -1.
         -5    1    3    3    0  502  0.95011191433E+02 -0.29033372267E+02 -0.87831163198E+02  0.13268936066E+03  0.47000000000E+01 0.  1.
          5    1    4    4  503    0 -0.40039869216E+02  0.16696352017E+02  0.39755091420E+03  0.39993846861E+03  0.47000000000E+01 0. -1.
         -5    1    4    4    0  503 -0.33184390477E+02  0.30339065991E+02  0.59126793750E+02  0.74429365413E+02  0.47000000000E+01 0.  1.
<mgrwt>
<rscale>  0 0.12828727E+03</rscale>
<asrwt>0</asrwt>
<pdfrwt beam="1">  1        2 0.76116053E-01 0.12833672E+03</pdfrwt>
<pdfrwt beam="2">  1       -2 0.22964931E-01 0.12833672E+03</pdfrwt>
<totfact> 0.10344346E+03</totfact>
</mgrwt>
</event>
<event>
 8    1  0.2964543E-004  0.3009602E+03  0.7546771E-02  0.1084786E+00
          1   -1    0    0  501    0  0.00000000000E+00  0.00000000000E+00  0.54430594331E+03  0.54430594331E+03  0.00000000000E+00 0. -1.
         -1   -1    0    0    0  501 -0.00000000000E+00 -0.00000000000E+00 -0.28838001221E+03  0.28838001221E+03  0.00000000000E+00 0.  1.
         23    2    1    2    0    0  0.20375247961E+03 -0.20187506488E+03  0.39887531364E+03  0.49967848335E+03  0.91150732947E+02 0.  0.
         23    2    1    2    0    0 -0.20375247961E+03  0.20187506488E+03 -0.14294938254E+03  0.33300747217E+03  0.90503236282E+02 0.  0.
          5    1    3    3  502    0  0.64550340763E+02 -0.12346281347E+03  0.21262137382E+03  0.25424348842E+03  0.47000000000E+01 0. -1.
         -5    1    3    3    0  502  0.13920213885E+03 -0.78412251414E+02  0.18625393983E+03  0.24543499493E+03  0.47000000000E+01 0.  1.
          5    1    4    4  503    0 -0.92133549435E+01  0.20861761797E+02  0.11125685238E+02  0.25806392360E+02  0.47000000000E+01 0. -1.
         -5    1    4    4    0  503 -0.19453912467E+03  0.18101330309E+03 -0.15407506778E+03  0.30720107981E+03  0.47000000000E+01 0.  1.
<mgrwt>
<rscale>  0 0.30091137E+03</rscale>
<asrwt>0</asrwt>
<pdfrwt beam="1">  1        1 0.83739375E-01 0.30096025E+03</pdfrwt>
<pdfrwt beam="2">  1       -1 0.44366156E-01 0.30096025E+03</pdfrwt>
<totfact> 0.20738558E+02</totfact>
</mgrwt>
</event>
<event>
 8    1  0.2964543E-004  0.1039168E+03  0.7546771E-02  0.1272699E+00
          1   -1    0    0  501    0  0.00000000000E+00  0.00000000000E+00  0.75285183317E+03  0.75285183317E+03  0.00000000000E+00 0. -1.
         -1   -1    0    0    0  501 -0.00000000000E+00 -0.00000000000E+00 -0.14702774858E+02  0.14702774858E+02  0.00000000000E+00 0.  1.
         23    2    1    2    0    0 -0.48317242978E+02  0.90955667188E+00  0.30141136232E+03  0.31882206431E+03  0.91996283053E+02 0.  0.
         23    2    1    2    0    0  0.48317242978E+02 -0.90955667188E+00  0.43673769600E+03  0.44873254372E+03  0.91025806369E+02 0.  0.
          5    1    3    3  502    0 -0.20654952815E+02  0.45785864235E+02  0.13087519620E+03  0.14026182453E+03  0.47000000000E+01 0. -1.
         -5    1    4    4    0  503  0.52331200321E+02 -0.38261023648E+02  0.26218773550E+03  0.27012396988E+03  0.47000000000E+01 0.  1.
          5    1    4    4  503    0 -0.40139573431E+01  0.37351466976E+02  0.17454996050E+03  0.17860857384E+03  0.47000000000E+01 0. -1.
         -5    1    3    3    0  502 -0.27662290163E+02 -0.44876307563E+02  0.17053616612E+03  0.17856023978E+03  0.47000000000E+01 0.  1.
<mgrwt>
<rscale>  0 0.10370158E+03</rscale>
<asrwt>0</asrwt>
<pdfrwt beam="1">  1        1 0.11582333E+00 0.10391679E+03</pdfrwt>
<pdfrwt beam="2">  1       -1 0.22619659E-02 0.10391679E+03</pdfrwt>
<totfact> 0.13530017E+04</totfact>
</mgrwt>
</event>
<event>
 8    1  0.2964543E-004  0.9794881E+02  0.7546771E-02  0.1284787E+00
          1   -1    0    0  501    0  0.00000000000E+00  0.00000000000E+00  0.36169210799E+03  0.36169210799E+03  0.00000000000E+00 0. -1.
         -1   -1    0    0    0  501 -0.00000000000E+00 -0.00000000000E+00 -0.27091811059E+02  0.27091811059E+02  0.00000000000E+00 0.  1.
         23    2    1    2    0    0  0.70309688727E+01  0.36108306942E+02  0.13758597201E+03  0.16876434353E+03  0.90544241114E+02 0.  0.
         23    2    1    2    0    0 -0.70309688727E+01 -0.36108306942E+02  0.19701432491E+03  0.22001957551E+03  0.90778439264E+02 0.  0.
          5    1    3    3  502    0 -0.26578233454E+02 -0.13821394347E+02  0.19248225931E+02  0.35916815515E+02  0.47000000000E+01 0. -1.
         -5    1    4    4    0  503 -0.18618331926E+02  0.27126532634E+02  0.59678348496E+02  0.68308757386E+02  0.47000000000E+01 0.  1.
          5    1    4    4  503    0  0.11587363053E+02 -0.63234839576E+02  0.13733597642E+03  0.15171081813E+03  0.47000000000E+01 0. -1.
         -5    1    3    3    0  502  0.33609202327E+02  0.49929701289E+02  0.11833774608E+03  0.13284752802E+03  0.47000000000E+01 0.  1.
<mgrwt>
<rscale>  0 0.97894511E+02</rscale>
<asrwt>0</asrwt>
<pdfrwt beam="1">  1        1 0.55644936E-01 0.97948810E+02</pdfrwt>
<pdfrwt beam="2">  1       -1 0.41679712E-02 0.97948810E+02</pdfrwt>
<totfact> 0.14587766E+04</totfact>
</mgrwt>
</event>
<event>
 8    1  0.2964543E-004  0.1052441E+03  0.7546771E-02  0.1269821E+00
          1   -1    0    0  501    0  0.00000000000E+00  0.00000000000E+00  0.57062523407E+03  0.57062523407E+03  0.00000000000E+00 0. -1.
         -1   -1    0    0    0  501 -0.00000000000E+00 -0.00000000000E+00 -0.27141843014E+02  0.27141843014E+02  0.00000000000E+00 0.  1.
         23    2    1    2    0    0  0.25326057045E+02 -0.41569231248E+02  0.43229811551E+03  0.44492470320E+03  0.93310881975E+02 0.  0.
         23    2    1    2    0    0 -0.25326057045E+02  0.41569231248E+02  0.11118527554E+03  0.15284237388E+03  0.92893571376E+02 0.  0.
          5    1    3    3  502    0  0.44604675088E+02 -0.62147262791E+02  0.31823207991E+03  0.32733103427E+03  0.47000000000E+01 0. -1.
         -5    1    3    3    0  502 -0.19278618043E+02  0.20578031543E+02  0.11406603560E+03  0.11759366893E+03  0.47000000000E+01 0.  1.
          5    1    4    4  503    0 -0.23568402880E+02 -0.77316507123E+01  0.98507197226E+02  0.10169073676E+03  0.47000000000E+01 0. -1.
         -5    1    4    4    0  503 -0.17576541646E+01  0.49300881960E+02  0.12678078318E+02  0.51151637120E+02  0.47000000000E+01 0.  1.
<mgrwt>
<rscale>  0 0.10515157E+03</rscale>
<asrwt>0</asrwt>
<pdfrwt beam="1">  1        1 0.87788489E-01 0.10524415E+03</pdfrwt>
<pdfrwt beam="2">  1       -1 0.41756686E-02 0.10524415E+03</pdfrwt>
<totfact> 0.81889646E+03</totfact>
</mgrwt>
</event>
<event>
 8    1  0.2964543E-004  0.9092884E+02  0.7546771E-02  0.1300980E+00
         -1   -1    0    0    0  501 -0.00000000000E+00  0.00000000000E+00  0.11609593659E+03  0.11609593659E+03  0.00000000000E+00 0.  1.
          1   -1    0    0  501    0  0.00000000000E+00 -0.00000000000E+00 -0.98753660518E+02  0.98753660518E+02  0.00000000000E+00 0. -1.
         23    2    1    2    0    0  0.61609028574E+01 -0.13648633989E+02  0.65901647106E+02  0.11229907192E+03  0.89687304168E+02 0.  0.
         23    2    1    2    0    0 -0.61609028574E+01  0.13648633989E+02 -0.48559371035E+02  0.10255052519E+03  0.89075000798E+02 0.  0.
          5    1    3    3  502    0 -0.11983090118E+01  0.30623453579E+02 -0.16644173315E+01  0.31049833151E+02  0.47000000000E+01 0. -1.
         -5    1    4    4    0  503  0.24887241327E+02 -0.22877909417E+02  0.31650325479E-01  0.34130111660E+02  0.47000000000E+01 0.  1.
          5    1    4    4  503    0 -0.31048144185E+02  0.36526543405E+02 -0.48591021361E+02  0.68420413528E+02  0.47000000000E+01 0. -1.
         -5    1    3    3    0  502  0.73592118691E+01 -0.44272087568E+02  0.67566064438E+02  0.81249238769E+02  0.47000000000E+01 0.  1.
<mgrwt>
<rscale>  0 0.90777494E+02</rscale>
<asrwt>0</asrwt>
<pdfrwt beam="1">  1        1 0.15192871E-01 0.90928843E+02</pdfrwt>
<pdfrwt beam="2">  1       -1 0.17860913E-01 0.90928843E+02</pdfrwt>
<totfact> 0.81115532E+03</totfact>
</mgrwt>
</event>
<event>
 8    1  0.2964543E-004  0.1275079E+03  0.7546771E-02  0.1231914E+00
         -2   -1    0    0    0  501 -0.00000000000E+00  0.00000000000E+00  0.13187709912E+03  0.13187709912E+03  0.00000000000E+00 0.  1.
          2   -1    0    0  501    0  0.00000000000E+00 -0.00000000000E+00 -0.12160636196E+03  0.12160636196E+03  0.00000000000E+00 0. -1.
         23    2    1    2    0    0 -0.79506159070E+02 -0.28413621221E+02  0.89751484149E+01  0.12596893367E+03  0.93054047516E+02 0.  0.
         23    2    1    2    0    0  0.79506159070E+02  0.28413621221E+02  0.12955887465E+01  0.12751452741E+03  0.95549531387E+02 0.  0.
          5    1    3    3  502    0 -0.10713892853E+02  0.24103515726E+02 -0.21227379803E+02  0.34182724054E+02  0.47000000000E+01 0. -1.
         -5    1    4    4    0  503 -0.16246928144E+02  0.26616849519E+02  0.23528952938E+01  0.31623495517E+02  0.47000000000E+01 0.  1.
          5    1    4    4  503    0  0.95753087215E+02  0.17967717026E+01 -0.10573065473E+01  0.95891031889E+02  0.47000000000E+01 0. -1.
         -5    1    3    3    0  502 -0.68792266217E+02 -0.52517136947E+02  0.30202528218E+02  0.91786209613E+02  0.47000000000E+01 0.  1.
<mgrwt>
<rscale>  0 0.12704059E+03</rscale>
<asrwt>0</asrwt>
<pdfrwt beam="1">  1        2 0.18708671E-01 0.12750795E+03</pdfrwt>
<pdfrwt beam="2">  1       -2 0.20288784E-01 0.12750795E+03</pdfrwt>
<totfact> 0.58240927E+03</totfact>
</mgrwt>
</event>
<event>
 8    1  0.2964543E-004  0.9523941E+02  0.7546771E-02  0.1296188E+00
          1   -1    0    0  501    0  0.00000000000E+00  0.00000000000E+00  0.74185374339E+02  0.74185374339E+02  0.00000000000E+00 0. -1.
         -1   -1    0    0    0  501 -0.00000000000E+00 -0.00000000000E+00 -0.13171401472E+03  0.13171401472E+03  0.00000000000E+00 0.  1.
         23    2    1    2    0    0  0.20884955898E+02 -0.34027997827E+02 -0.68735886239E+02  0.11000284106E+03  0.76038917444E+02 0.  0.
         23    2    1    2    0    0 -0.20884955898E+02  0.34027997827E+02  0.11207245861E+02  0.95896547992E+02  0.86466522643E+02 0.  0.
          5    1    4    4  502    0  0.75346852098E+01  0.56951568815E+02  0.82080656425E+00  0.57645610372E+02  0.47000000000E+01 0. -1.
         -5    1    3    3    0  503 -0.20998077606E+02 -0.27828138285E+02 -0.54918456550E+02  0.65218489812E+02  0.47000000000E+01 0.  1.
          5    1    3    3  503    0  0.41883033504E+02 -0.61998595418E+01 -0.13817429690E+02  0.44784351252E+02  0.47000000000E+01 0. -1.
         -5    1    4    4    0  502 -0.28419641108E+02 -0.22923570988E+02  0.10386439297E+02  0.38250937620E+02  0.47000000000E+01 0.  1.
<mgrwt>
<rscale>  0 0.92809015E+02</rscale>
<asrwt>0</asrwt>
<pdfrwt beam="1">  1        1 0.11413135E-01 0.95239412E+02</pdfrwt>
<pdfrwt beam="2">  1       -1 0.20263694E-01 0.95239412E+02</pdfrwt>
<totfact> 0.96473632E+03</totfact>
</mgrwt>
</event>
<event>
 8    1  0.2964543E-004  0.2454738E+03  0.7546771E-02  0.1116289E+00
         -1   -1    0    0    0  501 -0.00000000000E+00  0.00000000000E+00  0.26276792197E+03  0.26276792197E+03  0.00000000000E+00 0.  1.
          1   -1    0    0  501    0  0.00000000000E+00 -0.00000000000E+00 -0.22938594220E+03  0.22938594220E+03  0.00000000000E+00 0. -1.
         23    2    1    2    0    0 -0.22447807785E+03  0.36927545473E+02  0.29151972887E+02  0.24719874752E+03  0.92213514195E+02 0.  0.
         23    2    1    2    0    0  0.22447807785E+03 -0.36927545473E+02  0.42300068771E+01  0.24495511666E+03  0.90725217934E+02 0.  0.
          5    1    3    3  502    0 -0.19688777693E+02 -0.17003907091E+02 -0.15604675329E+02  0.30698154921E+02  0.47000000000E+01 0. -1.
         -5    1    3    3    0  502 -0.20478930016E+03  0.53931452564E+02  0.44756648216E+02  0.21650059259E+03  0.47000000000E+01 0.  1.
          5    1    4    4  503    0  0.63245817051E+02 -0.50622700364E+02 -0.12917439792E+02  0.82168372366E+02  0.47000000000E+01 0. -1.
         -5    1    4    4    0  503  0.16123226080E+03  0.13695154891E+02  0.17147446669E+02  0.16278674429E+03  0.47000000000E+01 0.  1.
<mgrwt>
<rscale>  0 0.24533487E+03</rscale>
<asrwt>0</asrwt>
<pdfrwt beam="1">  1        1 0.35290145E-01 0.24547379E+03</pdfrwt>
<pdfrwt beam="2">  1       -1 0.40425834E-01 0.24547379E+03</pdfrwt>
<totfact> 0.74783030E+02</totfact>
</mgrwt>
</event>
<event>
 8    1  0.2964543E-004  0.1086882E+03  0.7546771E-02  0.1268777E+00
          1   -1    0    0  501    0  0.00000000000E+00  0.00000000000E+00  0.60451030030E+03  0.60451030030E+03  0.00000000000E+00 0. -1.
         -1   -1    0    0    0  501 -0.00000000000E+00 -0.00000000000E+00 -0.17984942426E+02  0.17984942426E+02  0.00000000000E+00 0.  1.
         23    2    1    2    0    0  0.15402095487E+02  0.30897521762E+02  0.32700154479E+03  0.34113117015E+03  0.90821712990E+02 0.  0.
         23    2    1    2    0    0 -0.15402095487E+02 -0.30897521762E+02  0.25952381308E+03  0.28136407258E+03  0.10305945074E+03 0.  0.
          5    1    3    3  502    0 -0.15170292420E+02  0.53750670392E+02  0.15333684897E+03  0.16325915470E+03  0.47000000000E+01 0. -1.
         -5    1    3    3    0  502  0.30572387907E+02 -0.22853148630E+02  0.17366469582E+03  0.17787201545E+03  0.47000000000E+01 0.  1.
          5    1    4    4  503    0 -0.42116415270E+02 -0.37708167700E+02  0.24154627041E+03  0.24811769202E+03  0.47000000000E+01 0. -1.
         -5    1    4    4    0  503  0.26714319783E+02  0.68106459384E+01  0.17977542668E+02  0.33246380554E+02  0.47000000000E+01 0.  1.
<mgrwt>
<rscale>  0 0.10568444E+03</rscale>
<asrwt>0</asrwt>
<pdfrwt beam="1">  1        1 0.93001569E-01 0.10868823E+03</pdfrwt>
<pdfrwt beam="2">  1       -1 0.27669147E-02 0.10868823E+03</pdfrwt>
<totfact> 0.13811004E+04</totfact>
</mgrwt>
</event>
<event>
 8    1  0.2964543E-004  0.1245288E+03  0.7546771E-02  0.1239679E+00
          2   -1    0    0  501    0  0.00000000000E+00  0.00000000000E+00  0.21363862794E+03  0.21363862794E+03  0.00000000000E+00 0. -1.
         -2   -1    0    0    0  501 -0.00000000000E+00 -0.00000000000E+00 -0.70900074254E+02  0.70900074254E+02  0.00000000000E+00 0.  1.
         23    2    1    2    0    0  0.58513968895E+02 -0.38894368142E+02  0.10658632962E+03  0.16391480015E+03  0.10281419949E+03 0.  0.
         23    2    1    2    0    0 -0.58513968895E+02  0.38894368142E+02  0.36152224069E+02  0.12062390205E+03  0.91139925448E+02 0.  0.
          5    1    4    4  502    0 -0.57768306367E+02  0.62195015473E+02  0.43811087538E+02  0.95639419496E+02  0.47000000000E+01 0. -1.
         -5    1    3    3    0  503  0.44769398013E+02 -0.72715270140E+02  0.59659870304E+02  0.10427463562E+03  0.47000000000E+01 0.  1.
          5    1    3    3  503    0  0.13744570882E+02  0.33820901998E+02  0.46926459314E+02  0.59640164524E+02  0.47000000000E+01 0. -1.
         -5    1    4    4    0  502 -0.74566252798E+00 -0.23300647331E+02 -0.76588634689E+01  0.24984482550E+02  0.47000000000E+01 0.  1.
<mgrwt>
<rscale>  0 0.12209593E+03</rscale>
<asrwt>0</asrwt>
<pdfrwt beam="1">  1        2 0.32867481E-01 0.12452878E+03</pdfrwt>
<pdfrwt beam="2">  1       -2 0.10907704E-01 0.12452878E+03</pdfrwt>
<totfact> 0.85989075E+03</totfact>
</mgrwt>
</event>
<event>
 8    1  0.2964543E-004  0.1069791E+03  0.7546771E-02  0.1266300E+00
          1   -1    0    0  501    0  0.00000000000E+00  0.00000000000E+00  0.21376460279E+03  0.21376460279E+03  0.00000000000E+00 0. -1.
         -1   -1    0    0    0  501 -0.00000000000E+00 -0.00000000000E+00 -0.53516565794E+02  0.53516565794E+02  0.00000000000E+00 0.  1.
         23    2    1    2    0    0 -0.17088332045E+02 -0.52068635757E+02  0.82118277171E+02  0.13486265722E+03  0.91876933702E+02 0.  0.
         23    2    1    2    0    0  0.17088332045E+02  0.52068635757E+02  0.78129759828E+02  0.13241851136E+03  0.91800048253E+02 0.  0.
          5    1    3    3  502    0  0.12331278798E+02 -0.68745157019E+02  0.39924765423E+02  0.80585569083E+02  0.47000000000E+01 0. -1.
         -5    1    4    4    0  503  0.23035448186E+02 -0.22153448102E+02  0.23950892756E+02  0.40213709102E+02  0.47000000000E+01 0.  1.
          5    1    4    4  503    0 -0.59471161415E+01  0.74222083859E+02  0.54178867072E+02  0.92204802261E+02  0.47000000000E+01 0. -1.
         -5    1    3    3    0  502 -0.29419610843E+02  0.16676521262E+02  0.42193511748E+02  0.54277088142E+02  0.47000000000E+01 0.  1.
<mgrwt>
<rscale>  0 0.10696258E+03</rscale>
<asrwt>0</asrwt>
<pdfrwt beam="1">  1        1 0.32886862E-01 0.10697909E+03</pdfrwt>
<pdfrwt beam="2">  1       -1 0.82333179E-02 0.10697909E+03</pdfrwt>
<totfact> 0.10255511E+04</totfact>
</mgrwt>
</event>
<event>
 8    1  0.2964543E-004  0.1245961E+03  0.7546771E-02  0.1237394E+00
         -1   -1    0    0    0  501 -0.00000000000E+00  0.00000000000E+00  0.32315336646E+03  0.32315336646E+03  0.00000000000E+00 0.  1.
          1   -1    0    0  501    0  0.00000000000E+00 -0.00000000000E+00 -0.51206100395E+02  0.51206100395E+02  0.00000000000E+00 0. -1.
         23    2    1    2    0    0 -0.63421153309E+02 -0.52683467371E+02  0.19530990681E+03  0.23166817943E+03  0.93415176719E+02 0.  0.
         23    2    1    2    0    0  0.63421153309E+02  0.52683467371E+02  0.76637359256E+02  0.14269128742E+03  0.87691095625E+02 0.  0.
          5    1    3    3  502    0 -0.57803393598E+01 -0.58615724664E+02  0.59101833071E+02  0.83572317028E+02  0.47000000000E+01 0. -1.
         -5    1    3    3    0  502 -0.57640813949E+02  0.59322572936E+01  0.13620807374E+03  0.14809586240E+03  0.47000000000E+01 0.  1.
          5    1    4    4  503    0  0.47215807028E+02  0.74952188610E+02  0.72252423852E+02  0.11441007719E+03  0.47000000000E+01 0. -1.
         -5    1    4    4    0  503  0.16205346281E+02 -0.22268721239E+02  0.43849354048E+01  0.28281210233E+02  0.47000000000E+01 0.  1.
<mgrwt>
<rscale>  0 0.12352435E+03</rscale>
<asrwt>0</asrwt>
<pdfrwt beam="1">  1        1 0.78778618E-02 0.12459609E+03</pdfrwt>
<pdfrwt beam="2">  1       -1 0.49715901E-01 0.12459609E+03</pdfrwt>
<totfact> 0.35244232E+03</totfact>
</mgrwt>
</event>
<event>
 8    1  0.2964543E-004  0.1063071E+03  0.7546771E-02  0.1268982E+00
         -1   -1    0    0    0  501 -0.00000000000E+00  0.00000000000E+00  0.76975650639E+02  0.76975650639E+02  0.00000000000E+00 0.  1.
          1   -1    0    0  501    0  0.00000000000E+00 -0.00000000000E+00 -0.14445744303E+03  0.14445744303E+03  0.00000000000E+00 0. -1.
         23    2    1    2    0    0 -0.53967695677E+02 -0.26174919925E+02 -0.22573682662E+02  0.10867734636E+03  0.87769902894E+02 0.  0.
         23    2    1    2    0    0  0.53967695677E+02  0.26174919925E+02 -0.44908109725E+02  0.11275574730E+03  0.84258421661E+02 0.  0.
          5    1    3    3  502    0  0.21545397236E+00 -0.41410332810E+02 -0.30498135705E+02  0.51643860868E+02  0.47000000000E+01 0. -1.
         -5    1    3    3    0  502 -0.54183149649E+02  0.15235412886E+02  0.79244530439E+01  0.57033485495E+02  0.47000000000E+01 0.  1.
          5    1    4    4  503    0  0.31115736577E+02 -0.15843339041E+02 -0.53375356636E+02  0.63954821168E+02  0.47000000000E+01 0. -1.
         -5    1    4    4    0  503  0.22851959100E+02  0.42018258966E+02  0.84672469104E+01  0.48800926133E+02  0.47000000000E+01 0.  1.
<mgrwt>
<rscale>  0 0.10557959E+03</rscale>
<asrwt>0</asrwt>
<pdfrwt beam="1">  1        1 0.22224222E-01 0.10630708E+03</pdfrwt>
<pdfrwt beam="2">  1       -1 0.11842408E-01 0.10630708E+03</pdfrwt>
<totfact> 0.96089096E+03</totfact>
</mgrwt>
</event>
<event>
 8    1  0.2964543E-004  0.1009153E+03  0.7546771E-02  0.1281019E+00
         -1   -1    0    0    0  501 -0.00000000000E+00  0.00000000000E+00  0.17895071558E+02  0.17895071558E+02  0.00000000000E+00 0.  1.
          1   -1    0    0  501    0  0.00000000000E+00 -0.00000000000E+00 -0.70784913669E+03  0.70784913669E+03  0.00000000000E+00 0. -1.
         23    2    1    2    0    0  0.23899919157E+01  0.42292951412E+02 -0.16252372792E+03  0.18874638524E+03  0.86121019540E+02 0.  0.
         23    2    1    2    0    0 -0.23899919157E+01 -0.42292951412E+02 -0.52743033722E+03  0.53699782301E+03  0.91594189189E+02 0.  0.
          5    1    3    3  502    0 -0.30842162856E+02 -0.35581486548E+01 -0.97306110150E+02  0.10224709533E+03  0.47000000000E+01 0. -1.
         -5    1    3    3    0  502  0.33232154772E+02  0.45851100067E+02 -0.65217617765E+02  0.86499289911E+02  0.47000000000E+01 0.  1.
          5    1    4    4  503    0 -0.28279131892E+02  0.13674460603E+02 -0.28656300924E+03  0.28831779071E+03  0.47000000000E+01 0. -1.
         -5    1    4    4    0  503  0.25889139976E+02 -0.55967412015E+02 -0.24086732798E+03  0.24868003230E+03  0.47000000000E+01 0.  1.
<mgrwt>
<rscale>  0 0.99656942E+02</rscale>
<asrwt>0</asrwt>
<pdfrwt beam="1">  1        1 0.10889985E+00 0.10091532E+03</pdfrwt>
<pdfrwt beam="2">  1       -1 0.27530883E-02 0.10091532E+03</pdfrwt>
<totfact> 0.11116497E+04</totfact>
</mgrwt>
</event>
<event>
 8    1  0.2964543E-004  0.9704488E+02  0.7546771E-02  0.1288062E+00
         -2   -1    0    0    0  501 -0.00000000000E+00  0.00000000000E+00  0.27504182050E+03  0.27504182050E+03  0.00000000000E+00 0. -1.
          2   -1    0    0  501    0  0.00000000000E+00 -0.00000000000E+00 -0.44942030831E+02  0.44942030831E+02  0.00000000000E+00 0.  1.
         23    2    1    2    0    0 -0.33069614816E+02  0.11908112871E+02  0.34912478575E+02  0.10313384260E+03  0.90456098480E+02 0.  0.
         23    2    1    2    0    0  0.33069614816E+02 -0.11908112871E+02  0.19518731109E+03  0.21685000873E+03  0.87695138403E+02 0.  0.
          5    1    3    3  502    0 -0.40560960461E+02 -0.68610331686E+01  0.58531494656E+02  0.71695823841E+02  0.47000000000E+01 0. -1.
         -5    1    4    4    0  503  0.39268131952E+02  0.18939348033E+02  0.43149738553E+02  0.61519712516E+02  0.47000000000E+01 0.  1.
          5    1    4    4  503    0 -0.61985171362E+01 -0.30847460904E+02  0.15203757254E+03  0.15533029622E+03  0.47000000000E+01 0. -1.
         -5    1    3    3    0  502  0.74913456452E+01  0.18769146039E+02 -0.23619016081E+02  0.31438018755E+02  0.47000000000E+01 0.  1.
<mgrwt>
<rscale>  0 0.96396352E+02</rscale>
<asrwt>0</asrwt>
<pdfrwt beam="1">  1        2 0.69141588E-02 0.97044878E+02</pdfrwt>
<pdfrwt beam="2">  1       -2 0.42314125E-01 0.97044878E+02</pdfrwt>
<totfact> 0.50667903E+03</totfact>
</mgrwt>
</event>
<event>
 8    1  0.2964543E-004  0.1196033E+03  0.7546771E-02  0.1243919E+00
         -1   -1    0    0    0  501 -0.00000000000E+00  0.00000000000E+00  0.67399951928E+02  0.67399951928E+02  0.00000000000E+00 0.  1.
          1   -1    0    0  501    0  0.00000000000E+00 -0.00000000000E+00 -0.76414892558E+03  0.76414892558E+03  0.00000000000E+00 0. -1.
         23    2    1    2    0    0  0.50439445947E+02 -0.60891631585E+02  0.53629699892E+01  0.11932269068E+03  0.89203220563E+02 0.  0.
         23    2    1    2    0    0 -0.50439445947E+02  0.60891631585E+02 -0.70211194364E+03  0.71222618683E+03  0.89738683414E+02 0.  0.
          5    1    4    4  502    0  0.24642213768E+02  0.13143396158E+02 -0.23419383958E+03  0.23590004675E+03  0.47000000000E+01 0. -1.
         -5    1    4    4    0  502 -0.75081659715E+02  0.47748235427E+02 -0.46791810406E+03  0.47632614008E+03  0.47000000000E+01 0.  1.
          5    1    3    3  503    0  0.47988621350E+02 -0.66723614021E+01 -0.27292994814E+02  0.55807040341E+02  0.47000000000E+01 0. -1.
         -5    1    3    3    0  503  0.24508245967E+01 -0.54219270183E+02  0.32655964803E+02  0.63515650336E+02  0.47000000000E+01 0.  1.
<mgrwt>
<rscale>  0 0.11950291E+03</rscale>
<asrwt>0</asrwt>
<pdfrwt beam="1">  1        1 0.11756138E+00 0.11960334E+03</pdfrwt>
<pdfrwt beam="2">  1       -1 0.10369223E-01 0.11960334E+03</pdfrwt>
<totfact> 0.14141321E+03</totfact>
</mgrwt>
</event>
<event>
 8    1  0.2964543E-004  0.2558104E+03  0.7546771E-02  0.1109718E+00
         -2   -1    0    0    0  501 -0.00000000000E+00  0.00000000000E+00  0.16623649445E+03  0.16623649445E+03  0.00000000000E+00 0.  1.
          2   -1    0    0  501    0  0.00000000000E+00 -0.00000000000E+00 -0.46448068519E+03  0.46448068519E+03  0.00000000000E+00 0. -1.
         23    2    1    2    0    0 -0.21747640951E+03 -0.97801113483E+02 -0.25751356464E+02  0.25710332001E+03  0.92617159913E+02 0.  0.
         23    2    1    2    0    0  0.21747640951E+03  0.97801113483E+02 -0.27249283428E+03  0.37361385963E+03  0.92053923785E+02 0.  0.
          5    1    3    3  502    0 -0.76027287660E+02 -0.84337323776E+02 -0.11418952118E+02  0.11421652734E+03  0.47000000000E+01 0. -1.
         -5    1    3    3    0  502 -0.14144912185E+03 -0.13463789706E+02 -0.14332404346E+02  0.14288679267E+03  0.47000000000E+01 0.  1.
          5    1    4    4  503    0  0.15616880422E+03  0.11223654381E+03 -0.20123437033E+03  0.27839378402E+03  0.47000000000E+01 0. -1.
         -5    1    4    4    0  503  0.61307605290E+02 -0.14435430331E+02 -0.71258463951E+02  0.95220075614E+02  0.47000000000E+01 0.  1.
<mgrwt>
<rscale>  0 0.25575959E+03</rscale>
<asrwt>0</asrwt>
<pdfrwt beam="1">  1        2 0.71458564E-01 0.25581045E+03</pdfrwt>
<pdfrwt beam="2">  1       -2 0.25574846E-01 0.25581045E+03</pdfrwt>
<totfact> 0.92488065E+02</totfact>
</mgrwt>
</event>
<event>
 8    1  0.2964543E-004  0.1086633E+03  0.7546771E-02  0.1266909E+00
          1   -1    0    0  501    0  0.00000000000E+00  0.00000000000E+00  0.90552241677E+02  0.90552241677E+02  0.00000000000E+00 0. -1.
         -1   -1    0    0    0  501 -0.00000000000E+00 -0.00000000000E+00 -0.21960949035E+03  0.21960949035E+03  0.00000000000E+00 0.  1.
         23    2    1    2    0    0 -0.27620417809E+02  0.30301293946E+02 -0.16965930279E+03  0.20147451887E+03  0.10063124184E+03 0.  0.
         23    2    1    2    0    0  0.27620417809E+02 -0.30301293946E+02  0.40602054114E+02  0.10868721316E+03  0.92104981474E+02 0.  0.
          5    1    4    4  502    0  0.25174213801E+02  0.11022295417E+02  0.57363459897E+02  0.63780001318E+02  0.47000000000E+01 0. -1.
         -5    1    4    4    0  502  0.24462040079E+01 -0.41323589363E+02 -0.16761405784E+02  0.44907211846E+02  0.47000000000E+01 0.  1.
          5    1    3    3  503    0  0.21655941292E+02  0.49714381337E+02 -0.99857664676E+02  0.11372837245E+03  0.47000000000E+01 0. -1.
         -5    1    3    3    0  503 -0.49276359100E+02 -0.19413087390E+02 -0.69801638113E+02  0.87746146420E+02  0.47000000000E+01 0.  1.
<mgrwt>
<rscale>  0 0.10664664E+03</rscale>
<asrwt>0</asrwt>
<pdfrwt beam="1">  1        1 0.13931114E-01 0.10866325E+03</pdfrwt>
<pdfrwt beam="2">  1       -1 0.33786075E-01 0.10866325E+03</pdfrwt>
<totfact> 0.32519754E+03</totfact>
</mgrwt>
</event>
<event>
 8    1  0.2964543E-004  0.1008262E+03  0.7546771E-02  0.1279114E+00
          1   -1    0    0  501    0  0.00000000000E+00  0.00000000000E+00  0.57857293198E+02  0.57857293198E+02  0.00000000000E+00 0. -1.
         -1   -1    0    0    0  501 -0.00000000000E+00 -0.00000000000E+00 -0.48647168888E+03  0.48647168888E+03  0.00000000000E+00 0.  1.
         23    2    1    2    0    0 -0.22087896999E+02 -0.31574987559E+02 -0.43286801765E+03  0.44445544094E+03  0.93172223562E+02 0.  0.
         23    2    1    2    0    0  0.22087896999E+02  0.31574987559E+02  0.42536219618E+01  0.99873541144E+02  0.92042250557E+02 0.  0.
          5    1    3    3  502    0  0.21021942306E+02 -0.73712239241E+01 -0.25965153140E+02  0.34533117121E+02  0.47000000000E+01 0. -1.
         -5    1    3    3    0  502 -0.43109839305E+02 -0.24203763635E+02 -0.40690286451E+03  0.40992232382E+03  0.47000000000E+01 0.  1.
          5    1    4    4  503    0  0.14749568499E+02 -0.13740313029E+02 -0.34086367785E+02  0.39878771819E+02  0.47000000000E+01 0. -1.
         -5    1    4    4    0  503  0.73383285003E+01  0.45315300588E+02  0.38339989747E+02  0.59994769325E+02  0.47000000000E+01 0.  1.
<mgrwt>
<rscale>  0 0.10056435E+03</rscale>
<asrwt>0</asrwt>
<pdfrwt beam="1">  1        1 0.89011222E-02 0.10082618E+03</pdfrwt>
<pdfrwt beam="2">  1       -1 0.74841797E-01 0.10082618E+03</pdfrwt>
<totfact> 0.13624168E+03</totfact>
</mgrwt>
</event>
<event>
 8    1  0.2964543E-004  0.1026316E+03  0.7546771E-02  0.1274994E+00
         -3   -1    0    0    0  501 -0.00000000000E+00  0.00000000000E+00  0.43545819207E+02  0.43545819207E+02  0.00000000000E+00 0.  1.
          3   -1    0    0  501    0  0.00000000000E+00 -0.00000000000E+00 -0.25848695382E+03  0.25848695382E+03  0.00000000000E+00 0. -1.
         23    2    1    2    0    0 -0.44696475008E+02 -0.22373782753E+02 -0.14658974468E+03  0.17894635950E+03  0.89637521730E+02 0.  0.
         23    2    1    2    0    0  0.44696475008E+02  0.22373782753E+02 -0.68351389934E+02  0.12308641352E+03  0.89330799030E+02 0.  0.
          5    1    3    3  502    0 -0.50156829704E+01 -0.52244566952E+02 -0.78025329492E+02  0.94152503386E+02  0.47000000000E+01 0. -1.
         -5    1    4    4    0  503 -0.15378211937E+02 -0.19626383027E+02 -0.45141869524E+01  0.25771150478E+02  0.47000000000E+01 0.  1.
          5    1    4    4  503    0  0.60074686945E+02  0.42000165780E+02 -0.63837202982E+02  0.97315263045E+02  0.47000000000E+01 0. -1.
         -5    1    3    3    0  502 -0.39680792037E+02  0.29870784199E+02 -0.68564415187E+02  0.84793856117E+02  0.47000000000E+01 0.  1.
<mgrwt>
<rscale>  0 0.10256459E+03</rscale>
<asrwt>0</asrwt>
<pdfrwt beam="1">  1        3 0.39767222E-01 0.10263160E+03</pdfrwt>
<pdfrwt beam="2">  1       -3 0.66993570E-02 0.10263160E+03</pdfrwt>
<totfact> 0.19495703E+03</totfact>
</mgrwt>
</event>
<event>
 8    1  0.2964543E-004  0.9915003E+02  0.7546771E-02  0.1289708E+00
         -1   -1    0    0    0  501 -0.00000000000E+00  0.00000000000E+00  0.21522575668E+03  0.21522575668E+03  0.00000000000E+00 0.  1.
          1   -1    0    0  501    0  0.00000000000E+00 -0.00000000000E+00 -0.53621950708E+02  0.53621950708E+02  0.00000000000E+00 0. -1.
         23    2    1    2    0    0  0.24889471739E+02  0.17083308731E+02  0.16911236470E+02  0.10058190231E+03  0.94442595862E+02 0.  0.
         23    2    1    2    0    0 -0.24889471739E+02 -0.17083308731E+02  0.14469256950E+03  0.16826580507E+03  0.80412164801E+02 0.  0.
          5    1    4    4  502    0  0.25869443114E+02 -0.54448400992E+01  0.83839427529E+02  0.88034163704E+02  0.47000000000E+01 0. -1.
         -5    1    3    3    0  503 -0.13099488603E+02  0.31894863060E+02  0.40376704813E+02  0.53303350578E+02  0.47000000000E+01 0.  1.
          5    1    3    3  503    0  0.37988960342E+02 -0.14811554329E+02 -0.23465468343E+02  0.47278551734E+02  0.47000000000E+01 0. -1.
         -5    1    4    4    0  502 -0.50758914853E+02 -0.11638468632E+02  0.60853141972E+02  0.80231641370E+02  0.47000000000E+01 0.  1.
<mgrwt>
<rscale>  0 0.95655043E+02</rscale>
<asrwt>0</asrwt>
<pdfrwt beam="1">  1        1 0.82495310E-02 0.99150034E+02</pdfrwt>
<pdfrwt beam="2">  1       -1 0.33111654E-01 0.99150034E+02</pdfrwt>
<totfact> 0.66401259E+03</totfact>
</mgrwt>
</event>
<event>
 8    1  0.2964543E-004  0.1011113E+03  0.7546771E-02  0.1279210E+00
          1   -1    0    0  501    0  0.00000000000E+00  0.00000000000E+00  0.97384438632E+03  0.97384438632E+03  0.00000000000E+00 0. -1.
         -1   -1    0    0    0  501 -0.00000000000E+00 -0.00000000000E+00 -0.15883187430E+02  0.15883187430E+02  0.00000000000E+00 0.  1.
         23    2    1    2    0    0 -0.34890650611E+02 -0.27386780382E+02  0.77717590680E+03  0.78372564097E+03  0.90863067136E+02 0.  0.
         23    2    1    2    0    0  0.34890650611E+02  0.27386780382E+02  0.18078529209E+03  0.20600193278E+03  0.88238773973E+02 0.  0.
          5    1    4    4  502    0 -0.15962105756E+02 -0.19467208132E+02  0.26435604698E+02  0.36806143623E+02  0.47000000000E+01 0. -1.
         -5    1    4    4    0  502  0.50852756366E+02  0.46853988514E+02  0.15434968740E+03  0.16919578916E+03  0.47000000000E+01 0.  1.
          5    1    3    3  503    0 -0.53421738289E+02 -0.48086180041E+02  0.60273552486E+03  0.60702418878E+03  0.47000000000E+01 0. -1.
         -5    1    3    3    0  503  0.18531087679E+02  0.20699399660E+02  0.17444038194E+03  0.17670145219E+03  0.47000000000E+01 0.  1.
<mgrwt>
<rscale>  0 0.10051818E+03</rscale>
<asrwt>0</asrwt>
<pdfrwt beam="1">  1        1 0.14982217E+00 0.10111128E+03</pdfrwt>
<pdfrwt beam="2">  1       -1 0.24435681E-02 0.10111128E+03</pdfrwt>
<totfact> 0.81310114E+03</totfact>
</mgrwt>
</event>
<event>
 8    1  0.2964543E-004  0.9734021E+02  0.7546771E-02  0.1287352E+00
          1   -1    0    0  501    0  0.00000000000E+00  0.00000000000E+00  0.11997066187E+03  0.11997066187E+03  0.00000000000E+00 0. -1.
         -1   -1    0    0    0  501 -0.00000000000E+00 -0.00000000000E+00 -0.95418030179E+02  0.95418030179E+02  0.00000000000E+00 0.  1.
         23    2    1    2    0    0 -0.27944849703E+02  0.26367966953E+01 -0.35171518873E+02  0.10118672179E+03  0.90630290770E+02 0.  0.
         23    2    1    2    0    0  0.27944849703E+02 -0.26367966953E+01  0.59724150562E+02  0.11420197026E+03  0.93205410404E+02 0.  0.
          5    1    4    4  502    0 -0.14202581368E+02 -0.36401909939E+02  0.41046602772E+02  0.56865859387E+02  0.47000000000E+01 0. -1.
         -5    1    3    3    0  503  0.21887549627E+02  0.26431983820E+02 -0.29459142531E+02  0.45471372049E+02  0.47000000000E+01 0.  1.
          5    1    3    3  503    0 -0.49832399330E+02 -0.23795187125E+02 -0.57123763412E+01  0.55715349741E+02  0.47000000000E+01 0. -1.
         -5    1    4    4    0  502  0.42147431071E+02  0.33765113244E+02  0.18677547790E+02  0.57336110870E+02  0.47000000000E+01 0.  1.
<mgrwt>
<rscale>  0 0.96718570E+02</rscale>
<asrwt>0</asrwt>
<pdfrwt beam="1">  1        1 0.18457025E-01 0.97340207E+02</pdfrwt>
<pdfrwt beam="2">  1       -1 0.14679697E-01 0.97340207E+02</pdfrwt>
<totfact> 0.86533383E+03</totfact>
</mgrwt>
</event>
<event>
 8    1  0.2964543E-004  0.9537098E+02  0.7546771E-02  0.1290903E+00
         -1   -1    0    0    0  501 -0.00000000000E+00  0.00000000000E+00  0.92961848025E+02  0.92961848025E+02  0.00000000000E+00 0.  1.
          1   -1    0    0  501    0  0.00000000000E+00 -0.00000000000E+00 -0.39401257228E+03  0.39401257228E+03  0.00000000000E+00 0. -1.
         23    2    1    2    0    0  0.22614047340E+02  0.55405161927E+01  0.60744017448E+02  0.11307280394E+03  0.92485300878E+02 0.  0.
         23    2    1    2    0    0 -0.22614047340E+02 -0.55405161927E+01 -0.36179474171E+03  0.37390161637E+03  0.91459778806E+02 0.  0.
          5    1    4    4  502    0  0.35183532654E+02 -0.77174819399E+01 -0.14325777070E+03  0.14779147257E+03  0.47000000000E+01 0. -1.
         -5    1    4    4    0  502 -0.57797579994E+02  0.21769657472E+01 -0.21853697100E+03  0.22611014380E+03  0.47000000000E+01 0.  1.
          5    1    3    3  503    0 -0.30615271579E+02  0.23202424188E+02  0.29821781924E+02  0.48857711972E+02  0.47000000000E+01 0. -1.
         -5    1    3    3    0  503  0.53229318919E+02 -0.17661907996E+02  0.30922235525E+02  0.64215091968E+02  0.47000000000E+01 0.  1.
<mgrwt>
<rscale>  0 0.95121460E+02</rscale>
<asrwt>0</asrwt>
<pdfrwt beam="1">  1        1 0.60617319E-01 0.95370977E+02</pdfrwt>
<pdfrwt beam="2">  1       -1 0.14301823E-01 0.95370977E+02</pdfrwt>
<totfact> 0.20718025E+03</totfact>
</mgrwt>
</event>
<event>
 8    1  0.2964543E-004  0.9247616E+02  0.7546771E-02  0.1299111E+00
         -1   -1    0    0    0  501 -0.00000000000E+00  0.00000000000E+00  0.15017152143E+02  0.15017152143E+02  0.00000000000E+00 0.  1.
          1   -1    0    0  501    0  0.00000000000E+00 -0.00000000000E+00 -0.59884277922E+03  0.59884277922E+03  0.00000000000E+00 0. -1.
         23    2    1    2    0    0 -0.14743501110E+02  0.10714417605E+02 -0.37645705265E+03  0.38680582934E+03  0.86986594080E+02 0.  0.
         23    2    1    2    0    0  0.14743501110E+02 -0.10714417605E+02 -0.20736857442E+03  0.22705410202E+03  0.90662395830E+02 0.  0.
          5    1    4    4  502    0  0.16177317015E+02  0.38840214406E+02 -0.85623206476E+02  0.95518015726E+02  0.47000000000E+01 0. -1.
         -5    1    3    3    0  503  0.65598067263E+01 -0.35565786975E+02 -0.18931060036E+03  0.19279146681E+03  0.47000000000E+01 0.  1.
          5    1    3    3  503    0 -0.21303307837E+02  0.46280204580E+02 -0.18714645230E+03  0.19401436253E+03  0.47000000000E+01 0. -1.
         -5    1    4    4    0  502 -0.14338159043E+01 -0.49554632012E+02 -0.12174536795E+03  0.13153608630E+03  0.47000000000E+01 0.  1.
<mgrwt>
<rscale>  0 0.91562517E+02</rscale>
<asrwt>0</asrwt>
<pdfrwt beam="1">  1        1 0.92129657E-01 0.92476157E+02</pdfrwt>
<pdfrwt beam="2">  1       -1 0.23103311E-02 0.92476157E+02</pdfrwt>
<totfact> 0.17872090E+04</totfact>
</mgrwt>
</event>
<event>
 8    1  0.4490096E-004  0.1356816E+03  0.7546771E-02  0.1221393E+00
         -1   -1    0    0    0  501 -0.00000000000E+00  0.00000000000E+00  0.87935132365E+02  0.87935132365E+02  0.00000000000E+00 0.  1.
          1   -1    0    0  501    0  0.00000000000E+00 -0.00000000000E+00 -0.63216738219E+03  0.63216738219E+03  0.00000000000E+00 0. -1.
         23    2    1    2    0    0  0.81158250083E+02 -0.44920439787E+02 -0.57161853086E+03  0.58750084252E+03  0.99020137752E+02 0.  0.
         23    2    1    2    0    0 -0.81158250083E+02  0.44920439787E+02  0.27386281030E+02  0.13260167203E+03  0.90712113689E+02 0.  0.
          5    1    4    4  502    0  0.10224740876E+02  0.20975629933E+02 -0.15855609450E+02  0.28600921805E+02  0.47000000000E+01 0. -1.
         -5    1    3    3    0  503 -0.67233384053E+01  0.22762989277E+02 -0.12213617202E+03  0.12450980474E+03  0.47000000000E+01 0.  1.
          5    1    3    3  503    0  0.87881588488E+02 -0.67683429064E+02 -0.44948235884E+03  0.46299103779E+03  0.47000000000E+01 0. -1.
         -5    1    4    4    0  502 -0.91382990959E+02  0.23944809853E+02  0.43241890480E+02  0.10400075023E+03  0.47000000000E+01 0.  1.
<mgrwt>
<rscale>  0 0.13417189E+03</rscale>
<asrwt>0</asrwt>
<pdfrwt beam="1">  1        1 0.97256522E-01 0.13568159E+03</pdfrwt>
<pdfrwt beam="2">  1       -1 0.13528482E-01 0.13568159E+03</pdfrwt>
<totfact> 0.12321340E+03</totfact>
</mgrwt>
</event>
<event>
 8    1  0.2964543E-004  0.1065934E+03  0.7546771E-02  0.1268148E+00
         -3   -1    0    0    0  501 -0.00000000000E+00  0.00000000000E+00  0.65518500548E+02  0.65518500548E+02  0.00000000000E+00 0.  1.
          3   -1    0    0  501    0  0.00000000000E+00 -0.00000000000E+00 -0.18772081539E+03  0.18772081539E+03  0.00000000000E+00 0. -1.
         23    2    1    2    0    0  0.51549590497E+02  0.73134826343E+01 -0.22432828637E+02  0.10892832041E+03  0.93012364112E+02 0.  0.
         23    2    1    2    0    0 -0.51549590497E+02 -0.73134826343E+01 -0.99769486205E+02  0.14431099553E+03  0.90337510174E+02 0.  0.
          5    1    4    4  502    0 -0.41977163578E+02  0.19195937791E+02 -0.10542490420E+03  0.11518275355E+03  0.47000000000E+01 0. -1.
         -5    1    3    3    0  503  0.70240019551E+02 -0.19718443997E+02 -0.19115814021E+02  0.75564421032E+02  0.47000000000E+01 0.  1.
          5    1    3    3  503    0 -0.18690429054E+02  0.27031926632E+02 -0.33170146163E+01  0.33363899377E+02  0.47000000000E+01 0. -1.
         -5    1    4    4    0  502 -0.95724269188E+01 -0.26509420426E+02  0.56554179903E+01  0.29128241984E+02  0.47000000000E+01 0.  1.
<mgrwt>
<rscale>  0 0.10600709E+03</rscale>
<asrwt>0</asrwt>
<pdfrwt beam="1">  1        3 0.28880125E-01 0.10659337E+03</pdfrwt>
<pdfrwt beam="2">  1       -3 0.10079769E-01 0.10659337E+03</pdfrwt>
<totfact> 0.18423294E+03</totfact>
</mgrwt>
</event>
<event>
 8    1  0.2964543E-004  0.1093690E+03  0.7546771E-02  0.1270515E+00
          1   -1    0    0  501    0  0.00000000000E+00  0.00000000000E+00  0.57587496127E+03  0.57587496127E+03  0.00000000000E+00 0. -1.
         -1   -1    0    0    0  501 -0.00000000000E+00 -0.00000000000E+00 -0.31388649699E+02  0.31388649699E+02  0.00000000000E+00 0.  1.
         23    2    1    2    0    0  0.14211745069E+02  0.10196342387E+02  0.58670423844E+02  0.10928904881E+03  0.90531422505E+02 0.  0.
         23    2    1    2    0    0 -0.14211745069E+02 -0.10196342387E+02  0.48581588772E+03  0.49797456215E+03  0.10796132960E+03 0.  0.
          5    1    4    4  502    0 -0.18350023010E+02  0.43454308844E+02  0.32231919238E+03  0.32578635956E+03  0.47000000000E+01 0. -1.
         -5    1    3    3    0  503  0.36327381247E+02 -0.17550727561E+02  0.61150341157E+02  0.73410904434E+02  0.47000000000E+01 0.  1.
          5    1    3    3  503    0 -0.22115636178E+02  0.27747069949E+02 -0.24799173127E+01  0.35878144381E+02  0.47000000000E+01 0. -1.
         -5    1    4    4    0  502  0.41382779412E+01 -0.53650651231E+02  0.16349669534E+03  0.17218820259E+03  0.47000000000E+01 0.  1.
<mgrwt>
<rscale>  0 0.10479973E+03</rscale>
<asrwt>0</asrwt>
<pdfrwt beam="1">  1        1 0.88596140E-01 0.10936904E+03</pdfrwt>
<pdfrwt beam="2">  1       -1 0.48290235E-02 0.10936904E+03</pdfrwt>
<totfact> 0.65550775E+03</totfact>
</mgrwt>
</event>
<event>
 8    1  0.2964543E-004  0.1029422E+03  0.7546771E-02  0.1275819E+00
         -2   -1    0    0    0  501 -0.00000000000E+00  0.00000000000E+00  0.13769457558E+03  0.13769457558E+03  0.00000000000E+00 0.  1.
          2   -1    0    0  501    0  0.00000000000E+00 -0.00000000000E+00 -0.15506893238E+03  0.15506893238E+03  0.00000000000E+00 0. -1.
         23    2    1    2    0    0  0.30400714994E+02 -0.26470800958E+02  0.96648463273E+02  0.14120203224E+03  0.94721600921E+02 0.  0.
         23    2    1    2    0    0 -0.30400714994E+02  0.26470800958E+02 -0.11402282007E+03  0.15156147572E+03  0.91349716202E+02 0.  0.
          5    1    3    3  502    0 -0.21216199874E+02 -0.16218293049E+02 -0.41158860172E+01  0.27426094950E+02  0.47000000000E+01 0. -1.
         -5    1    4    4    0  503  0.11355716791E+02 -0.23148254119E+02 -0.83856518366E+01  0.27517324167E+02  0.47000000000E+01 0.  1.
          5    1    4    4  503    0 -0.41756431786E+02  0.49619055077E+02 -0.10563716823E+03  0.12404415155E+03  0.47000000000E+01 0. -1.
         -5    1    3    3    0  502  0.51616914869E+02 -0.10252507909E+02  0.10076434929E+03  0.11377593729E+03  0.47000000000E+01 0.  1.
<mgrwt>
<rscale>  0 0.10215982E+03</rscale>
<asrwt>0</asrwt>
<pdfrwt beam="1">  1        2 0.23856759E-01 0.10294216E+03</pdfrwt>
<pdfrwt beam="2">  1       -2 0.21183781E-01 0.10294216E+03</pdfrwt>
<totfact> 0.40661398E+03</totfact>
</mgrwt>
</event>
<event>
 8    1  0.2964543E-004  0.1034644E+03  0.7546771E-02  0.1274012E+00
         -1   -1    0    0    0  501 -0.00000000000E+00  0.00000000000E+00  0.32025766058E+02  0.32025766058E+02  0.00000000000E+00 0.  1.
          1   -1    0    0  501    0  0.00000000000E+00 -0.00000000000E+00 -0.36265681468E+03  0.36265681468E+03  0.00000000000E+00 0. -1.
         23    2    1    2    0    0 -0.24001178819E+02 -0.38945302123E+02 -0.22427605202E+03  0.24630378824E+03  0.90956118254E+02 0.  0.
         23    2    1    2    0    0  0.24001178819E+02  0.38945302123E+02 -0.10635499660E+03  0.14837879250E+03  0.92801334151E+02 0.  0.
          5    1    3    3  502    0  0.23378224070E+02 -0.22637026500E+02 -0.16635169482E+03  0.16956990505E+03  0.47000000000E+01 0. -1.
         -5    1    4    4    0  503 -0.25445384026E+02  0.18104058564E+02 -0.28648774664E+01  0.31709967322E+02  0.47000000000E+01 0.  1.
          5    1    4    4  503    0  0.49446562845E+02  0.20841243559E+02 -0.10349011914E+03  0.11666882518E+03  0.47000000000E+01 0. -1.
         -5    1    3    3    0  502 -0.47379402889E+02 -0.16308275623E+02 -0.57924357204E+02  0.76733883190E+02  0.47000000000E+01 0.  1.
<mgrwt>
<rscale>  0 0.10304895E+03</rscale>
<asrwt>0</asrwt>
<pdfrwt beam="1">  1        1 0.55793359E-01 0.10346439E+03</pdfrwt>
<pdfrwt beam="2">  1       -1 0.49270407E-02 0.10346439E+03</pdfrwt>
<totfact> 0.11439645E+04</totfact>
</mgrwt>
</event>
<event>
 8    1  0.2964543E-004  0.9478923E+02  0.7546771E-02  0.1292385E+00
         -2   -1    0    0    0  501 -0.00000000000E+00  0.00000000000E+00  0.94579011766E+02  0.94579011766E+02  0.00000000000E+00 0.  1.
          2   -1    0    0  501    0  0.00000000000E+00 -0.00000000000E+00 -0.11090200333E+03  0.11090200333E+03  0.00000000000E+00 0. -1.
         23    2    1    2    0    0  0.10745949643E+02 -0.25434192420E+02 -0.48561758770E+02  0.10535941064E+03  0.89330775313E+02 0.  0.
         23    2    1    2    0    0 -0.10745949643E+02  0.25434192420E+02  0.32238767209E+02  0.10012160445E+03  0.90678685417E+02 0.  0.
          5    1    4    4  502    0  0.19396426340E+02  0.56948232711E+01 -0.24895455456E+02  0.32411819900E+02  0.47000000000E+01 0. -1.
         -5    1    3    3    0  503 -0.44684768412E+01 -0.44170144324E+02  0.64455048873E+01  0.45106578990E+02  0.47000000000E+01 0.  1.
          5    1    3    3  503    0  0.15214426484E+02  0.18735951904E+02 -0.55007263657E+02  0.60252831652E+02  0.47000000000E+01 0. -1.
         -5    1    4    4    0  502 -0.30142375983E+02  0.19739369149E+02  0.57134222666E+02  0.67709784551E+02  0.47000000000E+01 0.  1.
<mgrwt>
<rscale>  0 0.94465413E+02</rscale>
<asrwt>0</asrwt>
<pdfrwt beam="1">  1        2 0.17061847E-01 0.94789227E+02</pdfrwt>
<pdfrwt beam="2">  1       -2 0.14550617E-01 0.94789227E+02</pdfrwt>
<totfact> 0.10933591E+04</totfact>
</mgrwt>
</event>
<event>
 8    1  0.2964543E-004  0.9435769E+02  0.7546771E-02  0.1293718E+00
         -2   -1    0    0    0  501 -0.00000000000E+00  0.00000000000E+00  0.13196983900E+03  0.13196983900E+03  0.00000000000E+00 0.  1.
          2   -1    0    0  501    0  0.00000000000E+00 -0.00000000000E+00 -0.13627199072E+03  0.13627199072E+03  0.00000000000E+00 0. -1.
         23    2    1    2    0    0 -0.11568323622E+02 -0.16683586831E+02  0.94089982612E+02  0.13191726710E+03  0.90205722379E+02 0.  0.
         23    2    1    2    0    0  0.11568323622E+02  0.16683586831E+02 -0.98392134330E+02  0.13632456262E+03  0.92147740585E+02 0.  0.
          5    1    4    4  502    0  0.95656773899E+01  0.54688752539E+02 -0.63500964673E+02  0.84479727465E+02  0.47000000000E+01 0. -1.
         -5    1    4    4    0  502  0.20026462321E+01 -0.38005165707E+02 -0.34891169657E+02  0.51844835156E+02  0.47000000000E+01 0.  1.
          5    1    3    3  503    0  0.32928684179E+02  0.10252963962E+02  0.16833219645E+02  0.38663533147E+02  0.47000000000E+01 0. -1.
         -5    1    3    3    0  503 -0.44497007801E+02 -0.26936550794E+02  0.77256762967E+02  0.93253733952E+02  0.47000000000E+01 0.  1.
<mgrwt>
<rscale>  0 0.93880183E+02</rscale>
<asrwt>0</asrwt>
<pdfrwt beam="1">  1        2 0.20964922E-01 0.94357693E+02</pdfrwt>
<pdfrwt beam="2">  1       -2 0.20303052E-01 0.94357693E+02</pdfrwt>
<totfact> 0.50088264E+03</totfact>
</mgrwt>
</event>
<event>
 8    1  0.2964543E-004  0.9273669E+02  0.7546771E-02  0.1296402E+00
          2   -1    0    0  501    0  0.00000000000E+00  0.00000000000E+00  0.19336309518E+03  0.19336309518E+03  0.00000000000E+00 0. -1.
         -2   -1    0    0    0  501 -0.00000000000E+00 -0.00000000000E+00 -0.52285552127E+02  0.52285552127E+02  0.00000000000E+00 0.  1.
         23    2    1    2    0    0 -0.10550958385E+02 -0.13565541936E+02  0.11809452163E+03  0.15010644222E+03  0.91050981906E+02 0.  0.
         23    2    1    2    0    0  0.10550958385E+02  0.13565541936E+02  0.22983021417E+02  0.95542205082E+02  0.91130384766E+02 0.  0.
          5    1    4    4  502    0  0.28713341170E+02  0.44035302227E+02  0.27435322966E+02  0.59484037772E+02  0.47000000000E+01 0. -1.
         -5    1    3    3    0  503  0.17827399777E+02 -0.26939982060E+02  0.54700027321E+01  0.33099694049E+02  0.47000000000E+01 0.  1.
          5    1    3    3  503    0 -0.28378358162E+02  0.13374440125E+02  0.11262451890E+03  0.11700674817E+03  0.47000000000E+01 0. -1.
         -5    1    4    4    0  502 -0.18162382785E+02 -0.30469760292E+02 -0.44523015486E+01  0.36058167310E+02  0.47000000000E+01 0.  1.
<mgrwt>
<rscale>  0 0.92717177E+02</rscale>
<asrwt>0</asrwt>
<pdfrwt beam="1">  1        2 0.29748168E-01 0.92736690E+02</pdfrwt>
<pdfrwt beam="2">  1       -2 0.80439312E-02 0.92736690E+02</pdfrwt>
<totfact> 0.14968974E+04</totfact>
</mgrwt>
</event>
<event>
 8    1  0.2964543E-004  0.1183616E+03  0.7546771E-02  0.1245954E+00
         -2   -1    0    0    0  501 -0.00000000000E+00  0.00000000000E+00  0.86981847578E+02  0.86981847578E+02  0.00000000000E+00 0.  1.
          2   -1    0    0  501    0  0.00000000000E+00 -0.00000000000E+00 -0.22957078757E+03  0.22957078757E+03  0.00000000000E+00 0. -1.
         23    2    1    2    0    0  0.19521506344E+02  0.72450432071E+02  0.15496881618E+02  0.11906696972E+03  0.91140746217E+02 0.  0.
         23    2    1    2    0    0 -0.19521506344E+02 -0.72450432071E+02 -0.15808582161E+03  0.19748566543E+03  0.91538553290E+02 0.  0.
          5    1    3    3  502    0 -0.18557146069E+02  0.61027615337E+02 -0.18462891127E+02  0.66571058672E+02  0.47000000000E+01 0. -1.
         -5    1    3    3    0  502  0.38078652413E+02  0.11422816734E+02  0.33959772745E+02  0.52495911047E+02  0.47000000000E+01 0.  1.
          5    1    4    4  503    0 -0.29330519269E+02 -0.51494841718E+02 -0.16288343928E+03  0.17339291472E+03  0.47000000000E+01 0. -1.
         -5    1    4    4    0  503  0.98090129246E+01 -0.20955590354E+02  0.47976176640E+01  0.24092750712E+02  0.47000000000E+01 0.  1.
<mgrwt>
<rscale>  0 0.11828465E+03</rscale>
<asrwt>0</asrwt>
<pdfrwt beam="1">  1        2 0.35318582E-01 0.11836157E+03</pdfrwt>
<pdfrwt beam="2">  1       -2 0.13381823E-01 0.11836157E+03</pdfrwt>
<totfact> 0.57278131E+03</totfact>
</mgrwt>
</event>
<event>
 8    1  0.2964543E-004  0.1730723E+03  0.7546771E-02  0.1176803E+00
         -2   -1    0    0    0  501 -0.00000000000E+00  0.00000000000E+00  0.85083640464E+02  0.85083640464E+02  0.00000000000E+00 0.  1.
          2   -1    0    0  501    0  0.00000000000E+00 -0.00000000000E+00 -0.36134591789E+03  0.36134591789E+03  0.00000000000E+00 0. -1.
         23    2    1    2    0    0  0.13767359214E+03 -0.54631371558E+01 -0.81798545028E+02  0.19142894126E+03  0.10473859720E+03 0.  0.
         23    2    1    2    0    0 -0.13767359214E+03  0.54631371558E+01 -0.19446373240E+03  0.25500061709E+03  0.90693481893E+02 0.  0.
          5    1    4    4  502    0 -0.11221709142E+03  0.22592636008E+02 -0.89027285685E+02  0.14508980117E+03  0.47000000000E+01 0. -1.
         -5    1    3    3    0  503  0.11171521588E+03  0.24089059596E+02 -0.17219965156E+02  0.11566844622E+03  0.47000000000E+01 0.  1.
          5    1    3    3  503    0  0.25958376265E+02 -0.29552196752E+02 -0.64578579872E+02  0.75760495045E+02  0.47000000000E+01 0. -1.
         -5    1    4    4    0  502 -0.25456500723E+02 -0.17129498852E+02 -0.10543644672E+03  0.10991081592E+03  0.47000000000E+01 0.  1.
<mgrwt>
<rscale>  0 0.17100554E+03</rscale>
<asrwt>0</asrwt>
<pdfrwt beam="1">  1        2 0.55591680E-01 0.17307235E+03</pdfrwt>
<pdfrwt beam="2">  1       -2 0.13089791E-01 0.17307235E+03</pdfrwt>
<totfact> 0.37400136E+03</totfact>
</mgrwt>
</event>
<event>
 8    1  0.2964543E-004  0.1140545E+03  0.7546771E-02  0.1253515E+00
          1   -1    0    0  501    0  0.00000000000E+00  0.00000000000E+00  0.74596480283E+02  0.74596480283E+02  0.00000000000E+00 0. -1.
         -1   -1    0    0    0  501 -0.00000000000E+00 -0.00000000000E+00 -0.18711411302E+03  0.18711411302E+03  0.00000000000E+00 0.  1.
         23    2    1    2    0    0 -0.42183752309E+01 -0.70504224898E+02 -0.21022925066E+02  0.11597583556E+03  0.89553283786E+02 0.  0.
         23    2    1    2    0    0  0.42183752309E+01  0.70504224898E+02 -0.91494707672E+02  0.14573475775E+03  0.88762028284E+02 0.  0.
          5    1    3    3  502    0  0.34661568779E+02 -0.34461141353E+01  0.13077509040E+01  0.35172436158E+02  0.47000000000E+01 0. -1.
         -5    1    4    4    0  503 -0.14749792960E+02  0.37786824420E+02 -0.98822941262E+02  0.10692737821E+03  0.47000000000E+01 0.  1.
          5    1    4    4  503    0  0.18968168191E+02  0.32717400478E+02  0.73282335897E+01  0.38807379531E+02  0.47000000000E+01 0. -1.
         -5    1    3    3    0  502 -0.38879944010E+02 -0.67058110763E+02 -0.22330675970E+02  0.80803399400E+02  0.47000000000E+01 0.  1.
<mgrwt>
<rscale>  0 0.11389914E+03</rscale>
<asrwt>0</asrwt>
<pdfrwt beam="1">  1        1 0.11476381E-01 0.11405451E+03</pdfrwt>
<pdfrwt beam="2">  1       -1 0.28786787E-01 0.11405451E+03</pdfrwt>
<totfact> 0.54928695E+03</totfact>
</mgrwt>
</event>
<event>
 8    1  0.2964543E-004  0.1014573E+03  0.7546771E-02  0.1277710E+00
         -3   -1    0    0    0  501 -0.00000000000E+00  0.00000000000E+00  0.11357765309E+03  0.11357765309E+03  0.00000000000E+00 0.  1.
          3   -1    0    0  501    0  0.00000000000E+00 -0.00000000000E+00 -0.10495124026E+03  0.10495124026E+03  0.00000000000E+00 0. -1.
         23    2    1    2    0    0  0.15012644382E+02 -0.40909278605E+02  0.45732449639E+02  0.11049906847E+03  0.90662222650E+02 0.  0.
         23    2    1    2    0    0 -0.15012644382E+02  0.40909278605E+02 -0.37106036811E+02  0.10802982488E+03  0.91622249095E+02 0.  0.
          5    1    4    4  502    0  0.24530008469E+02  0.13825482480E+02 -0.50528995685E+02  0.58035632901E+02  0.47000000000E+01 0. -1.
         -5    1    3    3    0  503 -0.30146521577E+02 -0.20200996869E+02  0.48222640779E+02  0.60534338366E+02  0.47000000000E+01 0.  1.
          5    1    3    3  503    0  0.45159165959E+02 -0.20708281735E+02 -0.24901911402E+01  0.49964730105E+02  0.47000000000E+01 0. -1.
         -5    1    4    4    0  502 -0.39542652852E+02  0.27083796124E+02  0.13422958874E+02  0.49994191983E+02  0.47000000000E+01 0.  1.
<mgrwt>
<rscale>  0 0.10124008E+03</rscale>
<asrwt>0</asrwt>
<pdfrwt beam="1">  1        3 0.16146345E-01 0.10145731E+03</pdfrwt>
<pdfrwt beam="2">  1       -3 0.17473485E-01 0.10145731E+03</pdfrwt>
<totfact> 0.20204548E+03</totfact>
</mgrwt>
</event>
<event>
 8    1  0.2964543E-004  0.1158843E+03  0.7546771E-02  0.1250285E+00
         -2   -1    0    0    0  501 -0.00000000000E+00  0.00000000000E+00  0.41751905695E+03  0.41751905695E+03  0.00000000000E+00 0.  1.
          2   -1    0    0  501    0  0.00000000000E+00 -0.00000000000E+00 -0.38002182580E+02  0.38002182580E+02  0.00000000000E+00 0. -1.
         23    2    1    2    0    0 -0.44867154977E+02  0.54718646484E+02  0.27981088473E+03  0.30264726375E+03  0.91071637590E+02 0.  0.
         23    2    1    2    0    0  0.44867154977E+02 -0.54718646484E+02  0.99705989638E+02  0.15287397578E+03  0.91771325760E+02 0.  0.
          5    1    3    3  502    0 -0.43488393356E+02  0.22042214415E+02  0.48298980412E+02  0.68789396580E+02  0.47000000000E+01 0. -1.
         -5    1    3    3    0  502 -0.13787616206E+01  0.32676432069E+02  0.23151190432E+03  0.23385786717E+03  0.47000000000E+01 0.  1.
          5    1    4    4  503    0  0.65088065932E+02 -0.34789182418E+02  0.99654547345E+02  0.12409618184E+03  0.47000000000E+01 0. -1.
         -5    1    4    4    0  503 -0.20220910955E+02 -0.19929464066E+02  0.51442292854E-01  0.28777793941E+02  0.47000000000E+01 0.  1.
<mgrwt>
<rscale>  0 0.11574571E+03</rscale>
<asrwt>0</asrwt>
<pdfrwt beam="1">  1        2 0.58464899E-02 0.11588429E+03</pdfrwt>
<pdfrwt beam="2">  1       -2 0.64233698E-01 0.11588429E+03</pdfrwt>
<totfact> 0.27749475E+03</totfact>
</mgrwt>
</event>
<event>
 8    1  0.2964543E-004  0.1023785E+03  0.7546771E-02  0.1277544E+00
         -2   -1    0    0    0  501 -0.00000000000E+00  0.00000000000E+00  0.33605008196E+03  0.33605008196E+03  0.00000000000E+00 0.  1.
          2   -1    0    0  501    0  0.00000000000E+00 -0.00000000000E+00 -0.30350980748E+02  0.30350980748E+02  0.00000000000E+00 0. -1.
         23    2    1    2    0    0  0.34736276213E+02  0.26996545817E+02  0.17120818784E+03  0.19737690788E+03  0.87806479313E+02 0.  0.
         23    2    1    2    0    0 -0.34736276213E+02 -0.26996545817E+02  0.13449091337E+03  0.16902415483E+03  0.92444235974E+02 0.  0.
          5    1    3    3  502    0  0.63711082943E+02  0.11976595619E+02  0.11997655378E+03  0.13645147266E+03  0.47000000000E+01 0. -1.
         -5    1    3    3    0  502 -0.28974806730E+02  0.15019950198E+02  0.51231634060E+02  0.60925435226E+02  0.47000000000E+01 0.  1.
          5    1    4    4  503    0 -0.56384603590E+02 -0.46210405580E+02  0.95564806817E+02  0.12028860049E+03  0.47000000000E+01 0. -1.
         -5    1    4    4    0  503  0.21648327377E+02  0.19213859763E+02  0.38926106553E+02  0.48735554337E+02  0.47000000000E+01 0.  1.
<mgrwt>
<rscale>  0 0.10132034E+03</rscale>
<asrwt>0</asrwt>
<pdfrwt beam="1">  1        2 0.46693819E-02 0.10237851E+03</pdfrwt>
<pdfrwt beam="2">  1       -2 0.51700010E-01 0.10237851E+03</pdfrwt>
<totfact> 0.57065988E+03</totfact>
</mgrwt>
</event>
<event>
 8    1  0.2964543E-004  0.1360824E+03  0.7546771E-02  0.1219372E+00
         -2   -1    0    0    0  501 -0.00000000000E+00  0.00000000000E+00  0.92772496865E+02  0.92772496865E+02  0.00000000000E+00 0.  1.
          2   -1    0    0  501    0  0.00000000000E+00 -0.00000000000E+00 -0.27258179603E+03  0.27258179603E+03  0.00000000000E+00 0. -1.
         23    2    1    2    0    0 -0.33652199134E+02 -0.94402384899E+02  0.59441509969E+01  0.13621220024E+03  0.92055145325E+02 0.  0.
         23    2    1    2    0    0  0.33652199134E+02  0.94402384899E+02 -0.18575345016E+03  0.22914209266E+03  0.89204672520E+02 0.  0.
          5    1    3    3  502    0 -0.58074354040E+02 -0.38777115212E+02 -0.15376707934E+02  0.71657717018E+02  0.47000000000E+01 0. -1.
         -5    1    3    3    0  502  0.24422154906E+02 -0.55625269687E+02  0.21320858931E+02  0.64554483218E+02  0.47000000000E+01 0.  1.
          5    1    4    4  503    0 -0.10577611137E+02  0.61618917315E+02 -0.42884117249E+02  0.75959952216E+02  0.47000000000E+01 0. -1.
         -5    1    4    4    0  503  0.44229810271E+02  0.32783467584E+02 -0.14286933291E+03  0.15318214044E+03  0.47000000000E+01 0.  1.
<mgrwt>
<rscale>  0 0.13560195E+03</rscale>
<asrwt>0</asrwt>
<pdfrwt beam="1">  1        2 0.41935661E-01 0.13608244E+03</pdfrwt>
<pdfrwt beam="2">  1       -2 0.14272692E-01 0.13608244E+03</pdfrwt>
<totfact> 0.43364783E+03</totfact>
</mgrwt>
</event>
<event>
 8    1  0.2964543E-004  0.9899678E+02  0.7546771E-02  0.1284497E+00
         -2   -1    0    0    0  501 -0.00000000000E+00  0.00000000000E+00  0.18987241692E+02  0.18987241692E+02  0.00000000000E+00 0.  1.
          2   -1    0    0  501    0  0.00000000000E+00 -0.00000000000E+00 -0.58030979194E+03  0.58030979194E+03  0.00000000000E+00 0. -1.
         23    2    1    2    0    0 -0.15837679145E+02 -0.24283240299E+02 -0.17149043160E+03  0.19801345927E+03  0.94656505755E+02 0.  0.
         23    2    1    2    0    0  0.15837679145E+02  0.24283240299E+02 -0.38983211864E+03  0.40128357436E+03  0.90658251048E+02 0.  0.
          5    1    4    4  502    0  0.94001575685E+00 -0.32491549706E+02 -0.19503257130E+03  0.19777860931E+03  0.47000000000E+01 0.  1.
         -5    1    4    4    0  502  0.14897663388E+02  0.56774790005E+02 -0.19479954734E+03  0.20350496505E+03  0.47000000000E+01 0. -1.
          5    1    3    3  503    0  0.15530645507E+02  0.31057109080E+02 -0.55331114379E+02  0.65493260666E+02  0.47000000000E+01 0. -1.
         -5    1    3    3    0  503 -0.31368324652E+02 -0.55340349379E+02 -0.11615931722E+03  0.13252019860E+03  0.47000000000E+01 0.  1.
<mgrwt>
<rscale>  0 0.98028731E+02</rscale>
<asrwt>0</asrwt>
<pdfrwt beam="1">  1        2 0.89278427E-01 0.98996777E+02</pdfrwt>
<pdfrwt beam="2">  1       -2 0.29211142E-02 0.98996777E+02</pdfrwt>
<totfact> 0.21159422E+04</totfact>
</mgrwt>
</event>
<event>
 8    1  0.2964543E-004  0.1504257E+03  0.7546771E-02  0.1200391E+00
         -2   -1    0    0    0  501 -0.00000000000E+00  0.00000000000E+00  0.23497383896E+03  0.23497383896E+03  0.00000000000E+00 0.  1.
          2   -1    0    0  501    0  0.00000000000E+00 -0.00000000000E+00 -0.36936426078E+03  0.36936426078E+03  0.00000000000E+00 0. -1.
         23    2    1    2    0    0  0.27796589996E+02 -0.11593862630E+03 -0.32752098421E+03  0.36041347658E+03  0.91724934007E+02 0.  0.
         23    2    1    2    0    0 -0.27796589996E+02  0.11593862630E+03  0.19313056239E+03  0.24392462316E+03  0.89361021563E+02 0.  0.
          5    1    4    4  502    0 -0.12962027481E+02  0.16025910016E+02 -0.47837211769E+01  0.21675284001E+02  0.47000000000E+01 0. -1.
         -5    1    3    3    0  503 -0.44509095505E+01 -0.11626469011E+03 -0.23390536952E+03  0.26128739092E+03  0.47000000000E+01 0. -1.
          5    1    3    3  503    0  0.32247499547E+02  0.32606381486E+00 -0.93615614683E+02  0.99126085654E+02  0.47000000000E+01 0.  1.
         -5    1    4    4    0  502 -0.14834562515E+02  0.99912716281E+02  0.19791428356E+03  0.22224933916E+03  0.47000000000E+01 0.  1.
<mgrwt>
<rscale>  0 0.15006696E+03</rscale>
<asrwt>0</asrwt>
<pdfrwt beam="1">  1        2 0.56825270E-01 0.15042566E+03</pdfrwt>
<pdfrwt beam="2">  1       -2 0.36149822E-01 0.15042566E+03</pdfrwt>
<totfact> 0.63073322E+02</totfact>
</mgrwt>
</event>
<event>
 7    1  0.2964543E-004  0.2224667E+03  0.7546771E-02  0.1141614E+00
         -2   -1    0    0    0  501 -0.00000000000E+00  0.00000000000E+00  0.56508250625E+02  0.56508250625E+02  0.00000000000E+00 0.  1.
          2   -1    0    0  501    0  0.00000000000E+00 -0.00000000000E+00 -0.70403589647E+03  0.70403589647E+03  0.00000000000E+00 0. -1.
         23    2    1    2    0    0 -0.81092904907E+02 -0.12848442195E+03 -0.28292665734E+03  0.33343135941E+03  0.89692096045E+02 0.  0.
          5    1    3    3  502    0 -0.76146647697E+02 -0.57437722293E+02 -0.10611892475E+03  0.14276105943E+03  0.47000000000E+01 0. -1.
         -5    1    3    3    0  502 -0.49462572104E+01 -0.71046699654E+02 -0.17680773259E+03  0.19067029998E+03  0.47000000000E+01 0.  1.
          5    1    1    2  503    0  0.12194297842E+03  0.73020317625E+02 -0.30245077440E+03  0.33421642345E+03  0.47000000000E+01 0. -1.
         -5    1    1    2    0  503 -0.40850073516E+02  0.55464104322E+02 -0.62150214112E+02  0.92896364239E+02  0.47000000000E+01 0.  1.
<mgrwt>
<rscale>  0 0.20993963E+03</rscale>
<asrwt>0</asrwt>
<pdfrwt beam="1">  1        2 0.10831322E+00 0.22246674E+03</pdfrwt>
<pdfrwt beam="2">  1       -2 0.86935766E-02 0.22246674E+03</pdfrwt>
<totfact> 0.34256596E+03</totfact>
</mgrwt>
</event>
<event>
 8    1  0.2964543E-004  0.1119822E+03  0.7546771E-02  0.1258264E+00
         -1   -1    0    0    0  501 -0.00000000000E+00  0.00000000000E+00  0.10464458675E+03  0.10464458675E+03  0.00000000000E+00 0.  1.
          1   -1    0    0  501    0  0.00000000000E+00 -0.00000000000E+00 -0.34402924629E+03  0.34402924629E+03  0.00000000000E+00 0. -1.
         23    2    1    2    0    0 -0.61870299384E+01 -0.59822382428E+02  0.63164292078E+02  0.12606588421E+03  0.91026823456E+02 0.  0.
         23    2    1    2    0    0  0.61870299384E+01  0.59822382428E+02 -0.30254895161E+03  0.32260794883E+03  0.94461758142E+02 0.  0.
          5    1    3    3  502    0  0.98039242712E+01  0.20545296204E+02  0.12931224952E+01  0.23280642024E+02  0.47000000000E+01 0. -1.
         -5    1    3    3    0  502 -0.15990954210E+02 -0.80367678632E+02  0.61871169583E+02  0.10278524218E+03  0.47000000000E+01 0.  1.
          5    1    4    4  503    0 -0.32231116430E+02  0.65221809777E+02 -0.19682402267E+03  0.20989167501E+03  0.47000000000E+01 0. -1.
         -5    1    4    4    0  503  0.38418146368E+02 -0.53994273495E+01 -0.10572492894E+03  0.11271627383E+03  0.47000000000E+01 0.  1.
<mgrwt>
<rscale>  0 0.11125469E+03</rscale>
<asrwt>0</asrwt>
<pdfrwt beam="1">  1        1 0.52927577E-01 0.11198223E+03</pdfrwt>
<pdfrwt beam="2">  1       -1 0.16099167E-01 0.11198223E+03</pdfrwt>
<totfact> 0.20512108E+03</totfact>
</mgrwt>
</event>
<event>
 8    1  0.2964543E-004  0.4042957E+03  0.7546771E-02  0.1042479E+00
         -1   -1    0    0    0  501 -0.00000000000E+00  0.00000000000E+00  0.17947137345E+03  0.17947137345E+03  0.00000000000E+00 0.  1.
          1   -1    0    0  501    0  0.00000000000E+00 -0.00000000000E+00 -0.13707835235E+04  0.13707835235E+04  0.00000000000E+00 0. -1.
         23    2    1    2    0    0  0.33840818423E+03 -0.19881725946E+03 -0.10479576405E+04  0.11232409529E+04  0.96987731307E+02 0.  0.
         23    2    1    2    0    0 -0.33840818423E+03  0.19881725946E+03 -0.14335450954E+03  0.42701394411E+03  0.87988585879E+02 0.  0.
          5    1    4    4  502    0 -0.29811039145E+02  0.50747226056E+02 -0.11317850999E+02  0.60117907137E+02  0.47000000000E+01 0. -1.
         -5    1    3    3    0  503  0.95383352548E+01 -0.32695345140E+02 -0.65859766028E+02  0.74293769689E+02  0.47000000000E+01 0.  1.
          5    1    3    3  503    0  0.32886984898E+03 -0.16612191432E+03 -0.98209787450E+03  0.10489471832E+04  0.47000000000E+01 0. -1.
         -5    1    4    4    0  502 -0.30859714509E+03  0.14807003340E+03 -0.13203665854E+03  0.36689603697E+03  0.47000000000E+01 0.  1.
<mgrwt>
<rscale>  0 0.40377873E+03</rscale>
<asrwt>0</asrwt>
<pdfrwt beam="1">  1        1 0.21088978E+00 0.40429571E+03</pdfrwt>
<pdfrwt beam="2">  1       -1 0.27610980E-01 0.40429571E+03</pdfrwt>
<totfact> 0.10119986E+02</totfact>
</mgrwt>
</event>
<event>
 8    1  0.2964543E-004  0.9169304E+02  0.7546771E-02  0.1300950E+00
         -2   -1    0    0    0  501 -0.00000000000E+00  0.00000000000E+00  0.16087506901E+02  0.16087506901E+02  0.00000000000E+00 0.  1.
          2   -1    0    0  501    0  0.00000000000E+00 -0.00000000000E+00 -0.54348729751E+03  0.54348729751E+03  0.00000000000E+00 0. -1.
         23    2    1    2    0    0  0.19142821710E-01  0.13178622048E+02 -0.18207707812E+03  0.20228585968E+03  0.87142585496E+02 0.  0.
         23    2    1    2    0    0 -0.19142821710E-01 -0.13178622048E+02 -0.34532271250E+03  0.35728894473E+03  0.90741048129E+02 0.  0.
          5    1    3    3  502    0 -0.33554394865E+02 -0.20787393267E+02 -0.73058034749E+02  0.83171987922E+02  0.47000000000E+01 0. -1.
         -5    1    3    3    0  502  0.33573537687E+02  0.33966015315E+02 -0.10901904337E+03  0.11911387176E+03  0.47000000000E+01 0.  1.
          5    1    4    4  503    0 -0.36967225676E+02 -0.97749062703E+01 -0.27456468469E+03  0.27725436091E+03  0.47000000000E+01 0. -1.
         -5    1    4    4    0  503  0.36948082855E+02 -0.34037157782E+01 -0.70758027805E+02  0.80034583816E+02  0.47000000000E+01 0.  1.
<mgrwt>
<rscale>  0 0.90789891E+02</rscale>
<asrwt>0</asrwt>
<pdfrwt beam="1">  1        2 0.83613428E-01 0.91693044E+02</pdfrwt>
<pdfrwt beam="2">  1       -2 0.24750011E-02 0.91693044E+02</pdfrwt>
<totfact> 0.28708593E+04</totfact>
</mgrwt>
</event>
<event>
 8    1  0.2964543E-004  0.1124592E+03  0.7546771E-02  0.1256364E+00
         -2   -1    0    0    0  501 -0.00000000000E+00  0.00000000000E+00  0.43468360247E+02  0.43468360247E+02  0.00000000000E+00 0.  1.
          2   -1    0    0  501    0  0.00000000000E+00 -0.00000000000E+00 -0.55226753816E+03  0.55226753816E+03  0.00000000000E+00 0. -1.
         23    2    1    2    0    0  0.66046047060E+02  0.41009880338E+01 -0.48501309551E+02  0.12189922270E+03  0.90156225689E+02 0.  0.
         23    2    1    2    0    0 -0.66046047060E+02 -0.41009880338E+01 -0.46029786836E+03  0.47383667571E+03  0.90929473750E+02 0.  0.
          5    1    4    4  502    0 -0.38215344462E+02  0.25735680774E+02 -0.38745336515E+03  0.39021140166E+03  0.47000000000E+01 0. -1.
         -5    1    3    3    0  503  0.75490930559E+02  0.31907070692E+02 -0.35196289984E+02  0.89318590369E+02  0.47000000000E+01 0.  1.
          5    1    3    3  503    0 -0.94448834993E+01 -0.27806082658E+02 -0.13305019567E+02  0.32580632326E+02  0.47000000000E+01 0. -1.
         -5    1    4    4    0  502 -0.27830702598E+02 -0.29836668808E+02 -0.72844503214E+02  0.83625274057E+02  0.47000000000E+01 0.  1.
<mgrwt>
<rscale>  0 0.11230278E+03</rscale>
<asrwt>0</asrwt>
<pdfrwt beam="1">  1        2 0.84964233E-01 0.11245918E+03</pdfrwt>
<pdfrwt beam="2">  1       -2 0.66874404E-02 0.11245918E+03</pdfrwt>
<totfact> 0.66043241E+03</totfact>
</mgrwt>
</event>
<event>
 8    1  0.2964543E-004  0.9276605E+02  0.7546771E-02  0.1297819E+00
          1   -1    0    0  501    0  0.00000000000E+00  0.00000000000E+00  0.83644659639E+02  0.83644659639E+02  0.00000000000E+00 0. -1.
         -1   -1    0    0    0  501 -0.00000000000E+00 -0.00000000000E+00 -0.16684284356E+03  0.16684284356E+03  0.00000000000E+00 0.  1.
         23    2    1    2    0    0  0.16445099721E+02  0.10257604615E+02  0.37300671269E+02  0.99984395346E+02  0.90718683183E+02 0.  0.
         23    2    1    2    0    0 -0.16445099721E+02 -0.10257604615E+02 -0.12049885519E+03  0.15050310785E+03  0.88065609711E+02 0.  0.
          5    1    4    4  502    0 -0.43539911701E+02  0.20900331153E+02 -0.68269523071E+02  0.83757778944E+02  0.47000000000E+01 0. -1.
         -5    1    3    3    0  503  0.42999157227E+02 -0.22437829255E+02  0.10522111763E+02  0.49851665367E+02  0.47000000000E+01 0.  1.
          5    1    3    3  503    0 -0.26554057506E+02  0.32695433870E+02  0.26778559506E+02  0.50132729979E+02  0.47000000000E+01 0. -1.
         -5    1    4    4    0  502  0.27094811980E+02 -0.31157935767E+02 -0.52229332114E+02  0.66745328905E+02  0.47000000000E+01 0.  1.
<mgrwt>
<rscale>  0 0.92110935E+02</rscale>
<asrwt>0</asrwt>
<pdfrwt beam="1">  1        1 0.12868409E-01 0.92766046E+02</pdfrwt>
<pdfrwt beam="2">  1       -1 0.25668130E-01 0.92766046E+02</pdfrwt>
<totfact> 0.56290725E+03</totfact>
</mgrwt>
</event>
<event>
 8    1  0.2964543E-004  0.1192387E+03  0.7546771E-02  0.1244804E+00
         -1   -1    0    0    0  501 -0.00000000000E+00  0.00000000000E+00  0.23633867272E+02  0.23633867272E+02  0.00000000000E+00 0.  1.
          1   -1    0    0  501    0  0.00000000000E+00 -0.00000000000E+00 -0.81064563446E+03  0.81064563446E+03  0.00000000000E+00 0. -1.
         23    2    1    2    0    0  0.73209614610E+02  0.17468422046E+02 -0.60674245764E+03  0.61814322539E+03  0.91103478279E+02 0.  0.
         23    2    1    2    0    0 -0.73209614610E+02 -0.17468422046E+02 -0.18026930955E+03  0.21613627634E+03  0.92482822971E+02 0.  0.
          5    1    4    4  502    0  0.80331376842E+01 -0.21245337622E+02 -0.62964240325E+01  0.24033947394E+02  0.47000000000E+01 0. -1.
         -5    1    3    3    0  503  0.64618002895E+02  0.50485406746E+02 -0.37783103718E+03  0.38665571928E+03  0.47000000000E+01 0.  1.
          5    1    3    3  503    0  0.85916117147E+01 -0.33016984700E+02 -0.22891142046E+03  0.23148750611E+03  0.47000000000E+01 0. -1.
         -5    1    4    4    0  502 -0.81242752294E+02  0.37769155763E+01 -0.17397288551E+03  0.19210232894E+03  0.47000000000E+01 0.  1.
<mgrwt>
<rscale>  0 0.11897114E+03</rscale>
<asrwt>0</asrwt>
<pdfrwt beam="1">  1        1 0.12471470E+00 0.11923869E+03</pdfrwt>
<pdfrwt beam="2">  1       -1 0.36359800E-02 0.11923869E+03</pdfrwt>
<totfact> 0.61573615E+03</totfact>
</mgrwt>
</event>
<event>
 8    1  0.2964543E-004  0.9655064E+02  0.7546771E-02  0.1289164E+00
         -2   -1    0    0    0  501 -0.00000000000E+00  0.00000000000E+00  0.10506623217E+02  0.10506623217E+02  0.00000000000E+00 0.  1.
          2   -1    0    0  501    0  0.00000000000E+00 -0.00000000000E+00 -0.88055537537E+03  0.88055537537E+03  0.00000000000E+00 0. -1.
         23    2    1    2    0    0 -0.18352908849E+02  0.49723449688E+01 -0.50243749016E+03  0.51163019676E+03  0.94659776263E+02 0.  0.
         23    2    1    2    0    0  0.18352908849E+02 -0.49723449688E+01 -0.36761126200E+03  0.37943180183E+03  0.92026620142E+02 0.  0.
          5    1    4    4  502    0 -0.73546906252E+01  0.40277440199E+02 -0.14283926448E+03  0.14866576318E+03  0.47000000000E+01 0. -1.
         -5    1    4    4    0  502  0.25707599474E+02 -0.45249785168E+02 -0.22477199751E+03  0.23076603865E+03  0.47000000000E+01 0.  1.
          5    1    3    3  503    0 -0.31895999521E+02 -0.38795300755E+02 -0.27100499287E+03  0.27565962038E+03  0.47000000000E+01 0. -1.
         -5    1    3    3    0  503  0.13543090672E+02  0.43767645724E+02 -0.23143249728E+03  0.23597057638E+03  0.47000000000E+01 0.  1.
<mgrwt>
<rscale>  0 0.95899037E+02</rscale>
<asrwt>0</asrwt>
<pdfrwt beam="1">  1        2 0.13547002E+00 0.96550643E+02</pdfrwt>
<pdfrwt beam="2">  1       -2 0.16164040E-02 0.96550643E+02</pdfrwt>
<totfact> 0.30263834E+04</totfact>
</mgrwt>
</event>
<event>
 8    1  0.2964543E-004  0.1000701E+03  0.7546771E-02  0.1281072E+00
         -1   -1    0    0    0  501 -0.00000000000E+00  0.00000000000E+00  0.26501502940E+03  0.26501502940E+03  0.00000000000E+00 0.  1.
          1   -1    0    0  501    0  0.00000000000E+00 -0.00000000000E+00 -0.74663821766E+02  0.74663821766E+02  0.00000000000E+00 0. -1.
         23    2    1    2    0    0  0.19383744743E+01 -0.37890462445E+02  0.21600413821E+03  0.23805842081E+03  0.92599025665E+02 0.  0.
         23    2    1    2    0    0 -0.19383744743E+01  0.37890462445E+02 -0.25652930573E+02  0.10162043036E+03  0.90714908255E+02 0.  0.
          5    1    4    4  502    0  0.28241351095E+02  0.51824507577E+02  0.26623244576E+00  0.59207384480E+02  0.47000000000E+01 0. -1.
         -5    1    4    4    0  502 -0.30179725569E+02 -0.13934045132E+02 -0.25919163019E+02  0.42413045880E+02  0.47000000000E+01 0.  1.
          5    1    3    3  503    0 -0.14634350129E+02  0.19249065009E+02  0.16079992465E+02  0.29416778632E+02  0.47000000000E+01 0. -1.
         -5    1    3    3    0  503  0.16572724603E+02 -0.57139527454E+02  0.19992414575E+03  0.20864164218E+03  0.47000000000E+01 0.  1.
<mgrwt>
<rscale>  0 0.99632013E+02</rscale>
<asrwt>0</asrwt>
<pdfrwt beam="1">  1        1 0.11486742E-01 0.10007010E+03</pdfrwt>
<pdfrwt beam="2">  1       -1 0.40771543E-01 0.10007010E+03</pdfrwt>
<totfact> 0.30085135E+03</totfact>
</mgrwt>
</event>
<event>
 8    1  0.2964543E-004  0.1283278E+03  0.7546771E-02  0.1232412E+00
         -1   -1    0    0    0  501 -0.00000000000E+00  0.00000000000E+00  0.10395036366E+03  0.10395036366E+03  0.00000000000E+00 0.  1.
          1   -1    0    0  501    0  0.00000000000E+00 -0.00000000000E+00 -0.25104421302E+03  0.25104421302E+03  0.00000000000E+00 0. -1.
         23    2    1    2    0    0 -0.81946796249E+02 -0.17172527677E+02  0.39761120301E+02  0.12831683897E+03  0.88736076951E+02 0.  0.
         23    2    1    2    0    0  0.81946796249E+02  0.17172527677E+02 -0.18685496966E+03  0.22667773771E+03  0.97251447111E+02 0.  0.
          5    1    3    3  502    0  0.17074280428E+01  0.26877980805E+02  0.91868465276E+01  0.28841451277E+02  0.47000000000E+01 0. -1.
         -5    1    3    3    0  502 -0.83654224292E+02 -0.44050508482E+02  0.30574273773E+02  0.99475387691E+02  0.47000000000E+01 0.  1.
          5    1    4    4  503    0  0.41231808734E+02 -0.14993152980E+02 -0.16391640591E+03  0.16975139120E+03  0.47000000000E+01 0. -1.
         -5    1    4    4    0  503  0.40714987515E+02  0.32165680657E+02 -0.22938563754E+02  0.56926346515E+02  0.47000000000E+01 0.  1.
<mgrwt>
<rscale>  0 0.12671599E+03</rscale>
<asrwt>0</asrwt>
<pdfrwt beam="1">  1        1 0.38622186E-01 0.12832777E+03</pdfrwt>
<pdfrwt beam="2">  1       -1 0.15992364E-01 0.12832777E+03</pdfrwt>
<totfact> 0.30748127E+03</totfact>
</mgrwt>
</event>
<event>
 8    1  0.2964543E-004  0.9406907E+02  0.7546771E-02  0.1293340E+00
          3   -1    0    0  501    0  0.00000000000E+00  0.00000000000E+00  0.17679270030E+02  0.17679270030E+02  0.00000000000E+00 0. -1.
         -3   -1    0    0    0  501 -0.00000000000E+00 -0.00000000000E+00 -0.50689629558E+03  0.50689629558E+03  0.00000000000E+00 0.  1.
         23    2    1    2    0    0 -0.47716169625E+01 -0.16122114150E+02 -0.21396644185E+03  0.23369436453E+03  0.92459325550E+02 0.  0.
         23    2    1    2    0    0  0.47716169625E+01  0.16122114150E+02 -0.27525058370E+03  0.29088120108E+03  0.92554299858E+02 0.  0.
          5    1    4    4  502    0 -0.19409118926E+02  0.43169019898E+02 -0.87427850749E+02  0.99528876528E+02  0.47000000000E+01 0. -1.
         -5    1    3    3    0  503  0.32280986901E+02 -0.34418473957E+02 -0.75868709175E+02  0.89469796561E+02  0.47000000000E+01 0.  1.
          5    1    3    3  503    0 -0.37052603863E+02  0.18296359807E+02 -0.13809773268E+03  0.14422456797E+03  0.47000000000E+01 0. -1.
         -5    1    4    4    0  502  0.24180735889E+02 -0.27046905748E+02 -0.18782273295E+03  0.19135232455E+03  0.47000000000E+01 0.  1.
<mgrwt>
<rscale>  0 0.94045697E+02</rscale>
<asrwt>0</asrwt>
<pdfrwt beam="1">  1        3 0.27198878E-02 0.94069067E+02</pdfrwt>
<pdfrwt beam="2">  1       -3 0.77984043E-01 0.94069067E+02</pdfrwt>
<totfact> 0.20033864E+03</totfact>
</mgrwt>
</event>
<event>
 8    1  0.2964543E-004  0.9644026E+02  0.7546771E-02  0.1289070E+00
         -3   -1    0    0    0  501 -0.00000000000E+00  0.00000000000E+00  0.46649806626E+02  0.46649806626E+02  0.00000000000E+00 0.  1.
          3   -1    0    0  501    0  0.00000000000E+00 -0.00000000000E+00 -0.23177161831E+03  0.23177161831E+03  0.00000000000E+00 0. -1.
         23    2    1    2    0    0 -0.72195008419E+01 -0.28584894106E+02 -0.14697311535E+03  0.17471006131E+03  0.89740133299E+02 0.  0.
         23    2    1    2    0    0  0.72195008419E+01  0.28584894106E+02 -0.38148696334E+02  0.10371136362E+03  0.91823235345E+02 0.  0.
          5    1    3    3  502    0 -0.16369628616E+02 -0.58008906712E+02 -0.75406465007E+02  0.96650002400E+02  0.47000000000E+01 0. -1.
         -5    1    4    4    0  503  0.47995522395E+02  0.35642805718E+01 -0.18286328251E+02  0.51698685350E+02  0.47000000000E+01 0.  1.
          5    1    4    4  503    0 -0.40776021553E+02  0.25020613535E+02 -0.19862368083E+02  0.52012678274E+02  0.47000000000E+01 0. -1.
         -5    1    3    3    0  502  0.91501277741E+01  0.29424012606E+02 -0.71566650340E+02  0.78060058910E+02  0.47000000000E+01 0.  1.
<mgrwt>
<rscale>  0 0.95941092E+02</rscale>
<asrwt>0</asrwt>
<pdfrwt beam="1">  1        3 0.35657172E-01 0.96440261E+02</pdfrwt>
<pdfrwt beam="2">  1       -3 0.71768933E-02 0.96440261E+02</pdfrwt>
<totfact> 0.21212137E+03</totfact>
</mgrwt>
</event>
<event>
 7    1  0.2964543E-004  0.2647032E+03  0.7546771E-02  0.1114672E+00
         -2   -1    0    0    0  501 -0.00000000000E+00  0.00000000000E+00  0.15649778231E+03  0.15649778231E+03  0.00000000000E+00 0.  1.
          2   -1    0    0  501    0  0.00000000000E+00 -0.00000000000E+00 -0.35694696983E+03  0.35694696983E+03  0.00000000000E+00 0. -1.
         23    2    1    2    0    0 -0.18181294812E+03  0.22511360729E+02 -0.12256667663E+03  0.23752180762E+03  0.88494685753E+02 0.  0.
          5    1    1    2  502    0  0.64394581456E+02  0.37179717701E+02 -0.11675903457E+03  0.13850543557E+03  0.47000000000E+01 0. -1.
         -5    1    3    3    0  503 -0.56396879959E+02 -0.29067566339E+02 -0.17714557811E+02  0.66041101145E+02  0.47000000000E+01 0.  1.
          5    1    3    3  503    0 -0.12541606816E+03  0.51578927068E+02 -0.10485211882E+03  0.17148070647E+03  0.47000000000E+01 0. -1.
         -5    1    1    2    0  502  0.11741836666E+03 -0.59691078429E+02  0.38876523679E+02  0.13741750895E+03  0.47000000000E+01 0.  1.
<mgrwt>
<rscale>  0 0.24784867E+03</rscale>
<asrwt>0</asrwt>
<pdfrwt beam="1">  1        2 0.54914917E-01 0.26470320E+03</pdfrwt>
<pdfrwt beam="2">  1       -2 0.24076582E-01 0.26470320E+03</pdfrwt>
<totfact> 0.13737465E+03</totfact>
</mgrwt>
</event>
<event>
 8    1  0.2964543E-004  0.9678770E+02  0.7546771E-02  0.1289606E+00
          2   -1    0    0  501    0  0.00000000000E+00  0.00000000000E+00  0.83781965642E+02  0.83781965642E+02  0.00000000000E+00 0. -1.
         -2   -1    0    0    0  501 -0.00000000000E+00 -0.00000000000E+00 -0.10708630141E+03  0.10708630141E+03  0.00000000000E+00 0.  1.
         23    2    1    2    0    0 -0.17173823702E+02 -0.13322010697E+02 -0.77157309926E+01  0.92833253344E+02  0.89922545739E+02 0.  0.
         23    2    1    2    0    0  0.17173823702E+02  0.13322010697E+02 -0.15588604778E+02  0.98035013710E+02  0.94315656837E+02 0.  0.
          5    1    4    4  502    0  0.51522356140E+02  0.39523642265E+01  0.11384396833E+02  0.53121265576E+02  0.47000000000E+01 0. -1.
         -5    1    4    4    0  502 -0.34348532437E+02  0.93696464703E+01 -0.26973001610E+02  0.44913748134E+02  0.47000000000E+01 0.  1.
          5    1    3    3  503    0 -0.11633180810E+02  0.21555587568E+02  0.31284895343E+02  0.40010110320E+02  0.47000000000E+01 0. -1.
         -5    1    3    3    0  503 -0.55406428920E+01 -0.34877598265E+02 -0.39000626336E+02  0.52823143024E+02  0.47000000000E+01 0.  1.
<mgrwt>
<rscale>  0 0.95700613E+02</rscale>
<asrwt>0</asrwt>
<pdfrwt beam="1">  1        2 0.12889533E-01 0.96787702E+02</pdfrwt>
<pdfrwt beam="2">  1       -2 0.16474816E-01 0.96787702E+02</pdfrwt>
<totfact> 0.12393703E+04</totfact>
</mgrwt>
</event>
<event>
 8    1  0.2964543E-004  0.9910339E+02  0.7546771E-02  0.1282479E+00
         -2   -1    0    0    0  501 -0.00000000000E+00  0.00000000000E+00  0.10747863528E+02  0.10747863528E+02  0.00000000000E+00 0.  1.
          2   -1    0    0  501    0  0.00000000000E+00 -0.00000000000E+00 -0.10458981028E+04  0.10458981028E+04  0.00000000000E+00 0. -1.
         23    2    1    2    0    0  0.15877559104E+02  0.35845367250E+02 -0.32513040902E+03  0.33974315458E+03  0.90435839008E+02 0.  0.
         23    2    1    2    0    0 -0.15877559104E+02 -0.35845367250E+02 -0.71001983023E+03  0.71690281173E+03  0.91019200764E+02 0.  0.
          5    1    3    3  502    0  0.18496744303E+02  0.65050400956E+02 -0.24782784634E+03  0.25693270643E+03  0.47000000000E+01 0. -1.
         -5    1    3    3    0  502 -0.26191851997E+01 -0.29205033706E+02 -0.77302562679E+02  0.82810448143E+02  0.47000000000E+01 0.  1.
          5    1    4    4  503    0 -0.50970424898E+02 -0.80865801001E+01 -0.45536587989E+03  0.45830508568E+03  0.47000000000E+01 0. -1.
         -5    1    4    4    0  503  0.35092865794E+02 -0.27758787150E+02 -0.25465395034E+03  0.25859772605E+03  0.47000000000E+01 0.  1.
<mgrwt>
<rscale>  0 0.98969243E+02</rscale>
<asrwt>0</asrwt>
<pdfrwt beam="1">  1        2 0.16090738E+00 0.99103391E+02</pdfrwt>
<pdfrwt beam="2">  1       -2 0.16535177E-02 0.99103391E+02</pdfrwt>
<totfact> 0.23365329E+04</totfact>
</mgrwt>
</event>
<event>
 8    1  0.2964543E-004  0.9815511E+02  0.7546771E-02  0.1286515E+00
          1   -1    0    0  501    0  0.00000000000E+00  0.00000000000E+00  0.33283598537E+02  0.33283598537E+02  0.00000000000E+00 0. -1.
         -1   -1    0    0    0  501 -0.00000000000E+00 -0.00000000000E+00 -0.28081449702E+03  0.28081449702E+03  0.00000000000E+00 0.  1.
         23    2    1    2    0    0 -0.36724283868E+02 -0.10213193406E+02 -0.10896742977E+03  0.14665717211E+03  0.90451329649E+02 0.  0.
         23    2    1    2    0    0  0.36724283868E+02  0.10213193406E+02 -0.13856346871E+03  0.16744092344E+03  0.85928142292E+02 0.  0.
          5    1    3    3  502    0 -0.62648782412E+02 -0.10215055227E+02 -0.46395586348E+02  0.78764571500E+02  0.47000000000E+01 0. -1.
         -5    1    3    3    0  502  0.25924498544E+02  0.18618207264E-02 -0.62571843424E+02  0.67892600611E+02  0.47000000000E+01 0.  1.
          5    1    4    4  503    0 -0.98497756817E+01 -0.29952704315E+02 -0.55124106742E+02  0.63678408593E+02  0.47000000000E+01 0. -1.
         -5    1    4    4    0  503  0.46574059550E+02  0.40165897722E+02 -0.83439361966E+02  0.10376251485E+03  0.47000000000E+01 0.  1.
<mgrwt>
<rscale>  0 0.97100285E+02</rscale>
<asrwt>0</asrwt>
<pdfrwt beam="1">  1        1 0.51205537E-02 0.98155109E+02</pdfrwt>
<pdfrwt beam="2">  1       -1 0.43202229E-01 0.98155109E+02</pdfrwt>
<totfact> 0.79494360E+03</totfact>
</mgrwt>
</event>
<event>
 8    1  0.2964543E-004  0.9621414E+02  0.7546771E-02  0.1289804E+00
          2   -1    0    0  501    0  0.00000000000E+00  0.00000000000E+00  0.37080854353E+03  0.37080854353E+03  0.00000000000E+00 0. -1.
         -2   -1    0    0    0  501 -0.00000000000E+00 -0.00000000000E+00 -0.43600791260E+02  0.43600791260E+02  0.00000000000E+00 0.  1.
         23    2    1    2    0    0 -0.74127441912E+01  0.27975526483E+02  0.24778361374E+02  0.97044091022E+02  0.89252504455E+02 0.  0.
         23    2    1    2    0    0  0.74127441912E+01 -0.27975526483E+02  0.30242939089E+03  0.31736524376E+03  0.91758283636E+02 0.  0.
          5    1    3    3  502    0  0.35311299263E+02  0.33229742333E+02  0.22559814045E+02  0.53685555235E+02  0.47000000000E+01 0. -1.
         -5    1    4    4    0  503 -0.32567394817E+02 -0.54047964064E+01  0.45994606102E+02  0.56810569614E+02  0.47000000000E+01 0.  1.
          5    1    4    4  503    0  0.39980139009E+02 -0.22570730077E+02  0.25643478479E+03  0.26055467415E+03  0.47000000000E+01 0. -1.
         -5    1    3    3    0  502 -0.42724043454E+02 -0.52542158499E+01  0.22185473290E+01  0.43358535787E+02  0.47000000000E+01 0.  1.
<mgrwt>
<rscale>  0 0.95611836E+02</rscale>
<asrwt>0</asrwt>
<pdfrwt beam="1">  1        2 0.57047466E-01 0.96214144E+02</pdfrwt>
<pdfrwt beam="2">  1       -2 0.67078143E-02 0.96214144E+02</pdfrwt>
<totfact> 0.99721938E+03</totfact>
</mgrwt>
</event>
<event>
 8    1  0.2964543E-004  0.9510156E+02  0.7546771E-02  0.1291405E+00
         -2   -1    0    0    0  501 -0.00000000000E+00  0.00000000000E+00  0.21489895352E+02  0.21489895352E+02  0.00000000000E+00 0.  1.
          2   -1    0    0  501    0  0.00000000000E+00 -0.00000000000E+00 -0.52878397440E+03  0.52878397440E+03  0.00000000000E+00 0. -1.
         23    2    1    2    0    0  0.13846282684E+02 -0.10922232713E+02 -0.38083952594E+03  0.39253414008E+03  0.93452083423E+02 0.  0.
         23    2    1    2    0    0 -0.13846282684E+02  0.10922232713E+02 -0.12645455311E+03  0.15773972968E+03  0.92628578767E+02 0.  0.
          5    1    3    3  502    0 -0.13013000189E+02  0.32608878265E+02 -0.82173966885E+02  0.89483674205E+02  0.47000000000E+01 0. -1.
         -5    1    4    4    0  503  0.23988130140E+02 -0.19509411236E+02 -0.12314079321E+02  0.33612111863E+02  0.47000000000E+01 0.  1.
          5    1    4    4  503    0 -0.37834412825E+02  0.30431643949E+02 -0.11414047379E+03  0.12412761781E+03  0.47000000000E+01 0. -1.
         -5    1    3    3    0  502  0.26859282873E+02 -0.43531110978E+02 -0.29866555906E+03  0.30305046587E+03  0.47000000000E+01 0.  1.
<mgrwt>
<rscale>  0 0.94898636E+02</rscale>
<asrwt>0</asrwt>
<pdfrwt beam="1">  1        2 0.81351382E-01 0.95101559E+02</pdfrwt>
<pdfrwt beam="2">  1       -2 0.33061377E-02 0.95101559E+02</pdfrwt>
<totfact> 0.19496322E+04</totfact>
</mgrwt>
</event>
<event>
 8    1  0.2964543E-004  0.1762493E+03  0.7546771E-02  0.1171506E+00
          1   -1    0    0  501    0  0.00000000000E+00  0.00000000000E+00  0.19036258422E+03  0.19036258422E+03  0.00000000000E+00 0. -1.
         -1   -1    0    0    0  501 -0.00000000000E+00 -0.00000000000E+00 -0.20631349585E+03  0.20631349585E+03  0.00000000000E+00 0.  1.
         23    2    1    2    0    0  0.14283132875E+03  0.47669951396E+02  0.82799396691E+02  0.19464779435E+03  0.91426533425E+02 0.  0.
         23    2    1    2    0    0 -0.14283132875E+03 -0.47669951396E+02 -0.98750308314E+02  0.20202828573E+03  0.91600175239E+02 0.  0.
          5    1    4    4  502    0 -0.63009334814E+02 -0.58044983512E+02 -0.17510202456E+02  0.87567651417E+02  0.47000000000E+01 0. -1.
         -5    1    3    3    0  503  0.12595024194E+02  0.43118132091E+02  0.28420265301E+02  0.53362996816E+02  0.47000000000E+01 0.  1.
          5    1    3    3  503    0  0.13023630455E+03  0.45518193057E+01  0.54379131390E+02  0.14128479753E+03  0.47000000000E+01 0. -1.
         -5    1    4    4    0  502 -0.79821993932E+02  0.10375032116E+02 -0.81240105858E+02  0.11446063431E+03  0.47000000000E+01 0.  1.
<mgrwt>
<rscale>  0 0.17622672E+03</rscale>
<asrwt>0</asrwt>
<pdfrwt beam="1">  1        1 0.29286551E-01 0.17624927E+03</pdfrwt>
<pdfrwt beam="2">  1       -1 0.31740538E-01 0.17624927E+03</pdfrwt>
<totfact> 0.14335926E+03</totfact>
</mgrwt>
</event>
<event>
 8    1  0.2964543E-004  0.1317097E+03  0.7546771E-02  0.1225628E+00
         -1   -1    0    0    0  501 -0.00000000000E+00  0.00000000000E+00  0.37302625739E+03  0.37302625739E+03  0.00000000000E+00 0.  1.
          1   -1    0    0  501    0  0.00000000000E+00 -0.00000000000E+00 -0.46643521775E+02  0.46643521775E+02  0.00000000000E+00 0. -1.
         23    2    1    2    0    0  0.42245955721E+02 -0.80739390420E+02  0.13690855922E+03  0.18997736981E+03  0.95099303424E+02 0.  0.
         23    2    1    2    0    0 -0.42245955721E+02  0.80739390420E+02  0.18947417639E+03  0.22969240935E+03  0.92490915526E+02 0.  0.
          5    1    3    3  502    0  0.17377118613E+02  0.15176422113E+02  0.36134700096E+01  0.23820898492E+02  0.47000000000E+01 0. -1.
         -5    1    3    3    0  502  0.24868837108E+02 -0.95915812533E+02  0.13329508921E+03  0.16615647132E+03  0.47000000000E+01 0.  1.
          5    1    4    4  503    0  0.13959152560E+02  0.64657056873E+02  0.68995751198E+02  0.95696899777E+02  0.47000000000E+01 0. -1.
         -5    1    4    4    0  503 -0.56205108281E+02  0.16082333547E+02  0.12047842519E+03  0.13399550957E+03  0.47000000000E+01 0.  1.
<mgrwt>
<rscale>  0 0.13123949E+03</rscale>
<asrwt>0</asrwt>
<pdfrwt beam="1">  1        1 0.71759267E-02 0.13170971E+03</pdfrwt>
<pdfrwt beam="2">  1       -1 0.57388653E-01 0.13170971E+03</pdfrwt>
<totfact> 0.30744214E+03</totfact>
</mgrwt>
</event>
<event>
 8    1  0.2964543E-004  0.1002740E+03  0.7546771E-02  0.1279721E+00
         -1   -1    0    0    0  501 -0.00000000000E+00  0.00000000000E+00  0.55950193134E+02  0.55950193134E+02  0.00000000000E+00 0.  1.
          1   -1    0    0  501    0  0.00000000000E+00 -0.00000000000E+00 -0.19569403339E+03  0.19569403339E+03  0.00000000000E+00 0. -1.
         23    2    1    2    0    0 -0.36707529263E+02  0.20387877159E+02 -0.10583188634E+03  0.14579100966E+03  0.91057795337E+02 0.  0.
         23    2    1    2    0    0  0.36707529263E+02 -0.20387877159E+02 -0.33911953915E+02  0.10585321686E+03  0.91059182197E+02 0.  0.
          5    1    3    3  502    0 -0.51610660808E+02  0.65336597800E+01 -0.11236216750E+03  0.12391003068E+03  0.47000000000E+01 0. -1.
         -5    1    4    4    0  503  0.59641305088E+02 -0.30025823652E+02 -0.42299562729E+02  0.79183194970E+02  0.47000000000E+01 0.  1.
          5    1    4    4  503    0 -0.22933775825E+02  0.96379464931E+01  0.83876088140E+01  0.26670021894E+02  0.47000000000E+01 0. -1.
         -5    1    3    3    0  502  0.14903131545E+02  0.13854217379E+02  0.65302811566E+01  0.21880978977E+02  0.47000000000E+01 0.  1.
<mgrwt>
<rscale>  0 0.10027372E+03</rscale>
<asrwt>0</asrwt>
<pdfrwt beam="1">  1        1 0.30106774E-01 0.10027404E+03</pdfrwt>
<pdfrwt beam="2">  1       -1 0.86077220E-02 0.10027404E+03</pdfrwt>
<totfact> 0.10634569E+04</totfact>
</mgrwt>
</event>
<event>
 8    1  0.2964543E-004  0.9333149E+02  0.7546771E-02  0.1295379E+00
         -2   -1    0    0    0  501 -0.00000000000E+00  0.00000000000E+00  0.70286219773E+02  0.70286219773E+02  0.00000000000E+00 0.  1.
          2   -1    0    0  501    0  0.00000000000E+00 -0.00000000000E+00 -0.30072053560E+03  0.30072053560E+03  0.00000000000E+00 0. -1.
         23    2    1    2    0    0  0.16909410636E+02 -0.29184286590E+01  0.27206891393E+02  0.97216159251E+02  0.91740510606E+02 0.  0.
         23    2    1    2    0    0 -0.16909410636E+02  0.29184286590E+01 -0.25764120722E+03  0.27379059613E+03  0.91037648659E+02 0.  0.
          5    1    3    3  502    0 -0.31418946847E+02  0.21380337774E+02  0.17314046220E+02  0.42025412084E+02  0.47000000000E+01 0. -1.
         -5    1    3    3    0  502  0.48328357484E+02 -0.24298766433E+02  0.98928451732E+01  0.55190747167E+02  0.47000000000E+01 0.  1.
          5    1    4    4  503    0  0.12353433455E+02  0.38347082046E+02 -0.16943001350E+03  0.17421746610E+03  0.47000000000E+01 0. -1.
         -5    1    4    4    0  503 -0.29262844091E+02 -0.35428653387E+02 -0.88211193728E+02  0.99573130031E+02  0.47000000000E+01 0.  1.
<mgrwt>
<rscale>  0 0.93158309E+02</rscale>
<asrwt>0</asrwt>
<pdfrwt beam="1">  1        2 0.46264697E-01 0.93331488E+02</pdfrwt>
<pdfrwt beam="2">  1       -2 0.10813265E-01 0.93331488E+02</pdfrwt>
<totfact> 0.59455667E+03</totfact>
</mgrwt>
</event>
<event>
 8    1  0.2964543E-004  0.1169064E+03  0.7546771E-02  0.1250950E+00
         -2   -1    0    0    0  501 -0.00000000000E+00  0.00000000000E+00  0.82876641415E+01  0.82876641415E+01  0.00000000000E+00 0. -1.
          2   -1    0    0  501    0  0.00000000000E+00 -0.00000000000E+00 -0.15713189679E+04  0.15713189679E+04  0.00000000000E+00 0.  1.
         23    2    1    2    0    0 -0.60459527178E+02  0.39464539886E+02 -0.70996426894E+03  0.71856629135E+03  0.84115679671E+02 0.  0.
         23    2    1    2    0    0  0.60459527178E+02 -0.39464539886E+02 -0.85306703485E+03  0.86104034071E+03  0.91947256941E+02 0.  0.
          5    1    3    3  502    0 -0.28203568591E+02 -0.24075333366E+02 -0.18239647421E+03  0.18618707464E+03  0.47000000000E+01 0. -1.
         -5    1    4    4    0  503  0.45620164369E+02 -0.68551946156E+02 -0.54388816117E+03  0.55010634479E+03  0.47000000000E+01 0.  1.
          5    1    4    4  503    0  0.14839362809E+02  0.29087406271E+02 -0.30917887368E+03  0.31093399592E+03  0.47000000000E+01 0. -1.
         -5    1    3    3    0  502 -0.32255958587E+02  0.63539873252E+02 -0.52756779472E+03  0.53237921671E+03  0.47000000000E+01 0.  1.
<mgrwt>
<rscale>  0 0.11536257E+03</rscale>
<asrwt>0</asrwt>
<pdfrwt beam="1">  1        2 0.24174132E+00 0.11690638E+03</pdfrwt>
<pdfrwt beam="2">  1       -2 0.12750255E-02 0.11690638E+03</pdfrwt>
<totfact> 0.17930079E+04</totfact>
</mgrwt>
</event>
<event>
 8    1  0.2964543E-004  0.9879013E+02  0.7546771E-02  0.1283458E+00
         -1   -1    0    0    0  501 -0.00000000000E+00  0.00000000000E+00  0.13628839436E+03  0.13628839436E+03  0.00000000000E+00 0.  1.
          1   -1    0    0  501    0  0.00000000000E+00 -0.00000000000E+00 -0.70807619300E+02  0.70807619300E+02  0.00000000000E+00 0. -1.
         23    2    1    2    0    0  0.29225047808E+02 -0.91572971473E+01  0.32469547990E+02  0.10398923312E+03  0.93922997974E+02 0.  0.
         23    2    1    2    0    0 -0.29225047808E+02  0.91572971473E+01  0.33011227068E+02  0.10310678053E+03  0.92754016459E+02 0.  0.
          5    1    3    3  502    0  0.51081032058E+02  0.22142132991E+02  0.37699283503E+01  0.55998645067E+02  0.47000000000E+01 0. -1.
         -5    1    4    4    0  503 -0.53033579825E+02  0.31681779402E+02  0.32568616202E+02  0.69993574680E+02  0.47000000000E+01 0.  1.
          5    1    4    4  503    0  0.23808532016E+02 -0.22524482254E+02  0.44261086527E+00  0.33113205855E+02  0.47000000000E+01 0. -1.
         -5    1    3    3    0  502 -0.21855984250E+02 -0.31299430139E+02  0.28699619640E+02  0.47990588057E+02  0.47000000000E+01 0.  1.
<mgrwt>
<rscale>  0 0.98511269E+02</rscale>
<asrwt>0</asrwt>
<pdfrwt beam="1">  1        1 0.10893480E-01 0.98790126E+02</pdfrwt>
<pdfrwt beam="2">  1       -1 0.20967445E-01 0.98790126E+02</pdfrwt>
<totfact> 0.97410133E+03</totfact>
</mgrwt>
</event>
<event>
 8    1  0.2964543E-004  0.9448173E+02  0.7546771E-02  0.1292903E+00
          3   -1    0    0  501    0  0.00000000000E+00  0.00000000000E+00  0.32992743157E+03  0.32992743157E+03  0.00000000000E+00 0. -1.
         -3   -1    0    0    0  501 -0.00000000000E+00 -0.00000000000E+00 -0.27167832885E+02  0.27167832885E+02  0.00000000000E+00 0.  1.
         23    2    1    2    0    0 -0.19403745570E+02 -0.15012843367E+02  0.12924383674E+03  0.15952371780E+03  0.90232790039E+02 0.  0.
         23    2    1    2    0    0  0.19403745570E+02  0.15012843367E+02  0.17351576194E+03  0.19757154665E+03  0.91240920617E+02 0.  0.
          5    1    3    3  502    0  0.15790492520E+02 -0.41780685141E+02  0.88360737639E+02  0.99119499903E+02  0.47000000000E+01 0. -1.
         -5    1    3    3    0  502 -0.35194238090E+02  0.26767841774E+02  0.40883099098E+02  0.60404217898E+02  0.47000000000E+01 0.  1.
          5    1    4    4  503    0  0.55813684650E+02  0.91384610637E+01  0.11504644478E+03  0.12828270858E+03  0.47000000000E+01 0. -1.
         -5    1    4    4    0  503 -0.36409939080E+02  0.58743823033E+01  0.58469317164E+02  0.69288838068E+02  0.47000000000E+01 0.  1.
<mgrwt>
<rscale>  0 0.94237484E+02</rscale>
<asrwt>0</asrwt>
<pdfrwt beam="1">  1        3 0.50758064E-01 0.94481725E+02</pdfrwt>
<pdfrwt beam="2">  1       -3 0.41796668E-02 0.94481725E+02</pdfrwt>
<totfact> 0.25078188E+03</totfact>
</mgrwt>
</event>
<event>
 8    1  0.2964543E-004  0.1306010E+03  0.7546771E-02  0.1227028E+00
          2   -1    0    0  501    0  0.00000000000E+00  0.00000000000E+00  0.35517921601E+03  0.35517921601E+03  0.00000000000E+00 0. -1.
         -2   -1    0    0    0  501 -0.00000000000E+00 -0.00000000000E+00 -0.93782729820E+02  0.93782729820E+02  0.00000000000E+00 0.  1.
         23    2    1    2    0    0  0.69297129888E+02 -0.60531696807E+02 -0.27205352395E+02  0.13218499528E+03  0.90920642585E+02 0.  0.
         23    2    1    2    0    0 -0.69297129888E+02  0.60531696807E+02  0.28860183858E+03  0.31677695055E+03  0.92684608421E+02 0.  0.
          5    1    3    3  502    0  0.52867533772E+02 -0.12006375522E+02  0.24112186559E+02  0.59519885088E+02  0.47000000000E+01 0. -1.
         -5    1    3    3    0  502  0.16429596116E+02 -0.48525321284E+02 -0.51317538954E+02  0.72665110187E+02  0.47000000000E+01 0.  1.
          5    1    4    4  503    0 -0.47444476878E+02  0.30829942663E+02  0.26865811271E+03  0.27459194321E+03  0.47000000000E+01 0. -1.
         -5    1    4    4    0  503 -0.21852653010E+02  0.29701754144E+02  0.19943725875E+02  0.42185007344E+02  0.47000000000E+01 0.  1.
<mgrwt>
<rscale>  0 0.13028839E+03</rscale>
<asrwt>0</asrwt>
<pdfrwt beam="1">  1        2 0.54642956E-01 0.13060098E+03</pdfrwt>
<pdfrwt beam="2">  1       -2 0.14428112E-01 0.13060098E+03</pdfrwt>
<totfact> 0.32121054E+03</totfact>
</mgrwt>
</event>
<event>
 7    1  0.2964543E-004  0.3164943E+03  0.7546771E-02  0.1077274E+00
         -2   -1    0    0    0  501 -0.00000000000E+00  0.00000000000E+00  0.79720118634E+02  0.79720118634E+02  0.00000000000E+00 0.  1.
          2   -1    0    0  501    0  0.00000000000E+00 -0.00000000000E+00 -0.31412607229E+03  0.31412607229E+03  0.00000000000E+00 0. -1.
         23    2    1    2    0    0 -0.79391642326E+01 -0.24015251455E+02 -0.23542376444E+02  0.98487080641E+02  0.92226346201E+02 0.  0.
          5    1    3    3  502    0 -0.47175607043E+02  0.30866500283E+01 -0.85006487491E+01  0.48264027364E+02  0.47000000000E+01 0. -1.
         -5    1    3    3    0  502  0.39236442811E+02 -0.27101901483E+02 -0.15041727695E+02  0.50223053277E+02  0.47000000000E+01 0.  1.
          5    1    1    2  503    0  0.58657626633E+02  0.66014907719E+02 -0.21159991059E+03  0.22933664636E+03  0.47000000000E+01 0. -1.
         -5    1    1    2    0  503 -0.50718462401E+02 -0.41999656265E+02  0.73633338125E+00  0.66022463916E+02  0.47000000000E+01 0.  1.
<mgrwt>
<rscale>  0 0.31649435E+03</rscale>
<asrwt>0</asrwt>
<pdfrwt beam="1">  1        2 0.48327088E-01 0.31649435E+03</pdfrwt>
<pdfrwt beam="2">  1       -2 0.12264634E-01 0.31649435E+03</pdfrwt>
<totfact> 0.49604752E+03</totfact>
</mgrwt>
</event>
<event>
 8    1  0.2964543E-004  0.9383346E+02  0.7546771E-02  0.1293896E+00
         -1   -1    0    0    0  501 -0.00000000000E+00  0.00000000000E+00  0.10303857804E+03  0.10303857804E+03  0.00000000000E+00 0.  1.
          1   -1    0    0  501    0  0.00000000000E+00 -0.00000000000E+00 -0.13998428372E+03  0.13998428372E+03  0.00000000000E+00 0. -1.
         23    2    1    2    0    0 -0.25537338501E+02 -0.82917068740E+00  0.57454984289E+02  0.10992061354E+03  0.90158875767E+02 0.  0.
         23    2    1    2    0    0  0.25537338501E+02  0.82917068740E+00 -0.94400689967E+02  0.13310224822E+03  0.90287734681E+02 0.  0.
          5    1    3    3  502    0  0.26890668461E+02 -0.72008796406E+01 -0.42652784673E+01  0.28552466064E+02  0.47000000000E+01 0. -1.
         -5    1    3    3    0  502 -0.52428006962E+02  0.63717089532E+01  0.61720262756E+02  0.81368147476E+02  0.47000000000E+01 0.  1.
          5    1    4    4  503    0  0.58073664499E+02  0.60266016310E+01 -0.72740081878E+02  0.93392076469E+02  0.47000000000E+01 0. -1.
         -5    1    4    4    0  503 -0.32536325998E+02 -0.51974309436E+01 -0.21660608089E+02  0.39710171753E+02  0.47000000000E+01 0.  1.
<mgrwt>
<rscale>  0 0.93802449E+02</rscale>
<asrwt>0</asrwt>
<pdfrwt beam="1">  1        1 0.21536044E-01 0.93833460E+02</pdfrwt>
<pdfrwt beam="2">  1       -1 0.15852089E-01 0.93833460E+02</pdfrwt>
<totfact> 0.63058306E+03</totfact>
</mgrwt>
</event>
<event>
 8    1  0.2964543E-004  0.9933854E+02  0.7546771E-02  0.1285073E+00
          3   -1    0    0  501    0  0.00000000000E+00  0.00000000000E+00  0.72112897184E+02  0.72112897184E+02  0.00000000000E+00 0. -1.
         -3   -1    0    0    0  501 -0.00000000000E+00 -0.00000000000E+00 -0.18551995348E+03  0.18551995348E+03  0.00000000000E+00 0.  1.
         23    2    1    2    0    0 -0.16459518154E+02  0.90594595217E+01 -0.12684071993E+03  0.15739010164E+03  0.91269306550E+02 0.  0.
         23    2    1    2    0    0  0.16459518154E+02 -0.90594595217E+01  0.13433663628E+02  0.10024274903E+03  0.97545660434E+02 0.  0.
          5    1    4    4  502    0  0.41288621714E+02 -0.40919480113E+02  0.37493611175E+01  0.58440583883E+02  0.47000000000E+01 0. -1.
         -5    1    3    3    0  503 -0.21497371755E+02  0.28687976986E+02 -0.13123844846E+03  0.13612772447E+03  0.47000000000E+01 0.  1.
          5    1    3    3  503    0  0.50378536014E+01 -0.19628517464E+02  0.43977285292E+01  0.21262377171E+02  0.47000000000E+01 0. -1.
         -5    1    4    4    0  502 -0.24829103560E+02  0.31860020591E+02  0.96843025104E+01  0.41802165145E+02  0.47000000000E+01 0.  1.
<mgrwt>
<rscale>  0 0.97762551E+02</rscale>
<asrwt>0</asrwt>
<pdfrwt beam="1">  1        3 0.11094292E-01 0.99338539E+02</pdfrwt>
<pdfrwt beam="2">  1       -3 0.28541531E-01 0.99338539E+02</pdfrwt>
<totfact> 0.15854797E+03</totfact>
</mgrwt>
</event>
<event>
 8    1  0.2964543E-004  0.1133024E+03  0.7546771E-02  0.1256645E+00
          2   -1    0    0  501    0  0.00000000000E+00  0.00000000000E+00  0.93940560872E+03  0.93940560872E+03  0.00000000000E+00 0. -1.
         -2   -1    0    0    0  501 -0.00000000000E+00 -0.00000000000E+00 -0.20762189237E+02  0.20762189237E+02  0.00000000000E+00 0.  1.
         23    2    1    2    0    0  0.52215713746E+02 -0.27475223599E+02  0.17408415574E+03  0.20770828129E+03  0.96726770670E+02 0.  0.
         23    2    1    2    0    0 -0.52215713746E+02  0.27475223599E+02  0.74455926375E+03  0.75245951667E+03  0.91353480060E+02 0.  0.
          5    1    3    3  502    0  0.36367877856E+02  0.31171967781E+01  0.16852174898E+03  0.17249350519E+03  0.47000000000E+01 0. -1.
         -5    1    4    4    0  503  0.17696259586E+02  0.33114052381E+02  0.22363709092E+03  0.22681564431E+03  0.47000000000E+01 0.  1.
          5    1    4    4  503    0 -0.69911973332E+02 -0.56388287816E+01  0.52092217283E+03  0.52564387236E+03  0.47000000000E+01 0. -1.
         -5    1    3    3    0  502  0.15847835890E+02 -0.30592420378E+02  0.55624067662E+01  0.35214776103E+02  0.47000000000E+01 0.  1.
<mgrwt>
<rscale>  0 0.11214706E+03</rscale>
<asrwt>0</asrwt>
<pdfrwt beam="1">  1        2 0.14452391E+00 0.11330241E+03</pdfrwt>
<pdfrwt beam="2">  1       -2 0.31941837E-02 0.11330241E+03</pdfrwt>
<totfact> 0.10515761E+04</totfact>
</mgrwt>
</event>
<event>
 8    1  0.2964543E-004  0.9228357E+02  0.7546771E-02  0.1298504E+00
         -2   -1    0    0    0  501 -0.00000000000E+00  0.00000000000E+00  0.78655288385E+02  0.78655288385E+02  0.00000000000E+00 0.  1.
          2   -1    0    0  501    0  0.00000000000E+00 -0.00000000000E+00 -0.12627497835E+03  0.12627497835E+03  0.00000000000E+00 0. -1.
         23    2    1    2    0    0 -0.70516100235E+00 -0.86635464334E+01  0.17324117137E+02  0.92085440936E+02  0.90022492239E+02 0.  0.
         23    2    1    2    0    0  0.70516100235E+00  0.86635464334E+01 -0.64943807098E+02  0.11284482580E+03  0.91873295030E+02 0.  0.
          5    1    4    4  502    0  0.39319583802E+02  0.13132743345E+02 -0.60994312570E+01  0.42163866993E+02  0.47000000000E+01 0. -1.
         -5    1    3    3    0  503  0.15431903103E+00  0.40542915896E+02  0.48799228574E+01  0.41105419239E+02  0.47000000000E+01 0.  1.
          5    1    3    3  503    0 -0.85948003338E+00 -0.49206462330E+02  0.12444194279E+02  0.50980021697E+02  0.47000000000E+01 0. -1.
         -5    1    4    4    0  502 -0.38614422800E+02 -0.44691969111E+01 -0.58844375841E+02  0.70680958803E+02  0.47000000000E+01 0.  1.
<mgrwt>
<rscale>  0 0.91819476E+02</rscale>
<asrwt>0</asrwt>
<pdfrwt beam="1">  1        2 0.19426920E-01 0.92283566E+02</pdfrwt>
<pdfrwt beam="2">  1       -2 0.12100814E-01 0.92283566E+02</pdfrwt>
<totfact> 0.12643355E+04</totfact>
</mgrwt>
</event>
<event>
 8    1  0.2964543E-004  0.4155143E+03  0.7546771E-02  0.1038536E+00
         -2   -1    0    0    0  501 -0.00000000000E+00  0.00000000000E+00  0.27733384417E+03  0.27733384417E+03  0.00000000000E+00 0.  1.
          2   -1    0    0  501    0  0.00000000000E+00 -0.00000000000E+00 -0.65605213922E+03  0.65605213922E+03  0.00000000000E+00 0. -1.
         23    2    1    2    0    0  0.29724582444E+03 -0.27554291635E+03 -0.29483813570E+03  0.50949160346E+03  0.91505130162E+02 0.  0.
         23    2    1    2    0    0 -0.29724582444E+03  0.27554291635E+03 -0.83880159350E+02  0.42389437992E+03  0.91496367692E+02 0.  0.
          5    1    4    4  502    0 -0.15555097176E+03  0.92327834753E+02 -0.12041818152E+02  0.18134946724E+03  0.47000000000E+01 0.  1.
         -5    1    3    3    0  503  0.74012913475E+02 -0.33970488261E+02 -0.92316002182E+02  0.12319188160E+03  0.47000000000E+01 0.  1.
          5    1    3    3  503    0  0.22323291096E+03 -0.24157242809E+03 -0.20252213351E+03  0.38629972186E+03  0.47000000000E+01 0. -1.
         -5    1    4    4    0  502 -0.14169485268E+03  0.18321508160E+03 -0.71838341198E+02  0.24254491268E+03  0.47000000000E+01 0. -1.
<mgrwt>
<rscale>  0 0.41551386E+03</rscale>
<asrwt>0</asrwt>
<pdfrwt beam="1">  1        2 0.10093110E+00 0.41551434E+03</pdfrwt>
<pdfrwt beam="2">  1       -2 0.42666746E-01 0.41551434E+03</pdfrwt>
<totfact> 0.23782365E+02</totfact>
</mgrwt>
</event>
<event>
 8    1  0.2964543E-004  0.3403122E+03  0.7546771E-02  0.1066674E+00
          1   -1    0    0  501    0  0.00000000000E+00  0.00000000000E+00  0.13423913337E+04  0.13423913337E+04  0.00000000000E+00 0. -1.
         -1   -1    0    0    0  501 -0.00000000000E+00 -0.00000000000E+00 -0.87056882616E+02  0.87056882616E+02  0.00000000000E+00 0.  1.
         23    2    1    2    0    0  0.31328062479E+03 -0.96418457678E+02  0.69668854703E+03  0.77536270521E+03  0.91493847997E+02 0.  0.
         23    2    1    2    0    0 -0.31328062479E+03  0.96418457678E+02  0.55864590402E+03  0.65408551107E+03  0.91111694422E+02 0.  0.
          5    1    3    3  502    0  0.55888402236E+02 -0.51460883393E+02  0.20245839021E+03  0.21629430365E+03  0.47000000000E+01 0. -1.
         -5    1    4    4    0  503 -0.11550834691E+03  0.52252336484E+01  0.13573307422E+03  0.17836770646E+03  0.47000000000E+01 0. -1.
          5    1    4    4  503    0 -0.19777227789E+03  0.91193224030E+02  0.42291282980E+03  0.47571780461E+03  0.47000000000E+01 0. -1.
         -5    1    3    3    0  502  0.25739222256E+03 -0.44957574285E+02  0.49423015682E+03  0.55906840156E+03  0.47000000000E+01 0.  1.
<mgrwt>
<rscale>  0 0.34028656E+03</rscale>
<asrwt>0</asrwt>
<pdfrwt beam="1">  1        1 0.20652173E+00 0.34031220E+03</pdfrwt>
<pdfrwt beam="2">  1       -1 0.13393367E-01 0.34031220E+03</pdfrwt>
<totfact> 0.34998219E+02</totfact>
</mgrwt>
</event>
<event>
 8    1  0.2964543E-004  0.1150484E+03  0.7546771E-02  0.1255002E+00
          2   -1    0    0  501    0  0.00000000000E+00  0.00000000000E+00  0.11230969857E+03  0.11230969857E+03  0.00000000000E+00 0. -1.
         -2   -1    0    0    0  501 -0.00000000000E+00 -0.00000000000E+00 -0.12021009544E+03  0.12021009544E+03  0.00000000000E+00 0.  1.
         23    2    1    2    0    0 -0.28728462810E+02  0.61881742985E+02 -0.37844423936E+02  0.12111292055E+03  0.92636193846E+02 0.  0.
         23    2    1    2    0    0  0.28728462810E+02 -0.61881742985E+02  0.29944027076E+02  0.11140687346E+03  0.82826155331E+02 0.  0.
          5    1    4    4  502    0  0.35871927054E+02  0.50520813653E+01  0.23912040601E+02  0.43659985827E+02  0.47000000000E+01 0. -1.
         -5    1    4    4    0  502 -0.71434642438E+01 -0.66933824350E+02  0.60319864747E+01  0.67746887636E+02  0.47000000000E+01 0.  1.
          5    1    3    3  503    0  0.21090816346E+02  0.31491457347E+02 -0.48368133870E+02  0.61628733510E+02  0.47000000000E+01 0. -1.
         -5    1    3    3    0  503 -0.49819279156E+02  0.30390285637E+02  0.10523709934E+02  0.59484187037E+02  0.47000000000E+01 0.  1.
<mgrwt>
<rscale>  0 0.11306229E+03</rscale>
<asrwt>0</asrwt>
<pdfrwt beam="1">  1        2 0.17278415E-01 0.11504842E+03</pdfrwt>
<pdfrwt beam="2">  1       -2 0.18493861E-01 0.11504842E+03</pdfrwt>
<totfact> 0.73952193E+03</totfact>
</mgrwt>
</event>
<event>
 8    1  0.2964543E-004  0.1078948E+03  0.7546771E-02  0.1264624E+00
         -1   -1    0    0    0  501 -0.00000000000E+00  0.00000000000E+00  0.65896864762E+03  0.65896864762E+03  0.00000000000E+00 0.  1.
          1   -1    0    0  501    0  0.00000000000E+00 -0.00000000000E+00 -0.23781100503E+02  0.23781100503E+02  0.00000000000E+00 0. -1.
         23    2    1    2    0    0 -0.52237318596E+02 -0.86188532061E+01  0.14421379183E+03  0.18010805661E+03  0.94012085489E+02 0.  0.
         23    2    1    2    0    0  0.52237318596E+02  0.86188532061E+01  0.49097375529E+03  0.50264169151E+03  0.93757237476E+02 0.  0.
          5    1    4    4  502    0  0.20920829930E+02  0.43637293907E+02  0.36290103166E+03  0.36614361024E+03  0.47000000000E+01 0. -1.
         -5    1    4    4    0  502  0.31316488666E+02 -0.35018440701E+02  0.12807272363E+03  0.13649808126E+03  0.47000000000E+01 0.  1.
          5    1    3    3  503    0 -0.32313305956E+02  0.12727676413E+02  0.22742185832E+01  0.35119874129E+02  0.47000000000E+01 0. -1.
         -5    1    3    3    0  503 -0.19924012640E+02 -0.21346529619E+02  0.14193957324E+03  0.14498818248E+03  0.47000000000E+01 0.  1.
<mgrwt>
<rscale>  0 0.10783929E+03</rscale>
<asrwt>0</asrwt>
<pdfrwt beam="1">  1        1 0.36586314E-02 0.10789483E+03</pdfrwt>
<pdfrwt beam="2">  1       -1 0.10137978E+00 0.10789483E+03</pdfrwt>
<totfact> 0.24053512E+03</totfact>
</mgrwt>
</event>
<event>
 8    1  0.2964543E-004  0.9486293E+02  0.7546771E-02  0.1291926E+00
         -1   -1    0    0    0  501 -0.00000000000E+00  0.00000000000E+00  0.51723126764E+03  0.51723126764E+03  0.00000000000E+00 0.  1.
          1   -1    0    0  501    0  0.00000000000E+00 -0.00000000000E+00 -0.36220186880E+02  0.36220186880E+02  0.00000000000E+00 0. -1.
         23    2    1    2    0    0  0.18048541815E+02 -0.69082682748E+01  0.39799031341E+02  0.10215659806E+03  0.92078953071E+02 0.  0.
         23    2    1    2    0    0 -0.18048541815E+02  0.69082682748E+01  0.44121204942E+03  0.45129485646E+03  0.92873574741E+02 0.  0.
          5    1    4    4  502    0  0.16707179367E+02  0.35937062190E+02  0.30673300022E+03  0.30931832423E+03  0.47000000000E+01 0. -1.
         -5    1    4    4    0  502 -0.34755721182E+02 -0.29028793915E+02  0.13447904920E+03  0.14197653223E+03  0.47000000000E+01 0.  1.
          5    1    3    3  503    0  0.11597655034E+02  0.40891493663E+02  0.62553708435E+01  0.43218509005E+02  0.47000000000E+01 0. -1.
         -5    1    3    3    0  503  0.64508867808E+01 -0.47799761937E+02  0.33543660497E+02  0.58938089052E+02  0.47000000000E+01 0.  1.
<mgrwt>
<rscale>  0 0.94667872E+02</rscale>
<asrwt>0</asrwt>
<pdfrwt beam="1">  1        1 0.55723368E-02 0.94862927E+02</pdfrwt>
<pdfrwt beam="2">  1       -1 0.79574036E-01 0.94862927E+02</pdfrwt>
<totfact> 0.22447159E+03</totfact>
</mgrwt>
</event>
<event>
 8    1  0.2964543E-004  0.9286476E+02  0.7546771E-02  0.1296534E+00
          1   -1    0    0  501    0  0.00000000000E+00  0.00000000000E+00  0.31219819617E+03  0.31219819617E+03  0.00000000000E+00 0. -1.
         -1   -1    0    0    0  501 -0.00000000000E+00 -0.00000000000E+00 -0.70498358540E+02  0.70498358540E+02  0.00000000000E+00 0.  1.
         23    2    1    2    0    0  0.39223692511E+01 -0.37683090807E+00 -0.29001061082E+02  0.96509831534E+02  0.91964988212E+02 0.  0.
         23    2    1    2    0    0 -0.39223692511E+01  0.37683090807E+00  0.27070089872E+03  0.28618672318E+03  0.92781124028E+02 0.  0.
          5    1    3    3  502    0 -0.30437183622E+02  0.28562874103E+02 -0.29517780735E+02  0.51338575198E+02  0.47000000000E+01 0. -1.
         -5    1    3    3    0  502  0.34359552873E+02 -0.28939705011E+02  0.51671965290E+00  0.45171256336E+02  0.47000000000E+01 0.  1.
          5    1    4    4  503    0 -0.38392493272E+02  0.28155349329E+02  0.15505345070E+03  0.16226635452E+03  0.47000000000E+01 0. -1.
         -5    1    4    4    0  503  0.34470124020E+02 -0.27778518421E+02  0.11564744802E+03  0.12392036866E+03  0.47000000000E+01 0.  1.
<mgrwt>
<rscale>  0 0.92660238E+02</rscale>
<asrwt>0</asrwt>
<pdfrwt beam="1">  1        1 0.48030491E-01 0.92864762E+02</pdfrwt>
<pdfrwt beam="2">  1       -1 0.10845902E-01 0.92864762E+02</pdfrwt>
<totfact> 0.42105533E+03</totfact>
</mgrwt>
</event>
<event>
 8    1  0.2964543E-004  0.9961724E+02  0.7546771E-02  0.1281557E+00
         -1   -1    0    0    0  501 -0.00000000000E+00  0.00000000000E+00  0.14983381018E+03  0.14983381018E+03  0.00000000000E+00 0.  1.
          1   -1    0    0  501    0  0.00000000000E+00 -0.00000000000E+00 -0.10826505087E+03  0.10826505087E+03  0.00000000000E+00 0. -1.
         23    2    1    2    0    0  0.19287601891E+02  0.35334141802E+02 -0.60112532011E+02  0.11634908818E+03  0.91121241495E+02 0.  0.
         23    2    1    2    0    0 -0.19287601891E+02 -0.35334141802E+02  0.10168129131E+03  0.14174977287E+03  0.90185364349E+02 0.  0.
          5    1    3    3  502    0 -0.67359441684E+01  0.59371370535E+02 -0.21347491772E+02  0.63624979277E+02  0.47000000000E+01 0. -1.
         -5    1    4    4    0  503 -0.54020009540E+02 -0.25354488449E+02  0.47320372992E+02  0.76304123187E+02  0.47000000000E+01 0.  1.
          5    1    4    4  503    0  0.34732407649E+02 -0.99796533529E+01  0.54360918320E+02  0.65445649685E+02  0.47000000000E+01 0. -1.
         -5    1    3    3    0  502  0.26023546060E+02 -0.24037228733E+02 -0.38765040239E+02  0.52724108902E+02  0.47000000000E+01 0.  1.
<mgrwt>
<rscale>  0 0.99402711E+02</rscale>
<asrwt>0</asrwt>
<pdfrwt beam="1">  1        1 0.16656162E-01 0.99617237E+02</pdfrwt>
<pdfrwt beam="2">  1       -1 0.23051355E-01 0.99617237E+02</pdfrwt>
<totfact> 0.48390441E+03</totfact>
</mgrwt>
</event>
<event>
 8    1  0.2964543E-004  0.1217376E+03  0.7546771E-02  0.1240381E+00
          2   -1    0    0  501    0  0.00000000000E+00  0.00000000000E+00  0.62578404444E+02  0.62578404444E+02  0.00000000000E+00 0. -1.
         -2   -1    0    0    0  501 -0.00000000000E+00 -0.00000000000E+00 -0.23914527940E+03  0.23914527940E+03  0.00000000000E+00 0.  1.
         23    2    1    2    0    0  0.18196430019E+02  0.77747122201E+02 -0.71737618293E+02  0.14130225992E+03  0.91892968738E+02 0.  0.
         23    2    1    2    0    0 -0.18196430019E+02 -0.77747122201E+02 -0.10482925666E+03  0.16042142392E+03  0.91488442580E+02 0.  0.
          5    1    3    3  502    0  0.28585953723E+02  0.14553219132E+02  0.13045338505E+02  0.34946012564E+02  0.47000000000E+01 0. -1.
         -5    1    3    3    0  502 -0.10389523705E+02  0.63193903068E+02 -0.84782956797E+02  0.10635624735E+03  0.47000000000E+01 0.  1.
          5    1    4    4  503    0  0.28708206155E+02 -0.23708327341E+02 -0.55255095996E+01  0.37932402274E+02  0.47000000000E+01 0. -1.
         -5    1    4    4    0  503 -0.46904636173E+02 -0.54038794860E+02 -0.99303747060E+02  0.12248902165E+03  0.47000000000E+01 0.  1.
<mgrwt>
<rscale>  0 0.12166126E+03</rscale>
<asrwt>0</asrwt>
<pdfrwt beam="1">  1        2 0.96274468E-02 0.12173760E+03</pdfrwt>
<pdfrwt beam="2">  1       -2 0.36791581E-01 0.12173760E+03</pdfrwt>
<totfact> 0.44422379E+03</totfact>
</mgrwt>
</event>
<event>
 8    1  0.2964543E-004  0.9699416E+02  0.7546771E-02  0.1287991E+00
          1   -1    0    0  501    0  0.00000000000E+00  0.00000000000E+00  0.98431489405E+02  0.98431489405E+02  0.00000000000E+00 0. -1.
         -1   -1    0    0    0  501 -0.00000000000E+00 -0.00000000000E+00 -0.15570963750E+03  0.15570963750E+03  0.00000000000E+00 0.  1.
         23    2    1    2    0    0 -0.28695983078E+02 -0.12526596515E+02  0.51553017626E+02  0.10984343896E+03  0.91801374673E+02 0.  0.
         23    2    1    2    0    0  0.28695983078E+02  0.12526596515E+02 -0.10883116572E+03  0.14429768794E+03  0.89427205303E+02 0.  0.
          5    1    3    3  502    0 -0.35842723683E+02  0.32039068843E+02  0.12306584413E+02  0.49847214498E+02  0.47000000000E+01 0. -1.
         -5    1    4    4    0  503  0.10871551542E+02 -0.17098199913E+02 -0.10737991718E+03  0.10937584599E+03  0.47000000000E+01 0.  1.
          5    1    4    4  503    0  0.17824431536E+02  0.29624796428E+02 -0.14512485440E+01  0.34921841952E+02  0.47000000000E+01 0. -1.
         -5    1    3    3    0  502  0.71467406042E+01 -0.44565665358E+02  0.39246433213E+02  0.59996224465E+02  0.47000000000E+01 0.  1.
<mgrwt>
<rscale>  0 0.96428237E+02</rscale>
<asrwt>0</asrwt>
<pdfrwt beam="1">  1        1 0.15143306E-01 0.96994162E+02</pdfrwt>
<pdfrwt beam="2">  1       -1 0.23955329E-01 0.96994162E+02</pdfrwt>
<totfact> 0.51253316E+03</totfact>
</mgrwt>
</event>
<event>
 8    1  0.2964543E-004  0.9645478E+02  0.7546771E-02  0.1299259E+00
         -1   -1    0    0    0  501 -0.00000000000E+00  0.00000000000E+00  0.24588031641E+02  0.24588031641E+02  0.00000000000E+00 0.  1.
          1   -1    0    0  501    0  0.00000000000E+00 -0.00000000000E+00 -0.32979980949E+03  0.32979980949E+03  0.00000000000E+00 0. -1.
         23    2    1    2    0    0  0.30671592284E+02 -0.10677356755E+02 -0.18090566772E+03  0.19704892805E+03  0.71039896618E+02 0.  0.
         23    2    1    2    0    0 -0.30671592284E+02  0.10677356755E+02 -0.12430611013E+03  0.15733891308E+03  0.90822750639E+02 0.  0.
          5    1    3    3  502    0 -0.34866807332E+01  0.25703708424E+02 -0.82556465318E+02  0.86663126733E+02  0.47000000000E+01 0. -1.
         -5    1    4    4    0  503 -0.13276241112E+02 -0.38132931427E+02 -0.33468551840E+02  0.52655607484E+02  0.47000000000E+01 0.  1.
          5    1    4    4  503    0 -0.17395351172E+02  0.48810288182E+02 -0.90837558288E+02  0.10468330560E+03  0.47000000000E+01 0. -1.
         -5    1    3    3    0  502  0.34158273017E+02 -0.36381065179E+02 -0.98349202401E+02  0.11038580132E+03  0.47000000000E+01 0.  1.
<mgrwt>
<rscale>  0 0.91500123E+02</rscale>
<asrwt>0</asrwt>
<pdfrwt beam="1">  1        1 0.50738433E-01 0.96454780E+02</pdfrwt>
<pdfrwt beam="2">  1       -1 0.37827740E-02 0.96454780E+02</pdfrwt>
<totfact> 0.18793067E+04</totfact>
</mgrwt>
</event>
<event>
 8    1  0.2964543E-004  0.9484719E+02  0.7546771E-02  0.1293076E+00
         -1   -1    0    0    0  501 -0.00000000000E+00  0.00000000000E+00  0.19722093033E+02  0.19722093033E+02  0.00000000000E+00 0.  1.
          1   -1    0    0  501    0  0.00000000000E+00 -0.00000000000E+00 -0.44333127812E+03  0.44333127812E+03  0.00000000000E+00 0. -1.
         23    2    1    2    0    0 -0.58680119759E+01  0.19087657796E+02 -0.20452269657E+03  0.22431736850E+03  0.89944294731E+02 0.  0.
         23    2    1    2    0    0  0.58680119759E+01 -0.19087657796E+02 -0.21908648852E+03  0.23873600266E+03  0.92721180245E+02 0.  0.
          5    1    4    4  502    0  0.35418046116E+02  0.11390492003E+02 -0.16806195251E+03  0.17219492205E+03  0.47000000000E+01 0. -1.
         -5    1    4    4    0  502 -0.29550034140E+02 -0.30478149799E+02 -0.51024536020E+02  0.66541080611E+02  0.47000000000E+01 0.  1.
          5    1    3    3  503    0  0.10184127844E+02  0.32208077936E+02 -0.19960521449E+03  0.20249792196E+03  0.47000000000E+01 0. -1.
         -5    1    3    3    0  503 -0.16052139820E+02 -0.13120420140E+02 -0.49174820743E+01  0.21819446542E+02  0.47000000000E+01 0.  1.
<mgrwt>
<rscale>  0 0.94161596E+02</rscale>
<asrwt>0</asrwt>
<pdfrwt beam="1">  1        1 0.68204805E-01 0.94847190E+02</pdfrwt>
<pdfrwt beam="2">  1       -1 0.30341685E-02 0.94847190E+02</pdfrwt>
<totfact> 0.17880066E+04</totfact>
</mgrwt>
</event>
<event>
 8    1  0.2964543E-004  0.1172048E+03  0.7546771E-02  0.1248356E+00
         -2   -1    0    0    0  501 -0.00000000000E+00  0.00000000000E+00  0.52168443925E+02  0.52168443925E+02  0.00000000000E+00 0.  1.
          2   -1    0    0  501    0  0.00000000000E+00 -0.00000000000E+00 -0.26382470027E+03  0.26382470027E+03  0.00000000000E+00 0. -1.
         23    2    1    2    0    0 -0.58559859458E+02  0.29061843967E+02 -0.12466463679E+03  0.17110881201E+03  0.97278496932E+02 0.  0.
         23    2    1    2    0    0  0.58559859458E+02 -0.29061843967E+02 -0.86991619553E+02  0.14488433219E+03  0.95656050132E+02 0.  0.
          5    1    4    4  502    0  0.19586832340E+02  0.22277894303E+02 -0.72750217412E+02  0.78705989030E+02  0.47000000000E+01 0. -1.
         -5    1    3    3    0  503 -0.10459850037E+02 -0.34412852655E+02 -0.50534363557E+02  0.62205022231E+02  0.47000000000E+01 0.  1.
          5    1    3    3  503    0 -0.48100009421E+02  0.63474696622E+02 -0.74130273235E+02  0.10890378978E+03  0.47000000000E+01 0. -1.
         -5    1    4    4    0  502  0.38973027118E+02 -0.51339738270E+02 -0.14241402142E+02  0.66178343159E+02  0.47000000000E+01 0.  1.
<mgrwt>
<rscale>  0 0.11686753E+03</rscale>
<asrwt>0</asrwt>
<pdfrwt beam="1">  1        2 0.40588415E-01 0.11720475E+03</pdfrwt>
<pdfrwt beam="2">  1       -2 0.80259146E-02 0.11720475E+03</pdfrwt>
<totfact> 0.11027094E+04</totfact>
</mgrwt>
</event>
<event>
 8    1  0.2964543E-004  0.9049110E+02  0.7546771E-02  0.1302398E+00
         -1   -1    0    0    0  501 -0.00000000000E+00  0.00000000000E+00  0.56561525258E+02  0.56561525258E+02  0.00000000000E+00 0.  1.
          1   -1    0    0  501    0  0.00000000000E+00 -0.00000000000E+00 -0.18341270352E+03  0.18341270352E+03  0.00000000000E+00 0. -1.
         23    2    1    2    0    0 -0.16710046947E+02  0.11797408200E+02 -0.11952075999E+03  0.14918670848E+03  0.86908327614E+02 0.  0.
         23    2    1    2    0    0  0.16710046947E+02 -0.11797408200E+02 -0.73304182682E+01  0.90787520298E+02  0.88148932498E+02 0.  0.
          5    1    4    4  502    0 -0.11474853580E+02  0.33358101433E+02 -0.10931848440E+02  0.37229430646E+02  0.47000000000E+01 0. -1.
         -5    1    4    4    0  502  0.28184900527E+02 -0.45155509633E+02  0.36014301713E+01  0.53558089652E+02  0.47000000000E+01 0.  1.
          5    1    3    3  503    0  0.33916008358E+02 -0.25250956086E+01 -0.31844014819E+02  0.46827374585E+02  0.47000000000E+01 0.  1.
         -5    1    3    3    0  503 -0.50626055305E+02  0.14322503809E+02 -0.87676745172E+02  0.10235933389E+03  0.47000000000E+01 0. -1.
<mgrwt>
<rscale>  0 0.90187561E+02</rscale>
<asrwt>0</asrwt>
<pdfrwt beam="1">  1        1 0.28217339E-01 0.90491098E+02</pdfrwt>
<pdfrwt beam="2">  1       -1 0.87017731E-02 0.90491098E+02</pdfrwt>
<totfact> 0.11227119E+04</totfact>
</mgrwt>
</event>
<event>
 7    1  0.2964543E-004  0.1456411E+03  0.7546771E-02  0.1225440E+00
         -1   -1    0    0    0  501 -0.00000000000E+00  0.00000000000E+00  0.71917490604E+02  0.71917490604E+02  0.00000000000E+00 0.  1.
          1   -1    0    0  501    0  0.00000000000E+00 -0.00000000000E+00 -0.24896129720E+03  0.24896129720E+03  0.00000000000E+00 0. -1.
         23    2    1    2    0    0  0.24586904145E+02 -0.12498515566E+02 -0.14106258300E+03  0.17085888491E+03  0.92376282042E+02 0.  0.
          5    1    3    3  502    0  0.57084714586E+02 -0.16218261592E+02 -0.66213172582E+02  0.89039153589E+02  0.47000000000E+01 0. -1.
         -5    1    3    3    0  502 -0.32497810441E+02  0.37197460261E+01 -0.74849410414E+02  0.81819731320E+02  0.47000000000E+01 0.  1.
          5    1    1    2  503    0 -0.34379080015E+02  0.39050278412E+02 -0.81150418129E+02  0.96510754578E+02  0.47000000000E+01 0. -1.
         -5    1    1    2    0  503  0.97921758702E+01 -0.26551762846E+02  0.45169194533E+02  0.53509148313E+02  0.47000000000E+01 0.  1.
<mgrwt>
<rscale>  0 0.13136778E+03</rscale>
<asrwt>0</asrwt>
<pdfrwt beam="1">  1        1 0.38301737E-01 0.14564108E+03</pdfrwt>
<pdfrwt beam="2">  1       -1 0.11064230E-01 0.14564108E+03</pdfrwt>
<totfact> 0.55449827E+03</totfact>
</mgrwt>
</event>
<event>
 8    1  0.2964543E-004  0.1162572E+03  0.7546771E-02  0.1249983E+00
         -2   -1    0    0    0  501 -0.00000000000E+00  0.00000000000E+00  0.27409396223E+02  0.27409396223E+02  0.00000000000E+00 0.  1.
          2   -1    0    0  501    0  0.00000000000E+00 -0.00000000000E+00 -0.61760698081E+03  0.61760698081E+03  0.00000000000E+00 0. -1.
         23    2    1    2    0    0  0.38045782249E+02 -0.58240063899E+02 -0.44450874981E+03  0.45946030295E+03  0.93146952410E+02 0.  0.
         23    2    1    2    0    0 -0.38045782249E+02  0.58240063899E+02 -0.14568883478E+03  0.18555607408E+03  0.91468210099E+02 0.  0.
          5    1    4    4  502    0 -0.53702148184E+02  0.17581488639E+02 -0.35312487184E+02  0.66798886319E+02  0.47000000000E+01 0. -1.
         -5    1    4    4    0  502  0.15656365935E+02  0.40658575261E+02 -0.11037634759E+03  0.11875718776E+03  0.47000000000E+01 0.  1.
          5    1    3    3  503    0  0.38774190106E+02 -0.82052766207E+02 -0.37419523808E+03  0.38507176015E+03  0.47000000000E+01 0. -1.
         -5    1    3    3    0  503 -0.72840785707E+00  0.23812702308E+02 -0.70313511725E+02  0.74388542803E+02  0.47000000000E+01 0.  1.
<mgrwt>
<rscale>  0 0.11592060E+03</rscale>
<asrwt>0</asrwt>
<pdfrwt beam="1">  1        2 0.95016454E-01 0.11625722E+03</pdfrwt>
<pdfrwt beam="2">  1       -2 0.42168304E-02 0.11625722E+03</pdfrwt>
<totfact> 0.11659094E+04</totfact>
</mgrwt>
</event>
<event>
 8    1  0.3867472E-004  0.9798155E+02  0.7546771E-02  0.1287241E+00
          2   -1    0    0  501    0  0.00000000000E+00  0.00000000000E+00  0.54982583577E+03  0.54982583577E+03  0.00000000000E+00 0. -1.
         -2   -1    0    0    0  501 -0.00000000000E+00 -0.00000000000E+00 -0.36501949178E+02  0.36501949178E+02  0.00000000000E+00 0.  1.
         23    2    1    2    0    0  0.36495530277E+01  0.46787076852E+01  0.47006901842E+03  0.47922331002E+03  0.93031657200E+02 0.  0.
         23    2    1    2    0    0 -0.36495530277E+01 -0.46787076852E+01  0.43254868170E+02  0.10710447493E+03  0.97801714641E+02 0.  0.
          5    1    4    4  502    0 -0.44473012635E+02 -0.25338384394E+02  0.16968201061E+02  0.54128480709E+02  0.47000000000E+01 0. -1.
         -5    1    3    3    0  503  0.37893851069E+02  0.31456639500E+02  0.25490276458E+03  0.25965934127E+03  0.47000000000E+01 0.  1.
          5    1    3    3  503    0 -0.34244298041E+02 -0.26777931814E+02  0.21516625384E+03  0.21956396875E+03  0.47000000000E+01 0. -1.
         -5    1    4    4    0  502  0.40823459608E+02  0.20659676709E+02  0.26286667110E+02  0.52975994222E+02  0.47000000000E+01 0.  1.
<mgrwt>
<rscale>  0 0.96769017E+02</rscale>
<asrwt>0</asrwt>
<pdfrwt beam="1">  1        2 0.84588584E-01 0.97981554E+02</pdfrwt>
<pdfrwt beam="2">  1       -2 0.56156849E-02 0.97981554E+02</pdfrwt>
<totfact> 0.85574951E+03</totfact>
</mgrwt>
</event>
<event>
 8    1  0.2964543E-004  0.1102451E+03  0.7546771E-02  0.1261124E+00
          3   -1    0    0  501    0  0.00000000000E+00  0.00000000000E+00  0.55648570575E+02  0.55648570575E+02  0.00000000000E+00 0. -1.
         -3   -1    0    0    0  501 -0.00000000000E+00 -0.00000000000E+00 -0.23942290186E+03  0.23942290186E+03  0.00000000000E+00 0.  1.
         23    2    1    2    0    0  0.12744248312E+01 -0.66609884803E+02 -0.13900728831E+03  0.17608376990E+03  0.85111496901E+02 0.  0.
         23    2    1    2    0    0 -0.12744248312E+01  0.66609884803E+02 -0.44767042975E+02  0.11898770254E+03  0.87837829591E+02 0.  0.
          5    1    4    4  502    0  0.23938650610E+02  0.13514621601E+02  0.17743426656E+02  0.33054851074E+02  0.47000000000E+01 0. -1.
         -5    1    4    4    0  502 -0.25213075442E+02  0.53095263203E+02 -0.62510469631E+02  0.85932851467E+02  0.47000000000E+01 0.  1.
          5    1    3    3  503    0  0.35736313461E+02 -0.60001681094E+02 -0.72712744578E+02  0.10092828671E+03  0.47000000000E+01 0. -1.
         -5    1    3    3    0  503 -0.34461888629E+02 -0.66082037086E+01 -0.66294543736E+02  0.75155483189E+02  0.47000000000E+01 0.  1.
<mgrwt>
<rscale>  0 0.10970119E+03</rscale>
<asrwt>0</asrwt>
<pdfrwt beam="1">  1        3 0.85613186E-02 0.11024511E+03</pdfrwt>
<pdfrwt beam="2">  1       -3 0.36834292E-01 0.11024511E+03</pdfrwt>
<totfact> 0.15394594E+03</totfact>
</mgrwt>
</event>
<event>
 8    1  0.2964543E-004  0.1216541E+03  0.7546771E-02  0.1241647E+00
          3   -1    0    0  501    0  0.00000000000E+00  0.00000000000E+00  0.78782308446E+02  0.78782308446E+02  0.00000000000E+00 0. -1.
         -3   -1    0    0    0  501 -0.00000000000E+00 -0.00000000000E+00 -0.38927146623E+03  0.38927146623E+03  0.00000000000E+00 0.  1.
         23    2    1    2    0    0 -0.75974521243E+02  0.43155761522E+01  0.14107257564E+02  0.12246930468E+03  0.94915561408E+02 0.  0.
         23    2    1    2    0    0  0.75974521243E+02 -0.43155761522E+01 -0.32459641534E+03  0.34558446999E+03  0.90967252179E+02 0.  0.
          5    1    3    3  502    0 -0.43350724466E+02  0.47543581597E+02  0.20603536720E+02  0.67722028825E+02  0.47000000000E+01 0. -1.
         -5    1    4    4    0  503  0.35469121643E+02 -0.17817827192E+02 -0.28293719914E+03  0.28574653491E+03  0.47000000000E+01 0.  1.
          5    1    4    4  503    0  0.40505399599E+02  0.13502251039E+02 -0.41659216200E+02  0.59837935077E+02  0.47000000000E+01 0. -1.
         -5    1    3    3    0  502 -0.32623796777E+02 -0.43228005444E+02 -0.64962791556E+01  0.54747275856E+02  0.47000000000E+01 0.  1.
<mgrwt>
<rscale>  0 0.12088309E+03</rscale>
<asrwt>0</asrwt>
<pdfrwt beam="1">  1        3 0.12120355E-01 0.12165408E+03</pdfrwt>
<pdfrwt beam="2">  1       -3 0.59887917E-01 0.12165408E+03</pdfrwt>
<totfact> 0.33828544E+02</totfact>
</mgrwt>
</event>
<event>
 8    1  0.2964543E-004  0.1030961E+03  0.7546771E-02  0.1280460E+00
         -2   -1    0    0    0  501 -0.00000000000E+00  0.00000000000E+00  0.13509054718E+03  0.13509054718E+03  0.00000000000E+00 0.  1.
          2   -1    0    0  501    0  0.00000000000E+00 -0.00000000000E+00 -0.46362653813E+03  0.46362653813E+03  0.00000000000E+00 0. -1.
         23    2    1    2    0    0  0.40002914331E+02  0.17158267654E+02  0.11313413460E+03  0.14517401664E+03  0.79884437724E+02 0.  0.
         23    2    1    2    0    0 -0.40002914331E+02 -0.17158267654E+02 -0.44167012556E+03  0.45354306867E+03  0.93456813673E+02 0.  0.
          5    1    4    4  502    0 -0.43212051438E+02 -0.47195186610E+02 -0.37153693734E+03  0.37703640784E+03  0.47000000000E+01 0. -1.
         -5    1    3    3    0  503  0.24991556365E+02 -0.74348658563E+01  0.11291310940E+03  0.11597980598E+03  0.47000000000E+01 0.  1.
          5    1    3    3  503    0  0.15011357965E+02  0.24593133510E+02  0.22102519949E+00  0.29194210658E+02  0.47000000000E+01 0. -1.
         -5    1    4    4    0  502  0.32091371075E+01  0.30036918956E+02 -0.70133188218E+02  0.76506660827E+02  0.47000000000E+01 0.  1.
<mgrwt>
<rscale>  0 0.99921846E+02</rscale>
<asrwt>0</asrwt>
<pdfrwt beam="1">  1        2 0.71327160E-01 0.10309615E+03</pdfrwt>
<pdfrwt beam="2">  1       -2 0.20783161E-01 0.10309615E+03</pdfrwt>
<totfact> 0.13102338E+03</totfact>
</mgrwt>
</event>
<event>
 8    1  0.2964543E-004  0.1084905E+03  0.7546771E-02  0.1266662E+00
         -1   -1    0    0    0  501 -0.00000000000E+00  0.00000000000E+00  0.50977297237E+02  0.50977297237E+02  0.00000000000E+00 0.  1.
          1   -1    0    0  501    0  0.00000000000E+00 -0.00000000000E+00 -0.22790193419E+03  0.22790193419E+03  0.00000000000E+00 0. -1.
         23    2    1    2    0    0  0.39577675383E+02  0.17351730365E+02 -0.55081880167E+02  0.11573561748E+03  0.92158801512E+02 0.  0.
         23    2    1    2    0    0 -0.39577675383E+02 -0.17351730365E+02 -0.12184275678E+03  0.16314361394E+03  0.99512343223E+02 0.  0.
          5    1    3    3  502    0 -0.65233257981E+01 -0.24572145371E+02  0.78788053236E+01  0.27027942595E+02  0.47000000000E+01 0. -1.
         -5    1    3    3    0  502  0.46101001181E+02  0.41923875736E+02 -0.62960685490E+02  0.88707674888E+02  0.47000000000E+01 0.  1.
          5    1    4    4  503    0 -0.49982688535E+02 -0.49333737434E+02 -0.59557281033E+02  0.92202204564E+02  0.47000000000E+01 0. -1.
         -5    1    4    4    0  503  0.10405013152E+02  0.31982007069E+02 -0.62285475752E+02  0.70941409378E+02  0.47000000000E+01 0.  1.
<mgrwt>
<rscale>  0 0.10677447E+03</rscale>
<asrwt>0</asrwt>
<pdfrwt beam="1">  1        1 0.35061836E-01 0.10849047E+03</pdfrwt>
<pdfrwt beam="2">  1       -1 0.78426612E-02 0.10849047E+03</pdfrwt>
<totfact> 0.10207746E+04</totfact>
</mgrwt>
</event>
<event>
 8    1  0.2964543E-004  0.9288272E+02  0.7546771E-02  0.1296391E+00
          1   -1    0    0  501    0  0.00000000000E+00  0.00000000000E+00  0.23796655940E+02  0.23796655940E+02  0.00000000000E+00 0. -1.
         -1   -1    0    0    0  501 -0.00000000000E+00 -0.00000000000E+00 -0.36645345654E+03  0.36645345654E+03  0.00000000000E+00 0.  1.
         23    2    1    2    0    0 -0.17435012879E+02 -0.70899352123E+00 -0.19773021102E+03  0.21845923274E+03  0.91228930037E+02 0.  0.
         23    2    1    2    0    0  0.17435012879E+02  0.70899352123E+00 -0.14492658959E+03  0.17179087974E+03  0.90575425184E+02 0.  0.
          5    1    4    4  502    0 -0.33311748973E+02  0.17614769890E+02 -0.69600578629E+02  0.79286085055E+02  0.47000000000E+01 0. -1.
         -5    1    4    4    0  502  0.50746761852E+02 -0.16905776369E+02 -0.75326010959E+02  0.92504794687E+02  0.47000000000E+01 0.  1.
          5    1    3    3  503    0  0.26041066316E+02  0.51401672528E+01 -0.15399471980E+03  0.15633624717E+03  0.47000000000E+01 0. -1.
         -5    1    3    3    0  503 -0.43476079194E+02 -0.58491607740E+01 -0.43735491216E+02  0.62122985568E+02  0.47000000000E+01 0.  1.
<mgrwt>
<rscale>  0 0.92721858E+02</rscale>
<asrwt>0</asrwt>
<pdfrwt beam="1">  1        1 0.36610242E-02 0.92882722E+02</pdfrwt>
<pdfrwt beam="2">  1       -1 0.56377452E-01 0.92882722E+02</pdfrwt>
<totfact> 0.77169460E+03</totfact>
</mgrwt>
</event>
<event>
 8    1  0.2964543E-004  0.9507260E+02  0.7546771E-02  0.1295177E+00
         -1   -1    0    0    0  501 -0.00000000000E+00  0.00000000000E+00  0.75959342625E+02  0.75959342625E+02  0.00000000000E+00 0.  1.
          1   -1    0    0  501    0  0.00000000000E+00 -0.00000000000E+00 -0.11837097621E+03  0.11837097621E+03  0.00000000000E+00 0. -1.
         23    2    1    2    0    0 -0.16088385366E+02  0.21895983388E+02 -0.47367394617E+02  0.10621896455E+03  0.91107234209E+02 0.  0.
         23    2    1    2    0    0  0.16088385366E+02 -0.21895983388E+02  0.49557610336E+01  0.88111354283E+02  0.83670669616E+02 0.  0.
          5    1    3    3  502    0 -0.52041752198E+02  0.24758095761E+02 -0.35994946629E+02  0.68110450449E+02  0.47000000000E+01 0. -1.
         -5    1    4    4    0  503 -0.91791185619E+01 -0.21625348054E+02  0.38807829451E+02  0.45607559930E+02  0.47000000000E+01 0.  1.
          5    1    4    4  503    0  0.25267503928E+02 -0.27063533352E+00 -0.33852068418E+02  0.42503794353E+02  0.47000000000E+01 0. -1.
         -5    1    3    3    0  502  0.35953366832E+02 -0.28621123732E+01 -0.11372447988E+02  0.38108514102E+02  0.47000000000E+01 0.  1.
<mgrwt>
<rscale>  0 0.93245413E+02</rscale>
<asrwt>0</asrwt>
<pdfrwt beam="1">  1        1 0.18210919E-01 0.95072595E+02</pdfrwt>
<pdfrwt beam="2">  1       -1 0.11686053E-01 0.95072595E+02</pdfrwt>
<totfact> 0.12472372E+04</totfact>
</mgrwt>
</event>
<event>
 8    1  0.2964543E-004  0.9512745E+02  0.7546771E-02  0.1291693E+00
          2   -1    0    0  501    0  0.00000000000E+00  0.00000000000E+00  0.10533330963E+03  0.10533330963E+03  0.00000000000E+00 0. -1.
         -2   -1    0    0    0  501 -0.00000000000E+00 -0.00000000000E+00 -0.84881705254E+02  0.84881705254E+02  0.00000000000E+00 0.  1.
         23    2    1    2    0    0 -0.16556292556E+02  0.12193123001E+02  0.50125915774E+01  0.93842849419E+02  0.91425222127E+02 0.  0.
         23    2    1    2    0    0  0.16556292556E+02 -0.12193123001E+02  0.15439012803E+02  0.96372165470E+02  0.92878674029E+02 0.  0.
          5    1    4    4  502    0  0.51661271333E+02  0.82228915826E+01 -0.41664350144E+00  0.52523961137E+02  0.47000000000E+01 0. -1.
         -5    1    3    3    0  503 -0.49471731463E+02  0.95912323693E+01 -0.17559822721E+02  0.53571273331E+02  0.47000000000E+01 0.  1.
          5    1    3    3  503    0  0.32915438907E+02  0.26018906312E+01  0.22572414298E+02  0.40271576088E+02  0.47000000000E+01 0. -1.
         -5    1    4    4    0  502 -0.35104978777E+02 -0.20416014583E+02  0.15855656304E+02  0.43848204333E+02  0.47000000000E+01 0.  1.
<mgrwt>
<rscale>  0 0.94770805E+02</rscale>
<asrwt>0</asrwt>
<pdfrwt beam="1">  1        2 0.16205125E-01 0.95127447E+02</pdfrwt>
<pdfrwt beam="2">  1       -2 0.13058724E-01 0.95127447E+02</pdfrwt>
<totfact> 0.13800964E+04</totfact>
</mgrwt>
</event>
<event>
 8    1  0.2964543E-004  0.1355885E+03  0.7546771E-02  0.1220472E+00
         -1   -1    0    0    0  501 -0.00000000000E+00  0.00000000000E+00  0.51031449902E+02  0.51031449902E+02  0.00000000000E+00 0.  1.
          1   -1    0    0  501    0  0.00000000000E+00 -0.00000000000E+00 -0.35678799008E+03  0.35678799008E+03  0.00000000000E+00 0. -1.
         23    2    1    2    0    0  0.26818797263E+01 -0.98701222829E+02 -0.17424867368E+03  0.21893177436E+03  0.88427358217E+02 0.  0.
         23    2    1    2    0    0 -0.26818797263E+01  0.98701222829E+02 -0.13150786650E+03  0.18888766562E+03  0.92925278605E+02 0.  0.
          5    1    4    4  502    0 -0.43487927797E+02  0.69120703527E+02 -0.10028471587E+03  0.12941400912E+03  0.47000000000E+01 0. -1.
         -5    1    3    3    0  503  0.35470030134E+02 -0.49493796934E+02 -0.42380745277E+02  0.74336912385E+02  0.47000000000E+01 0.  1.
          5    1    3    3  503    0 -0.32788150408E+02 -0.49207425894E+02 -0.13186792840E+03  0.14459486198E+03  0.47000000000E+01 0. -1.
         -5    1    4    4    0  502  0.40806048071E+02  0.29580519301E+02 -0.31223150629E+02  0.59473656492E+02  0.47000000000E+01 0.  1.
<mgrwt>
<rscale>  0 0.13482144E+03</rscale>
<asrwt>0</asrwt>
<pdfrwt beam="1">  1        1 0.54890461E-01 0.13558846E+03</pdfrwt>
<pdfrwt beam="2">  1       -1 0.78509921E-02 0.13558846E+03</pdfrwt>
<totfact> 0.59556676E+03</totfact>
</mgrwt>
</event>
<event>
 8    1  0.2964543E-004  0.1100117E+03  0.7546771E-02  0.1261137E+00
          1   -1    0    0  501    0  0.00000000000E+00  0.00000000000E+00  0.34330067106E+02  0.34330067106E+02  0.00000000000E+00 0. -1.
         -1   -1    0    0    0  501 -0.00000000000E+00 -0.00000000000E+00 -0.36062195134E+03  0.36062195134E+03  0.00000000000E+00 0.  1.
         23    2    1    2    0    0 -0.49205555425E+02  0.33144112295E+02 -0.20027258209E+03  0.22849876868E+03  0.92643733111E+02 0.  0.
         23    2    1    2    0    0  0.49205555425E+02 -0.33144112295E+02 -0.12601930214E+03  0.16645324977E+03  0.91137813128E+02 0.  0.
          5    1    3    3  502    0 -0.15950687443E+02 -0.32236925766E+02 -0.59284294823E+02  0.69500801617E+02  0.47000000000E+01 0. -1.
         -5    1    4    4    0  503  0.31356704659E+01  0.28227584758E+02 -0.53558581622E+02  0.60804939240E+02  0.47000000000E+01 0.  1.
          5    1    4    4  503    0  0.46069884959E+02 -0.61371697053E+02 -0.72460720520E+02  0.10564831053E+03  0.47000000000E+01 0. -1.
         -5    1    3    3    0  502 -0.33254867982E+02  0.65381038060E+02 -0.14098828727E+03  0.15899796706E+03  0.47000000000E+01 0.  1.
<mgrwt>
<rscale>  0 0.10969407E+03</rscale>
<asrwt>0</asrwt>
<pdfrwt beam="1">  1        1 0.52815485E-02 0.11001173E+03</pdfrwt>
<pdfrwt beam="2">  1       -1 0.55480303E-01 0.11001173E+03</pdfrwt>
<totfact> 0.48980674E+03</totfact>
</mgrwt>
</event>
<event>
 8    1  0.2964543E-004  0.1158383E+03  0.7546771E-02  0.1250359E+00
         -2   -1    0    0    0  501 -0.00000000000E+00  0.00000000000E+00  0.12627657735E+02  0.12627657735E+02  0.00000000000E+00 0.  1.
          2   -1    0    0  501    0  0.00000000000E+00 -0.00000000000E+00 -0.10888874510E+04  0.10888874510E+04  0.00000000000E+00 0. -1.
         23    2    1    2    0    0 -0.62221431478E+02  0.34050189154E+02 -0.63260058598E+03  0.64311898084E+03  0.91583842572E+02 0.  0.
         23    2    1    2    0    0  0.62221431478E+02 -0.34050189154E+02 -0.44365920724E+03  0.45839612785E+03  0.90898822550E+02 0.  0.
          5    1    4    4  502    0  0.60047820711E+02  0.15190341449E+02 -0.18830220225E+03  0.19828337454E+03  0.47000000000E+01 0. -1.
         -5    1    3    3    0  503 -0.51303220829E+02 -0.23741416047E+02 -0.32419908310E+03  0.32912430902E+03  0.47000000000E+01 0.  1.
          5    1    3    3  503    0 -0.10918210648E+02  0.57791605200E+02 -0.30840150288E+03  0.31399467182E+03  0.47000000000E+01 0. -1.
         -5    1    4    4    0  502  0.21736107665E+01 -0.49240530603E+02 -0.25535700499E+03  0.26011275331E+03  0.47000000000E+01 0.  1.
<mgrwt>
<rscale>  0 0.11570290E+03</rscale>
<asrwt>0</asrwt>
<pdfrwt beam="1">  1        2 0.16752116E+00 0.11583834E+03</pdfrwt>
<pdfrwt beam="2">  1       -2 0.19427165E-02 0.11583834E+03</pdfrwt>
<totfact> 0.17722087E+04</totfact>
</mgrwt>
</event>
<event>
 8    1  0.2964543E-004  0.9792716E+02  0.7546771E-02  0.1286348E+00
         -1   -1    0    0    0  501 -0.00000000000E+00  0.00000000000E+00  0.68388185727E+02  0.68388185727E+02  0.00000000000E+00 0.  1.
          1   -1    0    0  501    0  0.00000000000E+00 -0.00000000000E+00 -0.33115772070E+03  0.33115772070E+03  0.00000000000E+00 0. -1.
         23    2    1    2    0    0 -0.14727829091E+02 -0.19481895470E+02 -0.28390410668E+03  0.29936407488E+03  0.91765213127E+02 0.  0.
         23    2    1    2    0    0  0.14727829091E+02  0.19481895470E+02  0.21134571705E+02  0.10018183155E+03  0.94832884855E+02 0.  0.
          5    1    3    3  502    0  0.27808194075E+02 -0.38264162465E+02 -0.16114648587E+03  0.16801107611E+03  0.47000000000E+01 0. -1.
         -5    1    3    3    0  502 -0.42536023166E+02  0.18782266995E+02 -0.12275762081E+03  0.13135299877E+03  0.47000000000E+01 0.  1.
          5    1    4    4  503    0 -0.21540095142E+02 -0.16479231469E+02 -0.20337004799E+02  0.34223157843E+02  0.47000000000E+01 0. -1.
         -5    1    4    4    0  503  0.36267924233E+02  0.35961126938E+02  0.41471576504E+02  0.65958673703E+02  0.47000000000E+01 0.  1.
<mgrwt>
<rscale>  0 0.97176665E+02</rscale>
<asrwt>0</asrwt>
<pdfrwt beam="1">  1        1 0.50947343E-01 0.97927163E+02</pdfrwt>
<pdfrwt beam="2">  1       -1 0.10521259E-01 0.97927163E+02</pdfrwt>
<totfact> 0.41147083E+03</totfact>
</mgrwt>
</event>
<event>
 8    1  0.2964543E-004  0.1403908E+03  0.7546771E-02  0.1217122E+00
          1   -1    0    0  501    0  0.00000000000E+00  0.00000000000E+00  0.35346494683E+03  0.35346494683E+03  0.00000000000E+00 0. -1.
         -1   -1    0    0    0  501 -0.00000000000E+00 -0.00000000000E+00 -0.90208949800E+02  0.90208949800E+02  0.00000000000E+00 0.  1.
         23    2    1    2    0    0  0.10742107830E+03 -0.19784025654E+02 -0.11147090423E+02  0.14083268114E+03  0.88198019933E+02 0.  0.
         23    2    1    2    0    0 -0.10742107830E+03  0.19784025654E+02  0.27440308746E+03  0.30284121549E+03  0.66970528293E+02 0.  0.
          5    1    4    4  502    0 -0.52688570446E+02  0.36185013555E+02  0.19233286216E+03  0.20273001881E+03  0.47000000000E+01 0. -1.
         -5    1    3    3    0  503  0.40891302858E+02 -0.51075163225E+02 -0.14131504578E+02  0.67101120479E+02  0.47000000000E+01 0.  1.
          5    1    3    3  503    0  0.66529775438E+02  0.31291137571E+02  0.29844141559E+01  0.73731560665E+02  0.47000000000E+01 0. -1.
         -5    1    4    4    0  502 -0.54732507849E+02 -0.16400987901E+02  0.82070225301E+02  0.10011119668E+03  0.47000000000E+01 0.  1.
<mgrwt>
<rscale>  0 0.13721818E+03</rscale>
<asrwt>0</asrwt>
<pdfrwt beam="1">  1        1 0.54379222E-01 0.14039083E+03</pdfrwt>
<pdfrwt beam="2">  1       -1 0.13878300E-01 0.14039083E+03</pdfrwt>
<totfact> 0.25225450E+03</totfact>
</mgrwt>
</event>
<event>
 8    1  0.2964543E-004  0.9962111E+02  0.7546771E-02  0.1282102E+00
         -2   -1    0    0    0  501 -0.00000000000E+00  0.00000000000E+00  0.13270428126E+02  0.13270428126E+02  0.00000000000E+00 0.  1.
          2   -1    0    0  501    0  0.00000000000E+00 -0.00000000000E+00 -0.76337952554E+03  0.76337952554E+03  0.00000000000E+00 0. -1.
         23    2    1    2    0    0 -0.25108408589E+02  0.25732300796E+02 -0.30201455620E+03  0.31802068880E+03  0.92907388655E+02 0.  0.
         23    2    1    2    0    0  0.25108408589E+02 -0.25732300796E+02 -0.44809454122E+03  0.45862926487E+03  0.90881798138E+02 0.  0.
          5    1    4    4  502    0  0.52615249401E+02 -0.21153039932E+02 -0.17373443592E+03  0.18281564428E+03  0.47000000000E+01 0. -1.
         -5    1    4    4    0  502 -0.27506840811E+02 -0.45792608638E+01 -0.27436010530E+03  0.27581362059E+03  0.47000000000E+01 0.  1.
          5    1    3    3  503    0 -0.49629780602E+02  0.29944804716E+02 -0.27464752256E+03  0.28073681287E+03  0.47000000000E+01 0. -1.
         -5    1    3    3    0  503  0.24521372013E+02 -0.42125039196E+01 -0.27367033640E+02  0.37283875938E+02  0.47000000000E+01 0.  1.
<mgrwt>
<rscale>  0 0.99146141E+02</rscale>
<asrwt>0</asrwt>
<pdfrwt beam="1">  1        2 0.11744305E+00 0.99621114E+02</pdfrwt>
<pdfrwt beam="2">  1       -2 0.20416035E-02 0.99621114E+02</pdfrwt>
<totfact> 0.25906260E+04</totfact>
</mgrwt>
</event>
<event>
 8    1  0.2964543E-004  0.1039703E+03  0.7546771E-02  0.1274033E+00
         -2   -1    0    0    0  501 -0.00000000000E+00  0.00000000000E+00  0.10494909857E+03  0.10494909857E+03  0.00000000000E+00 0.  1.
          2   -1    0    0  501    0  0.00000000000E+00 -0.00000000000E+00 -0.12620705838E+03  0.12620705838E+03  0.00000000000E+00 0. -1.
         23    2    1    2    0    0 -0.41086316499E+02 -0.11390100356E+02 -0.64050391428E+02  0.12211583029E+03  0.94826175588E+02 0.  0.
         23    2    1    2    0    0  0.41086316499E+02  0.11390100356E+02  0.42792431610E+02  0.10904032666E+03  0.90778746658E+02 0.  0.
          5    1    3    3  502    0 -0.68792549281E+02 -0.68011173694E+01 -0.62960941856E+02  0.93620725448E+02  0.47000000000E+01 0. -1.
         -5    1    3    3    0  502  0.27706232782E+02 -0.45889829863E+01 -0.10894495727E+01  0.28495104846E+02  0.47000000000E+01 0.  1.
          5    1    4    4  503    0 -0.76094977451E+01 -0.30436983608E+02 -0.43899680941E-01  0.31723908244E+02  0.47000000000E+01 0. -1.
         -5    1    4    4    0  503  0.48695814244E+02  0.41827083963E+02  0.42836331291E+02  0.77316418413E+02  0.47000000000E+01 0.  1.
<mgrwt>
<rscale>  0 0.10303842E+03</rscale>
<asrwt>0</asrwt>
<pdfrwt beam="1">  1        2 0.19416470E-01 0.10397030E+03</pdfrwt>
<pdfrwt beam="2">  1       -2 0.16146015E-01 0.10397030E+03</pdfrwt>
<totfact> 0.80402968E+03</totfact>
</mgrwt>
</event>
<event>
 8    1  0.2964543E-004  0.1014043E+03  0.7546771E-02  0.1278586E+00
          1   -1    0    0  501    0  0.00000000000E+00  0.00000000000E+00  0.13039133035E+03  0.13039133035E+03  0.00000000000E+00 0. -1.
         -1   -1    0    0    0  501 -0.00000000000E+00 -0.00000000000E+00 -0.79506875167E+02  0.79506875167E+02  0.00000000000E+00 0.  1.
         23    2    1    2    0    0  0.41952622480E+02  0.31920085443E+01  0.67543662212E+01  0.99307575160E+02  0.89700398938E+02 0.  0.
         23    2    1    2    0    0 -0.41952622480E+02 -0.31920085443E+01  0.44130088963E+02  0.11059063036E+03  0.92263813705E+02 0.  0.
          5    1    4    4  502    0  0.22402186508E+02  0.58790048170E+01  0.38516169188E+02  0.45188559912E+02  0.47000000000E+01 0. -1.
         -5    1    3    3    0  503  0.56477735889E+01  0.26862483841E+02  0.36955644383E+02  0.46274183260E+02  0.47000000000E+01 0.  1.
          5    1    3    3  503    0  0.36304848891E+02 -0.23670475297E+02 -0.30201278162E+02  0.53033391900E+02  0.47000000000E+01 0. -1.
         -5    1    4    4    0  502 -0.64354808988E+02 -0.90710133613E+01  0.56139197751E+01  0.65402070445E+02  0.47000000000E+01 0.  1.
<mgrwt>
<rscale>  0 0.10081752E+03</rscale>
<asrwt>0</asrwt>
<pdfrwt beam="1">  1        1 0.20060205E-01 0.10140425E+03</pdfrwt>
<pdfrwt beam="2">  1       -1 0.12231827E-01 0.10140425E+03</pdfrwt>
<totfact> 0.10356955E+04</totfact>
</mgrwt>
</event>
<event>
 8    1  0.2964543E-004  0.1986035E+03  0.7546771E-02  0.1151163E+00
         -2   -1    0    0    0  501 -0.00000000000E+00  0.00000000000E+00  0.24298660081E+02  0.24298660081E+02  0.00000000000E+00 0.  1.
          2   -1    0    0  501    0  0.00000000000E+00 -0.00000000000E+00 -0.18346579720E+04  0.18346579720E+04  0.00000000000E+00 0. -1.
         23    2    1    2    0    0  0.15048825942E+03  0.89491814250E+02 -0.12297254793E+04  0.12456597081E+04  0.93743548302E+02 0.  0.
         23    2    1    2    0    0 -0.15048825942E+03 -0.89491814250E+02 -0.58063383261E+03  0.61329692399E+03  0.91334376711E+02 0.  0.
          5    1    3    3  502    0  0.13793219529E+03  0.10741522240E+03 -0.10376717652E+04  0.10523060880E+04  0.47000000000E+01 0. -1.
         -5    1    3    3    0  502  0.12556064131E+02 -0.17923408153E+02 -0.19205371414E+03  0.19335362014E+03  0.47000000000E+01 0.  1.
          5    1    4    4  503    0 -0.20369063913E+02 -0.13416161113E+02 -0.23357218184E+03  0.23488922128E+03  0.47000000000E+01 0. -1.
         -5    1    4    4    0  503 -0.13011919550E+03 -0.76075653137E+02 -0.34706165077E+03  0.37840770272E+03  0.47000000000E+01 0.  1.
<mgrwt>
<rscale>  0 0.19832147E+03</rscale>
<asrwt>0</asrwt>
<pdfrwt beam="1">  1        2 0.28225507E+00 0.19860351E+03</pdfrwt>
<pdfrwt beam="2">  1       -2 0.37382554E-02 0.19860351E+03</pdfrwt>
<totfact> 0.27653777E+03</totfact>
</mgrwt>
</event>
<event>
 8    1  0.2964543E-004  0.9304369E+02  0.7546771E-02  0.1297412E+00
         -1   -1    0    0    0  501 -0.00000000000E+00  0.00000000000E+00  0.29566410306E+03  0.29566410306E+03  0.00000000000E+00 0.  1.
          1   -1    0    0  501    0  0.00000000000E+00 -0.00000000000E+00 -0.28418705030E+02  0.28418705030E+02  0.00000000000E+00 0. -1.
         23    2    1    2    0    0  0.66552052422E+01 -0.12231487927E+02  0.14412591204E+03  0.17155001499E+03  0.91995804628E+02 0.  0.
         23    2    1    2    0    0 -0.66552052422E+01  0.12231487927E+02  0.12311948599E+03  0.15253279310E+03  0.88960351200E+02 0.  0.
          5    1    3    3  502    0  0.46157959395E+02  0.39220289088E+01  0.51328959206E+02  0.69301454382E+02  0.47000000000E+01 0. -1.
         -5    1    3    3    0  502 -0.39502754153E+02 -0.16153516836E+02  0.92796952830E+02  0.10224856061E+03  0.47000000000E+01 0.  1.
          5    1    4    4  503    0  0.32661660326E+02 -0.20248962319E+02  0.56823411225E+02  0.68758960096E+02  0.47000000000E+01 0. -1.
         -5    1    4    4    0  503 -0.39316865568E+02  0.32480450247E+02  0.66296074765E+02  0.83773833000E+02  0.47000000000E+01 0.  1.
<mgrwt>
<rscale>  0 0.92284421E+02</rscale>
<asrwt>0</asrwt>
<pdfrwt beam="1">  1        1 0.43721087E-02 0.93043695E+02</pdfrwt>
<pdfrwt beam="2">  1       -1 0.45486783E-01 0.93043695E+02</pdfrwt>
<totfact> 0.89455871E+03</totfact>
</mgrwt>
</event>
<event>
 8    1  0.2964543E-004  0.9643318E+02  0.7546771E-02  0.1288958E+00
          1   -1    0    0  501    0  0.00000000000E+00  0.00000000000E+00  0.27260411493E+03  0.27260411493E+03  0.00000000000E+00 0. -1.
         -1   -1    0    0    0  501 -0.00000000000E+00 -0.00000000000E+00 -0.34360267719E+02  0.34360267719E+02  0.00000000000E+00 0.  1.
         23    2    1    2    0    0 -0.14683475592E+02  0.26953681539E+02  0.95841552325E+02  0.13595941010E+03  0.91418010473E+02 0.  0.
         23    2    1    2    0    0  0.14683475592E+02 -0.26953681539E+02  0.14240229489E+03  0.17100497255E+03  0.89566632422E+02 0.  0.
          5    1    4    4  502    0 -0.18108242046E+00 -0.58768665962E+02  0.95360758591E+02  0.11211401861E+03  0.47000000000E+01 0. -1.
         -5    1    3    3    0  503  0.12583280641E+02  0.35274336312E+02  0.20306064347E+01  0.37799882493E+02  0.47000000000E+01 0.  1.
          5    1    3    3  503    0 -0.27266756233E+02 -0.83206547736E+01  0.93810945890E+02  0.98159527608E+02  0.47000000000E+01 0. -1.
         -5    1    4    4    0  502  0.14864558013E+02  0.31814984423E+02  0.47041536296E+02  0.58890953939E+02  0.47000000000E+01 0.  1.
<mgrwt>
<rscale>  0 0.95991844E+02</rscale>
<asrwt>0</asrwt>
<pdfrwt beam="1">  1        1 0.41939093E-01 0.96433179E+02</pdfrwt>
<pdfrwt beam="2">  1       -1 0.52861952E-02 0.96433179E+02</pdfrwt>
<totfact> 0.14555459E+04</totfact>
</mgrwt>
</event>
<event>
 8    1  0.2964543E-004  0.9378874E+02  0.7546771E-02  0.1296661E+00
          1   -1    0    0  501    0  0.00000000000E+00  0.00000000000E+00  0.77423811471E+01  0.77423811471E+01  0.00000000000E+00 0. -1.
         -1   -1    0    0    0  501 -0.00000000000E+00 -0.00000000000E+00 -0.10830913760E+04  0.10830913760E+04  0.00000000000E+00 0.  1.
         23    2    1    2    0    0 -0.13141736040E+02 -0.17644979881E+02 -0.57750350038E+03  0.58506975691E+03  0.91171689441E+02 0.  0.
         23    2    1    2    0    0  0.13141736040E+02  0.17644979881E+02 -0.49784549446E+03  0.50576400022E+03  0.86388870985E+02 0.  0.
          5    1    4    4  502    0 -0.93882505965E+01  0.46148674934E+02 -0.19268555339E+03  0.19841283208E+03  0.47000000000E+01 0. -1.
         -5    1    3    3    0  503 -0.46298564337E+02 -0.25324244760E+02 -0.44663581919E+03  0.44976718357E+03  0.47000000000E+01 0.  1.
          5    1    3    3  503    0  0.33156828298E+02  0.76792648794E+01 -0.13086768119E+03  0.13530257333E+03  0.47000000000E+01 0. -1.
         -5    1    4    4    0  502  0.22529986636E+02 -0.28503695053E+02 -0.30515994106E+03  0.30735116815E+03  0.47000000000E+01 0.  1.
<mgrwt>
<rscale>  0 0.92605978E+02</rscale>
<asrwt>0</asrwt>
<pdfrwt beam="1">  1        1 0.11911357E-02 0.93788739E+02</pdfrwt>
<pdfrwt beam="2">  1       -1 0.16662942E+00 0.93788739E+02</pdfrwt>
<totfact> 0.33629948E+03</totfact>
</mgrwt>
</event>
<event>
 8    1  0.2964543E-004  0.1065415E+03  0.7546771E-02  0.1270490E+00
          2   -1    0    0  501    0  0.00000000000E+00  0.00000000000E+00  0.15859351887E+03  0.15859351887E+03  0.00000000000E+00 0. -1.
         -2   -1    0    0    0  501 -0.00000000000E+00 -0.00000000000E+00 -0.72714688130E+02  0.72714688130E+02  0.00000000000E+00 0.  1.
         23    2    1    2    0    0 -0.17607625979E+02 -0.45612241900E+02  0.73733461192E+02  0.12407670970E+03  0.86993686475E+02 0.  0.
         23    2    1    2    0    0  0.17607625979E+02  0.45612241900E+02  0.12145369547E+02  0.10723149730E+03  0.94660334396E+02 0.  0.
          5    1    3    3  502    0  0.31725906285E+02 -0.33941577122E+01  0.37898600448E+02  0.49763916166E+02  0.47000000000E+01 0. -1.
         -5    1    3    3    0  502 -0.49333532264E+02 -0.42218084188E+02  0.35834860744E+02  0.74312793533E+02  0.47000000000E+01 0.  1.
          5    1    4    4  503    0  0.45174003488E+02  0.59786030925E+02  0.10777803785E+02  0.75850584305E+02  0.47000000000E+01 0. -1.
         -5    1    4    4    0  503 -0.27566377509E+02 -0.14173789025E+02  0.13675657621E+01  0.31380912995E+02  0.47000000000E+01 0.  1.
<mgrwt>
<rscale>  0 0.10481242E+03</rscale>
<asrwt>0</asrwt>
<pdfrwt beam="1">  1        2 0.24399003E-01 0.10654147E+03</pdfrwt>
<pdfrwt beam="2">  1       -2 0.11186875E-01 0.10654147E+03</pdfrwt>
<totfact> 0.11267024E+04</totfact>
</mgrwt>
</event>
<event>
 8    1  0.2964543E-004  0.9324908E+02  0.7546771E-02  0.1295548E+00
         -1   -1    0    0    0  501 -0.00000000000E+00  0.00000000000E+00  0.12459888691E+03  0.12459888691E+03  0.00000000000E+00 0.  1.
          1   -1    0    0  501    0  0.00000000000E+00 -0.00000000000E+00 -0.32515526118E+03  0.32515526118E+03  0.00000000000E+00 0. -1.
         23    2    1    2    0    0  0.17547771882E+02  0.77215064055E+01  0.99125870943E+02  0.13609309102E+03  0.91257028083E+02 0.  0.
         23    2    1    2    0    0 -0.17547771882E+02 -0.77215064055E+01 -0.29968224520E+03  0.31366105707E+03  0.90588435635E+02 0.  0.
          5    1    4    4  502    0 -0.41745391979E+02 -0.34993315569E+02 -0.20274004587E+03  0.20998291855E+03  0.47000000000E+01 0. -1.
         -5    1    3    3    0  503  0.43121521075E+02 -0.22517090860E+02  0.74887306881E+02  0.89424178456E+02  0.47000000000E+01 0.  1.
          5    1    3    3  503    0 -0.25573749193E+02  0.30238597265E+02  0.24238564062E+02  0.46668912566E+02  0.47000000000E+01 0. -1.
         -5    1    4    4    0  502  0.24197620097E+02  0.27271809163E+02 -0.96942199340E+02  0.10367813852E+03  0.47000000000E+01 0.  1.
<mgrwt>
<rscale>  0 0.93085097E+02</rscale>
<asrwt>0</asrwt>
<pdfrwt beam="1">  1        1 0.50023887E-01 0.93249081E+02</pdfrwt>
<pdfrwt beam="2">  1       -1 0.19169059E-01 0.93249081E+02</pdfrwt>
<totfact> 0.16592930E+03</totfact>
</mgrwt>
</event>
<event>
 8    1  0.2964543E-004  0.1149485E+03  0.7546771E-02  0.1252130E+00
          1   -1    0    0  501    0  0.00000000000E+00  0.00000000000E+00  0.47850121045E+03  0.47850121045E+03  0.00000000000E+00 0. -1.
         -1   -1    0    0    0  501 -0.00000000000E+00 -0.00000000000E+00 -0.31812594762E+02  0.31812594762E+02  0.00000000000E+00 0.  1.
         23    2    1    2    0    0 -0.59003891518E+02  0.30293535197E+02  0.31965152026E+03  0.33969141742E+03  0.93882943990E+02 0.  0.
         23    2    1    2    0    0  0.59003891518E+02 -0.30293535197E+02  0.12703709543E+03  0.17062238779E+03  0.92598153942E+02 0.  0.
          5    1    3    3  502    0  0.26866064369E+01 -0.25551440094E+02  0.12900964427E+03  0.13162701949E+03  0.47000000000E+01 0. -1.
         -5    1    4    4    0  503  0.22948241889E+02  0.29647056993E+02  0.20222506601E+02  0.42855683023E+02  0.47000000000E+01 0.  1.
          5    1    4    4  503    0  0.36055649629E+02 -0.59940592190E+02  0.10681458883E+03  0.12776670477E+03  0.47000000000E+01 0. -1.
         -5    1    3    3    0  502 -0.61690497954E+02  0.55844975291E+02  0.19064187599E+03  0.20806439792E+03  0.47000000000E+01 0.  1.
<mgrwt>
<rscale>  0 0.11468590E+03</rscale>
<asrwt>0</asrwt>
<pdfrwt beam="1">  1        1 0.73615566E-01 0.11494853E+03</pdfrwt>
<pdfrwt beam="2">  1       -1 0.48942457E-02 0.11494853E+03</pdfrwt>
<totfact> 0.82168173E+03</totfact>
</mgrwt>
</event>
<event>
 8    1  0.2964543E-004  0.9705251E+02  0.7546771E-02  0.1286811E+00
          2   -1    0    0  501    0  0.00000000000E+00  0.00000000000E+00  0.15379486377E+03  0.15379486377E+03  0.00000000000E+00 0. -1.
         -2   -1    0    0    0  501 -0.00000000000E+00 -0.00000000000E+00 -0.80990286433E+02  0.80990286433E+02  0.00000000000E+00 0.  1.
         23    2    1    2    0    0  0.32960663488E+02  0.10456836743E+02 -0.21834954350E+02  0.99478413825E+02  0.90683178228E+02 0.  0.
         23    2    1    2    0    0 -0.32960663488E+02 -0.10456836743E+02  0.94639531683E+02  0.13530673638E+03  0.90307924232E+02 0.  0.
          5    1    3    3  502    0  0.33328117756E+02  0.42036670356E+02  0.95673360949E+01  0.54694323359E+02  0.47000000000E+01 0. -1.
         -5    1    3    3    0  502 -0.36745426816E+00 -0.31579833613E+02 -0.31402290445E+02  0.44784090466E+02  0.47000000000E+01 0.  1.
          5    1    4    4  503    0 -0.30635920134E+02  0.37225918759E+02  0.52801754717E+02  0.71655034234E+02  0.47000000000E+01 0. -1.
         -5    1    4    4    0  503 -0.23247433535E+01 -0.47682755502E+02  0.41837776966E+02  0.63651702141E+02  0.47000000000E+01 0.  1.
<mgrwt>
<rscale>  0 0.96964757E+02</rscale>
<asrwt>0</asrwt>
<pdfrwt beam="1">  1        2 0.23660748E-01 0.97052509E+02</pdfrwt>
<pdfrwt beam="2">  1       -2 0.12460044E-01 0.97052509E+02</pdfrwt>
<totfact> 0.97442661E+03</totfact>
</mgrwt>
</event>
<event>
 7    1  0.2964543E-004  0.2430507E+03  0.7546771E-02  0.1140895E+00
          1   -1    0    0  501    0  0.00000000000E+00  0.00000000000E+00  0.46016334731E+03  0.46016334731E+03  0.00000000000E+00 0. -1.
         -1   -1    0    0    0  501 -0.00000000000E+00 -0.00000000000E+00 -0.14884156395E+03  0.14884156395E+03  0.00000000000E+00 0.  1.
         23    2    1    2    0    0 -0.92511422617E+02 -0.43754855942E+02 -0.71827016302E+02  0.15526856761E+03  0.92067133571E+02 0.  0.
          5    1    1    2  502    0  0.65321410962E+02 -0.19155967849E+02  0.37880665773E+03  0.38490311998E+03  0.47000000000E+01 0. -1.
         -5    1    3    3    0  503 -0.30466236907E+02 -0.35994421099E+02 -0.79031241704E+02  0.92151055918E+02  0.47000000000E+01 0.  1.
          5    1    3    3  503    0 -0.62045185710E+02 -0.77604348428E+01  0.72042254013E+01  0.63117511694E+02  0.47000000000E+01 0. -1.
         -5    1    1    2    0  502  0.27190011655E+02  0.62910823791E+02  0.43421419375E+01  0.68833223668E+02  0.47000000000E+01 0.  1.
<mgrwt>
<rscale>  0 0.21084903E+03</rscale>
<asrwt>0</asrwt>
<pdfrwt beam="1">  1        1 0.70794361E-01 0.24305075E+03</pdfrwt>
<pdfrwt beam="2">  1       -1 0.22898702E-01 0.24305075E+03</pdfrwt>
<totfact> 0.81559061E+02</totfact>
</mgrwt>
</event>
<event>
 8    1  0.2964543E-004  0.1324160E+03  0.7546771E-02  0.1230581E+00
         -1   -1    0    0    0  501 -0.00000000000E+00  0.00000000000E+00  0.22948507846E+03  0.22948507846E+03  0.00000000000E+00 0.  1.
          1   -1    0    0  501    0  0.00000000000E+00 -0.00000000000E+00 -0.93442810619E+02  0.93442810619E+02  0.00000000000E+00 0. -1.
         23    2    1    2    0    0  0.17575717437E+02 -0.65365570359E+02 -0.21318982111E+02  0.11726660337E+03  0.93356272617E+02 0.  0.
         23    2    1    2    0    0 -0.17575717437E+02  0.65365570359E+02  0.15736124995E+03  0.20566128570E+03  0.11380877742E+03 0.  0.
          5    1    4    4  502    0 -0.46360316995E+02  0.44447599282E+02  0.15708095752E+03  0.16976862281E+03  0.47000000000E+01 0.  1.
         -5    1    3    3    0  503 -0.23295532762E+02 -0.24082188559E+02 -0.43322513761E+02  0.54968753406E+02  0.47000000000E+01 0.  1.
          5    1    3    3  503    0  0.40871250199E+02 -0.41283381800E+02  0.22003531650E+02  0.62297849968E+02  0.47000000000E+01 0. -1.
         -5    1    4    4    0  502  0.28784599558E+02  0.20917971077E+02  0.28029242634E+00  0.35892662893E+02  0.47000000000E+01 0. -1.
<mgrwt>
<rscale>  0 0.12791587E+03</rscale>
<asrwt>0</asrwt>
<pdfrwt beam="1">  1        1 0.14375817E-01 0.13241602E+03</pdfrwt>
<pdfrwt beam="2">  1       -1 0.35305396E-01 0.13241602E+03</pdfrwt>
<totfact> 0.29280455E+03</totfact>
</mgrwt>
</event>
<event>
 8    1  0.2964543E-004  0.9594448E+02  0.7546771E-02  0.1290574E+00
          2   -1    0    0  501    0  0.00000000000E+00  0.00000000000E+00  0.79947859175E+03  0.79947859175E+03  0.00000000000E+00 0. -1.
         -2   -1    0    0    0  501 -0.00000000000E+00 -0.00000000000E+00 -0.11230641372E+02  0.11230641372E+02  0.00000000000E+00 0.  1.
         23    2    1    2    0    0 -0.25705271628E+02 -0.75503938667E+01  0.42253291470E+03  0.43328905752E+03  0.92128030099E+02 0.  0.
         23    2    1    2    0    0  0.25705271628E+02  0.75503938667E+01  0.36571503568E+03  0.37742017560E+03  0.89334943833E+02 0.  0.
          5    1    4    4  502    0 -0.39934883562E+01  0.38753034327E+02  0.26340458721E+03  0.26631149465E+03  0.47000000000E+01 0. -1.
         -5    1    4    4    0  502  0.29698759984E+02 -0.31202640461E+02  0.10231044847E+03  0.11110868095E+03  0.47000000000E+01 0.  1.
          5    1    3    3  503    0 -0.32172093931E+02  0.35866695977E+02  0.16332191596E+03  0.17034553631E+03  0.47000000000E+01 0. -1.
         -5    1    3    3    0  503  0.64668223029E+01 -0.43417089844E+02  0.25921099874E+03  0.26294352121E+03  0.47000000000E+01 0.  1.
<mgrwt>
<rscale>  0 0.95267672E+02</rscale>
<asrwt>0</asrwt>
<pdfrwt beam="1">  1        2 0.12299666E+00 0.95944481E+02</pdfrwt>
<pdfrwt beam="2">  1       -2 0.17277916E-02 0.95944481E+02</pdfrwt>
<totfact> 0.31015168E+04</totfact>
</mgrwt>
</event>
<event>
 8    1  0.2964543E-004  0.1050698E+03  0.7546771E-02  0.1270001E+00
         -1   -1    0    0    0  501 -0.00000000000E+00  0.00000000000E+00  0.13954218416E+03  0.13954218416E+03  0.00000000000E+00 0.  1.
          1   -1    0    0  501    0  0.00000000000E+00 -0.00000000000E+00 -0.10417294456E+03  0.10417294456E+03  0.00000000000E+00 0. -1.
         23    2    1    2    0    0  0.37074289997E+02 -0.35455373239E+02 -0.42119720722E+02  0.11316170603E+03  0.91651046733E+02 0.  0.
         23    2    1    2    0    0 -0.37074289997E+02  0.35455373239E+02  0.77488960325E+02  0.13055342270E+03  0.91695532800E+02 0.  0.
          5    1    3    3  502    0  0.11576374937E+02 -0.64238556237E+02 -0.19424269373E+02  0.68264169260E+02  0.47000000000E+01 0. -1.
         -5    1    4    4    0  503  0.11512150128E+02  0.52008169749E+02  0.37396676292E+02  0.65253204664E+02  0.47000000000E+01 0.  1.
          5    1    4    4  503    0 -0.48586440125E+02 -0.16552796510E+02  0.40092284033E+02  0.65300218034E+02  0.47000000000E+01 0. -1.
         -5    1    3    3    0  502  0.25497915060E+02  0.28783182998E+02 -0.22695451349E+02  0.44897536768E+02  0.47000000000E+01 0.  1.
<mgrwt>
<rscale>  0 0.10506007E+03</rscale>
<asrwt>0</asrwt>
<pdfrwt beam="1">  1        1 0.16026607E-01 0.10506977E+03</pdfrwt>
<pdfrwt beam="2">  1       -1 0.21468028E-01 0.10506977E+03</pdfrwt>
<totfact> 0.57223307E+03</totfact>
</mgrwt>
</event>
<event>
 8    1  0.2964543E-004  0.1421307E+03  0.7546771E-02  0.1210553E+00
          1   -1    0    0  501    0  0.00000000000E+00  0.00000000000E+00  0.12394228281E+04  0.12394228281E+04  0.00000000000E+00 0. -1.
         -1   -1    0    0    0  501 -0.00000000000E+00 -0.00000000000E+00 -0.16905019413E+02  0.16905019413E+02  0.00000000000E+00 0.  1.
         23    2    1    2    0    0  0.10271062173E+03 -0.36626679325E+02  0.73272958624E+03  0.74638714619E+03  0.91159969277E+02 0.  0.
         23    2    1    2    0    0 -0.10271062173E+03  0.36626679325E+02  0.48978822249E+03  0.50994070136E+03  0.90862701704E+02 0.  0.
          5    1    3    3  502    0  0.10347918123E+02 -0.46297607227E+02  0.30154502228E+03  0.30529008878E+03  0.47000000000E+01 0. -1.
         -5    1    4    4    0  503 -0.34368408945E+02 -0.30028632713E+02  0.17904205468E+03  0.18482709125E+03  0.47000000000E+01 0.  1.
          5    1    4    4  503    0 -0.68342212783E+02  0.66655312037E+02  0.31074616780E+03  0.32511361011E+03  0.47000000000E+01 0. -1.
         -5    1    3    3    0  502  0.92362703605E+02  0.96709279022E+01  0.43118456396E+03  0.44109705741E+03  0.47000000000E+01 0.  1.
<mgrwt>
<rscale>  0 0.14208302E+03</rscale>
<asrwt>0</asrwt>
<pdfrwt beam="1">  1        1 0.19068036E+00 0.14213066E+03</pdfrwt>
<pdfrwt beam="2">  1       -1 0.26007732E-02 0.14213066E+03</pdfrwt>
<totfact> 0.49159162E+03</totfact>
</mgrwt>
</event>
<event>
 8    1  0.2964543E-004  0.1186237E+03  0.7546771E-02  0.1245737E+00
          1   -1    0    0  501    0  0.00000000000E+00  0.00000000000E+00  0.63578320954E+02  0.63578320954E+02  0.00000000000E+00 0. -1.
         -1   -1    0    0    0  501 -0.00000000000E+00 -0.00000000000E+00 -0.64284787069E+03  0.64284787069E+03  0.00000000000E+00 0.  1.
         23    2    1    2    0    0 -0.23997976337E+02 -0.69885170759E+02 -0.34402273920E+01  0.11867356793E+03  0.92799464441E+02 0.  0.
         23    2    1    2    0    0  0.23997976337E+02  0.69885170759E+02 -0.57582932234E+03  0.58775262371E+03  0.91727303741E+02 0.  0.
          5    1    4    4  502    0  0.63799515778E+01 -0.21476349068E+02 -0.15896470343E+03  0.16060449648E+03  0.47000000000E+01 0. -1.
         -5    1    4    4    0  502  0.17618024759E+02  0.91361519827E+02 -0.41686461891E+03  0.42714812723E+03  0.47000000000E+01 0.  1.
          5    1    3    3  503    0 -0.53133188465E+02 -0.57095505832E+02 -0.22469522460E+02  0.81301918441E+02  0.47000000000E+01 0. -1.
         -5    1    3    3    0  503  0.29135212129E+02 -0.12789664928E+02  0.19029295068E+02  0.37371649489E+02  0.47000000000E+01 0.  1.
<mgrwt>
<rscale>  0 0.11841392E+03</rscale>
<asrwt>0</asrwt>
<pdfrwt beam="1">  1        1 0.97812802E-02 0.11862369E+03</pdfrwt>
<pdfrwt beam="2">  1       -1 0.98899672E-01 0.11862369E+03</pdfrwt>
<totfact> 0.67624312E+02</totfact>
</mgrwt>
</event>
<event>
 8    1  0.2964543E-004  0.9830139E+02  0.7546771E-02  0.1284142E+00
          1   -1    0    0  501    0  0.00000000000E+00  0.00000000000E+00  0.34601864833E+03  0.34601864833E+03  0.00000000000E+00 0. -1.
         -1   -1    0    0    0  501 -0.00000000000E+00 -0.00000000000E+00 -0.30132239013E+02  0.30132239013E+02  0.00000000000E+00 0.  1.
         23    2    1    2    0    0 -0.23493751421E+02  0.11927167742E+02  0.21054173502E+03  0.23235960449E+03  0.94704540174E+02 0.  0.
         23    2    1    2    0    0  0.23493751421E+02 -0.11927167742E+02  0.10534467430E+03  0.14379128285E+03  0.94256134731E+02 0.  0.
          5    1    4    4  502    0  0.42382264851E+02  0.28105046134E+02  0.71529795520E+02  0.87890566270E+02  0.47000000000E+01 0. -1.
         -5    1    3    3    0  503 -0.22272854721E+02 -0.28691480229E+02  0.17300661413E+03  0.17684077479E+03  0.47000000000E+01 0.  1.
          5    1    3    3  503    0 -0.12208966999E+01  0.40618647971E+02  0.37535120891E+02  0.55518829708E+02  0.47000000000E+01 0. -1.
         -5    1    4    4    0  502 -0.18888513430E+02 -0.40032213876E+02  0.33814878779E+02  0.55900716580E+02  0.47000000000E+01 0.  1.
<mgrwt>
<rscale>  0 0.98193232E+02</rscale>
<asrwt>0</asrwt>
<pdfrwt beam="1">  1        1 0.53233635E-01 0.98301392E+02</pdfrwt>
<pdfrwt beam="2">  1       -1 0.46357293E-02 0.98301392E+02</pdfrwt>
<totfact> 0.13195956E+04</totfact>
</mgrwt>
</event>
<event>
 8    1  0.2964543E-004  0.1117212E+03  0.7546771E-02  0.1259446E+00
          3   -1    0    0  501    0  0.00000000000E+00  0.00000000000E+00  0.37251860600E+02  0.37251860600E+02  0.00000000000E+00 0. -1.
         -3   -1    0    0    0  501 -0.00000000000E+00 -0.00000000000E+00 -0.34763998535E+03  0.34763998535E+03  0.00000000000E+00 0.  1.
         23    2    1    2    0    0 -0.27892193283E+02 -0.51468990155E+02 -0.20452279187E+03  0.23097925784E+03  0.89971182971E+02 0.  0.
         23    2    1    2    0    0  0.27892193283E+02  0.51468990155E+02 -0.10586533288E+03  0.15391258811E+03  0.95155581437E+02 0.  0.
          5    1    4    4  502    0  0.59054053640E+02  0.47768343351E+02 -0.54748409387E+02  0.93747929088E+02  0.47000000000E+01 0. -1.
         -5    1    3    3    0  503 -0.53251185778E+02 -0.13432225470E+02 -0.14921503228E+03  0.15907020251E+03  0.47000000000E+01 0.  1.
          5    1    3    3  503    0  0.25358992494E+02 -0.38036764686E+02 -0.55307759590E+02  0.71909055333E+02  0.47000000000E+01 0. -1.
         -5    1    4    4    0  502 -0.31161860357E+02  0.37006468047E+01 -0.51116923493E+02  0.60164659020E+02  0.47000000000E+01 0.  1.
<mgrwt>
<rscale>  0 0.11060934E+03</rscale>
<asrwt>0</asrwt>
<pdfrwt beam="1">  1        3 0.57310555E-02 0.11172115E+03</pdfrwt>
<pdfrwt beam="2">  1       -3 0.53483074E-01 0.11172115E+03</pdfrwt>
<totfact> 0.14204868E+03</totfact>
</mgrwt>
</event>
<event>
 8    1  0.2964543E-004  0.9591128E+02  0.7546771E-02  0.1289524E+00
          1   -1    0    0  501    0  0.00000000000E+00  0.00000000000E+00  0.36037345291E+02  0.36037345291E+02  0.00000000000E+00 0. -1.
         -1   -1    0    0    0  501 -0.00000000000E+00 -0.00000000000E+00 -0.64930036172E+03  0.64930036172E+03  0.00000000000E+00 0.  1.
         23    2    1    2    0    0  0.26253945432E+02 -0.20236854624E+02 -0.57463454525E+03  0.58258375752E+03  0.90000966634E+02 0.  0.
         23    2    1    2    0    0 -0.26253945432E+02  0.20236854624E+02 -0.38628471183E+02  0.10275394950E+03  0.89260379873E+02 0.  0.
          5    1    3    3  502    0  0.32045219080E+02  0.24949770335E+02 -0.14949774361E+03  0.15498726545E+03  0.47000000000E+01 0. -1.
         -5    1    3    3    0  502 -0.57912736481E+01 -0.45186624960E+02 -0.42513680164E+03  0.42759649207E+03  0.47000000000E+01 0.  1.
          5    1    4    4  503    0 -0.35759855427E+02 -0.27627519150E+02 -0.12122289218E+02  0.47022196572E+02  0.47000000000E+01 0. -1.
         -5    1    4    4    0  503  0.95059099955E+01  0.47864373774E+02 -0.26506181965E+02  0.55731752924E+02  0.47000000000E+01 0.  1.
<mgrwt>
<rscale>  0 0.95737157E+02</rscale>
<asrwt>0</asrwt>
<pdfrwt beam="1">  1        1 0.55442073E-02 0.95911282E+02</pdfrwt>
<pdfrwt beam="2">  1       -1 0.99892358E-01 0.95911282E+02</pdfrwt>
<totfact> 0.14033208E+03</totfact>
</mgrwt>
</event>
<event>
 8    1  0.2964543E-004  0.9690409E+02  0.7546771E-02  0.1289161E+00
          1   -1    0    0  501    0  0.00000000000E+00  0.00000000000E+00  0.33995048399E+03  0.33995048399E+03  0.00000000000E+00 0. -1.
         -1   -1    0    0    0  501 -0.00000000000E+00 -0.00000000000E+00 -0.63868172913E+02  0.63868172913E+02  0.00000000000E+00 0.  1.
         23    2    1    2    0    0 -0.13709674254E+02 -0.26120022276E+02 -0.15178386775E+02  0.98085608836E+02  0.92304888840E+02 0.  0.
         23    2    1    2    0    0  0.13709674254E+02  0.26120022276E+02  0.29126069785E+03  0.30573304807E+03  0.88145855458E+02 0.  0.
          5    1    3    3  502    0  0.22789172618E+02 -0.42974712903E+02  0.10721463558E+02  0.50032110874E+02  0.47000000000E+01 0. -1.
         -5    1    3    3    0  502 -0.36498846872E+02  0.16854690627E+02 -0.25899850333E+02  0.48053497962E+02  0.47000000000E+01 0.  1.
          5    1    4    4  503    0  0.26310972812E+02  0.54863067306E+02  0.20070136940E+03  0.20977452926E+03  0.47000000000E+01 0. -1.
         -5    1    4    4    0  503 -0.12601298558E+02 -0.28743045029E+02  0.90559328449E+02  0.95958518809E+02  0.47000000000E+01 0.  1.
<mgrwt>
<rscale>  0 0.95900351E+02</rscale>
<asrwt>0</asrwt>
<pdfrwt beam="1">  1        1 0.52300073E-01 0.96904093E+02</pdfrwt>
<pdfrwt beam="2">  1       -1 0.98258730E-02 0.96904093E+02</pdfrwt>
<totfact> 0.44160524E+03</totfact>
</mgrwt>
</event>
<event>
 8    1  0.2964543E-004  0.1331923E+03  0.7546771E-02  0.1229134E+00
          3   -1    0    0  501    0  0.00000000000E+00  0.00000000000E+00  0.34863839232E+03  0.34863839232E+03  0.00000000000E+00 0. -1.
         -3   -1    0    0    0  501 -0.00000000000E+00 -0.00000000000E+00 -0.45152965503E+02  0.45152965503E+02  0.00000000000E+00 0.  1.
         23    2    1    2    0    0  0.66024772248E+02  0.39003065890E+02  0.17914769694E+03  0.22323552091E+03  0.10890220741E+03 0.  0.
         23    2    1    2    0    0 -0.66024772248E+02 -0.39003065890E+02  0.12433772988E+03  0.17055583692E+03  0.88027908841E+02 0.  0.
          5    1    3    3  502    0  0.77870306752E+02  0.66142073246E+02  0.14892830755E+03  0.18066623735E+03  0.47000000000E+01 0. -1.
         -5    1    4    4    0  503 -0.15082193907E+02 -0.25707491217E+02 -0.52276901031E+01  0.30622972121E+02  0.47000000000E+01 0.  1.
          5    1    4    4  503    0 -0.50942578341E+02 -0.13295574672E+02  0.12956541998E+03  0.13993286480E+03  0.47000000000E+01 0. -1.
         -5    1    3    3    0  502 -0.11845534504E+02 -0.27139007357E+02  0.30219389383E+02  0.42569283559E+02  0.47000000000E+01 0.  1.
<mgrwt>
<rscale>  0 0.12887513E+03</rscale>
<asrwt>0</asrwt>
<pdfrwt beam="1">  1        3 0.53636674E-01 0.13319234E+03</pdfrwt>
<pdfrwt beam="2">  1       -3 0.69466103E-02 0.13319234E+03</pdfrwt>
<totfact> 0.10706470E+03</totfact>
</mgrwt>
</event>
<event>
 8    1  0.2964543E-004  0.1338579E+03  0.7546771E-02  0.1226016E+00
          1   -1    0    0  501    0  0.00000000000E+00  0.00000000000E+00  0.10689128888E+03  0.10689128888E+03  0.00000000000E+00 0. -1.
         -1   -1    0    0    0  501 -0.00000000000E+00 -0.00000000000E+00 -0.18955195644E+03  0.18955195644E+03  0.00000000000E+00 0.  1.
         23    2    1    2    0    0  0.54866196243E+02  0.61591522858E+02 -0.10698819829E+03  0.17136049557E+03  0.10542357274E+03 0.  0.
         23    2    1    2    0    0 -0.54866196243E+02 -0.61591522858E+02  0.24327530727E+02  0.12508274975E+03  0.90829787815E+02 0.  0.
          5    1    4    4  502    0  0.13275828832E+02 -0.35196434682E+02  0.34370319936E+02  0.51170748851E+02  0.47000000000E+01 0. -1.
         -5    1    4    4    0  502 -0.68142025075E+02 -0.26395088176E+02 -0.10042789209E+02  0.73912000894E+02  0.47000000000E+01 0.  1.
          5    1    3    3  503    0  0.66860200467E+02  0.78480048181E+02 -0.10889782846E+03  0.15003410083E+03  0.47000000000E+01 0.  1.
         -5    1    3    3    0  503 -0.11994004225E+02 -0.16888525323E+02  0.19096301739E+01  0.21326394734E+02  0.47000000000E+01 0. -1.
<mgrwt>
<rscale>  0 0.13097520E+03</rscale>
<asrwt>0</asrwt>
<pdfrwt beam="1">  1        1 0.16444814E-01 0.13385793E+03</pdfrwt>
<pdfrwt beam="2">  1       -1 0.29161839E-01 0.13385793E+03</pdfrwt>
<totfact> 0.34046679E+03</totfact>
</mgrwt>
</event>
<event>
 8    1  0.2964543E-004  0.9997684E+02  0.7546771E-02  0.1280350E+00
         -1   -1    0    0    0  501 -0.00000000000E+00  0.00000000000E+00  0.18075761883E+03  0.18075761883E+03  0.00000000000E+00 0.  1.
          1   -1    0    0  501    0  0.00000000000E+00 -0.00000000000E+00 -0.62048532317E+02  0.62048532317E+02  0.00000000000E+00 0. -1.
         23    2    1    2    0    0 -0.37907739230E+02 -0.30973875638E+01  0.19287280399E+02  0.10180946717E+03  0.92447703685E+02 0.  0.
         23    2    1    2    0    0  0.37907739230E+02  0.30973875638E+01  0.99421806113E+02  0.14099668398E+03  0.92459606633E+02 0.  0.
          5    1    4    4  502    0  0.55584186836E+02  0.27969547709E+02  0.40255252221E+02  0.74259496070E+02  0.47000000000E+01 0. -1.
         -5    1    3    3    0  503 -0.19479520133E+02  0.44396758579E+02  0.11636961472E+02  0.50080263071E+02  0.47000000000E+01 0.  1.
          5    1    3    3  503    0 -0.18428219097E+02 -0.47494146143E+02  0.76503189269E+01  0.51729204098E+02  0.47000000000E+01 0. -1.
         -5    1    4    4    0  502 -0.17676447606E+02 -0.24872160146E+02  0.59166553892E+02  0.66737187907E+02  0.47000000000E+01 0.  1.
<mgrwt>
<rscale>  0 0.99974092E+02</rscale>
<asrwt>0</asrwt>
<pdfrwt beam="1">  1        1 0.95459281E-02 0.99976844E+02</pdfrwt>
<pdfrwt beam="2">  1       -1 0.27808864E-01 0.99976844E+02</pdfrwt>
<totfact> 0.73314657E+03</totfact>
</mgrwt>
</event>
<event>
 8    1  0.2964543E-004  0.1215646E+03  0.7546771E-02  0.1241252E+00
         -3   -1    0    0    0  501 -0.00000000000E+00  0.00000000000E+00  0.46813717747E+02  0.46813717747E+02  0.00000000000E+00 0.  1.
          3   -1    0    0  501    0  0.00000000000E+00 -0.00000000000E+00 -0.38213666476E+03  0.38213666476E+03  0.00000000000E+00 0. -1.
         23    2    1    2    0    0  0.53348483900E+02 -0.60916555577E+02 -0.26108336715E+03  0.28799734458E+03  0.90670052404E+02 0.  0.
         23    2    1    2    0    0 -0.53348483900E+02  0.60916555577E+02 -0.74239579861E+02  0.14095303793E+03  0.88313963819E+02 0.  0.
          5    1    3    3  502    0  0.76969825120E+02 -0.31204147710E+02 -0.17257443697E+03  0.19157786696E+03  0.47000000000E+01 0. -1.
         -5    1    3    3    0  502 -0.23621341220E+02 -0.29712407866E+02 -0.88508930179E+02  0.96419477616E+02  0.47000000000E+01 0.  1.
          5    1    4    4  503    0 -0.18249812806E+02  0.69588640801E+02 -0.75604728085E+02  0.10446913183E+03  0.47000000000E+01 0. -1.
         -5    1    4    4    0  503 -0.35098671093E+02 -0.86720852242E+01  0.13651482242E+01  0.36483906100E+02  0.47000000000E+01 0.  1.
<mgrwt>
<rscale>  0 0.12112544E+03</rscale>
<asrwt>0</asrwt>
<pdfrwt beam="1">  1        3 0.58790255E-01 0.12156457E+03</pdfrwt>
<pdfrwt beam="2">  1       -3 0.72021106E-02 0.12156457E+03</pdfrwt>
<totfact> 0.82599926E+02</totfact>
</mgrwt>
</event>
<event>
 7    1  0.2964543E-004  0.2285469E+03  0.7546771E-02  0.1157884E+00
         -1   -1    0    0    0  501 -0.00000000000E+00  0.00000000000E+00  0.24434488083E+03  0.24434488083E+03  0.00000000000E+00 0.  1.
          1   -1    0    0  501    0  0.00000000000E+00 -0.00000000000E+00 -0.38223288302E+03  0.38223288302E+03  0.00000000000E+00 0. -1.
         23    2    1    2    0    0 -0.15156878524E+02 -0.60067067318E+02  0.19416154339E+03  0.22347657497E+03  0.91680374608E+02 0.  0.
          5    1    3    3  502    0  0.23457424747E+02  0.87952441894E+01  0.20701490709E+02  0.32836699190E+02  0.47000000000E+01 0. -1.
         -5    1    1    2    0  503 -0.97572180842E+02  0.28165194423E+02 -0.21294002466E+03  0.23596430398E+03  0.47000000000E+01 0.  1.
          5    1    1    2  503    0  0.11272905937E+03  0.31901872895E+02 -0.11910952091E+03  0.16713688489E+03  0.47000000000E+01 0. -1.
         -5    1    3    3    0  502 -0.38614303271E+02 -0.68862311508E+02  0.17346005268E+03  0.19063987578E+03  0.47000000000E+01 0.  1.
<mgrwt>
<rscale>  0 0.19064164E+03</rscale>
<asrwt>0</asrwt>
<pdfrwt beam="1">  1        1 0.58805058E-01 0.22854686E+03</pdfrwt>
<pdfrwt beam="2">  1       -1 0.37591520E-01 0.22854686E+03</pdfrwt>
<totfact> 0.44658202E+02</totfact>
</mgrwt>
</event>
<event>
 8    1  0.2964543E-004  0.9466524E+02  0.7546771E-02  0.1293633E+00
          2   -1    0    0  501    0  0.00000000000E+00  0.00000000000E+00  0.49969993844E+02  0.49969993844E+02  0.00000000000E+00 0. -1.
         -2   -1    0    0    0  501 -0.00000000000E+00 -0.00000000000E+00 -0.17612340274E+03  0.17612340274E+03  0.00000000000E+00 0.  1.
         23    2    1    2    0    0 -0.26781271374E+02 -0.11558488039E+02 -0.77098267520E+02  0.12208870081E+03  0.90059274191E+02 0.  0.
         23    2    1    2    0    0  0.26781271374E+02  0.11558488039E+02 -0.49055141378E+02  0.10400469578E+03  0.86946734881E+02 0.  0.
          5    1    3    3  502    0 -0.11734983219E+01 -0.31204628802E+02 -0.83124318387E+02  0.88920460325E+02  0.47000000000E+01 0. -1.
         -5    1    3    3    0  502 -0.25607773052E+02  0.19646140763E+02  0.60260508675E+01  0.33168240482E+02  0.47000000000E+01 0.  1.
          5    1    4    4  503    0  0.43532852605E+02  0.26765306851E+02 -0.17393300117E+01  0.51347893585E+02  0.47000000000E+01 0. -1.
         -5    1    4    4    0  503 -0.16751581231E+02 -0.15206818812E+02 -0.47315811367E+02  0.52656802195E+02  0.47000000000E+01 0.  1.
<mgrwt>
<rscale>  0 0.93917406E+02</rscale>
<asrwt>0</asrwt>
<pdfrwt beam="1">  1        2 0.76876913E-02 0.94665242E+02</pdfrwt>
<pdfrwt beam="2">  1       -2 0.27095908E-01 0.94665242E+02</pdfrwt>
<totfact> 0.99784983E+03</totfact>
</mgrwt>
</event>
<event>
 7    1  0.2964543E-004  0.1455923E+03  0.7546771E-02  0.1218483E+00
         -1   -1    0    0    0  501 -0.00000000000E+00  0.00000000000E+00  0.58445825893E+02  0.58445825893E+02  0.00000000000E+00 0.  1.
          1   -1    0    0  501    0  0.00000000000E+00 -0.00000000000E+00 -0.32723274636E+03  0.32723274636E+03  0.00000000000E+00 0. -1.
         23    2    1    2    0    0 -0.16838018123E+02 -0.60845263603E+02 -0.48688884011E+02  0.12178414575E+03  0.92060337670E+02 0.  0.
          5    1    1    2  502    0  0.71470770027E+02  0.33596671337E+02 -0.15791753823E+03  0.17662628959E+03  0.47000000000E+01 0. -1.
         -5    1    1    2    0  502 -0.54632751904E+02  0.27248592267E+02 -0.62180498226E+02  0.87268136916E+02  0.47000000000E+01 0.  1.
          5    1    3    3  503    0  0.24565852280E+02  0.42773182292E+01  0.72108480328E+01  0.26379213006E+02  0.47000000000E+01 0. -1.
         -5    1    3    3    0  503 -0.41403870403E+02 -0.65122581833E+02 -0.55899732044E+02  0.95404932741E+02  0.47000000000E+01 0.  1.
<mgrwt>
<rscale>  0 0.13623759E+03</rscale>
<asrwt>0</asrwt>
<pdfrwt beam="1">  1        1 0.50343500E-01 0.14559232E+03</pdfrwt>
<pdfrwt beam="2">  1       -1 0.89916655E-02 0.14559232E+03</pdfrwt>
<totfact> 0.54248386E+03</totfact>
</mgrwt>
</event>
<event>
 8    1  0.2964543E-004  0.1199014E+03  0.7546771E-02  0.1245456E+00
         -3   -1    0    0    0  501 -0.00000000000E+00  0.00000000000E+00  0.44562892834E+03  0.44562892834E+03  0.00000000000E+00 0.  1.
          3   -1    0    0  501    0  0.00000000000E+00 -0.00000000000E+00 -0.31899825046E+02  0.31899825046E+02  0.00000000000E+00 0. -1.
         23    2    1    2    0    0  0.68195957448E+02 -0.36846338970E+02  0.15972403905E+03  0.19664636320E+03  0.84555793418E+02 0.  0.
         23    2    1    2    0    0 -0.68195957448E+02  0.36846338970E+02  0.25400506424E+03  0.28088239019E+03  0.91476790218E+02 0.  0.
          5    1    3    3  502    0  0.25161080798E+01  0.23082747456E+02  0.20196376401E+02  0.31130815115E+02  0.47000000000E+01 0. -1.
         -5    1    3    3    0  502  0.65679849369E+02 -0.59929086425E+02  0.13952766265E+03  0.16551554808E+03  0.47000000000E+01 0.  1.
          5    1    4    4  503    0 -0.45327696405E+02  0.67016371231E+02  0.15790894545E+03  0.17749118042E+03  0.47000000000E+01 0. -1.
         -5    1    4    4    0  503 -0.22868261043E+02 -0.30170032261E+02  0.96096118792E+02  0.10339120976E+03  0.47000000000E+01 0.  1.
<mgrwt>
<rscale>  0 0.11858152E+03</rscale>
<asrwt>0</asrwt>
<pdfrwt beam="1">  1        3 0.49076657E-02 0.11990139E+03</pdfrwt>
<pdfrwt beam="2">  1       -3 0.68558292E-01 0.11990139E+03</pdfrwt>
<totfact> 0.11029129E+03</totfact>
</mgrwt>
</event>
<event>
 7    1  0.2964543E-004  0.2467331E+03  0.7546771E-02  0.1128539E+00
         -1   -1    0    0    0  501 -0.00000000000E+00  0.00000000000E+00  0.17075434084E+03  0.17075434084E+03  0.00000000000E+00 0.  1.
          1   -1    0    0  501    0  0.00000000000E+00 -0.00000000000E+00 -0.37730172659E+03  0.37730172659E+03  0.00000000000E+00 0. -1.
         23    2    1    2    0    0 -0.78596757173E+02 -0.12616358117E+03 -0.24041797470E+03  0.29900900057E+03  0.97523742803E+02 0.  0.
          5    1    3    3  502    0 -0.50244776980E+02 -0.26250262827E+01 -0.77897739454E+02  0.92852443096E+02  0.47000000000E+01 0. -1.
         -5    1    3    3    0  502 -0.28351980192E+02 -0.12353855489E+03 -0.16252023525E+03  0.20615655748E+03  0.47000000000E+01 0.  1.
          5    1    1    2  503    0  0.39571151966E+02 -0.42591860972E+02  0.47524549686E+02  0.75237062089E+02  0.47000000000E+01 0. -1.
         -5    1    1    2    0  503  0.39025605207E+02  0.16875544214E+03 -0.13653960740E+02  0.17381000477E+03  0.47000000000E+01 0.  1.
<mgrwt>
<rscale>  0 0.22732177E+03</rscale>
<asrwt>0</asrwt>
<pdfrwt beam="1">  1        1 0.58046418E-01 0.24673310E+03</pdfrwt>
<pdfrwt beam="2">  1       -1 0.26269899E-01 0.24673310E+03</pdfrwt>
<totfact> 0.83892638E+02</totfact>
</mgrwt>
</event>
<event>
 8    1  0.2964543E-004  0.1111437E+03  0.7546771E-02  0.1260065E+00
          1   -1    0    0  501    0  0.00000000000E+00  0.00000000000E+00  0.39979966883E+03  0.39979966883E+03  0.00000000000E+00 0. -1.
         -1   -1    0    0    0  501 -0.00000000000E+00 -0.00000000000E+00 -0.20531688510E+03  0.20531688510E+03  0.00000000000E+00 0.  1.
         23    2    1    2    0    0 -0.37543290705E+02  0.51800970690E+02 -0.18215318297E+03  0.21338391979E+03  0.90884959817E+02 0.  0.
         23    2    1    2    0    0  0.37543290705E+02 -0.51800970690E+02  0.37663596669E+03  0.39173263413E+03  0.86642749241E+02 0.  0.
          5    1    3    3  502    0  0.23584701826E+02 -0.59887170900E+01 -0.25794179759E+02  0.35770554959E+02  0.47000000000E+01 0. -1.
         -5    1    3    3    0  502 -0.61127992531E+02  0.57789687779E+02 -0.15635900321E+03  0.17761336484E+03  0.47000000000E+01 0.  1.
          5    1    4    4  503    0  0.55334530380E+02 -0.29429077235E+02  0.33600690505E+03  0.34183433280E+03  0.47000000000E+01 0. -1.
         -5    1    4    4    0  503 -0.17791239676E+02 -0.22371893455E+02  0.40629061646E+02  0.49898301336E+02  0.47000000000E+01 0.  1.
<mgrwt>
<rscale>  0 0.11027318E+03</rscale>
<asrwt>0</asrwt>
<pdfrwt beam="1">  1        1 0.61507641E-01 0.11114367E+03</pdfrwt>
<pdfrwt beam="2">  1       -1 0.31587213E-01 0.11114367E+03</pdfrwt>
<totfact> 0.57122016E+02</totfact>
</mgrwt>
</event>
<event>
 8    1  0.2964543E-004  0.9137480E+02  0.7546771E-02  0.1300457E+00
         -1   -1    0    0    0  501 -0.00000000000E+00  0.00000000000E+00  0.15611692731E+03  0.15611692731E+03  0.00000000000E+00 0.  1.
          1   -1    0    0  501    0  0.00000000000E+00 -0.00000000000E+00 -0.68079757135E+02  0.68079757135E+02  0.00000000000E+00 0. -1.
         23    2    1    2    0    0  0.23841517871E+01  0.85623913303E+01 -0.97087512808E+01  0.90392277399E+02  0.89428771862E+02 0.  0.
         23    2    1    2    0    0 -0.23841517871E+01 -0.85623913303E+01  0.97745921461E+02  0.13380440705E+03  0.90941494705E+02 0.  0.
          5    1    3    3  502    0  0.13838487477E+02 -0.31164204671E+02 -0.28544207800E+02  0.44716587385E+02  0.47000000000E+01 0. -1.
         -5    1    3    3    0  502 -0.11454335690E+02  0.39726596001E+02  0.18835456520E+02  0.45675690014E+02  0.47000000000E+01 0.  1.
          5    1    4    4  503    0  0.36437583608E+02 -0.16051437498E+02  0.16555297101E+02  0.43376422248E+02  0.47000000000E+01 0. -1.
         -5    1    4    4    0  503 -0.38821735395E+02  0.74890461681E+01  0.81190624360E+02  0.90427984803E+02  0.47000000000E+01 0.  1.
<mgrwt>
<rscale>  0 0.90996096E+02</rscale>
<asrwt>0</asrwt>
<pdfrwt beam="1">  1        1 0.10473809E-01 0.91374801E+02</pdfrwt>
<pdfrwt beam="2">  1       -1 0.24017989E-01 0.91374801E+02</pdfrwt>
<totfact> 0.81839384E+03</totfact>
</mgrwt>
</event>
<event>
 8    1  0.2964543E-004  0.9170794E+02  0.7546771E-02  0.1299314E+00
         -2   -1    0    0    0  501 -0.00000000000E+00  0.00000000000E+00  0.10475961570E+02  0.10475961570E+02  0.00000000000E+00 0.  1.
          2   -1    0    0  501    0  0.00000000000E+00 -0.00000000000E+00 -0.99153229590E+03  0.99153229590E+03  0.00000000000E+00 0. -1.
         23    2    1    2    0    0 -0.76376263977E+01  0.14582092585E+01 -0.71567919533E+03  0.72153105059E+03  0.91377714025E+02 0.  0.
         23    2    1    2    0    0  0.76376263977E+01 -0.14582092585E+01 -0.26537713900E+03  0.28047720688E+03  0.90454286611E+02 0.  0.
          5    1    4    4  502    0  0.35973732943E+02  0.55808422518E+01 -0.23584177655E+03  0.23868114468E+03  0.47000000000E+01 0. -1.
         -5    1    3    3    0  503 -0.17377114860E+02 -0.42583050945E+02 -0.34232040525E+03  0.34542818385E+03  0.47000000000E+01 0.  1.
          5    1    3    3  503    0  0.97394884619E+01  0.44041260203E+02 -0.37335879008E+03  0.37610286673E+03  0.47000000000E+01 0. -1.
         -5    1    4    4    0  502 -0.28336106545E+02 -0.70390515104E+01 -0.29535362453E+02  0.41796062201E+02  0.47000000000E+01 0.  1.
<mgrwt>
<rscale>  0 0.91477053E+02</rscale>
<asrwt>0</asrwt>
<pdfrwt beam="1">  1        2 0.15254346E+00 0.91707940E+02</pdfrwt>
<pdfrwt beam="2">  1       -2 0.16116861E-02 0.91707940E+02</pdfrwt>
<totfact> 0.25893981E+04</totfact>
</mgrwt>
</event>
<event>
 8    1  0.2964543E-004  0.1263549E+03  0.7546771E-02  0.1244721E+00
         -1   -1    0    0    0  501 -0.00000000000E+00  0.00000000000E+00  0.61572938817E+02  0.61572938817E+02  0.00000000000E+00 0.  1.
          1   -1    0    0  501    0  0.00000000000E+00 -0.00000000000E+00 -0.31938376306E+03  0.31938376306E+03  0.00000000000E+00 0. -1.
         23    2    1    2    0    0 -0.41412766704E+02  0.17820321077E+02 -0.26416884529E+02  0.12908688759E+03  0.11803809414E+03 0.  0.
         23    2    1    2    0    0  0.41412766704E+02 -0.17820321077E+02 -0.23139393972E+03  0.25186981429E+03  0.88671680515E+02 0.  0.
          5    1    4    4  502    0  0.35555506646E+02 -0.52726956248E+02 -0.14889767420E+03  0.16197818789E+03  0.47000000000E+01 0. -1.
         -5    1    3    3    0  503 -0.71346711695E+00  0.51558452003E+02  0.22920363644E+02  0.56623458724E+02  0.47000000000E+01 0.  1.
          5    1    3    3  503    0 -0.40699299587E+02 -0.33738130926E+02 -0.49337248173E+02  0.72463428863E+02  0.47000000000E+01 0. -1.
         -5    1    4    4    0  502  0.58572600577E+01  0.34906635171E+02 -0.82496265516E+02  0.89891626409E+02  0.47000000000E+01 0.  1.
<mgrwt>
<rscale>  0 0.11902071E+03</rscale>
<asrwt>0</asrwt>
<pdfrwt beam="1">  1        1 0.49135963E-01 0.12635495E+03</pdfrwt>
<pdfrwt beam="2">  1       -1 0.94727599E-02 0.12635495E+03</pdfrwt>
<totfact> 0.51228071E+03</totfact>
</mgrwt>
</event>
<event>
 8    1  0.2964543E-004  0.1008142E+03  0.7546771E-02  0.1279046E+00
          2   -1    0    0  501    0  0.00000000000E+00  0.00000000000E+00  0.20998929442E+03  0.20998929442E+03  0.00000000000E+00 0. -1.
         -2   -1    0    0    0  501 -0.00000000000E+00 -0.00000000000E+00 -0.74495030587E+02  0.74495030587E+02  0.00000000000E+00 0.  1.
         23    2    1    2    0    0  0.41146026200E+02 -0.60408369582E+01  0.15241217433E+03  0.18226041662E+03  0.90883999683E+02 0.  0.
         23    2    1    2    0    0 -0.41146026200E+02  0.60408369582E+01 -0.16917910499E+02  0.10222390839E+03  0.91836945546E+02 0.  0.
          5    1    3    3  502    0  0.63126007429E+02 -0.46501153673E+01  0.60701405871E+02  0.87825207438E+02  0.47000000000E+01 0. -1.
         -5    1    3    3    0  502 -0.21979981228E+02 -0.13907215908E+01  0.91710768462E+02  0.94435209182E+02  0.47000000000E+01 0.  1.
          5    1    4    4  503    0  0.25883501742E+02  0.40723326347E+01 -0.22382284158E+02  0.34779249556E+02  0.47000000000E+01 0. -1.
         -5    1    4    4    0  503 -0.67029527943E+02  0.19685043235E+01  0.54643736588E+01  0.67444658832E+02  0.47000000000E+01 0.  1.
<mgrwt>
<rscale>  0 0.10059671E+03</rscale>
<asrwt>0</asrwt>
<pdfrwt beam="1">  1        2 0.32306045E-01 0.10081424E+03</pdfrwt>
<pdfrwt beam="2">  1       -2 0.11460774E-01 0.10081424E+03</pdfrwt>
<totfact> 0.79686456E+03</totfact>
</mgrwt>
</event>
<event>
 8    1  0.2964543E-004  0.9388138E+02  0.7546771E-02  0.1294342E+00
          1   -1    0    0  501    0  0.00000000000E+00  0.00000000000E+00  0.40483450142E+03  0.40483450142E+03  0.00000000000E+00 0. -1.
         -1   -1    0    0    0  501 -0.00000000000E+00 -0.00000000000E+00 -0.23954379766E+02  0.23954379766E+02  0.00000000000E+00 0.  1.
         23    2    1    2    0    0 -0.20385614575E+02  0.66595519336E+01  0.12109454524E+03  0.15256024612E+03  0.90281874691E+02 0.  0.
         23    2    1    2    0    0  0.20385614575E+02 -0.66595519336E+01  0.25978557642E+03  0.27622863507E+03  0.91399071115E+02 0.  0.
          5    1    4    4  502    0  0.54137229742E+02  0.10411113423E+02  0.16670439373E+03  0.17564645119E+03  0.47000000000E+01 0. -1.
         -5    1    4    4    0  502 -0.33751615168E+02 -0.17070665356E+02  0.93081182685E+02  0.10058218387E+03  0.47000000000E+01 0.  1.
          5    1    3    3  503    0  0.74054140779E+01  0.28041719893E+02  0.11233469009E+03  0.11611352553E+03  0.47000000000E+01 0. -1.
         -5    1    3    3    0  503 -0.27791028652E+02 -0.21382167959E+02  0.87598551464E+01  0.36446720599E+02  0.47000000000E+01 0.  1.
<mgrwt>
<rscale>  0 0.93608363E+02</rscale>
<asrwt>0</asrwt>
<pdfrwt beam="1">  1        1 0.62282226E-01 0.93881378E+02</pdfrwt>
<pdfrwt beam="2">  1       -1 0.36852895E-02 0.93881378E+02</pdfrwt>
<totfact> 0.15110235E+04</totfact>
</mgrwt>
</event>
<event>
 8    1  0.2964543E-004  0.1027257E+03  0.7546771E-02  0.1275102E+00
         -1   -1    0    0    0  501 -0.00000000000E+00  0.00000000000E+00  0.18326422937E+02  0.18326422937E+02  0.00000000000E+00 0.  1.
          1   -1    0    0  501    0  0.00000000000E+00 -0.00000000000E+00 -0.62224447008E+03  0.62224447008E+03  0.00000000000E+00 0. -1.
         23    2    1    2    0    0 -0.31454901328E+02  0.32920119640E+02 -0.39500511918E+03  0.40814411315E+03  0.92083808693E+02 0.  0.
         23    2    1    2    0    0  0.31454901328E+02 -0.32920119640E+02 -0.20891292797E+03  0.23242677987E+03  0.91128762947E+02 0.  0.
          5    1    3    3  502    0  0.34575079792E+01  0.56750986908E+02 -0.27416696831E+03  0.28003972109E+03  0.47000000000E+01 0. -1.
         -5    1    3    3    0  502 -0.34912409307E+02 -0.23830867268E+02 -0.12083815087E+03  0.12810439206E+03  0.47000000000E+01 0.  1.
          5    1    4    4  503    0  0.48651948969E+02 -0.50690522201E+02 -0.18398619212E+03  0.19700139611E+03  0.47000000000E+01 0. -1.
         -5    1    4    4    0  503 -0.17197047640E+02  0.17770402560E+02 -0.24926735849E+02  0.35425383763E+02  0.47000000000E+01 0.  1.
<mgrwt>
<rscale>  0 0.10251124E+03</rscale>
<asrwt>0</asrwt>
<pdfrwt beam="1">  1        1 0.95729913E-01 0.10272572E+03</pdfrwt>
<pdfrwt beam="2">  1       -1 0.28194499E-02 0.10272572E+03</pdfrwt>
<totfact> 0.12864055E+04</totfact>
</mgrwt>
</event>
<event>
 8    1  0.2964543E-004  0.1349843E+03  0.7546771E-02  0.1220992E+00
         -1   -1    0    0    0  501 -0.00000000000E+00  0.00000000000E+00  0.61663913752E+02  0.61663913752E+02  0.00000000000E+00 0.  1.
          1   -1    0    0  501    0  0.00000000000E+00 -0.00000000000E+00 -0.29883252701E+03  0.29883252701E+03  0.00000000000E+00 0. -1.
         23    2    1    2    0    0  0.75263727525E+02 -0.62100308911E+02 -0.88295225162E+02  0.15953863660E+03  0.90196744595E+02 0.  0.
         23    2    1    2    0    0 -0.75263727525E+02  0.62100308911E+02 -0.14887338810E+03  0.20095780416E+03  0.93272055415E+02 0.  0.
          5    1    4    4  502    0 -0.30349514552E+02  0.58138626022E+02 -0.14013031347E+03  0.15478949455E+03  0.47000000000E+01 0. -1.
         -5    1    3    3    0  503  0.56676647313E+02 -0.71122206197E+02 -0.27452999984E+02  0.95112395476E+02  0.47000000000E+01 0.  1.
          5    1    3    3  503    0  0.18587080212E+02  0.90218972865E+01 -0.60842225178E+02  0.64426241129E+02  0.47000000000E+01 0. -1.
         -5    1    4    4    0  502 -0.44914212973E+02  0.39616828889E+01 -0.87430746256E+01  0.46168309610E+02  0.47000000000E+01 0.  1.
<mgrwt>
<rscale>  0 0.13445456E+03</rscale>
<asrwt>0</asrwt>
<pdfrwt beam="1">  1        1 0.45974235E-01 0.13498427E+03</pdfrwt>
<pdfrwt beam="2">  1       -1 0.94867560E-02 0.13498427E+03</pdfrwt>
<totfact> 0.55719955E+03</totfact>
</mgrwt>
</event>
<event>
 8    1  0.2964543E-004  0.9676546E+02  0.7546771E-02  0.1288162E+00
         -1   -1    0    0    0  501 -0.00000000000E+00  0.00000000000E+00  0.27074734968E+02  0.27074734968E+02  0.00000000000E+00 0.  1.
          1   -1    0    0  501    0  0.00000000000E+00 -0.00000000000E+00 -0.34333535901E+03  0.34333535901E+03  0.00000000000E+00 0. -1.
         23    2    1    2    0    0 -0.25767106727E+02 -0.83121556591E+01 -0.17509200254E+03  0.19926064213E+03  0.91184200554E+02 0.  0.
         23    2    1    2    0    0  0.25767106727E+02  0.83121556591E+01 -0.14116862150E+03  0.17114945184E+03  0.92900589062E+02 0.  0.
          5    1    4    4  502    0  0.31851096573E+02  0.28874344583E+02 -0.14273341656E+03  0.14914133676E+03  0.47000000000E+01 0. -1.
         -5    1    4    4    0  502 -0.60839898457E+01 -0.20562188923E+02  0.15647950589E+01  0.22008115079E+02  0.47000000000E+01 0.  1.
          5    1    3    3  503    0  0.62799186182E+01  0.33693752458E+02 -0.10989493807E+03  0.11521151742E+03  0.47000000000E+01 0. -1.
         -5    1    3    3    0  503 -0.32047025345E+02 -0.42005908117E+02 -0.65197064463E+02  0.84049124712E+02  0.47000000000E+01 0.  1.
<mgrwt>
<rscale>  0 0.96351156E+02</rscale>
<asrwt>0</asrwt>
<pdfrwt beam="1">  1        1 0.52820825E-01 0.96765465E+02</pdfrwt>
<pdfrwt beam="2">  1       -1 0.41653438E-02 0.96765465E+02</pdfrwt>
<totfact> 0.15552458E+04</totfact>
</mgrwt>
</event>
<event>
 8    1  0.2964543E-004  0.1123080E+03  0.7546771E-02  0.1258188E+00
         -2   -1    0    0    0  501 -0.00000000000E+00  0.00000000000E+00  0.80404110054E+02  0.80404110054E+02  0.00000000000E+00 0.  1.
          2   -1    0    0  501    0  0.00000000000E+00 -0.00000000000E+00 -0.16596609058E+03  0.16596609058E+03  0.00000000000E+00 0. -1.
         23    2    1    2    0    0 -0.11397689210E+00  0.66627529529E+02 -0.80046099298E+02  0.13791469479E+03  0.90409315582E+02 0.  0.
         23    2    1    2    0    0  0.11397689210E+00 -0.66627529529E+02 -0.55158812256E+01  0.10845550584E+03  0.85398659943E+02 0.  0.
          5    1    3    3  502    0 -0.33097418412E+02  0.71067925997E+02 -0.52648921558E+02  0.94552039388E+02  0.47000000000E+01 0. -1.
         -5    1    4    4    0  503 -0.20193353275E+02 -0.72194235658E+02 -0.25223766162E+02  0.79234509893E+02  0.47000000000E+01 0.  1.
          5    1    4    4  503    0  0.20307330167E+02  0.55667061282E+01  0.19707884936E+02  0.29220995950E+02  0.47000000000E+01 0. -1.
         -5    1    3    3    0  502  0.32983441520E+02 -0.44403964681E+01 -0.27397177740E+02  0.43362655401E+02  0.47000000000E+01 0.  1.
<mgrwt>
<rscale>  0 0.11129619E+03</rscale>
<asrwt>0</asrwt>
<pdfrwt beam="1">  1        2 0.25533244E-01 0.11230799E+03</pdfrwt>
<pdfrwt beam="2">  1       -2 0.12369863E-01 0.11230799E+03</pdfrwt>
<totfact> 0.91821044E+03</totfact>
</mgrwt>
</event>
<event>
 8    1  0.2964543E-004  0.1004685E+03  0.7546771E-02  0.1281458E+00
          1   -1    0    0  501    0  0.00000000000E+00  0.00000000000E+00  0.33916057141E+03  0.33916057141E+03  0.00000000000E+00 0. -1.
         -1   -1    0    0    0  501 -0.00000000000E+00 -0.00000000000E+00 -0.73906547323E+02  0.73906547323E+02  0.00000000000E+00 0.  1.
         23    2    1    2    0    0 -0.36408703128E+02 -0.95829515853E+00 -0.28049733655E+02  0.10431065320E+03  0.93634463848E+02 0.  0.
         23    2    1    2    0    0  0.36408703128E+02  0.95829515853E+00  0.29330375774E+03  0.30875646553E+03  0.89313765503E+02 0.  0.
          5    1    4    4  502    0  0.27741167221E+02  0.34247392753E+02  0.24665596648E+03  0.25060668800E+03  0.47000000000E+01 0. -1.
         -5    1    3    3    0  503 -0.65781011052E+02 -0.14568922289E+01 -0.40537825815E+01  0.66089235910E+02  0.47000000000E+01 0.  1.
          5    1    3    3  503    0  0.29372307924E+02  0.49859707033E+00 -0.23995951074E+02  0.38221417291E+02  0.47000000000E+01 0. -1.
         -5    1    4    4    0  502  0.86675359065E+01 -0.33289097595E+02  0.46647791258E+02  0.58149777529E+02  0.47000000000E+01 0.  1.
<mgrwt>
<rscale>  0 0.99449611E+02</rscale>
<asrwt>0</asrwt>
<pdfrwt beam="1">  1        1 0.52178548E-01 0.10046853E+03</pdfrwt>
<pdfrwt beam="2">  1       -1 0.11370238E-01 0.10046853E+03</pdfrwt>
<totfact> 0.35557742E+03</totfact>
</mgrwt>
</event>
<event>
 8    1  0.2964543E-004  0.1029843E+03  0.7546771E-02  0.1274216E+00
         -3   -1    0    0    0  501 -0.00000000000E+00  0.00000000000E+00  0.75679784668E+03  0.75679784668E+03  0.00000000000E+00 0.  1.
          3   -1    0    0  501    0  0.00000000000E+00 -0.00000000000E+00 -0.14697904953E+02  0.14697904953E+02  0.00000000000E+00 0. -1.
         23    2    1    2    0    0 -0.13886344447E+02  0.45309694745E+02  0.45520740577E+03  0.46667924646E+03  0.91268492997E+02 0.  0.
         23    2    1    2    0    0  0.13886344447E+02 -0.45309694745E+02  0.28689253596E+03  0.30481650517E+03  0.91432902366E+02 0.  0.
          5    1    4    4  502    0  0.18474363501E+02  0.10199823148E+02  0.12890927930E+02  0.25171502179E+02  0.47000000000E+01 0. -1.
         -5    1    4    4    0  502 -0.45880190547E+01 -0.55509517893E+02  0.27400160803E+03  0.27964500299E+03  0.47000000000E+01 0.  1.
          5    1    3    3  503    0 -0.43136485884E+02  0.49702655482E+02  0.38074864172E+03  0.38642299174E+03  0.47000000000E+01 0. -1.
         -5    1    3    3    0  503  0.29250141437E+02 -0.43929607372E+01  0.74458764046E+02  0.80256254719E+02  0.47000000000E+01 0.  1.
<mgrwt>
<rscale>  0 0.10294784E+03</rscale>
<asrwt>0</asrwt>
<pdfrwt beam="1">  1        3 0.22612167E-02 0.10298434E+03</pdfrwt>
<pdfrwt beam="2">  1       -3 0.11643041E+00 0.10298434E+03</pdfrwt>
<totfact> 0.11041460E+03</totfact>
</mgrwt>
</event>
<event>
 8    1  0.2964543E-004  0.2445011E+03  0.7546771E-02  0.1116839E+00
          2   -1    0    0  501    0  0.00000000000E+00  0.00000000000E+00  0.85908299907E+03  0.85908299907E+03  0.00000000000E+00 0. -1.
         -2   -1    0    0    0  501 -0.00000000000E+00 -0.00000000000E+00 -0.78209099032E+02  0.78209099032E+02  0.00000000000E+00 0.  1.
         23    2    1    2    0    0 -0.18125509248E+03 -0.13659552671E+03  0.23473092198E+03  0.33893862580E+03  0.90934261202E+02 0.  0.
         23    2    1    2    0    0  0.18125509248E+03  0.13659552671E+03  0.54614297806E+03  0.59835347230E+03  0.90790852322E+02 0.  0.
          5    1    3    3  502    0 -0.17865834383E+03 -0.10286174073E+03  0.17650303596E+03  0.27143093639E+03  0.47000000000E+01 0. -1.
         -5    1    4    4    0  503  0.68917280019E+02  0.82190815578E+02  0.16144247427E+03  0.19388317139E+03  0.47000000000E+01 0.  1.
          5    1    4    4  503    0  0.11233781246E+03  0.54404711129E+02  0.38470050379E+03  0.40447030091E+03  0.47000000000E+01 0. -1.
         -5    1    3    3    0  502 -0.25967486554E+01 -0.33733785972E+02  0.58227886022E+02  0.67507689415E+02  0.47000000000E+01 0.  1.
<mgrwt>
<rscale>  0 0.24448777E+03</rscale>
<asrwt>0</asrwt>
<pdfrwt beam="1">  1        2 0.13216661E+00 0.24450110E+03</pdfrwt>
<pdfrwt beam="2">  1       -2 0.12032170E-01 0.24450110E+03</pdfrwt>
<totfact> 0.15903827E+03</totfact>
</mgrwt>
</event>
<event>
 8    1  0.2964543E-004  0.9334542E+02  0.7546771E-02  0.1296892E+00
         -3   -1    0    0    0  501 -0.00000000000E+00  0.00000000000E+00  0.28414733363E+03  0.28414733363E+03  0.00000000000E+00 0.  1.
          3   -1    0    0  501    0  0.00000000000E+00 -0.00000000000E+00 -0.85607752680E+02  0.85607752680E+02  0.00000000000E+00 0. -1.
         23    2    1    2    0    0 -0.12197164598E+02 -0.52219310947E+01  0.24819712707E+03  0.26402316086E+03  0.89052659668E+02 0.  0.
         23    2    1    2    0    0  0.12197164598E+02  0.52219310947E+01 -0.49657546123E+02  0.10573192545E+03  0.92397666552E+02 0.  0.
          5    1    3    3  502    0  0.32839374555E+02 -0.23073264187E+02  0.93746276612E+02  0.10208454545E+03  0.47000000000E+01 0. -1.
         -5    1    3    3    0  502 -0.45036539152E+02  0.17851333092E+02  0.15445085046E+03  0.16193861541E+03  0.47000000000E+01 0.  1.
          5    1    4    4  503    0  0.29964999034E+02 -0.69285163192E+01 -0.69459140488E+02  0.76108919995E+02  0.47000000000E+01 0. -1.
         -5    1    4    4    0  503 -0.17767834437E+02  0.12150447414E+02  0.19801594364E+02  0.29623005457E+02  0.47000000000E+01 0.  1.
<mgrwt>
<rscale>  0 0.92506741E+02</rscale>
<asrwt>0</asrwt>
<pdfrwt beam="1">  1        3 0.13170424E-01 0.93345424E+02</pdfrwt>
<pdfrwt beam="2">  1       -3 0.43714974E-01 0.93345424E+02</pdfrwt>
<totfact> 0.52928800E+02</totfact>
</mgrwt>
</event>
<event>
 8    1  0.2964543E-004  0.9737231E+02  0.7546771E-02  0.1286211E+00
         -1   -1    0    0    0  501 -0.00000000000E+00  0.00000000000E+00  0.52693445599E+02  0.52693445599E+02  0.00000000000E+00 0.  1.
          1   -1    0    0  501    0  0.00000000000E+00 -0.00000000000E+00 -0.21153796836E+03  0.21153796836E+03  0.00000000000E+00 0. -1.
         23    2    1    2    0    0 -0.15274035621E+02 -0.31850168886E+02 -0.13145799323E+03  0.16359269737E+03  0.90739391819E+02 0.  0.
         23    2    1    2    0    0  0.15274035621E+02  0.31850168886E+02 -0.27386529537E+02  0.10063871659E+03  0.90168729916E+02 0.  0.
          5    1    4    4  502    0 -0.16189387699E+02  0.54535343488E+02 -0.10343401296E+02  0.58010998214E+02  0.47000000000E+01 0. -1.
         -5    1    4    4    0  502  0.31463423320E+02 -0.22685174602E+02 -0.17043128241E+02  0.42627718376E+02  0.47000000000E+01 0.  1.
          5    1    3    3  503    0  0.35479908546E+02  0.22752849292E+01 -0.43895422736E+02  0.56682439690E+02  0.47000000000E+01 0. -1.
         -5    1    3    3    0  503 -0.50753944167E+02 -0.34125453815E+02 -0.87562570490E+02  0.10691025768E+03  0.47000000000E+01 0.  1.
<mgrwt>
<rscale>  0 0.97239145E+02</rscale>
<asrwt>0</asrwt>
<pdfrwt beam="1">  1        1 0.32544303E-01 0.97372309E+02</pdfrwt>
<pdfrwt beam="2">  1       -1 0.81066840E-02 0.97372309E+02</pdfrwt>
<totfact> 0.10545263E+04</totfact>
</mgrwt>
</event>
<event>
 8    1  0.2964543E-004  0.9629624E+02  0.7546771E-02  0.1289925E+00
         -1   -1    0    0    0  501 -0.00000000000E+00  0.00000000000E+00  0.11783590522E+03  0.11783590522E+03  0.00000000000E+00 0.  1.
          1   -1    0    0  501    0  0.00000000000E+00 -0.00000000000E+00 -0.10053258738E+03  0.10053258738E+03  0.00000000000E+00 0. -1.
         23    2    1    2    0    0 -0.35558293853E+02 -0.11951445929E+02  0.62324422606E+02  0.11470527174E+03  0.88688986862E+02 0.  0.
         23    2    1    2    0    0  0.35558293853E+02  0.11951445929E+02 -0.45021104773E+02  0.10366322085E+03  0.85509848330E+02 0.  0.
          5    1    4    4  502    0 -0.37978108314E+01  0.38513171041E+02 -0.39723264597E+02  0.55657124081E+02  0.47000000000E+01 0.  1.
         -5    1    3    3    0  503 -0.45913383372E+01 -0.41845755884E+02  0.57095938208E+02  0.71092783270E+02  0.47000000000E+01 0.  1.
          5    1    3    3  503    0 -0.30966955516E+02  0.29894309955E+02  0.52284843984E+01  0.43612488472E+02  0.47000000000E+01 0. -1.
         -5    1    4    4    0  502  0.39356104685E+02 -0.26561725112E+02 -0.52978401757E+01  0.48006096773E+02  0.47000000000E+01 0.  1.
<mgrwt>
<rscale>  0 0.95557845E+02</rscale>
<asrwt>0</asrwt>
<pdfrwt beam="1">  1        1 0.15466552E-01 0.96296239E+02</pdfrwt>
<pdfrwt beam="2">  1       -1 0.18128601E-01 0.96296239E+02</pdfrwt>
<totfact> 0.77828603E+03</totfact>
</mgrwt>
</event>
<event>
 8    1  0.2964543E-004  0.1096102E+03  0.7546771E-02  0.1261986E+00
          1   -1    0    0  501    0  0.00000000000E+00  0.00000000000E+00  0.54506901520E+03  0.54506901520E+03  0.00000000000E+00 0. -1.
         -1   -1    0    0    0  501 -0.00000000000E+00 -0.00000000000E+00 -0.24284068684E+02  0.24284068684E+02  0.00000000000E+00 0.  1.
         23    2    1    2    0    0  0.51289000541E+02  0.30959537351E+02  0.35084268784E+03  0.36712853710E+03  0.90020645508E+02 0.  0.
         23    2    1    2    0    0 -0.51289000541E+02 -0.30959537351E+02  0.16994225868E+03  0.20222454678E+03  0.91789659038E+02 0.  0.
          5    1    4    4  502    0 -0.76873500588E+02 -0.28745880823E+02  0.11462366019E+03  0.14105507517E+03  0.47000000000E+01 0. -1.
         -5    1    3    3    0  503  0.18942463082E+02  0.16516273049E+02  0.15524581344E+02  0.29911650054E+02  0.47000000000E+01 0.  1.
          5    1    3    3  503    0  0.32346537458E+02  0.14443264302E+02  0.33531810649E+03  0.33721688705E+03  0.47000000000E+01 0. -1.
         -5    1    4    4    0  502  0.25584500047E+02 -0.22136565277E+01  0.55318598494E+02  0.61169471611E+02  0.47000000000E+01 0.  1.
<mgrwt>
<rscale>  0 0.10923905E+03</rscale>
<asrwt>0</asrwt>
<pdfrwt beam="1">  1        1 0.83856762E-01 0.10961020E+03</pdfrwt>
<pdfrwt beam="2">  1       -1 0.37360110E-02 0.10961020E+03</pdfrwt>
<totfact> 0.10264592E+04</totfact>
</mgrwt>
</event>
<event>
 8    1  0.2964543E-004  0.1112863E+03  0.7546771E-02  0.1259668E+00
         -1   -1    0    0    0  501 -0.00000000000E+00  0.00000000000E+00  0.43575762779E+03  0.43575762779E+03  0.00000000000E+00 0.  1.
          1   -1    0    0  501    0  0.00000000000E+00 -0.00000000000E+00 -0.35678461781E+02  0.35678461781E+02  0.00000000000E+00 0. -1.
         23    2    1    2    0    0  0.46256976168E+02 -0.34027838476E+02  0.30982539231E+03  0.32815179002E+03  0.91619986564E+02 0.  0.
         23    2    1    2    0    0 -0.46256976168E+02  0.34027838476E+02  0.90253773705E+02  0.14328429956E+03  0.95325994335E+02 0.  0.
          5    1    4    4  502    0 -0.35776583750E+01 -0.19784059022E+02 -0.89748209241E+01  0.22513241469E+02  0.47000000000E+01 0. -1.
         -5    1    4    4    0  502 -0.42679317793E+02  0.53811897498E+02  0.99228594629E+02  0.12077105809E+03  0.47000000000E+01 0.  1.
          5    1    3    3  503    0  0.39792715106E+01 -0.55817417912E+02  0.12139373906E+03  0.13375331258E+03  0.47000000000E+01 0. -1.
         -5    1    3    3    0  503  0.42277704657E+02  0.21789579437E+02  0.18843165325E+03  0.19439847743E+03  0.47000000000E+01 0.  1.
<mgrwt>
<rscale>  0 0.11048839E+03</rscale>
<asrwt>0</asrwt>
<pdfrwt beam="1">  1        1 0.54889944E-02 0.11128633E+03</pdfrwt>
<pdfrwt beam="2">  1       -1 0.67039631E-01 0.11128633E+03</pdfrwt>
<totfact> 0.32488120E+03</totfact>
</mgrwt>
</event>
<event>
 8    1  0.2964543E-004  0.1187959E+03  0.7546771E-02  0.1245798E+00
          1   -1    0    0  501    0  0.00000000000E+00  0.00000000000E+00  0.78972871552E+03  0.78972871552E+03  0.00000000000E+00 0. -1.
         -1   -1    0    0    0  501 -0.00000000000E+00 -0.00000000000E+00 -0.17849772153E+02  0.17849772153E+02  0.00000000000E+00 0.  1.
         23    2    1    2    0    0 -0.19820660423E+02 -0.68961404795E+02  0.34285331622E+03  0.36285102504E+03  0.94678065033E+02 0.  0.
         23    2    1    2    0    0  0.19820660423E+02  0.68961404795E+02  0.42902562715E+03  0.44472746263E+03  0.92579659430E+02 0.  0.
          5    1    4    4  502    0  0.37400646762E+02 -0.68365490512E+01  0.11701181226E+03  0.12312351924E+03  0.47000000000E+01 0. -1.
         -5    1    4    4    0  502 -0.17579986339E+02  0.75797953846E+02  0.31201381488E+03  0.32160394339E+03  0.47000000000E+01 0.  1.
          5    1    3    3  503    0 -0.46446003248E+02 -0.73281022591E+02  0.21108311132E+03  0.22826631240E+03  0.47000000000E+01 0. -1.
         -5    1    3    3    0  503  0.26625342824E+02  0.43196177965E+01  0.13177020490E+03  0.13458471264E+03  0.47000000000E+01 0.  1.
<mgrwt>
<rscale>  0 0.11837733E+03</rscale>
<asrwt>0</asrwt>
<pdfrwt beam="1">  1        1 0.12149670E+00 0.11879592E+03</pdfrwt>
<pdfrwt beam="2">  1       -1 0.27461194E-02 0.11879592E+03</pdfrwt>
<totfact> 0.96265618E+03</totfact>
</mgrwt>
</event>
<event>
 8    1  0.2964543E-004  0.1009269E+03  0.7546771E-02  0.1283593E+00
          2   -1    0    0  501    0  0.00000000000E+00  0.00000000000E+00  0.11784297937E+03  0.11784297937E+03  0.00000000000E+00 0. -1.
         -2   -1    0    0    0  501 -0.00000000000E+00 -0.00000000000E+00 -0.10903467760E+03  0.10903467760E+03  0.00000000000E+00 0.  1.
         23    2    1    2    0    0 -0.10295960737E+02 -0.47664592301E+01 -0.55465036114E+02  0.11516339399E+03  0.10028714346E+03 0.  0.
         23    2    1    2    0    0  0.10295960737E+02  0.47664592301E+01  0.64273337879E+02  0.11171426297E+03  0.90665807493E+02 0.  0.
          5    1    3    3  502    0 -0.31433061709E+02  0.33890572201E+02 -0.53433506930E+02  0.70808459349E+02  0.47000000000E+01 0. -1.
         -5    1    4    4    0  503  0.45381216606E+02 -0.18253776688E+02  0.33862270300E+02  0.59677454150E+02  0.47000000000E+01 0. -1.
          5    1    4    4  503    0 -0.35085255869E+02  0.23020235918E+02  0.30411067580E+02  0.52036808823E+02  0.47000000000E+01 0.  1.
         -5    1    3    3    0  502  0.21137100972E+02 -0.38657031431E+02 -0.20315291839E+01  0.44354934646E+02  0.47000000000E+01 0.  1.
<mgrwt>
<rscale>  0 0.98448606E+02</rscale>
<asrwt>0</asrwt>
<pdfrwt beam="1">  1        2 0.18129689E-01 0.10092689E+03</pdfrwt>
<pdfrwt beam="2">  1       -2 0.16774566E-01 0.10092689E+03</pdfrwt>
<totfact> 0.81400547E+03</totfact>
</mgrwt>
</event>
<event>
 8    1  0.2964543E-004  0.9494007E+02  0.7546771E-02  0.1292293E+00
         -2   -1    0    0    0  501 -0.00000000000E+00  0.00000000000E+00  0.12397640952E+03  0.12397640952E+03  0.00000000000E+00 0.  1.
          2   -1    0    0  501    0  0.00000000000E+00 -0.00000000000E+00 -0.30111298384E+03  0.30111298384E+03  0.00000000000E+00 0. -1.
         23    2    1    2    0    0 -0.95692542080E+01  0.22053166571E+02  0.97269683339E+02  0.13472339716E+03  0.90061588171E+02 0.  0.
         23    2    1    2    0    0  0.95692542080E+01 -0.22053166571E+02 -0.27440625766E+03  0.29036599620E+03  0.91846092610E+02 0.  0.
          5    1    4    4  502    0  0.26538232819E+02 -0.76690544189E+01 -0.26378859034E+03  0.26527269477E+03  0.47000000000E+01 0. -1.
         -5    1    4    4    0  502 -0.16968978611E+02 -0.14384112152E+02 -0.10617667315E+02  0.25093301431E+02  0.47000000000E+01 0.  1.
          5    1    3    3  503    0  0.24122737079E+02 -0.24948287775E+02  0.40645233300E+02  0.53651174238E+02  0.47000000000E+01 0. -1.
         -5    1    3    3    0  503 -0.33691991287E+02  0.47001454346E+02  0.56624450039E+02  0.81072222923E+02  0.47000000000E+01 0.  1.
<mgrwt>
<rscale>  0 0.94505789E+02</rscale>
<asrwt>0</asrwt>
<pdfrwt beam="1">  1        2 0.46325074E-01 0.94940073E+02</pdfrwt>
<pdfrwt beam="2">  1       -2 0.19073294E-01 0.94940073E+02</pdfrwt>
<totfact> 0.23791736E+03</totfact>
</mgrwt>
</event>
<event>
 8    1  0.2964543E-004  0.1145401E+03  0.7546771E-02  0.1254754E+00
          1   -1    0    0  501    0  0.00000000000E+00  0.00000000000E+00  0.34729316323E+03  0.34729316323E+03  0.00000000000E+00 0. -1.
         -1   -1    0    0    0  501 -0.00000000000E+00 -0.00000000000E+00 -0.37200888146E+02  0.37200888146E+02  0.00000000000E+00 0.  1.
         23    2    1    2    0    0  0.24534068105E+02 -0.57859015020E+02  0.18515935592E+03  0.21500169496E+03  0.89398857007E+02 0.  0.
         23    2    1    2    0    0 -0.24534068105E+02  0.57859015020E+02  0.12493291916E+03  0.16949235641E+03  0.95759273576E+02 0.  0.
          5    1    4    4  502    0 -0.39687643631E+01 -0.26677939523E+02  0.31618463580E+02  0.41824404203E+02  0.47000000000E+01 0. -1.
         -5    1    3    3    0  503  0.44653528560E+02  0.23895625852E+01  0.65521281548E+02  0.79465564605E+02  0.47000000000E+01 0.  1.
          5    1    3    3  503    0 -0.20119460455E+02 -0.60248577605E+02  0.11963807438E+03  0.13553613036E+03  0.47000000000E+01 0. -1.
         -5    1    4    4    0  502 -0.20565303742E+02  0.84536954543E+02  0.93314455580E+02  0.12766795221E+03  0.47000000000E+01 0.  1.
<mgrwt>
<rscale>  0 0.11320132E+03</rscale>
<asrwt>0</asrwt>
<pdfrwt beam="1">  1        1 0.53429715E-01 0.11454006E+03</pdfrwt>
<pdfrwt beam="2">  1       -1 0.57232138E-02 0.11454006E+03</pdfrwt>
<totfact> 0.97596932E+03</totfact>
</mgrwt>
</event>
<event>
 8    1  0.2964543E-004  0.9329386E+02  0.7546771E-02  0.1296553E+00
          1   -1    0    0  501    0  0.00000000000E+00  0.00000000000E+00  0.26126261688E+03  0.26126261688E+03  0.00000000000E+00 0. -1.
         -1   -1    0    0    0  501 -0.00000000000E+00 -0.00000000000E+00 -0.32970019880E+02  0.32970019880E+02  0.00000000000E+00 0.  1.
         23    2    1    2    0    0  0.25386991861E+01  0.19811426234E+02  0.13171200261E+03  0.15995101083E+03  0.88528733372E+02 0.  0.
         23    2    1    2    0    0 -0.25386991861E+01 -0.19811426234E+02  0.96580594386E+02  0.13428162592E+03  0.91130709671E+02 0.  0.
          5    1    3    3  502    0  0.13387546556E+02 -0.33126196585E+02  0.60721355010E+02  0.70609802841E+02  0.47000000000E+01 0. -1.
         -5    1    4    4    0  503 -0.44469473633E+02  0.38252926006E+01  0.48694666300E+02  0.66222560165E+02  0.47000000000E+01 0.  1.
          5    1    4    4  503    0  0.41930774447E+02 -0.23636718835E+02  0.47885928086E+02  0.68059065757E+02  0.47000000000E+01 0. -1.
         -5    1    3    3    0  502 -0.10848847370E+02  0.52937622820E+02  0.70990647600E+02  0.89341207993E+02  0.47000000000E+01 0.  1.
<mgrwt>
<rscale>  0 0.92652286E+02</rscale>
<asrwt>0</asrwt>
<pdfrwt beam="1">  1        1 0.40194247E-01 0.93293858E+02</pdfrwt>
<pdfrwt beam="2">  1       -1 0.50723109E-02 0.93293858E+02</pdfrwt>
<totfact> 0.16235433E+04</totfact>
</mgrwt>
</event>
<event>
 8    1  0.2964543E-004  0.1084105E+03  0.7546771E-02  0.1263721E+00
          2   -1    0    0  501    0  0.00000000000E+00  0.00000000000E+00  0.92621019481E+03  0.92621019481E+03  0.00000000000E+00 0. -1.
         -2   -1    0    0    0  501 -0.00000000000E+00 -0.00000000000E+00 -0.14540173025E+02  0.14540173025E+02  0.00000000000E+00 0.  1.
         23    2    1    2    0    0  0.46803914597E+02 -0.36184214952E+02  0.28532176711E+03  0.30508931112E+03  0.90393988394E+02 0.  0.
         23    2    1    2    0    0 -0.46803914597E+02  0.36184214952E+02  0.62634825467E+03  0.63566105671E+03  0.90845688179E+02 0.  0.
          5    1    4    4  502    0 -0.98723909174E+01  0.62023969219E+02  0.37840530452E+03  0.38361061162E+03  0.47000000000E+01 0. -1.
         -5    1    4    4    0  502 -0.36931523679E+02 -0.25839754266E+02  0.24794295015E+03  0.25205044509E+03  0.47000000000E+01 0.  1.
          5    1    3    3  503    0  0.30796489408E+02  0.27046381164E+02  0.87483084904E+02  0.96722854787E+02  0.47000000000E+01 0. -1.
         -5    1    3    3    0  503  0.16007425189E+02 -0.63230596116E+02  0.19783868221E+03  0.20836645633E+03  0.47000000000E+01 0.  1.
<mgrwt>
<rscale>  0 0.10831585E+03</rscale>
<asrwt>0</asrwt>
<pdfrwt beam="1">  1        2 0.14249383E+00 0.10841053E+03</pdfrwt>
<pdfrwt beam="2">  1       -2 0.22369504E-02 0.10841053E+03</pdfrwt>
<totfact> 0.17943588E+04</totfact>
</mgrwt>
</event>
<event>
 8    1  0.2964543E-004  0.1931442E+03  0.7546771E-02  0.1155678E+00
          2   -1    0    0  501    0  0.00000000000E+00  0.00000000000E+00  0.62363275564E+02  0.62363275564E+02  0.00000000000E+00 0. -1.
         -2   -1    0    0    0  501 -0.00000000000E+00 -0.00000000000E+00 -0.96240077631E+03  0.96240077631E+03  0.00000000000E+00 0.  1.
         23    2    1    2    0    0 -0.16143978301E+03  0.53756918884E+02 -0.13474789828E+03  0.23550304411E+03  0.91389703075E+02 0.  0.
         23    2    1    2    0    0  0.16143978301E+03 -0.53756918884E+02 -0.76528960247E+03  0.78926100777E+03  0.91171008967E+02 0.  0.
          5    1    3    3  502    0 -0.16613477366E+03  0.31602211894E+02 -0.12526048778E+03  0.21050354537E+03  0.47000000000E+01 0. -1.
         -5    1    4    4    0  503  0.11940964925E+03 -0.68665196458E+02 -0.44520763148E+03  0.46605310713E+03  0.47000000000E+01 0.  1.
          5    1    4    4  503    0  0.42030133754E+02  0.14908277575E+02 -0.32008197099E+03  0.32320790064E+03  0.47000000000E+01 0. -1.
         -5    1    3    3    0  502  0.46949906537E+01  0.22154706990E+02 -0.94874105030E+01  0.24999498737E+02  0.47000000000E+01 0.  1.
<mgrwt>
<rscale>  0 0.19311836E+03</rscale>
<asrwt>0</asrwt>
<pdfrwt beam="1">  1        2 0.95943502E-02 0.19314421E+03</pdfrwt>
<pdfrwt beam="2">  1       -2 0.14806166E+00 0.19314421E+03</pdfrwt>
<totfact> 0.22128898E+02</totfact>
</mgrwt>
</event>
<event>
 8    1  0.2964543E-004  0.1039236E+03  0.7546771E-02  0.1273971E+00
         -1   -1    0    0    0  501 -0.00000000000E+00  0.00000000000E+00  0.82987894017E+01  0.82987894017E+01  0.00000000000E+00 0.  1.
          1   -1    0    0  501    0  0.00000000000E+00 -0.00000000000E+00 -0.12601418597E+04  0.12601418597E+04  0.00000000000E+00 0. -1.
         23    2    1    2    0    0  0.24760465332E+02 -0.37703713011E+02 -0.60110661883E+03  0.60945807134E+03  0.89862800413E+02 0.  0.
         23    2    1    2    0    0 -0.24760465332E+02  0.37703713011E+02 -0.65073645149E+03  0.65898257778E+03  0.93624024214E+02 0.  0.
          5    1    4    4  502    0 -0.20952651343E+02 -0.29477100819E+02 -0.23020590840E+03  0.23307673271E+03  0.47000000000E+01 0. -1.
         -5    1    4    4    0  502 -0.38078139890E+01  0.67180813830E+02 -0.42053054309E+03  0.42590584507E+03  0.47000000000E+01 0.  1.
          5    1    3    3  503    0  0.20430170034E+02 -0.57299593082E+02 -0.56153655568E+03  0.56484159601E+03  0.47000000000E+01 0. -1.
         -5    1    3    3    0  503  0.43302952981E+01  0.19595880071E+02 -0.39570063147E+02  0.44616475327E+02  0.47000000000E+01 0.  1.
<mgrwt>
<rscale>  0 0.10306929E+03</rscale>
<asrwt>0</asrwt>
<pdfrwt beam="1">  1        1 0.19386792E+00 0.10392357E+03</pdfrwt>
<pdfrwt beam="2">  1       -1 0.12767372E-02 0.10392357E+03</pdfrwt>
<totfact> 0.13021516E+04</totfact>
</mgrwt>
</event>
<event>
 8    1  0.2964543E-004  0.1266362E+03  0.7546771E-02  0.1233917E+00
         -2   -1    0    0    0  501 -0.00000000000E+00  0.00000000000E+00  0.32853230311E+02  0.32853230311E+02  0.00000000000E+00 0.  1.
          2   -1    0    0  501    0  0.00000000000E+00 -0.00000000000E+00 -0.79476040559E+03  0.79476040559E+03  0.00000000000E+00 0. -1.
         23    2    1    2    0    0 -0.40938264840E+02  0.75496654067E+02 -0.11508322168E+03  0.16850973663E+03  0.88179913372E+02 0.  0.
         23    2    1    2    0    0  0.40938264840E+02 -0.75496654067E+02 -0.64682395360E+03  0.65910389927E+03  0.93064691408E+02 0.  0.
          5    1    3    3  502    0 -0.21041900356E+02 -0.16437210987E+02 -0.38685236023E+02  0.47239612210E+02  0.47000000000E+01 0. -1.
         -5    1    4    4    0  503  0.24576385795E+02  0.18187971356E+02 -0.18465834912E+03  0.18723139945E+03  0.47000000000E+01 0.  1.
          5    1    4    4  503    0  0.16361879045E+02 -0.93684625423E+02 -0.46216560448E+03  0.47187249983E+03  0.47000000000E+01 0. -1.
         -5    1    3    3    0  502 -0.19896364484E+02  0.91933865054E+02 -0.76397985660E+02  0.12127012442E+03  0.47000000000E+01 0.  1.
<mgrwt>
<rscale>  0 0.12574042E+03</rscale>
<asrwt>0</asrwt>
<pdfrwt beam="1">  1        2 0.12227084E+00 0.12663618E+03</pdfrwt>
<pdfrwt beam="2">  1       -2 0.50543428E-02 0.12663618E+03</pdfrwt>
<totfact> 0.66372919E+03</totfact>
</mgrwt>
</event>
<event>
 8    1  0.2964543E-004  0.1124813E+03  0.7546771E-02  0.1256906E+00
          1   -1    0    0  501    0  0.00000000000E+00  0.00000000000E+00  0.90919133714E+02  0.90919133714E+02  0.00000000000E+00 0. -1.
         -1   -1    0    0    0  501 -0.00000000000E+00 -0.00000000000E+00 -0.13769838073E+03  0.13769838073E+03  0.00000000000E+00 0.  1.
         23    2    1    2    0    0 -0.49306805877E+02  0.41143155224E+02 -0.32753008533E+02  0.11715293132E+03  0.92347871776E+02 0.  0.
         23    2    1    2    0    0  0.49306805877E+02 -0.41143155224E+02 -0.14026238486E+02  0.11146458313E+03  0.90020539865E+02 0.  0.
          5    1    4    4  502    0 -0.24418505562E+02 -0.93612169210E+01 -0.16005662116E+02  0.31018817126E+02  0.47000000000E+01 0. -1.
         -5    1    3    3    0  503  0.27237903707E+02  0.14064152459E+02 -0.11665676266E+02  0.33134299231E+02  0.47000000000E+01 0.  1.
          5    1    3    3  503    0 -0.76544709585E+02  0.27079002765E+02 -0.21087332266E+02  0.84018632090E+02  0.47000000000E+01 0. -1.
         -5    1    4    4    0  502  0.73725311440E+02 -0.31781938303E+02  0.19794236301E+01  0.80445765999E+02  0.47000000000E+01 0.  1.
<mgrwt>
<rscale>  0 0.11200259E+03</rscale>
<asrwt>0</asrwt>
<pdfrwt beam="1">  1        1 0.13987559E-01 0.11248133E+03</pdfrwt>
<pdfrwt beam="2">  1       -1 0.21184366E-01 0.11248133E+03</pdfrwt>
<totfact> 0.70002066E+03</totfact>
</mgrwt>
</event>
<event>
 8    1  0.2964543E-004  0.9631798E+02  0.7546771E-02  0.1288851E+00
         -1   -1    0    0    0  501 -0.00000000000E+00  0.00000000000E+00  0.56442957638E+02  0.56442957638E+02  0.00000000000E+00 0.  1.
          1   -1    0    0  501    0  0.00000000000E+00 -0.00000000000E+00 -0.33375645320E+03  0.33375645320E+03  0.00000000000E+00 0. -1.
         23    2    1    2    0    0 -0.77581240375E+01 -0.26327995089E+02 -0.27802810562E+03  0.29387877797E+03  0.91168836860E+02 0.  0.
         23    2    1    2    0    0  0.77581240375E+01  0.26327995089E+02  0.71461005877E+00  0.96320632863E+02  0.92324437900E+02 0.  0.
          5    1    3    3  502    0  0.31513845369E+02 -0.37489193722E+02 -0.19666142997E+03  0.20272239673E+03  0.47000000000E+01 0. -1.
         -5    1    3    3    0  502 -0.39271969406E+02  0.11161198633E+02 -0.81366675643E+02  0.91156381242E+02  0.47000000000E+01 0.  1.
          5    1    4    4  503    0  0.16892938980E+02 -0.16659926893E+02 -0.32870091773E+02  0.40810016964E+02  0.47000000000E+01 0. -1.
         -5    1    4    4    0  503 -0.91348149420E+01  0.42987921982E+02  0.33584701832E+02  0.55510615899E+02  0.47000000000E+01 0.  1.
<mgrwt>
<rscale>  0 0.96040001E+02</rscale>
<asrwt>0</asrwt>
<pdfrwt beam="1">  1        1 0.51347147E-01 0.96317982E+02</pdfrwt>
<pdfrwt beam="2">  1       -1 0.86835318E-02 0.96317982E+02</pdfrwt>
<totfact> 0.54389723E+03</totfact>
</mgrwt>
</event>
<event>
 8    1  0.2964543E-004  0.9472920E+02  0.7546771E-02  0.1293359E+00
         -1   -1    0    0    0  501 -0.00000000000E+00  0.00000000000E+00  0.27208932803E+03  0.27208932803E+03  0.00000000000E+00 0.  1.
          1   -1    0    0  501    0  0.00000000000E+00 -0.00000000000E+00 -0.34721713440E+02  0.34721713440E+02  0.00000000000E+00 0. -1.
         23    2    1    2    0    0 -0.49611982510E+00  0.91075897739E+00  0.16296125016E+03  0.18849400518E+03  0.94723520406E+02 0.  0.
         23    2    1    2    0    0  0.49611982510E+00 -0.91075897739E+00  0.74406364428E+02  0.11831703629E+03  0.91986620721E+02 0.  0.
          5    1    3    3  502    0  0.16858290878E+02  0.19552284501E+02  0.29567271623E+01  0.26406931591E+02  0.47000000000E+01 0. -1.
         -5    1    3    3    0  502 -0.17354410704E+02 -0.18641525524E+02  0.16000452300E+03  0.16208707359E+03  0.47000000000E+01 0.  1.
          5    1    4    4  503    0  0.40194998131E+02  0.16125505888E+02  0.18054840158E+02  0.47156516708E+02  0.47000000000E+01 0. -1.
         -5    1    4    4    0  503 -0.39698878306E+02 -0.17036264865E+02  0.56351524271E+02  0.71160519580E+02  0.47000000000E+01 0.  1.
<mgrwt>
<rscale>  0 0.94037475E+02</rscale>
<asrwt>0</asrwt>
<pdfrwt beam="1">  1        1 0.53418023E-02 0.94729198E+02</pdfrwt>
<pdfrwt beam="2">  1       -1 0.41859895E-01 0.94729198E+02</pdfrwt>
<totfact> 0.79103160E+03</totfact>
</mgrwt>
</event>
<event>
 8    1  0.2964543E-004  0.9351141E+02  0.7546771E-02  0.1294757E+00
          4   -1    0    0  501    0  0.00000000000E+00  0.00000000000E+00  0.18236967005E+03  0.18236967005E+03  0.00000000000E+00 0. -1.
         -4   -1    0    0    0  501 -0.00000000000E+00 -0.00000000000E+00 -0.65428865040E+02  0.65428865040E+02  0.00000000000E+00 0.  1.
         23    2    1    2    0    0 -0.19766505144E+02 -0.22024723343E+01 -0.58072765425E+01  0.93691559185E+02  0.91371867617E+02 0.  0.
         23    2    1    2    0    0  0.19766505144E+02  0.22024723343E+01  0.12274808155E+03  0.15410697590E+03  0.91029132081E+02 0.  0.
          5    1    4    4  502    0  0.31807259935E+02 -0.38392968160E+02  0.58365111935E+02  0.76904473732E+02  0.47000000000E+01 0. -1.
         -5    1    3    3    0  503 -0.30966134117E+02  0.33713734841E+02 -0.23706047130E+02  0.51764698875E+02  0.47000000000E+01 0.  1.
          5    1    3    3  503    0  0.11199628972E+02 -0.35916207176E+02  0.17898770587E+02  0.41926860311E+02  0.47000000000E+01 0. -1.
         -5    1    4    4    0  502 -0.12040754791E+02  0.40595440495E+02  0.64382969618E+02  0.77202502173E+02  0.47000000000E+01 0.  1.
<mgrwt>
<rscale>  0 0.93427581E+02</rscale>
<asrwt>0</asrwt>
<pdfrwt beam="1">  1        4 0.28056872E-01 0.93511410E+02</pdfrwt>
<pdfrwt beam="2">  1       -4 0.10065979E-01 0.93511410E+02</pdfrwt>
<totfact> 0.13670195E+03</totfact>
</mgrwt>
</event>
<event>
 8    1  0.2964543E-004  0.1117189E+03  0.7546771E-02  0.1257881E+00
          1   -1    0    0  501    0  0.00000000000E+00  0.00000000000E+00  0.28984802860E+03  0.28984802860E+03  0.00000000000E+00 0. -1.
         -1   -1    0    0    0  501 -0.00000000000E+00 -0.00000000000E+00 -0.51014821594E+02  0.51014821594E+02  0.00000000000E+00 0.  1.
         23    2    1    2    0    0  0.56892199762E+02 -0.29610192104E+02  0.50947213855E+02  0.12278734124E+03  0.91474732569E+02 0.  0.
         23    2    1    2    0    0 -0.56892199762E+02  0.29610192104E+02  0.18788599316E+03  0.21807550896E+03  0.90234668026E+02 0.  0.
          5    1    3    3  502    0  0.31350936787E+02 -0.41216697965E+02  0.70985206509E+02  0.87992539296E+02  0.47000000000E+01 0. -1.
         -5    1    3    3    0  502  0.25541262975E+02  0.11606505861E+02 -0.20037992654E+02  0.34794801943E+02  0.47000000000E+01 0.  1.
          5    1    4    4  503    0 -0.90544015550E+00 -0.20238464287E+02  0.10147326188E+03  0.10358247021E+03  0.47000000000E+01 0. -1.
         -5    1    4    4    0  503 -0.55986759607E+02  0.49848656391E+02  0.86412731277E+02  0.11449303875E+03  0.47000000000E+01 0.  1.
<mgrwt>
<rscale>  0 0.11146477E+03</rscale>
<asrwt>0</asrwt>
<pdfrwt beam="1">  1        1 0.44592003E-01 0.11171890E+03</pdfrwt>
<pdfrwt beam="2">  1       -1 0.78484343E-02 0.11171890E+03</pdfrwt>
<totfact> 0.76069579E+03</totfact>
</mgrwt>
</event>
<event>
 8    1  0.2964543E-004  0.9813899E+02  0.7546771E-02  0.1284716E+00
         -1   -1    0    0    0  501 -0.00000000000E+00  0.00000000000E+00  0.22071787042E+02  0.22071787042E+02  0.00000000000E+00 0.  1.
          1   -1    0    0  501    0  0.00000000000E+00 -0.00000000000E+00 -0.53696888571E+03  0.53696888571E+03  0.00000000000E+00 0. -1.
         23    2    1    2    0    0 -0.35081162484E+02 -0.10017431937E+02 -0.13333021937E+03  0.16505521131E+03  0.90195556879E+02 0.  0.
         23    2    1    2    0    0  0.35081162484E+02  0.10017431937E+02 -0.38156687930E+03  0.39398546144E+03  0.91105562638E+02 0.  0.
          5    1    3    3  502    0  0.30012698071E+02 -0.32852757113E+01 -0.54622209179E+02  0.62587784891E+02  0.47000000000E+01 0. -1.
         -5    1    3    3    0  502 -0.65093860555E+02 -0.67321562257E+01 -0.78708010192E+02  0.10246742642E+03  0.47000000000E+01 0.  1.
          5    1    4    4  503    0 -0.12162686912E+02  0.33144719370E+02 -0.24478609913E+03  0.24736375583E+03  0.47000000000E+01 0. -1.
         -5    1    4    4    0  503  0.47243849396E+02 -0.23127287433E+02 -0.13678078017E+03  0.14662170560E+03  0.47000000000E+01 0.  1.
<mgrwt>
<rscale>  0 0.97927251E+02</rscale>
<asrwt>0</asrwt>
<pdfrwt beam="1">  1        1 0.82610588E-01 0.98138985E+02</pdfrwt>
<pdfrwt beam="2">  1       -1 0.33956599E-02 0.98138985E+02</pdfrwt>
<totfact> 0.11920915E+04</totfact>
</mgrwt>
</event>
<event>
 8    1  0.2964543E-004  0.1085672E+03  0.7546771E-02  0.1263256E+00
         -3   -1    0    0    0  501 -0.00000000000E+00  0.00000000000E+00  0.70979346658E+02  0.70979346658E+02  0.00000000000E+00 0.  1.
          3   -1    0    0  501    0  0.00000000000E+00 -0.00000000000E+00 -0.16608695710E+03  0.16608695710E+03  0.00000000000E+00 0. -1.
         23    2    1    2    0    0  0.57481730458E+02 -0.14776367501E+02 -0.49760981993E+02  0.11942776135E+03  0.90908440085E+02 0.  0.
         23    2    1    2    0    0 -0.57481730458E+02  0.14776367501E+02 -0.45346628451E+02  0.11763854241E+03  0.90884649837E+02 0.  0.
          5    1    4    4  502    0 -0.81830740212E+02  0.73631490110E+01 -0.38555634457E+02  0.90879661946E+02  0.47000000000E+01 0. -1.
         -5    1    4    4    0  502  0.24349009754E+02  0.74132184897E+01 -0.67909939943E+01  0.26758880466E+02  0.47000000000E+01 0.  1.
          5    1    3    3  503    0  0.38555715238E+02  0.36741833318E+02 -0.25530714657E+02  0.59248737404E+02  0.47000000000E+01 0. -1.
         -5    1    3    3    0  503  0.18926015220E+02 -0.51518200819E+02 -0.24230267336E+02  0.60179023944E+02  0.47000000000E+01 0.  1.
<mgrwt>
<rscale>  0 0.10856221E+03</rscale>
<asrwt>0</asrwt>
<pdfrwt beam="1">  1        3 0.25551839E-01 0.10856719E+03</pdfrwt>
<pdfrwt beam="2">  1       -3 0.10919900E-01 0.10856719E+03</pdfrwt>
<totfact> 0.20234062E+03</totfact>
</mgrwt>
</event>
<event>
 8    1  0.2964543E-004  0.1103356E+03  0.7546771E-02  0.1268730E+00
         -2   -1    0    0    0  501 -0.00000000000E+00  0.00000000000E+00  0.14479883752E+03  0.14479883752E+03  0.00000000000E+00 0.  1.
          2   -1    0    0  501    0  0.00000000000E+00 -0.00000000000E+00 -0.73501983678E+02  0.73501983678E+02  0.00000000000E+00 0. -1.
         23    2    1    2    0    0 -0.20428119457E+02  0.50670423957E+01  0.20022373012E+02  0.11213764190E+03  0.10830961327E+03 0.  0.
         23    2    1    2    0    0  0.20428119457E+02 -0.50670423957E+01  0.51274480834E+02  0.10616317930E+03  0.90545929068E+02 0.  0.
          5    1    3    3  502    0 -0.47008890791E+02  0.21757118274E+02 -0.24474267264E+02  0.57482934573E+02  0.47000000000E+01 0. -1.
         -5    1    3    3    0  502  0.26580771334E+02 -0.16690075879E+02  0.44496640276E+02  0.54654707330E+02  0.47000000000E+01 0.  1.
          5    1    4    4  503    0 -0.28688276023E+02  0.14787431795E+02  0.40321682486E+02  0.51861482806E+02  0.47000000000E+01 0. -1.
         -5    1    4    4    0  503  0.49116395480E+02 -0.19854474191E+02  0.10952798348E+02  0.54301696493E+02  0.47000000000E+01 0.  1.
<mgrwt>
<rscale>  0 0.10570872E+03</rscale>
<asrwt>0</asrwt>
<pdfrwt beam="1">  1        2 0.11307997E-01 0.11033565E+03</pdfrwt>
<pdfrwt beam="2">  1       -2 0.22276744E-01 0.11033565E+03</pdfrwt>
<totfact> 0.88546831E+03</totfact>
</mgrwt>
</event>
<event>
 8    1  0.2964543E-004  0.9501363E+02  0.7546771E-02  0.1292225E+00
         -1   -1    0    0    0  501 -0.00000000000E+00  0.00000000000E+00  0.16526034767E+03  0.16526034767E+03  0.00000000000E+00 0.  1.
          1   -1    0    0  501    0  0.00000000000E+00 -0.00000000000E+00 -0.57884348689E+02  0.57884348689E+02  0.00000000000E+00 0. -1.
         23    2    1    2    0    0 -0.16318836958E+02  0.41737896765E+01  0.84748877928E+02  0.12731835217E+03  0.93508638795E+02 0.  0.
         23    2    1    2    0    0  0.16318836958E+02 -0.41737896765E+01  0.22627121049E+02  0.95826344185E+02  0.91580438266E+02 0.  0.
          5    1    3    3  502    0  0.29500795156E+02  0.62938094730E+01 -0.35008328389E+00  0.30530665090E+02  0.47000000000E+01 0. -1.
         -5    1    4    4    0  503 -0.12613657125E+02 -0.40773136854E+02 -0.17595622165E+01  0.42973702356E+02  0.47000000000E+01 0.  1.
          5    1    4    4  503    0  0.28932494083E+02  0.36599347177E+02  0.24386683265E+02  0.52852641829E+02  0.47000000000E+01 0. -1.
         -5    1    3    3    0  502 -0.45819632114E+02 -0.21200197966E+01  0.85098961212E+02  0.96787687080E+02  0.47000000000E+01 0.  1.
<mgrwt>
<rscale>  0 0.94535783E+02</rscale>
<asrwt>0</asrwt>
<pdfrwt beam="1">  1        1 0.89052845E-02 0.95013633E+02</pdfrwt>
<pdfrwt beam="2">  1       -1 0.25424669E-01 0.95013633E+02</pdfrwt>
<totfact> 0.92653093E+03</totfact>
</mgrwt>
</event>
<event>
 8    1  0.2964543E-004  0.9981564E+02  0.7546771E-02  0.1281460E+00
          1   -1    0    0  501    0  0.00000000000E+00  0.00000000000E+00  0.19857189838E+03  0.19857189838E+03  0.00000000000E+00 0. -1.
         -1   -1    0    0    0  501 -0.00000000000E+00 -0.00000000000E+00 -0.50379595875E+02  0.50379595875E+02  0.00000000000E+00 0.  1.
         23    2    1    2    0    0 -0.34607783824E+02  0.25750495245E+01  0.90533837378E+02  0.13367937956E+03  0.92029730124E+02 0.  0.
         23    2    1    2    0    0  0.34607783824E+02 -0.25750495245E+01  0.57658465122E+02  0.11527211469E+03  0.93588633096E+02 0.  0.
          5    1    4    4  502    0  0.21202163528E+02  0.18381106189E+02  0.77851909625E+02  0.82887916099E+02  0.47000000000E+01 0. -1.
         -5    1    3    3    0  503 -0.42505304667E+02  0.35007326202E+02  0.82036595895E+02  0.98915655377E+02  0.47000000000E+01 0.  1.
          5    1    3    3  503    0  0.78975208433E+01 -0.32432276677E+02  0.84972414830E+01  0.34763724179E+02  0.47000000000E+01 0. -1.
         -5    1    4    4    0  502  0.13405620295E+02 -0.20956155713E+02 -0.20193444503E+02  0.32384198596E+02  0.47000000000E+01 0.  1.
<mgrwt>
<rscale>  0 0.99448580E+02</rscale>
<asrwt>0</asrwt>
<pdfrwt beam="1">  1        1 0.30549523E-01 0.99815639E+02</pdfrwt>
<pdfrwt beam="2">  1       -1 0.77507071E-02 0.99815639E+02</pdfrwt>
<totfact> 0.12216646E+04</totfact>
</mgrwt>
</event>
<event>
 8    1  0.2964543E-004  0.1162471E+03  0.7546771E-02  0.1257343E+00
          1   -1    0    0  501    0  0.00000000000E+00  0.00000000000E+00  0.56553989385E+02  0.56553989385E+02  0.00000000000E+00 0. -1.
         -1   -1    0    0    0  501 -0.00000000000E+00 -0.00000000000E+00 -0.33350043031E+03  0.33350043031E+03  0.00000000000E+00 0.  1.
         23    2    1    2    0    0 -0.39535609339E+02  0.75085240229E+01 -0.11138139653E+02  0.99938154679E+02  0.90797215084E+02 0.  0.
         23    2    1    2    0    0  0.39535609339E+02 -0.75085240229E+01 -0.26580830127E+03  0.29011626501E+03  0.10905939603E+03 0.  0.
          5    1    3    3  502    0 -0.61582410645E+02 -0.12138359285E+02  0.94291889444E+01  0.63645366454E+02  0.47000000000E+01 0. -1.
         -5    1    3    3    0  502  0.22046801305E+02  0.19646883308E+02 -0.20567328598E+02  0.36292788225E+02  0.47000000000E+01 0.  1.
          5    1    4    4  503    0 -0.33909282439E+02  0.16335840158E+02 -0.10564326178E+03  0.11224654948E+03  0.47000000000E+01 0. -1.
         -5    1    4    4    0  503  0.73444891778E+02 -0.23844364181E+02 -0.16016503949E+03  0.17786971554E+03  0.47000000000E+01 0.  1.
<mgrwt>
<rscale>  0 0.11176118E+03</rscale>
<asrwt>0</asrwt>
<pdfrwt beam="1">  1        1 0.87006139E-02 0.11624713E+03</pdfrwt>
<pdfrwt beam="2">  1       -1 0.51307758E-01 0.11624713E+03</pdfrwt>
<totfact> 0.29028376E+03</totfact>
</mgrwt>
</event>
<event>
 8    1  0.2964543E-004  0.1164046E+03  0.7546771E-02  0.1249643E+00
          2   -1    0    0  501    0  0.00000000000E+00  0.00000000000E+00  0.10351404465E+04  0.10351404465E+04  0.00000000000E+00 0. -1.
         -2   -1    0    0    0  501 -0.00000000000E+00 -0.00000000000E+00 -0.15643653698E+02  0.15643653698E+02  0.00000000000E+00 0.  1.
         23    2    1    2    0    0  0.43069579731E+02 -0.56732769410E+02  0.29012976679E+03  0.31218658139E+03  0.90617791862E+02 0.  0.
         23    2    1    2    0    0 -0.43069579731E+02  0.56732769410E+02  0.72936702602E+03  0.73859751881E+03  0.92067585641E+02 0.  0.
          5    1    3    3  502    0  0.20835489376E+02  0.17245105943E+02  0.14634798744E+03  0.14890041882E+03  0.47000000000E+01 0. -1.
         -5    1    3    3    0  502  0.22234090355E+02 -0.73977875353E+02  0.14378177935E+03  0.16328616257E+03  0.47000000000E+01 0.  1.
          5    1    4    4  503    0 -0.26730372213E+02  0.81758297648E+02  0.53685450190E+03  0.54372215169E+03  0.47000000000E+01 0. -1.
         -5    1    4    4    0  503 -0.16339207518E+02 -0.25025528238E+02  0.19251252412E+03  0.19487536712E+03  0.47000000000E+01 0.  1.
<mgrwt>
<rscale>  0 0.11611775E+03</rscale>
<asrwt>0</asrwt>
<pdfrwt beam="1">  1        2 0.15925232E+00 0.11640462E+03</pdfrwt>
<pdfrwt beam="2">  1       -2 0.24067168E-02 0.11640462E+03</pdfrwt>
<totfact> 0.13960021E+04</totfact>
</mgrwt>
</event>
<event>
 8    1  0.2964543E-004  0.1064441E+03  0.7546771E-02  0.1268315E+00
         -2   -1    0    0    0  501 -0.00000000000E+00  0.00000000000E+00  0.30813232219E+03  0.30813232219E+03  0.00000000000E+00 0.  1.
          2   -1    0    0  501    0  0.00000000000E+00 -0.00000000000E+00 -0.77642220356E+02  0.77642220356E+02  0.00000000000E+00 0. -1.
         23    2    1    2    0    0  0.23542090703E+02 -0.46442395435E+02 -0.25388013091E+02  0.10942986962E+03  0.92839749181E+02 0.  0.
         23    2    1    2    0    0 -0.23542090703E+02  0.46442395435E+02  0.25587811493E+03  0.27634467293E+03  0.90452431859E+02 0.  0.
          5    1    4    4  502    0  0.31505000774E+02  0.27988623319E+02  0.73082290085E+02  0.84492835396E+02  0.47000000000E+01 0. -1.
         -5    1    4    4    0  502 -0.55047091476E+02  0.18453772116E+02  0.18279582484E+03  0.19185183754E+03  0.47000000000E+01 0.  1.
          5    1    3    3  503    0  0.59336726688E+02 -0.31223217696E+02 -0.14408055858E+02  0.68741679722E+02  0.47000000000E+01 0. -1.
         -5    1    3    3    0  503 -0.35794635986E+02 -0.15219177739E+02 -0.10979957233E+02  0.40688189899E+02  0.47000000000E+01 0.  1.
<mgrwt>
<rscale>  0 0.10592134E+03</rscale>
<asrwt>0</asrwt>
<pdfrwt beam="1">  1        2 0.11944957E-01 0.10644409E+03</pdfrwt>
<pdfrwt beam="2">  1       -2 0.47404972E-01 0.10644409E+03</pdfrwt>
<totfact> 0.20946931E+03</totfact>
</mgrwt>
</event>
<event>
 8    1  0.2964543E-004  0.1112185E+03  0.7546771E-02  0.1259673E+00
         -2   -1    0    0    0  501 -0.00000000000E+00  0.00000000000E+00  0.67299813190E+02  0.67299813190E+02  0.00000000000E+00 0.  1.
          2   -1    0    0  501    0  0.00000000000E+00 -0.00000000000E+00 -0.22771284844E+03  0.22771284844E+03  0.00000000000E+00 0. -1.
         23    2    1    2    0    0  0.47093403940E+02 -0.40581797318E+02 -0.12843061050E+02  0.11195755780E+03  0.92221903920E+02 0.  0.
         23    2    1    2    0    0 -0.47093403940E+02  0.40581797318E+02 -0.14756997420E+03  0.18305510384E+03  0.88699508373E+02 0.  0.
          5    1    3    3  502    0  0.25871781077E+02  0.12784838936E+02 -0.38944176715E+02  0.48698460579E+02  0.47000000000E+01 0. -1.
         -5    1    4    4    0  503 -0.58934931549E+02 -0.34696591418E+01 -0.10465123179E+03  0.12024697504E+03  0.47000000000E+01 0.  1.
          5    1    4    4  503    0  0.11841527609E+02  0.44051456459E+02 -0.42918742411E+02  0.62808128793E+02  0.47000000000E+01 0. -1.
         -5    1    3    3    0  502  0.21221622863E+02 -0.53366636254E+02  0.26101115665E+02  0.63259097219E+02  0.47000000000E+01 0.  1.
<mgrwt>
<rscale>  0 0.11048555E+03</rscale>
<asrwt>0</asrwt>
<pdfrwt beam="1">  1        2 0.35032745E-01 0.11121848E+03</pdfrwt>
<pdfrwt beam="2">  1       -2 0.10353818E-01 0.11121848E+03</pdfrwt>
<totfact> 0.86436471E+03</totfact>
</mgrwt>
</event>
<event>
 8    1  0.2964543E-004  0.1297421E+03  0.7546771E-02  0.1229603E+00
         -1   -1    0    0    0  501 -0.00000000000E+00  0.00000000000E+00  0.97293060464E+02  0.97293060464E+02  0.00000000000E+00 0.  1.
          1   -1    0    0  501    0  0.00000000000E+00 -0.00000000000E+00 -0.21682923537E+03  0.21682923537E+03  0.00000000000E+00 0. -1.
         23    2    1    2    0    0 -0.51419368078E+02  0.65498385926E+02 -0.13598916766E+03  0.18795227955E+03  0.99493797258E+02 0.  0.
         23    2    1    2    0    0  0.51419368078E+02 -0.65498385926E+02  0.16452992755E+02  0.12617001629E+03  0.93349783434E+02 0.  0.
          5    1    3    3  502    0 -0.71952232272E+02  0.13123485451E+02 -0.76903148240E+02  0.10623339310E+03  0.47000000000E+01 0. -1.
         -5    1    4    4    0  503  0.46945765025E+02 -0.10472403239E+02  0.43038633002E+02  0.64714681596E+02  0.47000000000E+01 0.  1.
          5    1    4    4  503    0  0.44736030533E+01 -0.55025982686E+02 -0.26585640247E+02  0.61455334693E+02  0.47000000000E+01 0. -1.
         -5    1    3    3    0  502  0.20532864193E+02  0.52374900474E+02 -0.59086019423E+02  0.81718886452E+02  0.47000000000E+01 0.  1.
<mgrwt>
<rscale>  0 0.12856376E+03</rscale>
<asrwt>0</asrwt>
<pdfrwt beam="1">  1        1 0.33358344E-01 0.12974207E+03</pdfrwt>
<pdfrwt beam="2">  1       -1 0.14968163E-01 0.12974207E+03</pdfrwt>
<totfact> 0.40908164E+03</totfact>
</mgrwt>
</event>
<event>
 8    1  0.2964543E-004  0.1052399E+03  0.7546771E-02  0.1270362E+00
         -1   -1    0    0    0  501 -0.00000000000E+00  0.00000000000E+00  0.45337936928E+02  0.45337936928E+02  0.00000000000E+00 0.  1.
          1   -1    0    0  501    0  0.00000000000E+00 -0.00000000000E+00 -0.68263063051E+03  0.68263063051E+03  0.00000000000E+00 0. -1.
         23    2    1    2    0    0  0.44290405704E+02 -0.95644026813E+01 -0.61220317944E+03  0.62118288524E+03  0.94985926090E+02 0.  0.
         23    2    1    2    0    0 -0.44290405704E+02  0.95644026813E+01 -0.25089514142E+02  0.10678568220E+03  0.93384047715E+02 0.  0.
          5    1    4    4  502    0 -0.62087357562E+02  0.24627855375E+02 -0.40679019005E+02  0.78346945165E+02  0.47000000000E+01 0. -1.
         -5    1    3    3    0  503  0.34309989763E+02 -0.47106800252E+02 -0.24402899062E+03  0.25093517946E+03  0.47000000000E+01 0.  1.
          5    1    3    3  503    0  0.99804159405E+01  0.37542397571E+02 -0.36817418882E+03  0.37024770578E+03  0.47000000000E+01 0. -1.
         -5    1    4    4    0  502  0.17796951858E+02 -0.15063452693E+02  0.15589504864E+02  0.28438737039E+02  0.47000000000E+01 0.  1.
<mgrwt>
<rscale>  0 0.10487719E+03</rscale>
<asrwt>0</asrwt>
<pdfrwt beam="1">  1        1 0.10502010E+00 0.10523994E+03</pdfrwt>
<pdfrwt beam="2">  1       -1 0.69750673E-02 0.10523994E+03</pdfrwt>
<totfact> 0.30104485E+03</totfact>
</mgrwt>
</event>
<event>
 8    1  0.2964543E-004  0.1261551E+03  0.7546771E-02  0.1234366E+00
         -1   -1    0    0    0  501 -0.00000000000E+00  0.00000000000E+00  0.19351674977E+03  0.19351674977E+03  0.00000000000E+00 0.  1.
          1   -1    0    0  501    0  0.00000000000E+00 -0.00000000000E+00 -0.12284236020E+03  0.12284236020E+03  0.00000000000E+00 0. -1.
         23    2    1    2    0    0  0.83076414088E+02  0.28944568843E+02 -0.57342944320E+02  0.13857604175E+03  0.90419176295E+02 0.  0.
         23    2    1    2    0    0 -0.83076414088E+02 -0.28944568843E+02  0.12801733389E+03  0.17778306821E+03  0.86480650573E+02 0.  0.
          5    1    3    3  502    0  0.70364487349E+02  0.50023469374E+02 -0.12712264948E+02  0.87391076479E+02  0.47000000000E+01 0. -1.
         -5    1    3    3    0  502  0.12711926739E+02 -0.21078900531E+02 -0.44630679372E+02  0.51184965275E+02  0.47000000000E+01 0.  1.
          5    1    4    4  503    0 -0.33215701211E+00  0.20400001694E+02  0.48323898232E+02  0.52664594727E+02  0.47000000000E+01 0. -1.
         -5    1    4    4    0  503 -0.82744257076E+02 -0.49344570536E+02  0.79693435660E+02  0.12511847349E+03  0.47000000000E+01 0.  1.
<mgrwt>
<rscale>  0 0.12545115E+03</rscale>
<asrwt>0</asrwt>
<pdfrwt beam="1">  1        1 0.18898825E-01 0.12615509E+03</pdfrwt>
<pdfrwt beam="2">  1       -1 0.29771808E-01 0.12615509E+03</pdfrwt>
<totfact> 0.27439137E+03</totfact>
</mgrwt>
</event>
<event>
 8    1  0.2964543E-004  0.1104253E+03  0.7546771E-02  0.1261216E+00
          1   -1    0    0  501    0  0.00000000000E+00  0.00000000000E+00  0.78583369567E+02  0.78583369567E+02  0.00000000000E+00 0. -1.
         -1   -1    0    0    0  501 -0.00000000000E+00 -0.00000000000E+00 -0.15090386287E+03  0.15090386287E+03  0.00000000000E+00 0.  1.
         23    2    1    2    0    0 -0.40107056527E+02 -0.41755100358E+02 -0.36464774373E+02  0.11338647526E+03  0.90414316413E+02 0.  0.
         23    2    1    2    0    0  0.40107056527E+02  0.41755100358E+02 -0.35855718927E+02  0.11610075717E+03  0.94030254958E+02 0.  0.
          5    1    4    4  502    0 -0.28892500972E+02  0.26885707400E+01 -0.11468980483E+01  0.29417858525E+02  0.47000000000E+01 0. -1.
         -5    1    4    4    0  502  0.68999557499E+02  0.39066529618E+02 -0.34708820879E+02  0.86682898649E+02  0.47000000000E+01 0.  1.
          5    1    3    3  503    0 -0.32784254639E+02  0.18471767752E+02  0.70558369995E+01  0.38573156364E+02  0.47000000000E+01 0. -1.
         -5    1    3    3    0  503 -0.73228018874E+01 -0.60226868110E+02 -0.43520611373E+02  0.74813318895E+02  0.47000000000E+01 0.  1.
<mgrwt>
<rscale>  0 0.10965165E+03</rscale>
<asrwt>0</asrwt>
<pdfrwt beam="1">  1        1 0.12089749E-01 0.11042533E+03</pdfrwt>
<pdfrwt beam="2">  1       -1 0.23215979E-01 0.11042533E+03</pdfrwt>
<totfact> 0.72865354E+03</totfact>
</mgrwt>
</event>
<event>
 8    1  0.2964543E-004  0.1039024E+03  0.7546771E-02  0.1274143E+00
          3   -1    0    0  501    0  0.00000000000E+00  0.00000000000E+00  0.18213271976E+03  0.18213271976E+03  0.00000000000E+00 0. -1.
         -3   -1    0    0    0  501 -0.00000000000E+00 -0.00000000000E+00 -0.64581766345E+02  0.64581766345E+02  0.00000000000E+00 0.  1.
         23    2    1    2    0    0 -0.50941272679E+02 -0.22773194199E+01  0.99481519712E+02  0.14125262301E+03  0.86345418512E+02 0.  0.
         23    2    1    2    0    0  0.50941272679E+02  0.22773194199E+01  0.18069433701E+02  0.10546186309E+03  0.90529004669E+02 0.  0.
          5    1    4    4  502    0  0.66018761206E+01  0.32890808488E+02  0.35078667132E+02  0.48764668963E+02  0.47000000000E+01 0. -1.
         -5    1    4    4    0  502  0.44339396558E+02 -0.30613489068E+02 -0.17009233431E+02  0.56697194128E+02  0.47000000000E+01 0.  1.
          5    1    3    3  503    0 -0.72382423792E+02  0.58089884531E+01  0.55789128953E+02  0.91692292644E+02  0.47000000000E+01 0. -1.
         -5    1    3    3    0  503  0.21441151114E+02 -0.80863078730E+01  0.43692390759E+02  0.49560330369E+02  0.47000000000E+01 0.  1.
<mgrwt>
<rscale>  0 0.10298424E+03</rscale>
<asrwt>0</asrwt>
<pdfrwt beam="1">  1        3 0.28020418E-01 0.10390236E+03</pdfrwt>
<pdfrwt beam="2">  1       -3 0.99356564E-02 0.10390236E+03</pdfrwt>
<totfact> 0.19836507E+03</totfact>
</mgrwt>
</event>
<event>
 8    1  0.2964543E-004  0.9902996E+02  0.7546771E-02  0.1282987E+00
         -1   -1    0    0    0  501 -0.00000000000E+00  0.00000000000E+00  0.70590557275E+02  0.70590557275E+02  0.00000000000E+00 0.  1.
          1   -1    0    0  501    0  0.00000000000E+00 -0.00000000000E+00 -0.13743574435E+03  0.13743574435E+03  0.00000000000E+00 0. -1.
         23    2    1    2    0    0  0.40031053070E+02  0.16606410069E+01 -0.29519939277E+02  0.10219573982E+03  0.89259730477E+02 0.  0.
         23    2    1    2    0    0 -0.40031053070E+02 -0.16606410069E+01 -0.37325247802E+02  0.10583056181E+03  0.90563186506E+02 0.  0.
          5    1    4    4  502    0  0.76433588098E+01  0.29130823010E+02  0.96881631650E+01  0.31984000510E+02  0.47000000000E+01 0. -1.
         -5    1    4    4    0  502 -0.47674411880E+02 -0.30791464017E+02 -0.47013410967E+02  0.73846561296E+02  0.47000000000E+01 0.  1.
          5    1    3    3  503    0  0.55456791962E+02  0.30243017723E+02 -0.28243517331E+02  0.69353314030E+02  0.47000000000E+01 0. -1.
         -5    1    3    3    0  503 -0.15425738891E+02 -0.28582376716E+02 -0.12764219467E+01  0.32842425795E+02  0.47000000000E+01 0.  1.
<mgrwt>
<rscale>  0 0.98730964E+02</rscale>
<asrwt>0</asrwt>
<pdfrwt beam="1">  1        1 0.21143961E-01 0.99029964E+02</pdfrwt>
<pdfrwt beam="2">  1       -1 0.10860086E-01 0.99029964E+02</pdfrwt>
<totfact> 0.11599127E+04</totfact>
</mgrwt>
</event>
<event>
 8    1  0.2964543E-004  0.1071561E+03  0.7546771E-02  0.1266620E+00
          1   -1    0    0  501    0  0.00000000000E+00  0.00000000000E+00  0.10244077174E+03  0.10244077174E+03  0.00000000000E+00 0. -1.
         -1   -1    0    0    0  501 -0.00000000000E+00 -0.00000000000E+00 -0.14867739540E+03  0.14867739540E+03  0.00000000000E+00 0.  1.
         23    2    1    2    0    0 -0.45063795004E+02  0.33486498272E+02 -0.86547004323E+02  0.13663079951E+03  0.89585156308E+02 0.  0.
         23    2    1    2    0    0  0.45063795004E+02 -0.33486498272E+02  0.40310380665E+02  0.11448736763E+03  0.91270692840E+02 0.  0.
          5    1    3    3  502    0 -0.14453589520E+02 -0.21090590280E+02 -0.65456798391E+02  0.70430119296E+02  0.47000000000E+01 0. -1.
         -5    1    3    3    0  502 -0.30610205483E+02  0.54577088552E+02 -0.21090205932E+02  0.66200680214E+02  0.47000000000E+01 0.  1.
          5    1    4    4  503    0  0.54591423945E+02  0.15489277337E+02  0.18961564170E+02  0.60014766488E+02  0.47000000000E+01 0. -1.
         -5    1    4    4    0  503 -0.95276289414E+01 -0.48975775609E+02  0.21348816495E+02  0.54472601145E+02  0.47000000000E+01 0.  1.
<mgrwt>
<rscale>  0 0.10679630E+03</rscale>
<asrwt>0</asrwt>
<pdfrwt beam="1">  1        1 0.15760119E-01 0.10715610E+03</pdfrwt>
<pdfrwt beam="2">  1       -1 0.22873445E-01 0.10715610E+03</pdfrwt>
<totfact> 0.52863106E+03</totfact>
</mgrwt>
</event>
<event>
 6    1  0.2964543E-004  0.3930561E+03  0.7546771E-02  0.1046211E+00
          1   -1    0    0  501    0  0.00000000000E+00  0.00000000000E+00  0.39020402827E+03  0.39020402827E+03  0.00000000000E+00 0. -1.
         -1   -1    0    0    0  501 -0.00000000000E+00 -0.00000000000E+00 -0.98982248550E+02  0.98982248550E+02  0.00000000000E+00 0.  1.
          5    1    1    2  502    0  0.11581265202E+03  0.12348802481E+03  0.72150441701E+02  0.18409138730E+03  0.47000000000E+01 0. -1.
         -5    1    1    2    0  503 -0.46984455808E+02 -0.29328794686E+02  0.43184702103E+02  0.70389813049E+02  0.47000000000E+01 0.  1.
          5    1    1    2  503    0 -0.69242594361E+02 -0.10236225065E+02  0.94606875237E+02  0.11777889463E+03  0.47000000000E+01 0. -1.
         -5    1    1    2    0  502  0.41439815153E+00 -0.83923005064E+02  0.81279760675E+02  0.11692618184E+03  0.47000000000E+01 0.  1.
<mgrwt>
<rscale>  0 0.39305609E+03</rscale>
<asrwt>0</asrwt>
<pdfrwt beam="1">  1        1 0.60031388E-01 0.39305609E+03</pdfrwt>
<pdfrwt beam="2">  1       -1 0.15228038E-01 0.39305609E+03</pdfrwt>
<totfact> 0.19716582E+03</totfact>
</mgrwt>
</event>
<event>
 8    1  0.2964543E-004  0.9203703E+02  0.7546771E-02  0.1298063E+00
         -3   -1    0    0    0  501 -0.00000000000E+00  0.00000000000E+00  0.60226608245E+02  0.60226608245E+02  0.00000000000E+00 0.  1.
          3   -1    0    0  501    0  0.00000000000E+00 -0.00000000000E+00 -0.21731516382E+03  0.21731516382E+03  0.00000000000E+00 0. -1.
         23    2    1    2    0    0 -0.38069304622E+01  0.11125693496E+02  0.39454954932E+01  0.92121557841E+02  0.91282751432E+02 0.  0.
         23    2    1    2    0    0  0.38069304622E+01 -0.11125693496E+02 -0.16103405107E+03  0.18542021422E+03  0.91161485640E+02 0.  0.
          5    1    4    4  502    0  0.26589366212E+02  0.35942148238E+01 -0.15482161163E+03  0.15719966349E+03  0.47000000000E+01 0. -1.
         -5    1    3    3    0  503  0.10689270959E+02  0.48640832618E+02 -0.61236369813E+01  0.50396230427E+02  0.47000000000E+01 0.  1.
          5    1    3    3  503    0 -0.14496201421E+02 -0.37515139122E+02  0.10069132475E+02  0.41725327413E+02  0.47000000000E+01 0. -1.
         -5    1    4    4    0  502 -0.22782435749E+02 -0.14719908320E+02 -0.62124394391E+01  0.28220550728E+02  0.47000000000E+01 0.  1.
<mgrwt>
<rscale>  0 0.92006945E+02</rscale>
<asrwt>0</asrwt>
<pdfrwt beam="1">  1        3 0.33433102E-01 0.92037028E+02</pdfrwt>
<pdfrwt beam="2">  1       -3 0.92656322E-02 0.92037028E+02</pdfrwt>
<totfact> 0.15695263E+03</totfact>
</mgrwt>
</event>
<event>
 8    1  0.2964543E-004  0.1038680E+03  0.7546771E-02  0.1273682E+00
         -4   -1    0    0    0  501 -0.00000000000E+00  0.00000000000E+00  0.18864470504E+02  0.18864470504E+02  0.00000000000E+00 0.  1.
          4   -1    0    0  501    0  0.00000000000E+00 -0.00000000000E+00 -0.63127479779E+03  0.63127479779E+03  0.00000000000E+00 0. -1.
         23    2    1    2    0    0 -0.41965168872E+02 -0.86738618181E+01 -0.19180027150E+03  0.21689409694E+03  0.91757255088E+02 0.  0.
         23    2    1    2    0    0  0.41965168872E+02  0.86738618181E+01 -0.42061005578E+03  0.43324517135E+03  0.94616320998E+02 0.  0.
          5    1    3    3  502    0 -0.39963892337E+02  0.37159566919E+02 -0.94706217850E+02  0.10940431346E+03  0.47000000000E+01 0. -1.
         -5    1    4    4    0  503 -0.21652641867E+02 -0.19057612554E+02 -0.70947403124E+02  0.76731046559E+02  0.47000000000E+01 0.  1.
          5    1    4    4  503    0  0.63617810739E+02  0.27731474372E+02 -0.34966265266E+03  0.35651412480E+03  0.47000000000E+01 0. -1.
         -5    1    3    3    0  502 -0.20012765350E+01 -0.45833428737E+02 -0.97094053650E+02  0.10748978348E+03  0.47000000000E+01 0.  1.
<mgrwt>
<rscale>  0 0.10321243E+03</rscale>
<asrwt>0</asrwt>
<pdfrwt beam="1">  1        4 0.97119194E-01 0.10386799E+03</pdfrwt>
<pdfrwt beam="2">  1       -4 0.29022264E-02 0.10386799E+03</pdfrwt>
<totfact> 0.81385262E+02</totfact>
</mgrwt>
</event>
<event>
 8    1  0.2964543E-004  0.1622353E+03  0.7546771E-02  0.1186382E+00
          1   -1    0    0  501    0  0.00000000000E+00  0.00000000000E+00  0.34814237826E+03  0.34814237826E+03  0.00000000000E+00 0. -1.
         -1   -1    0    0    0  501 -0.00000000000E+00 -0.00000000000E+00 -0.14274532691E+03  0.14274532691E+03  0.00000000000E+00 0.  1.
         23    2    1    2    0    0 -0.74082522339E+02 -0.11272207257E+03  0.27153370961E+03  0.31630814448E+03  0.90143225212E+02 0.  0.
         23    2    1    2    0    0  0.74082522339E+02  0.11272207257E+03 -0.66136658255E+02  0.17457956068E+03  0.88935255572E+02 0.  0.
          5    1    4    4  502    0 -0.21624992424E+01  0.45798986078E+02 -0.55983048339E+02  0.72514931084E+02  0.47000000000E+01 0. -1.
         -5    1    3    3    0  503  0.19406085983E+02 -0.26441669227E+02  0.76945458741E+02  0.83776199875E+02  0.47000000000E+01 0.  1.
          5    1    3    3  503    0 -0.93488608322E+02 -0.86280403339E+02  0.19458825087E+03  0.23253194461E+03  0.47000000000E+01 0. -1.
         -5    1    4    4    0  502  0.76245021581E+02  0.66923086488E+02 -0.10153609916E+02  0.10206462960E+03  0.47000000000E+01 0.  1.
<mgrwt>
<rscale>  0 0.16206801E+03</rscale>
<asrwt>0</asrwt>
<pdfrwt beam="1">  1        1 0.53560365E-01 0.16223528E+03</pdfrwt>
<pdfrwt beam="2">  1       -1 0.21960820E-01 0.16223528E+03</pdfrwt>
<totfact> 0.12435207E+03</totfact>
</mgrwt>
</event>
<event>
 8    1  0.2964543E-004  0.9786710E+02  0.7546771E-02  0.1296205E+00
         -1   -1    0    0    0  501 -0.00000000000E+00  0.00000000000E+00  0.92326780747E+01  0.92326780747E+01  0.00000000000E+00 0.  1.
          1   -1    0    0  501    0  0.00000000000E+00 -0.00000000000E+00 -0.85679240242E+03  0.85679240242E+03  0.00000000000E+00 0. -1.
         23    2    1    2    0    0 -0.17668401462E+02  0.27611981411E+02 -0.42519680581E+03  0.43631444340E+03  0.92213751239E+02 0.  0.
         23    2    1    2    0    0  0.17668401462E+02 -0.27611981411E+02 -0.42236291853E+03  0.42971063709E+03  0.72015295279E+02 0.  0.
          5    1    3    3  502    0  0.15686438879E+02 -0.28186795239E+02 -0.15076269774E+03  0.15424668820E+03  0.47000000000E+01 0. -1.
         -5    1    3    3    0  502 -0.33354840341E+02  0.55798776650E+02 -0.27443410808E+03  0.28206775520E+03  0.47000000000E+01 0.  1.
          5    1    4    4  503    0  0.33983300954E+02  0.77496820543E+00 -0.10142705097E+03  0.10707474953E+03  0.47000000000E+01 0.  1.
         -5    1    4    4    0  503 -0.16314899493E+02 -0.28386949616E+02 -0.32093586756E+03  0.32263588756E+03  0.47000000000E+01 0. -1.
<mgrwt>
<rscale>  0 0.92801768E+02</rscale>
<asrwt>0</asrwt>
<pdfrwt beam="1">  1        1 0.13181425E+00 0.97867103E+02</pdfrwt>
<pdfrwt beam="2">  1       -1 0.14204116E-02 0.97867103E+02</pdfrwt>
<totfact> 0.21570099E+04</totfact>
</mgrwt>
</event>
<event>
 8    1  0.2964543E-004  0.1090532E+03  0.7546771E-02  0.1265013E+00
          3   -1    0    0  501    0  0.00000000000E+00  0.00000000000E+00  0.20522983496E+02  0.20522983496E+02  0.00000000000E+00 0. -1.
         -3   -1    0    0    0  501 -0.00000000000E+00 -0.00000000000E+00 -0.68012832904E+03  0.68012832904E+03  0.00000000000E+00 0.  1.
         23    2    1    2    0    0 -0.52877124957E+02 -0.73523317785E+01 -0.18376522186E+03  0.21368728747E+03  0.95092339001E+02 0.  0.
         23    2    1    2    0    0  0.52877124957E+02  0.73523317785E+01 -0.47584012369E+03  0.48696402506E+03  0.88657155775E+02 0.  0.
          5    1    4    4  502    0  0.90427255766E+01  0.22182399386E+02 -0.29876789189E+02  0.38581631129E+02  0.47000000000E+01 0. -1.
         -5    1    4    4    0  502  0.43834399380E+02 -0.14830067607E+02 -0.44596333450E+03  0.44838239393E+03  0.47000000000E+01 0.  1.
          5    1    3    3  503    0 -0.64428399376E+02  0.22048581657E+02 -0.15977209048E+03  0.17374225017E+03  0.47000000000E+01 0. -1.
         -5    1    3    3    0  503  0.11551274419E+02 -0.29400913435E+02 -0.23993131381E+02  0.39945037301E+02  0.47000000000E+01 0.  1.
<mgrwt>
<rscale>  0 0.10763492E+03</rscale>
<asrwt>0</asrwt>
<pdfrwt beam="1">  1        3 0.31573816E-02 0.10905320E+03</pdfrwt>
<pdfrwt beam="2">  1       -3 0.10463514E+00 0.10905320E+03</pdfrwt>
<totfact> 0.85562653E+02</totfact>
</mgrwt>
</event>
<event>
 8    1  0.2964543E-004  0.1175532E+03  0.7546771E-02  0.1248143E+00
          2   -1    0    0  501    0  0.00000000000E+00  0.00000000000E+00  0.31090936522E+03  0.31090936522E+03  0.00000000000E+00 0. -1.
         -2   -1    0    0    0  501 -0.00000000000E+00 -0.00000000000E+00 -0.14119928581E+03  0.14119928581E+03  0.00000000000E+00 0.  1.
         23    2    1    2    0    0  0.68201075298E+02  0.16607960016E+02 -0.10282397968E+03  0.15617784333E+03  0.94294946533E+02 0.  0.
         23    2    1    2    0    0 -0.68201075298E+02 -0.16607960016E+02  0.27253405910E+03  0.29593080770E+03  0.91504199735E+02 0.  0.
          5    1    3    3  502    0 -0.12280087516E+02 -0.17164181565E+02 -0.53164900417E+00  0.21628276142E+02  0.47000000000E+01 0. -1.
         -5    1    3    3    0  502  0.80481162814E+02  0.33772141580E+02 -0.10229233068E+03  0.13454956719E+03  0.47000000000E+01 0.  1.
          5    1    4    4  503    0 -0.32948207595E+02 -0.13918450220E+02  0.25241782312E+03  0.25498265641E+03  0.47000000000E+01 0. -1.
         -5    1    4    4    0  503 -0.35252867702E+02 -0.26895097959E+01  0.20116235978E+02  0.40948151290E+02  0.47000000000E+01 0.  1.
<mgrwt>
<rscale>  0 0.11699254E+03</rscale>
<asrwt>0</asrwt>
<pdfrwt beam="1">  1        2 0.47832210E-01 0.11755317E+03</pdfrwt>
<pdfrwt beam="2">  1       -2 0.21722967E-01 0.11755317E+03</pdfrwt>
<totfact> 0.18639768E+03</totfact>
</mgrwt>
</event>
<event>
 8    1  0.2964543E-004  0.9279439E+02  0.7546771E-02  0.1312604E+00
         -1   -1    0    0    0  501 -0.00000000000E+00  0.00000000000E+00  0.18936122532E+03  0.18936122532E+03  0.00000000000E+00 0.  1.
          1   -1    0    0  501    0  0.00000000000E+00 -0.00000000000E+00 -0.50930178018E+02  0.50930178018E+02  0.00000000000E+00 0. -1.
         23    2    1    2    0    0  0.99241853385E+01  0.56724172542E+01 -0.55778847191E+01  0.68974819533E+02  0.67791940226E+02 0.  0.
         23    2    1    2    0    0 -0.99241853385E+01 -0.56724172542E+01  0.14400893202E+03  0.17131658380E+03  0.92087640932E+02 0.  0.
          5    1    3    3  502    0  0.22975096072E+01  0.26930432517E+02 -0.26271809059E+02  0.37984532341E+02  0.47000000000E+01 0. -1.
         -5    1    3    3    0  502  0.76266757314E+01 -0.21258015263E+02  0.20693924340E+02  0.30990287192E+02  0.47000000000E+01 0.  1.
          5    1    4    4  503    0 -0.86996979491E+00  0.42742947158E+02  0.60061089059E+02  0.73872463057E+02  0.47000000000E+01 0. -1.
         -5    1    4    4    0  503 -0.90542155436E+01 -0.48415364412E+02  0.83947842957E+02  0.97444120743E+02  0.47000000000E+01 0.  1.
<mgrwt>
<rscale>  0 0.86091001E+02</rscale>
<asrwt>0</asrwt>
<pdfrwt beam="1">  1        1 0.78354121E-02 0.92794393E+02</pdfrwt>
<pdfrwt beam="2">  1       -1 0.29132496E-01 0.92794393E+02</pdfrwt>
<totfact> 0.87565609E+03</totfact>
</mgrwt>
</event>
<event>
 8    1  0.2964543E-004  0.1246489E+03  0.7546771E-02  0.1235974E+00
          1   -1    0    0  501    0  0.00000000000E+00  0.00000000000E+00  0.13508886565E+04  0.13508886565E+04  0.00000000000E+00 0. -1.
         -1   -1    0    0    0  501 -0.00000000000E+00 -0.00000000000E+00 -0.16094020587E+02  0.16094020587E+02  0.00000000000E+00 0.  1.
         23    2    1    2    0    0 -0.72683378159E+02  0.41728967989E+02  0.10375072230E+04  0.10449682220E+04  0.92266825026E+02 0.  0.
         23    2    1    2    0    0  0.72683378159E+02 -0.41728967989E+02  0.29728741288E+03  0.32201445505E+03  0.91045720225E+02 0.  0.
          5    1    3    3  502    0 -0.11406889162E+02 -0.28635789000E+02  0.24774445988E+03  0.24969888452E+03  0.47000000000E+01 0.  1.
         -5    1    4    4    0  503  0.39405883794E+02 -0.32648719809E+02  0.48037901184E+02  0.70345522480E+02  0.47000000000E+01 0.  1.
          5    1    4    4  503    0  0.33277494366E+02 -0.90802481797E+01  0.24924951170E+03  0.25166893257E+03  0.47000000000E+01 0. -1.
         -5    1    3    3    0  502 -0.61276488997E+02  0.70364756989E+02  0.78976276315E+03  0.79526933751E+03  0.47000000000E+01 0. -1.
<mgrwt>
<rscale>  0 0.12442299E+03</rscale>
<asrwt>0</asrwt>
<pdfrwt beam="1">  1        1 0.20782893E+00 0.12464890E+03</pdfrwt>
<pdfrwt beam="2">  1       -1 0.24760042E-02 0.12464890E+03</pdfrwt>
<totfact> 0.44276659E+03</totfact>
</mgrwt>
</event>
<event>
 8    1  0.2964543E-004  0.1819251E+03  0.7546771E-02  0.1166236E+00
          3   -1    0    0  501    0  0.00000000000E+00  0.00000000000E+00  0.63505825986E+02  0.63505825986E+02  0.00000000000E+00 0. -1.
         -3   -1    0    0    0  501 -0.00000000000E+00 -0.00000000000E+00 -0.53915704303E+03  0.53915704303E+03  0.00000000000E+00 0.  1.
         23    2    1    2    0    0 -0.11745595696E+03 -0.10365421590E+03 -0.29858169672E+03  0.34963946439E+03  0.92502038582E+02 0.  0.
         23    2    1    2    0    0  0.11745595696E+03  0.10365421590E+03 -0.17706952032E+03  0.25302340462E+03  0.90150596012E+02 0.  0.
          5    1    4    4  502    0  0.89581205589E+02  0.10292600710E+03 -0.95297351235E+02  0.16649994140E+03  0.47000000000E+01 0. -1.
         -5    1    3    3    0  503 -0.10898691863E+03 -0.38745472570E+02 -0.20316807354E+03  0.23383480533E+03  0.47000000000E+01 0.  1.
          5    1    3    3  503    0 -0.84690383260E+01 -0.64908743335E+02 -0.95413623187E+02  0.11580465907E+03  0.47000000000E+01 0. -1.
         -5    1    4    4    0  502  0.27874751368E+02  0.72820880293E+00 -0.81772169085E+02  0.86523463226E+02  0.47000000000E+01 0.  1.
<mgrwt>
<rscale>  0 0.18162826E+03</rscale>
<asrwt>0</asrwt>
<pdfrwt beam="1">  1        3 0.97701275E-02 0.18192505E+03</pdfrwt>
<pdfrwt beam="2">  1       -3 0.82947233E-01 0.18192505E+03</pdfrwt>
<totfact> 0.25518874E+02</totfact>
</mgrwt>
</event>
<event>
 8    1  0.2964543E-004  0.1178302E+03  0.7546771E-02  0.1246792E+00
         -2   -1    0    0    0  501 -0.00000000000E+00  0.00000000000E+00  0.10020920682E+03  0.10020920682E+03  0.00000000000E+00 0.  1.
          2   -1    0    0  501    0  0.00000000000E+00 -0.00000000000E+00 -0.38268727691E+03  0.38268727691E+03  0.00000000000E+00 0. -1.
         23    2    1    2    0    0 -0.57998314466E+01 -0.73875737574E+02  0.51726808046E+02  0.12852824797E+03  0.91392478951E+02 0.  0.
         23    2    1    2    0    0  0.57998314466E+01  0.73875737574E+02 -0.33420487814E+03  0.35436823575E+03  0.91611589291E+02 0.  0.
          5    1    4    4  502    0 -0.21160106290E+02 -0.46385098974E+01 -0.15780877198E+03  0.15935797559E+03  0.47000000000E+01 0. -1.
         -5    1    4    4    0  502  0.26959937737E+02  0.78514247471E+02 -0.17639610616E+03  0.19501026016E+03  0.47000000000E+01 0.  1.
          5    1    3    3  503    0 -0.37669503365E+02 -0.58932919569E+02  0.56127284335E+01  0.70325480539E+02  0.47000000000E+01 0. -1.
         -5    1    3    3    0  503  0.31869671918E+02 -0.14942818005E+02  0.46114079613E+02  0.58202767431E+02  0.47000000000E+01 0.  1.
<mgrwt>
<rscale>  0 0.11778757E+03</rscale>
<asrwt>0</asrwt>
<pdfrwt beam="1">  1        2 0.58874965E-01 0.11783016E+03</pdfrwt>
<pdfrwt beam="2">  1       -2 0.15416801E-01 0.11783016E+03</pdfrwt>
<totfact> 0.26516778E+03</totfact>
</mgrwt>
</event>
<event>
 8    1  0.2964543E-004  0.1161166E+03  0.7546771E-02  0.1252759E+00
         -3   -1    0    0    0  501 -0.00000000000E+00  0.00000000000E+00  0.21042056262E+03  0.21042056262E+03  0.00000000000E+00 0.  1.
          3   -1    0    0  501    0  0.00000000000E+00 -0.00000000000E+00 -0.13135066659E+03  0.13135066659E+03  0.00000000000E+00 0. -1.
         23    2    1    2    0    0  0.45165845259E+02  0.10091876629E+02  0.16577242079E+03  0.20239454100E+03  0.10649532939E+03 0.  0.
         23    2    1    2    0    0 -0.45165845259E+02 -0.10091876629E+02 -0.86702524757E+02  0.13937668821E+03  0.98826787183E+02 0.  0.
          5    1    4    4  502    0 -0.62307754121E+02 -0.39337091384E+02 -0.67992980386E+02  0.10037329507E+03  0.47000000000E+01 0. -1.
         -5    1    3    3    0  503  0.10221451428E+02  0.52240750698E+02  0.11817144610E+03  0.12969253940E+03  0.47000000000E+01 0.  1.
          5    1    3    3  503    0  0.34944393831E+02 -0.42148874069E+02  0.47600974684E+02  0.72702001598E+02  0.47000000000E+01 0. -1.
         -5    1    4    4    0  502  0.17141908862E+02  0.29245214755E+02 -0.18709544371E+02  0.39003393135E+02  0.47000000000E+01 0.  1.
<mgrwt>
<rscale>  0 0.11432808E+03</rscale>
<asrwt>0</asrwt>
<pdfrwt beam="1">  1        3 0.20207795E-01 0.11611656E+03</pdfrwt>
<pdfrwt beam="2">  1       -3 0.32372394E-01 0.11611656E+03</pdfrwt>
<totfact> 0.46518644E+02</totfact>
</mgrwt>
</event>
<event>
 8    1  0.2964543E-004  0.9221099E+02  0.7546771E-02  0.1312954E+00
          2   -1    0    0  501    0  0.00000000000E+00  0.00000000000E+00  0.27355456140E+02  0.27355456140E+02  0.00000000000E+00 0. -1.
         -2   -1    0    0    0  501 -0.00000000000E+00 -0.00000000000E+00 -0.24569266549E+03  0.24569266549E+03  0.00000000000E+00 0.  1.
         23    2    1    2    0    0 -0.16670740388E+01  0.82736681598E+01 -0.11605902717E+03  0.13533939481E+03  0.69107317124E+02 0.  0.
         23    2    1    2    0    0  0.16670740388E+01 -0.82736681598E+01 -0.10227818218E+03  0.13770872682E+03  0.91823930272E+02 0.  0.
          5    1    4    4  502    0  0.40102983049E+02 -0.61876857594E+01 -0.17416606551E+02  0.44406811282E+02  0.47000000000E+01 0. -1.
         -5    1    4    4    0  502 -0.38435909010E+02 -0.20859824004E+01 -0.84861575629E+02  0.93301915534E+02  0.47000000000E+01 0.  1.
          5    1    3    3  503    0  0.29555209553E+02 -0.36755827730E+01 -0.28466364759E+02  0.41466181920E+02  0.47000000000E+01 0. -1.
         -5    1    3    3    0  503 -0.31222283592E+02  0.11949250933E+02 -0.87592662411E+02  0.93873212893E+02  0.47000000000E+01 0.  1.
<mgrwt>
<rscale>  0 0.85955120E+02</rscale>
<asrwt>0</asrwt>
<pdfrwt beam="1">  1        2 0.42085316E-02 0.92210991E+02</pdfrwt>
<pdfrwt beam="2">  1       -2 0.37798872E-01 0.92210991E+02</pdfrwt>
<totfact> 0.11786048E+04</totfact>
</mgrwt>
</event>
<event>
 8    1  0.2964543E-004  0.1085648E+03  0.7546771E-02  0.1263706E+00
         -2   -1    0    0    0  501 -0.00000000000E+00  0.00000000000E+00  0.33640927364E+02  0.33640927364E+02  0.00000000000E+00 0.  1.
          2   -1    0    0  501    0  0.00000000000E+00 -0.00000000000E+00 -0.48472396785E+03  0.48472396785E+03  0.00000000000E+00 0. -1.
         23    2    1    2    0    0 -0.81237772659E+01  0.53996070024E+02 -0.86801218549E+02  0.13824970680E+03  0.92719785123E+02 0.  0.
         23    2    1    2    0    0  0.81237772659E+01 -0.53996070024E+02 -0.36428182194E+03  0.38011518842E+03  0.93833572535E+02 0.  0.
          5    1    3    3  502    0 -0.84387088925E+01  0.22629394394E+02 -0.10066896730E+03  0.10363219710E+03  0.47000000000E+01 0. -1.
         -5    1    3    3    0  502  0.31493162663E+00  0.31366675630E+02  0.13867748755E+02  0.34617509696E+02  0.47000000000E+01 0.  1.
          5    1    4    4  503    0 -0.33330396230E+02 -0.57215159084E+02 -0.23779865978E+03  0.24689022324E+03  0.47000000000E+01 0. -1.
         -5    1    4    4    0  503  0.41454173496E+02  0.32190890601E+01 -0.12648316216E+03  0.13322496517E+03  0.47000000000E+01 0.  1.
<mgrwt>
<rscale>  0 0.10832367E+03</rscale>
<asrwt>0</asrwt>
<pdfrwt beam="1">  1        2 0.74572919E-01 0.10856478E+03</pdfrwt>
<pdfrwt beam="2">  1       -2 0.51755272E-02 0.10856478E+03</pdfrwt>
<totfact> 0.11182677E+04</totfact>
</mgrwt>
</event>
<event>
 8    1  0.2964543E-004  0.9345971E+02  0.7546771E-02  0.1296990E+00
          2   -1    0    0  501    0  0.00000000000E+00  0.00000000000E+00  0.69236545542E+03  0.69236545542E+03  0.00000000000E+00 0. -1.
         -2   -1    0    0    0  501 -0.00000000000E+00 -0.00000000000E+00 -0.24698138407E+02  0.24698138407E+02  0.00000000000E+00 0.  1.
         23    2    1    2    0    0 -0.67247158565E+01 -0.93753971066E+01  0.59344097823E+03  0.60075528436E+03  0.92744795864E+02 0.  0.
         23    2    1    2    0    0  0.67247158565E+01  0.93753971066E+01  0.74226338781E+02  0.11630830947E+03  0.88797261272E+02 0.  0.
          5    1    3    3  502    0  0.42293409873E+01 -0.45937111858E+02  0.44517002855E+03  0.44757854047E+03  0.47000000000E+01 0. -1.
         -5    1    3    3    0  502 -0.10954056844E+02  0.36561714752E+02  0.14827094968E+03  0.15317674388E+03  0.47000000000E+01 0.  1.
          5    1    4    4  503    0  0.39825460772E+02 -0.13544096113E+02  0.59839228967E+02  0.73296201733E+02  0.47000000000E+01 0. -1.
         -5    1    4    4    0  503 -0.33100744915E+02  0.22919493219E+02  0.14387109814E+02  0.43012107740E+02  0.47000000000E+01 0.  1.
<mgrwt>
<rscale>  0 0.92464935E+02</rscale>
<asrwt>0</asrwt>
<pdfrwt beam="1">  1        2 0.10651775E+00 0.93459708E+02</pdfrwt>
<pdfrwt beam="2">  1       -2 0.37997141E-02 0.93459708E+02</pdfrwt>
<totfact> 0.11725754E+04</totfact>
</mgrwt>
</event>
<event>
 8    1  0.2964543E-004  0.1587887E+03  0.7546771E-02  0.1190218E+00
          2   -1    0    0  501    0  0.00000000000E+00  0.00000000000E+00  0.42902852874E+03  0.42902852874E+03  0.00000000000E+00 0. -1.
         -2   -1    0    0    0  501 -0.00000000000E+00 -0.00000000000E+00 -0.58582104309E+02  0.58582104309E+02  0.00000000000E+00 0.  1.
         23    2    1    2    0    0 -0.86898702688E+02  0.95890114351E+02  0.18704045401E+03  0.24535280145E+03  0.92019384831E+02 0.  0.
         23    2    1    2    0    0  0.86898702688E+02 -0.95890114351E+02  0.18340597042E+03  0.24225783160E+03  0.91130721631E+02 0.  0.
          5    1    4    4  502    0  0.44525475109E+02 -0.39461381854E+02  0.15491134230E+03  0.16601003754E+03  0.47000000000E+01 0. -1.
         -5    1    4    4    0  502  0.42373227579E+02 -0.56428732497E+02  0.28494628123E+02  0.76247794057E+02  0.47000000000E+01 0.  1.
          5    1    3    3  503    0 -0.29000015170E+02  0.84838535678E+02  0.15223802602E+03  0.17674016121E+03  0.47000000000E+01 0. -1.
         -5    1    3    3    0  503 -0.57898687518E+02  0.11051578673E+02  0.34802427984E+02  0.68612640242E+02  0.47000000000E+01 0.  1.
<mgrwt>
<rscale>  0 0.15866026E+03</rscale>
<asrwt>0</asrwt>
<pdfrwt beam="1">  1        2 0.66004387E-01 0.15878875E+03</pdfrwt>
<pdfrwt beam="2">  1       -2 0.90126317E-02 0.15878875E+03</pdfrwt>
<totfact> 0.56062704E+03</totfact>
</mgrwt>
</event>
<event>
 7    1  0.2964543E-004  0.1109275E+03  0.7546771E-02  0.1277781E+00
         -3   -1    0    0    0  501 -0.00000000000E+00  0.00000000000E+00  0.36923271154E+03  0.36923271154E+03  0.00000000000E+00 0.  1.
          3   -1    0    0  501    0  0.00000000000E+00 -0.00000000000E+00 -0.37590889206E+02  0.37590889206E+02  0.00000000000E+00 0. -1.
         23    2    1    2    0    0 -0.21657864131E+02 -0.56932452150E+02  0.30650071280E+03  0.32595644524E+03  0.92706796186E+02 0.  0.
          5    1    3    3  502    0  0.21825951480E+02  0.14747081515E+02  0.65951893857E+02  0.71172964492E+02  0.47000000000E+01 0. -1.
         -5    1    3    3    0  502 -0.43483815612E+02 -0.71679533665E+02  0.24054881895E+03  0.25478348075E+03  0.47000000000E+01 0.  1.
          5    1    1    2  503    0  0.30929605010E+02  0.25441563560E+02  0.18938414961E+01  0.40368183735E+02  0.47000000000E+01 0. -1.
         -5    1    1    2    0  503 -0.92717408786E+01  0.31490888590E+02  0.23247268028E+02  0.40498971763E+02  0.47000000000E+01 0.  1.
<mgrwt>
<rscale>  0 0.10120553E+03</rscale>
<asrwt>0</asrwt>
<pdfrwt beam="1">  1        3 0.57832140E-02 0.11092753E+03</pdfrwt>
<pdfrwt beam="2">  1       -3 0.56805030E-01 0.11092753E+03</pdfrwt>
<totfact> 0.12382067E+03</totfact>
</mgrwt>
</event>
<event>
 8    1  0.2964543E-004  0.1029387E+03  0.7546771E-02  0.1277303E+00
          1   -1    0    0  501    0  0.00000000000E+00  0.00000000000E+00  0.13573299491E+02  0.13573299491E+02  0.00000000000E+00 0. -1.
         -1   -1    0    0    0  501 -0.00000000000E+00 -0.00000000000E+00 -0.86113716610E+03  0.86113716610E+03  0.00000000000E+00 0.  1.
         23    2    1    2    0    0 -0.24454946829E+02 -0.26142821653E+02 -0.60060030982E+03  0.60935793998E+03  0.96513601685E+02 0.  0.
         23    2    1    2    0    0  0.24454946829E+02  0.26142821653E+02 -0.24696355679E+03  0.26535252561E+03  0.90219027476E+02 0.  0.
          5    1    4    4  502    0 -0.29231165557E+02 -0.93567191667E+01 -0.10318845856E+03  0.10775879181E+03  0.47000000000E+01 0. -1.
         -5    1    3    3    0  503  0.28620808905E+02  0.17450138927E+02 -0.21824893991E+03  0.22085820750E+03  0.47000000000E+01 0.  1.
          5    1    3    3  503    0 -0.53075755735E+02 -0.43592960580E+02 -0.38235136991E+03  0.38849973248E+03  0.47000000000E+01 0. -1.
         -5    1    4    4    0  502  0.53686112387E+02  0.35499540820E+02 -0.14377509823E+03  0.15759373380E+03  0.47000000000E+01 0.  1.
<mgrwt>
<rscale>  0 0.10143686E+03</rscale>
<asrwt>0</asrwt>
<pdfrwt beam="1">  1        1 0.20881999E-02 0.10293866E+03</pdfrwt>
<pdfrwt beam="2">  1       -1 0.13248264E+00 0.10293866E+03</pdfrwt>
<totfact> 0.27994168E+03</totfact>
</mgrwt>
</event>
<event>
 8    1  0.2964543E-004  0.9430471E+02  0.7546771E-02  0.1293717E+00
         -2   -1    0    0    0  501 -0.00000000000E+00  0.00000000000E+00  0.89048413711E+03  0.89048413711E+03  0.00000000000E+00 0.  1.
          2   -1    0    0  501    0  0.00000000000E+00 -0.00000000000E+00 -0.21857820504E+02  0.21857820504E+02  0.00000000000E+00 0. -1.
         23    2    1    2    0    0  0.17165887124E+02 -0.69089384100E+01  0.77122816517E+03  0.77676991582E+03  0.90753612937E+02 0.  0.
         23    2    1    2    0    0 -0.17165887124E+02  0.69089384100E+01  0.97398151442E+02  0.13557204180E+03  0.92471495623E+02 0.  0.
          5    1    4    4  502    0 -0.54179890596E+02 -0.17176201911E+01  0.69125805450E+02  0.87970891454E+02  0.47000000000E+01 0. -1.
         -5    1    4    4    0  502  0.37014003472E+02  0.86265586011E+01  0.28272345992E+02  0.47601150346E+02  0.47000000000E+01 0.  1.
          5    1    3    3  503    0 -0.37301943361E+02 -0.41610449051E+01  0.30206627359E+03  0.30442548007E+03  0.47000000000E+01 0. -1.
         -5    1    3    3    0  503  0.54467830485E+02 -0.27478935049E+01  0.46916189157E+03  0.47234443575E+03  0.47000000000E+01 0.  1.
<mgrwt>
<rscale>  0 0.93880894E+02</rscale>
<asrwt>0</asrwt>
<pdfrwt beam="1">  1        2 0.33627423E-02 0.94304712E+02</pdfrwt>
<pdfrwt beam="2">  1       -2 0.13699753E+00 0.94304712E+02</pdfrwt>
<totfact> 0.10156435E+03</totfact>
</mgrwt>
</event>
<event>
 8    1  0.2964543E-004  0.9824205E+02  0.7546771E-02  0.1284602E+00
         -2   -1    0    0    0  501 -0.00000000000E+00  0.00000000000E+00  0.22733902638E+02  0.22733902638E+02  0.00000000000E+00 0.  1.
          2   -1    0    0  501    0  0.00000000000E+00 -0.00000000000E+00 -0.43784219856E+03  0.43784219856E+03  0.00000000000E+00 0. -1.
         23    2    1    2    0    0  0.16620445558E+02 -0.26264503453E+02 -0.25504339532E+03  0.27331050726E+03  0.93195689450E+02 0.  0.
         23    2    1    2    0    0 -0.16620445558E+02  0.26264503453E+02 -0.16006490060E+03  0.18726559394E+03  0.92095422875E+02 0.  0.
          5    1    3    3  502    0 -0.22887314553E+02  0.21596950039E+02 -0.52191348315E+02  0.61125152412E+02  0.47000000000E+01 0. -1.
         -5    1    3    3    0  502  0.39507760111E+02 -0.47861453492E+02 -0.20285204700E+03  0.21218535485E+03  0.47000000000E+01 0.  1.
          5    1    4    4  503    0 -0.69351568071E+00  0.59243903982E+02 -0.11036012873E+03  0.12534659603E+03  0.47000000000E+01 0. -1.
         -5    1    4    4    0  503 -0.15926929878E+02 -0.32979400529E+02 -0.49704771878E+02  0.61918997909E+02  0.47000000000E+01 0.  1.
<mgrwt>
<rscale>  0 0.97980221E+02</rscale>
<asrwt>0</asrwt>
<pdfrwt beam="1">  1        2 0.67360338E-01 0.98242047E+02</pdfrwt>
<pdfrwt beam="2">  1       -2 0.34975235E-02 0.98242047E+02</pdfrwt>
<totfact> 0.22075808E+04</totfact>
</mgrwt>
</event>
<event>
 8    1  0.2964543E-004  0.1676980E+03  0.7546771E-02  0.1180398E+00
         -2   -1    0    0    0  501 -0.00000000000E+00  0.00000000000E+00  0.49936521206E+02  0.49936521206E+02  0.00000000000E+00 0.  1.
          2   -1    0    0  501    0  0.00000000000E+00 -0.00000000000E+00 -0.56413084156E+03  0.56413084156E+03  0.00000000000E+00 0. -1.
         23    2    1    2    0    0  0.13541696407E+03  0.38049699373E+02 -0.23671497195E+03  0.29009757608E+03  0.91307677247E+02 0.  0.
         23    2    1    2    0    0 -0.13541696407E+03 -0.38049699373E+02 -0.27747934840E+03  0.32396978668E+03  0.90421790026E+02 0.  0.
          5    1    3    3  502    0  0.43458834845E+02  0.58660196940E+02 -0.96645187308E+02  0.12121085455E+03  0.47000000000E+01 0. -1.
         -5    1    3    3    0  502  0.91958129224E+02 -0.20610497568E+02 -0.14006978464E+03  0.16888672153E+03  0.47000000000E+01 0.  1.
          5    1    4    4  503    0 -0.81750061515E+02 -0.58632260252E+02 -0.22277001479E+03  0.24447777811E+03  0.47000000000E+01 0. -1.
         -5    1    4    4    0  503 -0.53666902555E+02  0.20582560880E+02 -0.54709333611E+02  0.79492008569E+02  0.47000000000E+01 0.  1.
<mgrwt>
<rscale>  0 0.16757772E+03</rscale>
<asrwt>0</asrwt>
<pdfrwt beam="1">  1        2 0.86789357E-01 0.16769802E+03</pdfrwt>
<pdfrwt beam="2">  1       -2 0.76825420E-02 0.16769802E+03</pdfrwt>
<totfact> 0.53266900E+03</totfact>
</mgrwt>
</event>
<event>
 8    1  0.2964543E-004  0.1010376E+03  0.7546771E-02  0.1279904E+00
          1   -1    0    0  501    0  0.00000000000E+00  0.00000000000E+00  0.19661450098E+03  0.19661450098E+03  0.00000000000E+00 0. -1.
         -1   -1    0    0    0  501 -0.00000000000E+00 -0.00000000000E+00 -0.58181578467E+02  0.58181578467E+02  0.00000000000E+00 0.  1.
         23    2    1    2    0    0 -0.30301940553E+02  0.28046575105E+02  0.11738195621E+03  0.15487774989E+03  0.92215919392E+02 0.  0.
         23    2    1    2    0    0  0.30301940553E+02 -0.28046575105E+02  0.21050966306E+02  0.99918329565E+02  0.88519553908E+02 0.  0.
          5    1    3    3  502    0  0.40737835945E+01  0.52084214802E+02  0.91197671809E+02  0.10520677967E+03  0.47000000000E+01 0. -1.
         -5    1    3    3    0  502 -0.34375724148E+02 -0.24037639697E+02  0.26184284401E+02  0.49670970219E+02  0.47000000000E+01 0.  1.
          5    1    4    4  503    0  0.46885627770E+02  0.34206551177E+01  0.37625117731E+02  0.60396212275E+02  0.47000000000E+01 0. -1.
         -5    1    4    4    0  503 -0.16583687217E+02 -0.31467230223E+02 -0.16574151425E+02  0.39522117290E+02  0.47000000000E+01 0.  1.
<mgrwt>
<rscale>  0 0.10018640E+03</rscale>
<asrwt>0</asrwt>
<pdfrwt beam="1">  1        1 0.30248384E-01 0.10103759E+03</pdfrwt>
<pdfrwt beam="2">  1       -1 0.89510122E-02 0.10103759E+03</pdfrwt>
<totfact> 0.99761937E+03</totfact>
</mgrwt>
</event>
<event>
 8    1  0.2964543E-004  0.1142430E+03  0.7546771E-02  0.1254660E+00
         -2   -1    0    0    0  501 -0.00000000000E+00  0.00000000000E+00  0.28127993697E+02  0.28127993697E+02  0.00000000000E+00 0.  1.
          2   -1    0    0  501    0  0.00000000000E+00 -0.00000000000E+00 -0.45008221123E+03  0.45008221123E+03  0.00000000000E+00 0. -1.
         23    2    1    2    0    0  0.50068298697E+02  0.46488290909E+02 -0.19219657456E+03  0.22161708765E+03  0.86640721017E+02 0.  0.
         23    2    1    2    0    0 -0.50068298697E+02 -0.46488290909E+02 -0.22975764297E+03  0.25659311728E+03  0.91561223263E+02 0.  0.
          5    1    3    3  502    0  0.57642493317E+02 -0.30132895854E+01 -0.80993223537E+02  0.99567711678E+02  0.47000000000E+01 0. -1.
         -5    1    3    3    0  502 -0.75741946196E+01  0.49501580494E+02 -0.11120335103E+03  0.12204937597E+03  0.47000000000E+01 0.  1.
          5    1    4    4  503    0 -0.35020530344E+02 -0.24142637699E+00 -0.19096292080E+03  0.19420459045E+03  0.47000000000E+01 0. -1.
         -5    1    4    4    0  503 -0.15047768353E+02 -0.46246864532E+02 -0.38794722173E+02  0.62388526829E+02  0.47000000000E+01 0.  1.
<mgrwt>
<rscale>  0 0.11325411E+03</rscale>
<asrwt>0</asrwt>
<pdfrwt beam="1">  1        2 0.69243416E-01 0.11424296E+03</pdfrwt>
<pdfrwt beam="2">  1       -2 0.43273837E-02 0.11424296E+03</pdfrwt>
<totfact> 0.15882244E+04</totfact>
</mgrwt>
</event>
<event>
 8    1  0.2964543E-004  0.1309658E+03  0.7546771E-02  0.1227519E+00
         -2   -1    0    0    0  501 -0.00000000000E+00  0.00000000000E+00  0.12930070929E+02  0.12930070929E+02  0.00000000000E+00 0.  1.
          2   -1    0    0  501    0  0.00000000000E+00 -0.00000000000E+00 -0.13783243335E+04  0.13783243335E+04  0.00000000000E+00 0. -1.
         23    2    1    2    0    0  0.38834829358E+01 -0.89125982458E+02 -0.51296548590E+03  0.52942008944E+03  0.95882840967E+02 0.  0.
         23    2    1    2    0    0 -0.38834829358E+01  0.89125982458E+02 -0.85242877665E+03  0.86183431497E+03  0.90360638576E+02 0.  0.
          5    1    4    4  502    0 -0.25846514195E+02  0.98897247834E+02 -0.67016506726E+03  0.67793216128E+03  0.47000000000E+01 0. -1.
         -5    1    4    4    0  502  0.21963031259E+02 -0.97712653758E+01 -0.18226370939E+03  0.18390215368E+03  0.47000000000E+01 0.  1.
          5    1    3    3  503    0  0.23200689406E+02  0.65173819295E+01 -0.20160813830E+03  0.20309770970E+03  0.47000000000E+01 0. -1.
         -5    1    3    3    0  503 -0.19317206470E+02 -0.95643364387E+02 -0.31135734760E+03  0.32632237974E+03  0.47000000000E+01 0.  1.
<mgrwt>
<rscale>  0 0.12995742E+03</rscale>
<asrwt>0</asrwt>
<pdfrwt beam="1">  1        2 0.21204978E+00 0.13096580E+03</pdfrwt>
<pdfrwt beam="2">  1       -2 0.19892428E-02 0.13096580E+03</pdfrwt>
<totfact> 0.11982105E+04</totfact>
</mgrwt>
</event>
<event>
 8    1  0.2964543E-004  0.9456421E+02  0.7546771E-02  0.1293786E+00
         -1   -1    0    0    0  501 -0.00000000000E+00  0.00000000000E+00  0.16918966911E+03  0.16918966911E+03  0.00000000000E+00 0.  1.
          1   -1    0    0  501    0  0.00000000000E+00 -0.00000000000E+00 -0.79310893177E+02  0.79310893177E+02  0.00000000000E+00 0. -1.
         23    2    1    2    0    0  0.10198065489E+02  0.15832838568E+02 -0.29351645437E+02  0.96322106011E+02  0.89787246865E+02 0.  0.
         23    2    1    2    0    0 -0.10198065489E+02 -0.15832838568E+02  0.11923042137E+03  0.15217845628E+03  0.92669897260E+02 0.  0.
          5    1    4    4  502    0  0.22644878707E+02 -0.86178228262E+01  0.11540035662E+03  0.11801012545E+03  0.47000000000E+01 0.  1.
         -5    1    3    3    0  503  0.34779991992E+02  0.93377068164E+01 -0.50993390790E+02  0.62603965656E+02  0.47000000000E+01 0.  1.
          5    1    3    3  503    0 -0.24581926504E+02  0.64951317519E+01  0.21641745353E+02  0.33718140355E+02  0.47000000000E+01 0. -1.
         -5    1    4    4    0  502 -0.32842944195E+02 -0.72150157421E+01  0.38300647566E+01  0.34168330828E+02  0.47000000000E+01 0. -1.
<mgrwt>
<rscale>  0 0.93850388E+02</rscale>
<asrwt>0</asrwt>
<pdfrwt beam="1">  1        1 0.12201676E-01 0.94564207E+02</pdfrwt>
<pdfrwt beam="2">  1       -1 0.26029180E-01 0.94564207E+02</pdfrwt>
<totfact> 0.59030711E+03</totfact>
</mgrwt>
</event>
<event>
 8    1  0.2964543E-004  0.1133559E+03  0.7546771E-02  0.1254702E+00
         -1   -1    0    0    0  501 -0.00000000000E+00  0.00000000000E+00  0.74658095373E+02  0.74658095373E+02  0.00000000000E+00 0.  1.
          1   -1    0    0  501    0  0.00000000000E+00 -0.00000000000E+00 -0.22704312815E+03  0.22704312815E+03  0.00000000000E+00 0. -1.
         23    2    1    2    0    0 -0.56350004107E+02 -0.39801469182E+02 -0.15077573801E+03  0.18833385080E+03  0.89313136052E+02 0.  0.
         23    2    1    2    0    0  0.56350004107E+02  0.39801469182E+02 -0.16092947640E+01  0.11336737272E+03  0.89944935693E+02 0.  0.
          5    1    3    3  502    0 -0.36680611566E+02 -0.62238083672E+02 -0.64634449550E+02  0.97050236437E+02  0.47000000000E+01 0. -1.
         -5    1    3    3    0  502 -0.19669392541E+02  0.22436614490E+02 -0.86141288464E+02  0.91283614362E+02  0.47000000000E+01 0. -1.
          5    1    4    4  503    0  0.35565151890E+02 -0.25705777170E+02  0.36290470717E+01  0.44282355307E+02  0.47000000000E+01 0. -1.
         -5    1    4    4    0  503  0.20784852217E+02  0.65507246352E+02 -0.52383418358E+01  0.69085017417E+02  0.47000000000E+01 0.  1.
<mgrwt>
<rscale>  0 0.11323058E+03</rscale>
<asrwt>0</asrwt>
<pdfrwt beam="1">  1        1 0.34929712E-01 0.11335595E+03</pdfrwt>
<pdfrwt beam="2">  1       -1 0.11485861E-01 0.11335595E+03</pdfrwt>
<totfact> 0.57743252E+03</totfact>
</mgrwt>
</event>
<event>
 8    1  0.2964543E-004  0.1072630E+03  0.7546771E-02  0.1270018E+00
          1   -1    0    0  501    0  0.00000000000E+00  0.00000000000E+00  0.37683913705E+03  0.37683913705E+03  0.00000000000E+00 0. -1.
         -1   -1    0    0    0  501 -0.00000000000E+00 -0.00000000000E+00 -0.44410456117E+02  0.44410456117E+02  0.00000000000E+00 0.  1.
         23    2    1    2    0    0 -0.11171578794E+02 -0.44785073886E+02  0.29802058527E+03  0.31673589316E+03  0.96823807797E+02 0.  0.
         23    2    1    2    0    0  0.11171578794E+02  0.44785073886E+02  0.34408095658E+02  0.10451370000E+03  0.87227801907E+02 0.  0.
          5    1    3    3  502    0  0.20980536122E+02 -0.52180293897E+02  0.26054200147E+03  0.26658430279E+03  0.47000000000E+01 0. -1.
         -5    1    4    4    0  503  0.42625965457E+01  0.70106054558E+02  0.16220354942E+02  0.72237237831E+02  0.47000000000E+01 0.  1.
          5    1    4    4  503    0  0.69089822478E+01 -0.25320980672E+02  0.18187740717E+02  0.32276462171E+02  0.47000000000E+01 0. -1.
         -5    1    3    3    0  502 -0.32152114915E+02  0.73952200117E+01  0.37478583802E+02  0.50151590367E+02  0.47000000000E+01 0.  1.
<mgrwt>
<rscale>  0 0.10505166E+03</rscale>
<asrwt>0</asrwt>
<pdfrwt beam="1">  1        1 0.57975250E-01 0.10726303E+03</pdfrwt>
<pdfrwt beam="2">  1       -1 0.68323781E-02 0.10726303E+03</pdfrwt>
<totfact> 0.67474162E+03</totfact>
</mgrwt>
</event>
<event>
 8    1  0.2964543E-004  0.1029132E+03  0.7546771E-02  0.1276517E+00
          2   -1    0    0  501    0  0.00000000000E+00  0.00000000000E+00  0.65565770781E+02  0.65565770781E+02  0.00000000000E+00 0. -1.
         -2   -1    0    0    0  501 -0.00000000000E+00 -0.00000000000E+00 -0.15587048681E+03  0.15587048681E+03  0.00000000000E+00 0.  1.
         23    2    1    2    0    0  0.76874336864E+01  0.41443760073E+02 -0.55104059903E+02  0.11673728054E+03  0.93885320283E+02 0.  0.
         23    2    1    2    0    0 -0.76874336864E+01 -0.41443760073E+02 -0.35200656127E+02  0.10469897705E+03  0.89140942995E+02 0.  0.
          5    1    3    3  502    0 -0.62513888584E-03 -0.30053983071E+02 -0.11571799387E+02  0.32545943524E+02  0.47000000000E+01 0. -1.
         -5    1    4    4    0  503  0.29457984780E+02 -0.34897589632E+02 -0.46198151398E+02  0.65130436987E+02  0.47000000000E+01 0.  1.
          5    1    4    4  503    0 -0.37145418467E+02 -0.65461704412E+01  0.10997495272E+02  0.39568540064E+02  0.47000000000E+01 0. -1.
         -5    1    3    3    0  502  0.76880588253E+01  0.71497743144E+02 -0.43532260517E+02  0.84191337018E+02  0.47000000000E+01 0.  1.
<mgrwt>
<rscale>  0 0.10181864E+03</rscale>
<asrwt>0</asrwt>
<pdfrwt beam="1">  1        2 0.10087042E-01 0.10291324E+03</pdfrwt>
<pdfrwt beam="2">  1       -2 0.23980074E-01 0.10291324E+03</pdfrwt>
<totfact> 0.89022903E+03</totfact>
</mgrwt>
</event>
<event>
 8    1  0.2964543E-004  0.1019732E+03  0.7546771E-02  0.1276535E+00
         -2   -1    0    0    0  501 -0.00000000000E+00  0.00000000000E+00  0.29544582267E+02  0.29544582267E+02  0.00000000000E+00 0.  1.
          2   -1    0    0  501    0  0.00000000000E+00 -0.00000000000E+00 -0.36396763768E+03  0.36396763768E+03  0.00000000000E+00 0. -1.
         23    2    1    2    0    0  0.18241666348E+02  0.40063663829E+02 -0.12776822533E+03  0.16306754079E+03  0.91260330400E+02 0.  0.
         23    2    1    2    0    0 -0.18241666348E+02 -0.40063663829E+02 -0.20665483009E+03  0.23044467916E+03  0.91981931948E+02 0.  0.
          5    1    4    4  502    0 -0.41603728253E+02 -0.30534781071E+02 -0.19586501565E+03  0.20260413968E+03  0.47000000000E+01 0. -1.
         -5    1    3    3    0  503  0.43654951359E+02  0.22978223524E+02 -0.24557993072E+02  0.55307671784E+02  0.47000000000E+01 0.  1.
          5    1    3    3  503    0 -0.25413285010E+02  0.17085440305E+02 -0.10321023226E+03  0.10775986901E+03  0.47000000000E+01 0. -1.
         -5    1    4    4    0  502  0.23362061905E+02 -0.95288827578E+01 -0.10789814437E+02  0.27840539482E+02  0.47000000000E+01 0.  1.
<mgrwt>
<rscale>  0 0.10181019E+03</rscale>
<asrwt>0</asrwt>
<pdfrwt beam="1">  1        2 0.55995023E-01 0.10197319E+03</pdfrwt>
<pdfrwt beam="2">  1       -2 0.45453202E-02 0.10197319E+03</pdfrwt>
<totfact> 0.18307185E+04</totfact>
</mgrwt>
</event>
<event>
 8    1  0.2964543E-004  0.1208768E+03  0.7546771E-02  0.1241744E+00
          2   -1    0    0  501    0  0.00000000000E+00  0.00000000000E+00  0.81617628268E+03  0.81617628268E+03  0.00000000000E+00 0. -1.
         -2   -1    0    0    0  501 -0.00000000000E+00 -0.00000000000E+00 -0.26141762702E+02  0.26141762702E+02  0.00000000000E+00 0.  1.
         23    2    1    2    0    0  0.70097432808E+02 -0.36785380793E+02  0.63167674218E+03  0.64309858753E+03  0.91068503600E+02 0.  0.
         23    2    1    2    0    0 -0.70097432808E+02  0.36785380793E+02  0.15835777779E+03  0.19921945785E+03  0.91347645129E+02 0.  0.
          5    1    4    4  502    0 -0.65581274831E+02  0.63693111598E+02  0.13436071465E+03  0.16258108044E+03  0.47000000000E+01 0.  1.
         -5    1    3    3    0  503  0.23376780502E+02  0.17546024925E+02  0.59758381307E+02  0.66689511872E+02  0.47000000000E+01 0.  1.
          5    1    3    3  503    0  0.46720652306E+02 -0.54331405718E+02  0.57191836087E+03  0.57640907566E+03  0.47000000000E+01 0. -1.
         -5    1    4    4    0  502 -0.45161579770E+01 -0.26907730805E+02  0.23997063140E+02  0.36638377411E+02  0.47000000000E+01 0. -1.
<mgrwt>
<rscale>  0 0.12082409E+03</rscale>
<asrwt>0</asrwt>
<pdfrwt beam="1">  1        2 0.12556556E+00 0.12087682E+03</pdfrwt>
<pdfrwt beam="2">  1       -2 0.40218103E-02 0.12087682E+03</pdfrwt>
<totfact> 0.90041321E+03</totfact>
</mgrwt>
</event>
<event>
 8    1  0.2964543E-004  0.1077284E+03  0.7546771E-02  0.1265650E+00
         -1   -1    0    0    0  501 -0.00000000000E+00  0.00000000000E+00  0.25963325054E+03  0.25963325054E+03  0.00000000000E+00 0.  1.
          1   -1    0    0  501    0  0.00000000000E+00 -0.00000000000E+00 -0.47576730303E+02  0.47576730303E+02  0.00000000000E+00 0. -1.
         23    2    1    2    0    0 -0.45659721363E+02  0.32396036281E+02  0.64677684388E+02  0.12565270892E+03  0.92038508681E+02 0.  0.
         23    2    1    2    0    0  0.45659721363E+02 -0.32396036281E+02  0.14737883585E+03  0.18155727192E+03  0.90045590726E+02 0.  0.
          5    1    3    3  502    0  0.42518470928E+01  0.51084684310E+02  0.17645021926E+02  0.54416541360E+02  0.47000000000E+01 0. -1.
         -5    1    3    3    0  502 -0.49911568456E+02 -0.18688648029E+02  0.47032662462E+02  0.71236167564E+02  0.47000000000E+01 0.  1.
          5    1    4    4  503    0  0.13533236526E+02  0.27100936027E+02  0.18130673613E+02  0.35614892252E+02  0.47000000000E+01 0. -1.
         -5    1    4    4    0  503  0.32126484837E+02 -0.59496972309E+02  0.12924816224E+03  0.14594237967E+03  0.47000000000E+01 0.  1.
<mgrwt>
<rscale>  0 0.10730143E+03</rscale>
<asrwt>0</asrwt>
<pdfrwt beam="1">  1        1 0.73194971E-02 0.10772836E+03</pdfrwt>
<pdfrwt beam="2">  1       -1 0.39943576E-01 0.10772836E+03</pdfrwt>
<totfact> 0.56838625E+03</totfact>
</mgrwt>
</event>
<event>
 8    1  0.2964543E-004  0.1128651E+03  0.7546771E-02  0.1260389E+00
          1   -1    0    0  501    0  0.00000000000E+00  0.00000000000E+00  0.26104273941E+03  0.26104273941E+03  0.00000000000E+00 0. -1.
         -1   -1    0    0    0  501 -0.00000000000E+00 -0.00000000000E+00 -0.60795585232E+02  0.60795585232E+02  0.00000000000E+00 0.  1.
         23    2    1    2    0    0 -0.35341467896E+02  0.37086672027E+02  0.18750234945E+03  0.21885077786E+03  0.10056883875E+03 0.  0.
         23    2    1    2    0    0  0.35341467896E+02 -0.37086672027E+02  0.12744804723E+02  0.10298754678E+03  0.88428299477E+02 0.  0.
          5    1    4    4  502    0  0.62410604269E+02 -0.10693245873E+02  0.25322908121E+01  0.63544720704E+02  0.47000000000E+01 0. -1.
         -5    1    4    4    0  502 -0.27069136373E+02 -0.26393426154E+02  0.10212513910E+02  0.39442826071E+02  0.47000000000E+01 0.  1.
          5    1    3    3  503    0 -0.48515411977E+02 -0.46390862018E+01  0.35159396389E+02  0.60278847655E+02  0.47000000000E+01 0. -1.
         -5    1    3    3    0  503  0.13173944081E+02  0.41725758229E+02  0.15234295306E+03  0.15857193021E+03  0.47000000000E+01 0.  1.
<mgrwt>
<rscale>  0 0.11009768E+03</rscale>
<asrwt>0</asrwt>
<pdfrwt beam="1">  1        1 0.40160421E-01 0.11286510E+03</pdfrwt>
<pdfrwt beam="2">  1       -1 0.93531671E-02 0.11286510E+03</pdfrwt>
<totfact> 0.66468514E+03</totfact>
</mgrwt>
</event>
<event>
 8    1  0.2964543E-004  0.9402757E+02  0.7546771E-02  0.1293491E+00
         -4   -1    0    0    0  501 -0.00000000000E+00  0.00000000000E+00  0.49056901004E+03  0.49056901004E+03  0.00000000000E+00 0.  1.
          4   -1    0    0  501    0  0.00000000000E+00 -0.00000000000E+00 -0.42817094239E+02  0.42817094239E+02  0.00000000000E+00 0. -1.
         23    2    1    2    0    0  0.13946497365E+01 -0.71458920264E+01  0.42706896349E+03  0.43729747790E+03  0.93745270686E+02 0.  0.
         23    2    1    2    0    0 -0.13946497365E+01  0.71458920264E+01  0.20682952310E+02  0.96088626382E+02  0.93553357947E+02 0.  0.
          5    1    4    4  502    0  0.32505695667E+02  0.27386948971E+02 -0.12222878135E+02  0.44476442918E+02  0.47000000000E+01 0. -1.
         -5    1    3    3    0  503 -0.28737062577E+02  0.28340017483E+02  0.12020808121E+03  0.12688990561E+03  0.47000000000E+01 0.  1.
          5    1    3    3  503    0  0.30131712313E+02 -0.35485909510E+02  0.30686088228E+03  0.31040757229E+03  0.47000000000E+01 0. -1.
         -5    1    4    4    0  502 -0.33900345403E+02 -0.20241056945E+02  0.32905830445E+02  0.51612183465E+02  0.47000000000E+01 0.  1.
<mgrwt>
<rscale>  0 0.93979703E+02</rscale>
<asrwt>0</asrwt>
<pdfrwt beam="1">  1        4 0.65872456E-02 0.94027574E+02</pdfrwt>
<pdfrwt beam="2">  1       -4 0.75472151E-01 0.94027574E+02</pdfrwt>
<totfact> 0.37991395E+02</totfact>
</mgrwt>
</event>
<event>
 8    1  0.2964543E-004  0.1062346E+03  0.7546771E-02  0.1268301E+00
          2   -1    0    0  501    0  0.00000000000E+00  0.00000000000E+00  0.10049181061E+04  0.10049181061E+04  0.00000000000E+00 0. -1.
         -2   -1    0    0    0  501 -0.00000000000E+00 -0.00000000000E+00 -0.19701006846E+02  0.19701006846E+02  0.00000000000E+00 0.  1.
         23    2    1    2    0    0  0.48733933407E+02  0.20076989818E+02  0.83267039671E+03  0.83941991063E+03  0.92237275617E+02 0.  0.
         23    2    1    2    0    0 -0.48733933407E+02 -0.20076989818E+02  0.15254670255E+03  0.18519920233E+03  0.90830426059E+02 0.  0.
          5    1    4    4  502    0  0.16829510921E+02  0.16213841416E+02  0.14079773646E+02  0.27684853571E+02  0.47000000000E+01 0. -1.
         -5    1    3    3    0  503  0.87388788000E+01 -0.35030893105E+02  0.36200557603E+03  0.36383190975E+03  0.47000000000E+01 0.  1.
          5    1    3    3  503    0  0.39995054607E+02  0.55107882922E+02  0.47066482068E+03  0.47558800088E+03  0.47000000000E+01 0. -1.
         -5    1    4    4    0  502 -0.65563444328E+02 -0.36290831234E+02  0.13846692891E+03  0.15751434876E+03  0.47000000000E+01 0.  1.
<mgrwt>
<rscale>  0 0.10592852E+03</rscale>
<asrwt>0</asrwt>
<pdfrwt beam="1">  1        2 0.15460275E+00 0.10623463E+03</pdfrwt>
<pdfrwt beam="2">  1       -2 0.30309249E-02 0.10623463E+03</pdfrwt>
<totfact> 0.10330908E+04</totfact>
</mgrwt>
</event>
<event>
 8    1  0.2964543E-004  0.9527288E+02  0.7546771E-02  0.1291465E+00
         -1   -1    0    0    0  501 -0.00000000000E+00  0.00000000000E+00  0.15766549363E+03  0.15766549363E+03  0.00000000000E+00 0.  1.
          1   -1    0    0  501    0  0.00000000000E+00 -0.00000000000E+00 -0.19836390828E+03  0.19836390828E+03  0.00000000000E+00 0. -1.
         23    2    1    2    0    0 -0.22713420626E+02 -0.12295518029E+02  0.13008393531E+03  0.16124128580E+03  0.91705194950E+02 0.  0.
         23    2    1    2    0    0  0.22713420626E+02  0.12295518029E+02 -0.17078234997E+03  0.19478811610E+03  0.90048430721E+02 0.  0.
          5    1    3    3  502    0  0.21342190438E+02  0.21805314326E+02  0.17369691207E+02  0.35422549290E+02  0.47000000000E+01 0. -1.
         -5    1    4    4    0  503  0.11807305852E+02 -0.21098896791E+02 -0.48384167296E+01  0.25101318566E+02  0.47000000000E+01 0.  1.
          5    1    4    4  503    0  0.10906114773E+02  0.33394414820E+02 -0.16594393324E+03  0.16968679754E+03  0.47000000000E+01 0. -1.
         -5    1    3    3    0  502 -0.44055611064E+02 -0.34100832355E+02  0.11271424410E+03  0.12581873651E+03  0.47000000000E+01 0.  1.
<mgrwt>
<rscale>  0 0.94871946E+02</rscale>
<asrwt>0</asrwt>
<pdfrwt beam="1">  1        1 0.30517524E-01 0.95272882E+02</pdfrwt>
<pdfrwt beam="2">  1       -1 0.24256230E-01 0.95272882E+02</pdfrwt>
<totfact> 0.20849830E+03</totfact>
</mgrwt>
</event>
<event>
 8    1  0.2964543E-004  0.9495693E+02  0.7546771E-02  0.1294402E+00
          2   -1    0    0  501    0  0.00000000000E+00  0.00000000000E+00  0.27747330532E+03  0.27747330532E+03  0.00000000000E+00 0.  1.
         -2   -1    0    0    0  501 -0.00000000000E+00 -0.00000000000E+00 -0.30788597508E+02  0.30788597508E+02  0.00000000000E+00 0. -1.
         23    2    1    2    0    0 -0.30265268549E+01  0.68297723142E+01  0.13605631486E+03  0.16591606146E+03  0.94662627166E+02 0.  0.
         23    2    1    2    0    0  0.30265268549E+01 -0.68297723142E+01  0.11062839296E+03  0.14234584137E+03  0.89263047076E+02 0.  0.
          5    1    3    3  502    0 -0.60635455410E+01  0.30298039960E+02  0.38083435077E+01  0.31485413928E+02  0.47000000000E+01 0. -1.
         -5    1    3    3    0  502  0.30370186861E+01 -0.23468267646E+02  0.13224797135E+03  0.13443064753E+03  0.47000000000E+01 0.  1.
          5    1    4    4  503    0  0.35684929623E+02  0.11384468094E+02  0.16971270159E+02  0.41390026900E+02  0.47000000000E+01 0. -1.
         -5    1    4    4    0  503 -0.32658402768E+02 -0.18214240408E+02  0.93657122800E+02  0.10095581447E+03  0.47000000000E+01 0.  1.
<mgrwt>
<rscale>  0 0.93581891E+02</rscale>
<asrwt>0</asrwt>
<pdfrwt beam="1">  1        2 0.42688199E-01 0.94956930E+02</pdfrwt>
<pdfrwt beam="2">  1       -2 0.47367075E-02 0.94956930E+02</pdfrwt>
<totfact> 0.22723706E+04</totfact>
</mgrwt>
</event>
<event>
 8    1  0.2964543E-004  0.1105465E+03  0.7546771E-02  0.1262371E+00
         -3   -1    0    0    0  501 -0.00000000000E+00  0.00000000000E+00  0.48079244930E+02  0.48079244930E+02  0.00000000000E+00 0.  1.
          3   -1    0    0  501    0  0.00000000000E+00 -0.00000000000E+00 -0.26578738114E+03  0.26578738114E+03  0.00000000000E+00 0. -1.
         23    2    1    2    0    0 -0.40814368470E+02  0.29399650370E+02 -0.57959100139E+02  0.11959805256E+03  0.91729410614E+02 0.  0.
         23    2    1    2    0    0  0.40814368470E+02 -0.29399650370E+02 -0.15974903608E+03  0.19426857351E+03  0.98439687182E+02 0.  0.
          5    1    3    3  502    0 -0.61761821455E+02  0.46425927920E+01 -0.60528412398E+02  0.86728628288E+02  0.47000000000E+01 0. -1.
         -5    1    4    4    0  503  0.42689031304E+02  0.28904896748E+02 -0.81581719494E+02  0.96620460593E+02  0.47000000000E+01 0.  1.
          5    1    4    4  503    0 -0.18746628335E+01 -0.58304547118E+02 -0.78167316581E+02  0.97648112920E+02  0.47000000000E+01 0. -1.
         -5    1    3    3    0  502  0.20947452985E+02  0.24757057578E+02  0.25693122592E+01  0.32869424272E+02  0.47000000000E+01 0.  1.
<mgrwt>
<rscale>  0 0.10903298E+03</rscale>
<asrwt>0</asrwt>
<pdfrwt beam="1">  1        3 0.40890367E-01 0.11054648E+03</pdfrwt>
<pdfrwt beam="2">  1       -3 0.73968068E-02 0.11054648E+03</pdfrwt>
<totfact> 0.15990737E+03</totfact>
</mgrwt>
</event>
<event>
 8    1  0.2964543E-004  0.1059414E+03  0.7546771E-02  0.1271666E+00
          1   -1    0    0  501    0  0.00000000000E+00  0.00000000000E+00  0.23251392098E+02  0.23251392098E+02  0.00000000000E+00 0. -1.
         -1   -1    0    0    0  501 -0.00000000000E+00 -0.00000000000E+00 -0.59002905421E+03  0.59002905421E+03  0.00000000000E+00 0.  1.
         23    2    1    2    0    0 -0.32450038527E+02  0.18297792904E+02 -0.43846027182E+03  0.45107758521E+03  0.99175418756E+02 0.  0.
         23    2    1    2    0    0  0.32450038527E+02 -0.18297792904E+02 -0.12831739029E+03  0.16220286110E+03  0.91959780735E+02 0.  0.
          5    1    4    4  502    0  0.66828208320E+01  0.33851561577E+02 -0.76931975967E+02  0.84446475603E+02  0.47000000000E+01 0. -1.
         -5    1    4    4    0  502  0.25767217695E+02 -0.52149354482E+02 -0.51385414324E+02  0.77756385499E+02  0.47000000000E+01 0.  1.
          5    1    3    3  503    0  0.20596547739E+02 -0.23279442889E+02 -0.73881854787E+02  0.80291772348E+02  0.47000000000E+01 0. -1.
         -5    1    3    3    0  503 -0.53046586266E+02  0.41577235794E+02 -0.36457841704E+03  0.37078581286E+03  0.47000000000E+01 0.  1.
<mgrwt>
<rscale>  0 0.10421926E+03</rscale>
<asrwt>0</asrwt>
<pdfrwt beam="1">  1        1 0.35771367E-02 0.10594139E+03</pdfrwt>
<pdfrwt beam="2">  1       -1 0.90773713E-01 0.10594139E+03</pdfrwt>
<totfact> 0.31439445E+03</totfact>
</mgrwt>
</event>
<event>
 8    1  0.2964543E-004  0.1162571E+03  0.7546771E-02  0.1249481E+00
         -2   -1    0    0    0  501 -0.00000000000E+00  0.00000000000E+00  0.47572847252E+02  0.47572847252E+02  0.00000000000E+00 0.  1.
          2   -1    0    0  501    0  0.00000000000E+00 -0.00000000000E+00 -0.46719761047E+03  0.46719761047E+03  0.00000000000E+00 0. -1.
         23    2    1    2    0    0 -0.38512416448E+02  0.59248572356E+02 -0.48388773415E+02  0.12575647903E+03  0.92084847170E+02 0.  0.
         23    2    1    2    0    0  0.38512416448E+02 -0.59248572356E+02 -0.37123598980E+03  0.38901397869E+03  0.92315307211E+02 0.  0.
          5    1    4    4  502    0 -0.53788365120E+01 -0.66139310468E+02 -0.27471131065E+03  0.28265125945E+03  0.47000000000E+01 0. -1.
         -5    1    3    3    0  503 -0.20138525563E+02  0.83080234788E+02 -0.35386005774E+02  0.92639867384E+02  0.47000000000E+01 0.  1.
          5    1    3    3  503    0 -0.18373890885E+02 -0.23831662432E+02 -0.13002767641E+02  0.33116611645E+02  0.47000000000E+01 0. -1.
         -5    1    4    4    0  502  0.43891252960E+02  0.68907381119E+01 -0.96524679151E+02  0.10636271924E+03  0.47000000000E+01 0.  1.
<mgrwt>
<rscale>  0 0.11621135E+03</rscale>
<asrwt>0</asrwt>
<pdfrwt beam="1">  1        2 0.71876554E-01 0.11625711E+03</pdfrwt>
<pdfrwt beam="2">  1       -2 0.73188997E-02 0.11625711E+03</pdfrwt>
<totfact> 0.69260730E+03</totfact>
</mgrwt>
</event>
<event>
 8    1  0.2964543E-004  0.1114956E+03  0.7546771E-02  0.1258816E+00
         -1   -1    0    0    0  501 -0.00000000000E+00  0.00000000000E+00  0.77944646713E+02  0.77944646713E+02  0.00000000000E+00 0.  1.
          1   -1    0    0  501    0  0.00000000000E+00 -0.00000000000E+00 -0.15667354839E+03  0.15667354839E+03  0.00000000000E+00 0. -1.
         23    2    1    2    0    0  0.59415337095E+02 -0.13108632475E+02 -0.35008712631E+02  0.11686263715E+03  0.93430441904E+02 0.  0.
         23    2    1    2    0    0 -0.59415337095E+02  0.13108632475E+02 -0.43720189045E+02  0.11775555795E+03  0.90845462025E+02 0.  0.
          5    1    4    4  502    0 -0.43906088366E+02  0.30112842883E+02 -0.66308560194E+02  0.85167147757E+02  0.47000000000E+01 0. -1.
         -5    1    3    3    0  503  0.53402480351E+02 -0.35435108902E+02  0.10962420729E+02  0.65190003212E+02  0.47000000000E+01 0.  1.
          5    1    3    3  503    0  0.60128567442E+01  0.22326476428E+02 -0.45971133360E+02  0.51672633940E+02  0.47000000000E+01 0. -1.
         -5    1    4    4    0  502 -0.15509248729E+02 -0.17004210408E+02  0.22588371149E+02  0.32588410193E+02  0.47000000000E+01 0.  1.
<mgrwt>
<rscale>  0 0.11095237E+03</rscale>
<asrwt>0</asrwt>
<pdfrwt beam="1">  1        1 0.24103623E-01 0.11149559E+03</pdfrwt>
<pdfrwt beam="2">  1       -1 0.11991484E-01 0.11149559E+03</pdfrwt>
<totfact> 0.85496015E+03</totfact>
</mgrwt>
</event>
<event>
 8    1  0.2964543E-004  0.1145343E+03  0.7546771E-02  0.1254338E+00
          1   -1    0    0  501    0  0.00000000000E+00  0.00000000000E+00  0.50488252290E+02  0.50488252290E+02  0.00000000000E+00 0. -1.
         -1   -1    0    0    0  501 -0.00000000000E+00 -0.00000000000E+00 -0.36392083700E+03  0.36392083700E+03  0.00000000000E+00 0.  1.
         23    2    1    2    0    0 -0.53813526853E+02 -0.27507866163E+02 -0.27051213726E+03  0.29209693642E+03  0.92147845837E+02 0.  0.
         23    2    1    2    0    0  0.53813526853E+02  0.27507866163E+02 -0.42920447455E+02  0.12231215287E+03  0.97290901713E+02 0.  0.
          5    1    4    4  502    0  0.76129666989E+02  0.41612755016E+02 -0.26370681428E+02  0.90801158664E+02  0.47000000000E+01 0. -1.
         -5    1    3    3    0  503 -0.51500703363E+02 -0.64073311704E+01 -0.26443777383E+03  0.26952328762E+03  0.47000000000E+01 0.  1.
          5    1    3    3  503    0 -0.23128234900E+01 -0.21100534993E+02 -0.60743634273E+01  0.22573648809E+02  0.47000000000E+01 0. -1.
         -5    1    4    4    0  502 -0.22316140136E+02 -0.14104888852E+02 -0.16549766027E+02  0.31510994203E+02  0.47000000000E+01 0.  1.
<mgrwt>
<rscale>  0 0.11343470E+03</rscale>
<asrwt>0</asrwt>
<pdfrwt beam="1">  1        1 0.77674232E-02 0.11453427E+03</pdfrwt>
<pdfrwt beam="2">  1       -1 0.55987822E-01 0.11453427E+03</pdfrwt>
<totfact> 0.28723450E+03</totfact>
</mgrwt>
</event>
<event>
 8    1  0.2964543E-004  0.2250155E+03  0.7546771E-02  0.1130427E+00
         -2   -1    0    0    0  501 -0.00000000000E+00  0.00000000000E+00  0.16545796367E+03  0.16545796367E+03  0.00000000000E+00 0.  1.
          2   -1    0    0  501    0  0.00000000000E+00 -0.00000000000E+00 -0.30441322034E+03  0.30441322034E+03  0.00000000000E+00 0. -1.
         23    2    1    2    0    0 -0.18273509172E+03  0.91986961329E+02 -0.73856637386E+02  0.23562818299E+03  0.90620764354E+02 0.  0.
         23    2    1    2    0    0  0.18273509172E+03 -0.91986961329E+02 -0.65098619282E+02  0.23424300103E+03  0.93692254203E+02 0.  0.
          5    1    3    3  502    0 -0.13616829354E+03  0.65341848810E+02 -0.94191790043E+02  0.17806050849E+03  0.47000000000E+01 0. -1.
         -5    1    3    3    0  502 -0.46566798173E+02  0.26645112519E+02  0.20335152657E+02  0.57567674495E+02  0.47000000000E+01 0.  1.
          5    1    4    4  503    0  0.27154092139E+02 -0.23405393825E+02 -0.52420489634E+02  0.63680098253E+02  0.47000000000E+01 0. -1.
         -5    1    4    4    0  503  0.15558099958E+03 -0.68581567504E+02 -0.12678129648E+02  0.17056290277E+03  0.47000000000E+01 0.  1.
<mgrwt>
<rscale>  0 0.22469941E+03</rscale>
<asrwt>0</asrwt>
<pdfrwt beam="1">  1        2 0.46832802E-01 0.22501545E+03</pdfrwt>
<pdfrwt beam="2">  1       -2 0.25455072E-01 0.22501545E+03</pdfrwt>
<totfact> 0.14745678E+03</totfact>
</mgrwt>
</event>
<event>
 8    1  0.2964543E-004  0.1084462E+03  0.7546771E-02  0.1266741E+00
         -1   -1    0    0    0  501 -0.00000000000E+00  0.00000000000E+00  0.39929017741E+02  0.39929017741E+02  0.00000000000E+00 0.  1.
          1   -1    0    0  501    0  0.00000000000E+00 -0.00000000000E+00 -0.33089842446E+03  0.33089842446E+03  0.00000000000E+00 0. -1.
         23    2    1    2    0    0  0.42036620699E+02 -0.21352660793E+02 -0.22439929218E+03  0.24923005737E+03  0.97660460591E+02 0.  0.
         23    2    1    2    0    0 -0.42036620699E+02  0.21352660793E+02 -0.66570114538E+02  0.12159738483E+03  0.90173888933E+02 0.  0.
          5    1    4    4  502    0 -0.64639321311E+02  0.23041965081E+01 -0.64703785348E+02  0.91609066251E+02  0.47000000000E+01 0. -1.
         -5    1    3    3    0  503  0.18552019597E+02 -0.59814356182E+02 -0.12057371680E+03  0.13594868818E+03  0.47000000000E+01 0.  1.
          5    1    3    3  503    0  0.23484601102E+02  0.38461695389E+02 -0.10382557538E+03  0.11328136918E+03  0.47000000000E+01 0. -1.
         -5    1    4    4    0  502  0.22602700613E+02  0.19048464285E+02 -0.18663291908E+01  0.29988318580E+02  0.47000000000E+01 0.  1.
<mgrwt>
<rscale>  0 0.10673358E+03</rscale>
<asrwt>0</asrwt>
<pdfrwt beam="1">  1        1 0.50907450E-01 0.10844620E+03</pdfrwt>
<pdfrwt beam="2">  1       -1 0.61429258E-02 0.10844620E+03</pdfrwt>
<totfact> 0.92905160E+03</totfact>
</mgrwt>
</event>
<event>
 8    1  0.2964543E-004  0.1290903E+03  0.7546771E-02  0.1229809E+00
         -2   -1    0    0    0  501 -0.00000000000E+00  0.00000000000E+00  0.10366928270E+03  0.10366928270E+03  0.00000000000E+00 0.  1.
          2   -1    0    0  501    0  0.00000000000E+00 -0.00000000000E+00 -0.47380621273E+03  0.47380621273E+03  0.00000000000E+00 0. -1.
         23    2    1    2    0    0 -0.47270300860E+02  0.75262340486E+02  0.50215815785E+02  0.13851333774E+03  0.93623796852E+02 0.  0.
         23    2    1    2    0    0  0.47270300860E+02 -0.75262340486E+02 -0.42035274581E+03  0.43896215769E+03  0.89958010976E+02 0.  0.
          5    1    4    4  502    0  0.70180390542E+02 -0.35909080412E+02 -0.22994400873E+03  0.24312771628E+03  0.47000000000E+01 0. -1.
         -5    1    3    3    0  503 -0.36332246556E+02  0.38634048540E+02  0.75541147491E+02  0.92418487385E+02  0.47000000000E+01 0.  1.
          5    1    3    3  503    0 -0.10938054304E+02  0.36628291946E+02 -0.25325331705E+02  0.46094850351E+02  0.47000000000E+01 0. -1.
         -5    1    4    4    0  502 -0.22910089682E+02 -0.39353260074E+02 -0.19040873708E+03  0.19583444141E+03  0.47000000000E+01 0.  1.
<mgrwt>
<rscale>  0 0.12842688E+03</rscale>
<asrwt>0</asrwt>
<pdfrwt beam="1">  1        2 0.72893264E-01 0.12909034E+03</pdfrwt>
<pdfrwt beam="2">  1       -2 0.15949120E-01 0.12909034E+03</pdfrwt>
<totfact> 0.20017536E+03</totfact>
</mgrwt>
</event>
<event>
 8    1  0.2964543E-004  0.1305214E+03  0.7546771E-02  0.1227183E+00
          1   -1    0    0  501    0  0.00000000000E+00  0.00000000000E+00  0.15505841171E+02  0.15505841171E+02  0.00000000000E+00 0. -1.
         -1   -1    0    0    0  501 -0.00000000000E+00 -0.00000000000E+00 -0.11312267388E+04  0.11312267388E+04  0.00000000000E+00 0.  1.
         23    2    1    2    0    0 -0.23558006593E+02 -0.87611351858E+02 -0.44222100367E+03  0.46070200239E+03  0.91957546026E+02 0.  0.
         23    2    1    2    0    0  0.23558006593E+02  0.87611351858E+02 -0.67349989397E+03  0.68603057759E+03  0.93835587932E+02 0.  0.
          5    1    3    3  502    0 -0.58725835582E+02 -0.55412009920E+02 -0.29458236549E+03  0.30548334597E+03  0.47000000000E+01 0. -1.
         -5    1    4    4    0  503  0.59260072630E+02  0.44415578256E+02 -0.39482934321E+03  0.40174220597E+03  0.47000000000E+01 0.  1.
          5    1    4    4  503    0 -0.35702066037E+02  0.43195773602E+02 -0.27867055076E+03  0.28428837162E+03  0.47000000000E+01 0. -1.
         -5    1    3    3    0  502  0.35167828989E+02 -0.32199341938E+02 -0.14763863818E+03  0.15521865642E+03  0.47000000000E+01 0.  1.
<mgrwt>
<rscale>  0 0.13018424E+03</rscale>
<asrwt>0</asrwt>
<pdfrwt beam="1">  1        1 0.23855134E-02 0.13052144E+03</pdfrwt>
<pdfrwt beam="2">  1       -1 0.17403493E+00 0.13052144E+03</pdfrwt>
<totfact> 0.11599487E+03</totfact>
</mgrwt>
</event>
<event>
 7    1  0.2964543E-004  0.2451461E+03  0.7546771E-02  0.1124961E+00
          2   -1    0    0  501    0  0.00000000000E+00  0.00000000000E+00  0.12640067165E+04  0.12640067165E+04  0.00000000000E+00 0. -1.
         -2   -1    0    0    0  501 -0.00000000000E+00 -0.00000000000E+00 -0.39288797398E+02  0.39288797398E+02  0.00000000000E+00 0.  1.
         23    2    1    2    0    0  0.16926372841E+03 -0.47358346575E+02  0.47878950920E+03  0.51811669388E+03  0.91172866695E+02 0.  0.
          5    1    1    2  502    0 -0.96962493349E+02  0.11099930579E+03  0.48892996083E+03  0.51068304025E+03  0.47000000000E+01 0. -1.
         -5    1    1    2    0  502 -0.72301235057E+02 -0.63640959220E+02  0.25699844911E+03  0.27449577980E+03  0.47000000000E+01 0.  1.
          5    1    3    3  503    0  0.12715845210E+03 -0.74662701168E+02  0.35086842745E+03  0.38062387506E+03  0.47000000000E+01 0. -1.
         -5    1    3    3    0  503  0.42105276311E+02  0.27304354594E+02  0.12792108175E+03  0.13749281883E+03  0.47000000000E+01 0.  1.
<mgrwt>
<rscale>  0 0.23240051E+03</rscale>
<asrwt>0</asrwt>
<pdfrwt beam="1">  1        2 0.19446254E+00 0.24514605E+03</pdfrwt>
<pdfrwt beam="2">  1       -2 0.60444313E-02 0.24514605E+03</pdfrwt>
<totfact> 0.26863022E+03</totfact>
</mgrwt>
</event>
<event>
 8    1  0.2964543E-004  0.9101304E+02  0.7546771E-02  0.1301796E+00
         -1   -1    0    0    0  501 -0.00000000000E+00  0.00000000000E+00  0.32072854052E+03  0.32072854052E+03  0.00000000000E+00 0.  1.
          1   -1    0    0  501    0  0.00000000000E+00 -0.00000000000E+00 -0.32892035764E+02  0.32892035764E+02  0.00000000000E+00 0. -1.
         23    2    1    2    0    0  0.37233083927E+01 -0.11460413407E+02  0.56929643906E+02  0.10542437934E+03  0.87909676965E+02 0.  0.
         23    2    1    2    0    0 -0.37233083927E+01  0.11460413407E+02  0.23090686085E+03  0.24819619694E+03  0.90211804586E+02 0.  0.
          5    1    4    4  502    0 -0.27326545979E+02 -0.31270768105E+02  0.98559950904E+02  0.10705491570E+03  0.47000000000E+01 0. -1.
         -5    1    4    4    0  502  0.23603237586E+02  0.42731181512E+02  0.13234690994E+03  0.14114128124E+03  0.47000000000E+01 0.  1.
          5    1    3    3  503    0 -0.38001526256E+02  0.92234872806E+01  0.38627274945E+02  0.55166521415E+02  0.47000000000E+01 0. -1.
         -5    1    3    3    0  503  0.41724834648E+02 -0.20683900687E+02  0.18302368961E+02  0.50257857929E+02  0.47000000000E+01 0.  1.
<mgrwt>
<rscale>  0 0.90437267E+02</rscale>
<asrwt>0</asrwt>
<pdfrwt beam="1">  1        1 0.50603134E-02 0.91013042E+02</pdfrwt>
<pdfrwt beam="2">  1       -1 0.49342850E-01 0.91013042E+02</pdfrwt>
<totfact> 0.63329790E+03</totfact>
</mgrwt>
</event>
<event>
 7    1  0.2964543E-004  0.1697852E+03  0.7546771E-02  0.1186380E+00
          3   -1    0    0  501    0  0.00000000000E+00  0.00000000000E+00  0.10318685897E+03  0.10318685897E+03  0.00000000000E+00 0. -1.
         -3   -1    0    0    0  501 -0.00000000000E+00 -0.00000000000E+00 -0.30016414906E+03  0.30016414906E+03  0.00000000000E+00 0.  1.
         23    2    1    2    0    0  0.34380635850E+02 -0.10634100797E+03 -0.18576888312E+03  0.23319621837E+03  0.85906694894E+02 0.  0.
          5    1    3    3  502    0 -0.11289873315E+02 -0.72449893330E+02 -0.59196842420E+02  0.94354673628E+02  0.47000000000E+01 0. -1.
         -5    1    1    2    0  503  0.14362115611E+02 -0.17491971880E+02  0.23061498108E+02  0.32652138368E+02  0.47000000000E+01 0.  1.
          5    1    1    2  503    0 -0.48742751460E+02  0.12383297986E+03 -0.34269905082E+02  0.13750265130E+03  0.47000000000E+01 0. -1.
         -5    1    3    3    0  502  0.45670509165E+02 -0.33891114645E+02 -0.12657204070E+03  0.13884154474E+03  0.47000000000E+01 0.  1.
<mgrwt>
<rscale>  0 0.16206930E+03</rscale>
<asrwt>0</asrwt>
<pdfrwt beam="1">  1        3 0.15874901E-01 0.16978523E+03</pdfrwt>
<pdfrwt beam="2">  1       -3 0.46179100E-01 0.16978523E+03</pdfrwt>
<totfact> 0.37733055E+02</totfact>
</mgrwt>
</event>
<event>
 8    1  0.2964543E-004  0.1070606E+03  0.7546771E-02  0.1268661E+00
         -2   -1    0    0    0  501 -0.00000000000E+00  0.00000000000E+00  0.15820794012E+02  0.15820794012E+02  0.00000000000E+00 0.  1.
          2   -1    0    0  501    0  0.00000000000E+00 -0.00000000000E+00 -0.87462505702E+03  0.87462505702E+03  0.00000000000E+00 0. -1.
         23    2    1    2    0    0  0.15806242694E+02 -0.45220942358E+02 -0.62556969921E+03  0.63381318671E+03  0.89927393700E+02 0.  0.
         23    2    1    2    0    0 -0.15806242694E+02  0.45220942358E+02 -0.23323456379E+03  0.25663266432E+03  0.95745452701E+02 0.  0.
          5    1    3    3  502    0 -0.26973544167E+02 -0.48283238577E+02 -0.27084414885E+03  0.27647330102E+03  0.47000000000E+01 0. -1.
         -5    1    4    4    0  503  0.22882534002E+02 -0.16137067750E+02 -0.32567395103E+02  0.43205792918E+02  0.47000000000E+01 0.  1.
          5    1    4    4  503    0 -0.38688776696E+02  0.61358010108E+02 -0.20066716869E+03  0.21342687140E+03  0.47000000000E+01 0. -1.
         -5    1    3    3    0  502  0.42779786861E+02  0.30622962186E+01 -0.35472555036E+03  0.35733988569E+03  0.47000000000E+01 0.  1.
<mgrwt>
<rscale>  0 0.10574400E+03</rscale>
<asrwt>0</asrwt>
<pdfrwt beam="1">  1        2 0.13455770E+00 0.10706056E+03</pdfrwt>
<pdfrwt beam="2">  1       -2 0.24339683E-02 0.10706056E+03</pdfrwt>
<totfact> 0.17081917E+04</totfact>
</mgrwt>
</event>
<event>
 7    1  0.2964543E-004  0.1479356E+03  0.7546771E-02  0.1219812E+00
          2   -1    0    0  501    0  0.00000000000E+00  0.00000000000E+00  0.40363409850E+03  0.40363409850E+03  0.00000000000E+00 0. -1.
         -2   -1    0    0    0  501 -0.00000000000E+00 -0.00000000000E+00 -0.78716736667E+02  0.78716736667E+02  0.00000000000E+00 0.  1.
         23    2    1    2    0    0 -0.32457440772E+02  0.26085663155E+02 -0.21485310663E+02  0.10568154298E+03  0.94726040079E+02 0.  0.
          5    1    1    2  502    0 -0.19111699549E+02 -0.48084710471E+02  0.29786861714E+03  0.30236600259E+03  0.47000000000E+01 0. -1.
         -5    1    1    2    0  502  0.51569140320E+02  0.21999047316E+02  0.48534055348E+02  0.74303289596E+02  0.47000000000E+01 0.  1.
          5    1    3    3  503    0  0.10209638910E+02 -0.28380019449E+02 -0.19663948071E+02  0.36310096176E+02  0.47000000000E+01 0. -1.
         -5    1    3    3    0  503 -0.42667079682E+02  0.54465682605E+02 -0.18213625926E+01  0.69371446805E+02  0.47000000000E+01 0.  1.
<mgrwt>
<rscale>  0 0.13528912E+03</rscale>
<asrwt>0</asrwt>
<pdfrwt beam="1">  1        2 0.62097553E-01 0.14793561E+03</pdfrwt>
<pdfrwt beam="2">  1       -2 0.12110267E-01 0.14793561E+03</pdfrwt>
<totfact> 0.37385520E+03</totfact>
</mgrwt>
</event>
<event>
 8    1  0.2964543E-004  0.9834039E+02  0.7546771E-02  0.1285193E+00
          3   -1    0    0  501    0  0.00000000000E+00  0.00000000000E+00  0.36690036201E+02  0.36690036201E+02  0.00000000000E+00 0. -1.
         -3   -1    0    0    0  501 -0.00000000000E+00 -0.00000000000E+00 -0.28471779629E+03  0.28471779629E+03  0.00000000000E+00 0.  1.
         23    2    1    2    0    0 -0.23047599711E+02 -0.27938279763E+02 -0.75231959709E+02  0.12381712370E+03  0.91428075727E+02 0.  0.
         23    2    1    2    0    0  0.23047599711E+02  0.27938279763E+02 -0.17279580038E+03  0.19759070879E+03  0.88724068003E+02 0.  0.
          5    1    3    3  502    0  0.69381209553E+01 -0.49776470377E+02 -0.69639951563E+02  0.86009577253E+02  0.47000000000E+01 0. -1.
         -5    1    4    4    0  503 -0.17777298621E+02  0.42382303965E+02 -0.12322522856E+03  0.13160105999E+03  0.47000000000E+01 0.  1.
          5    1    4    4  503    0  0.40824898332E+02 -0.14444024202E+02 -0.49570571823E+02  0.65989648808E+02  0.47000000000E+01 0. -1.
         -5    1    3    3    0  502 -0.29985720666E+02  0.21838190615E+02 -0.55920081458E+01  0.37807546446E+02  0.47000000000E+01 0.  1.
<mgrwt>
<rscale>  0 0.97707107E+02</rscale>
<asrwt>0</asrwt>
<pdfrwt beam="1">  1        3 0.56446207E-02 0.98340390E+02</pdfrwt>
<pdfrwt beam="2">  1       -3 0.43802740E-01 0.98340390E+02</pdfrwt>
<totfact> 0.21065090E+03</totfact>
</mgrwt>
</event>
<event>
 8    1  0.2964543E-004  0.9344159E+02  0.7546771E-02  0.1294856E+00
          2   -1    0    0  501    0  0.00000000000E+00  0.00000000000E+00  0.52364639239E+03  0.52364639239E+03  0.00000000000E+00 0. -1.
         -2   -1    0    0    0  501 -0.00000000000E+00 -0.00000000000E+00 -0.17562833683E+02  0.17562833683E+02  0.00000000000E+00 0.  1.
         23    2    1    2    0    0  0.12864140746E+02 -0.16798177905E+02  0.31499212390E+03  0.32849517689E+03  0.90782036878E+02 0.  0.
         23    2    1    2    0    0 -0.12864140746E+02  0.16798177905E+02  0.19109143481E+03  0.21271404919E+03  0.91014643697E+02 0.  0.
          5    1    3    3  502    0 -0.32452592185E+02 -0.25898125041E+02  0.97167378164E+02  0.10577085137E+03  0.47000000000E+01 0. -1.
         -5    1    4    4    0  503  0.12128607051E+02  0.30721363308E+02  0.19400600622E+02  0.38592467879E+02  0.47000000000E+01 0.  1.
          5    1    4    4  503    0 -0.24992747797E+02 -0.13923185403E+02  0.17169083419E+03  0.17412158131E+03  0.47000000000E+01 0. -1.
         -5    1    3    3    0  502  0.45316732931E+02  0.90999471363E+01  0.21782474574E+03  0.22272432552E+03  0.47000000000E+01 0.  1.
<mgrwt>
<rscale>  0 0.93384898E+02</rscale>
<asrwt>0</asrwt>
<pdfrwt beam="1">  1        2 0.80560972E-01 0.93441587E+02</pdfrwt>
<pdfrwt beam="2">  1       -2 0.27019748E-02 0.93441587E+02</pdfrwt>
<totfact> 0.26385794E+04</totfact>
</mgrwt>
</event>
<event>
 8    1  0.2964543E-004  0.9679530E+02  0.7546771E-02  0.1288746E+00
          1   -1    0    0  501    0  0.00000000000E+00  0.00000000000E+00  0.91462665996E+02  0.91462665996E+02  0.00000000000E+00 0. -1.
         -1   -1    0    0    0  501 -0.00000000000E+00 -0.00000000000E+00 -0.99815832344E+02  0.99815832344E+02  0.00000000000E+00 0.  1.
         23    2    1    2    0    0 -0.32002905256E+01  0.36140669826E+02  0.13077304226E+01  0.94002280706E+02  0.86708296859E+02 0.  0.
         23    2    1    2    0    0  0.32002905256E+01 -0.36140669826E+02 -0.96608967706E+01  0.97276217634E+02  0.89738173125E+02 0.  0.
          5    1    4    4  502    0 -0.16766156693E+02 -0.61211546648E+02 -0.12144053934E+02  0.64788312983E+02  0.47000000000E+01 0. -1.
         -5    1    3    3    0  503  0.33261359703E+02  0.19329084582E+02  0.25966041095E+02  0.46650368168E+02  0.47000000000E+01 0.  1.
          5    1    3    3  503    0 -0.36461650228E+02  0.16811585245E+02 -0.24658310672E+02  0.47351912538E+02  0.47000000000E+01 0. -1.
         -5    1    4    4    0  502  0.19966447218E+02  0.25070876821E+02  0.24831571633E+01  0.32487904651E+02  0.47000000000E+01 0.  1.
<mgrwt>
<rscale>  0 0.96087033E+02</rscale>
<asrwt>0</asrwt>
<pdfrwt beam="1">  1        1 0.14071179E-01 0.96795297E+02</pdfrwt>
<pdfrwt beam="2">  1       -1 0.15356282E-01 0.96795297E+02</pdfrwt>
<totfact> 0.11399060E+04</totfact>
</mgrwt>
</event>
<event>
 8    1  0.2964543E-004  0.9680392E+02  0.7546771E-02  0.1290125E+00
         -1   -1    0    0    0  501 -0.00000000000E+00  0.00000000000E+00  0.25044510494E+03  0.25044510494E+03  0.00000000000E+00 0.  1.
          1   -1    0    0  501    0  0.00000000000E+00 -0.00000000000E+00 -0.37478118489E+02  0.37478118489E+02  0.00000000000E+00 0. -1.
         23    2    1    2    0    0 -0.28213021207E+02  0.16023115025E+02  0.75569870412E+02  0.12280799373E+03  0.91204622844E+02 0.  0.
         23    2    1    2    0    0  0.28213021207E+02 -0.16023115025E+02  0.13739711604E+03  0.16511522970E+03  0.85629181962E+02 0.  0.
          5    1    3    3  502    0  0.27841258150E+02  0.18960894972E+02  0.81861322648E+01  0.34982194828E+02  0.47000000000E+01 0. -1.
         -5    1    4    4    0  503  0.42072295850E+02 -0.38687084978E+02  0.12004046182E+03  0.13303597670E+03  0.47000000000E+01 0.  1.
          5    1    4    4  503    0 -0.13859274642E+02  0.22663969953E+02  0.17356654217E+02  0.32079253003E+02  0.47000000000E+01 0. -1.
         -5    1    3    3    0  502 -0.56054279358E+02 -0.29377799471E+01  0.67383738147E+02  0.87825798898E+02  0.47000000000E+01 0.  1.
<mgrwt>
<rscale>  0 0.95468047E+02</rscale>
<asrwt>0</asrwt>
<pdfrwt beam="1">  1        1 0.57658645E-02 0.96803915E+02</pdfrwt>
<pdfrwt beam="2">  1       -1 0.38530015E-01 0.96803915E+02</pdfrwt>
<totfact> 0.82585302E+03</totfact>
</mgrwt>
</event>
<event>
 8    1  0.2964543E-004  0.1011261E+03  0.7546771E-02  0.1281580E+00
         -1   -1    0    0    0  501 -0.00000000000E+00  0.00000000000E+00  0.12036458025E+03  0.12036458025E+03  0.00000000000E+00 0.  1.
          1   -1    0    0  501    0  0.00000000000E+00 -0.00000000000E+00 -0.84500267945E+02  0.84500267945E+02  0.00000000000E+00 0. -1.
         23    2    1    2    0    0  0.21997318333E+02  0.84375027576E+01 -0.78569852096E+01  0.94692058122E+02  0.91377131648E+02 0.  0.
         23    2    1    2    0    0 -0.21997318333E+02 -0.84375027576E+01  0.43721297511E+02  0.11017279007E+03  0.98343369624E+02 0.  0.
          5    1    4    4  502    0  0.26848823918E+02 -0.22544334736E+02  0.47213706286E+02  0.58994325454E+02  0.47000000000E+01 0. -1.
         -5    1    3    3    0  503 -0.28108461131E+02  0.21233701406E+02 -0.20796692605E+02  0.41177033475E+02  0.47000000000E+01 0.  1.
          5    1    3    3  503    0  0.50105779463E+02 -0.12796198648E+02  0.12939707395E+02  0.53515024647E+02  0.47000000000E+01 0. -1.
         -5    1    4    4    0  502 -0.48846142251E+02  0.14106831979E+02 -0.34924087752E+01  0.51178464615E+02  0.47000000000E+01 0.  1.
<mgrwt>
<rscale>  0 0.99391868E+02</rscale>
<asrwt>0</asrwt>
<pdfrwt beam="1">  1        1 0.13000041E-01 0.10112612E+03</pdfrwt>
<pdfrwt beam="2">  1       -1 0.18517628E-01 0.10112612E+03</pdfrwt>
<totfact> 0.94510996E+03</totfact>
</mgrwt>
</event>
<event>
 8    1  0.2964543E-004  0.1007336E+03  0.7546771E-02  0.1281900E+00
         -2   -1    0    0    0  501 -0.00000000000E+00  0.00000000000E+00  0.29968656696E+02  0.29968656696E+02  0.00000000000E+00 0.  1.
          2   -1    0    0  501    0  0.00000000000E+00 -0.00000000000E+00 -0.35370574283E+03  0.35370574283E+03  0.00000000000E+00 0. -1.
         23    2    1    2    0    0  0.28709126556E+02 -0.31313442910E+02 -0.10638230529E+03  0.14650753045E+03  0.91337374301E+02 0.  0.
         23    2    1    2    0    0 -0.28709126556E+02  0.31313442910E+02 -0.21735478084E+03  0.23716686908E+03  0.84854448198E+02 0.  0.
          5    1    4    4  502    0 -0.16241593701E+02  0.48542103257E+02 -0.20655825762E+03  0.21285800184E+03  0.47000000000E+01 0. -1.
         -5    1    3    3    0  503  0.44282955004E+02 -0.55765449147E+02 -0.75560834657E+02  0.10393409044E+03  0.47000000000E+01 0.  1.
          5    1    3    3  503    0 -0.15573828449E+02  0.24452006237E+02 -0.30821470633E+02  0.42573440002E+02  0.47000000000E+01 0. -1.
         -5    1    4    4    0  502 -0.12467532855E+02 -0.17228660347E+02 -0.10796523219E+02  0.24308867239E+02  0.47000000000E+01 0.  1.
<mgrwt>
<rscale>  0 0.99241067E+02</rscale>
<asrwt>0</asrwt>
<pdfrwt beam="1">  1        2 0.54416269E-01 0.10073362E+03</pdfrwt>
<pdfrwt beam="2">  1       -2 0.46105625E-02 0.10073362E+03</pdfrwt>
<totfact> 0.18449868E+04</totfact>
</mgrwt>
</event>
<event>
 8    1  0.2964543E-004  0.1315205E+03  0.7546771E-02  0.1225468E+00
          1   -1    0    0  501    0  0.00000000000E+00  0.00000000000E+00  0.27958240519E+03  0.27958240519E+03  0.00000000000E+00 0. -1.
         -1   -1    0    0    0  501 -0.00000000000E+00 -0.00000000000E+00 -0.64840490233E+02  0.64840490233E+02  0.00000000000E+00 0.  1.
         23    2    1    2    0    0  0.42176474531E+01  0.94340131580E+02  0.68299704468E+02  0.14759056627E+03  0.90555378883E+02 0.  0.
         23    2    1    2    0    0 -0.42176474531E+01 -0.94340131580E+02  0.14644221049E+03  0.19683232916E+03  0.91541224656E+02 0.  0.
          5    1    3    3  502    0 -0.12460519639E+02  0.63753077386E+02  0.86282370964E+02  0.10810391744E+03  0.47000000000E+01 0. -1.
         -5    1    3    3    0  502  0.16678167092E+02  0.30587054193E+02 -0.17982666495E+02  0.39486648833E+02  0.47000000000E+01 0.  1.
          5    1    4    4  503    0 -0.27875946587E+02 -0.13940226113E+02  0.43774197428E+01  0.31822163751E+02  0.47000000000E+01 0. -1.
         -5    1    4    4    0  503  0.23658299134E+02 -0.80399905466E+02  0.14206479075E+03  0.16501016541E+03  0.47000000000E+01 0.  1.
<mgrwt>
<rscale>  0 0.13134911E+03</rscale>
<asrwt>0</asrwt>
<pdfrwt beam="1">  1        1 0.43012677E-01 0.13152051E+03</pdfrwt>
<pdfrwt beam="2">  1       -1 0.99754602E-02 0.13152051E+03</pdfrwt>
<totfact> 0.55955178E+03</totfact>
</mgrwt>
</event>
<event>
 8    1  0.2964543E-004  0.1349197E+03  0.7546771E-02  0.1223037E+00
         -1   -1    0    0    0  501 -0.00000000000E+00  0.00000000000E+00  0.35432159005E+03  0.35432159005E+03  0.00000000000E+00 0.  1.
          1   -1    0    0  501    0  0.00000000000E+00 -0.00000000000E+00 -0.77633624068E+02  0.77633624068E+02  0.00000000000E+00 0. -1.
         23    2    1    2    0    0  0.83420027538E+02  0.53433829168E+02  0.87163984768E+01  0.13520100697E+03  0.91592912330E+02 0.  0.
         23    2    1    2    0    0 -0.83420027538E+02 -0.53433829168E+02  0.26797156751E+03  0.29675420715E+03  0.80251002334E+02 0.  0.
          5    1    3    3  502    0  0.23657586458E+02  0.60337308368E+02 -0.20527557286E+02  0.68145012923E+02  0.47000000000E+01 0. -1.
         -5    1    3    3    0  502  0.59762441080E+02 -0.69034791996E+01  0.29243955763E+02  0.67055994047E+02  0.47000000000E+01 0.  1.
          5    1    4    4  503    0 -0.12365887590E+01 -0.43152852302E+02  0.74233082316E+02  0.86001966975E+02  0.47000000000E+01 0. -1.
         -5    1    4    4    0  503 -0.82183438779E+02 -0.10280976867E+02  0.19373848519E+03  0.21075224018E+03  0.47000000000E+01 0.  1.
<mgrwt>
<rscale>  0 0.13302328E+03</rscale>
<asrwt>0</asrwt>
<pdfrwt beam="1">  1        1 0.11943635E-01 0.13491974E+03</pdfrwt>
<pdfrwt beam="2">  1       -1 0.54511013E-01 0.13491974E+03</pdfrwt>
<totfact> 0.17205254E+03</totfact>
</mgrwt>
</event>
<event>
 8    1  0.2964543E-004  0.2023149E+03  0.7546771E-02  0.1148848E+00
          1   -1    0    0  501    0  0.00000000000E+00  0.00000000000E+00  0.16163282840E+04  0.16163282840E+04  0.00000000000E+00 0. -1.
         -1   -1    0    0    0  501 -0.00000000000E+00 -0.00000000000E+00 -0.45621691411E+02  0.45621691411E+02  0.00000000000E+00 0.  1.
         23    2    1    2    0    0  0.13268915442E+03  0.11235127610E+03  0.21741833400E+03  0.29362237804E+03  0.93349600881E+02 0.  0.
         23    2    1    2    0    0 -0.13268915442E+03 -0.11235127610E+03  0.13532882586E+04  0.13683275974E+04  0.10345086737E+03 0.  0.
          5    1    4    4  502    0 -0.31242877554E+02 -0.93476553718E+02  0.70137498616E+03  0.70828168458E+03  0.47000000000E+01 0. -1.
         -5    1    4    4    0  502 -0.10144627686E+03 -0.18874722381E+02  0.65191327243E+03  0.66004591280E+03  0.47000000000E+01 0.  1.
          5    1    3    3  503    0  0.26116720022E+02  0.42498810026E+02  0.12918359068E+03  0.13855945301E+03  0.47000000000E+01 0. -1.
         -5    1    3    3    0  503  0.10657243439E+03  0.69852466072E+02  0.88234743326E+02  0.15506292503E+03  0.47000000000E+01 0.  1.
<mgrwt>
<rscale>  0 0.20105970E+03</rscale>
<asrwt>0</asrwt>
<pdfrwt beam="1">  1        1 0.24866585E+00 0.20231486E+03</pdfrwt>
<pdfrwt beam="2">  1       -1 0.70187230E-02 0.20231486E+03</pdfrwt>
<totfact> 0.63707788E+02</totfact>
</mgrwt>
</event>
<event>
 8    1  0.2964543E-004  0.1358117E+03  0.7546771E-02  0.1221359E+00
          2   -1    0    0  501    0  0.00000000000E+00  0.00000000000E+00  0.39252389916E+02  0.39252389916E+02  0.00000000000E+00 0. -1.
         -2   -1    0    0    0  501 -0.00000000000E+00 -0.00000000000E+00 -0.48214063337E+03  0.48214063337E+03  0.00000000000E+00 0.  1.
         23    2    1    2    0    0 -0.38067755033E+02 -0.83877385426E+02 -0.15721693845E+03  0.20775460589E+03  0.99801005869E+02 0.  0.
         23    2    1    2    0    0  0.38067755033E+02  0.83877385426E+02 -0.28567130501E+03  0.31363841740E+03  0.90974681132E+02 0.  0.
          5    1    3    3  502    0  0.73121218819E-01 -0.59917300997E+02 -0.15039168941E+03  0.16195628592E+03  0.47000000000E+01 0. -1.
         -5    1    3    3    0  502 -0.38140876252E+02 -0.23960084429E+02 -0.68252490367E+01  0.45798319964E+02  0.47000000000E+01 0.  1.
          5    1    4    4  503    0 -0.28081793602E+02  0.32028879010E+02 -0.12675991386E+03  0.13380807892E+03  0.47000000000E+01 0. -1.
         -5    1    4    4    0  503  0.66149548635E+02  0.51848506416E+02 -0.15891139114E+03  0.17983033848E+03  0.47000000000E+01 0.  1.
<mgrwt>
<rscale>  0 0.13419619E+03</rscale>
<asrwt>0</asrwt>
<pdfrwt beam="1">  1        2 0.60388291E-02 0.13581167E+03</pdfrwt>
<pdfrwt beam="2">  1       -2 0.74175483E-01 0.13581167E+03</pdfrwt>
<totfact> 0.19836300E+03</totfact>
</mgrwt>
</event>
<event>
 8    1  0.2964543E-004  0.9522343E+02  0.7546771E-02  0.1291385E+00
         -1   -1    0    0    0  501 -0.00000000000E+00  0.00000000000E+00  0.67052569550E+03  0.67052569550E+03  0.00000000000E+00 0.  1.
          1   -1    0    0  501    0  0.00000000000E+00 -0.00000000000E+00 -0.13398326462E+02  0.13398326462E+02  0.00000000000E+00 0. -1.
         23    2    1    2    0    0  0.13071645694E+02  0.26856892127E+01  0.30912319658E+03  0.32345734241E+03  0.94283725247E+02 0.  0.
         23    2    1    2    0    0 -0.13071645694E+02 -0.26856892127E+01  0.34800417246E+03  0.36046667955E+03  0.93012053909E+02 0.  0.
          5    1    3    3  502    0  0.39436297436E+02  0.25416190267E+02  0.25218944489E+03  0.25655956501E+03  0.47000000000E+01 0. -1.
         -5    1    3    3    0  502 -0.26364651741E+02 -0.22730501054E+02  0.56933751688E+02  0.66897777399E+02  0.47000000000E+01 0.  1.
          5    1    4    4  503    0 -0.48118592758E+02 -0.42390424084E+01  0.27598478193E+03  0.28021966081E+03  0.47000000000E+01 0. -1.
         -5    1    4    4    0  503  0.35046947064E+02  0.15533531957E+01  0.72019390531E+02  0.80247018743E+02  0.47000000000E+01 0.  1.
<mgrwt>
<rscale>  0 0.94907120E+02</rscale>
<asrwt>0</asrwt>
<pdfrwt beam="1">  1        1 0.20612815E-02 0.95223430E+02</pdfrwt>
<pdfrwt beam="2">  1       -1 0.10315777E+00 0.95223430E+02</pdfrwt>
<totfact> 0.50516014E+03</totfact>
</mgrwt>
</event>
<event>
 8    1  0.2964543E-004  0.1084392E+03  0.7546771E-02  0.1265774E+00
         -1   -1    0    0    0  501 -0.00000000000E+00  0.00000000000E+00  0.10848229774E+02  0.10848229774E+02  0.00000000000E+00 0.  1.
          1   -1    0    0  501    0  0.00000000000E+00 -0.00000000000E+00 -0.10472124541E+04  0.10472124541E+04  0.00000000000E+00 0. -1.
         23    2    1    2    0    0  0.10498253399E+02 -0.49284598880E+02 -0.58137141304E+03  0.59139815955E+03  0.96020196881E+02 0.  0.
         23    2    1    2    0    0 -0.10498253399E+02  0.49284598880E+02 -0.45499281127E+03  0.46666252431E+03  0.90643633389E+02 0.  0.
          5    1    3    3  502    0  0.49903871450E+02 -0.23565765821E+02 -0.40607422812E+03  0.40983424753E+03  0.47000000000E+01 0. -1.
         -5    1    3    3    0  502 -0.39405618050E+02 -0.25718833059E+02 -0.17529718492E+03  0.18156391202E+03  0.47000000000E+01 0.  1.
          5    1    4    4  503    0  0.32498260391E+02  0.36421116527E+02 -0.33300072764E+03  0.33659205170E+03  0.47000000000E+01 0. -1.
         -5    1    4    4    0  503 -0.42996513790E+02  0.12863482353E+02 -0.12199208363E+03  0.13007047261E+03  0.47000000000E+01 0.  1.
<mgrwt>
<rscale>  0 0.10723668E+03</rscale>
<asrwt>0</asrwt>
<pdfrwt beam="1">  1        1 0.16110960E+00 0.10843921E+03</pdfrwt>
<pdfrwt beam="2">  1       -1 0.16689585E-02 0.10843921E+03</pdfrwt>
<totfact> 0.12486767E+04</totfact>
</mgrwt>
</event>
<event>
 8    1  0.2964543E-004  0.9904184E+02  0.7546771E-02  0.1283975E+00
         -2   -1    0    0    0  501 -0.00000000000E+00  0.00000000000E+00  0.23465400441E+02  0.23465400441E+02  0.00000000000E+00 0.  1.
          2   -1    0    0  501    0  0.00000000000E+00 -0.00000000000E+00 -0.40527755333E+03  0.40527755333E+03  0.00000000000E+00 0. -1.
         23    2    1    2    0    0  0.20406732736E+02  0.26052775965E+02 -0.19504720917E+03  0.21875260070E+03  0.93349368669E+02 0.  0.
         23    2    1    2    0    0 -0.20406732736E+02 -0.26052775965E+02 -0.18676494371E+03  0.20999035307E+03  0.90108946863E+02 0.  0.
          5    1    3    3  502    0 -0.13348485567E+02  0.41550721499E+02 -0.40462675539E+02  0.59698933289E+02  0.47000000000E+01 0. -1.
         -5    1    4    4    0  503  0.48029831753E+01  0.28008155679E+02 -0.27363781129E+02  0.39728981230E+02  0.47000000000E+01 0.  1.
          5    1    4    4  503    0 -0.25209715911E+02 -0.54060931644E+02 -0.15940116258E+03  0.17026137184E+03  0.47000000000E+01 0. -1.
         -5    1    3    3    0  502  0.33755218303E+02 -0.15497945534E+02 -0.15458453364E+03  0.15905366741E+03  0.47000000000E+01 0.  1.
<mgrwt>
<rscale>  0 0.98270869E+02</rscale>
<asrwt>0</asrwt>
<pdfrwt beam="1">  1        2 0.62350395E-01 0.99041842E+02</pdfrwt>
<pdfrwt beam="2">  1       -2 0.36100615E-02 0.99041842E+02</pdfrwt>
<totfact> 0.22893891E+04</totfact>
</mgrwt>
</event>
<event>
 8    1  0.2964543E-004  0.1189884E+03  0.7546771E-02  0.1247477E+00
         -1   -1    0    0    0  501 -0.00000000000E+00  0.00000000000E+00  0.19635228225E+03  0.19635228225E+03  0.00000000000E+00 0.  1.
          1   -1    0    0  501    0  0.00000000000E+00 -0.00000000000E+00 -0.69194957160E+02  0.69194957160E+02  0.00000000000E+00 0. -1.
         23    2    1    2    0    0  0.63471352028E+02 -0.41919137195E+02  0.79994979007E+02  0.14337863924E+03  0.91500879410E+02 0.  0.
         23    2    1    2    0    0 -0.63471352028E+02  0.41919137195E+02  0.47162346086E+02  0.12216860017E+03  0.83156800012E+02 0.  0.
          5    1    4    4  502    0 -0.20891398341E+02  0.55549347328E+01 -0.23243434061E+02  0.32088238523E+02  0.47000000000E+01 0. -1.
         -5    1    3    3    0  503  0.17843875767E+02  0.24623650395E+02  0.16443010802E+01  0.30814311402E+02  0.47000000000E+01 0.  1.
          5    1    3    3  503    0  0.45627476261E+02 -0.66542787590E+02  0.78350677926E+02  0.11256432784E+03  0.47000000000E+01 0. -1.
         -5    1    4    4    0  502 -0.42579953687E+02  0.36364202462E+02  0.70405780148E+02  0.90080361650E+02  0.47000000000E+01 0.  1.
<mgrwt>
<rscale>  0 0.11738367E+03</rscale>
<asrwt>0</asrwt>
<pdfrwt beam="1">  1        1 0.10645378E-01 0.11898839E+03</pdfrwt>
<pdfrwt beam="2">  1       -1 0.30208043E-01 0.11898839E+03</pdfrwt>
<totfact> 0.56106373E+03</totfact>
</mgrwt>
</event>
<event>
 8    1  0.2964543E-004  0.9665397E+02  0.7546771E-02  0.1288465E+00
          1   -1    0    0  501    0  0.00000000000E+00  0.00000000000E+00  0.53044046127E+02  0.53044046127E+02  0.00000000000E+00 0. -1.
         -1   -1    0    0    0  501 -0.00000000000E+00 -0.00000000000E+00 -0.27606326562E+03  0.27606326562E+03  0.00000000000E+00 0.  1.
         23    2    1    2    0    0 -0.25326198421E+02 -0.13781832202E+02 -0.11580098984E+02  0.97345207211E+02  0.92253105364E+02 0.  0.
         23    2    1    2    0    0  0.25326198421E+02  0.13781832202E+02 -0.21143912051E+03  0.23176210453E+03  0.90420220036E+02 0.  0.
          5    1    3    3  502    0 -0.55251090602E+02 -0.11764352108E+02  0.13148213194E+02  0.58189762875E+02  0.47000000000E+01 0. -1.
         -5    1    4    4    0  503  0.48761242009E+02  0.34888569759E+02 -0.16327471859E+03  0.17399883549E+03  0.47000000000E+01 0.  1.
          5    1    4    4  503    0 -0.23435043588E+02 -0.21106737557E+02 -0.48164401923E+02  0.57763269046E+02  0.47000000000E+01 0. -1.
         -5    1    3    3    0  502  0.29924892182E+02 -0.20174800939E+01 -0.24728312178E+02  0.39155444336E+02  0.47000000000E+01 0.  1.
<mgrwt>
<rscale>  0 0.96214015E+02</rscale>
<asrwt>0</asrwt>
<pdfrwt beam="1">  1        1 0.81606225E-02 0.96653974E+02</pdfrwt>
<pdfrwt beam="2">  1       -1 0.42471272E-01 0.96653974E+02</pdfrwt>
<totfact> 0.43810827E+03</totfact>
</mgrwt>
</event>
<event>
 8    1  0.2964543E-004  0.9247725E+02  0.7546771E-02  0.1297986E+00
          1   -1    0    0  501    0  0.00000000000E+00  0.00000000000E+00  0.51947748112E+03  0.51947748112E+03  0.00000000000E+00 0. -1.
         -1   -1    0    0    0  501 -0.00000000000E+00 -0.00000000000E+00 -0.23174976358E+02  0.23174976358E+02  0.00000000000E+00 0.  1.
         23    2    1    2    0    0 -0.11161315921E+01 -0.23767252320E+01  0.39583853445E+03  0.40610557280E+03  0.90701137433E+02 0.  0.
         23    2    1    2    0    0  0.11161315921E+01  0.23767252320E+01  0.10046397031E+03  0.13654688468E+03  0.92439968691E+02 0.  0.
          5    1    3    3  502    0 -0.30338523547E+01 -0.38136590306E+02  0.31762451947E+03  0.31995472984E+03  0.47000000000E+01 0. -1.
         -5    1    3    3    0  502  0.19177207626E+01  0.35759865074E+02  0.78214014982E+02  0.86150842959E+02  0.47000000000E+01 0.  1.
          5    1    4    4  503    0  0.12530133392E+02 -0.42168799766E+02  0.63338137893E+02  0.77259443619E+02  0.47000000000E+01 0. -1.
         -5    1    4    4    0  503 -0.11414001800E+02  0.44545524998E+02  0.37125832421E+02  0.59287441060E+02  0.47000000000E+01 0.  1.
<mgrwt>
<rscale>  0 0.92039627E+02</rscale>
<asrwt>0</asrwt>
<pdfrwt beam="1">  1        1 0.79919604E-01 0.92477253E+02</pdfrwt>
<pdfrwt beam="2">  1       -1 0.35653814E-02 0.92477253E+02</pdfrwt>
<totfact> 0.11540180E+04</totfact>
</mgrwt>
</event>
<event>
 8    1  0.2964543E-004  0.1912358E+03  0.7546771E-02  0.1158439E+00
         -1   -1    0    0    0  501 -0.00000000000E+00  0.00000000000E+00  0.80481834155E+02  0.80481834155E+02  0.00000000000E+00 0.  1.
          1   -1    0    0  501    0  0.00000000000E+00 -0.00000000000E+00 -0.44511214615E+03  0.44511214615E+03  0.00000000000E+00 0. -1.
         23    2    1    2    0    0  0.14994272480E+03 -0.74980984310E+02 -0.20240463095E+03  0.27845782640E+03  0.92011726030E+02 0.  0.
         23    2    1    2    0    0 -0.14994272480E+03  0.74980984310E+02 -0.16222568105E+03  0.24713615390E+03  0.81572901406E+02 0.  0.
          5    1    3    3  502    0  0.40545586870E+02  0.11368954296E+02 -0.15181737806E+02  0.45008586949E+02  0.47000000000E+01 0. -1.
         -5    1    4    4    0  503 -0.94425526698E+02  0.78959903799E+02 -0.77092670669E+02  0.14531419879E+03  0.47000000000E+01 0.  1.
          5    1    4    4  503    0 -0.55517198106E+02 -0.39789194882E+01 -0.85133010378E+02  0.10182195511E+03  0.47000000000E+01 0. -1.
         -5    1    3    3    0  502  0.10939713793E+03 -0.86349938606E+02 -0.18722289314E+03  0.23344923946E+03  0.47000000000E+01 0.  1.
<mgrwt>
<rscale>  0 0.19002487E+03</rscale>
<asrwt>0</asrwt>
<pdfrwt beam="1">  1        1 0.68478791E-01 0.19123579E+03</pdfrwt>
<pdfrwt beam="2">  1       -1 0.12381821E-01 0.19123579E+03</pdfrwt>
<totfact> 0.22721424E+03</totfact>
</mgrwt>
</event>
<event>
 8    1  0.2964543E-004  0.1016698E+03  0.7546771E-02  0.1281925E+00
         -1   -1    0    0    0  501 -0.00000000000E+00  0.00000000000E+00  0.28526807807E+03  0.28526807807E+03  0.00000000000E+00 0.  1.
          1   -1    0    0  501    0  0.00000000000E+00 -0.00000000000E+00 -0.59259883692E+02  0.59259883692E+02  0.00000000000E+00 0. -1.
         23    2    1    2    0    0  0.20843594916E+02  0.98034683643E+01  0.13639250675E+01  0.10167899616E+03  0.99026231512E+02 0.  0.
         23    2    1    2    0    0 -0.20843594916E+02 -0.98034683643E+01  0.22464426931E+03  0.24284896560E+03  0.89330895659E+02 0.  0.
          5    1    4    4  502    0  0.32301093218E+02 -0.19470123185E+02  0.89807440948E+02  0.97518781625E+02  0.47000000000E+01 0. -1.
         -5    1    4    4    0  502 -0.53144688134E+02  0.96666548204E+01  0.13483682836E+03  0.14533018398E+03  0.47000000000E+01 0.  1.
          5    1    3    3  503    0  0.24573755678E+01 -0.43365392412E+02  0.93068348601E+01  0.44668816067E+02  0.47000000000E+01 0. -1.
         -5    1    3    3    0  503  0.18386219349E+02  0.53168860777E+02 -0.79429097926E+01  0.57010180093E+02  0.47000000000E+01 0.  1.
<mgrwt>
<rscale>  0 0.99229083E+02</rscale>
<asrwt>0</asrwt>
<pdfrwt beam="1">  1        1 0.91169053E-02 0.10166985E+03</pdfrwt>
<pdfrwt beam="2">  1       -1 0.43887396E-01 0.10166985E+03</pdfrwt>
<totfact> 0.35834545E+03</totfact>
</mgrwt>
</event>
<event>
 8    1  0.2964543E-004  0.1825211E+03  0.7546771E-02  0.1170910E+00
         -4   -1    0    0    0  501 -0.00000000000E+00  0.00000000000E+00  0.14218743941E+03  0.14218743941E+03  0.00000000000E+00 0.  1.
          4   -1    0    0  501    0  0.00000000000E+00 -0.00000000000E+00 -0.22337518079E+03  0.22337518079E+03  0.00000000000E+00 0. -1.
         23    2    1    2    0    0 -0.13262371946E+03 -0.13418047817E+02 -0.87260487716E+02  0.18294056978E+03  0.89909756893E+02 0.  0.
         23    2    1    2    0    0  0.13262371946E+03  0.13418047817E+02  0.60727463362E+01  0.18262205041E+03  0.12467894802E+03 0.  0.
          5    1    4    4  502    0  0.13403972030E+03 -0.20492448028E+02 -0.23088157539E+02  0.13762899426E+03  0.47000000000E+01 0.  1.
         -5    1    3    3    0  503 -0.53848673108E+02 -0.48887995380E+02 -0.51902904079E+02  0.89474673174E+02  0.47000000000E+01 0.  1.
          5    1    3    3  503    0 -0.78775046349E+02  0.35469947563E+02 -0.35357583638E+02  0.93465896604E+02  0.47000000000E+01 0. -1.
         -5    1    4    4    0  502 -0.14160008411E+01  0.33910495845E+02  0.29160903875E+02  0.44993056149E+02  0.47000000000E+01 0.  1.
<mgrwt>
<rscale>  0 0.17682689E+03</rscale>
<asrwt>0</asrwt>
<pdfrwt beam="1">  1        4 0.34365412E-01 0.18252105E+03</pdfrwt>
<pdfrwt beam="2">  1       -4 0.21874991E-01 0.18252105E+03</pdfrwt>
<totfact> 0.27512729E+02</totfact>
</mgrwt>
</event>
<event>
 8    1  0.2964543E-004  0.9846825E+02  0.7546771E-02  0.1284522E+00
         -1   -1    0    0    0  501 -0.00000000000E+00  0.00000000000E+00  0.50096278852E+02  0.50096278852E+02  0.00000000000E+00 0.  1.
          1   -1    0    0  501    0  0.00000000000E+00 -0.00000000000E+00 -0.21880822177E+03  0.21880822177E+03  0.00000000000E+00 0. -1.
         23    2    1    2    0    0  0.88038369448E+01  0.34313851862E+02 -0.13378098772E+03  0.16611245589E+03  0.91875172666E+02 0.  0.
         23    2    1    2    0    0 -0.88038369448E+01 -0.34313851862E+02 -0.34930955198E+02  0.10279204473E+03  0.89950457777E+02 0.  0.
          5    1    4    4  502    0  0.37692960372E+02 -0.29854967598E+02 -0.89463019936E+01  0.49134556793E+02  0.47000000000E+01 0. -1.
         -5    1    4    4    0  502 -0.46496797317E+02 -0.44588842643E+01 -0.25984653204E+02  0.53657487937E+02  0.47000000000E+01 0.  1.
          5    1    3    3  503    0  0.32953874320E+02  0.16207432663E+02 -0.13019295285E+03  0.13535484357E+03  0.47000000000E+01 0. -1.
         -5    1    3    3    0  503 -0.24150037375E+02  0.18106419199E+02 -0.35880348693E+01  0.30757612320E+02  0.47000000000E+01 0.  1.
<mgrwt>
<rscale>  0 0.98016809E+02</rscale>
<asrwt>0</asrwt>
<pdfrwt beam="1">  1        1 0.33662803E-01 0.98468245E+02</pdfrwt>
<pdfrwt beam="2">  1       -1 0.77071198E-02 0.98468245E+02</pdfrwt>
<totfact> 0.10921625E+04</totfact>
</mgrwt>
</event>
<event>
 8    1  0.2964543E-004  0.9960216E+02  0.7546771E-02  0.1281908E+00
          1   -1    0    0  501    0  0.00000000000E+00  0.00000000000E+00  0.17792554650E+04  0.17792554650E+04  0.00000000000E+00 0. -1.
         -1   -1    0    0    0  501 -0.00000000000E+00 -0.00000000000E+00 -0.54987896496E+01  0.54987896496E+01  0.00000000000E+00 0.  1.
         23    2    1    2    0    0  0.33482853812E+02  0.21837148725E+02  0.90459562264E+03  0.90990482423E+03  0.89641430664E+02 0.  0.
         23    2    1    2    0    0 -0.33482853812E+02 -0.21837148725E+02  0.86916105270E+03  0.87484943041E+03  0.91228437425E+02 0.  0.
          5    1    3    3  502    0  0.10688916512E+02 -0.34891234688E+02  0.35199030142E+03  0.35390805796E+03  0.47000000000E+01 0. -1.
         -5    1    4    4    0  503 -0.19468431040E+01  0.34419569715E+02  0.32692565518E+03  0.32877191333E+03  0.47000000000E+01 0.  1.
          5    1    4    4  503    0 -0.31536010708E+02 -0.56256718440E+02  0.54223539752E+03  0.54607751708E+03  0.47000000000E+01 0. -1.
         -5    1    3    3    0  502  0.22793937301E+02  0.56728383413E+02  0.55260532122E+03  0.55599676627E+03  0.47000000000E+01 0.  1.
<mgrwt>
<rscale>  0 0.99237281E+02</rscale>
<asrwt>0</asrwt>
<pdfrwt beam="1">  1        1 0.27373115E+00 0.99602160E+02</pdfrwt>
<pdfrwt beam="2">  1       -1 0.84596906E-03 0.99602160E+02</pdfrwt>
<totfact> 0.10792118E+04</totfact>
</mgrwt>
</event>
<event>
 8    1  0.2964543E-004  0.1055722E+03  0.7546771E-02  0.1269530E+00
         -1   -1    0    0    0  501 -0.00000000000E+00  0.00000000000E+00  0.73675375574E+02  0.73675375574E+02  0.00000000000E+00 0.  1.
          1   -1    0    0  501    0  0.00000000000E+00 -0.00000000000E+00 -0.19483349321E+03  0.19483349321E+03  0.00000000000E+00 0. -1.
         23    2    1    2    0    0 -0.20757621089E+02  0.45718776163E+02 -0.12493539848E+03  0.16286910685E+03  0.91631909540E+02 0.  0.
         23    2    1    2    0    0  0.20757621089E+02 -0.45718776163E+02  0.37772808451E+01  0.10563976193E+03  0.92867680725E+02 0.  0.
          5    1    4    4  502    0  0.13691393837E+02 -0.71389088532E+02  0.18081031404E+02  0.75052447817E+02  0.47000000000E+01 0. -1.
         -5    1    3    3    0  503 -0.54038117750E+02  0.27011822043E+02 -0.49699624856E+02  0.78370271218E+02  0.47000000000E+01 0.  1.
          5    1    3    3  503    0  0.33280496660E+02  0.18706954120E+02 -0.75235773626E+02  0.84498835634E+02  0.47000000000E+01 0. -1.
         -5    1    4    4    0  502  0.70662272523E+01  0.25670312369E+02 -0.14303750559E+02  0.30587314115E+02  0.47000000000E+01 0.  1.
<mgrwt>
<rscale>  0 0.10529981E+03</rscale>
<asrwt>0</asrwt>
<pdfrwt beam="1">  1        1 0.29974383E-01 0.10557221E+03</pdfrwt>
<pdfrwt beam="2">  1       -1 0.11334673E-01 0.10557221E+03</pdfrwt>
<totfact> 0.70788752E+03</totfact>
</mgrwt>
</event>
<event>
 8    1  0.2964543E-004  0.1022860E+03  0.7546771E-02  0.1279228E+00
         -1   -1    0    0    0  501 -0.00000000000E+00  0.00000000000E+00  0.33628663896E+03  0.33628663896E+03  0.00000000000E+00 0.  1.
          1   -1    0    0  501    0  0.00000000000E+00 -0.00000000000E+00 -0.29549452113E+03  0.29549452113E+03  0.00000000000E+00 0. -1.
         23    2    1    2    0    0 -0.30645136083E+01  0.27580640122E+02  0.32041423248E+03  0.33634463326E+03  0.98449728255E+02 0.  0.
         23    2    1    2    0    0  0.30645136083E+01 -0.27580640122E+02 -0.27962211466E+03  0.29543652682E+03  0.91236678055E+02 0.  0.
          5    1    3    3  502    0  0.30872676024E+02  0.51628657743E+02  0.19602939074E+03  0.20510546667E+03  0.47000000000E+01 0. -1.
         -5    1    3    3    0  502 -0.33937189632E+02 -0.24048017622E+02  0.12438484174E+03  0.13123916659E+03  0.47000000000E+01 0.  1.
          5    1    4    4  503    0 -0.47958576773E+01 -0.59690371320E+02 -0.14992349775E+03  0.16150877951E+03  0.47000000000E+01 0.  1.
         -5    1    4    4    0  503  0.78603712855E+01  0.32109731198E+02 -0.12969861690E+03  0.13392774731E+03  0.47000000000E+01 0. -1.
<mgrwt>
<rscale>  0 0.10050968E+03</rscale>
<asrwt>0</asrwt>
<pdfrwt beam="1">  1        1 0.45460696E-01 0.10228603E+03</pdfrwt>
<pdfrwt beam="2">  1       -1 0.51736406E-01 0.10228603E+03</pdfrwt>
<totfact> 0.35053330E+02</totfact>
</mgrwt>
</event>
<event>
 8    1  0.2964543E-004  0.1137630E+03  0.7546771E-02  0.1254131E+00
          2   -1    0    0  501    0  0.00000000000E+00  0.00000000000E+00  0.27434155923E+03  0.27434155923E+03  0.00000000000E+00 0. -1.
         -2   -1    0    0    0  501 -0.00000000000E+00 -0.00000000000E+00 -0.85352270338E+02  0.85352270338E+02  0.00000000000E+00 0.  1.
         23    2    1    2    0    0 -0.23669231607E+02  0.64330014086E+02 -0.26528242284E+02  0.11599354787E+03  0.89733897010E+02 0.  0.
         23    2    1    2    0    0  0.23669231607E+02 -0.64330014086E+02  0.21551753118E+03  0.24370028170E+03  0.90793379804E+02 0.  0.
          5    1    4    4  502    0  0.55073926214E+02 -0.56513456298E+02  0.17171108522E+03  0.18903358135E+03  0.47000000000E+01 0. -1.
         -5    1    4    4    0  502 -0.31404694607E+02 -0.78165577887E+01  0.43806445958E+02  0.54666700344E+02  0.47000000000E+01 0.  1.
          5    1    3    3  503    0  0.23950491513E+02 -0.84082593756E+01 -0.73301458541E+01  0.26835534422E+02  0.47000000000E+01 0. -1.
         -5    1    3    3    0  503 -0.47619723120E+02  0.72738273462E+02 -0.19198096430E+02  0.89158013453E+02  0.47000000000E+01 0.  1.
<mgrwt>
<rscale>  0 0.11355147E+03</rscale>
<asrwt>0</asrwt>
<pdfrwt beam="1">  1        2 0.42206393E-01 0.11376300E+03</pdfrwt>
<pdfrwt beam="2">  1       -2 0.13131119E-01 0.11376300E+03</pdfrwt>
<totfact> 0.48763232E+03</totfact>
</mgrwt>
</event>
<event>
 8    1  0.2964543E-004  0.1028717E+03  0.7546771E-02  0.1275234E+00
          3   -1    0    0  501    0  0.00000000000E+00  0.00000000000E+00  0.62769939274E+03  0.62769939274E+03  0.00000000000E+00 0. -1.
         -3   -1    0    0    0  501 -0.00000000000E+00 -0.00000000000E+00 -0.30143423938E+02  0.30143423938E+02  0.00000000000E+00 0.  1.
         23    2    1    2    0    0  0.41416127312E+02 -0.29428176124E+02  0.79533141265E+02  0.13003115691E+03  0.89449807470E+02 0.  0.
         23    2    1    2    0    0 -0.41416127312E+02  0.29428176124E+02  0.51802282753E+03  0.52781165976E+03  0.87499629630E+02 0.  0.
          5    1    3    3  502    0 -0.27442589367E+02 -0.18854163031E+01  0.28474953302E+02  0.39869329958E+02  0.47000000000E+01 0. -1.
         -5    1    4    4    0  503 -0.37007496958E+01 -0.29771216668E+02  0.13392834389E+03  0.13732775462E+03  0.47000000000E+01 0.  1.
          5    1    4    4  503    0 -0.37715377617E+02  0.59199392792E+02  0.38409448364E+03  0.39048390515E+03  0.47000000000E+01 0. -1.
         -5    1    3    3    0  502  0.68858716679E+02 -0.27542759821E+02  0.51058187963E+02  0.90161826952E+02  0.47000000000E+01 0.  1.
<mgrwt>
<rscale>  0 0.10244625E+03</rscale>
<asrwt>0</asrwt>
<pdfrwt beam="1">  1        3 0.96569127E-01 0.10287167E+03</pdfrwt>
<pdfrwt beam="2">  1       -3 0.46374503E-02 0.10287167E+03</pdfrwt>
<totfact> 0.56018813E+02</totfact>
</mgrwt>
</event>
<event>
 8    1  0.2964543E-004  0.1330279E+03  0.7546771E-02  0.1225330E+00
         -1   -1    0    0    0  501 -0.00000000000E+00  0.00000000000E+00  0.10468952431E+03  0.10468952431E+03  0.00000000000E+00 0.  1.
          1   -1    0    0  501    0  0.00000000000E+00 -0.00000000000E+00 -0.18634824091E+03  0.18634824091E+03  0.00000000000E+00 0. -1.
         23    2    1    2    0    0 -0.41172210580E+02  0.54585761009E+02  0.13443767725E+02  0.12751133414E+03  0.10678787017E+03 0.  0.
         23    2    1    2    0    0  0.41172210580E+02 -0.54585761009E+02 -0.95102484329E+02  0.16352643108E+03  0.11411246605E+03 0.  0.
          5    1    4    4  502    0 -0.20594297189E+02 -0.48793054954E+02 -0.41504675761E+01  0.53331076022E+02  0.47000000000E+01 0. -1.
         -5    1    3    3    0  503  0.20896110102E+02 -0.20081411188E+02 -0.11777469598E+00  0.29360081124E+02  0.47000000000E+01 0.  1.
          5    1    3    3  503    0 -0.62068320682E+02  0.74667172196E+02  0.13561542421E+02  0.98151253018E+02  0.47000000000E+01 0. -1.
         -5    1    4    4    0  502  0.61766507769E+02 -0.57927060542E+01 -0.90952016753E+02  0.11019535506E+03  0.47000000000E+01 0.  1.
<mgrwt>
<rscale>  0 0.13144296E+03</rscale>
<asrwt>0</asrwt>
<pdfrwt beam="1">  1        1 0.28668960E-01 0.13302786E+03</pdfrwt>
<pdfrwt beam="2">  1       -1 0.16106081E-01 0.13302786E+03</pdfrwt>
<totfact> 0.44071193E+03</totfact>
</mgrwt>
</event>
<event>
 8    1  0.2964543E-004  0.9890231E+02  0.7546771E-02  0.1284650E+00
         -1   -1    0    0    0  501 -0.00000000000E+00  0.00000000000E+00  0.21092267023E+03  0.21092267023E+03  0.00000000000E+00 0.  1.
          1   -1    0    0  501    0  0.00000000000E+00 -0.00000000000E+00 -0.86151165952E+02  0.86151165952E+02  0.00000000000E+00 0. -1.
         23    2    1    2    0    0 -0.35103250154E+02 -0.69241800760E+01  0.16485523166E+03  0.19035752193E+03  0.88196124117E+02 0.  0.
         23    2    1    2    0    0  0.35103250154E+02  0.69241800760E+01 -0.40083727379E+02  0.10671631425E+03  0.92203492808E+02 0.  0.
          5    1    3    3  502    0 -0.30213833806E+02  0.38547083411E+02  0.84769012541E+02  0.98013411735E+02  0.47000000000E+01 0. -1.
         -5    1    4    4    0  503  0.12306106643E+02  0.21459002104E+02  0.25369023065E+02  0.35743619896E+02  0.47000000000E+01 0.  1.
          5    1    4    4  503    0  0.22797143511E+02 -0.14534822028E+02 -0.65452750444E+02  0.70972694357E+02  0.47000000000E+01 0. -1.
         -5    1    3    3    0  502 -0.48894163482E+01 -0.45471263487E+02  0.80086219118E+02  0.92344110196E+02  0.47000000000E+01 0.  1.
<mgrwt>
<rscale>  0 0.97957634E+02</rscale>
<asrwt>0</asrwt>
<pdfrwt beam="1">  1        1 0.13254026E-01 0.98902308E+02</pdfrwt>
<pdfrwt beam="2">  1       -1 0.32449641E-01 0.98902308E+02</pdfrwt>
<totfact> 0.36912751E+03</totfact>
</mgrwt>
</event>
<event>
 8    1  0.2964543E-004  0.1226444E+03  0.7546771E-02  0.1243177E+00
          1   -1    0    0  501    0  0.00000000000E+00  0.00000000000E+00  0.16970730495E+03  0.16970730495E+03  0.00000000000E+00 0. -1.
         -1   -1    0    0    0  501 -0.00000000000E+00 -0.00000000000E+00 -0.81929582883E+02  0.81929582883E+02  0.00000000000E+00 0.  1.
         23    2    1    2    0    0 -0.71986129111E+02 -0.19393059368E+01  0.57179464472E+02  0.13531865419E+03  0.99276801534E+02 0.  0.
         23    2    1    2    0    0  0.71986129111E+02  0.19393059368E+01  0.30598257594E+02  0.11631823364E+03  0.86069241995E+02 0.  0.
          5    1    3    3  502    0 -0.77323784744E+02  0.32547564154E+02  0.25127228698E+02  0.87702789246E+02  0.47000000000E+01 0. -1.
         -5    1    4    4    0  503  0.51163712753E+02 -0.39617865158E+02  0.23799279905E+02  0.69107137593E+02  0.47000000000E+01 0.  1.
          5    1    4    4  503    0  0.20822416358E+02  0.41557171095E+02  0.67989776887E+01  0.47211096047E+02  0.47000000000E+01 0. -1.
         -5    1    3    3    0  502  0.53376556329E+01 -0.34486870091E+02  0.32052235773E+02  0.47615864945E+02  0.47000000000E+01 0.  1.
<mgrwt>
<rscale>  0 0.11995127E+03</rscale>
<asrwt>0</asrwt>
<pdfrwt beam="1">  1        1 0.26108816E-01 0.12264439E+03</pdfrwt>
<pdfrwt beam="2">  1       -1 0.12604551E-01 0.12264439E+03</pdfrwt>
<totfact> 0.72180117E+03</totfact>
</mgrwt>
</event>
<event>
 8    1  0.2964543E-004  0.1123027E+03  0.7546771E-02  0.1266117E+00
          1   -1    0    0  501    0  0.00000000000E+00  0.00000000000E+00  0.27280718390E+03  0.27280718390E+03  0.00000000000E+00 0. -1.
         -1   -1    0    0    0  501 -0.00000000000E+00 -0.00000000000E+00 -0.51067954629E+02  0.51067954629E+02  0.00000000000E+00 0.  1.
         23    2    1    2    0    0  0.95306929972E+01 -0.52582739863E+01  0.38885657619E+02  0.11884441349E+03  0.11177395356E+03 0.  0.
         23    2    1    2    0    0 -0.95306929972E+01  0.52582739863E+01  0.18285357165E+03  0.20503072504E+03  0.92106926936E+02 0.  0.
          5    1    3    3  502    0 -0.50572910971E+02 -0.81411640713E+01  0.12280663095E+02  0.52884804647E+02  0.47000000000E+01 0. -1.
         -5    1    3    3    0  502  0.60103603968E+02  0.28828900850E+01  0.26604994525E+02  0.65959608844E+02  0.47000000000E+01 0.  1.
          5    1    4    4  503    0  0.52479030475E+01  0.37179627406E+02  0.15600806112E+03  0.16053183583E+03  0.47000000000E+01 0. -1.
         -5    1    4    4    0  503 -0.14778596045E+02 -0.31921353419E+02  0.26845510533E+02  0.44498889210E+02  0.47000000000E+01 0.  1.
<mgrwt>
<rscale>  0 0.10705789E+03</rscale>
<asrwt>0</asrwt>
<pdfrwt beam="1">  1        1 0.41970335E-01 0.11230272E+03</pdfrwt>
<pdfrwt beam="2">  1       -1 0.78566085E-02 0.11230272E+03</pdfrwt>
<totfact> 0.81850002E+03</totfact>
</mgrwt>
</event>
<event>
 8    1  0.2964543E-004  0.1221232E+03  0.7546771E-02  0.1252847E+00
         -3   -1    0    0    0  501 -0.00000000000E+00  0.00000000000E+00  0.90336664896E+02  0.90336664896E+02  0.00000000000E+00 0.  1.
          3   -1    0    0  501    0  0.00000000000E+00 -0.00000000000E+00 -0.15919614749E+03  0.15919614749E+03  0.00000000000E+00 0. -1.
         23    2    1    2    0    0  0.17317497717E+00  0.68381825222E+01 -0.92212391745E+02  0.15302683050E+03  0.12193151739E+03 0.  0.
         23    2    1    2    0    0 -0.17317497717E+00 -0.68381825222E+01  0.23352909149E+02  0.96505981885E+02  0.93387662162E+02 0.  0.
          5    1    3    3  502    0 -0.45306930312E+02 -0.33866309597E+02 -0.64237833012E+02  0.85721841150E+02  0.47000000000E+01 0. -1.
         -5    1    4    4    0  503  0.19546403827E+02  0.38209354988E+02  0.18146120452E+02  0.46833624658E+02  0.47000000000E+01 0.  1.
          5    1    4    4  503    0 -0.19719578804E+02 -0.45047537510E+02  0.52067886964E+01  0.49672357227E+02  0.47000000000E+01 0. -1.
         -5    1    3    3    0  502  0.45480105289E+02  0.40704492119E+02 -0.27974558733E+02  0.67304989355E+02  0.47000000000E+01 0.  1.
<mgrwt>
<rscale>  0 0.11427773E+03</rscale>
<asrwt>0</asrwt>
<pdfrwt beam="1">  1        3 0.24491715E-01 0.12212324E+03</pdfrwt>
<pdfrwt beam="2">  1       -3 0.13897949E-01 0.12212324E+03</pdfrwt>
<totfact> 0.14895132E+03</totfact>
</mgrwt>
</event>
<event>
 8    1  0.2964543E-004  0.9113663E+02  0.7546771E-02  0.1303528E+00
          2   -1    0    0  501    0  0.00000000000E+00  0.00000000000E+00  0.31330565074E+02  0.31330565074E+02  0.00000000000E+00 0. -1.
         -2   -1    0    0    0  501 -0.00000000000E+00 -0.00000000000E+00 -0.27151739298E+03  0.27151739298E+03  0.00000000000E+00 0.  1.
         23    2    1    2    0    0  0.28982184912E+01 -0.11621438531E+02 -0.73308962270E+02  0.11270562159E+03  0.84763763985E+02 0.  0.
         23    2    1    2    0    0 -0.28982184912E+01  0.11621438531E+02 -0.16687786563E+03  0.19014233646E+03  0.90346159701E+02 0.  0.
          5    1    3    3  502    0 -0.22192036642E+02  0.20095611247E+02 -0.17258336426E+01  0.30354383266E+02  0.47000000000E+01 0. -1.
         -5    1    4    4    0  503  0.41664098507E+02  0.11364450342E+02 -0.58495514248E+02  0.72861944958E+02  0.47000000000E+01 0.  1.
          5    1    4    4  503    0 -0.44562316999E+02  0.25698818899E+00 -0.10838235138E+03  0.11728039150E+03  0.47000000000E+01 0. -1.
         -5    1    3    3    0  502  0.25090255133E+02 -0.31717049778E+02 -0.71583128628E+02  0.82351238324E+02  0.47000000000E+01 0.  1.
<mgrwt>
<rscale>  0 0.89721296E+02</rscale>
<asrwt>0</asrwt>
<pdfrwt beam="1">  1        2 0.48200868E-02 0.91136634E+02</pdfrwt>
<pdfrwt beam="2">  1       -2 0.41771908E-01 0.91136634E+02</pdfrwt>
<totfact> 0.81833162E+03</totfact>
</mgrwt>
</event>
<event>
 8    1  0.2964543E-004  0.1043717E+03  0.7546771E-02  0.1274000E+00
         -1   -1    0    0    0  501 -0.00000000000E+00  0.00000000000E+00  0.37361609248E+02  0.37361609248E+02  0.00000000000E+00 0.  1.
          1   -1    0    0  501    0  0.00000000000E+00 -0.00000000000E+00 -0.27873264804E+03  0.27873264804E+03  0.00000000000E+00 0. -1.
         23    2    1    2    0    0 -0.36809880161E+02 -0.32276890767E+02 -0.12892387366E+03  0.16267386206E+03  0.86282415605E+02 0.  0.
         23    2    1    2    0    0  0.36809880161E+02  0.32276890767E+02 -0.11244716513E+03  0.15342039523E+03  0.92177479741E+02 0.  0.
          5    1    3    3  502    0  0.19202698455E+02  0.57322826549E+01 -0.69477870523E+02  0.72462867628E+02  0.47000000000E+01 0. -1.
         -5    1    4    4    0  503  0.35414219992E+02 -0.23932567923E+02 -0.26189410074E+02  0.50347889579E+02  0.47000000000E+01 0.  1.
          5    1    4    4  503    0  0.13956601684E+01  0.56209458690E+02 -0.86257755060E+02  0.10307250565E+03  0.47000000000E+01 0. -1.
         -5    1    3    3    0  502 -0.56012578616E+02 -0.38009173421E+02 -0.59446003140E+02  0.90210994434E+02  0.47000000000E+01 0.  1.
<mgrwt>
<rscale>  0 0.10305506E+03</rscale>
<asrwt>0</asrwt>
<pdfrwt beam="1">  1        1 0.42881945E-01 0.10437170E+03</pdfrwt>
<pdfrwt beam="2">  1       -1 0.57479400E-02 0.10437170E+03</pdfrwt>
<totfact> 0.12614135E+04</totfact>
</mgrwt>
</event>
<event>
 8    1  0.2964543E-004  0.1027831E+03  0.7546771E-02  0.1277235E+00
          1   -1    0    0  501    0  0.00000000000E+00  0.00000000000E+00  0.75793487795E+03  0.75793487795E+03  0.00000000000E+00 0. -1.
         -1   -1    0    0    0  501 -0.00000000000E+00 -0.00000000000E+00 -0.43184291869E+02  0.43184291869E+02  0.00000000000E+00 0.  1.
         23    2    1    2    0    0 -0.30778122615E+01  0.38256497795E+02  0.21085764709E+02  0.99880807759E+02  0.89769336265E+02 0.  0.
         23    2    1    2    0    0  0.30778122615E+01 -0.38256497795E+02  0.69366482138E+03  0.70123836206E+03  0.95348431894E+02 0.  0.
          5    1    4    4  502    0  0.36583907775E+02 -0.52953287313E+02  0.49366867571E+03  0.49786874206E+03  0.47000000000E+01 0. -1.
         -5    1    3    3    0  503  0.36285699601E+02  0.15707287698E+02 -0.14139555831E+02  0.42253850966E+02  0.47000000000E+01 0.  1.
          5    1    3    3  503    0 -0.39363511862E+02  0.22549210097E+02  0.35225320540E+02  0.57626956793E+02  0.47000000000E+01 0. -1.
         -5    1    4    4    0  502 -0.33506095513E+02  0.14696789518E+02  0.19999614567E+03  0.20336962000E+03  0.47000000000E+01 0.  1.
<mgrwt>
<rscale>  0 0.10146977E+03</rscale>
<asrwt>0</asrwt>
<pdfrwt beam="1">  1        1 0.11660536E+00 0.10278305E+03</pdfrwt>
<pdfrwt beam="2">  1       -1 0.66437378E-02 0.10278305E+03</pdfrwt>
<totfact> 0.27845152E+03</totfact>
</mgrwt>
</event>
<event>
 8    1  0.2964543E-004  0.1162603E+03  0.7546771E-02  0.1250005E+00
          3   -1    0    0  501    0  0.00000000000E+00  0.00000000000E+00  0.79091316933E+03  0.79091316933E+03  0.00000000000E+00 0. -1.
         -3   -1    0    0    0  501 -0.00000000000E+00 -0.00000000000E+00 -0.32062235212E+02  0.32062235212E+02  0.00000000000E+00 0.  1.
         23    2    1    2    0    0 -0.36459355596E+02  0.58482660184E+02  0.66132969405E+03  0.67122943586E+03  0.91882997225E+02 0.  0.
         23    2    1    2    0    0  0.36459355596E+02 -0.58482660184E+02  0.97521240066E+02  0.15174596868E+03  0.93631942166E+02 0.  0.
          5    1    3    3  502    0 -0.56821955664E+02  0.49492743148E+01  0.34758985059E+03  0.35226981732E+03  0.47000000000E+01 0. -1.
         -5    1    4    4    0  503  0.21491786056E+02 -0.23264732831E+02 -0.13102472534E+02  0.34596379118E+02  0.47000000000E+01 0.  1.
          5    1    4    4  503    0  0.14967569540E+02 -0.35217927354E+02  0.11062371260E+03  0.11714958956E+03  0.47000000000E+01 0. -1.
         -5    1    3    3    0  502  0.20362600068E+02  0.53533385869E+02  0.31373984346E+03  0.31895961854E+03  0.47000000000E+01 0.  1.
<mgrwt>
<rscale>  0 0.11590769E+03</rscale>
<asrwt>0</asrwt>
<pdfrwt beam="1">  1        3 0.12167894E+00 0.11626025E+03</pdfrwt>
<pdfrwt beam="2">  1       -3 0.49326521E-02 0.11626025E+03</pdfrwt>
<totfact> 0.30493966E+02</totfact>
</mgrwt>
</event>
<event>
 8    1  0.2964543E-004  0.1039027E+03  0.7546771E-02  0.1275648E+00
         -1   -1    0    0    0  501 -0.00000000000E+00  0.00000000000E+00  0.27955290507E+02  0.27955290507E+02  0.00000000000E+00 0.  1.
          1   -1    0    0  501    0  0.00000000000E+00 -0.00000000000E+00 -0.36445810073E+03  0.36445810073E+03  0.00000000000E+00 0. -1.
         23    2    1    2    0    0 -0.30432061162E+02  0.13596882069E+01 -0.18811431373E+03  0.21490177822E+03  0.99336902279E+02 0.  0.
         23    2    1    2    0    0  0.30432061162E+02 -0.13596882069E+01 -0.14838849650E+03  0.17751161302E+03  0.92537926090E+02 0.  0.
          5    1    3    3  502    0 -0.57806941295E+02 -0.71580884115E+01 -0.17205113400E+03  0.18170460479E+03  0.47000000000E+01 0. -1.
         -5    1    3    3    0  502  0.27374880132E+02  0.85177766185E+01 -0.16063179729E+02  0.33197173430E+02  0.47000000000E+01 0.  1.
          5    1    4    4  503    0  0.64688586555E+01  0.29591887316E+02 -0.79824622898E+01  0.31675473658E+02  0.47000000000E+01 0. -1.
         -5    1    4    4    0  503  0.23963202507E+02 -0.30951575523E+02 -0.14040603421E+03  0.14583613936E+03  0.47000000000E+01 0.  1.
<mgrwt>
<rscale>  0 0.10224346E+03</rscale>
<asrwt>0</asrwt>
<pdfrwt beam="1">  1        1 0.56070471E-01 0.10390274E+03</pdfrwt>
<pdfrwt beam="2">  1       -1 0.43008144E-02 0.10390274E+03</pdfrwt>
<totfact> 0.13879281E+04</totfact>
</mgrwt>
</event>
<event>
 8    1  0.2964543E-004  0.1140441E+03  0.7546771E-02  0.1253450E+00
          3   -1    0    0  501    0  0.00000000000E+00  0.00000000000E+00  0.24399858411E+03  0.24399858411E+03  0.00000000000E+00 0. -1.
         -3   -1    0    0    0  501 -0.00000000000E+00 -0.00000000000E+00 -0.58960214854E+02  0.58960214854E+02  0.00000000000E+00 0.  1.
         23    2    1    2    0    0 -0.52455687981E+01  0.69988549345E+02  0.44930357106E+02  0.12257568223E+03  0.89889642631E+02 0.  0.
         23    2    1    2    0    0  0.52455687981E+01 -0.69988549345E+02  0.14010801215E+03  0.18038311674E+03  0.89341483666E+02 0.  0.
          5    1    3    3  502    0 -0.12968456066E+02 -0.19502197599E+02  0.64424326107E+01  0.24740887249E+02  0.47000000000E+01 0. -1.
         -5    1    4    4    0  503 -0.75657182812E+01  0.19928773144E+02  0.36422497329E+02  0.42462741360E+02  0.47000000000E+01 0.  1.
          5    1    4    4  503    0  0.12811287079E+02 -0.89917322489E+02  0.10368551482E+03  0.13792037537E+03  0.47000000000E+01 0. -1.
         -5    1    3    3    0  502  0.77228872676E+01  0.89490746944E+02  0.38487924495E+02  0.97834794978E+02  0.47000000000E+01 0.  1.
<mgrwt>
<rscale>  0 0.11393608E+03</rscale>
<asrwt>0</asrwt>
<pdfrwt beam="1">  1        3 0.37538243E-01 0.11404412E+03</pdfrwt>
<pdfrwt beam="2">  1       -3 0.90708024E-02 0.11404412E+03</pdfrwt>
<totfact> 0.13600122E+03</totfact>
</mgrwt>
</event>
<event>
 8    1  0.2964543E-004  0.9793330E+02  0.7546771E-02  0.1286503E+00
         -1   -1    0    0    0  501 -0.00000000000E+00  0.00000000000E+00  0.28638087327E+02  0.28638087327E+02  0.00000000000E+00 0.  1.
          1   -1    0    0  501    0  0.00000000000E+00 -0.00000000000E+00 -0.49320916821E+03  0.49320916821E+03  0.00000000000E+00 0. -1.
         23    2    1    2    0    0  0.14366988039E+02  0.18618186905E+02 -0.38259668911E+03  0.39413377600E+03  0.91696017582E+02 0.  0.
         23    2    1    2    0    0 -0.14366988039E+02 -0.18618186905E+02 -0.81974391772E+02  0.12771347953E+03  0.95067790121E+02 0.  0.
          5    1    4    4  502    0  0.18695654925E+02  0.31858091024E+02 -0.27568865577E+02  0.46331391367E+02  0.47000000000E+01 0. -1.
         -5    1    3    3    0  503 -0.43761876508E+01 -0.28541576796E+02 -0.52282614439E+02  0.59911054046E+02  0.47000000000E+01 0.  1.
          5    1    3    3  503    0  0.18743175690E+02  0.47159763701E+02 -0.33031407467E+03  0.33422272196E+03  0.47000000000E+01 0. -1.
         -5    1    4    4    0  502 -0.33062642964E+02 -0.50476277930E+02 -0.54405526195E+02  0.81382088164E+02  0.47000000000E+01 0.  1.
<mgrwt>
<rscale>  0 0.97105453E+02</rscale>
<asrwt>0</asrwt>
<pdfrwt beam="1">  1        1 0.75878337E-01 0.97933304E+02</pdfrwt>
<pdfrwt beam="2">  1       -1 0.44058594E-02 0.97933304E+02</pdfrwt>
<totfact> 0.91122902E+03</totfact>
</mgrwt>
</event>
<event>
 8    1  0.2964543E-004  0.3670578E+03  0.7546771E-02  0.1055838E+00
          2   -1    0    0  501    0  0.00000000000E+00  0.00000000000E+00  0.31269567166E+03  0.31269567166E+03  0.00000000000E+00 0. -1.
         -2   -1    0    0    0  501 -0.00000000000E+00 -0.00000000000E+00 -0.49358225576E+03  0.49358225576E+03  0.00000000000E+00 0.  1.
         23    2    1    2    0    0  0.35392985460E+03  0.33593646532E+02 -0.23434960220E+03  0.43548957033E+03  0.91304735676E+02 0.  0.
         23    2    1    2    0    0 -0.35392985460E+03 -0.33593646532E+02  0.53463018089E+02  0.37078835709E+03  0.90723957060E+02 0.  0.
          5    1    4    4  502    0 -0.34031147483E+03 -0.14054872089E+02  0.59455523527E+02  0.34578387557E+03  0.47000000000E+01 0. -1.
         -5    1    4    4    0  502 -0.13618379770E+02 -0.19538774443E+02 -0.59925054377E+01  0.25004481513E+02  0.47000000000E+01 0.  1.
          5    1    3    3  503    0  0.49438738780E+02 -0.21632795378E+02 -0.15196170819E+02  0.56259935438E+02  0.47000000000E+01 0.  1.
         -5    1    3    3    0  503  0.30449111582E+03  0.55226441909E+02 -0.21915343138E+03  0.37922963490E+03  0.47000000000E+01 0.  1.
<mgrwt>
<rscale>  0 0.36702179E+03</rscale>
<asrwt>0</asrwt>
<pdfrwt beam="1">  1        2 0.48107027E-01 0.36705780E+03</pdfrwt>
<pdfrwt beam="2">  1       -2 0.75935731E-01 0.36705780E+03</pdfrwt>
<totfact> 0.16725505E+02</totfact>
</mgrwt>
</event>
<event>
 8    1  0.2964543E-004  0.1316734E+03  0.7546771E-02  0.1226715E+00
         -2   -1    0    0    0  501 -0.00000000000E+00  0.00000000000E+00  0.19788625117E+02  0.19788625117E+02  0.00000000000E+00 0.  1.
          2   -1    0    0  501    0  0.00000000000E+00 -0.00000000000E+00 -0.96748524969E+03  0.96748524969E+03  0.00000000000E+00 0. -1.
         23    2    1    2    0    0  0.15230428115E+02 -0.93360615137E+02 -0.64160538838E+03  0.65406265293E+03  0.84807482920E+02 0.  0.
         23    2    1    2    0    0 -0.15230428115E+02  0.93360615137E+02 -0.30609123620E+03  0.33321122188E+03  0.91595322542E+02 0.  0.
          5    1    4    4  502    0 -0.46022218386E+02  0.56186833355E+02 -0.11527679217E+03  0.13632987069E+03  0.47000000000E+01 0. -1.
         -5    1    3    3    0  503 -0.24100315114E+02 -0.51765149955E+02 -0.18002141023E+03  0.18891864407E+03  0.47000000000E+01 0.  1.
          5    1    3    3  503    0  0.39330743229E+02 -0.41595465182E+02 -0.46158397816E+03  0.46514400886E+03  0.47000000000E+01 0. -1.
         -5    1    4    4    0  502  0.30791790271E+02  0.37173781782E+02 -0.19081444403E+03  0.19688135120E+03  0.47000000000E+01 0.  1.
<mgrwt>
<rscale>  0 0.13050074E+03</rscale>
<asrwt>0</asrwt>
<pdfrwt beam="1">  1        2 0.14884384E+00 0.13167336E+03</pdfrwt>
<pdfrwt beam="2">  1       -2 0.30444049E-02 0.13167336E+03</pdfrwt>
<totfact> 0.10948025E+04</totfact>
</mgrwt>
</event>
<event>
 8    1  0.2964543E-004  0.1119536E+03  0.7546771E-02  0.1257880E+00
         -1   -1    0    0    0  501 -0.00000000000E+00  0.00000000000E+00  0.90840360218E+02  0.90840360218E+02  0.00000000000E+00 0.  1.
          1   -1    0    0  501    0  0.00000000000E+00 -0.00000000000E+00 -0.17232982389E+03  0.17232982389E+03  0.00000000000E+00 0. -1.
         23    2    1    2    0    0 -0.47907491995E+02 -0.38026292501E+02  0.19727603267E+02  0.11367845848E+03  0.93768261591E+02 0.  0.
         23    2    1    2    0    0  0.47907491995E+02  0.38026292501E+02 -0.10121706694E+03  0.14949172563E+03  0.91442630541E+02 0.  0.
          5    1    4    4  502    0  0.20864489466E+02  0.50614808944E+02 -0.10553920497E+03  0.11898655215E+03  0.47000000000E+01 0. -1.
         -5    1    3    3    0  503 -0.59468388888E+02 -0.55208682868E+02  0.33985421773E+02  0.88099868525E+02  0.47000000000E+01 0.  1.
          5    1    3    3  503    0  0.11560896893E+02  0.17182390367E+02 -0.14257818506E+02  0.25578589958E+02  0.47000000000E+01 0. -1.
         -5    1    4    4    0  502  0.27043002529E+02 -0.12588516443E+02  0.43221380306E+01  0.30505173483E+02  0.47000000000E+01 0.  1.
<mgrwt>
<rscale>  0 0.11146531E+03</rscale>
<asrwt>0</asrwt>
<pdfrwt beam="1">  1        1 0.26512280E-01 0.11195362E+03</pdfrwt>
<pdfrwt beam="2">  1       -1 0.13975440E-01 0.11195362E+03</pdfrwt>
<totfact> 0.59966411E+03</totfact>
</mgrwt>
</event>
<event>
 8    1  0.2964543E-004  0.9335151E+02  0.7546771E-02  0.1299759E+00
          3   -1    0    0  501    0  0.00000000000E+00  0.00000000000E+00  0.44115142021E+03  0.44115142021E+03  0.00000000000E+00 0. -1.
         -3   -1    0    0    0  501 -0.00000000000E+00 -0.00000000000E+00 -0.27436899034E+02  0.27436899034E+02  0.00000000000E+00 0.  1.
         23    2    1    2    0    0  0.14568459680E+02 -0.20960351087E+01  0.34952680432E+03  0.36177823590E+03  0.92183901268E+02 0.  0.
         23    2    1    2    0    0 -0.14568459680E+02  0.20960351087E+01  0.64187716857E+02  0.10681008334E+03  0.84093385756E+02 0.  0.
          5    1    4    4  502    0 -0.19532556238E+02 -0.31993684905E+02  0.61190120581E+02  0.71912707387E+02  0.47000000000E+01 0. -1.
         -5    1    4    4    0  502  0.49640965577E+01  0.34089720014E+02  0.29975962759E+01  0.34897375957E+02  0.47000000000E+01 0.  1.
          5    1    3    3  503    0 -0.26051989320E+02 -0.32087557775E+02  0.13106605992E+03  0.13750897998E+03  0.47000000000E+01 0. -1.
         -5    1    3    3    0  503  0.40620449000E+02  0.29991522666E+02  0.21846074440E+03  0.22426925592E+03  0.47000000000E+01 0.  1.
<mgrwt>
<rscale>  0 0.91289228E+02</rscale>
<asrwt>0</asrwt>
<pdfrwt beam="1">  1        3 0.67869444E-01 0.93351513E+02</pdfrwt>
<pdfrwt beam="2">  1       -3 0.42210617E-02 0.93351513E+02</pdfrwt>
<totfact> 0.13648916E+03</totfact>
</mgrwt>
</event>
<event>
 8    1  0.2964543E-004  0.1046752E+03  0.7546771E-02  0.1271472E+00
         -4   -1    0    0    0  501 -0.00000000000E+00  0.00000000000E+00  0.27331196976E+03  0.27331196976E+03  0.00000000000E+00 0.  1.
          4   -1    0    0  501    0  0.00000000000E+00 -0.00000000000E+00 -0.66623730326E+02  0.66623730326E+02  0.00000000000E+00 0. -1.
         23    2    1    2    0    0  0.48486182495E+02  0.13914204060E+02  0.21128144293E+03  0.23515980124E+03  0.90087563087E+02 0.  0.
         23    2    1    2    0    0 -0.48486182495E+02 -0.13914204060E+02 -0.45932035000E+01  0.10477589885E+03  0.91719008353E+02 0.  0.
          5    1    4    4  502    0 -0.66257228428E+02 -0.11678537165E+00 -0.27897395057E+02  0.72044351678E+02  0.47000000000E+01 0. -1.
         -5    1    4    4    0  502  0.17771045932E+02 -0.13797418688E+02  0.23304191557E+02  0.32731547169E+02  0.47000000000E+01 0.  1.
          5    1    3    3  503    0  0.11608065716E+02 -0.37634652524E+02  0.83911346108E+02  0.92813351766E+02  0.47000000000E+01 0. -1.
         -5    1    3    3    0  503  0.36878116780E+02  0.51548856584E+02  0.12737009683E+03  0.14234644947E+03  0.47000000000E+01 0.  1.
<mgrwt>
<rscale>  0 0.10431670E+03</rscale>
<asrwt>0</asrwt>
<pdfrwt beam="1">  1        4 0.10249805E-01 0.10467517E+03</pdfrwt>
<pdfrwt beam="2">  1       -4 0.42047995E-01 0.10467517E+03</pdfrwt>
<totfact> 0.62816300E+02</totfact>
</mgrwt>
</event>
<event>
 8    1  0.2964543E-004  0.9229011E+02  0.7546771E-02  0.1304610E+00
          1   -1    0    0  501    0  0.00000000000E+00  0.00000000000E+00  0.15469787615E+03  0.15469787615E+03  0.00000000000E+00 0. -1.
         -1   -1    0    0    0  501 -0.00000000000E+00 -0.00000000000E+00 -0.67223112461E+02  0.67223112461E+02  0.00000000000E+00 0.  1.
         23    2    1    2    0    0 -0.18282983740E+02  0.27151758875E+02 -0.12755118241E+02  0.93167367070E+02  0.86290090630E+02 0.  0.
         23    2    1    2    0    0  0.18282983740E+02 -0.27151758875E+02  0.10022988193E+03  0.12875362154E+03  0.73891679665E+02 0.  0.
          5    1    4    4  502    0 -0.18181859886E+02 -0.16869643850E+02  0.83209084512E+02  0.86954049117E+02  0.47000000000E+01 0. -1.
         -5    1    3    3    0  503  0.71177305106E+01  0.39813730370E+02  0.23400980497E+02  0.46962656460E+02  0.47000000000E+01 0.  1.
          5    1    3    3  503    0 -0.25400714251E+02 -0.12661971495E+02 -0.36156098738E+02  0.46204710610E+02  0.47000000000E+01 0. -1.
         -5    1    4    4    0  502  0.36464843626E+02 -0.10282115025E+02  0.17020797418E+02  0.41799572424E+02  0.47000000000E+01 0.  1.
<mgrwt>
<rscale>  0 0.89277644E+02</rscale>
<asrwt>0</asrwt>
<pdfrwt beam="1">  1        1 0.23799673E-01 0.92290115E+02</pdfrwt>
<pdfrwt beam="2">  1       -1 0.10342017E-01 0.92290115E+02</pdfrwt>
<totfact> 0.10706055E+04</totfact>
</mgrwt>
</event>
<event>
 8    1  0.2964543E-004  0.1058873E+03  0.7546771E-02  0.1269659E+00
          3   -1    0    0  501    0  0.00000000000E+00  0.00000000000E+00  0.49949075782E+02  0.49949075782E+02  0.00000000000E+00 0. -1.
         -3   -1    0    0    0  501 -0.00000000000E+00 -0.00000000000E+00 -0.24167157865E+03  0.24167157865E+03  0.00000000000E+00 0.  1.
         23    2    1    2    0    0 -0.45638484917E+01 -0.52527989729E+02 -0.52296059558E+02  0.11809740746E+03  0.91826474313E+02 0.  0.
         23    2    1    2    0    0  0.45638484917E+01  0.52527989729E+02 -0.13942644331E+03  0.17352324698E+03  0.88828856397E+02 0.  0.
          5    1    4    4  502    0 -0.20235654258E+02  0.69068237589E+02 -0.86765013856E+02  0.11282801415E+03  0.47000000000E+01 0. -1.
         -5    1    3    3    0  503 -0.40806613810E+02 -0.54918723305E+02 -0.40367995072E+02  0.79579588628E+02  0.47000000000E+01 0.  1.
          5    1    3    3  503    0  0.36242765318E+02  0.23907335763E+01 -0.11928064486E+02  0.38517818829E+02  0.47000000000E+01 0. -1.
         -5    1    4    4    0  502  0.24799502750E+02 -0.16540247860E+02 -0.52661429458E+02  0.60695232831E+02  0.47000000000E+01 0.  1.
<mgrwt>
<rscale>  0 0.10523408E+03</rscale>
<asrwt>0</asrwt>
<pdfrwt beam="1">  1        3 0.76844733E-02 0.10588730E+03</pdfrwt>
<pdfrwt beam="2">  1       -3 0.37180243E-01 0.10588730E+03</pdfrwt>
<totfact> 0.17880517E+03</totfact>
</mgrwt>
</event>
<event>
 8    1  0.2964543E-004  0.9348710E+02  0.7546771E-02  0.1299590E+00
         -3   -1    0    0    0  501 -0.00000000000E+00  0.00000000000E+00  0.93494497958E+01  0.93494497958E+01  0.00000000000E+00 0.  1.
          3   -1    0    0  501    0  0.00000000000E+00 -0.00000000000E+00 -0.87862062193E+03  0.87862062193E+03  0.00000000000E+00 0. -1.
         23    2    1    2    0    0 -0.24874612846E+02 -0.59489992192E+01 -0.34156613750E+03  0.35204802362E+03  0.81340320211E+02 0.  0.
         23    2    1    2    0    0  0.24874612846E+02  0.59489992192E+01 -0.52770503463E+03  0.53592204811E+03  0.89920526644E+02 0.  0.
          5    1    3    3  502    0  0.24635966459E+02 -0.43738144719E+00 -0.20637606115E+03  0.20789490317E+03  0.47000000000E+01 0. -1.
         -5    1    4    4    0  503  0.10855708002E+02 -0.41677760105E+02 -0.22425727043E+03  0.22840379906E+03  0.47000000000E+01 0.  1.
          5    1    4    4  503    0  0.14018904844E+02  0.47626759325E+02 -0.30344776420E+03  0.30751824905E+03  0.47000000000E+01 0. -1.
         -5    1    3    3    0  502 -0.49510579305E+02 -0.55116177720E+01 -0.13519007635E+03  0.14415312045E+03  0.47000000000E+01 0.  1.
<mgrwt>
<rscale>  0 0.91360495E+02</rscale>
<asrwt>0</asrwt>
<pdfrwt beam="1">  1        3 0.13517236E+00 0.93487101E+02</pdfrwt>
<pdfrwt beam="2">  1       -3 0.14383773E-02 0.93487101E+02</pdfrwt>
<totfact> 0.15127189E+03</totfact>
</mgrwt>
</event>
<event>
 8    1  0.2964543E-004  0.1076963E+03  0.7546771E-02  0.1266427E+00
          1   -1    0    0  501    0  0.00000000000E+00  0.00000000000E+00  0.19334180727E+03  0.19334180727E+03  0.00000000000E+00 0. -1.
         -1   -1    0    0    0  501 -0.00000000000E+00 -0.00000000000E+00 -0.58260827606E+02  0.58260827606E+02  0.00000000000E+00 0.  1.
         23    2    1    2    0    0 -0.97426162777E+01  0.49964939866E+02  0.64201697718E+02  0.12267485432E+03  0.91300865844E+02 0.  0.
         23    2    1    2    0    0  0.97426162777E+01 -0.49964939866E+02  0.70879281946E+02  0.12892778056E+03  0.94905670025E+02 0.  0.
          5    1    4    4  502    0 -0.17735392078E+02  0.21785945702E+02  0.31485548770E+02  0.42457052931E+02  0.47000000000E+01 0. -1.
         -5    1    4    4    0  502  0.27478008355E+02 -0.71750885567E+02  0.39393733176E+02  0.86470727627E+02  0.47000000000E+01 0.  1.
          5    1    3    3  503    0 -0.39905733071E+02 -0.31302483619E+01  0.40111274979E+02  0.56861853357E+02  0.47000000000E+01 0.  1.
         -5    1    3    3    0  503  0.30163116793E+02  0.53095188227E+02  0.24090422740E+02  0.65813000960E+02  0.47000000000E+01 0. -1.
<mgrwt>
<rscale>  0 0.10689678E+03</rscale>
<asrwt>0</asrwt>
<pdfrwt beam="1">  1        1 0.29744893E-01 0.10769633E+03</pdfrwt>
<pdfrwt beam="2">  1       -1 0.89632043E-02 0.10769633E+03</pdfrwt>
<totfact> 0.10220722E+04</totfact>
</mgrwt>
</event>
<event>
 8    1  0.2964543E-004  0.1263718E+03  0.7546771E-02  0.1233451E+00
          1   -1    0    0  501    0  0.00000000000E+00  0.00000000000E+00  0.10388398596E+03  0.10388398596E+03  0.00000000000E+00 0. -1.
         -1   -1    0    0    0  501 -0.00000000000E+00 -0.00000000000E+00 -0.20399154561E+03  0.20399154561E+03  0.00000000000E+00 0.  1.
         23    2    1    2    0    0 -0.35990904160E+02 -0.78482520475E+02  0.27758012691E+02  0.12809946802E+03  0.90466099925E+02 0.  0.
         23    2    1    2    0    0  0.35990904160E+02  0.78482520475E+02 -0.12786557235E+03  0.17977606355E+03  0.92276634263E+02 0.  0.
          5    1    4    4  502    0  0.42864976226E+02  0.14363293766E+00 -0.23799502896E+02  0.49253762854E+02  0.47000000000E+01 0. -1.
         -5    1    4    4    0  502 -0.68740720656E+01  0.78338887538E+02 -0.10406606945E+03  0.13052230070E+03  0.47000000000E+01 0.  1.
          5    1    3    3  503    0  0.82271436238E+01 -0.57868763940E+02  0.47296189851E+02  0.75335909808E+02  0.47000000000E+01 0. -1.
         -5    1    3    3    0  503 -0.44218047784E+02 -0.20613756536E+02 -0.19538177161E+02  0.52763558211E+02  0.47000000000E+01 0.  1.
<mgrwt>
<rscale>  0 0.12604151E+03</rscale>
<asrwt>0</asrwt>
<pdfrwt beam="1">  1        1 0.15982152E-01 0.12637179E+03</pdfrwt>
<pdfrwt beam="2">  1       -1 0.31383314E-01 0.12637179E+03</pdfrwt>
<totfact> 0.31124262E+03</totfact>
</mgrwt>
</event>
<event>
 8    1  0.2964543E-004  0.1254372E+03  0.7546771E-02  0.1235685E+00
          2   -1    0    0  501    0  0.00000000000E+00  0.00000000000E+00  0.24606921365E+03  0.24606921365E+03  0.00000000000E+00 0.  1.
         -2   -1    0    0    0  501 -0.00000000000E+00 -0.00000000000E+00 -0.64139436139E+02  0.64139436139E+02  0.00000000000E+00 0. -1.
         23    2    1    2    0    0 -0.77627707223E+02 -0.33007612021E+02  0.11855570966E+03  0.17259768144E+03  0.92838246248E+02 0.  0.
         23    2    1    2    0    0  0.77627707223E+02  0.33007612021E+02  0.63374067851E+02  0.13761096835E+03  0.88345587060E+02 0.  0.
          5    1    3    3  502    0 -0.31659606320E+02 -0.84595219535E+00 -0.89254438990E+01  0.33238529694E+02  0.47000000000E+01 0. -1.
         -5    1    4    4    0  503  0.19899149480E+02 -0.24914148568E+02  0.42027239664E+02  0.52962909877E+02  0.47000000000E+01 0.  1.
          5    1    4    4  503    0  0.57728557743E+02  0.57921760589E+02  0.21346828187E+02  0.84648058469E+02  0.47000000000E+01 0. -1.
         -5    1    3    3    0  502 -0.45968100903E+02 -0.32161659826E+02  0.12748115356E+03  0.13935915175E+03  0.47000000000E+01 0.  1.
<mgrwt>
<rscale>  0 0.12460711E+03</rscale>
<asrwt>0</asrwt>
<pdfrwt beam="1">  1        2 0.37856801E-01 0.12543725E+03</pdfrwt>
<pdfrwt beam="2">  1       -2 0.98676057E-02 0.12543725E+03</pdfrwt>
<totfact> 0.86614304E+03</totfact>
</mgrwt>
</event>
<event>
 8    1  0.2964543E-004  0.8940625E+02  0.7546771E-02  0.1305443E+00
         -1   -1    0    0    0  501 -0.00000000000E+00  0.00000000000E+00  0.25353186584E+02  0.25353186584E+02  0.00000000000E+00 0.  1.
          1   -1    0    0  501    0  0.00000000000E+00 -0.00000000000E+00 -0.51410326201E+03  0.51410326201E+03  0.00000000000E+00 0. -1.
         23    2    1    2    0    0  0.21452489748E+01 -0.64260198242E+01 -0.41637111592E+03  0.42586193124E+03  0.89149214727E+02 0.  0.
         23    2    1    2    0    0 -0.21452489748E+01  0.64260198242E+01 -0.72378959506E+02  0.11359451735E+03  0.87287483461E+02 0.  0.
          5    1    3    3  502    0 -0.21967783818E+02 -0.30266370759E+02 -0.34104870867E+03  0.34312526636E+03  0.47000000000E+01 0. -1.
         -5    1    3    3    0  502  0.24113032793E+02  0.23840350935E+02 -0.75322407246E+02  0.82736664887E+02  0.47000000000E+01 0.  1.
          5    1    4    4  503    0 -0.46069709710E+01 -0.38367123886E+02 -0.49633097319E+02  0.63077688023E+02  0.47000000000E+01 0. -1.
         -5    1    4    4    0  503  0.24617219963E+01  0.44793143711E+02 -0.22745862187E+02  0.50516829328E+02  0.47000000000E+01 0.  1.
<mgrwt>
<rscale>  0 0.88938530E+02</rscale>
<asrwt>0</asrwt>
<pdfrwt beam="1">  1        1 0.79092803E-01 0.89406254E+02</pdfrwt>
<pdfrwt beam="2">  1       -1 0.39004906E-02 0.89406254E+02</pdfrwt>
<totfact> 0.10239817E+04</totfact>
</mgrwt>
</event>
<event>
 8    1  0.2964543E-004  0.1054095E+03  0.7546771E-02  0.1274421E+00
         -1   -1    0    0    0  501 -0.00000000000E+00  0.00000000000E+00  0.19842892673E+02  0.19842892673E+02  0.00000000000E+00 0.  1.
          1   -1    0    0  501    0  0.00000000000E+00 -0.00000000000E+00 -0.51046805135E+03  0.51046805135E+03  0.00000000000E+00 0. -1.
         23    2    1    2    0    0 -0.18176806101E+02  0.43166579598E+02 -0.21765253680E+03  0.23769307194E+03  0.83256349892E+02 0.  0.
         23    2    1    2    0    0  0.18176806101E+02 -0.43166579598E+02 -0.27297262188E+03  0.29261787209E+03  0.94432075564E+02 0.  0.
          5    1    3    3  502    0 -0.38678473427E+02  0.26335542689E+02 -0.20007289214E+03  0.20552575820E+03  0.47000000000E+01 0. -1.
         -5    1    4    4    0  503 -0.33973908003E+01  0.24766609717E+02 -0.29844946379E+02  0.39214003181E+02  0.47000000000E+01 0.  1.
          5    1    4    4  503    0  0.21574196901E+02 -0.67933189316E+02 -0.24312767550E+03  0.25340386891E+03  0.47000000000E+01 0. -1.
         -5    1    3    3    0  502  0.20501667326E+02  0.16831036909E+02 -0.17579644661E+02  0.32167313736E+02  0.47000000000E+01 0.  1.
<mgrwt>
<rscale>  0 0.10284689E+03</rscale>
<asrwt>0</asrwt>
<pdfrwt beam="1">  1        1 0.78533536E-01 0.10540952E+03</pdfrwt>
<pdfrwt beam="2">  1       -1 0.30527531E-02 0.10540952E+03</pdfrwt>
<totfact> 0.14946002E+04</totfact>
</mgrwt>
</event>
<event>
 8    1  0.2964543E-004  0.1062262E+03  0.7546771E-02  0.1272640E+00
          3   -1    0    0  501    0  0.00000000000E+00  0.00000000000E+00  0.14506859449E+02  0.14506859449E+02  0.00000000000E+00 0. -1.
         -3   -1    0    0    0  501 -0.00000000000E+00 -0.00000000000E+00 -0.77571110733E+03  0.77571110733E+03  0.00000000000E+00 0.  1.
         23    2    1    2    0    0  0.18115059888E+02  0.24920190266E+02 -0.47992150358E+03  0.48954541665E+03  0.91547223228E+02 0.  0.
         23    2    1    2    0    0 -0.18115059888E+02 -0.24920190266E+02 -0.28128274429E+03  0.30067255013E+03  0.10166036045E+03 0.  0.
          5    1    4    4  502    0 -0.67405989722E+01  0.28596954214E+02 -0.20229600767E+03  0.20447245826E+03  0.47000000000E+01 0. -1.
         -5    1    4    4    0  502 -0.11374460916E+02 -0.53517144480E+02 -0.78986736620E+02  0.96200091872E+02  0.47000000000E+01 0.  1.
          5    1    3    3  503    0  0.47454515491E+01  0.53433514930E+02 -0.17847028901E+03  0.18641725748E+03  0.47000000000E+01 0. -1.
         -5    1    3    3    0  503  0.13369608339E+02 -0.28513324664E+02 -0.30145121457E+03  0.30312815917E+03  0.47000000000E+01 0.  1.
<mgrwt>
<rscale>  0 0.10373116E+03</rscale>
<asrwt>0</asrwt>
<pdfrwt beam="1">  1        3 0.22318243E-02 0.10622617E+03</pdfrwt>
<pdfrwt beam="2">  1       -3 0.11934018E+00 0.10622617E+03</pdfrwt>
<totfact> 0.10692900E+03</totfact>
</mgrwt>
</event>
<event>
 8    1  0.2964543E-004  0.1012443E+03  0.7546771E-02  0.1279407E+00
          3   -1    0    0  501    0  0.00000000000E+00  0.00000000000E+00  0.11203661612E+03  0.11203661612E+03  0.00000000000E+00 0. -1.
         -3   -1    0    0    0  501 -0.00000000000E+00 -0.00000000000E+00 -0.42680747331E+03  0.42680747331E+03  0.00000000000E+00 0.  1.
         23    2    1    2    0    0 -0.25951508881E+02 -0.28129358678E+02 -0.39668536476E+03  0.40861198066E+03  0.90220454954E+02 0.  0.
         23    2    1    2    0    0  0.25951508881E+02  0.28129358678E+02  0.81914507564E+02  0.13023210877E+03  0.93731926107E+02 0.  0.
          5    1    3    3  502    0 -0.28888691203E+02  0.22535171544E+02 -0.83487118071E+02  0.91293917211E+02  0.47000000000E+01 0. -1.
         -5    1    4    4    0  503  0.21030340293E+02  0.52917029721E+02  0.15776509864E+02  0.59274577273E+02  0.47000000000E+01 0.  1.
          5    1    4    4  503    0  0.49211685883E+01 -0.24787671043E+02  0.66137997700E+02  0.70957531495E+02  0.47000000000E+01 0. -1.
         -5    1    3    3    0  502  0.29371823212E+01 -0.50664530222E+02 -0.31319824669E+03  0.31731806345E+03  0.47000000000E+01 0.  1.
<mgrwt>
<rscale>  0 0.10042394E+03</rscale>
<asrwt>0</asrwt>
<pdfrwt beam="1">  1        3 0.17236402E-01 0.10124434E+03</pdfrwt>
<pdfrwt beam="2">  1       -3 0.65662689E-01 0.10124434E+03</pdfrwt>
<totfact> 0.15005930E+02</totfact>
</mgrwt>
</event>
<event>
 8    1  0.2964543E-004  0.9275788E+02  0.7546771E-02  0.1296805E+00
         -1   -1    0    0    0  501 -0.00000000000E+00  0.00000000000E+00  0.47028937141E+02  0.47028937141E+02  0.00000000000E+00 0.  1.
          1   -1    0    0  501    0  0.00000000000E+00 -0.00000000000E+00 -0.25635767643E+03  0.25635767643E+03  0.00000000000E+00 0. -1.
         23    2    1    2    0    0  0.12103605723E+01 -0.36964796592E+01 -0.22912605515E+02  0.95545863035E+02  0.92676294256E+02 0.  0.
         23    2    1    2    0    0 -0.12103605723E+01  0.36964796592E+01 -0.18641613377E+03  0.20784075053E+03  0.91824145610E+02 0.  0.
          5    1    4    4  502    0  0.35187725509E+01  0.45439286431E+02 -0.12627181684E+03  0.13432710910E+03  0.47000000000E+01 0.  1.
         -5    1    3    3    0  503  0.23622236711E+02  0.77811859615E+01  0.28493176955E+02  0.38111783679E+02  0.47000000000E+01 0.  1.
          5    1    3    3  503    0 -0.22411876139E+02 -0.11477665621E+02 -0.51405782470E+02  0.57434079356E+02  0.47000000000E+01 0. -1.
         -5    1    4    4    0  502 -0.47291331232E+01 -0.41742806772E+02 -0.60144316937E+02  0.73513641436E+02  0.47000000000E+01 0. -1.
<mgrwt>
<rscale>  0 0.92544296E+02</rscale>
<asrwt>0</asrwt>
<pdfrwt beam="1">  1        1 0.39439642E-01 0.92757881E+02</pdfrwt>
<pdfrwt beam="2">  1       -1 0.72352212E-02 0.92757881E+02</pdfrwt>
<totfact> 0.98338432E+03</totfact>
</mgrwt>
</event>
<event>
 8    1  0.2964543E-004  0.1197906E+03  0.7546771E-02  0.1244200E+00
         -2   -1    0    0    0  501 -0.00000000000E+00  0.00000000000E+00  0.64102639265E+02  0.64102639265E+02  0.00000000000E+00 0.  1.
          2   -1    0    0  501    0  0.00000000000E+00 -0.00000000000E+00 -0.22323293971E+03  0.22323293971E+03  0.00000000000E+00 0. -1.
         23    2    1    2    0    0 -0.74662859941E+02  0.70375300744E+01 -0.94927953364E+02  0.15142483894E+03  0.91071927808E+02 0.  0.
         23    2    1    2    0    0  0.74662859941E+02 -0.70375300744E+01 -0.64202347085E+02  0.13591074004E+03  0.93411553900E+02 0.  0.
          5    1    4    4  502    0  0.18946089386E+02 -0.20576129999E+02 -0.72439222946E+02  0.77793717290E+02  0.47000000000E+01 0. -1.
         -5    1    3    3    0  503 -0.72134871618E+02  0.39575667275E+02 -0.52591762102E+02  0.97763268074E+02  0.47000000000E+01 0.  1.
          5    1    3    3  503    0 -0.25279883230E+01 -0.32538137200E+02 -0.42336191262E+02  0.53661570868E+02  0.47000000000E+01 0. -1.
         -5    1    4    4    0  502  0.55716770555E+02  0.13538599925E+02  0.82368758612E+01  0.58117022747E+02  0.47000000000E+01 0.  1.
<mgrwt>
<rscale>  0 0.11933417E+03</rscale>
<asrwt>0</asrwt>
<pdfrwt beam="1">  1        2 0.34343529E-01 0.11979060E+03</pdfrwt>
<pdfrwt beam="2">  1       -2 0.98619446E-02 0.11979060E+03</pdfrwt>
<totfact> 0.95833824E+03</totfact>
</mgrwt>
</event>
<event>
 8    1  0.2964543E-004  0.1314696E+03  0.7546771E-02  0.1225477E+00
         -1   -1    0    0    0  501 -0.00000000000E+00  0.00000000000E+00  0.15546504844E+03  0.15546504844E+03  0.00000000000E+00 0.  1.
          1   -1    0    0  501    0  0.00000000000E+00 -0.00000000000E+00 -0.11150268470E+03  0.11150268470E+03  0.00000000000E+00 0. -1.
         23    2    1    2    0    0  0.84595899732E+02 -0.44971610511E+02  0.32991485101E+02  0.13554589220E+03  0.90029655111E+02 0.  0.
         23    2    1    2    0    0 -0.84595899732E+02  0.44971610511E+02  0.10970878638E+02  0.13142184094E+03  0.89288454430E+02 0.  0.
          5    1    4    4  502    0 -0.61362819097E+02  0.71849881298E+02  0.26990667428E+01  0.94642358231E+02  0.47000000000E+01 0. -1.
         -5    1    3    3    0  503  0.63923467330E+02 -0.72466890765E+02  0.23784798308E+02  0.99626635812E+02  0.47000000000E+01 0.  1.
          5    1    3    3  503    0  0.20672432402E+02  0.27495280254E+02  0.92066867929E+01  0.35919256387E+02  0.47000000000E+01 0. -1.
         -5    1    4    4    0  502 -0.23233080635E+02 -0.26878270788E+02  0.82718118955E+01  0.36779482709E+02  0.47000000000E+01 0.  1.
<mgrwt>
<rscale>  0 0.13134278E+03</rscale>
<asrwt>0</asrwt>
<pdfrwt beam="1">  1        1 0.17154259E-01 0.13146958E+03</pdfrwt>
<pdfrwt beam="2">  1       -1 0.23917700E-01 0.13146958E+03</pdfrwt>
<totfact> 0.44703552E+03</totfact>
</mgrwt>
</event>
<event>
 8    1  0.2964543E-004  0.9456852E+02  0.7546771E-02  0.1295068E+00
         -1   -1    0    0    0  501 -0.00000000000E+00  0.00000000000E+00  0.15890333403E+03  0.15890333403E+03  0.00000000000E+00 0.  1.
          1   -1    0    0  501    0  0.00000000000E+00 -0.00000000000E+00 -0.60218994248E+02  0.60218994248E+02  0.00000000000E+00 0. -1.
         23    2    1    2    0    0 -0.22901487898E+02  0.46637811282E+01  0.85162564606E+02  0.12359199736E+03  0.86464388033E+02 0.  0.
         23    2    1    2    0    0  0.22901487898E+02 -0.46637811282E+01  0.13521775176E+02  0.95530330923E+02  0.91635019070E+02 0.  0.
          5    1    4    4  502    0  0.56971136888E+02  0.84001972391E+01  0.82950559157E+01  0.58370983413E+02  0.47000000000E+01 0. -1.
         -5    1    4    4    0  502 -0.34069648990E+02 -0.13063978367E+02  0.52267192606E+01  0.37159347510E+02  0.47000000000E+01 0.  1.
          5    1    3    3  503    0  0.61650006434E+01 -0.32647613783E+02  0.62494736188E+02  0.70933461567E+02  0.47000000000E+01 0. -1.
         -5    1    3    3    0  503 -0.29066488541E+02  0.37311394911E+02  0.22667828418E+02  0.52658535789E+02  0.47000000000E+01 0.  1.
<mgrwt>
<rscale>  0 0.93292655E+02</rscale>
<asrwt>0</asrwt>
<pdfrwt beam="1">  1        1 0.92644607E-02 0.94568524E+02</pdfrwt>
<pdfrwt beam="2">  1       -1 0.24446667E-01 0.94568524E+02</pdfrwt>
<totfact> 0.93701500E+03</totfact>
</mgrwt>
</event>
<event>
 8    1  0.2964543E-004  0.9743045E+02  0.7546771E-02  0.1286722E+00
         -1   -1    0    0    0  501 -0.00000000000E+00  0.00000000000E+00  0.61949832780E+02  0.61949832780E+02  0.00000000000E+00 0.  1.
          1   -1    0    0  501    0  0.00000000000E+00 -0.00000000000E+00 -0.23023050411E+03  0.23023050411E+03  0.00000000000E+00 0. -1.
         23    2    1    2    0    0 -0.11373214173E+02  0.32381815696E+02  0.22618796604E+01  0.95768897871E+02  0.89379157030E+02 0.  0.
         23    2    1    2    0    0  0.11373214173E+02 -0.32381815696E+02 -0.17054255099E+03  0.19641143902E+03  0.91185304141E+02 0.  0.
          5    1    4    4  502    0  0.36849518896E+02 -0.48049903560E+02 -0.14347315653E+03  0.15579896315E+03  0.47000000000E+01 0. -1.
         -5    1    4    4    0  502 -0.25476304723E+02  0.15668087864E+02 -0.27069394466E+02  0.40612475872E+02  0.47000000000E+01 0.  1.
          5    1    3    3  503    0 -0.93532299945E+01 -0.29537736892E+02 -0.90471975610E+01  0.32617519767E+02  0.47000000000E+01 0. -1.
         -5    1    3    3    0  503 -0.20199841781E+01  0.61919552588E+02  0.11309077221E+02  0.63151378104E+02  0.47000000000E+01 0.  1.
<mgrwt>
<rscale>  0 0.97005609E+02</rscale>
<asrwt>0</asrwt>
<pdfrwt beam="1">  1        1 0.35420077E-01 0.97430445E+02</pdfrwt>
<pdfrwt beam="2">  1       -1 0.95307436E-02 0.97430445E+02</pdfrwt>
<totfact> 0.74542346E+03</totfact>
</mgrwt>
</event>
<event>
 8    1  0.2964543E-004  0.1039848E+03  0.7546771E-02  0.1272164E+00
         -2   -1    0    0    0  501 -0.00000000000E+00  0.00000000000E+00  0.23054677281E+02  0.23054677281E+02  0.00000000000E+00 0.  1.
          2   -1    0    0  501    0  0.00000000000E+00 -0.00000000000E+00 -0.49676749433E+03  0.49676749433E+03  0.00000000000E+00 0. -1.
         23    2    1    2    0    0 -0.50286969901E+02  0.19134435950E+02 -0.29854209934E+03  0.31611251233E+03  0.88909107481E+02 0.  0.
         23    2    1    2    0    0  0.50286969901E+02 -0.19134435950E+02 -0.17517071771E+03  0.20370965928E+03  0.88982801489E+02 0.  0.
          5    1    4    4  502    0 -0.16256477229E+02 -0.27575135541E+02 -0.87026569819E+02  0.92845974638E+02  0.47000000000E+01 0. -1.
         -5    1    3    3    0  503 -0.63889253299E+02 -0.15267937419E+02 -0.17147810388E+03  0.18368934839E+03  0.47000000000E+01 0.  1.
          5    1    3    3  503    0  0.13602283398E+02  0.34402373369E+02 -0.12706399546E+03  0.13242316394E+03  0.47000000000E+01 0. -1.
         -5    1    4    4    0  502  0.66543447130E+02  0.84406995901E+01 -0.88144147894E+02  0.11086368465E+03  0.47000000000E+01 0.  1.
<mgrwt>
<rscale>  0 0.10396906E+03</rscale>
<asrwt>0</asrwt>
<pdfrwt beam="1">  1        2 0.76425763E-01 0.10398483E+03</pdfrwt>
<pdfrwt beam="2">  1       -2 0.35468737E-02 0.10398483E+03</pdfrwt>
<totfact> 0.18987053E+04</totfact>
</mgrwt>
</event>
<event>
 8    1  0.2964543E-004  0.9166792E+02  0.7546771E-02  0.1299686E+00
          4   -1    0    0  501    0  0.00000000000E+00  0.00000000000E+00  0.17373127625E+02  0.17373127625E+02  0.00000000000E+00 0. -1.
         -4   -1    0    0    0  501 -0.00000000000E+00 -0.00000000000E+00 -0.53743735529E+03  0.53743735529E+03  0.00000000000E+00 0.  1.
         23    2    1    2    0    0  0.13517779936E+01 -0.11332581236E+02 -0.16480218540E+03  0.18791250430E+03  0.89560561954E+02 0.  0.
         23    2    1    2    0    0 -0.13517779936E+01  0.11332581236E+02 -0.35526204226E+03  0.36689797862E+03  0.90954677386E+02 0.  0.
          5    1    3    3  502    0 -0.20920518056E+02 -0.61186145918E+01 -0.85891619822E+00  0.22314418148E+02  0.47000000000E+01 0. -1.
         -5    1    3    3    0  502  0.22272296050E+02 -0.52139666437E+01 -0.16394326921E+03  0.16559808615E+03  0.47000000000E+01 0.  1.
          5    1    4    4  503    0  0.21376721801E+02  0.45318799068E+02 -0.18376366309E+03  0.19053065805E+03  0.47000000000E+01 0. -1.
         -5    1    4    4    0  503 -0.22728499794E+02 -0.33986217832E+02 -0.17149837917E+03  0.17636732057E+03  0.47000000000E+01 0.  1.
<mgrwt>
<rscale>  0 0.91320173E+02</rscale>
<asrwt>0</asrwt>
<pdfrwt beam="1">  1        4 0.26727893E-02 0.91667923E+02</pdfrwt>
<pdfrwt beam="2">  1       -4 0.82682658E-01 0.91667923E+02</pdfrwt>
<totfact> 0.12872627E+03</totfact>
</mgrwt>
</event>
<event>
 8    1  0.2964543E-004  0.9431953E+02  0.7546771E-02  0.1294403E+00
          2   -1    0    0  501    0  0.00000000000E+00  0.00000000000E+00  0.45752576498E+02  0.45752576498E+02  0.00000000000E+00 0. -1.
         -2   -1    0    0    0  501 -0.00000000000E+00 -0.00000000000E+00 -0.27994238531E+03  0.27994238531E+03  0.00000000000E+00 0.  1.
         23    2    1    2    0    0  0.40296603938E+01 -0.17616060327E+01 -0.21141198596E+03  0.23149773529E+03  0.94216942320E+02 0.  0.
         23    2    1    2    0    0 -0.40296603938E+01  0.17616060327E+01 -0.22777822858E+02  0.94197226520E+02  0.91295930091E+02 0.  0.
          5    1    3    3  502    0  0.42916509540E+02 -0.22784438571E+02 -0.12772973097E+03  0.13674038030E+03  0.47000000000E+01 0. -1.
         -5    1    3    3    0  502 -0.38886849147E+02  0.21022832538E+02 -0.83682254988E+02  0.94757354988E+02  0.47000000000E+01 0.  1.
          5    1    4    4  503    0  0.31228900378E+02 -0.11212924811E+02  0.18421938893E+02  0.38241753806E+02  0.47000000000E+01 0. -1.
         -5    1    4    4    0  503 -0.35258560772E+02  0.12974530844E+02 -0.41199761750E+02  0.55955472713E+02  0.47000000000E+01 0.  1.
<mgrwt>
<rscale>  0 0.93581478E+02</rscale>
<asrwt>0</asrwt>
<pdfrwt beam="1">  1        2 0.70388578E-02 0.94319529E+02</pdfrwt>
<pdfrwt beam="2">  1       -2 0.43068060E-01 0.94319529E+02</pdfrwt>
<totfact> 0.47791366E+03</totfact>
</mgrwt>
</event>
<event>
 8    1  0.2964543E-004  0.9685382E+02  0.7546771E-02  0.1287398E+00
         -3   -1    0    0    0  501 -0.00000000000E+00  0.00000000000E+00  0.24968551914E+03  0.24968551914E+03  0.00000000000E+00 0.  1.
          3   -1    0    0  501    0  0.00000000000E+00 -0.00000000000E+00 -0.37919969932E+02  0.37919969932E+02  0.00000000000E+00 0. -1.
         23    2    1    2    0    0  0.11889559098E+02 -0.34570647480E+02  0.87582511167E+02  0.13011869794E+03  0.89015099893E+02 0.  0.
         23    2    1    2    0    0 -0.11889559098E+02  0.34570647480E+02  0.12418303805E+03  0.15748679113E+03  0.89689303491E+02 0.  0.
          5    1    4    4  502    0 -0.29536555285E+02  0.19797533945E+02  0.52414204617E+01  0.36247937001E+02  0.47000000000E+01 0. -1.
         -5    1    4    4    0  502  0.17646996187E+02  0.14773113535E+02  0.11894161758E+03  0.12123885413E+03  0.47000000000E+01 0.  1.
          5    1    3    3  503    0 -0.13723402742E+02 -0.27010319007E+02 -0.72340722492E+01  0.31500966921E+02  0.47000000000E+01 0. -1.
         -5    1    3    3    0  503  0.25612961840E+02 -0.75603284737E+01  0.94816583416E+02  0.98617731020E+02  0.47000000000E+01 0.  1.
<mgrwt>
<rscale>  0 0.96697443E+02</rscale>
<asrwt>0</asrwt>
<pdfrwt beam="1">  1        3 0.58338417E-02 0.96853820E+02</pdfrwt>
<pdfrwt beam="2">  1       -3 0.38413156E-01 0.96853820E+02</pdfrwt>
<totfact> 0.25648009E+03</totfact>
</mgrwt>
</event>
<event>
 8    1  0.2964543E-004  0.1015442E+03  0.7546771E-02  0.1278239E+00
          2   -1    0    0  501    0  0.00000000000E+00  0.00000000000E+00  0.70145161658E+02  0.70145161658E+02  0.00000000000E+00 0. -1.
         -2   -1    0    0    0  501 -0.00000000000E+00 -0.00000000000E+00 -0.24615872299E+03  0.24615872299E+03  0.00000000000E+00 0.  1.
         23    2    1    2    0    0 -0.33127043634E+02  0.25861525166E+02 -0.19055414902E+03  0.21592153208E+03  0.92439195174E+02 0.  0.
         23    2    1    2    0    0  0.33127043634E+02 -0.25861525166E+02  0.14540587690E+02  0.10038235256E+03  0.89994269329E+02 0.  0.
          5    1    4    4  502    0  0.30499204936E+02  0.28131450853E+02  0.19124231439E+02  0.45928272959E+02  0.47000000000E+01 0. -1.
         -5    1    3    3    0  503 -0.57346782385E+02  0.40425144467E+02 -0.11135574111E+03  0.13170055746E+03  0.47000000000E+01 0.  1.
          5    1    3    3  503    0  0.24219738751E+02 -0.14563619301E+02 -0.79198407908E+02  0.84220974629E+02  0.47000000000E+01 0. -1.
         -5    1    4    4    0  502  0.26278386978E+01 -0.53992976020E+02 -0.45836437489E+01  0.54454079606E+02  0.47000000000E+01 0.  1.
<mgrwt>
<rscale>  0 0.10098445E+03</rscale>
<asrwt>0</asrwt>
<pdfrwt beam="1">  1        2 0.10791563E-01 0.10154420E+03</pdfrwt>
<pdfrwt beam="2">  1       -2 0.37870573E-01 0.10154420E+03</pdfrwt>
<totfact> 0.36170161E+03</totfact>
</mgrwt>
</event>
<event>
 8    1  0.2964543E-004  0.9455269E+02  0.7546771E-02  0.1294173E+00
         -2   -1    0    0    0  501 -0.00000000000E+00  0.00000000000E+00  0.10023489861E+02  0.10023489861E+02  0.00000000000E+00 0.  1.
          2   -1    0    0  501    0  0.00000000000E+00 -0.00000000000E+00 -0.10455828889E+04  0.10455828889E+04  0.00000000000E+00 0. -1.
         23    2    1    2    0    0 -0.23663356132E+02  0.13667179225E+02 -0.73234865488E+03  0.73799503465E+03  0.86921646658E+02 0.  0.
         23    2    1    2    0    0  0.23663356132E+02 -0.13667179225E+02 -0.30321074421E+03  0.31761134416E+03  0.90517756946E+02 0.  0.
          5    1    4    4  502    0 -0.33165007221E+02  0.18084881451E+01 -0.14216330167E+03  0.14606739087E+03  0.47000000000E+01 0.  1.
         -5    1    3    3    0  503  0.32060078588E+02  0.50775716459E+01 -0.20314368707E+03  0.20577433749E+03  0.47000000000E+01 0.  1.
          5    1    3    3  503    0 -0.55723434720E+02  0.85896075786E+01 -0.52920496780E+03  0.53222069716E+03  0.47000000000E+01 0. -1.
         -5    1    4    4    0  502  0.56828363353E+02 -0.15475667370E+02 -0.16104744254E+03  0.17154395329E+03  0.47000000000E+01 0.  1.
<mgrwt>
<rscale>  0 0.93681540E+02</rscale>
<asrwt>0</asrwt>
<pdfrwt beam="1">  1        2 0.16085882E+00 0.94552687E+02</pdfrwt>
<pdfrwt beam="2">  1       -2 0.15420761E-02 0.94552687E+02</pdfrwt>
<totfact> 0.25724224E+04</totfact>
</mgrwt>
</event>
<event>
 8    1  0.2964543E-004  0.1117648E+03  0.7546771E-02  0.1257599E+00
          2   -1    0    0  501    0  0.00000000000E+00  0.00000000000E+00  0.42795770569E+03  0.42795770569E+03  0.00000000000E+00 0. -1.
         -2   -1    0    0    0  501 -0.00000000000E+00 -0.00000000000E+00 -0.57121413124E+02  0.57121413124E+02  0.00000000000E+00 0.  1.
         23    2    1    2    0    0 -0.81716010089E+01  0.64830094358E+02  0.35572600176E+03  0.37287043257E+03  0.90673342078E+02 0.  0.
         23    2    1    2    0    0  0.81716010089E+01 -0.64830094358E+02  0.15110290811E+02  0.11220868624E+03  0.89959725335E+02 0.  0.
          5    1    4    4  502    0  0.22703118846E+02 -0.14916465608E+02  0.44468653420E+02  0.52320967963E+02  0.47000000000E+01 0. -1.
         -5    1    4    4    0  502 -0.14531517837E+02 -0.49913628750E+02 -0.29358362610E+02  0.59887718280E+02  0.47000000000E+01 0.  1.
          5    1    3    3  503    0 -0.32299337752E+02 -0.86704398300E+01  0.92506868550E+02  0.98478599071E+02  0.47000000000E+01 0. -1.
         -5    1    3    3    0  503  0.24127736743E+02  0.73500534188E+02  0.26321913321E+03  0.27439183350E+03  0.47000000000E+01 0.  1.
<mgrwt>
<rscale>  0 0.11161998E+03</rscale>
<asrwt>0</asrwt>
<pdfrwt beam="1">  1        2 0.65839645E-01 0.11176480E+03</pdfrwt>
<pdfrwt beam="2">  1       -2 0.87879100E-02 0.11176480E+03</pdfrwt>
<totfact> 0.57303306E+03</totfact>
</mgrwt>
</event>
<event>
 8    1  0.2964543E-004  0.9388160E+02  0.7546771E-02  0.1293786E+00
         -2   -1    0    0    0  501 -0.00000000000E+00  0.00000000000E+00  0.21316333459E+02  0.21316333459E+02  0.00000000000E+00 0.  1.
          2   -1    0    0  501    0  0.00000000000E+00 -0.00000000000E+00 -0.58915131865E+03  0.58915131865E+03  0.00000000000E+00 0. -1.
         23    2    1    2    0    0  0.23429632210E+02  0.15835923109E+02 -0.11685007762E+03  0.14981470082E+03  0.89391161841E+02 0.  0.
         23    2    1    2    0    0 -0.23429632210E+02 -0.15835923109E+02 -0.45098490757E+03  0.46065295129E+03  0.89521117898E+02 0.  0.
          5    1    3    3  502    0  0.12475900789E+02 -0.34598798247E+02 -0.73208514799E+02  0.82062790470E+02  0.47000000000E+01 0. -1.
         -5    1    3    3    0  502  0.10953731421E+02  0.50434721356E+02 -0.43641562818E+02  0.67751910346E+02  0.47000000000E+01 0.  1.
          5    1    4    4  503    0  0.11476596619E+02 -0.41078265371E+02 -0.31556662913E+03  0.31847060080E+03  0.47000000000E+01 0. -1.
         -5    1    4    4    0  503 -0.34906228830E+02  0.25242342263E+02 -0.13541827844E+03  0.14218235049E+03  0.47000000000E+01 0.  1.
<mgrwt>
<rscale>  0 0.93850606E+02</rscale>
<asrwt>0</asrwt>
<pdfrwt beam="1">  1        2 0.90638666E-01 0.93881599E+02</pdfrwt>
<pdfrwt beam="2">  1       -2 0.32794359E-02 0.93881599E+02</pdfrwt>
<totfact> 0.17489054E+04</totfact>
</mgrwt>
</event>
<event>
 8    1  0.2964543E-004  0.1207587E+03  0.7546771E-02  0.1242087E+00
          1   -1    0    0  501    0  0.00000000000E+00  0.00000000000E+00  0.44419404241E+02  0.44419404241E+02  0.00000000000E+00 0. -1.
         -1   -1    0    0    0  501 -0.00000000000E+00 -0.00000000000E+00 -0.36264039553E+03  0.36264039553E+03  0.00000000000E+00 0.  1.
         23    2    1    2    0    0  0.61428579817E+02  0.49944746405E+02 -0.22349784085E+03  0.25403534296E+03  0.91185100194E+02 0.  0.
         23    2    1    2    0    0 -0.61428579817E+02 -0.49944746405E+02 -0.94723150445E+02  0.15302445681E+03  0.90421573981E+02 0.  0.
          5    1    3    3  502    0 -0.20263124222E+02  0.85164950794E+01 -0.85004201257E+02  0.87925702289E+02  0.47000000000E+01 0. -1.
         -5    1    3    3    0  502  0.81691704039E+02  0.41428251325E+02 -0.13849363959E+03  0.16610964067E+03  0.47000000000E+01 0.  1.
          5    1    4    4  503    0 -0.84484074170E+02 -0.31507891763E+02 -0.71086600938E+02  0.11491606008E+03  0.47000000000E+01 0. -1.
         -5    1    4    4    0  503  0.23055494353E+02 -0.18436854641E+02 -0.23636549507E+02  0.38108396732E+02  0.47000000000E+01 0.  1.
<mgrwt>
<rscale>  0 0.12061460E+03</rscale>
<asrwt>0</asrwt>
<pdfrwt beam="1">  1        1 0.68337550E-02 0.12075873E+03</pdfrwt>
<pdfrwt beam="2">  1       -1 0.55790826E-01 0.12075873E+03</pdfrwt>
<totfact> 0.34437052E+03</totfact>
</mgrwt>
</event>
<event>
 8    1  0.2964543E-004  0.9363811E+02  0.7546771E-02  0.1294806E+00
         -1   -1    0    0    0  501 -0.00000000000E+00  0.00000000000E+00  0.12234631775E+03  0.12234631775E+03  0.00000000000E+00 0.  1.
          1   -1    0    0  501    0  0.00000000000E+00 -0.00000000000E+00 -0.34677137021E+03  0.34677137021E+03  0.00000000000E+00 0. -1.
         23    2    1    2    0    0 -0.19314613495E+02 -0.39140417459E+01  0.96860551523E+02  0.13472216924E+03  0.91540823821E+02 0.  0.
         23    2    1    2    0    0  0.19314613495E+02  0.39140417459E+01 -0.32128560398E+03  0.33439551872E+03  0.90595527462E+02 0.  0.
          5    1    4    4  502    0  0.13613720335E+02  0.44684021969E+02 -0.11932576902E+03  0.12822918682E+03  0.47000000000E+01 0. -1.
         -5    1    3    3    0  503  0.41063642242E+01  0.21738630586E+02  0.97068838485E+02  0.99668850158E+02  0.47000000000E+01 0.  1.
          5    1    3    3  503    0 -0.23420977719E+02 -0.25652672332E+02 -0.20828696215E+00  0.35053319081E+02  0.47000000000E+01 0. -1.
         -5    1    4    4    0  502  0.57008931602E+01 -0.40769980223E+02 -0.20195983496E+03  0.20616633190E+03  0.47000000000E+01 0.  1.
<mgrwt>
<rscale>  0 0.93406277E+02</rscale>
<asrwt>0</asrwt>
<pdfrwt beam="1">  1        1 0.53349441E-01 0.93638114E+02</pdfrwt>
<pdfrwt beam="2">  1       -1 0.18822511E-01 0.93638114E+02</pdfrwt>
<totfact> 0.15782863E+03</totfact>
</mgrwt>
</event>
<event>
 8    1  0.3644272E-004  0.1109364E+03  0.7546771E-02  0.1260049E+00
         -1   -1    0    0    0  501 -0.00000000000E+00  0.00000000000E+00  0.39357738669E+03  0.39357738669E+03  0.00000000000E+00 0.  1.
          1   -1    0    0  501    0  0.00000000000E+00 -0.00000000000E+00 -0.26609883131E+03  0.26609883131E+03  0.00000000000E+00 0. -1.
         23    2    1    2    0    0  0.64115617511E+02 -0.97212263676E+01 -0.24650406993E+03  0.27031675321E+03  0.90008754694E+02 0.  0.
         23    2    1    2    0    0 -0.64115617511E+02  0.97212263676E+01  0.37398262531E+03  0.38935946479E+03  0.86789827366E+02 0.  0.
          5    1    3    3  502    0  0.53018921429E+02 -0.38254069744E+02 -0.21998138282E+03  0.22953927478E+03  0.47000000000E+01 0. -1.
         -5    1    3    3    0  502  0.11096696082E+02  0.28532843376E+02 -0.26522687116E+02  0.40777478428E+02  0.47000000000E+01 0.  1.
          5    1    4    4  503    0 -0.24024767832E+02  0.43569738526E+02  0.24479099443E+03  0.24984041414E+03  0.47000000000E+01 0.  1.
         -5    1    4    4    0  503 -0.40090849679E+02 -0.33848512159E+02  0.12919163088E+03  0.13951905065E+03  0.47000000000E+01 0. -1.
<mgrwt>
<rscale>  0 0.11028182E+03</rscale>
<asrwt>0</asrwt>
<pdfrwt beam="1">  1        1 0.40938282E-01 0.11093643E+03</pdfrwt>
<pdfrwt beam="2">  1       -1 0.60550367E-01 0.11093643E+03</pdfrwt>
<totfact> 0.29734769E+02</totfact>
</mgrwt>
</event>
<event>
 8    1  0.2964543E-004  0.1261343E+03  0.7546771E-02  0.1243987E+00
         -1   -1    0    0    0  501 -0.00000000000E+00  0.00000000000E+00  0.10004438071E+02  0.10004438071E+02  0.00000000000E+00 0.  1.
          1   -1    0    0  501    0  0.00000000000E+00 -0.00000000000E+00 -0.13345427488E+04  0.13345427488E+04  0.00000000000E+00 0. -1.
         23    2    1    2    0    0 -0.11416815526E+02  0.43037368428E+02 -0.47725990636E+03  0.48793142846E+03  0.91200339363E+02 0.  0.
         23    2    1    2    0    0  0.11416815526E+02 -0.43037368428E+02 -0.84727840438E+03  0.85661575843E+03  0.11801400041E+03 0.  0.
          5    1    4    4  502    0  0.51937927396E+02 -0.61660675405E+02 -0.50598920497E+03  0.51239316227E+03  0.47000000000E+01 0. -1.
         -5    1    4    4    0  502 -0.40521111870E+02  0.18623306977E+02 -0.34128919941E+03  0.34422259616E+03  0.47000000000E+01 0.  1.
          5    1    3    3  503    0 -0.33000775839E+02 -0.69064950371E+01 -0.31267927132E+03  0.31452689486E+03  0.47000000000E+01 0. -1.
         -5    1    3    3    0  503  0.21583960313E+02  0.49943863465E+02 -0.16458063504E+03  0.17340453360E+03  0.47000000000E+01 0.  1.
<mgrwt>
<rscale>  0 0.11946203E+03</rscale>
<asrwt>0</asrwt>
<pdfrwt beam="1">  1        1 0.20531410E+00 0.12613431E+03</pdfrwt>
<pdfrwt beam="2">  1       -1 0.15391456E-02 0.12613431E+03</pdfrwt>
<totfact> 0.90010232E+03</totfact>
</mgrwt>
</event>
<event>
 8    1  0.2964543E-004  0.1230900E+03  0.7546771E-02  0.1238111E+00
          2   -1    0    0  501    0  0.00000000000E+00  0.00000000000E+00  0.69172284467E+03  0.69172284467E+03  0.00000000000E+00 0. -1.
         -2   -1    0    0    0  501 -0.00000000000E+00 -0.00000000000E+00 -0.44801717413E+02  0.44801717413E+02  0.00000000000E+00 0.  1.
         23    2    1    2    0    0  0.30512196032E+02 -0.76766231534E+02  0.58676085313E+03  0.59951946706E+03  0.91166025507E+02 0.  0.
         23    2    1    2    0    0 -0.30512196032E+02  0.76766231534E+02  0.60160274125E+02  0.13700509502E+03  0.91252885260E+02 0.  0.
          5    1    3    3  502    0 -0.29943905280E+02 -0.42575719794E+02  0.29285947202E+03  0.29748628495E+03  0.47000000000E+01 0. -1.
         -5    1    4    4    0  503  0.27456622110E+02  0.58109821285E+01  0.23212678195E+01  0.28550164541E+02  0.47000000000E+01 0. -1.
          5    1    4    4  503    0 -0.57968818142E+02  0.70955249405E+02  0.57839006306E+02  0.10845493048E+03  0.47000000000E+01 0.  1.
         -5    1    3    3    0  502  0.60456101312E+02 -0.34190511740E+02  0.29390138111E+03  0.30203318211E+03  0.47000000000E+01 0.  1.
<mgrwt>
<rscale>  0 0.12307386E+03</rscale>
<asrwt>0</asrwt>
<pdfrwt beam="1">  1        2 0.10641889E+00 0.12308996E+03</pdfrwt>
<pdfrwt beam="2">  1       -2 0.68925724E-02 0.12308996E+03</pdfrwt>
<totfact> 0.49026406E+03</totfact>
</mgrwt>
</event>
<event>
 8    1  0.2964543E-004  0.1109303E+03  0.7546771E-02  0.1261970E+00
          2   -1    0    0  501    0  0.00000000000E+00  0.00000000000E+00  0.84819830383E+03  0.84819830383E+03  0.00000000000E+00 0. -1.
         -2   -1    0    0    0  501 -0.00000000000E+00 -0.00000000000E+00 -0.13935734137E+02  0.13935734137E+02  0.00000000000E+00 0.  1.
         23    2    1    2    0    0 -0.50997148734E+02  0.20683980624E+02  0.34402639146E+03  0.35950392328E+03  0.88658764923E+02 0.  0.
         23    2    1    2    0    0  0.50997148734E+02 -0.20683980624E+02  0.49023617823E+03  0.50263011469E+03  0.96317109130E+02 0.  0.
          5    1    3    3  502    0 -0.60528596980E+02 -0.17013921117E+02  0.24577533611E+03  0.25373369978E+03  0.47000000000E+01 0. -1.
         -5    1    3    3    0  502  0.95314482456E+01  0.37697901741E+02  0.98251055354E+02  0.10577022350E+03  0.47000000000E+01 0.  1.
          5    1    4    4  503    0  0.51304615068E+02 -0.41721974664E+02  0.46381720786E+03  0.46853108649E+03  0.47000000000E+01 0. -1.
         -5    1    4    4    0  503 -0.30746633399E+00  0.21037994039E+02  0.26418970365E+02  0.34099028196E+02  0.47000000000E+01 0.  1.
<mgrwt>
<rscale>  0 0.10924727E+03</rscale>
<asrwt>0</asrwt>
<pdfrwt beam="1">  1        2 0.13049201E+00 0.11093026E+03</pdfrwt>
<pdfrwt beam="2">  1       -2 0.21439598E-02 0.11093026E+03</pdfrwt>
<totfact> 0.21406284E+04</totfact>
</mgrwt>
</event>
<event>
 8    1  0.2964543E-004  0.1723330E+03  0.7546771E-02  0.1175734E+00
          1   -1    0    0  501    0  0.00000000000E+00  0.00000000000E+00  0.12165919041E+03  0.12165919041E+03  0.00000000000E+00 0. -1.
         -1   -1    0    0    0  501 -0.00000000000E+00 -0.00000000000E+00 -0.28748760159E+03  0.28748760159E+03  0.00000000000E+00 0.  1.
         23    2    1    2    0    0  0.86697708461E+02  0.11696838166E+03 -0.16362401034E+03  0.23679972545E+03  0.90017766325E+02 0.  0.
         23    2    1    2    0    0 -0.86697708461E+02 -0.11696838166E+03 -0.22044008448E+01  0.17234706655E+03  0.92198465297E+02 0.  0.
          5    1    4    4  502    0 -0.67155581858E+02 -0.84283216687E+02 -0.43198610987E+02  0.11619699988E+03  0.47000000000E+01 0. -1.
         -5    1    3    3    0  503  0.47520455740E+02  0.13186725399E+02 -0.92536241824E+02  0.10496251470E+03  0.47000000000E+01 0.  1.
          5    1    3    3  503    0  0.39177252721E+02  0.10378165626E+03 -0.71087768513E+02  0.13183721076E+03  0.47000000000E+01 0. -1.
         -5    1    4    4    0  502 -0.19542126604E+02 -0.32685164977E+02  0.40994210142E+02  0.56150066669E+02  0.47000000000E+01 0.  1.
<mgrwt>
<rscale>  0 0.17204305E+03</rscale>
<asrwt>0</asrwt>
<pdfrwt beam="1">  1        1 0.18716799E-01 0.17233297E+03</pdfrwt>
<pdfrwt beam="2">  1       -1 0.44228862E-01 0.17233297E+03</pdfrwt>
<totfact> 0.14168087E+03</totfact>
</mgrwt>
</event>
<event>
 8    1  0.2964543E-004  0.1237655E+03  0.7546771E-02  0.1237681E+00
          1   -1    0    0  501    0  0.00000000000E+00  0.00000000000E+00  0.45123279657E+02  0.45123279657E+02  0.00000000000E+00 0. -1.
         -1   -1    0    0    0  501 -0.00000000000E+00 -0.00000000000E+00 -0.36016923397E+03  0.36016923397E+03  0.00000000000E+00 0.  1.
         23    2    1    2    0    0  0.14387970417E+02 -0.80990781388E+02 -0.10282462114E+03  0.15961836410E+03  0.90214184482E+02 0.  0.
         23    2    1    2    0    0 -0.14387970417E+02  0.80990781388E+02 -0.21222133317E+03  0.24567414952E+03  0.92473634790E+02 0.  0.
          5    1    3    3  502    0 -0.30871918947E+02 -0.97102387938E+01 -0.10337592951E+02  0.34297520974E+02  0.47000000000E+01 0. -1.
         -5    1    4    4    0  503  0.24350292815E+02  0.79853628235E+02 -0.12866882905E+03  0.15345128305E+03  0.47000000000E+01 0.  1.
          5    1    4    4  503    0 -0.38738263233E+02  0.11371531530E+01 -0.83552504118E+02  0.92222866470E+02  0.47000000000E+01 0. -1.
         -5    1    3    3    0  502  0.45259889364E+02 -0.71280542594E+02 -0.92487028193E+02  0.12532084313E+03  0.47000000000E+01 0.  1.
<mgrwt>
<rscale>  0 0.12334359E+03</rscale>
<asrwt>0</asrwt>
<pdfrwt beam="1">  1        1 0.69420433E-02 0.12376548E+03</pdfrwt>
<pdfrwt beam="2">  1       -1 0.55410649E-01 0.12376548E+03</pdfrwt>
<totfact> 0.34198847E+03</totfact>
</mgrwt>
</event>
<event>
 8    1  0.2964543E-004  0.1020364E+03  0.7546771E-02  0.1276842E+00
         -1   -1    0    0    0  501 -0.00000000000E+00  0.00000000000E+00  0.33758855104E+02  0.33758855104E+02  0.00000000000E+00 0.  1.
          1   -1    0    0  501    0  0.00000000000E+00 -0.00000000000E+00 -0.45909137533E+03  0.45909137533E+03  0.00000000000E+00 0. -1.
         23    2    1    2    0    0  0.40302644291E+02 -0.99807707441E+01 -0.35697564120E+03  0.37127217454E+03  0.93206760801E+02 0.  0.
         23    2    1    2    0    0 -0.40302644291E+02  0.99807707441E+01 -0.68356879030E+02  0.12157805589E+03  0.91567689949E+02 0.  0.
          5    1    4    4  502    0  0.18456739898E+02  0.27838724224E+02 -0.66258645387E+01  0.34374960290E+02  0.47000000000E+01 0. -1.
         -5    1    3    3    0  503  0.17448054670E+02 -0.50326061463E+02 -0.15415626242E+03  0.16316675617E+03  0.47000000000E+01 0.  1.
          5    1    3    3  503    0  0.22854589621E+02  0.40345290719E+02 -0.20281937878E+03  0.20810541838E+03  0.47000000000E+01 0. -1.
         -5    1    4    4    0  502 -0.58759384188E+02 -0.17857953480E+02 -0.61731014491E+02  0.87203095603E+02  0.47000000000E+01 0.  1.
<mgrwt>
<rscale>  0 0.10166053E+03</rscale>
<asrwt>0</asrwt>
<pdfrwt beam="1">  1        1 0.70629441E-01 0.10203636E+03</pdfrwt>
<pdfrwt beam="2">  1       -1 0.51936701E-02 0.10203636E+03</pdfrwt>
<totfact> 0.78717767E+03</totfact>
</mgrwt>
</event>
<event>
 8    1  0.2964543E-004  0.1094865E+03  0.7546771E-02  0.1263168E+00
          2   -1    0    0  501    0  0.00000000000E+00  0.00000000000E+00  0.57073765842E+02  0.57073765842E+02  0.00000000000E+00 0. -1.
         -2   -1    0    0    0  501 -0.00000000000E+00 -0.00000000000E+00 -0.24116884175E+03  0.24116884175E+03  0.00000000000E+00 0.  1.
         23    2    1    2    0    0 -0.29149087000E+02  0.44293516219E+02 -0.14978074579E+03  0.18350477098E+03  0.91804925312E+02 0.  0.
         23    2    1    2    0    0  0.29149087000E+02 -0.44293516219E+02 -0.34314330118E+02  0.11473783661E+03  0.95789942304E+02 0.  0.
          5    1    4    4  502    0  0.56193775806E+02 -0.67149290098E+01 -0.37563864318E+02  0.68087918263E+02  0.47000000000E+01 0. -1.
         -5    1    4    4    0  502 -0.27044688806E+02 -0.37578587209E+02  0.32495341999E+01  0.46649918347E+02  0.47000000000E+01 0.  1.
          5    1    3    3  503    0  0.29719565756E+02  0.22971781861E+02 -0.30136848117E+02  0.48386723024E+02  0.47000000000E+01 0. -1.
         -5    1    3    3    0  503 -0.58868652756E+02  0.21321734358E+02 -0.11964389767E+03  0.13511804795E+03  0.47000000000E+01 0.  1.
<mgrwt>
<rscale>  0 0.10860879E+03</rscale>
<asrwt>0</asrwt>
<pdfrwt beam="1">  1        2 0.87805793E-02 0.10948652E+03</pdfrwt>
<pdfrwt beam="2">  1       -2 0.37102899E-01 0.10948652E+03</pdfrwt>
<totfact> 0.48606008E+03</totfact>
</mgrwt>
</event>
<event>
 8    1  0.2964543E-004  0.1035747E+03  0.7546771E-02  0.1274499E+00
          3   -1    0    0  501    0  0.00000000000E+00  0.00000000000E+00  0.18705333067E+03  0.18705333067E+03  0.00000000000E+00 0. -1.
         -3   -1    0    0    0  501 -0.00000000000E+00 -0.00000000000E+00 -0.10412149808E+03  0.10412149808E+03  0.00000000000E+00 0.  1.
         23    2    1    2    0    0 -0.24328273500E+02 -0.36832691793E+02 -0.58155734681E+02  0.11615077950E+03  0.90334943549E+02 0.  0.
         23    2    1    2    0    0  0.24328273500E+02  0.36832691793E+02  0.14108756728E+03  0.17502404925E+03  0.93697407108E+02 0.  0.
          5    1    3    3  502    0 -0.41157036661E+02  0.68337541290E+00  0.38431984701E+01  0.41608038204E+02  0.47000000000E+01 0. -1.
         -5    1    3    3    0  502  0.16828763161E+02 -0.37516067206E+02 -0.61998933152E+02  0.74542741297E+02  0.47000000000E+01 0.  1.
          5    1    4    4  503    0 -0.35505461383E+02  0.14387902666E+02  0.64497681960E+02  0.75164423162E+02  0.47000000000E+01 0. -1.
         -5    1    4    4    0  503  0.59833734883E+02  0.22444789127E+02  0.76589885317E+02  0.99859626085E+02  0.47000000000E+01 0.  1.
<mgrwt>
<rscale>  0 0.10280833E+03</rscale>
<asrwt>0</asrwt>
<pdfrwt beam="1">  1        3 0.28777436E-01 0.10357469E+03</pdfrwt>
<pdfrwt beam="2">  1       -3 0.16018692E-01 0.10357469E+03</pdfrwt>
<totfact> 0.84881347E+02</totfact>
</mgrwt>
</event>
<event>
 8    1  0.2964543E-004  0.9930368E+02  0.7546771E-02  0.1284460E+00
          3   -1    0    0  501    0  0.00000000000E+00  0.00000000000E+00  0.52277121581E+03  0.52277121581E+03  0.00000000000E+00 0. -1.
         -3   -1    0    0    0  501 -0.00000000000E+00 -0.00000000000E+00 -0.35894483489E+02  0.35894483489E+02  0.00000000000E+00 0.  1.
         23    2    1    2    0    0 -0.18120495135E+02  0.44931506043E+01  0.43787823246E+03  0.44793145479E+03  0.92502437704E+02 0.  0.
         23    2    1    2    0    0  0.18120495135E+02 -0.44931506043E+01  0.48998499860E+02  0.11073424451E+03  0.97532964541E+02 0.  0.
          5    1    4    4  502    0 -0.20438045625E+02 -0.18545637546E+02  0.61503438496E+02  0.67575271570E+02  0.47000000000E+01 0. -1.
         -5    1    3    3    0  503 -0.40834257682E+02  0.35021019501E+02  0.30002796872E+03  0.30484878287E+03  0.47000000000E+01 0. -1.
          5    1    3    3  503    0  0.22713762547E+02 -0.30527868897E+02  0.13785026375E+03  0.14308267192E+03  0.47000000000E+01 0.  1.
         -5    1    4    4    0  502  0.38558540760E+02  0.14052486942E+02 -0.12504938636E+02  0.43158972938E+02  0.47000000000E+01 0.  1.
<mgrwt>
<rscale>  0 0.98045961E+02</rscale>
<asrwt>0</asrwt>
<pdfrwt beam="1">  1        3 0.80426336E-01 0.99303675E+02</pdfrwt>
<pdfrwt beam="2">  1       -3 0.55222286E-02 0.99303675E+02</pdfrwt>
<totfact> 0.63207211E+02</totfact>
</mgrwt>
</event>
<event>
 8    1  0.2964543E-004  0.1306863E+03  0.7546771E-02  0.1227007E+00
         -1   -1    0    0    0  501 -0.00000000000E+00  0.00000000000E+00  0.87798298031E+02  0.87798298031E+02  0.00000000000E+00 0.  1.
          1   -1    0    0  501    0  0.00000000000E+00 -0.00000000000E+00 -0.25331606999E+03  0.25331606999E+03  0.00000000000E+00 0. -1.
         23    2    1    2    0    0 -0.87368698510E+02  0.28618245644E+02 -0.16686349646E+03  0.21194891064E+03  0.92879603834E+02 0.  0.
         23    2    1    2    0    0  0.87368698510E+02 -0.28618245644E+02  0.13457244992E+01  0.12916545738E+03  0.90717203126E+02 0.  0.
          5    1    4    4  502    0  0.42723320917E+02 -0.59692938816E+02  0.87191181026E+01  0.74071871281E+02  0.47000000000E+01 0. -1.
         -5    1    3    3    0  503 -0.43228274971E+02 -0.19867268844E+02 -0.12546058321E+03  0.13426034436E+03  0.47000000000E+01 0.  1.
          5    1    3    3  503    0 -0.44140423539E+02  0.48485514488E+02 -0.41402913251E+02  0.77688566282E+02  0.47000000000E+01 0. -1.
         -5    1    4    4    0  502  0.44645377592E+02  0.31074693171E+02 -0.73733936034E+01  0.55093586099E+02  0.47000000000E+01 0.  1.
<mgrwt>
<rscale>  0 0.13030267E+03</rscale>
<asrwt>0</asrwt>
<pdfrwt beam="1">  1        1 0.38971702E-01 0.13068632E+03</pdfrwt>
<pdfrwt beam="2">  1       -1 0.13507431E-01 0.13068632E+03</pdfrwt>
<totfact> 0.39629491E+03</totfact>
</mgrwt>
</event>
<event>
 8    1  0.2964543E-004  0.1063956E+03  0.7546771E-02  0.1267702E+00
         -1   -1    0    0    0  501 -0.00000000000E+00  0.00000000000E+00  0.64971698508E+02  0.64971698508E+02  0.00000000000E+00 0.  1.
          1   -1    0    0  501    0  0.00000000000E+00 -0.00000000000E+00 -0.18221559595E+03  0.18221559595E+03  0.00000000000E+00 0. -1.
         23    2    1    2    0    0 -0.15440600116E+02  0.51088965202E+02 -0.30953123551E+02  0.11019778336E+03  0.91306960869E+02 0.  0.
         23    2    1    2    0    0  0.15440600116E+02 -0.51088965202E+02 -0.86290773888E+02  0.13698951109E+03  0.92040936509E+02 0.  0.
          5    1    3    3  502    0  0.37039068537E+02  0.15895818334E+02 -0.22139084143E+02  0.46225519849E+02  0.47000000000E+01 0. -1.
         -5    1    3    3    0  502 -0.52479668653E+02  0.35193146868E+02 -0.88140394076E+01  0.63972263514E+02  0.47000000000E+01 0.  1.
          5    1    4    4  503    0  0.45273123569E+02 -0.82090806756E+00 -0.24095693339E+02  0.51507495040E+02  0.47000000000E+01 0. -1.
         -5    1    4    4    0  503 -0.29832523454E+02 -0.50268057135E+02 -0.62195080549E+02  0.85482016051E+02  0.47000000000E+01 0.  1.
<mgrwt>
<rscale>  0 0.10623669E+03</rscale>
<asrwt>0</asrwt>
<pdfrwt beam="1">  1        1 0.28033169E-01 0.10639562E+03</pdfrwt>
<pdfrwt beam="2">  1       -1 0.99956460E-02 0.10639562E+03</pdfrwt>
<totfact> 0.93166149E+03</totfact>
</mgrwt>
</event>
<event>
 8    1  0.2964543E-004  0.9138483E+02  0.7546771E-02  0.1302120E+00
          1   -1    0    0  501    0  0.00000000000E+00  0.00000000000E+00  0.86721915588E+03  0.86721915588E+03  0.00000000000E+00 0. -1.
         -1   -1    0    0    0  501 -0.00000000000E+00 -0.00000000000E+00 -0.25894946104E+02  0.25894946104E+02  0.00000000000E+00 0.  1.
         23    2    1    2    0    0  0.20667018611E+02 -0.69503760846E+01  0.65553171660E+02  0.11246513264E+03  0.88745446975E+02 0.  0.
         23    2    1    2    0    0 -0.20667018611E+02  0.69503760846E+01  0.77577103812E+03  0.78064896935E+03  0.84360395778E+02 0.  0.
          5    1    3    3  502    0  0.24621458071E+02 -0.41989193539E+02  0.58416435633E+02  0.76183190558E+02  0.47000000000E+01 0. -1.
         -5    1    4    4    0  503 -0.63504821096E+01  0.45128346134E+02  0.43994069514E+03  0.44231979550E+03  0.47000000000E+01 0.  1.
          5    1    4    4  503    0 -0.14316536501E+02 -0.38177970049E+02  0.33583034298E+03  0.33832917385E+03  0.47000000000E+01 0. -1.
         -5    1    3    3    0  502 -0.39544394597E+01  0.35038817454E+02  0.71367360274E+01  0.36281942081E+02  0.47000000000E+01 0.  1.
<mgrwt>
<rscale>  0 0.90302735E+02</rscale>
<asrwt>0</asrwt>
<pdfrwt beam="1">  1        1 0.13341831E+00 0.91384833E+02</pdfrwt>
<pdfrwt beam="2">  1       -1 0.39838385E-02 0.91384833E+02</pdfrwt>
<totfact> 0.47982543E+03</totfact>
</mgrwt>
</event>
<event>
 8    1  0.2964543E-004  0.1084919E+03  0.7546771E-02  0.1264281E+00
          1   -1    0    0  501    0  0.00000000000E+00  0.00000000000E+00  0.22618481009E+03  0.22618481009E+03  0.00000000000E+00 0. -1.
         -1   -1    0    0    0  501 -0.00000000000E+00 -0.00000000000E+00 -0.66932236962E+02  0.66932236962E+02  0.00000000000E+00 0.  1.
         23    2    1    2    0    0 -0.58723592179E+02 -0.10568195346E+02  0.89775470456E+01  0.10886269378E+03  0.90610941477E+02 0.  0.
         23    2    1    2    0    0  0.58723592179E+02  0.10568195346E+02  0.15027502608E+03  0.18425435327E+03  0.88356868458E+02 0.  0.
          5    1    4    4  502    0  0.20606590389E+02  0.40369297434E+02  0.11640676021E+03  0.12500774203E+03  0.47000000000E+01 0.  1.
         -5    1    4    4    0  502  0.38117001790E+02 -0.29801102088E+02  0.33868265870E+02  0.59246611247E+02  0.47000000000E+01 0. -1.
          5    1    3    3  503    0 -0.17980467095E+02 -0.48576434150E+02  0.98705236546E+01  0.52938496285E+02  0.47000000000E+01 0. -1.
         -5    1    3    3    0  503 -0.40743125084E+02  0.38008238803E+02 -0.89297660899E+00  0.55924197498E+02  0.47000000000E+01 0.  1.
<mgrwt>
<rscale>  0 0.10801998E+03</rscale>
<asrwt>0</asrwt>
<pdfrwt beam="1">  1        1 0.34797663E-01 0.10849189E+03</pdfrwt>
<pdfrwt beam="2">  1       -1 0.10297267E-01 0.10849189E+03</pdfrwt>
<totfact> 0.68322646E+03</totfact>
</mgrwt>
</event>
<event>
 8    1  0.2964543E-004  0.1660416E+03  0.7546771E-02  0.1182484E+00
         -1   -1    0    0    0  501 -0.00000000000E+00  0.00000000000E+00  0.89883869472E+02  0.89883869472E+02  0.00000000000E+00 0.  1.
          1   -1    0    0  501    0  0.00000000000E+00 -0.00000000000E+00 -0.33614579526E+03  0.33614579526E+03  0.00000000000E+00 0. -1.
         23    2    1    2    0    0 -0.13175199803E+03  0.37619756292E+02 -0.57503879471E+02  0.17571714013E+03  0.93786897440E+02 0.  0.
         23    2    1    2    0    0  0.13175199803E+03 -0.37619756292E+02 -0.18875804632E+03  0.25031252460E+03  0.90845610107E+02 0.  0.
          5    1    3    3  502    0 -0.88102693323E+02  0.30119882817E+01 -0.76358154944E+02  0.11672109694E+03  0.47000000000E+01 0. -1.
         -5    1    3    3    0  502 -0.43649304708E+02  0.34607768011E+02  0.18854275473E+02  0.58996043188E+02  0.47000000000E+01 0.  1.
          5    1    4    4  503    0  0.88867891573E+01 -0.18580732594E+02 -0.87150897219E+02  0.89674899115E+02  0.47000000000E+01 0. -1.
         -5    1    4    4    0  503  0.12286520887E+03 -0.19039023698E+02 -0.10160714910E+03  0.16063762549E+03  0.47000000000E+01 0.  1.
<mgrwt>
<rscale>  0 0.16562922E+03</rscale>
<asrwt>0</asrwt>
<pdfrwt beam="1">  1        1 0.51714737E-01 0.16604161E+03</pdfrwt>
<pdfrwt beam="2">  1       -1 0.13828288E-01 0.16604161E+03</pdfrwt>
<totfact> 0.27183779E+03</totfact>
</mgrwt>
</event>
<event>
 8    1  0.2964543E-004  0.9312252E+02  0.7546771E-02  0.1297021E+00
         -4   -1    0    0    0  501 -0.00000000000E+00  0.00000000000E+00  0.27764544972E+03  0.27764544972E+03  0.00000000000E+00 0.  1.
          4   -1    0    0  501    0  0.00000000000E+00 -0.00000000000E+00 -0.30425419754E+02  0.30425419754E+02  0.00000000000E+00 0. -1.
         23    2    1    2    0    0  0.16832273411E+02  0.10469534926E+02  0.11413649549E+03  0.14564232836E+03  0.88270106022E+02 0.  0.
         23    2    1    2    0    0 -0.16832273411E+02 -0.10469534926E+02  0.13308353448E+03  0.16242854112E+03  0.90988280731E+02 0.  0.
          5    1    4    4  502    0  0.77972450623E+01 -0.40115399735E+02  0.26348356380E+02  0.48850467863E+02  0.47000000000E+01 0. -1.
         -5    1    3    3    0  503 -0.17274304627E+02  0.38968762927E+02  0.74219234022E+02  0.85717855685E+02  0.47000000000E+01 0.  1.
          5    1    3    3  503    0  0.34106578038E+02 -0.28499228000E+02  0.39917261465E+02  0.59924472671E+02  0.47000000000E+01 0. -1.
         -5    1    4    4    0  502 -0.24629518473E+02  0.29645864809E+02  0.10673517810E+03  0.11357807325E+03  0.47000000000E+01 0.  1.
<mgrwt>
<rscale>  0 0.92451802E+02</rscale>
<asrwt>0</asrwt>
<pdfrwt beam="1">  1        4 0.46808340E-02 0.93122520E+02</pdfrwt>
<pdfrwt beam="2">  1       -4 0.42714683E-01 0.93122520E+02</pdfrwt>
<totfact> 0.21250703E+03</totfact>
</mgrwt>
</event>
<event>
 8    1  0.2964543E-004  0.1272693E+03  0.7546771E-02  0.1232094E+00
          1   -1    0    0  501    0  0.00000000000E+00  0.00000000000E+00  0.12030765173E+04  0.12030765173E+04  0.00000000000E+00 0. -1.
         -1   -1    0    0    0  501 -0.00000000000E+00 -0.00000000000E+00 -0.13656221377E+02  0.13656221377E+02  0.00000000000E+00 0.  1.
         23    2    1    2    0    0 -0.35591750645E+02  0.82739797517E+02  0.50211266176E+03  0.51799092804E+03  0.89915680676E+02 0.  0.
         23    2    1    2    0    0  0.35591750645E+02 -0.82739797517E+02  0.68730763416E+03  0.69874181063E+03  0.87952755150E+02 0.  0.
          5    1    3    3  502    0  0.23513953845E+02 -0.11686175926E+01  0.11471931845E+03  0.11720445264E+03  0.47000000000E+01 0. -1.
         -5    1    4    4    0  503 -0.23829403457E+02 -0.54861587096E+02  0.34090110615E+03  0.34614056160E+03  0.47000000000E+01 0.  1.
          5    1    4    4  503    0  0.59421154102E+02 -0.27878210421E+02  0.34640652801E+03  0.35260124903E+03  0.47000000000E+01 0. -1.
         -5    1    3    3    0  502 -0.59105704490E+02  0.83908415110E+02  0.38739334331E+03  0.40078647540E+03  0.47000000000E+01 0.  1.
<mgrwt>
<rscale>  0 0.12692311E+03</rscale>
<asrwt>0</asrwt>
<pdfrwt beam="1">  1        1 0.18508861E+00 0.12726931E+03</pdfrwt>
<pdfrwt beam="2">  1       -1 0.21009581E-02 0.12726931E+03</pdfrwt>
<totfact> 0.70557613E+03</totfact>
</mgrwt>
</event>
<event>
 8    1  0.2964543E-004  0.1001982E+03  0.7546771E-02  0.1288183E+00
         -1   -1    0    0    0  501 -0.00000000000E+00  0.00000000000E+00  0.15855649997E+02  0.15855649997E+02  0.00000000000E+00 0.  1.
          1   -1    0    0  501    0  0.00000000000E+00 -0.00000000000E+00 -0.54509585795E+03  0.54509585795E+03  0.00000000000E+00 0. -1.
         23    2    1    2    0    0 -0.39383134579E+02  0.12551982181E+02 -0.23495511570E+03  0.25007631374E+03  0.75004484895E+02 0.  0.
         23    2    1    2    0    0  0.39383134579E+02 -0.12551982181E+02 -0.29428509225E+03  0.31087519420E+03  0.91274790086E+02 0.  0.
          5    1    3    3  502    0  0.17868382442E+02  0.11317193098E+02 -0.28655189700E+02  0.35924474213E+02  0.47000000000E+01 0. -1.
         -5    1    3    3    0  502 -0.57251517022E+02  0.12347890823E+01 -0.20629992600E+03  0.21415183953E+03  0.47000000000E+01 0.  1.
          5    1    4    4  503    0  0.31952343320E+02  0.33631093309E+02 -0.20192461789E+03  0.20723813353E+03  0.47000000000E+01 0. -1.
         -5    1    4    4    0  503  0.74307912595E+01 -0.46183075489E+02 -0.92360474358E+02  0.10363706067E+03  0.47000000000E+01 0.  1.
<mgrwt>
<rscale>  0 0.96341702E+02</rscale>
<asrwt>0</asrwt>
<pdfrwt beam="1">  1        1 0.83860894E-01 0.10019816E+03</pdfrwt>
<pdfrwt beam="2">  1       -1 0.24393310E-02 0.10019816E+03</pdfrwt>
<totfact> 0.18869973E+04</totfact>
</mgrwt>
</event>
<event>
 8    1  0.2964543E-004  0.9350228E+02  0.7546771E-02  0.1301698E+00
         -3   -1    0    0    0  501 -0.00000000000E+00  0.00000000000E+00  0.13369225990E+03  0.13369225990E+03  0.00000000000E+00 0.  1.
          3   -1    0    0  501    0  0.00000000000E+00 -0.00000000000E+00 -0.67847071202E+02  0.67847071202E+02  0.00000000000E+00 0. -1.
         23    2    1    2    0    0 -0.16880357791E+02 -0.27919744662E+01 -0.80341693165E+01  0.82372071374E+02  0.80173989955E+02 0.  0.
         23    2    1    2    0    0  0.16880357791E+02  0.27919744662E+01  0.73879358019E+02  0.11916725973E+03  0.91923526098E+02 0.  0.
          5    1    4    4  502    0  0.37703995479E+02  0.32041076420E+01 -0.40693408003E+01  0.38347191754E+02  0.47000000000E+01 0. -1.
         -5    1    3    3    0  503 -0.28388835986E+02  0.27085438355E+02  0.15405718563E+02  0.42414303530E+02  0.47000000000E+01 0.  1.
          5    1    3    3  503    0  0.11508478195E+02 -0.29877412821E+02 -0.23439887879E+02  0.39957767844E+02  0.47000000000E+01 0. -1.
         -5    1    4    4    0  502 -0.20823637688E+02 -0.41213317580E+00  0.77948698820E+02  0.80820067978E+02  0.47000000000E+01 0.  1.
<mgrwt>
<rscale>  0 0.90477947E+02</rscale>
<asrwt>0</asrwt>
<pdfrwt beam="1">  1        3 0.10438011E-01 0.93502279E+02</pdfrwt>
<pdfrwt beam="2">  1       -3 0.20568040E-01 0.93502279E+02</pdfrwt>
<totfact> 0.31100298E+03</totfact>
</mgrwt>
</event>
<event>
 8    1  0.2964543E-004  0.9393912E+02  0.7546771E-02  0.1298076E+00
          3   -1    0    0  501    0  0.00000000000E+00  0.00000000000E+00  0.14143160562E+02  0.14143160562E+02  0.00000000000E+00 0. -1.
         -3   -1    0    0    0  501 -0.00000000000E+00 -0.00000000000E+00 -0.62205843623E+03  0.62205843623E+03  0.00000000000E+00 0.  1.
         23    2    1    2    0    0  0.25318804806E+02 -0.25233039699E+02 -0.40304890070E+03  0.41385139192E+03  0.86872378042E+02 0.  0.
         23    2    1    2    0    0 -0.25318804806E+02  0.25233039699E+02 -0.20486637497E+03  0.22235020488E+03  0.78686935680E+02 0.  0.
          5    1    4    4  502    0 -0.48020511073E+02  0.26782304975E+02 -0.93371636160E+02  0.10846019446E+03  0.47000000000E+01 0. -1.
         -5    1    3    3    0  503  0.36267692513E+02 -0.51903795653E+02 -0.30523015284E+03  0.31176415081E+03  0.47000000000E+01 0.  1.
          5    1    3    3  503    0 -0.10948887707E+02  0.26670755955E+02 -0.97818747856E+02  0.10208724111E+03  0.47000000000E+01 0. -1.
         -5    1    4    4    0  502  0.22701706267E+02 -0.15492652759E+01 -0.11149473881E+03  0.11389001042E+03  0.47000000000E+01 0.  1.
<mgrwt>
<rscale>  0 0.92001615E+02</rscale>
<asrwt>0</asrwt>
<pdfrwt beam="1">  1        3 0.21758709E-02 0.93939120E+02</pdfrwt>
<pdfrwt beam="2">  1       -3 0.95701295E-01 0.93939120E+02</pdfrwt>
<totfact> 0.17982178E+03</totfact>
</mgrwt>
</event>
<event>
 8    1  0.2964543E-004  0.1236999E+03  0.7546771E-02  0.1237581E+00
         -1   -1    0    0    0  501 -0.00000000000E+00  0.00000000000E+00  0.53803826823E+02  0.53803826823E+02  0.00000000000E+00 0.  1.
          1   -1    0    0  501    0  0.00000000000E+00 -0.00000000000E+00 -0.54604491878E+03  0.54604491878E+03  0.00000000000E+00 0. -1.
         23    2    1    2    0    0  0.81245728290E+02  0.14712926131E+02 -0.45539910353E+03  0.47190041124E+03  0.92110347265E+02 0.  0.
         23    2    1    2    0    0 -0.81245728290E+02 -0.14712926131E+02 -0.36841988422E+02  0.12794833436E+03  0.90532345564E+02 0.  0.
          5    1    3    3  502    0  0.57238324070E+02 -0.35337365417E+02 -0.27149037243E+03  0.27973928480E+03  0.47000000000E+01 0. -1.
         -5    1    3    3    0  502  0.24007404220E+02  0.50050291547E+02 -0.18390873110E+03  0.19216112645E+03  0.47000000000E+01 0.  1.
          5    1    4    4  503    0  0.18507115443E+01  0.28006929223E+02 -0.13654367966E+02  0.31564932794E+02  0.47000000000E+01 0. -1.
         -5    1    4    4    0  503 -0.83096439834E+02 -0.42719855354E+02 -0.23187620456E+02  0.96383401564E+02  0.47000000000E+01 0.  1.
<mgrwt>
<rscale>  0 0.12340619E+03</rscale>
<asrwt>0</asrwt>
<pdfrwt beam="1">  1        1 0.84006911E-01 0.12369986E+03</pdfrwt>
<pdfrwt beam="2">  1       -1 0.82775118E-02 0.12369986E+03</pdfrwt>
<totfact> 0.31766281E+03</totfact>
</mgrwt>
</event>
<event>
 8    1  0.2964543E-004  0.1007313E+03  0.7546771E-02  0.1280427E+00
         -2   -1    0    0    0  501 -0.00000000000E+00  0.00000000000E+00  0.23810722698E+02  0.23810722698E+02  0.00000000000E+00 0.  1.
          2   -1    0    0  501    0  0.00000000000E+00 -0.00000000000E+00 -0.67835764714E+03  0.67835764714E+03  0.00000000000E+00 0. -1.
         23    2    1    2    0    0  0.33880997414E+02 -0.33838537105E+01 -0.10454774046E+03  0.14302089653E+03  0.91462420469E+02 0.  0.
         23    2    1    2    0    0 -0.33880997414E+02  0.33838537105E+01 -0.54999918399E+03  0.55914747331E+03  0.94802015127E+02 0.  0.
          5    1    4    4  502    0  0.15278621702E+02  0.32529805465E+02 -0.32259372427E+03  0.32462351341E+03  0.47000000000E+01 0. -1.
         -5    1    3    3    0  503  0.57579350501E+02  0.22337195916E+02 -0.60530236738E+02  0.86604454187E+02  0.47000000000E+01 0.  1.
          5    1    3    3  503    0 -0.23698353087E+02 -0.25721049627E+02 -0.44017503723E+02  0.56416442346E+02  0.47000000000E+01 0. -1.
         -5    1    4    4    0  502 -0.49159619116E+02 -0.29145951755E+02 -0.22740545972E+03  0.23452395989E+03  0.47000000000E+01 0.  1.
<mgrwt>
<rscale>  0 0.99937851E+02</rscale>
<asrwt>0</asrwt>
<pdfrwt beam="1">  1        2 0.10436272E+00 0.10073130E+03</pdfrwt>
<pdfrwt beam="2">  1       -2 0.36631878E-02 0.10073130E+03</pdfrwt>
<totfact> 0.12744572E+04</totfact>
</mgrwt>
</event>
<event>
 8    1  0.2964543E-004  0.1595529E+03  0.7546771E-02  0.1190521E+00
         -2   -1    0    0    0  501 -0.00000000000E+00  0.00000000000E+00  0.39778879571E+02  0.39778879571E+02  0.00000000000E+00 0.  1.
          2   -1    0    0  501    0  0.00000000000E+00 -0.00000000000E+00 -0.67287822534E+03  0.67287822534E+03  0.00000000000E+00 0. -1.
         23    2    1    2    0    0 -0.11162603440E+03 -0.40948963484E+02 -0.21404777569E+03  0.26425847373E+03  0.99392663162E+02 0.  0.
         23    2    1    2    0    0  0.11162603440E+03  0.40948963484E+02 -0.41905157008E+03  0.44839863119E+03  0.10639513570E+03 0.  0.
          5    1    4    4  502    0  0.99929205077E+01  0.40921951667E+02 -0.22838578868E+03  0.23228564971E+03  0.47000000000E+01 0. -1.
         -5    1    3    3    0  503 -0.90904507938E+02 -0.56985976222E+02 -0.98633376949E+02  0.14581379941E+03  0.47000000000E+01 0.  1.
          5    1    3    3  503    0 -0.20721526459E+02  0.16037012739E+02 -0.11541439875E+03  0.11844467432E+03  0.47000000000E+01 0. -1.
         -5    1    4    4    0  502  0.10163311389E+03  0.27011816581E-01 -0.19066578139E+03  0.21611298148E+03  0.47000000000E+01 0.  1.
<mgrwt>
<rscale>  0 0.15839491E+03</rscale>
<asrwt>0</asrwt>
<pdfrwt beam="1">  1        2 0.10351973E+00 0.15955286E+03</pdfrwt>
<pdfrwt beam="2">  1       -2 0.61198275E-02 0.15955286E+03</pdfrwt>
<totfact> 0.61479951E+03</totfact>
</mgrwt>
</event>
<event>
 8    1  0.2964543E-004  0.1021589E+03  0.7546771E-02  0.1276536E+00
         -1   -1    0    0    0  501 -0.00000000000E+00  0.00000000000E+00  0.21861547328E+03  0.21861547328E+03  0.00000000000E+00 0.  1.
          1   -1    0    0  501    0  0.00000000000E+00 -0.00000000000E+00 -0.41266899249E+03  0.41266899249E+03  0.00000000000E+00 0. -1.
         23    2    1    2    0    0 -0.41933542221E+02 -0.71379498403E+01  0.20013530966E+03  0.22407288058E+03  0.91351745175E+02 0.  0.
         23    2    1    2    0    0  0.41933542221E+02  0.71379498403E+01 -0.39418882888E+03  0.40721158519E+03  0.92882021962E+02 0.  0.
          5    1    4    4  502    0  0.54098081270E+02  0.38923904638E+02 -0.28591812648E+03  0.29362039745E+03  0.47000000000E+01 0. -1.
         -5    1    4    4    0  502 -0.12164539048E+02 -0.31785954798E+02 -0.10827070240E+03  0.11359118774E+03  0.47000000000E+01 0.  1.
          5    1    3    3  503    0 -0.92846938572E+01 -0.39214301584E+02  0.38189577377E+02  0.55718047426E+02  0.47000000000E+01 0. -1.
         -5    1    3    3    0  503 -0.32648848364E+02  0.32076351744E+02  0.16194573229E+03  0.16835483316E+03  0.47000000000E+01 0.  1.
<mgrwt>
<rscale>  0 0.10180980E+03</rscale>
<asrwt>0</asrwt>
<pdfrwt beam="1">  1        1 0.63487537E-01 0.10215891E+03</pdfrwt>
<pdfrwt beam="2">  1       -1 0.33633150E-01 0.10215891E+03</pdfrwt>
<totfact> 0.49380702E+02</totfact>
</mgrwt>
</event>
<event>
 8    1  0.2964543E-004  0.9160331E+02  0.7546771E-02  0.1307411E+00
         -1   -1    0    0    0  501 -0.00000000000E+00  0.00000000000E+00  0.43357728484E+02  0.43357728484E+02  0.00000000000E+00 0.  1.
          1   -1    0    0  501    0  0.00000000000E+00 -0.00000000000E+00 -0.19253406400E+03  0.19253406400E+03  0.00000000000E+00 0. -1.
         23    2    1    2    0    0  0.76710751015E+01  0.42836622540E+01 -0.11254959670E+03  0.13723741961E+03  0.78035264263E+02 0.  0.
         23    2    1    2    0    0 -0.76710751015E+01 -0.42836622540E+01 -0.36626738823E+02  0.98654372880E+02  0.91180985605E+02 0.  0.
          5    1    4    4  502    0 -0.23315795856E+02  0.38035493985E+02 -0.96820598973E+01  0.45892890767E+02  0.47000000000E+01 0. -1.
         -5    1    3    3    0  503  0.23709950284E+02 -0.24291930158E+02 -0.21742557666E+02  0.40584337214E+02  0.47000000000E+01 0.  1.
          5    1    3    3  503    0 -0.16038875182E+02  0.28575592412E+02 -0.90807039031E+02  0.96653082395E+02  0.47000000000E+01 0. -1.
         -5    1    4    4    0  502  0.15644720754E+02 -0.42319156239E+02 -0.26944678926E+02  0.52761482112E+02  0.47000000000E+01 0.  1.
<mgrwt>
<rscale>  0 0.88143436E+02</rscale>
<asrwt>0</asrwt>
<pdfrwt beam="1">  1        1 0.29620626E-01 0.91603315E+02</pdfrwt>
<pdfrwt beam="2">  1       -1 0.66704197E-02 0.91603315E+02</pdfrwt>
<totfact> 0.15732009E+04</totfact>
</mgrwt>
</event>
<event>
 8    1  0.2964543E-004  0.9368858E+02  0.7546771E-02  0.1294957E+00
         -1   -1    0    0    0  501 -0.00000000000E+00  0.00000000000E+00  0.66705507913E+02  0.66705507913E+02  0.00000000000E+00 0.  1.
          1   -1    0    0  501    0  0.00000000000E+00 -0.00000000000E+00 -0.23906599026E+03  0.23906599026E+03  0.00000000000E+00 0. -1.
         23    2    1    2    0    0  0.27216602406E+01  0.15166707753E+02  0.17595670138E+02  0.93967603806E+02  0.91010254910E+02 0.  0.
         23    2    1    2    0    0 -0.27216602406E+01 -0.15166707753E+02 -0.18995615249E+03  0.21180389437E+03  0.92412733666E+02 0.  0.
          5    1    4    4  502    0  0.36658860896E+02 -0.32463228410E+02 -0.11796974577E+03  0.12781503901E+03  0.47000000000E+01 0. -1.
         -5    1    3    3    0  503 -0.75462177561E+01  0.37476558079E+02  0.43406098601E+02  0.58031174412E+02  0.47000000000E+01 0.  1.
          5    1    3    3  503    0  0.10267877997E+02 -0.22309850326E+02 -0.25810428463E+02  0.35936429394E+02  0.47000000000E+01 0. -1.
         -5    1    4    4    0  502 -0.39380521137E+02  0.17296520657E+02 -0.71986406714E+02  0.83988855352E+02  0.47000000000E+01 0.  1.
<mgrwt>
<rscale>  0 0.93340875E+02</rscale>
<asrwt>0</asrwt>
<pdfrwt beam="1">  1        1 0.36779383E-01 0.93688579E+02</pdfrwt>
<pdfrwt beam="2">  1       -1 0.10262386E-01 0.93688579E+02</pdfrwt>
<totfact> 0.63468744E+03</totfact>
</mgrwt>
</event>
<event>
 8    1  0.2964543E-004  0.1040961E+03  0.7546771E-02  0.1278390E+00
          2   -1    0    0  501    0  0.00000000000E+00  0.00000000000E+00  0.25458544552E+03  0.25458544552E+03  0.00000000000E+00 0. -1.
         -2   -1    0    0    0  501 -0.00000000000E+00 -0.00000000000E+00 -0.37950424283E+02  0.37950424283E+02  0.00000000000E+00 0.  1.
         23    2    1    2    0    0  0.14854144067E+02 -0.14754126490E+02  0.12601002299E+03  0.16344578850E+03  0.10196896606E+03 0.  0.
         23    2    1    2    0    0 -0.14854144067E+02  0.14754126490E+02  0.90624998255E+02  0.12909008131E+03  0.89515523455E+02 0.  0.
          5    1    3    3  502    0  0.15732083802E+02  0.27058738261E+02  0.11592618783E+03  0.12016923401E+03  0.47000000000E+01 0. -1.
         -5    1    3    3    0  502 -0.87793973541E+00 -0.41812864752E+02  0.10083835154E+02  0.43276554488E+02  0.47000000000E+01 0.  1.
          5    1    4    4  503    0 -0.22862024597E+02  0.42589408849E+02  0.19835801984E+02  0.52460260723E+02  0.47000000000E+01 0. -1.
         -5    1    4    4    0  503  0.80078805302E+01 -0.27835282358E+02  0.70789196271E+02  0.76629820587E+02  0.47000000000E+01 0.  1.
<mgrwt>
<rscale>  0 0.10091174E+03</rscale>
<asrwt>0</asrwt>
<pdfrwt beam="1">  1        2 0.39166991E-01 0.10409611E+03</pdfrwt>
<pdfrwt beam="2">  1       -2 0.58385270E-02 0.10409611E+03</pdfrwt>
<totfact> 0.18376580E+04</totfact>
</mgrwt>
</event>
<event>
 8    1  0.2964543E-004  0.9798249E+02  0.7546771E-02  0.1285555E+00
          3   -1    0    0  501    0  0.00000000000E+00  0.00000000000E+00  0.24622884175E+02  0.24622884175E+02  0.00000000000E+00 0. -1.
         -3   -1    0    0    0  501 -0.00000000000E+00 -0.00000000000E+00 -0.49347591092E+03  0.49347591092E+03  0.00000000000E+00 0.  1.
         23    2    1    2    0    0 -0.25111681355E+02  0.14593822288E+02 -0.35866967638E+03  0.37181245864E+03  0.93578798130E+02 0.  0.
         23    2    1    2    0    0  0.25111681355E+02 -0.14593822288E+02 -0.11018335037E+03  0.14628633645E+03  0.91737371583E+02 0.  0.
          5    1    4    4  502    0 -0.17030826531E+02 -0.34122202253E+02 -0.16907774693E+02  0.41980192758E+02  0.47000000000E+01 0. -1.
         -5    1    4    4    0  502  0.42142507886E+02  0.19528379965E+02 -0.93275575673E+02  0.10430614369E+03  0.47000000000E+01 0.  1.
          5    1    3    3  503    0 -0.98289237226E+01 -0.34365685820E+02 -0.71653285539E+02  0.80211541763E+02  0.47000000000E+01 0. -1.
         -5    1    3    3    0  503 -0.15282757633E+02  0.48959508109E+02 -0.28701639084E+03  0.29160091688E+03  0.47000000000E+01 0.  1.
<mgrwt>
<rscale>  0 0.97540222E+02</rscale>
<asrwt>0</asrwt>
<pdfrwt beam="1">  1        3 0.37881364E-02 0.97982486E+02</pdfrwt>
<pdfrwt beam="2">  1       -3 0.75919364E-01 0.97982486E+02</pdfrwt>
<totfact> 0.12847477E+03</totfact>
</mgrwt>
</event>
<event>
 8    1  0.2964543E-004  0.1184675E+03  0.7546771E-02  0.1246216E+00
          1   -1    0    0  501    0  0.00000000000E+00  0.00000000000E+00  0.10574565770E+03  0.10574565770E+03  0.00000000000E+00 0. -1.
         -1   -1    0    0    0  501 -0.00000000000E+00 -0.00000000000E+00 -0.13156859862E+03  0.13156859862E+03  0.00000000000E+00 0.  1.
         23    2    1    2    0    0  0.72150640045E+01  0.75996448785E+02 -0.66633912478E+01  0.11730747677E+03  0.88820751786E+02 0.  0.
         23    2    1    2    0    0 -0.72150640045E+01 -0.75996448785E+02 -0.19159549673E+02  0.12000677955E+03  0.90592612381E+02 0.  0.
          5    1    3    3  502    0 -0.34151916895E+02  0.36435198085E+02  0.19985319537E+02  0.53994259733E+02  0.47000000000E+01 0. -1.
         -5    1    3    3    0  502  0.41366980900E+02  0.39561250700E+02 -0.26648710785E+02  0.63313217042E+02  0.47000000000E+01 0.  1.
          5    1    4    4  503    0 -0.21462710977E+02 -0.25271841277E+02  0.32071442724E+02  0.46367891502E+02  0.47000000000E+01 0. -1.
         -5    1    4    4    0  503  0.14247646972E+02 -0.50724607509E+02 -0.51230992396E+02  0.73638888049E+02  0.47000000000E+01 0.  1.
<mgrwt>
<rscale>  0 0.11812866E+03</rscale>
<asrwt>0</asrwt>
<pdfrwt beam="1">  1        1 0.16268563E-01 0.11846746E+03</pdfrwt>
<pdfrwt beam="2">  1       -1 0.20241323E-01 0.11846746E+03</pdfrwt>
<totfact> 0.62234153E+03</totfact>
</mgrwt>
</event>
<event>
 8    1  0.2964543E-004  0.9597245E+02  0.7546771E-02  0.1292433E+00
          2   -1    0    0  501    0  0.00000000000E+00  0.00000000000E+00  0.62366976690E+03  0.62366976690E+03  0.00000000000E+00 0. -1.
         -2   -1    0    0    0  501 -0.00000000000E+00 -0.00000000000E+00 -0.13973537534E+02  0.13973537534E+02  0.00000000000E+00 0.  1.
         23    2    1    2    0    0  0.22710786246E+01  0.20747461185E+02  0.26696399749E+03  0.28172745110E+03  0.87549790415E+02 0.  0.
         23    2    1    2    0    0 -0.22710786246E+01 -0.20747461185E+02  0.34273223187E+03  0.35591585333E+03  0.93675487436E+02 0.  0.
          5    1    4    4  502    0  0.13501147782E+02 -0.43270168848E+02  0.30807465058E+03  0.31142682741E+03  0.47000000000E+01 0. -1.
         -5    1    3    3    0  503 -0.31277574783E+02  0.37751190924E+02  0.18465866942E+03  0.19111345659E+03  0.47000000000E+01 0.  1.
          5    1    3    3  503    0  0.33548653407E+02 -0.17003729739E+02  0.82305328072E+02  0.90613994502E+02  0.47000000000E+01 0. -1.
         -5    1    4    4    0  502 -0.15772226407E+02  0.22522707663E+02  0.34657581298E+02  0.44489025924E+02  0.47000000000E+01 0.  1.
<mgrwt>
<rscale>  0 0.94444021E+02</rscale>
<asrwt>0</asrwt>
<pdfrwt beam="1">  1        2 0.95949173E-01 0.95972454E+02</pdfrwt>
<pdfrwt beam="2">  1       -2 0.21497755E-02 0.95972454E+02</pdfrwt>
<totfact> 0.30330251E+04</totfact>
</mgrwt>
</event>
<event>
 8    1  0.2964543E-004  0.1116339E+03  0.7546771E-02  0.1257818E+00
         -1   -1    0    0    0  501 -0.00000000000E+00  0.00000000000E+00  0.20710935566E+03  0.20710935566E+03  0.00000000000E+00 0.  1.
          1   -1    0    0  501    0  0.00000000000E+00 -0.00000000000E+00 -0.19796360409E+03  0.19796360409E+03  0.00000000000E+00 0. -1.
         23    2    1    2    0    0 -0.41402102526E+02  0.46819572186E+02 -0.16458255575E+03  0.19856956501E+03  0.91849050406E+02 0.  0.
         23    2    1    2    0    0  0.41402102526E+02 -0.46819572186E+02  0.17372830731E+03  0.20650339474E+03  0.92498220751E+02 0.  0.
          5    1    4    4  502    0 -0.49383241270E+01  0.24280314050E+02  0.54785386689E+02  0.60311270010E+02  0.47000000000E+01 0. -1.
         -5    1    4    4    0  502  0.46340426653E+02 -0.71099886236E+02  0.11894292062E+03  0.14619212473E+03  0.47000000000E+01 0.  1.
          5    1    3    3  503    0 -0.25854420173E+02  0.28411645939E+02 -0.16921734772E+03  0.17358650131E+03  0.47000000000E+01 0. -1.
         -5    1    3    3    0  503 -0.15547682353E+02  0.18407926247E+02  0.46347919762E+01  0.24983063702E+02  0.47000000000E+01 0.  1.
<mgrwt>
<rscale>  0 0.11149933E+03</rscale>
<asrwt>0</asrwt>
<pdfrwt beam="1">  1        1 0.30455939E-01 0.11163390E+03</pdfrwt>
<pdfrwt beam="2">  1       -1 0.31862978E-01 0.11163390E+03</pdfrwt>
<totfact> 0.13398785E+03</totfact>
</mgrwt>
</event>
<event>
 8    1  0.2964543E-004  0.1012447E+03  0.7546771E-02  0.1277802E+00
          4   -1    0    0  501    0  0.00000000000E+00  0.00000000000E+00  0.15340031433E+03  0.15340031433E+03  0.00000000000E+00 0. -1.
         -4   -1    0    0    0  501 -0.00000000000E+00 -0.00000000000E+00 -0.68399126176E+02  0.68399126176E+02  0.00000000000E+00 0.  1.
         23    2    1    2    0    0  0.17297192462E+02 -0.38093821390E+02  0.24940398440E+02  0.10408034055E+03  0.91980224617E+02 0.  0.
         23    2    1    2    0    0 -0.17297192462E+02  0.38093821390E+02  0.60060789716E+02  0.11771909995E+03  0.92196290259E+02 0.  0.
          5    1    3    3  502    0 -0.31453164123E+02  0.33866310135E+01  0.23838428837E+02  0.39888989613E+02  0.47000000000E+01 0. -1.
         -5    1    3    3    0  502  0.48750356585E+02 -0.41480452403E+02  0.11019696036E+01  0.64191350942E+02  0.47000000000E+01 0.  1.
          5    1    4    4  503    0 -0.53766491755E+02  0.34296079901E+02  0.42595558004E+02  0.76834421283E+02  0.47000000000E+01 0. -1.
         -5    1    4    4    0  503  0.36469299292E+02  0.37977414886E+01  0.17465231712E+02  0.40884678671E+02  0.47000000000E+01 0.  1.
<mgrwt>
<rscale>  0 0.10119548E+03</rscale>
<asrwt>0</asrwt>
<pdfrwt beam="1">  1        4 0.23600048E-01 0.10124469E+03</pdfrwt>
<pdfrwt beam="2">  1       -4 0.10522943E-01 0.10124469E+03</pdfrwt>
<totfact> 0.17791221E+03</totfact>
</mgrwt>
</event>
<event>
 8    1  0.2964543E-004  0.1167706E+03  0.7546771E-02  0.1249433E+00
          1   -1    0    0  501    0  0.00000000000E+00  0.00000000000E+00  0.18415190655E+03  0.18415190655E+03  0.00000000000E+00 0. -1.
         -1   -1    0    0    0  501 -0.00000000000E+00 -0.00000000000E+00 -0.75615734977E+02  0.75615734977E+02  0.00000000000E+00 0.  1.
         23    2    1    2    0    0  0.34436668033E+02 -0.63167474954E+02  0.29295560198E+02  0.12038936367E+03  0.91974752195E+02 0.  0.
         23    2    1    2    0    0 -0.34436668033E+02  0.63167474954E+02  0.79240611372E+02  0.13937827785E+03  0.89281665803E+02 0.  0.
          5    1    3    3  502    0 -0.23433183580E+02 -0.19246371573E+02  0.35972010864E+02  0.47282263873E+02  0.47000000000E+01 0. -1.
         -5    1    4    4    0  503 -0.17353340991E+02  0.36555175033E+02 -0.12187783989E+02  0.42521186999E+02  0.47000000000E+01 0.  1.
          5    1    4    4  503    0 -0.17083327041E+02  0.26612299920E+02  0.91428395361E+02  0.96857090851E+02  0.47000000000E+01 0. -1.
         -5    1    3    3    0  502  0.57869851612E+02 -0.43921103380E+02 -0.66764506659E+01  0.73107099801E+02  0.47000000000E+01 0.  1.
<mgrwt>
<rscale>  0 0.11623967E+03</rscale>
<asrwt>0</asrwt>
<pdfrwt beam="1">  1        1 0.28331062E-01 0.11677058E+03</pdfrwt>
<pdfrwt beam="2">  1       -1 0.11633190E-01 0.11677058E+03</pdfrwt>
<totfact> 0.73498621E+03</totfact>
</mgrwt>
</event>
<event>
 8    1  0.2964543E-004  0.9155456E+02  0.7546771E-02  0.1299829E+00
         -2   -1    0    0    0  501 -0.00000000000E+00  0.00000000000E+00  0.77360121736E+02  0.77360121736E+02  0.00000000000E+00 0.  1.
          2   -1    0    0  501    0  0.00000000000E+00 -0.00000000000E+00 -0.10706047547E+03  0.10706047547E+03  0.00000000000E+00 0. -1.
         23    2    1    2    0    0 -0.73868707046E+01  0.47571144197E+01 -0.12062681288E+02  0.91182591418E+02  0.89953102790E+02 0.  0.
         23    2    1    2    0    0  0.73868707046E+01 -0.47571144197E+01 -0.17637672446E+02  0.93238005788E+02  0.91132004464E+02 0.  0.
          5    1    3    3  502    0 -0.10404918790E+02  0.46693060122E+02 -0.69506639411E+01  0.48568569341E+02  0.47000000000E+01 0. -1.
         -5    1    4    4    0  503 -0.21970469454E+02 -0.25922797120E+02  0.20893793840E+02  0.40166323701E+02  0.47000000000E+01 0.  1.
          5    1    4    4  503    0  0.29357340159E+02  0.21165682701E+02 -0.38531466286E+02  0.53071682087E+02  0.47000000000E+01 0. -1.
         -5    1    3    3    0  502  0.30180480852E+01 -0.41935945703E+02 -0.51120173473E+01  0.42614022077E+02  0.47000000000E+01 0.  1.
<mgrwt>
<rscale>  0 0.91259796E+02</rscale>
<asrwt>0</asrwt>
<pdfrwt beam="1">  1        2 0.16470842E-01 0.91554564E+02</pdfrwt>
<pdfrwt beam="2">  1       -2 0.11901557E-01 0.91554564E+02</pdfrwt>
<totfact> 0.15635429E+04</totfact>
</mgrwt>
</event>
<event>
 8    1  0.2964543E-004  0.1143462E+03  0.7546771E-02  0.1253315E+00
         -1   -1    0    0    0  501 -0.00000000000E+00  0.00000000000E+00  0.19248098190E+03  0.19248098190E+03  0.00000000000E+00 0.  1.
          1   -1    0    0  501    0  0.00000000000E+00 -0.00000000000E+00 -0.79174679144E+02  0.79174679144E+02  0.00000000000E+00 0. -1.
         23    2    1    2    0    0  0.47685830739E+02 -0.49150648930E+02  0.10932355228E+03  0.15724011267E+03  0.89906002057E+02 0.  0.
         23    2    1    2    0    0 -0.47685830739E+02  0.49150648930E+02  0.39827504728E+01  0.11441554837E+03  0.91571451140E+02 0.  0.
          5    1    4    4  502    0  0.27404404622E+02  0.13376888590E+02 -0.17887678140E+01  0.30906831467E+02  0.47000000000E+01 0. -1.
         -5    1    3    3    0  503 -0.21513018657E+02  0.75946008794E+01  0.25424408995E+02  0.34481567641E+02  0.47000000000E+01 0.  1.
          5    1    3    3  503    0  0.69198849396E+02 -0.56745249810E+02  0.83899143285E+02  0.12275854503E+03  0.47000000000E+01 0. -1.
         -5    1    4    4    0  502 -0.75090235361E+02  0.35773760341E+02  0.57715182868E+01  0.83508716903E+02  0.47000000000E+01 0.  1.
<mgrwt>
<rscale>  0 0.11401242E+03</rscale>
<asrwt>0</asrwt>
<pdfrwt beam="1">  1        1 0.12180720E-01 0.11434621E+03</pdfrwt>
<pdfrwt beam="2">  1       -1 0.29612459E-01 0.11434621E+03</pdfrwt>
<totfact> 0.48485297E+03</totfact>
</mgrwt>
</event>
<event>
 8    1  0.2964543E-004  0.1652918E+03  0.7546771E-02  0.1186785E+00
         -2   -1    0    0    0  501 -0.00000000000E+00  0.00000000000E+00  0.11167106430E+03  0.11167106430E+03  0.00000000000E+00 0. -1.
          2   -1    0    0  501    0  0.00000000000E+00 -0.00000000000E+00 -0.49378749816E+03  0.49378749816E+03  0.00000000000E+00 0.  1.
         23    2    1    2    0    0  0.59337400045E+02 -0.12472095765E+03 -0.41069481696E+03  0.43771441173E+03  0.62027648940E+02 0.  0.
         23    2    1    2    0    0 -0.59337400045E+02  0.12472095765E+03  0.28578383102E+02  0.16774415073E+03  0.90802708113E+02 0.  0.
          5    1    3    3  502    0  0.20851308336E+02 -0.92592473793E+02 -0.32192662964E+03  0.33565903553E+03  0.47000000000E+01 0. -1.
         -5    1    4    4    0  503 -0.29851137595E+02  0.32698451013E+02 -0.30883455398E+02  0.54186316831E+02  0.47000000000E+01 0.  1.
          5    1    4    4  503    0 -0.29486262450E+02  0.92022506637E+02  0.59461838500E+02  0.11355783390E+03  0.47000000000E+01 0. -1.
         -5    1    3    3    0  502  0.38486091709E+02 -0.32128483858E+02 -0.88768187319E+02  0.10205537619E+03  0.47000000000E+01 0.  1.
<mgrwt>
<rscale>  0 0.16170520E+03</rscale>
<asrwt>0</asrwt>
<pdfrwt beam="1">  1        2 0.75967306E-01 0.16529179E+03</pdfrwt>
<pdfrwt beam="2">  1       -2 0.17180164E-01 0.16529179E+03</pdfrwt>
<totfact> 0.17028776E+03</totfact>
</mgrwt>
</event>
<event>
 8    1  0.2964543E-004  0.9991017E+02  0.7546771E-02  0.1280930E+00
          1   -1    0    0  501    0  0.00000000000E+00  0.00000000000E+00  0.43334102377E+03  0.43334102377E+03  0.00000000000E+00 0. -1.
         -1   -1    0    0    0  501 -0.00000000000E+00 -0.00000000000E+00 -0.31429413308E+02  0.31429413308E+02  0.00000000000E+00 0.  1.
         23    2    1    2    0    0  0.40438743812E+01  0.42616148393E+02  0.78865826789E+02  0.12662753652E+03  0.89343300506E+02 0.  0.
         23    2    1    2    0    0 -0.40438743812E+01 -0.42616148393E+02  0.32304578367E+03  0.33814290056E+03  0.90274879266E+02 0.  0.
          5    1    3    3  502    0  0.41678861505E+02  0.49381363244E+00  0.39501339184E+02  0.57617854399E+02  0.47000000000E+01 0. -1.
         -5    1    4    4    0  503  0.36036357156E+02  0.94332229042E+00  0.78781916541E+02  0.86765138552E+02  0.47000000000E+01 0.  1.
          5    1    4    4  503    0 -0.40080231537E+02 -0.43559470684E+02  0.24426386713E+03  0.25137776200E+03  0.47000000000E+01 0. -1.
         -5    1    3    3    0  502 -0.37634987124E+02  0.42122334761E+02  0.39364487605E+02  0.69009682118E+02  0.47000000000E+01 0.  1.
<mgrwt>
<rscale>  0 0.99699274E+02</rscale>
<asrwt>0</asrwt>
<pdfrwt beam="1">  1        1 0.66667846E-01 0.99910174E+02</pdfrwt>
<pdfrwt beam="2">  1       -1 0.48352947E-02 0.99910174E+02</pdfrwt>
<totfact> 0.93900970E+03</totfact>
</mgrwt>
</event>
<event>
 8    1  0.2964543E-004  0.9589687E+02  0.7546771E-02  0.1290344E+00
          2   -1    0    0  501    0  0.00000000000E+00  0.00000000000E+00  0.24407590791E+02  0.24407590791E+02  0.00000000000E+00 0. -1.
         -2   -1    0    0    0  501 -0.00000000000E+00 -0.00000000000E+00 -0.42392036786E+03  0.42392036786E+03  0.00000000000E+00 0.  1.
         23    2    1    2    0    0  0.62788141259E+01  0.20937677535E+02 -0.27880573247E+03  0.29416440857E+03  0.91226383040E+02 0.  0.
         23    2    1    2    0    0 -0.62788141259E+01 -0.20937677535E+02 -0.12070704460E+03  0.15416355009E+03  0.93372371241E+02 0.  0.
          5    1    3    3  502    0 -0.22296352402E+02 -0.28514685131E+02 -0.10881813638E+03  0.11477670236E+03  0.47000000000E+01 0. -1.
         -5    1    4    4    0  503  0.86254612289E+01  0.34287054946E+02 -0.65210942706E+02  0.74327368896E+02  0.47000000000E+01 0.  1.
          5    1    4    4  503    0 -0.14904275355E+02 -0.55224732481E+02 -0.55496101895E+02  0.79836181190E+02  0.47000000000E+01 0. -1.
         -5    1    3    3    0  502  0.28575166528E+02  0.49452362666E+02 -0.16998759609E+03  0.17938770621E+03  0.47000000000E+01 0.  1.
<mgrwt>
<rscale>  0 0.95370497E+02</rscale>
<asrwt>0</asrwt>
<pdfrwt beam="1">  1        2 0.37550143E-02 0.95896869E+02</pdfrwt>
<pdfrwt beam="2">  1       -2 0.65218513E-01 0.95896869E+02</pdfrwt>
<totfact> 0.47099049E+03</totfact>
</mgrwt>
</event>
<event>
 8    1  0.2964543E-004  0.9851668E+02  0.7546771E-02  0.1283740E+00
         -3   -1    0    0    0  501 -0.00000000000E+00  0.00000000000E+00  0.26212133122E+03  0.26212133122E+03  0.00000000000E+00 0.  1.
          3   -1    0    0  501    0  0.00000000000E+00 -0.00000000000E+00 -0.37326150300E+02  0.37326150300E+02  0.00000000000E+00 0. -1.
         23    2    1    2    0    0 -0.38018389325E+01  0.37460170030E+02  0.12949299334E+03  0.16237800191E+03  0.90445905738E+02 0.  0.
         23    2    1    2    0    0  0.38018389325E+01 -0.37460170030E+02  0.95302187587E+02  0.13706947961E+03  0.91037448138E+02 0.  0.
          5    1    3    3  502    0  0.33309966856E+02  0.26439045850E+02  0.22169352813E+02  0.48188662998E+02  0.47000000000E+01 0. -1.
         -5    1    3    3    0  502 -0.37111805788E+02  0.11021124180E+02  0.10732364052E+03  0.11418933892E+03  0.47000000000E+01 0.  1.
          5    1    4    4  503    0  0.53196407799E+01  0.29647489091E+02  0.37771889812E+02  0.48539446303E+02  0.47000000000E+01 0. -1.
         -5    1    4    4    0  503 -0.15178018474E+01 -0.67107659121E+02  0.57530297775E+02  0.88530033306E+02  0.47000000000E+01 0.  1.
<mgrwt>
<rscale>  0 0.98379797E+02</rscale>
<asrwt>0</asrwt>
<pdfrwt beam="1">  1        3 0.57424848E-02 0.98516675E+02</pdfrwt>
<pdfrwt beam="2">  1       -3 0.40326358E-01 0.98516675E+02</pdfrwt>
<totfact> 0.24050391E+03</totfact>
</mgrwt>
</event>
<event>
 7    1  0.4464898E-004  0.3368724E+03  0.7546771E-02  0.1099306E+00
          2   -1    0    0  501    0  0.00000000000E+00  0.00000000000E+00  0.62786099294E+03  0.62786099294E+03  0.00000000000E+00 0. -1.
         -2   -1    0    0    0  501 -0.00000000000E+00 -0.00000000000E+00 -0.93242567813E+02  0.93242567813E+02  0.00000000000E+00 0.  1.
         23    2    1    2    0    0  0.29487222218E+02  0.10824126626E+03  0.18037643173E+03  0.23225759421E+03  0.93926912794E+02 0.  0.
          5    1    3    3  502    0  0.51015589984E+02  0.23077478484E+02  0.51497011596E+02  0.76218059789E+02  0.47000000000E+01 0. -1.
         -5    1    3    3    0  502 -0.21528367766E+02  0.85163787775E+02  0.12887942014E+03  0.15603953442E+03  0.47000000000E+01 0.  1.
          5    1    1    2  503    0 -0.12643600825E+03  0.76996445678E+01  0.30423425267E+03  0.32958446445E+03  0.47000000000E+01 0. -1.
         -5    1    1    2    0  503  0.96948786033E+02 -0.11594091083E+03  0.50007740721E+02  0.15926150209E+03  0.47000000000E+01 0.  1.
<mgrwt>
<rscale>  0 0.27347705E+03</rscale>
<asrwt>0</asrwt>
<pdfrwt beam="1">  1        2 0.96593996E-01 0.33687236E+03</pdfrwt>
<pdfrwt beam="2">  1       -2 0.14345011E-01 0.33687236E+03</pdfrwt>
<totfact> 0.17660572E+03</totfact>
</mgrwt>
</event>
<event>
 8    1  0.2964543E-004  0.9340540E+02  0.7546771E-02  0.1295012E+00
         -1   -1    0    0    0  501 -0.00000000000E+00  0.00000000000E+00  0.21759493454E+02  0.21759493454E+02  0.00000000000E+00 0.  1.
          1   -1    0    0  501    0  0.00000000000E+00 -0.00000000000E+00 -0.44965115758E+03  0.44965115758E+03  0.00000000000E+00 0. -1.
         23    2    1    2    0    0  0.50768027518E+01 -0.20247581302E+02 -0.29235077787E+03  0.30680232510E+03  0.90680487947E+02 0.  0.
         23    2    1    2    0    0 -0.50768027518E+01  0.20247581302E+02 -0.13554088626E+03  0.16460832593E+03  0.91043015348E+02 0.  0.
          5    1    3    3  502    0  0.22532727133E+02  0.17621148942E+02 -0.22891757661E+03  0.23074569457E+03  0.47000000000E+01 0. -1.
         -5    1    4    4    0  503 -0.28152754963E+02  0.41154502627E+02 -0.40262520952E+02  0.64260651194E+02  0.47000000000E+01 0.  1.
          5    1    4    4  503    0  0.23075952211E+02 -0.20906921324E+02 -0.95278365311E+02  0.10034767474E+03  0.47000000000E+01 0. -1.
         -5    1    3    3    0  502 -0.17455924381E+02 -0.37868730244E+02 -0.63433201262E+02  0.76056630537E+02  0.47000000000E+01 0.  1.
<mgrwt>
<rscale>  0 0.93316946E+02</rscale>
<asrwt>0</asrwt>
<pdfrwt beam="1">  1        1 0.69177092E-01 0.93405402E+02</pdfrwt>
<pdfrwt beam="2">  1       -1 0.33476148E-02 0.93405402E+02</pdfrwt>
<totfact> 0.15216717E+04</totfact>
</mgrwt>
</event>
<event>
 8    1  0.2964543E-004  0.1283933E+03  0.7546771E-02  0.1230624E+00
          2   -1    0    0  501    0  0.00000000000E+00  0.00000000000E+00  0.14405429483E+04  0.14405429483E+04  0.00000000000E+00 0. -1.
         -2   -1    0    0    0  501 -0.00000000000E+00 -0.00000000000E+00 -0.13725951059E+02  0.13725951059E+02  0.00000000000E+00 0.  1.
         23    2    1    2    0    0 -0.42434688502E+02 -0.78891889865E+02  0.10259170663E+04  0.10339200437E+04  0.91979327211E+02 0.  0.
         23    2    1    2    0    0  0.42434688502E+02  0.78891889865E+02  0.40089993091E+03  0.42034885570E+03  0.89150282123E+02 0.  0.
          5    1    4    4  502    0 -0.21452902701E+02  0.16249362490E+00  0.42303478877E+02  0.47664743402E+02  0.47000000000E+01 0. -1.
         -5    1    3    3    0  503 -0.47979247961E+02 -0.86344514367E+00  0.47829030206E+03  0.48071452737E+03  0.47000000000E+01 0.  1.
          5    1    3    3  503    0  0.55445594581E+01 -0.78028444721E+02  0.54762676427E+03  0.55320551631E+03  0.47000000000E+01 0. -1.
         -5    1    4    4    0  502  0.63887591204E+02  0.78729396240E+02  0.35859645204E+03  0.37268411229E+03  0.47000000000E+01 0.  1.
<mgrwt>
<rscale>  0 0.12788746E+03</rscale>
<asrwt>0</asrwt>
<pdfrwt beam="1">  1        2 0.22162187E+00 0.12839326E+03</pdfrwt>
<pdfrwt beam="2">  1       -2 0.21116859E-02 0.12839326E+03</pdfrwt>
<totfact> 0.10179070E+04</totfact>
</mgrwt>
</event>
<event>
 8    1  0.2964543E-004  0.1031906E+03  0.7546771E-02  0.1273762E+00
          2   -1    0    0  501    0  0.00000000000E+00  0.00000000000E+00  0.86305829632E+02  0.86305829632E+02  0.00000000000E+00 0. -1.
         -2   -1    0    0    0  501 -0.00000000000E+00 -0.00000000000E+00 -0.12818623660E+03  0.12818623660E+03  0.00000000000E+00 0.  1.
         23    2    1    2    0    0 -0.44855975276E+02 -0.19742081431E+02 -0.41885359481E+02  0.11130144818E+03  0.90729381853E+02 0.  0.
         23    2    1    2    0    0  0.44855975276E+02  0.19742081431E+02  0.49525173398E-02  0.10319061805E+03  0.90810216006E+02 0.  0.
          5    1    3    3  502    0 -0.37467647320E+02  0.29710874120E+02 -0.36614114189E+01  0.48187722194E+02  0.47000000000E+01 0. -1.
         -5    1    4    4    0  503  0.42174241692E+02  0.53832297492E+02 -0.24100368614E+01  0.68589220678E+02  0.47000000000E+01 0.  1.
          5    1    4    4  503    0  0.26817335836E+01 -0.34090216061E+02  0.24149893788E+01  0.34601397368E+02  0.47000000000E+01 0. -1.
         -5    1    3    3    0  502 -0.73883279557E+01 -0.49452955551E+02 -0.38223948062E+02  0.63113725989E+02  0.47000000000E+01 0.  1.
<mgrwt>
<rscale>  0 0.10317283E+03</rscale>
<asrwt>0</asrwt>
<pdfrwt beam="1">  1        2 0.13277820E-01 0.10319062E+03</pdfrwt>
<pdfrwt beam="2">  1       -2 0.19720959E-01 0.10319062E+03</pdfrwt>
<totfact> 0.89364564E+03</totfact>
</mgrwt>
</event>
<event>
 8    1  0.2964543E-004  0.2340313E+03  0.7546771E-02  0.1123906E+00
          2   -1    0    0  501    0  0.00000000000E+00  0.00000000000E+00  0.26311673745E+03  0.26311673745E+03  0.00000000000E+00 0. -1.
         -2   -1    0    0    0  501 -0.00000000000E+00 -0.00000000000E+00 -0.41055304380E+03  0.41055304380E+03  0.00000000000E+00 0.  1.
         23    2    1    2    0    0  0.16674916068E+03  0.13653776318E+03 -0.31046742420E+03  0.38879386069E+03  0.91229388107E+02 0.  0.
         23    2    1    2    0    0 -0.16674916068E+03 -0.13653776318E+03  0.16303111786E+03  0.28487592056E+03  0.90151546648E+02 0.  0.
          5    1    4    4  502    0 -0.10927089652E+03 -0.71033148186E+02  0.14634322780E+03  0.19602108889E+03  0.47000000000E+01 0. -1.
         -5    1    4    4    0  502 -0.57478264164E+02 -0.65504614994E+02  0.16687890061E+02  0.88854831673E+02  0.47000000000E+01 0.  1.
          5    1    3    3  503    0  0.45263853014E+02  0.84927068197E+02 -0.90316795734E+02  0.13206300350E+03  0.47000000000E+01 0. -1.
         -5    1    3    3    0  503  0.12148530767E+03  0.51610694983E+02 -0.22015062847E+03  0.25673085718E+03  0.47000000000E+01 0.  1.
<mgrwt>
<rscale>  0 0.23392671E+03</rscale>
<asrwt>0</asrwt>
<pdfrwt beam="1">  1        2 0.40479498E-01 0.23403129E+03</pdfrwt>
<pdfrwt beam="2">  1       -2 0.63162006E-01 0.23403129E+03</pdfrwt>
<totfact> 0.30157597E+02</totfact>
</mgrwt>
</event>
<event>
 8    1  0.2964543E-004  0.2070545E+03  0.7546771E-02  0.1144129E+00
          1   -1    0    0  501    0  0.00000000000E+00  0.00000000000E+00  0.56682128026E+03  0.56682128026E+03  0.00000000000E+00 0. -1.
         -1   -1    0    0    0  501 -0.00000000000E+00 -0.00000000000E+00 -0.80412927971E+02  0.80412927971E+02  0.00000000000E+00 0.  1.
         23    2    1    2    0    0  0.10997292687E+03 -0.14960759194E+03  0.32570315397E+03  0.38594571130E+03  0.91624621969E+02 0.  0.
         23    2    1    2    0    0 -0.10997292687E+03  0.14960759194E+03  0.16070519832E+03  0.26128849693E+03  0.89269488910E+02 0.  0.
          5    1    3    3  502    0  0.16343287506E+02 -0.83783268268E+02  0.19008016172E+03  0.20842096096E+03  0.47000000000E+01 0. -1.
         -5    1    3    3    0  502  0.93629639366E+02 -0.65824323676E+02  0.13562299225E+03  0.17752475033E+03  0.47000000000E+01 0.  1.
          5    1    4    4  503    0 -0.29322688965E+02  0.87272610183E+02  0.33207447790E+02  0.97985474255E+02  0.47000000000E+01 0. -1.
         -5    1    4    4    0  503 -0.80650237908E+02  0.62334981761E+02  0.12749775053E+03  0.16330302268E+03  0.47000000000E+01 0.  1.
<mgrwt>
<rscale>  0 0.20679613E+03</rscale>
<asrwt>0</asrwt>
<pdfrwt beam="1">  1        1 0.87203271E-01 0.20705446E+03</pdfrwt>
<pdfrwt beam="2">  1       -1 0.12371220E-01 0.20705446E+03</pdfrwt>
<totfact> 0.16547318E+03</totfact>
</mgrwt>
</event>
<event>
 8    1  0.2964543E-004  0.9852496E+02  0.7546771E-02  0.1283692E+00
          1   -1    0    0  501    0  0.00000000000E+00  0.00000000000E+00  0.69932268398E+03  0.69932268398E+03  0.00000000000E+00 0. -1.
         -1   -1    0    0    0  501 -0.00000000000E+00 -0.00000000000E+00 -0.14776928344E+02  0.14776928344E+02  0.00000000000E+00 0.  1.
         23    2    1    2    0    0  0.26403495220E+02 -0.26704111836E+02  0.25182387465E+03  0.27041159510E+03  0.91087390863E+02 0.  0.
         23    2    1    2    0    0 -0.26403495220E+02  0.26704111836E+02  0.43272188098E+03  0.44368801722E+03  0.90557032809E+02 0.  0.
          5    1    3    3  502    0 -0.20022470957E+02 -0.42911573461E+02  0.14745185562E+03  0.15494012458E+03  0.47000000000E+01 0. -1.
         -5    1    4    4    0  503  0.14514047456E+02  0.14491739305E+02  0.20989717531E+02  0.29720806242E+02  0.47000000000E+01 0.  1.
          5    1    4    4  503    0 -0.40917542676E+02  0.12212372531E+02  0.41173216345E+03  0.41396721097E+03  0.47000000000E+01 0. -1.
         -5    1    3    3    0  502  0.46425966177E+02  0.16207461625E+02  0.10437201903E+03  0.11547147052E+03  0.47000000000E+01 0.  1.
<mgrwt>
<rscale>  0 0.98402198E+02</rscale>
<asrwt>0</asrwt>
<pdfrwt beam="1">  1        1 0.10758808E+00 0.98524956E+02</pdfrwt>
<pdfrwt beam="2">  1       -1 0.22733741E-02 0.98524956E+02</pdfrwt>
<totfact> 0.14863234E+04</totfact>
</mgrwt>
</event>
<event>
 8    1  0.2964543E-004  0.1176742E+03  0.7546771E-02  0.1247957E+00
         -1   -1    0    0    0  501 -0.00000000000E+00  0.00000000000E+00  0.29604669529E+02  0.29604669529E+02  0.00000000000E+00 0.  1.
          1   -1    0    0  501    0  0.00000000000E+00 -0.00000000000E+00 -0.99187135791E+03  0.99187135791E+03  0.00000000000E+00 0. -1.
         23    2    1    2    0    0 -0.63999675395E+02  0.36860492416E+02 -0.85339848920E+03  0.86116539800E+03  0.88669087010E+02 0.  0.
         23    2    1    2    0    0  0.63999675395E+02 -0.36860492416E+02 -0.10886819919E+03  0.16031062945E+03  0.91610909652E+02 0.  0.
          5    1    4    4  502    0 -0.64774916997E+01 -0.25884751940E+02  0.33083846637E+01  0.27294938923E+02  0.47000000000E+01 0. -1.
         -5    1    4    4    0  502  0.70477167095E+02 -0.10975740476E+02 -0.11217658385E+03  0.13301569052E+03  0.47000000000E+01 0.  1.
          5    1    3    3  503    0 -0.63445542525E+00  0.50205614259E+02 -0.38491064528E+03  0.38820007868E+03  0.47000000000E+01 0. -1.
         -5    1    3    3    0  503 -0.63365219970E+02 -0.13345121843E+02 -0.46848784392E+03  0.47296531932E+03  0.47000000000E+01 0.  1.
<mgrwt>
<rscale>  0 0.11710114E+03</rscale>
<asrwt>0</asrwt>
<pdfrwt beam="1">  1        1 0.15259556E+00 0.11767418E+03</pdfrwt>
<pdfrwt beam="2">  1       -1 0.45545657E-02 0.11767418E+03</pdfrwt>
<totfact> 0.32154280E+03</totfact>
</mgrwt>
</event>
<event>
 8    1  0.2964543E-004  0.1049711E+03  0.7546771E-02  0.1271254E+00
          2   -1    0    0  501    0  0.00000000000E+00  0.00000000000E+00  0.70825221831E+03  0.70825221831E+03  0.00000000000E+00 0. -1.
         -2   -1    0    0    0  501 -0.00000000000E+00 -0.00000000000E+00 -0.15612911023E+02  0.15612911023E+02  0.00000000000E+00 0.  1.
         23    2    1    2    0    0  0.50914443124E+02  0.14906215168E+01  0.29384518927E+03  0.31203194514E+03  0.91784732162E+02 0.  0.
         23    2    1    2    0    0 -0.50914443124E+02 -0.14906215168E+01  0.39879411801E+03  0.41183318419E+03  0.89304650318E+02 0.  0.
          5    1    4    4  502    0 -0.17908606167E+02 -0.27602888867E+02  0.32543950048E+03  0.32713238318E+03  0.47000000000E+01 0. -1.
         -5    1    3    3    0  503  0.25952190147E+02 -0.42829087101E+02  0.18631427536E+03  0.19298431563E+03  0.47000000000E+01 0.  1.
          5    1    3    3  503    0  0.24962252977E+02  0.44319708618E+02  0.10753091391E+03  0.11904762951E+03  0.47000000000E+01 0. -1.
         -5    1    4    4    0  502 -0.33005836957E+02  0.26112267350E+02  0.73354617525E+02  0.84700801009E+02  0.47000000000E+01 0.  1.
<mgrwt>
<rscale>  0 0.10442654E+03</rscale>
<asrwt>0</asrwt>
<pdfrwt beam="1">  1        2 0.10896185E+00 0.10497114E+03</pdfrwt>
<pdfrwt beam="2">  1       -2 0.24019869E-02 0.10497114E+03</pdfrwt>
<totfact> 0.22506626E+04</totfact>
</mgrwt>
</event>
<event>
 8    1  0.2964543E-004  0.9190676E+02  0.7546771E-02  0.1298595E+00
          1   -1    0    0  501    0  0.00000000000E+00  0.00000000000E+00  0.31000127774E+03  0.31000127774E+03  0.00000000000E+00 0. -1.
         -1   -1    0    0    0  501 -0.00000000000E+00 -0.00000000000E+00 -0.60843245503E+02  0.60843245503E+02  0.00000000000E+00 0.  1.
         23    2    1    2    0    0  0.14133579907E+02 -0.54758826474E+01 -0.13356448129E+02  0.92872210785E+02  0.90648273330E+02 0.  0.
         23    2    1    2    0    0 -0.14133579907E+02  0.54758826474E+01  0.26251448037E+03  0.27797231246E+03  0.90138841346E+02 0.  0.
          5    1    4    4  502    0 -0.18369939757E+02 -0.16617915054E+02  0.25100728122E+03  0.25227040059E+03  0.47000000000E+01 0. -1.
         -5    1    4    4    0  502  0.42363598501E+01  0.22093797701E+02  0.11507199150E+02  0.25701911873E+02  0.47000000000E+01 0.  1.
          5    1    3    3  503    0 -0.30137743553E+02 -0.93881039138E+01  0.19502220004E+02  0.37401158627E+02  0.47000000000E+01 0. -1.
         -5    1    3    3    0  503  0.44271323460E+02  0.39122212663E+01 -0.32858668133E+02  0.55471052158E+02  0.47000000000E+01 0.  1.
<mgrwt>
<rscale>  0 0.91780899E+02</rscale>
<asrwt>0</asrwt>
<pdfrwt beam="1">  1        1 0.47692504E-01 0.91906762E+02</pdfrwt>
<pdfrwt beam="2">  1       -1 0.93604995E-02 0.91906762E+02</pdfrwt>
<totfact> 0.53024013E+03</totfact>
</mgrwt>
</event>
<event>
 8    1  0.4099661E-004  0.9541345E+02  0.7546771E-02  0.1290885E+00
          1   -1    0    0  501    0  0.00000000000E+00  0.00000000000E+00  0.57159664478E+03  0.57159664478E+03  0.00000000000E+00 0. -1.
         -1   -1    0    0    0  501 -0.00000000000E+00 -0.00000000000E+00 -0.37240333359E+02  0.37240333359E+02  0.00000000000E+00 0.  1.
         23    2    1    2    0    0 -0.25850731050E+02 -0.10617823193E+02  0.49916471506E+03  0.50820186947E+03  0.91228991627E+02 0.  0.
         23    2    1    2    0    0  0.25850731050E+02  0.10617823193E+02  0.35191596365E+02  0.10063510867E+03  0.90044312294E+02 0.  0.
          5    1    3    3  502    0 -0.59532247551E+02 -0.12652394025E+02  0.33928563788E+03  0.34473323838E+03  0.47000000000E+01 0. -1.
         -5    1    4    4    0  503  0.58023526601E+02  0.17190990619E+02  0.27196587847E+02  0.66513188077E+02  0.47000000000E+01 0.  1.
          5    1    4    4  503    0 -0.32172795550E+02 -0.65731674259E+01  0.79950085183E+01  0.34121920590E+02  0.47000000000E+01 0. -1.
         -5    1    3    3    0  502  0.33681516501E+02  0.20345708319E+01  0.15987907717E+03  0.16346863109E+03  0.47000000000E+01 0.  1.
<mgrwt>
<rscale>  0 0.95129166E+02</rscale>
<asrwt>0</asrwt>
<pdfrwt beam="1">  1        1 0.87937939E-01 0.95413455E+02</pdfrwt>
<pdfrwt beam="2">  1       -1 0.57292825E-02 0.95413455E+02</pdfrwt>
<totfact> 0.51059024E+03</totfact>
</mgrwt>
</event>
<event>
 8    1  0.2964543E-004  0.1066926E+03  0.7546771E-02  0.1268151E+00
          2   -1    0    0  501    0  0.00000000000E+00  0.00000000000E+00  0.56927769257E+02  0.56927769257E+02  0.00000000000E+00 0. -1.
         -2   -1    0    0    0  501 -0.00000000000E+00 -0.00000000000E+00 -0.19495597211E+03  0.19495597211E+03  0.00000000000E+00 0.  1.
         23    2    1    2    0    0 -0.41242154112E+02  0.31365113133E+02 -0.67590974794E+02  0.12630067598E+03  0.93266474585E+02 0.  0.
         23    2    1    2    0    0  0.41242154112E+02 -0.31365113133E+02 -0.70437228063E+02  0.12558306539E+03  0.90138879616E+02 0.  0.
          5    1    3    3  502    0 -0.49046035436E+02  0.99263064831E+01  0.45748961491E+01  0.50468453782E+02  0.47000000000E+01 0. -1.
         -5    1    3    3    0  502  0.78038813239E+01  0.21438806649E+02 -0.72165870943E+02  0.75832222197E+02  0.47000000000E+01 0.  1.
          5    1    4    4  503    0  0.56051756642E+02 -0.47117513925E+02 -0.72761725387E+02  0.10333546450E+03  0.47000000000E+01 0. -1.
         -5    1    4    4    0  503 -0.14809602530E+02  0.15752400792E+02  0.23244973243E+01  0.22247600896E+02  0.47000000000E+01 0.  1.
<mgrwt>
<rscale>  0 0.10600530E+03</rscale>
<asrwt>0</asrwt>
<pdfrwt beam="1">  1        2 0.87581183E-02 0.10669265E+03</pdfrwt>
<pdfrwt beam="2">  1       -2 0.29993227E-01 0.10669265E+03</pdfrwt>
<totfact> 0.71693779E+03</totfact>
</mgrwt>
</event>
<event>
 8    1  0.2964543E-004  0.9120562E+02  0.7546771E-02  0.1308281E+00
          2   -1    0    0  501    0  0.00000000000E+00  0.00000000000E+00  0.19136486816E+03  0.19136486816E+03  0.00000000000E+00 0. -1.
         -2   -1    0    0    0  501 -0.00000000000E+00 -0.00000000000E+00 -0.39797496015E+02  0.39797496015E+02  0.00000000000E+00 0.  1.
         23    2    1    2    0    0 -0.83263308769E+01 -0.77102623024E+00  0.53768393592E+02  0.10587495111E+03  0.90821488953E+02 0.  0.
         23    2    1    2    0    0  0.83263308769E+01  0.77102623024E+00  0.97798978552E+02  0.12528741306E+03  0.77861244526E+02 0.  0.
          5    1    3    3  502    0  0.27895612119E+02  0.20033918682E+02  0.53608314942E+02  0.63839364848E+02  0.47000000000E+01 0. -1.
         -5    1    3    3    0  502 -0.36221942996E+02 -0.20804944912E+02  0.16007864973E+00  0.42035586262E+02  0.47000000000E+01 0.  1.
          5    1    4    4  503    0  0.34653225471E+02 -0.84474430541E+01  0.17215398139E+02  0.39883145097E+02  0.47000000000E+01 0. -1.
         -5    1    4    4    0  503 -0.26326894594E+02  0.92184692843E+01  0.80583580412E+02  0.85404267967E+02  0.47000000000E+01 0.  1.
<mgrwt>
<rscale>  0 0.87794859E+02</rscale>
<asrwt>0</asrwt>
<pdfrwt beam="1">  1        2 0.29440748E-01 0.91205620E+02</pdfrwt>
<pdfrwt beam="2">  1       -2 0.61226918E-02 0.91205620E+02</pdfrwt>
<totfact> 0.22851041E+04</totfact>
</mgrwt>
</event>
<event>
 8    1  0.2964543E-004  0.1012406E+03  0.7546771E-02  0.1277770E+00
         -2   -1    0    0    0  501 -0.00000000000E+00  0.00000000000E+00  0.58544958416E+03  0.58544958416E+03  0.00000000000E+00 0.  1.
          2   -1    0    0  501    0  0.00000000000E+00 -0.00000000000E+00 -0.23741317631E+02  0.23741317631E+02  0.00000000000E+00 0. -1.
         23    2    1    2    0    0 -0.43994978649E+02 -0.40828228325E+00  0.43731535156E+03  0.44888125423E+03  0.91180803079E+02 0.  0.
         23    2    1    2    0    0  0.43994978649E+02  0.40828228325E+00  0.12439291497E+03  0.16030964756E+03  0.91048673605E+02 0.  0.
          5    1    4    4  502    0 -0.10627836224E+01  0.35766274998E+02  0.20299610035E+02  0.41406763986E+02  0.47000000000E+01 0. -1.
         -5    1    4    4    0  502  0.45057762272E+02 -0.35357992715E+02  0.10409330493E+03  0.11890288357E+03  0.47000000000E+01 0.  1.
          5    1    3    3  503    0  0.27414871463E+02 -0.10630585961E+01  0.87523191807E+02  0.91842824297E+02  0.47000000000E+01 0. -1.
         -5    1    3    3    0  503 -0.71409850113E+02  0.65477631289E+00  0.34979215975E+03  0.35703842993E+03  0.47000000000E+01 0.  1.
<mgrwt>
<rscale>  0 0.10121086E+03</rscale>
<asrwt>0</asrwt>
<pdfrwt beam="1">  1        2 0.36525108E-02 0.10124062E+03</pdfrwt>
<pdfrwt beam="2">  1       -2 0.90069156E-01 0.10124062E+03</pdfrwt>
<totfact> 0.24478174E+03</totfact>
</mgrwt>
</event>
<event>
 8    1  0.2964543E-004  0.9181076E+02  0.7546771E-02  0.1299906E+00
         -1   -1    0    0    0  501 -0.00000000000E+00  0.00000000000E+00  0.17123587246E+02  0.17123587246E+02  0.00000000000E+00 0.  1.
          1   -1    0    0  501    0  0.00000000000E+00 -0.00000000000E+00 -0.56496238647E+03  0.56496238647E+03  0.00000000000E+00 0. -1.
         23    2    1    2    0    0  0.19466022494E+01 -0.21354293514E+02 -0.38977541899E+03  0.40044237172E+03  0.89271611983E+02 0.  0.
         23    2    1    2    0    0 -0.19466022494E+01  0.21354293514E+02 -0.15806338023E+03  0.18164360199E+03  0.86894020875E+02 0.  0.
          5    1    3    3  502    0  0.34049541312E+02  0.13142728468E+01 -0.30441521546E+03  0.30635243100E+03  0.47000000000E+01 0. -1.
         -5    1    3    3    0  502 -0.32102939063E+02 -0.22668566361E+02 -0.85360203530E+02  0.94089940716E+02  0.47000000000E+01 0.  1.
          5    1    4    4  503    0 -0.11869903073E+02  0.52598592982E+02 -0.77411581695E+02  0.94457130822E+02  0.47000000000E+01 0. -1.
         -5    1    4    4    0  503  0.99233008233E+01 -0.31244299468E+02 -0.80651798533E+02  0.87186471170E+02  0.47000000000E+01 0.  1.
<mgrwt>
<rscale>  0 0.91227702E+02</rscale>
<asrwt>0</asrwt>
<pdfrwt beam="1">  1        1 0.86917290E-01 0.91810761E+02</pdfrwt>
<pdfrwt beam="2">  1       -1 0.26343981E-02 0.91810761E+02</pdfrwt>
<totfact> 0.15987364E+04</totfact>
</mgrwt>
</event>
<event>
 8    1  0.2964543E-004  0.1145518E+03  0.7546771E-02  0.1252932E+00
          1   -1    0    0  501    0  0.00000000000E+00  0.00000000000E+00  0.25295308443E+02  0.25295308443E+02  0.00000000000E+00 0. -1.
         -1   -1    0    0    0  501 -0.00000000000E+00 -0.00000000000E+00 -0.76830862222E+03  0.76830862222E+03  0.00000000000E+00 0.  1.
         23    2    1    2    0    0  0.12117252305E+02 -0.68446114048E+02 -0.14135402584E+03  0.18113676916E+03  0.89430812288E+02 0.  0.
         23    2    1    2    0    0 -0.12117252305E+02  0.68446114048E+02 -0.60165928794E+03  0.61246716151E+03  0.91051781071E+02 0.  0.
          5    1    3    3  502    0  0.29533150610E+02 -0.56455931493E+02 -0.14565811186E+03  0.15905299348E+03  0.47000000000E+01 0. -1.
         -5    1    4    4    0  503  0.31856209754E+02  0.58257330248E+02 -0.29137568701E+03  0.29888227717E+03  0.47000000000E+01 0.  1.
          5    1    4    4  503    0 -0.43973462059E+02  0.10188783800E+02 -0.31028360093E+03  0.31358488434E+03  0.47000000000E+01 0. -1.
         -5    1    3    3    0  502 -0.17415898305E+02 -0.11990182555E+02  0.43040860169E+01  0.22083775672E+02  0.47000000000E+01 0.  1.
<mgrwt>
<rscale>  0 0.11422945E+03</rscale>
<asrwt>0</asrwt>
<pdfrwt beam="1">  1        1 0.38915859E-02 0.11455184E+03</pdfrwt>
<pdfrwt beam="2">  1       -1 0.11820133E+00 0.11455184E+03</pdfrwt>
<totfact> 0.15673781E+03</totfact>
</mgrwt>
</event>
<event>
 8    1  0.2964543E-004  0.1225699E+03  0.7546771E-02  0.1239061E+00
          3   -1    0    0  501    0  0.00000000000E+00  0.00000000000E+00  0.81504292495E+03  0.81504292495E+03  0.00000000000E+00 0. -1.
         -3   -1    0    0    0  501 -0.00000000000E+00 -0.00000000000E+00 -0.18423064616E+02  0.18423064616E+02  0.00000000000E+00 0.  1.
         23    2    1    2    0    0 -0.33253056664E+02 -0.70257058848E+02  0.37725438281E+03  0.39655549790E+03  0.94305744621E+02 0.  0.
         23    2    1    2    0    0  0.33253056664E+02  0.70257058848E+02  0.41936547752E+03  0.43691049167E+03  0.94771060430E+02 0.  0.
          5    1    3    3  502    0  0.46585481055E+01 -0.32942213496E+02  0.30427451307E+03  0.30612409380E+03  0.47000000000E+01 0. -1.
         -5    1    4    4    0  503 -0.15740376785E+02  0.50159196495E+02  0.99260824133E+02  0.11242110861E+03  0.47000000000E+01 0.  1.
          5    1    4    4  503    0  0.48993433450E+02  0.20097862353E+02  0.32010465339E+03  0.32448938305E+03  0.47000000000E+01 0. -1.
         -5    1    3    3    0  502 -0.37911604770E+02 -0.37314845352E+02  0.72979869735E+02  0.90431404094E+02  0.47000000000E+01 0.  1.
<mgrwt>
<rscale>  0 0.12247992E+03</rscale>
<asrwt>0</asrwt>
<pdfrwt beam="1">  1        3 0.12539119E+00 0.12256987E+03</pdfrwt>
<pdfrwt beam="2">  1       -3 0.28343183E-02 0.12256987E+03</pdfrwt>
<totfact> 0.67786898E+02</totfact>
</mgrwt>
</event>
<event>
 8    1  0.2964543E-004  0.1032121E+03  0.7546771E-02  0.1274124E+00
          2   -1    0    0  501    0  0.00000000000E+00  0.00000000000E+00  0.13627247600E+04  0.13627247600E+04  0.00000000000E+00 0. -1.
         -2   -1    0    0    0  501 -0.00000000000E+00 -0.00000000000E+00 -0.85846168794E+01  0.85846168794E+01  0.00000000000E+00 0.  1.
         23    2    1    2    0    0 -0.29995500223E+02 -0.38703503241E+02  0.89328621380E+03  0.89922911755E+03  0.90857332619E+02 0.  0.
         23    2    1    2    0    0  0.29995500223E+02  0.38703503241E+02  0.46085392931E+03  0.47208025932E+03  0.89865098230E+02 0.  0.
          5    1    3    3  502    0 -0.61556356137E+02 -0.23585297087E+02  0.65763216042E+03  0.66094447546E+03  0.47000000000E+01 0. -1.
         -5    1    3    3    0  502  0.31560855914E+02 -0.15118206154E+02  0.23565405338E+03  0.23828464209E+03  0.47000000000E+01 0.  1.
          5    1    4    4  503    0 -0.23213928525E+02 -0.37266949038E+01  0.48292221322E+02  0.53916633543E+02  0.47000000000E+01 0. -1.
         -5    1    4    4    0  503  0.53209428748E+02  0.42430198145E+02  0.41256170799E+03  0.41816362578E+03  0.47000000000E+01 0.  1.
<mgrwt>
<rscale>  0 0.10299335E+03</rscale>
<asrwt>0</asrwt>
<pdfrwt beam="1">  1        2 0.20964979E+00 0.10321214E+03</pdfrwt>
<pdfrwt beam="2">  1       -2 0.13207114E-02 0.10321214E+03</pdfrwt>
<totfact> 0.21689923E+04</totfact>
</mgrwt>
</event>
<event>
 8    1  0.2964543E-004  0.9013850E+02  0.7546771E-02  0.1304600E+00
          2   -1    0    0  501    0  0.00000000000E+00  0.00000000000E+00  0.73057160734E+03  0.73057160734E+03  0.00000000000E+00 0. -1.
         -2   -1    0    0    0  501 -0.00000000000E+00 -0.00000000000E+00 -0.10722247021E+02  0.10722247021E+02  0.00000000000E+00 0.  1.
         23    2    1    2    0    0  0.46979076602E+01  0.97444565147E+01  0.36634415479E+03  0.37647762787E+03  0.86083330381E+02 0.  0.
         23    2    1    2    0    0 -0.46979076602E+01 -0.97444565147E+01  0.35350520552E+03  0.36481622648E+03  0.89487004673E+02 0.  0.
          5    1    3    3  502    0 -0.39290893106E+02  0.49352557852E+01  0.12992869389E+03  0.13591058283E+03  0.47000000000E+01 0. -1.
         -5    1    4    4    0  503  0.31632514324E+02 -0.14407896564E+02  0.64141329508E+02  0.73105427958E+02  0.47000000000E+01 0.  1.
          5    1    4    4  503    0 -0.36330421984E+02  0.46634400495E+01  0.28936387602E+03  0.29171079853E+03  0.47000000000E+01 0. -1.
         -5    1    3    3    0  502  0.43988800766E+02  0.48092007295E+01  0.23641546091E+03  0.24056704504E+03  0.47000000000E+01 0.  1.
<mgrwt>
<rscale>  0 0.89281835E+02</rscale>
<asrwt>0</asrwt>
<pdfrwt beam="1">  1        2 0.11239559E+00 0.90138498E+02</pdfrwt>
<pdfrwt beam="2">  1       -2 0.16495770E-02 0.90138498E+02</pdfrwt>
<totfact> 0.36694878E+04</totfact>
</mgrwt>
</event>
<event>
 8    1  0.2964543E-004  0.1032974E+03  0.7546771E-02  0.1279406E+00
         -2   -1    0    0    0  501 -0.00000000000E+00  0.00000000000E+00  0.28099970423E+02  0.28099970423E+02  0.00000000000E+00 0.  1.
          2   -1    0    0  501    0  0.00000000000E+00 -0.00000000000E+00 -0.44240379935E+03  0.44240379935E+03  0.00000000000E+00 0. -1.
         23    2    1    2    0    0  0.12688360579E+02  0.39514470194E+01 -0.10324853189E+03  0.14605004136E+03  0.10243899069E+03 0.  0.
         23    2    1    2    0    0 -0.12688360579E+02 -0.39514470194E+01 -0.31105529703E+03  0.32445372842E+03  0.91313830512E+02 0.  0.
          5    1    4    4  502    0  0.30571708834E+02 -0.26969057436E+02 -0.10847123950E+03  0.11597439044E+03  0.47000000000E+01 0. -1.
         -5    1    4    4    0  502 -0.43260069413E+02  0.23017610416E+02 -0.20258405753E+03  0.20847933797E+03  0.47000000000E+01 0.  1.
          5    1    3    3  503    0 -0.27460269693E+02 -0.88155194356E+01 -0.99259981815E+02  0.10347180188E+03  0.47000000000E+01 0. -1.
         -5    1    3    3    0  503  0.40148630272E+02  0.12766966455E+02 -0.39885500795E+01  0.42578239477E+02  0.47000000000E+01 0.  1.
<mgrwt>
<rscale>  0 0.10042435E+03</rscale>
<asrwt>0</asrwt>
<pdfrwt beam="1">  1        2 0.68062123E-01 0.10329741E+03</pdfrwt>
<pdfrwt beam="2">  1       -2 0.43230724E-02 0.10329741E+03</pdfrwt>
<totfact> 0.16057184E+04</totfact>
</mgrwt>
</event>
<event>
 8    1  0.2964543E-004  0.9390925E+02  0.7546771E-02  0.1293788E+00
          1   -1    0    0  501    0  0.00000000000E+00  0.00000000000E+00  0.11238913459E+03  0.11238913459E+03  0.00000000000E+00 0. -1.
         -1   -1    0    0    0  501 -0.00000000000E+00 -0.00000000000E+00 -0.17986225325E+03  0.17986225325E+03  0.00000000000E+00 0.  1.
         23    2    1    2    0    0 -0.23132283220E+02 -0.26782001637E+01  0.76066583659E+02  0.12085144805E+03  0.90976217015E+02 0.  0.
         23    2    1    2    0    0  0.23132283220E+02  0.26782001637E+01 -0.14353970232E+03  0.17139993979E+03  0.90730468612E+02 0.  0.
          5    1    3    3  502    0 -0.50688515474E+02 -0.25332334052E+02  0.55250403520E+02  0.79282720934E+02  0.47000000000E+01 0. -1.
         -5    1    4    4    0  503  0.19883115329E+02  0.38268403305E+02 -0.12182567549E+03  0.12931896294E+03  0.47000000000E+01 0.  1.
          5    1    4    4  503    0  0.32491678909E+01 -0.35590203142E+02 -0.21714026832E+02  0.42080976853E+02  0.47000000000E+01 0. -1.
         -5    1    3    3    0  502  0.27556232254E+02  0.22654133888E+02  0.20816180139E+02  0.41568727114E+02  0.47000000000E+01 0.  1.
<mgrwt>
<rscale>  0 0.93849681E+02</rscale>
<asrwt>0</asrwt>
<pdfrwt beam="1">  1        1 0.17290636E-01 0.93909251E+02</pdfrwt>
<pdfrwt beam="2">  1       -1 0.27671116E-01 0.93909251E+02</pdfrwt>
<totfact> 0.34127980E+03</totfact>
</mgrwt>
</event>
<event>
 8    1  0.2964543E-004  0.9321618E+02  0.7546771E-02  0.1297072E+00
          1   -1    0    0  501    0  0.00000000000E+00  0.00000000000E+00  0.11940422571E+04  0.11940422571E+04  0.00000000000E+00 0. -1.
         -1   -1    0    0    0  501 -0.00000000000E+00 -0.00000000000E+00 -0.74105826538E+01  0.74105826538E+01  0.00000000000E+00 0.  1.
         23    2    1    2    0    0 -0.86159227259E+01  0.11263553532E+02  0.73778062967E+03  0.74364609457E+03  0.92131181890E+02 0.  0.
         23    2    1    2    0    0  0.86159227259E+01 -0.11263553532E+02  0.44885104475E+03  0.45780674517E+03  0.88986818039E+02 0.  0.
          5    1    4    4  502    0  0.71407313522E+01  0.35586063648E+02  0.11594148773E+03  0.12158074086E+03  0.47000000000E+01 0. -1.
         -5    1    4    4    0  502  0.14751913737E+01 -0.46849617179E+02  0.33290955702E+03  0.33622600431E+03  0.47000000000E+01 0.  1.
          5    1    3    3  503    0 -0.48906399527E+02  0.15770600640E+02  0.36286670229E+03  0.36651723205E+03  0.47000000000E+01 0. -1.
         -5    1    3    3    0  503  0.40290476802E+02 -0.45070471084E+01  0.37491392739E+03  0.37712886252E+03  0.47000000000E+01 0.  1.
<mgrwt>
<rscale>  0 0.92429659E+02</rscale>
<asrwt>0</asrwt>
<pdfrwt beam="1">  1        1 0.18369866E+00 0.93216181E+02</pdfrwt>
<pdfrwt beam="2">  1       -1 0.11400906E-02 0.93216181E+02</pdfrwt>
<totfact> 0.16798688E+04</totfact>
</mgrwt>
</event>
<event>
 8    1  0.2964543E-004  0.1173734E+03  0.7546771E-02  0.1254482E+00
          3   -1    0    0  501    0  0.00000000000E+00  0.00000000000E+00  0.21411726342E+02  0.21411726342E+02  0.00000000000E+00 0. -1.
         -3   -1    0    0    0  501 -0.00000000000E+00 -0.00000000000E+00 -0.56912655769E+03  0.56912655769E+03  0.00000000000E+00 0.  1.
         23    2    1    2    0    0 -0.26072442535E+02  0.30628507570E+02 -0.28700061858E+03  0.30462150409E+03  0.93845766854E+02 0.  0.
         23    2    1    2    0    0  0.26072442535E+02 -0.30628507570E+02 -0.26071421278E+03  0.28591677994E+03  0.11026616242E+03 0.  0.
          5    1    4    4  502    0 -0.12319669206E+02 -0.38906140464E+02 -0.27646581561E+02  0.49516517316E+02  0.47000000000E+01 0. -1.
         -5    1    3    3    0  503 -0.18933051060E+02  0.63492296009E+02 -0.21477978067E+03  0.22481587190E+03  0.47000000000E+01 0.  1.
          5    1    3    3  503    0 -0.71393914754E+01 -0.32863788439E+02 -0.72220837907E+02  0.79805632190E+02  0.47000000000E+01 0. -1.
         -5    1    4    4    0  502  0.38392111741E+02  0.82776328936E+01 -0.23306763122E+03  0.23640026263E+03  0.47000000000E+01 0.  1.
<mgrwt>
<rscale>  0 0.11335382E+03</rscale>
<asrwt>0</asrwt>
<pdfrwt beam="1">  1        3 0.32941118E-02 0.11737335E+03</pdfrwt>
<pdfrwt beam="2">  1       -3 0.87557930E-01 0.11737335E+03</pdfrwt>
<totfact> 0.12095358E+03</totfact>
</mgrwt>
</event>
<event>
 8    1  0.2964543E-004  0.9139599E+02  0.7546771E-02  0.1301886E+00
          1   -1    0    0  501    0  0.00000000000E+00  0.00000000000E+00  0.54622116718E+02  0.54622116718E+02  0.00000000000E+00 0. -1.
         -1   -1    0    0    0  501 -0.00000000000E+00 -0.00000000000E+00 -0.14650434924E+03  0.14650434924E+03  0.00000000000E+00 0.  1.
         23    2    1    2    0    0  0.10025117670E+02 -0.81785701323E+01 -0.42834815655E+02  0.97401465511E+02  0.86514923902E+02 0.  0.
         23    2    1    2    0    0 -0.10025117670E+02  0.81785701323E+01 -0.49047416865E+02  0.10372500045E+03  0.90475602361E+02 0.  0.
          5    1    3    3  502    0  0.20828169927E+02  0.25210569598E+02  0.93534811069E+01  0.34336031960E+02  0.47000000000E+01 0. -1.
         -5    1    4    4    0  503 -0.42871327086E+02 -0.16840491531E+02 -0.40022694121E+02  0.61200154295E+02  0.47000000000E+01 0.  1.
          5    1    4    4  503    0  0.32846209416E+02  0.25019061663E+02 -0.90247227447E+01  0.42524846151E+02  0.47000000000E+01 0. -1.
         -5    1    3    3    0  502 -0.10803052257E+02 -0.33389139730E+02 -0.52188296762E+02  0.63065433550E+02  0.47000000000E+01 0.  1.
<mgrwt>
<rscale>  0 0.90400079E+02</rscale>
<asrwt>0</asrwt>
<pdfrwt beam="1">  1        1 0.84034025E-02 0.91395988E+02</pdfrwt>
<pdfrwt beam="2">  1       -1 0.22539131E-01 0.91395988E+02</pdfrwt>
<totfact> 0.12111802E+04</totfact>
</mgrwt>
</event>
<event>
 8    1  0.2964543E-004  0.1232943E+03  0.7546771E-02  0.1239568E+00
          1   -1    0    0  501    0  0.00000000000E+00  0.00000000000E+00  0.19590010861E+02  0.19590010861E+02  0.00000000000E+00 0. -1.
         -1   -1    0    0    0  501 -0.00000000000E+00 -0.00000000000E+00 -0.85808502897E+03  0.85808502897E+03  0.00000000000E+00 0.  1.
         23    2    1    2    0    0  0.51083199267E+02  0.48458832298E+02 -0.58299502438E+03  0.59588981560E+03  0.10121127507E+03 0.  0.
         23    2    1    2    0    0 -0.51083199267E+02 -0.48458832298E+02 -0.25549999373E+03  0.28178522423E+03  0.95733558002E+02 0.  0.
          5    1    4    4  502    0 -0.34515682836E+02 -0.68002482747E+02 -0.10975520594E+03  0.13373094351E+03  0.47000000000E+01 0. -1.
         -5    1    3    3    0  503  0.58549789913E+02  0.18750853332E+02 -0.53638668854E+03  0.53991892173E+03  0.47000000000E+01 0.  1.
          5    1    3    3  503    0 -0.74665906460E+01  0.29707978966E+02 -0.46608335842E+02  0.55970893865E+02  0.47000000000E+01 0. -1.
         -5    1    4    4    0  502 -0.16567516431E+02  0.19543650449E+02 -0.14574478779E+03  0.14805428073E+03  0.47000000000E+01 0.  1.
<mgrwt>
<rscale>  0 0.12216498E+03</rscale>
<asrwt>0</asrwt>
<pdfrwt beam="1">  1        1 0.30138482E-02 0.12329426E+03</pdfrwt>
<pdfrwt beam="2">  1       -1 0.13201306E+00 0.12329426E+03</pdfrwt>
<totfact> 0.17181710E+03</totfact>
</mgrwt>
</event>
<event>
 8    1  0.2964543E-004  0.9283270E+02  0.7546771E-02  0.1296162E+00
          2   -1    0    0  501    0  0.00000000000E+00  0.00000000000E+00  0.94106100852E+03  0.94106100852E+03  0.00000000000E+00 0. -1.
         -2   -1    0    0    0  501 -0.00000000000E+00 -0.00000000000E+00 -0.21693969502E+02  0.21693969502E+02  0.00000000000E+00 0.  1.
         23    2    1    2    0    0  0.50540987520E+01 -0.16250747217E+02  0.93731506275E+02  0.13192234879E+03  0.91259411249E+02 0.  0.
         23    2    1    2    0    0 -0.50540987520E+01  0.16250747217E+02  0.82563553274E+03  0.83083262923E+03  0.91209616684E+02 0.  0.
          5    1    3    3  502    0 -0.15314508760E+02  0.28154754208E+02  0.70575196436E+02  0.77654186720E+02  0.47000000000E+01 0. -1.
         -5    1    3    3    0  502  0.20368607512E+02 -0.44405501425E+02  0.23156309839E+02  0.54268162067E+02  0.47000000000E+01 0.  1.
          5    1    4    4  503    0 -0.45341249348E+02 -0.66660736458E+01  0.38870680291E+03  0.39142730367E+03  0.47000000000E+01 0.  1.
         -5    1    4    4    0  503  0.40287150596E+02  0.22916820863E+02  0.43692872983E+03  0.43940532556E+03  0.47000000000E+01 0. -1.
<mgrwt>
<rscale>  0 0.92820464E+02</rscale>
<asrwt>0</asrwt>
<pdfrwt beam="1">  1        2 0.14477859E+00 0.92832704E+02</pdfrwt>
<pdfrwt beam="2">  1       -2 0.33375345E-02 0.92832704E+02</pdfrwt>
<totfact> 0.97137713E+03</totfact>
</mgrwt>
</event>
<event>
 8    1  0.2964543E-004  0.9259029E+02  0.7546771E-02  0.1296770E+00
          2   -1    0    0  501    0  0.00000000000E+00  0.00000000000E+00  0.18162540054E+03  0.18162540054E+03  0.00000000000E+00 0. -1.
         -2   -1    0    0    0  501 -0.00000000000E+00 -0.00000000000E+00 -0.49796837281E+02  0.49796837281E+02  0.00000000000E+00 0.  1.
         23    2    1    2    0    0  0.16314555048E+01  0.11087075690E+02  0.92609358754E+02  0.13086822942E+03  0.91784613357E+02 0.  0.
         23    2    1    2    0    0 -0.16314555048E+01 -0.11087075690E+02  0.39219204508E+02  0.10055400840E+03  0.91909617064E+02 0.  0.
          5    1    3    3  502    0  0.22184757076E+02 -0.28152901675E+02  0.74451768102E+02  0.82764153429E+02  0.47000000000E+01 0. -1.
         -5    1    4    4    0  503 -0.39796440396E+02  0.48181142804E+01  0.42748222742E+02  0.58791763377E+02  0.47000000000E+01 0.  1.
          5    1    4    4  503    0  0.38164984891E+02 -0.15905189970E+02 -0.35290182342E+01  0.41762245024E+02  0.47000000000E+01 0. -1.
         -5    1    3    3    0  502 -0.20553301571E+02  0.39239977364E+02  0.18157590651E+02  0.48104075994E+02  0.47000000000E+01 0.  1.
<mgrwt>
<rscale>  0 0.92559258E+02</rscale>
<asrwt>0</asrwt>
<pdfrwt beam="1">  1        2 0.27942369E-01 0.92590294E+02</pdfrwt>
<pdfrwt beam="2">  1       -2 0.76610520E-02 0.92590294E+02</pdfrwt>
<totfact> 0.17245088E+04</totfact>
</mgrwt>
</event>
<event>
 8    1  0.2964543E-004  0.1012313E+03  0.7546771E-02  0.1279732E+00
         -1   -1    0    0    0  501 -0.00000000000E+00  0.00000000000E+00  0.91544696061E+01  0.91544696061E+01  0.00000000000E+00 0.  1.
          1   -1    0    0  501    0  0.00000000000E+00 -0.00000000000E+00 -0.11555810958E+04  0.11555810958E+04  0.00000000000E+00 0. -1.
         23    2    1    2    0    0 -0.38553181273E+01  0.38471251293E+02 -0.43240885012E+03  0.44410041840E+03  0.93556759832E+02 0.  0.
         23    2    1    2    0    0  0.38553181273E+01 -0.38471251293E+02 -0.71401777605E+03  0.72063514698E+03  0.89435618696E+02 0.  0.
          5    1    3    3  502    0 -0.46698321379E+02  0.12682156111E+02 -0.26078273355E+03  0.26527588360E+03  0.47000000000E+01 0. -1.
         -5    1    4    4    0  503  0.46196539955E+02 -0.23708639324E+02 -0.35913698012E+03  0.36290175030E+03  0.47000000000E+01 0.  1.
          5    1    4    4  503    0 -0.42341221828E+02 -0.14762611968E+02 -0.35488079594E+03  0.35773339668E+03  0.47000000000E+01 0. -1.
         -5    1    3    3    0  502  0.42843003252E+02  0.25789095181E+02 -0.17162611657E+03  0.17882453480E+03  0.47000000000E+01 0.  1.
<mgrwt>
<rscale>  0 0.10026862E+03</rscale>
<asrwt>0</asrwt>
<pdfrwt beam="1">  1        1 0.17778165E+00 0.10123126E+03</pdfrwt>
<pdfrwt beam="2">  1       -1 0.14083804E-02 0.10123126E+03</pdfrwt>
<totfact> 0.13301764E+04</totfact>
</mgrwt>
</event>
<event>
 8    1  0.2964543E-004  0.1224890E+03  0.7546771E-02  0.1244135E+00
          1   -1    0    0  501    0  0.00000000000E+00  0.00000000000E+00  0.99012905225E+03  0.99012905225E+03  0.00000000000E+00 0. -1.
         -1   -1    0    0    0  501 -0.00000000000E+00 -0.00000000000E+00 -0.15444600611E+02  0.15444600611E+02  0.00000000000E+00 0.  1.
         23    2    1    2    0    0 -0.66507408213E+02 -0.14312629370E+01  0.29654416140E+03  0.31645986869E+03  0.88222020884E+02 0.  0.
         23    2    1    2    0    0  0.66507408213E+02  0.14312629370E+01  0.67814029024E+03  0.68911378417E+03  0.10285071915E+03 0.  0.
          5    1    3    3  502    0 -0.34828003886E+02  0.30994571302E+02  0.23639478045E+03  0.24099426451E+03  0.47000000000E+01 0. -1.
         -5    1    3    3    0  502 -0.31679404327E+02 -0.32425834239E+02  0.60149380949E+02  0.75465604173E+02  0.47000000000E+01 0.  1.
          5    1    4    4  503    0  0.71511038287E+02  0.22357708471E+02  0.64480388898E+03  0.64915933404E+03  0.47000000000E+01 0. -1.
         -5    1    4    4    0  503 -0.50036300736E+01 -0.20926445534E+02  0.33336401260E+02  0.39954450135E+02  0.47000000000E+01 0.  1.
<mgrwt>
<rscale>  0 0.11937275E+03</rscale>
<asrwt>0</asrwt>
<pdfrwt beam="1">  1        1 0.15232750E+00 0.12248900E+03</pdfrwt>
<pdfrwt beam="2">  1       -1 0.23760932E-02 0.12248900E+03</pdfrwt>
<totfact> 0.83286052E+03</totfact>
</mgrwt>
</event>
<event>
 8    1  0.2964543E-004  0.1406081E+03  0.7546771E-02  0.1212972E+00
         -2   -1    0    0    0  501 -0.00000000000E+00  0.00000000000E+00  0.64273986641E+02  0.64273986641E+02  0.00000000000E+00 0.  1.
          2   -1    0    0  501    0  0.00000000000E+00 -0.00000000000E+00 -0.30497444190E+03  0.30497444190E+03  0.00000000000E+00 0. -1.
         23    2    1    2    0    0 -0.97229182805E+02  0.42498787786E+02 -0.12722517356E+03  0.18962303585E+03  0.92255026891E+02 0.  0.
         23    2    1    2    0    0  0.97229182805E+02 -0.42498787786E+02 -0.11347528170E+03  0.17962539268E+03  0.90160862842E+02 0.  0.
          5    1    3    3  502    0 -0.30573800416E+02  0.44942499786E+02 -0.10642838955E+03  0.11959798351E+03  0.47000000000E+01 0. -1.
         -5    1    4    4    0  503 -0.16685473725E+02 -0.11878103081E+02 -0.13998876256E+02  0.25249809953E+02  0.47000000000E+01 0.  1.
          5    1    4    4  503    0  0.11391465653E+03 -0.30620684705E+02 -0.99476405440E+02  0.15437558273E+03  0.47000000000E+01 0. -1.
         -5    1    3    3    0  502 -0.66655382389E+02 -0.24437120003E+01 -0.20796784011E+02  0.70025052338E+02  0.47000000000E+01 0.  1.
<mgrwt>
<rscale>  0 0.14026564E+03</rscale>
<asrwt>0</asrwt>
<pdfrwt beam="1">  1        2 0.46919144E-01 0.14060815E+03</pdfrwt>
<pdfrwt beam="2">  1       -2 0.98883058E-02 0.14060815E+03</pdfrwt>
<totfact> 0.69303017E+03</totfact>
</mgrwt>
</event>
<event>
 8    1  0.2964543E-004  0.1928816E+03  0.7546771E-02  0.1160392E+00
         -2   -1    0    0    0  501 -0.00000000000E+00  0.00000000000E+00  0.47176589286E+02  0.47176589286E+02  0.00000000000E+00 0.  1.
          2   -1    0    0  501    0  0.00000000000E+00 -0.00000000000E+00 -0.72004673666E+03  0.72004673666E+03  0.00000000000E+00 0. -1.
         23    2    1    2    0    0  0.88115334813E+02  0.11763135118E+03 -0.27802405237E+03  0.32778418588E+03  0.92431876585E+02 0.  0.
         23    2    1    2    0    0 -0.88115334813E+02 -0.11763135118E+03 -0.39484609500E+03  0.43943914006E+03  0.12490745403E+03 0.  0.
          5    1    4    4  502    0 -0.87065418687E+02 -0.82553800675E+02 -0.38411065846E+03  0.40244080941E+03  0.47000000000E+01 0.  1.
         -5    1    4    4    0  502 -0.10499161255E+01 -0.35077550500E+02 -0.10735436536E+02  0.36998330646E+02  0.47000000000E+01 0.  1.
          5    1    3    3  503    0 -0.18056153807E+02  0.20637589933E+02 -0.65188634877E+02  0.70877238417E+02  0.47000000000E+01 0. -1.
         -5    1    3    3    0  503  0.10617148862E+03  0.96993761242E+02 -0.21283541750E+03  0.25690694747E+03  0.47000000000E+01 0.  1.
<mgrwt>
<rscale>  0 0.18787553E+03</rscale>
<asrwt>0</asrwt>
<pdfrwt beam="1">  1        2 0.11077642E+00 0.19288162E+03</pdfrwt>
<pdfrwt beam="2">  1       -2 0.72579367E-02 0.19288162E+03</pdfrwt>
<totfact> 0.43972647E+03</totfact>
</mgrwt>
</event>
<event>
 8    1  0.2964543E-004  0.1064860E+03  0.7546771E-02  0.1267536E+00
         -1   -1    0    0    0  501 -0.00000000000E+00  0.00000000000E+00  0.39262508880E+02  0.39262508880E+02  0.00000000000E+00 0.  1.
          1   -1    0    0  501    0  0.00000000000E+00 -0.00000000000E+00 -0.43217234783E+03  0.43217234783E+03  0.00000000000E+00 0. -1.
         23    2    1    2    0    0 -0.51756594613E+02  0.74912977110E+01 -0.33265271108E+03  0.34908208775E+03  0.92008766830E+02 0.  0.
         23    2    1    2    0    0  0.51756594613E+02 -0.74912977110E+01 -0.60257127870E+02  0.12235276896E+03  0.92759980514E+02 0.  0.
          5    1    4    4  502    0  0.67016419840E+02  0.23389834099E+02 -0.34344874136E+02  0.78993324064E+02  0.47000000000E+01 0. -1.
         -5    1    3    3    0  503 -0.74102549274E+02  0.17484841806E+02 -0.19889366617E+03  0.21302039326E+03  0.47000000000E+01 0.  1.
          5    1    3    3  503    0  0.22345954660E+02 -0.99935440947E+01 -0.13375904491E+03  0.13606169449E+03  0.47000000000E+01 0. -1.
         -5    1    4    4    0  502 -0.15259825227E+02 -0.30881131810E+02 -0.25912253734E+02  0.43359444893E+02  0.47000000000E+01 0.  1.
<mgrwt>
<rscale>  0 0.10632224E+03</rscale>
<asrwt>0</asrwt>
<pdfrwt beam="1">  1        1 0.66488055E-01 0.10648605E+03</pdfrwt>
<pdfrwt beam="2">  1       -1 0.60403858E-02 0.10648605E+03</pdfrwt>
<totfact> 0.68212898E+03</totfact>
</mgrwt>
</event>
<event>
 8    1  0.2964543E-004  0.1914007E+03  0.7546771E-02  0.1157655E+00
         -1   -1    0    0    0  501 -0.00000000000E+00  0.00000000000E+00  0.43246101153E+02  0.43246101153E+02  0.00000000000E+00 0.  1.
          1   -1    0    0  501    0  0.00000000000E+00 -0.00000000000E+00 -0.88227139229E+03  0.88227139229E+03  0.00000000000E+00 0. -1.
         23    2    1    2    0    0 -0.15069773740E+03 -0.51456447663E+02 -0.31403408737E+03  0.36672414803E+03  0.10252618520E+03 0.  0.
         23    2    1    2    0    0  0.15069773740E+03  0.51456447663E+02 -0.52499120376E+03  0.55879334541E+03  0.10619164178E+03 0.  0.
          5    1    4    4  502    0  0.13476433749E+03  0.78174162009E+02 -0.38591793691E+03  0.41620592294E+03  0.47000000000E+01 0. -1.
         -5    1    4    4    0  502  0.15933399907E+02 -0.26717714346E+02 -0.13907326685E+03  0.14258742246E+03  0.47000000000E+01 0.  1.
          5    1    3    3  503    0 -0.29402851111E+02 -0.35377153677E+02 -0.17706216879E+03  0.18300047069E+03  0.47000000000E+01 0. -1.
         -5    1    3    3    0  503 -0.12129488629E+03 -0.16079293987E+02 -0.13697191858E+03  0.18372367734E+03  0.47000000000E+01 0.  1.
<mgrwt>
<rscale>  0 0.19089647E+03</rscale>
<asrwt>0</asrwt>
<pdfrwt beam="1">  1        1 0.13573405E+00 0.19140073E+03</pdfrwt>
<pdfrwt beam="2">  1       -1 0.66532468E-02 0.19140073E+03</pdfrwt>
<totfact> 0.22395805E+03</totfact>
</mgrwt>
</event>
<event>
 8    1  0.2964543E-004  0.1976938E+03  0.7546771E-02  0.1152040E+00
          1   -1    0    0  501    0  0.00000000000E+00  0.00000000000E+00  0.76237219433E+03  0.76237219433E+03  0.00000000000E+00 0. -1.
         -1   -1    0    0    0  501 -0.00000000000E+00 -0.00000000000E+00 -0.97402439513E+02  0.97402439513E+02  0.00000000000E+00 0.  1.
         23    2    1    2    0    0  0.99890055960E+02  0.14486762052E+03  0.34609991990E+02  0.19914139074E+03  0.86572462163E+02 0.  0.
         23    2    1    2    0    0 -0.99890055960E+02 -0.14486762052E+03  0.63035976282E+03  0.66063324310E+03  0.90101057432E+02 0.  0.
          5    1    4    4  502    0 -0.56169423615E+02 -0.14204518654E+03  0.51281604990E+03  0.53510207457E+03  0.47000000000E+01 0. -1.
         -5    1    3    3    0  503  0.38743055874E+02  0.10878210780E+03 -0.86039273381E+01  0.11589084917E+03  0.47000000000E+01 0.  1.
          5    1    3    3  503    0  0.61147000086E+02  0.36085512720E+02  0.43213919328E+02  0.83250541568E+02  0.47000000000E+01 0. -1.
         -5    1    4    4    0  502 -0.43720632345E+02 -0.28224339733E+01  0.11754371292E+03  0.12553116853E+03  0.47000000000E+01 0.  1.
<mgrwt>
<rscale>  0 0.19729688E+03</rscale>
<asrwt>0</asrwt>
<pdfrwt beam="1">  1        1 0.11728803E+00 0.19769383E+03</pdfrwt>
<pdfrwt beam="2">  1       -1 0.14984991E-01 0.19769383E+03</pdfrwt>
<totfact> 0.80291894E+02</totfact>
</mgrwt>
</event>
<event>
 8    1  0.2964543E-004  0.9948518E+02  0.7546771E-02  0.1281859E+00
         -2   -1    0    0    0  501 -0.00000000000E+00  0.00000000000E+00  0.11004023843E+03  0.11004023843E+03  0.00000000000E+00 0.  1.
          2   -1    0    0  501    0  0.00000000000E+00 -0.00000000000E+00 -0.22667021562E+03  0.22667021562E+03  0.00000000000E+00 0. -1.
         23    2    1    2    0    0 -0.25216529958E+02 -0.23161008998E+02 -0.18935158400E+03  0.21348004456E+03  0.92452157033E+02 0.  0.
         23    2    1    2    0    0  0.25216529958E+02  0.23161008998E+02  0.72721606812E+02  0.12323040950E+03  0.93407687086E+02 0.  0.
          5    1    3    3  502    0 -0.58481600127E+02 -0.13660402440E+02 -0.14514676895E+03  0.15715081509E+03  0.47000000000E+01 0. -1.
         -5    1    3    3    0  502  0.33265070170E+02 -0.95006065575E+01 -0.44204815056E+02  0.56329229468E+02  0.47000000000E+01 0.  1.
          5    1    4    4  503    0  0.37876480245E+02 -0.19904587238E+02  0.71619220578E+01  0.43637179977E+02  0.47000000000E+01 0. -1.
         -5    1    4    4    0  503 -0.12659950287E+02  0.43065596236E+02  0.65559684754E+02  0.79593229520E+02  0.47000000000E+01 0.  1.
<mgrwt>
<rscale>  0 0.99260270E+02</rscale>
<asrwt>0</asrwt>
<pdfrwt beam="1">  1        2 0.34872341E-01 0.99485183E+02</pdfrwt>
<pdfrwt beam="2">  1       -2 0.16929267E-01 0.99485183E+02</pdfrwt>
<totfact> 0.39171817E+03</totfact>
</mgrwt>
</event>
<event>
 8    1  0.2964543E-004  0.1078682E+03  0.7546771E-02  0.1264941E+00
          1   -1    0    0  501    0  0.00000000000E+00  0.00000000000E+00  0.31771099668E+03  0.31771099668E+03  0.00000000000E+00 0. -1.
         -1   -1    0    0    0  501 -0.00000000000E+00 -0.00000000000E+00 -0.10971786749E+03  0.10971786749E+03  0.00000000000E+00 0.  1.
         23    2    1    2    0    0 -0.52562798442E+02  0.22140820326E+02 -0.70629833029E+02  0.12893458321E+03  0.91555937701E+02 0.  0.
         23    2    1    2    0    0  0.52562798442E+02 -0.22140820326E+02  0.27862296222E+03  0.29849428096E+03  0.90636730883E+02 0.  0.
          5    1    4    4  502    0  0.33508439166E+02 -0.55422800560E+02  0.20916923734E+03  0.21901680796E+03  0.47000000000E+01 0. -1.
         -5    1    3    3    0  503 -0.70256759744E+02 -0.14038272983E+01 -0.69712909360E+02  0.99095725197E+02  0.47000000000E+01 0.  1.
          5    1    3    3  503    0  0.17693961302E+02  0.23544647625E+02 -0.91692366895E+00  0.29838858010E+02  0.47000000000E+01 0. -1.
         -5    1    4    4    0  502  0.19054359275E+02  0.33281980233E+02  0.69453724877E+02  0.79477473003E+02  0.47000000000E+01 0.  1.
<mgrwt>
<rscale>  0 0.10767292E+03</rscale>
<asrwt>0</asrwt>
<pdfrwt beam="1">  1        1 0.48878615E-01 0.10786822E+03</pdfrwt>
<pdfrwt beam="2">  1       -1 0.16879672E-01 0.10786822E+03</pdfrwt>
<totfact> 0.20978592E+03</totfact>
</mgrwt>
</event>
<event>
 8    1  0.2964543E-004  0.2488382E+03  0.7546771E-02  0.1114079E+00
          1   -1    0    0  501    0  0.00000000000E+00  0.00000000000E+00  0.52287412173E+03  0.52287412173E+03  0.00000000000E+00 0. -1.
         -1   -1    0    0    0  501 -0.00000000000E+00 -0.00000000000E+00 -0.15597548809E+03  0.15597548809E+03  0.00000000000E+00 0.  1.
         23    2    1    2    0    0  0.14278073605E+03  0.18212098177E+03  0.16590346044E+02  0.24915631519E+03  0.90825322618E+02 0.  0.
         23    2    1    2    0    0 -0.14278073605E+03 -0.18212098177E+03  0.35030828759E+03  0.42969329463E+03  0.91466062069E+02 0.  0.
          5    1    3    3  502    0  0.24818751454E+01  0.63866144428E+02  0.13955842685E+02  0.65588868364E+02  0.47000000000E+01 0. -1.
         -5    1    4    4    0  503 -0.25864695711E+02  0.17130929824E+01  0.16605012408E+02  0.31140546059E+02  0.47000000000E+01 0.  1.
          5    1    4    4  503    0 -0.11691604033E+03 -0.18383407475E+03  0.33370327518E+03  0.39855274857E+03  0.47000000000E+01 0. -1.
         -5    1    3    3    0  502  0.14029886090E+03  0.11825483734E+03  0.26345033596E+01  0.18356744682E+03  0.47000000000E+01 0.  1.
<mgrwt>
<rscale>  0 0.24877944E+03</rscale>
<asrwt>0</asrwt>
<pdfrwt beam="1">  1        1 0.80442172E-01 0.24883816E+03</pdfrwt>
<pdfrwt beam="2">  1       -1 0.23996229E-01 0.24883816E+03</pdfrwt>
<totfact> 0.63709829E+02</totfact>
</mgrwt>
</event>
<event>
 8    1  0.2964543E-004  0.1033704E+03  0.7546771E-02  0.1274359E+00
          1   -1    0    0  501    0  0.00000000000E+00  0.00000000000E+00  0.45929592821E+02  0.45929592821E+02  0.00000000000E+00 0. -1.
         -1   -1    0    0    0  501 -0.00000000000E+00 -0.00000000000E+00 -0.35004018159E+03  0.35004018159E+03  0.00000000000E+00 0.  1.
         23    2    1    2    0    0 -0.38791731155E+02 -0.33363615035E+02 -0.26977624885E+03  0.28890252779E+03  0.89819357080E+02 0.  0.
         23    2    1    2    0    0  0.38791731155E+02  0.33363615035E+02 -0.34334339912E+02  0.10706724661E+03  0.87559232442E+02 0.  0.
          5    1    4    4  502    0  0.65971438750E+02  0.19906731087E+02 -0.14648851515E+02  0.70605860408E+02  0.47000000000E+01 0. -1.
         -5    1    4    4    0  502 -0.27179707594E+02  0.13456883948E+02 -0.19685488397E+02  0.36461386204E+02  0.47000000000E+01 0.  1.
          5    1    3    3  503    0 -0.40943435284E+02  0.21123343696E+02 -0.93761264507E+02  0.10457449624E+03  0.47000000000E+01 0. -1.
         -5    1    3    3    0  503  0.21517041287E+01 -0.54486958731E+02 -0.17601498435E+03  0.18432803156E+03  0.47000000000E+01 0.  1.
<mgrwt>
<rscale>  0 0.10287750E+03</rscale>
<asrwt>0</asrwt>
<pdfrwt beam="1">  1        1 0.70660912E-02 0.10337043E+03</pdfrwt>
<pdfrwt beam="2">  1       -1 0.53852336E-01 0.10337043E+03</pdfrwt>
<totfact> 0.34810049E+03</totfact>
</mgrwt>
</event>
<event>
 8    1  0.2964543E-004  0.1072926E+03  0.7546771E-02  0.1272622E+00
         -2   -1    0    0    0  501 -0.00000000000E+00  0.00000000000E+00  0.11302074374E+03  0.11302074374E+03  0.00000000000E+00 0.  1.
          2   -1    0    0  501    0  0.00000000000E+00 -0.00000000000E+00 -0.38944082958E+03  0.38944082958E+03  0.00000000000E+00 0. -1.
         23    2    1    2    0    0 -0.90343086713E+00 -0.31001221290E+02  0.80049461805E+02  0.13386417242E+03  0.10271226029E+03 0.  0.
         23    2    1    2    0    0  0.90343086713E+00  0.31001221290E+02 -0.35646954765E+03  0.36859740090E+03  0.88496404653E+02 0.  0.
          5    1    3    3  502    0  0.14401121493E+02  0.34149495461E+02  0.14516757419E+02  0.40080002326E+02  0.47000000000E+01 0. -1.
         -5    1    3    3    0  502 -0.15304552360E+02 -0.65150716751E+02  0.65532704387E+02  0.93784170095E+02  0.47000000000E+01 0.  1.
          5    1    4    4  503    0 -0.19745041218E+02  0.39740475469E+02 -0.33234927174E+03  0.33533162760E+03  0.47000000000E+01 0. -1.
         -5    1    4    4    0  503  0.20648472085E+02 -0.87392541784E+01 -0.24120275916E+02  0.33265773301E+02  0.47000000000E+01 0. -1.
<mgrwt>
<rscale>  0 0.10374031E+03</rscale>
<asrwt>0</asrwt>
<pdfrwt beam="1">  1        2 0.59913972E-01 0.10729259E+03</pdfrwt>
<pdfrwt beam="2">  1       -2 0.17387807E-01 0.10729259E+03</pdfrwt>
<totfact> 0.21281728E+03</totfact>
</mgrwt>
</event>
<event>
 8    1  0.2964543E-004  0.1162955E+03  0.7546771E-02  0.1250213E+00
          1   -1    0    0  501    0  0.00000000000E+00  0.00000000000E+00  0.12795470780E+03  0.12795470780E+03  0.00000000000E+00 0. -1.
         -1   -1    0    0    0  501 -0.00000000000E+00 -0.00000000000E+00 -0.11257091325E+03  0.11257091325E+03  0.00000000000E+00 0.  1.
         23    2    1    2    0    0 -0.46417821043E+02  0.50189372613E+02 -0.25675503412E+02  0.11909606715E+03  0.94080043052E+02 0.  0.
         23    2    1    2    0    0  0.46417821043E+02 -0.50189372613E+02  0.41059297957E+02  0.12142955391E+03  0.91573377026E+02 0.  0.
          5    1    3    3  502    0  0.28115295185E+02  0.48615598469E+01 -0.54865537624E+01  0.29432921358E+02  0.47000000000E+01 0. -1.
         -5    1    4    4    0  503  0.95656569961E+01 -0.57841705877E+02 -0.80648429186E+01  0.59365784959E+02  0.47000000000E+01 0.  1.
          5    1    4    4  503    0  0.36852164047E+02  0.76523332645E+01  0.49124140876E+02  0.62063768949E+02  0.47000000000E+01 0. -1.
         -5    1    3    3    0  502 -0.74533116227E+02  0.45327812766E+02 -0.20188949650E+02  0.89663145788E+02  0.47000000000E+01 0.  1.
<mgrwt>
<rscale>  0 0.11578759E+03</rscale>
<asrwt>0</asrwt>
<pdfrwt beam="1">  1        1 0.19685340E-01 0.11629549E+03</pdfrwt>
<pdfrwt beam="2">  1       -1 0.17318602E-01 0.11629549E+03</pdfrwt>
<totfact> 0.62459744E+03</totfact>
</mgrwt>
</event>
<event>
 7    1  0.2964543E-004  0.1520874E+03  0.7546771E-02  0.1210012E+00
         -2   -1    0    0    0  501 -0.00000000000E+00  0.00000000000E+00  0.25123264742E+02  0.25123264742E+02  0.00000000000E+00 0.  1.
          2   -1    0    0  501    0  0.00000000000E+00 -0.00000000000E+00 -0.10026457358E+04  0.10026457358E+04  0.00000000000E+00 0. -1.
         23    2    1    2    0    0  0.32971827844E+01 -0.72987931131E+02 -0.71361826985E+03  0.72317747616E+03  0.91632513108E+02 0.  0.
          5    1    3    3  502    0 -0.33431614598E+02 -0.58550432069E+02 -0.57549358180E+03  0.57944868508E+03  0.47000000000E+01 0. -1.
         -5    1    1    2    0  503 -0.43891857341E+02  0.33421001845E+02 -0.28227791625E+02  0.62147861792E+02  0.47000000000E+01 0.  1.
          5    1    1    2  503    0  0.40594674557E+02  0.39566929286E+02 -0.23567640956E+03  0.24244366256E+03  0.47000000000E+01 0. -1.
         -5    1    3    3    0  502  0.36728797382E+02 -0.14437499062E+02 -0.13812468805E+03  0.14372879108E+03  0.47000000000E+01 0.  1.
<mgrwt>
<rscale>  0 0.14249413E+03</rscale>
<asrwt>0</asrwt>
<pdfrwt beam="1">  1        2 0.15425319E+00 0.15208737E+03</pdfrwt>
<pdfrwt beam="2">  1       -2 0.38651177E-02 0.15208737E+03</pdfrwt>
<totfact> 0.73808688E+03</totfact>
</mgrwt>
</event>
<event>
 8    1  0.2964543E-004  0.9396121E+02  0.7546771E-02  0.1293558E+00
         -1   -1    0    0    0  501 -0.00000000000E+00  0.00000000000E+00  0.15368483566E+03  0.15368483566E+03  0.00000000000E+00 0.  1.
          1   -1    0    0  501    0  0.00000000000E+00 -0.00000000000E+00 -0.15099359437E+03  0.15099359437E+03  0.00000000000E+00 0. -1.
         23    2    1    2    0    0 -0.13878562018E+02  0.24304720349E+02  0.12127064529E+03  0.15341212026E+03  0.89696016178E+02 0.  0.
         23    2    1    2    0    0  0.13878562018E+02 -0.24304720349E+02 -0.11857940399E+03  0.15126630977E+03  0.89649804830E+02 0.  0.
          5    1    3    3  502    0  0.22633421939E+02 -0.12455197443E+02  0.59848741181E+01  0.26931625465E+02  0.47000000000E+01 0. -1.
         -5    1    3    3    0  502 -0.36511983957E+02  0.36759917792E+02  0.11528577117E+03  0.12648049479E+03  0.47000000000E+01 0.  1.
          5    1    4    4  503    0 -0.20004601960E+02 -0.48060702969E+02 -0.66133832142E+02  0.84295842265E+02  0.47000000000E+01 0. -1.
         -5    1    4    4    0  503  0.33883163979E+02  0.23755982619E+02 -0.52445571853E+02  0.66970467509E+02  0.47000000000E+01 0.  1.
<mgrwt>
<rscale>  0 0.93950181E+02</rscale>
<asrwt>0</asrwt>
<pdfrwt beam="1">  1        1 0.23229784E-01 0.93961211E+02</pdfrwt>
<pdfrwt beam="2">  1       -1 0.23643821E-01 0.93961211E+02</pdfrwt>
<totfact> 0.30435244E+03</totfact>
</mgrwt>
</event>
<event>
 8    1  0.2964543E-004  0.1013963E+03  0.7546771E-02  0.1277529E+00
          1   -1    0    0  501    0  0.00000000000E+00  0.00000000000E+00  0.54825286013E+02  0.54825286013E+02  0.00000000000E+00 0. -1.
         -1   -1    0    0    0  501 -0.00000000000E+00 -0.00000000000E+00 -0.18729540176E+03  0.18729540176E+03  0.00000000000E+00 0.  1.
         23    2    1    2    0    0  0.42344877063E+02  0.41116079461E+01 -0.70791421715E+02  0.12343843623E+03  0.91736733192E+02 0.  0.
         23    2    1    2    0    0 -0.42344877063E+02 -0.41116079461E+01 -0.61678694033E+02  0.11868225155E+03  0.92039239462E+02 0.  0.
          5    1    4    4  502    0  0.23222566904E+02 -0.79679148770E+01  0.44156049413E+01  0.25384303184E+02  0.47000000000E+01 0. -1.
         -5    1    4    4    0  502 -0.65567443967E+02  0.38563069309E+01 -0.66094298974E+02  0.93297948361E+02  0.47000000000E+01 0.  1.
          5    1    3    3  503    0  0.23697529395E+02 -0.39278337155E+02 -0.58354591513E+02  0.74375459796E+02  0.47000000000E+01 0. -1.
         -5    1    3    3    0  503  0.18647347668E+02  0.43389945102E+02 -0.12436830202E+02  0.49062976433E+02  0.47000000000E+01 0.  1.
<mgrwt>
<rscale>  0 0.10132763E+03</rscale>
<asrwt>0</asrwt>
<pdfrwt beam="1">  1        1 0.84346593E-02 0.10139633E+03</pdfrwt>
<pdfrwt beam="2">  1       -1 0.28814677E-01 0.10139633E+03</pdfrwt>
<totfact> 0.81512120E+03</totfact>
</mgrwt>
</event>
<event>
 8    1  0.2964543E-004  0.1127289E+03  0.7546771E-02  0.1256043E+00
          2   -1    0    0  501    0  0.00000000000E+00  0.00000000000E+00  0.30794192649E+03  0.30794192649E+03  0.00000000000E+00 0. -1.
         -2   -1    0    0    0  501 -0.00000000000E+00 -0.00000000000E+00 -0.55056474591E+02  0.55056474591E+02  0.00000000000E+00 0.  1.
         23    2    1    2    0    0  0.42690924734E+02 -0.49257943638E+02  0.34842398936E+02  0.11799065496E+03  0.91972505830E+02 0.  0.
         23    2    1    2    0    0 -0.42690924734E+02  0.49257943638E+02  0.21804305296E+03  0.24500774612E+03  0.90758815807E+02 0.  0.
          5    1    3    3  502    0  0.22917145465E+02  0.20424157141E+01  0.54555714530E+02  0.59395142950E+02  0.47000000000E+01 0. -1.
         -5    1    4    4    0  503  0.10412486574E+02  0.18293354787E+02  0.35842471698E+01  0.21863291925E+02  0.47000000000E+01 0.  1.
          5    1    4    4  503    0 -0.53103411307E+02  0.30964588851E+02  0.21445880579E+03  0.22314445419E+03  0.47000000000E+01 0. -1.
         -5    1    3    3    0  502  0.19773779269E+02 -0.51300359352E+02 -0.19713315594E+02  0.58595512012E+02  0.47000000000E+01 0.  1.
<mgrwt>
<rscale>  0 0.11248107E+03</rscale>
<asrwt>0</asrwt>
<pdfrwt beam="1">  1        2 0.47375680E-01 0.11272889E+03</pdfrwt>
<pdfrwt beam="2">  1       -2 0.84702270E-02 0.11272889E+03</pdfrwt>
<totfact> 0.85959961E+03</totfact>
</mgrwt>
</event>
<event>
 8    1  0.2964543E-004  0.9619011E+02  0.7546771E-02  0.1290695E+00
          1   -1    0    0  501    0  0.00000000000E+00  0.00000000000E+00  0.63260439165E+03  0.63260439165E+03  0.00000000000E+00 0. -1.
         -1   -1    0    0    0  501 -0.00000000000E+00 -0.00000000000E+00 -0.16848555859E+02  0.16848555859E+02  0.00000000000E+00 0.  1.
         23    2    1    2    0    0 -0.17797910567E+02  0.25317117500E+02  0.17025532692E+03  0.19368629550E+03  0.87004497934E+02 0.  0.
         23    2    1    2    0    0  0.17797910567E+02 -0.25317117500E+02  0.44550050888E+03  0.45576665202E+03  0.91075878367E+02 0.  0.
          5    1    4    4  502    0  0.12191240903E+02 -0.57482315275E+02  0.34475044282E+03  0.34975391456E+03  0.47000000000E+01 0. -1.
         -5    1    3    3    0  503  0.16896853160E+02  0.24142240376E+02  0.12952839581E+02  0.32530254691E+02  0.47000000000E+01 0.  1.
          5    1    3    3  503    0 -0.34694763726E+02  0.11748771243E+01  0.15730248733E+03  0.16115604080E+03  0.47000000000E+01 0. -1.
         -5    1    4    4    0  502  0.56066696637E+01  0.32165197775E+02  0.10075006606E+03  0.10601273746E+03  0.47000000000E+01 0.  1.
<mgrwt>
<rscale>  0 0.95213947E+02</rscale>
<asrwt>0</asrwt>
<pdfrwt beam="1">  1        1 0.97323734E-01 0.96190112E+02</pdfrwt>
<pdfrwt beam="2">  1       -1 0.25920860E-02 0.96190112E+02</pdfrwt>
<totfact> 0.14119241E+04</totfact>
</mgrwt>
</event>
<event>
 8    1  0.2964543E-004  0.1069872E+03  0.7546771E-02  0.1266405E+00
          2   -1    0    0  501    0  0.00000000000E+00  0.00000000000E+00  0.37278363757E+03  0.37278363757E+03  0.00000000000E+00 0. -1.
         -2   -1    0    0    0  501 -0.00000000000E+00 -0.00000000000E+00 -0.32739537221E+02  0.32739537221E+02  0.00000000000E+00 0.  1.
         23    2    1    2    0    0 -0.36490416266E+02  0.41034377099E+02  0.11859853582E+03  0.15972436858E+03  0.91819881482E+02 0.  0.
         23    2    1    2    0    0  0.36490416266E+02 -0.41034377099E+02  0.22144556453E+03  0.24579880622E+03  0.91452416610E+02 0.  0.
          5    1    4    4  502    0  0.59798226077E+02 -0.39987505663E+02  0.10776917125E+03  0.12965767514E+03  0.47000000000E+01 0. -1.
         -5    1    4    4    0  502 -0.23307809811E+02 -0.10468714350E+01  0.11367639328E+03  0.11614113108E+03  0.47000000000E+01 0.  1.
          5    1    3    3  503    0  0.16837204912E+02  0.30998723808E+02  0.80510898813E+01  0.36487290873E+02  0.47000000000E+01 0. -1.
         -5    1    3    3    0  503 -0.53327621177E+02  0.10035653290E+02  0.11054744594E+03  0.12323707770E+03  0.47000000000E+01 0.  1.
<mgrwt>
<rscale>  0 0.10690831E+03</rscale>
<asrwt>0</asrwt>
<pdfrwt beam="1">  1        2 0.57351326E-01 0.10698720E+03</pdfrwt>
<pdfrwt beam="2">  1       -2 0.50368521E-02 0.10698720E+03</pdfrwt>
<totfact> 0.15391022E+04</totfact>
</mgrwt>
</event>
<event>
 8    1  0.2964543E-004  0.1640848E+03  0.7546771E-02  0.1184587E+00
          2   -1    0    0  501    0  0.00000000000E+00  0.00000000000E+00  0.38160329756E+02  0.38160329756E+02  0.00000000000E+00 0. -1.
         -2   -1    0    0    0  501 -0.00000000000E+00 -0.00000000000E+00 -0.13907849981E+04  0.13907849981E+04  0.00000000000E+00 0.  1.
         23    2    1    2    0    0  0.12043709246E+03 -0.63843183798E+02 -0.17399163143E+03  0.23915878398E+03  0.91338878842E+02 0.  0.
         23    2    1    2    0    0 -0.12043709246E+03  0.63843183798E+02 -0.11786330369E+04  0.11897865439E+04  0.88516320124E+02 0.  0.
          5    1    4    4  502    0 -0.74159260476E+02 -0.89718134424E+00 -0.38099979220E+03  0.38817951067E+03  0.47000000000E+01 0. -1.
         -5    1    4    4    0  502 -0.46277831988E+02  0.64740365142E+02 -0.79763324472E+03  0.80160703321E+03  0.47000000000E+01 0.  1.
          5    1    3    3  503    0  0.96836751607E+02 -0.75248155637E+02 -0.17350799737E+03  0.21252471983E+03  0.47000000000E+01 0. -1.
         -5    1    3    3    0  503  0.23600340858E+02  0.11404971840E+02 -0.48363406473E+00  0.26634064150E+02  0.47000000000E+01 0.  1.
<mgrwt>
<rscale>  0 0.16369489E+03</rscale>
<asrwt>0</asrwt>
<pdfrwt beam="1">  1        2 0.58708193E-02 0.16408484E+03</pdfrwt>
<pdfrwt beam="2">  1       -2 0.21396695E+00 0.16408484E+03</pdfrwt>
<totfact> 0.15009266E+02</totfact>
</mgrwt>
</event>
<event>
 8    1  0.2964543E-004  0.1182031E+03  0.7546771E-02  0.1247090E+00
          1   -1    0    0  501    0  0.00000000000E+00  0.00000000000E+00  0.48414592558E+02  0.48414592558E+02  0.00000000000E+00 0. -1.
         -1   -1    0    0    0  501 -0.00000000000E+00 -0.00000000000E+00 -0.36965585268E+03  0.36965585268E+03  0.00000000000E+00 0.  1.
         23    2    1    2    0    0 -0.69777720727E+02  0.30182820903E+02 -0.58113246142E+02  0.12961191729E+03  0.87419487185E+02 0.  0.
         23    2    1    2    0    0  0.69777720727E+02 -0.30182820903E+02 -0.26312801398E+03  0.28845852795E+03  0.90509875794E+02 0.  0.
          5    1    3    3  502    0 -0.62003037357E+02  0.55060695812E+02 -0.60886821730E+02  0.10298228938E+03  0.47000000000E+01 0. -1.
         -5    1    4    4    0  503  0.77236156583E+02 -0.65113865936E+00 -0.23237351522E+03  0.24491914674E+03  0.47000000000E+01 0.  1.
          5    1    4    4  503    0 -0.74584358560E+01 -0.29531682244E+02 -0.30754498758E+02  0.43539381201E+02  0.47000000000E+01 0. -1.
         -5    1    3    3    0  502 -0.77746833697E+01 -0.24877874908E+02  0.27735755874E+01  0.26629627917E+02  0.47000000000E+01 0.  1.
<mgrwt>
<rscale>  0 0.11761134E+03</rscale>
<asrwt>0</asrwt>
<pdfrwt beam="1">  1        1 0.74483990E-02 0.11820309E+03</pdfrwt>
<pdfrwt beam="2">  1       -1 0.56870130E-01 0.11820309E+03</pdfrwt>
<totfact> 0.29561194E+03</totfact>
</mgrwt>
</event>
<event>
 8    1  0.2964543E-004  0.1050544E+03  0.7546771E-02  0.1270458E+00
          2   -1    0    0  501    0  0.00000000000E+00  0.00000000000E+00  0.10453371578E+04  0.10453371578E+04  0.00000000000E+00 0. -1.
         -2   -1    0    0    0  501 -0.00000000000E+00 -0.00000000000E+00 -0.10951515664E+02  0.10951515664E+02  0.00000000000E+00 0.  1.
         23    2    1    2    0    0  0.33806340194E+01 -0.52330132865E+02  0.62610576678E+03  0.63470962956E+03  0.89988950294E+02 0.  0.
         23    2    1    2    0    0 -0.33806340194E+01  0.52330132865E+02  0.40827987539E+03  0.42157904394E+03  0.91030556095E+02 0.  0.
          5    1    3    3  502    0 -0.39068316767E+02 -0.14878152722E+02  0.17224440770E+03  0.17730741324E+03  0.47000000000E+01 0. -1.
         -5    1    4    4    0  503 -0.30147302471E+02  0.59780483470E+02  0.19037272499E+03  0.20185745087E+03  0.47000000000E+01 0.  1.
          5    1    4    4  503    0  0.26766668452E+02 -0.74503506049E+01  0.21790715041E+03  0.21972159307E+03  0.47000000000E+01 0. -1.
         -5    1    3    3    0  502  0.42448950786E+02 -0.37451980143E+02  0.45386135907E+03  0.45740221632E+03  0.47000000000E+01 0.  1.
<mgrwt>
<rscale>  0 0.10482839E+03</rscale>
<asrwt>0</asrwt>
<pdfrwt beam="1">  1        2 0.16082102E+00 0.10505443E+03</pdfrwt>
<pdfrwt beam="2">  1       -2 0.16848494E-02 0.10505443E+03</pdfrwt>
<totfact> 0.22873404E+04</totfact>
</mgrwt>
</event>
<event>
 8    1  0.2964543E-004  0.9614513E+02  0.7546771E-02  0.1289518E+00
          4   -1    0    0  501    0  0.00000000000E+00  0.00000000000E+00  0.24390508473E+03  0.24390508473E+03  0.00000000000E+00 0. -1.
         -4   -1    0    0    0  501 -0.00000000000E+00 -0.00000000000E+00 -0.63717239780E+02  0.63717239780E+02  0.00000000000E+00 0.  1.
         23    2    1    2    0    0  0.15880518641E+02 -0.20519411971E+02  0.18963572033E+03  0.21261607036E+03  0.92577804082E+02 0.  0.
         23    2    1    2    0    0 -0.15880518641E+02  0.20519411971E+02 -0.94478753870E+01  0.95006254148E+02  0.90904833963E+02 0.  0.
          5    1    3    3  502    0 -0.22246108705E+02 -0.14036430814E+02  0.16357880471E+03  0.16574687355E+03  0.47000000000E+01 0. -1.
         -5    1    3    3    0  502  0.38126627346E+02 -0.64829811574E+01  0.26056915626E+02  0.46869196808E+02  0.47000000000E+01 0.  1.
          5    1    4    4  503    0 -0.14125806389E+01 -0.34999595156E+02  0.48991952801E+01  0.35679954590E+02  0.47000000000E+01 0. -1.
         -5    1    4    4    0  503 -0.14467938002E+02  0.55519007127E+02 -0.14347070667E+02  0.59326299557E+02  0.47000000000E+01 0.  1.
<mgrwt>
<rscale>  0 0.95740128E+02</rscale>
<asrwt>0</asrwt>
<pdfrwt beam="1">  1        4 0.37523859E-01 0.96145135E+02</pdfrwt>
<pdfrwt beam="2">  1       -4 0.98026524E-02 0.96145135E+02</pdfrwt>
<totfact> 0.82903436E+02</totfact>
</mgrwt>
</event>
<event>
 8    1  0.2964543E-004  0.1402838E+03  0.7546771E-02  0.1214685E+00
         -3   -1    0    0    0  501 -0.00000000000E+00  0.00000000000E+00  0.62319113602E+03  0.62319113602E+03  0.00000000000E+00 0.  1.
          3   -1    0    0  501    0  0.00000000000E+00 -0.00000000000E+00 -0.31255637786E+02  0.31255637786E+02  0.00000000000E+00 0. -1.
         23    2    1    2    0    0 -0.84288848760E+02 -0.52459371126E+02  0.35393134529E+03  0.38071898586E+03  0.99110813602E+02 0.  0.
         23    2    1    2    0    0  0.84288848760E+02  0.52459371126E+02  0.23800415295E+03  0.27372778794E+03  0.91784145851E+02 0.  0.
          5    1    4    4  502    0  0.41005885070E+02 -0.17949212313E+02  0.44653218699E+02  0.63400763191E+02  0.47000000000E+01 0. -1.
         -5    1    3    3    0  503 -0.19315335637E+02  0.29410001964E+02  0.81922144996E+02  0.89282463267E+02  0.47000000000E+01 0.  1.
          5    1    3    3  503    0 -0.64973513123E+02 -0.81869373090E+02  0.27200920029E+03  0.29143652259E+03  0.47000000000E+01 0. -1.
         -5    1    4    4    0  502  0.43282963690E+02  0.70408583439E+02  0.19335093425E+03  0.21032702475E+03  0.47000000000E+01 0.  1.
<mgrwt>
<rscale>  0 0.13899701E+03</rscale>
<asrwt>0</asrwt>
<pdfrwt beam="1">  1        3 0.48085601E-02 0.14028382E+03</pdfrwt>
<pdfrwt beam="2">  1       -3 0.95875551E-01 0.14028382E+03</pdfrwt>
<totfact> 0.56293878E+02</totfact>
</mgrwt>
</event>
<event>
 8    1  0.2964543E-004  0.1507913E+03  0.7546771E-02  0.1200059E+00
          1   -1    0    0  501    0  0.00000000000E+00  0.00000000000E+00  0.77888568490E+03  0.77888568490E+03  0.00000000000E+00 0. -1.
         -1   -1    0    0    0  501 -0.00000000000E+00 -0.00000000000E+00 -0.30109655833E+02  0.30109655833E+02  0.00000000000E+00 0.  1.
         23    2    1    2    0    0  0.75390311604E+02  0.91871124353E+02  0.45946869337E+03  0.48357989092E+03  0.92811788843E+02 0.  0.
         23    2    1    2    0    0 -0.75390311604E+02 -0.91871124353E+02  0.28930733570E+03  0.32541544980E+03  0.89846969403E+02 0.  0.
          5    1    3    3  502    0  0.57632022899E+02  0.57142359081E+02  0.14147592503E+03  0.16316931889E+03  0.47000000000E+01 0. -1.
         -5    1    4    4    0  503 -0.64199333234E+02 -0.10982706518E+03  0.24587913729E+03  0.27687935783E+03  0.47000000000E+01 0.  1.
          5    1    4    4  503    0 -0.11190978370E+02  0.17955940831E+02  0.43428198403E+02  0.48536091979E+02  0.47000000000E+01 0. -1.
         -5    1    3    3    0  502  0.17758288705E+02  0.34728765272E+02  0.31799276834E+03  0.32041057203E+03  0.47000000000E+01 0.  1.
<mgrwt>
<rscale>  0 0.15033768E+03</rscale>
<asrwt>0</asrwt>
<pdfrwt beam="1">  1        1 0.11982855E+00 0.15079135E+03</pdfrwt>
<pdfrwt beam="2">  1       -1 0.46322553E-02 0.15079135E+03</pdfrwt>
<totfact> 0.46313346E+03</totfact>
</mgrwt>
</event>
<event>
 8    1  0.2964543E-004  0.9995409E+02  0.7546771E-02  0.1280814E+00
          1   -1    0    0  501    0  0.00000000000E+00  0.00000000000E+00  0.14769667124E+03  0.14769667124E+03  0.00000000000E+00 0. -1.
         -1   -1    0    0    0  501 -0.00000000000E+00 -0.00000000000E+00 -0.79698579378E+02  0.79698579378E+02  0.00000000000E+00 0.  1.
         23    2    1    2    0    0 -0.42207111496E+02 -0.31833187578E+01  0.79308151140E+02  0.12759546350E+03  0.90549686304E+02 0.  0.
         23    2    1    2    0    0  0.42207111496E+02  0.31833187578E+01 -0.11310059276E+02  0.99799787119E+02  0.89668870234E+02 0.  0.
          5    1    3    3  502    0 -0.42757133972E+02 -0.24673657731E+02  0.47014143940E+01  0.49811195415E+02  0.47000000000E+01 0. -1.
         -5    1    4    4    0  503  0.26808025749E+02  0.31919096596E+02 -0.38615121914E+02  0.57015056016E+02  0.47000000000E+01 0.  1.
          5    1    4    4  503    0  0.15399085747E+02 -0.28735777839E+02  0.27305062638E+02  0.42784731102E+02  0.47000000000E+01 0. -1.
         -5    1    3    3    0  502  0.55002247555E+00  0.21490338973E+02  0.74606736746E+02  0.77784268087E+02  0.47000000000E+01 0.  1.
<mgrwt>
<rscale>  0 0.99754178E+02</rscale>
<asrwt>0</asrwt>
<pdfrwt beam="1">  1        1 0.22722565E-01 0.99954087E+02</pdfrwt>
<pdfrwt beam="2">  1       -1 0.12261320E-01 0.99954087E+02</pdfrwt>
<totfact> 0.88141063E+03</totfact>
</mgrwt>
</event>
<event>
 8    1  0.2964543E-004  0.1028460E+03  0.7546771E-02  0.1274658E+00
         -1   -1    0    0    0  501 -0.00000000000E+00  0.00000000000E+00  0.37180385964E+03  0.37180385964E+03  0.00000000000E+00 0.  1.
          1   -1    0    0  501    0  0.00000000000E+00 -0.00000000000E+00 -0.28335189752E+02  0.28335189752E+02  0.00000000000E+00 0. -1.
         23    2    1    2    0    0  0.28332227228E-01 -0.48499771623E+02  0.16760047947E+03  0.19663980162E+03  0.90692128721E+02 0.  0.
         23    2    1    2    0    0 -0.28332227228E-01  0.48499771623E+02  0.17586819041E+03  0.20349924777E+03  0.90167038283E+02 0.  0.
          5    1    3    3  502    0  0.17260136112E+02  0.22131708546E+02  0.32904311768E+02  0.43502971792E+02  0.47000000000E+01 0. -1.
         -5    1    3    3    0  502 -0.17231803885E+02 -0.70631480169E+02  0.13469616770E+03  0.15313682983E+03  0.47000000000E+01 0.  1.
          5    1    4    4  503    0 -0.24937537638E+02  0.30356019611E+02  0.19604377289E+02  0.44156430097E+02  0.47000000000E+01 0. -1.
         -5    1    4    4    0  503  0.24909205410E+02  0.18143752012E+02  0.15626381312E+03  0.15934281767E+03  0.47000000000E+01 0.  1.
<mgrwt>
<rscale>  0 0.10273008E+03</rscale>
<asrwt>0</asrwt>
<pdfrwt beam="1">  1        1 0.43592602E-02 0.10284596E+03</pdfrwt>
<pdfrwt beam="2">  1       -1 0.57200590E-01 0.10284596E+03</pdfrwt>
<totfact> 0.59745054E+03</totfact>
</mgrwt>
</event>
<event>
 8    1  0.2964543E-004  0.1171299E+03  0.7546771E-02  0.1250350E+00
          3   -1    0    0  501    0  0.00000000000E+00  0.00000000000E+00  0.20261229927E+03  0.20261229927E+03  0.00000000000E+00 0. -1.
         -3   -1    0    0    0  501 -0.00000000000E+00 -0.00000000000E+00 -0.66184120281E+02  0.66184120281E+02  0.00000000000E+00 0.  1.
         23    2    1    2    0    0  0.57558730690E+02 -0.25707152084E+02  0.45301173592E+02  0.12039312160E+03  0.92024139514E+02 0.  0.
         23    2    1    2    0    0 -0.57558730690E+02  0.25707152084E+02  0.91127005393E+02  0.14840329795E+03  0.98719514698E+02 0.  0.
          5    1    3    3  502    0  0.34699315712E+00  0.30615053124E+02  0.15410584563E+02  0.34597369822E+02  0.47000000000E+01 0. -1.
         -5    1    3    3    0  502  0.57211737533E+02 -0.56322205208E+02  0.29890589028E+02  0.85795751780E+02  0.47000000000E+01 0.  1.
          5    1    4    4  503    0  0.23663692929E+01  0.26308058282E+02  0.83626782802E+02  0.87825067242E+02  0.47000000000E+01 0. -1.
         -5    1    4    4    0  503 -0.59925099983E+02 -0.60090619795E+00  0.75002225907E+01  0.60578230704E+02  0.47000000000E+01 0.  1.
<mgrwt>
<rscale>  0 0.11570800E+03</rscale>
<asrwt>0</asrwt>
<pdfrwt beam="1">  1        3 0.31171122E-01 0.11712988E+03</pdfrwt>
<pdfrwt beam="2">  1       -3 0.10182173E-01 0.11712988E+03</pdfrwt>
<totfact> 0.16016578E+03</totfact>
</mgrwt>
</event>
<event>
 8    1  0.2964543E-004  0.1020805E+03  0.7546771E-02  0.1276431E+00
         -2   -1    0    0    0  501 -0.00000000000E+00  0.00000000000E+00  0.17617825846E+03  0.17617825846E+03  0.00000000000E+00 0.  1.
          2   -1    0    0  501    0  0.00000000000E+00 -0.00000000000E+00 -0.60881839251E+02  0.60881839251E+02  0.00000000000E+00 0. -1.
         23    2    1    2    0    0 -0.12568772891E+02  0.41652730874E+02  0.34665556470E+02  0.10697644539E+03  0.91374695743E+02 0.  0.
         23    2    1    2    0    0  0.12568772891E+02 -0.41652730874E+02  0.80630862739E+02  0.13008365232E+03  0.92344445059E+02 0.  0.
          5    1    3    3  502    0 -0.40847423915E+02  0.54712829871E+02  0.31420562837E+02  0.75308349882E+02  0.47000000000E+01 0. -1.
         -5    1    4    4    0  503 -0.19632080869E+02 -0.52286065961E+02  0.18282055552E+02  0.58954006209E+02  0.47000000000E+01 0.  1.
          5    1    4    4  503    0  0.32200853760E+02  0.10633335087E+02  0.62348807188E+02  0.71129646109E+02  0.47000000000E+01 0. -1.
         -5    1    3    3    0  502  0.28278651025E+02 -0.13060098996E+02  0.32449936332E+01  0.31668095510E+02  0.47000000000E+01 0.  1.
<mgrwt>
<rscale>  0 0.10186065E+03</rscale>
<asrwt>0</asrwt>
<pdfrwt beam="1">  1        2 0.93664369E-02 0.10208046E+03</pdfrwt>
<pdfrwt beam="2">  1       -2 0.27104347E-01 0.10208046E+03</pdfrwt>
<totfact> 0.78684948E+03</totfact>
</mgrwt>
</event>
<event>
 8    1  0.2964543E-004  0.9662359E+02  0.7546771E-02  0.1289031E+00
          3   -1    0    0  501    0  0.00000000000E+00  0.00000000000E+00  0.58193804487E+02  0.58193804487E+02  0.00000000000E+00 0. -1.
         -3   -1    0    0    0  501 -0.00000000000E+00 -0.00000000000E+00 -0.30461692043E+03  0.30461692043E+03  0.00000000000E+00 0.  1.
         23    2    1    2    0    0 -0.22310030025E+02 -0.21395747852E+02  0.43241358392E+01  0.94090976939E+02  0.88763158601E+02 0.  0.
         23    2    1    2    0    0  0.22310030025E+02  0.21395747852E+02 -0.25074725178E+03  0.26871974798E+03  0.91545634584E+02 0.  0.
          5    1    4    4  502    0 -0.16233016635E+02 -0.16507642750E+02 -0.17916440265E+02  0.29649653118E+02  0.47000000000E+01 0. -1.
         -5    1    4    4    0  502  0.38543046659E+02  0.37903390602E+02 -0.23283081152E+03  0.23907009486E+03  0.47000000000E+01 0.  1.
          5    1    3    3  503    0 -0.51041943884E+02 -0.34471826162E+02 -0.74381223119E+00  0.61775643185E+02  0.47000000000E+01 0. -1.
         -5    1    3    3    0  503  0.28731913859E+02  0.13076078310E+02  0.50679480704E+01  0.32315333754E+02  0.47000000000E+01 0.  1.
<mgrwt>
<rscale>  0 0.95958755E+02</rscale>
<asrwt>0</asrwt>
<pdfrwt beam="1">  1        3 0.89528931E-02 0.96623593E+02</pdfrwt>
<pdfrwt beam="2">  1       -3 0.46864141E-01 0.96623593E+02</pdfrwt>
<totfact> 0.87894610E+02</totfact>
</mgrwt>
</event>
<event>
 8    1  0.2964543E-004  0.9563746E+02  0.7546771E-02  0.1290980E+00
          1   -1    0    0  501    0  0.00000000000E+00  0.00000000000E+00  0.26828196419E+03  0.26828196419E+03  0.00000000000E+00 0. -1.
         -1   -1    0    0    0  501 -0.00000000000E+00 -0.00000000000E+00 -0.34392123850E+02  0.34392123850E+02  0.00000000000E+00 0.  1.
         23    2    1    2    0    0  0.24481483657E+02 -0.10868590388E+02  0.88910995431E+02  0.12899222823E+03  0.89534130563E+02 0.  0.
         23    2    1    2    0    0 -0.24481483657E+02  0.10868590388E+02  0.14497884491E+03  0.17368185981E+03  0.91809877778E+02 0.  0.
          5    1    4    4  502    0 -0.52401452565E+02 -0.15282073713E+02  0.10319743198E+03  0.11683858085E+03  0.47000000000E+01 0. -1.
         -5    1    3    3    0  503  0.22874977173E+02 -0.38951287172E+02  0.12014491962E+02  0.46977711419E+02  0.47000000000E+01 0.  1.
          5    1    3    3  503    0  0.16065064835E+01  0.28082696784E+02  0.76896503470E+02  0.82014516810E+02  0.47000000000E+01 0. -1.
         -5    1    4    4    0  502  0.27919968908E+02  0.26150664101E+02  0.41781412925E+02  0.56843278958E+02  0.47000000000E+01 0.  1.
<mgrwt>
<rscale>  0 0.95087100E+02</rscale>
<asrwt>0</asrwt>
<pdfrwt beam="1">  1        1 0.41274147E-01 0.95637456E+02</pdfrwt>
<pdfrwt beam="2">  1       -1 0.52910961E-02 0.95637456E+02</pdfrwt>
<totfact> 0.14810368E+04</totfact>
</mgrwt>
</event>
<event>
 8    1  0.2964543E-004  0.9742723E+02  0.7546771E-02  0.1286024E+00
          2   -1    0    0  501    0  0.00000000000E+00  0.00000000000E+00  0.19886634649E+03  0.19886634649E+03  0.00000000000E+00 0. -1.
         -2   -1    0    0    0  501 -0.00000000000E+00 -0.00000000000E+00 -0.48196589017E+02  0.48196589017E+02  0.00000000000E+00 0.  1.
         23    2    1    2    0    0 -0.29836575335E+02 -0.11490259723E+02  0.89693372099E+02  0.13212737050E+03  0.91599638325E+02 0.  0.
         23    2    1    2    0    0  0.29836575335E+02  0.11490259723E+02  0.60976385369E+02  0.11493556500E+03  0.92031609967E+02 0.  0.
          5    1    3    3  502    0 -0.55616823140E+02 -0.13016416990E+01  0.87671027956E+02  0.10393856084E+03  0.47000000000E+01 0. -1.
         -5    1    3    3    0  502  0.25780247806E+02 -0.10188618024E+02  0.20223441426E+01  0.28188809659E+02  0.47000000000E+01 0.  1.
          5    1    4    4  503    0 -0.24084862844E+02 -0.22296841290E+02  0.15616920025E+02  0.36649801375E+02  0.47000000000E+01 0. -1.
         -5    1    4    4    0  503  0.53921438179E+02  0.33787101014E+02  0.45359465344E+02  0.78285763626E+02  0.47000000000E+01 0.  1.
<mgrwt>
<rscale>  0 0.97325080E+02</rscale>
<asrwt>0</asrwt>
<pdfrwt beam="1">  1        2 0.30594822E-01 0.97427227E+02</pdfrwt>
<pdfrwt beam="2">  1       -2 0.74148600E-02 0.97427227E+02</pdfrwt>
<totfact> 0.16529139E+04</totfact>
</mgrwt>
</event>
<event>
 8    1  0.2964543E-004  0.1556246E+03  0.7546771E-02  0.1193803E+00
         -2   -1    0    0    0  501 -0.00000000000E+00  0.00000000000E+00  0.31006517697E+02  0.31006517697E+02  0.00000000000E+00 0.  1.
          2   -1    0    0  501    0  0.00000000000E+00 -0.00000000000E+00 -0.80204364332E+03  0.80204364332E+03  0.00000000000E+00 0. -1.
         23    2    1    2    0    0 -0.31679912642E+02  0.12182247771E+03 -0.31646247613E+03  0.35265780363E+03  0.91513358135E+02 0.  0.
         23    2    1    2    0    0  0.31679912642E+02 -0.12182247771E+03 -0.45457464950E+03  0.48039235739E+03  0.91073443648E+02 0.  0.
          5    1    4    4  502    0  0.63388723463E+02 -0.88531040579E+02 -0.30889652153E+03  0.32755919529E+03  0.47000000000E+01 0. -1.
         -5    1    4    4    0  502 -0.31708810821E+02 -0.33291437136E+02 -0.14567812797E+03  0.15283316210E+03  0.47000000000E+01 0.  1.
          5    1    3    3  503    0  0.23683834089E+02  0.16723156210E+02 -0.11539561417E+03  0.11907487443E+03  0.47000000000E+01 0. -1.
         -5    1    3    3    0  503 -0.55363746731E+02  0.10509932150E+03 -0.20106686196E+03  0.23358292920E+03  0.47000000000E+01 0.  1.
<mgrwt>
<rscale>  0 0.15556003E+03</rscale>
<asrwt>0</asrwt>
<pdfrwt beam="1">  1        2 0.12339133E+00 0.15562464E+03</pdfrwt>
<pdfrwt beam="2">  1       -2 0.47702335E-02 0.15562464E+03</pdfrwt>
<totfact> 0.72327898E+03</totfact>
</mgrwt>
</event>
<event>
 8    1  0.2964543E-004  0.1065309E+03  0.7546771E-02  0.1269655E+00
          1   -1    0    0  501    0  0.00000000000E+00  0.00000000000E+00  0.20835121214E+03  0.20835121214E+03  0.00000000000E+00 0. -1.
         -1   -1    0    0    0  501 -0.00000000000E+00 -0.00000000000E+00 -0.53300897289E+02  0.53300897289E+02  0.00000000000E+00 0.  1.
         23    2    1    2    0    0 -0.45721899091E+02 -0.39864609198E+01  0.54482579054E+02  0.11515058833E+03  0.90470562318E+02 0.  0.
         23    2    1    2    0    0  0.45721899091E+02  0.39864609198E+01  0.10056773579E+03  0.14650152109E+03  0.96137621523E+02 0.  0.
          5    1    4    4  502    0  0.32552691465E+02  0.42610616557E+02  0.88681138513E+02  0.10373898348E+03  0.47000000000E+01 0. -1.
         -5    1    4    4    0  502  0.13169207626E+02 -0.38624155638E+02  0.11886597280E+02  0.42762537613E+02  0.47000000000E+01 0.  1.
          5    1    3    3  503    0 -0.86858519785E+01 -0.20909147933E+02  0.68131193670E+02  0.71948495765E+02  0.47000000000E+01 0. -1.
         -5    1    3    3    0  503 -0.37036047112E+02  0.16922687013E+02 -0.13648614616E+02  0.43202092569E+02  0.47000000000E+01 0.  1.
<mgrwt>
<rscale>  0 0.10523626E+03</rscale>
<asrwt>0</asrwt>
<pdfrwt beam="1">  1        1 0.32054032E-01 0.10653087E+03</pdfrwt>
<pdfrwt beam="2">  1       -1 0.82001382E-02 0.10653087E+03</pdfrwt>
<totfact> 0.10644997E+04</totfact>
</mgrwt>
</event>
<event>
 8    1  0.2964543E-004  0.1048534E+03  0.7546771E-02  0.1271290E+00
         -1   -1    0    0    0  501 -0.00000000000E+00  0.00000000000E+00  0.21309227066E+03  0.21309227066E+03  0.00000000000E+00 0.  1.
          1   -1    0    0  501    0  0.00000000000E+00 -0.00000000000E+00 -0.53534881117E+02  0.53534881117E+02  0.00000000000E+00 0. -1.
         23    2    1    2    0    0  0.48818232902E+02 -0.67389199759E+01  0.11095198626E+03  0.15265837792E+03  0.92550549370E+02 0.  0.
         23    2    1    2    0    0 -0.48818232902E+02  0.67389199759E+01  0.48605403281E+02  0.11396877385E+03  0.90541500314E+02 0.  0.
          5    1    3    3  502    0  0.31984008925E+02  0.28698368383E+02  0.10171313449E+02  0.44408544133E+02  0.47000000000E+01 0. -1.
         -5    1    4    4    0  503  0.53645293100E+01 -0.34213053453E+02  0.18267541153E+02  0.39434810271E+02  0.47000000000E+01 0.  1.
          5    1    4    4  503    0 -0.54182762212E+02  0.40951973429E+02  0.30337862128E+02  0.74533963581E+02  0.47000000000E+01 0. -1.
         -5    1    3    3    0  502  0.16834223977E+02 -0.35437288359E+02  0.10078067281E+03  0.10824983379E+03  0.47000000000E+01 0.  1.
<mgrwt>
<rscale>  0 0.10440833E+03</rscale>
<asrwt>0</asrwt>
<pdfrwt beam="1">  1        1 0.82361356E-02 0.10485341E+03</pdfrwt>
<pdfrwt beam="2">  1       -1 0.32783426E-01 0.10485341E+03</pdfrwt>
<totfact> 0.67988021E+03</totfact>
</mgrwt>
</event>
<event>
 8    1  0.2964543E-004  0.1024230E+03  0.7546771E-02  0.1276305E+00
          2   -1    0    0  501    0  0.00000000000E+00  0.00000000000E+00  0.18270743260E+03  0.18270743260E+03  0.00000000000E+00 0. -1.
         -2   -1    0    0    0  501 -0.00000000000E+00 -0.00000000000E+00 -0.65538057369E+02  0.65538057369E+02  0.00000000000E+00 0.  1.
         23    2    1    2    0    0  0.43433128651E+02  0.14675965244E+02  0.11510155374E+02  0.10109134023E+03  0.89359693224E+02 0.  0.
         23    2    1    2    0    0 -0.43433128651E+02 -0.14675965244E+02  0.10565921986E+03  0.14715414974E+03  0.91589586874E+02 0.  0.
          5    1    4    4  502    0 -0.71901884614E+02 -0.65601858155E+01  0.71770405893E+02  0.10191171773E+03  0.47000000000E+01 0. -1.
         -5    1    3    3    0  503  0.24899239559E+02  0.43947826139E+02 -0.19508970385E+02  0.54351388928E+02  0.47000000000E+01 0.  1.
          5    1    3    3  503    0  0.18533889092E+02 -0.29271860895E+02  0.31019125759E+02  0.46739951305E+02  0.47000000000E+01 0. -1.
         -5    1    4    4    0  502  0.28468755964E+02 -0.81157794284E+01  0.33888813968E+02  0.45242432008E+02  0.47000000000E+01 0.  1.
<mgrwt>
<rscale>  0 0.10192208E+03</rscale>
<asrwt>0</asrwt>
<pdfrwt beam="1">  1        2 0.28108836E-01 0.10242301E+03</pdfrwt>
<pdfrwt beam="2">  1       -2 0.10082778E-01 0.10242301E+03</pdfrwt>
<totfact> 0.11327390E+04</totfact>
</mgrwt>
</event>
<event>
 8    1  0.2964543E-004  0.1024359E+03  0.7546771E-02  0.1276062E+00
         -2   -1    0    0    0  501 -0.00000000000E+00  0.00000000000E+00  0.31944204496E+02  0.31944204496E+02  0.00000000000E+00 0.  1.
          2   -1    0    0  501    0  0.00000000000E+00 -0.00000000000E+00 -0.57543605463E+03  0.57543605463E+03  0.00000000000E+00 0. -1.
         23    2    1    2    0    0 -0.51504048303E+01  0.44087261926E+02 -0.47388263925E+03  0.48482767011E+03  0.92319556925E+02 0.  0.
         23    2    1    2    0    0  0.51504048303E+01 -0.44087261926E+02 -0.69609210889E+02  0.12255258902E+03  0.90573072712E+02 0.  0.
          5    1    4    4  502    0 -0.39747685135E+02 -0.37962578341E+02 -0.34865883307E+02  0.65259142246E+02  0.47000000000E+01 0. -1.
         -5    1    4    4    0  502  0.44898089965E+02 -0.61246835849E+01 -0.34743327582E+02  0.57293446772E+02  0.47000000000E+01 0.  1.
          5    1    3    3  503    0 -0.40554684085E+02 -0.49688301477E+01 -0.21831363246E+03  0.22215378410E+03  0.47000000000E+01 0. -1.
         -5    1    3    3    0  503  0.35404279254E+02  0.49056092074E+02 -0.25556900679E+03  0.26267388601E+03  0.47000000000E+01 0.  1.
<mgrwt>
<rscale>  0 0.10204083E+03</rscale>
<asrwt>0</asrwt>
<pdfrwt beam="1">  1        2 0.88528624E-01 0.10243590E+03</pdfrwt>
<pdfrwt beam="2">  1       -2 0.49144930E-02 0.10243590E+03</pdfrwt>
<totfact> 0.99623273E+03</totfact>
</mgrwt>
</event>
<event>
 8    1  0.2964543E-004  0.1571448E+03  0.7546771E-02  0.1195618E+00
          2   -1    0    0  501    0  0.00000000000E+00  0.00000000000E+00  0.20945934381E+02  0.20945934381E+02  0.00000000000E+00 0. -1.
         -2   -1    0    0    0  501 -0.00000000000E+00 -0.00000000000E+00 -0.11652078447E+04  0.11652078447E+04  0.00000000000E+00 0.  1.
         23    2    1    2    0    0  0.11345370778E+03  0.26150912764E+02 -0.70150377026E+03  0.71633546373E+03  0.86448498343E+02 0.  0.
         23    2    1    2    0    0 -0.11345370778E+03 -0.26150912764E+02 -0.44275814010E+03  0.46981831539E+03  0.10554082056E+03 0.  0.
          5    1    3    3  502    0  0.24036863280E+02  0.43798921579E+02 -0.32957089942E+03  0.33336944082E+03  0.47000000000E+01 0. -1.
         -5    1    4    4    0  503 -0.58235910047E+02  0.38388131306E+02 -0.23903772015E+03  0.24905058021E+03  0.47000000000E+01 0.  1.
          5    1    4    4  503    0 -0.55217797729E+02 -0.64539044070E+02 -0.20372041995E+03  0.22076773519E+03  0.47000000000E+01 0. -1.
         -5    1    3    3    0  502  0.89416844496E+02 -0.17648008815E+02 -0.37193287084E+03  0.38296602292E+03  0.47000000000E+01 0.  1.
<mgrwt>
<rscale>  0 0.15402002E+03</rscale>
<asrwt>0</asrwt>
<pdfrwt beam="1">  1        2 0.32224504E-02 0.15714477E+03</pdfrwt>
<pdfrwt beam="2">  1       -2 0.17926280E+00 0.15714477E+03</pdfrwt>
<totfact> 0.54958650E+02</totfact>
</mgrwt>
</event>
<event>
 8    1  0.2964543E-004  0.1276600E+03  0.7546771E-02  0.1236842E+00
         -3   -1    0    0    0  501 -0.00000000000E+00  0.00000000000E+00  0.19827816678E+03  0.19827816678E+03  0.00000000000E+00 0.  1.
          3   -1    0    0  501    0  0.00000000000E+00 -0.00000000000E+00 -0.83573799422E+02  0.83573799422E+02  0.00000000000E+00 0. -1.
         23    2    1    2    0    0  0.50458846528E+02  0.40665557210E+02  0.10628914841E+02  0.12810176127E+03  0.10998774783E+03 0.  0.
         23    2    1    2    0    0 -0.50458846528E+02 -0.40665557210E+02  0.10407545251E+03  0.15375020493E+03  0.92777383908E+02 0.  0.
          5    1    3    3  502    0 -0.25246563790E+02 -0.17454028372E+02  0.97322225329E+01  0.32539794791E+02  0.47000000000E+01 0. -1.
         -5    1    3    3    0  502  0.75705410318E+02  0.58119585582E+02  0.89669230831E+00  0.95561966475E+02  0.47000000000E+01 0.  1.
          5    1    4    4  503    0 -0.47312076313E+02  0.20088653176E+02  0.40271939482E+02  0.65466828709E+02  0.47000000000E+01 0. -1.
         -5    1    4    4    0  503 -0.31467702144E+01 -0.60754210386E+02  0.63803513032E+02  0.88283376225E+02  0.47000000000E+01 0.  1.
<mgrwt>
<rscale>  0 0.12387224E+03</rscale>
<asrwt>0</asrwt>
<pdfrwt beam="1">  1        3 0.12857508E-01 0.12766005E+03</pdfrwt>
<pdfrwt beam="2">  1       -3 0.30504333E-01 0.12766005E+03</pdfrwt>
<totfact> 0.11468441E+03</totfact>
</mgrwt>
</event>
<event>
 8    1  0.2964543E-004  0.1079488E+03  0.7546771E-02  0.1271316E+00
          1   -1    0    0  501    0  0.00000000000E+00  0.00000000000E+00  0.10696712788E+04  0.10696712788E+04  0.00000000000E+00 0. -1.
         -1   -1    0    0    0  501 -0.00000000000E+00 -0.00000000000E+00 -0.33915255751E+02  0.33915255751E+02  0.00000000000E+00 0.  1.
         23    2    1    2    0    0 -0.25168150551E+01  0.60311329737E+02  0.40913521209E+02  0.10290449318E+03  0.72605975273E+02 0.  0.
         23    2    1    2    0    0  0.25168150551E+01 -0.60311329737E+02  0.99484250183E+03  0.10006820414E+04  0.89493874712E+02 0.  0.
          5    1    3    3  502    0  0.28858131366E+02  0.25059332015E+02  0.39923907879E+02  0.55468642378E+02  0.47000000000E+01 0. -1.
         -5    1    4    4    0  503  0.33915947161E+02  0.56859454799E+01  0.31640532930E+03  0.31830338336E+03  0.47000000000E+01 0.  1.
          5    1    4    4  503    0 -0.31399132106E+02 -0.65997275217E+02  0.67843717254E+03  0.68237865801E+03  0.47000000000E+01 0. -1.
         -5    1    3    3    0  502 -0.31374946421E+02  0.35251997721E+02  0.98961332997E+00  0.47435850797E+02  0.47000000000E+01 0.  1.
<mgrwt>
<rscale>  0 0.10439534E+03</rscale>
<asrwt>0</asrwt>
<pdfrwt beam="1">  1        1 0.16456479E+00 0.10794880E+03</pdfrwt>
<pdfrwt beam="2">  1       -1 0.52177325E-02 0.10794880E+03</pdfrwt>
<totfact> 0.23099510E+03</totfact>
</mgrwt>
</event>
<event>
 8    1  0.2964543E-004  0.9779344E+02  0.7546771E-02  0.1285247E+00
          1   -1    0    0  501    0  0.00000000000E+00  0.00000000000E+00  0.43743830957E+02  0.43743830957E+02  0.00000000000E+00 0. -1.
         -1   -1    0    0    0  501 -0.00000000000E+00 -0.00000000000E+00 -0.27120045150E+03  0.27120045150E+03  0.00000000000E+00 0.  1.
         23    2    1    2    0    0 -0.14475889677E+02 -0.32206691392E+02 -0.18350575475E+03  0.20772844961E+03  0.90718930765E+02 0.  0.
         23    2    1    2    0    0  0.14475889677E+02  0.32206691392E+02 -0.43950865793E+02  0.10721583285E+03  0.91196128517E+02 0.  0.
          5    1    3    3  502    0 -0.34710285196E+02  0.27300261444E+01 -0.22614317483E+02  0.41782224646E+02  0.47000000000E+01 0. -1.
         -5    1    3    3    0  502  0.20234395519E+02 -0.34936717536E+02 -0.16089143727E+03  0.16594622497E+03  0.47000000000E+01 0.  1.
          5    1    4    4  503    0 -0.26962071865E+02 -0.51882055655E+00  0.12222651563E+02  0.29978420660E+02  0.47000000000E+01 0. -1.
         -5    1    4    4    0  503  0.41437961542E+02  0.32725511948E+02 -0.56173517357E+02  0.77237412186E+02  0.47000000000E+01 0.  1.
<mgrwt>
<rscale>  0 0.97682033E+02</rscale>
<asrwt>0</asrwt>
<pdfrwt beam="1">  1        1 0.67298201E-02 0.97793436E+02</pdfrwt>
<pdfrwt beam="2">  1       -1 0.41723147E-01 0.97793436E+02</pdfrwt>
<totfact> 0.58485113E+03</totfact>
</mgrwt>
</event>
<event>
 8    1  0.2964543E-004  0.1578202E+03  0.7546771E-02  0.1191418E+00
          1   -1    0    0  501    0  0.00000000000E+00  0.00000000000E+00  0.18036142105E+03  0.18036142105E+03  0.00000000000E+00 0. -1.
         -1   -1    0    0    0  501 -0.00000000000E+00 -0.00000000000E+00 -0.66102947276E+03  0.66102947276E+03  0.00000000000E+00 0.  1.
         23    2    1    2    0    0 -0.67995935046E+02  0.10705746352E+03 -0.61490223015E+03  0.63483224153E+03  0.93928028639E+02 0.  0.
         23    2    1    2    0    0  0.67995935046E+02 -0.10705746352E+03  0.13423417844E+03  0.20655865228E+03  0.92536017272E+02 0.  0.
          5    1    4    4  502    0  0.40853942150E+02 -0.11392791766E+03  0.13029406734E+03  0.17789673689E+03  0.47000000000E+01 0. -1.
         -5    1    4    4    0  502  0.27141992896E+02  0.68704541417E+01  0.39401111018E+01  0.28661915393E+02  0.47000000000E+01 0.  1.
          5    1    3    3  503    0  0.17932694671E+02  0.45521537122E+02 -0.25539701374E+03  0.26008367213E+03  0.47000000000E+01 0. -1.
         -5    1    3    3    0  503 -0.85928629717E+02  0.61535926397E+02 -0.35950521641E+03  0.37474856940E+03  0.47000000000E+01 0.  1.
<mgrwt>
<rscale>  0 0.15761370E+03</rscale>
<asrwt>0</asrwt>
<pdfrwt beam="1">  1        1 0.27747911E-01 0.15782022E+03</pdfrwt>
<pdfrwt beam="2">  1       -1 0.10169684E+00 0.15782022E+03</pdfrwt>
<totfact> 0.16595287E+02</totfact>
</mgrwt>
</event>
<event>
 7    1  0.2964543E-004  0.2562258E+03  0.7546771E-02  0.1150659E+00
          2   -1    0    0  501    0  0.00000000000E+00  0.00000000000E+00  0.13707769514E+04  0.13707769514E+04  0.00000000000E+00 0. -1.
         -2   -1    0    0    0  501 -0.00000000000E+00 -0.00000000000E+00 -0.22705017147E+02  0.22705017147E+02  0.00000000000E+00 0.  1.
         23    2    1    2    0    0  0.11778396228E+02 -0.18757466969E+02  0.45284519170E+03  0.46230926808E+03  0.90390920602E+02 0.  0.
          5    1    3    3  502    0  0.40930594706E+02  0.15811852609E+02  0.16075909119E+03  0.16670603968E+03  0.47000000000E+01 0. -1.
         -5    1    3    3    0  502 -0.29152198478E+02 -0.34569319578E+02  0.29208610051E+03  0.29560322840E+03  0.47000000000E+01 0.  1.
          5    1    1    2  503    0  0.10632010744E+03 -0.47815387433E+02  0.33423590200E+03  0.35401413066E+03  0.47000000000E+01 0. -1.
         -5    1    1    2    0  503 -0.11809850367E+03  0.66572854402E+02  0.56099084053E+03  0.57715856978E+03  0.47000000000E+01 0.  1.
<mgrwt>
<rscale>  0 0.19891327E+03</rscale>
<asrwt>0</asrwt>
<pdfrwt beam="1">  1        2 0.21088870E+00 0.25622583E+03</pdfrwt>
<pdfrwt beam="2">  1       -2 0.34930806E-02 0.25622583E+03</pdfrwt>
<totfact> 0.53952400E+03</totfact>
</mgrwt>
</event>
<event>
 8    1  0.2964543E-004  0.1491936E+03  0.7546771E-02  0.1202007E+00
         -2   -1    0    0    0  501 -0.00000000000E+00  0.00000000000E+00  0.48891018866E+02  0.48891018866E+02  0.00000000000E+00 0.  1.
          2   -1    0    0  501    0  0.00000000000E+00 -0.00000000000E+00 -0.45137682880E+03  0.45137682880E+03  0.00000000000E+00 0. -1.
         23    2    1    2    0    0 -0.96938281602E+02  0.65284856920E+02 -0.18623511271E+03  0.23754540771E+03  0.89917520756E+02 0.  0.
         23    2    1    2    0    0  0.96938281602E+02 -0.65284856920E+02 -0.21625069723E+03  0.26272243995E+03  0.92733884958E+02 0.  0.
          5    1    4    4  502    0  0.11491306988E+03 -0.55515163413E+02 -0.17773298748E+03  0.21885623554E+03  0.47000000000E+01 0. -1.
         -5    1    4    4    0  502 -0.17974788278E+02 -0.97696935065E+01 -0.38517709755E+02  0.43866204413E+02  0.47000000000E+01 0.  1.
          5    1    3    3  503    0 -0.41395631508E+02  0.21073193653E+02 -0.10357925517E+02  0.47823157777E+02  0.47000000000E+01 0. -1.
         -5    1    3    3    0  503 -0.55542650093E+02  0.44211663266E+02 -0.17587718719E+03  0.18972224994E+03  0.47000000000E+01 0.  1.
<mgrwt>
<rscale>  0 0.14875814E+03</rscale>
<asrwt>0</asrwt>
<pdfrwt beam="1">  1        2 0.69442590E-01 0.14919355E+03</pdfrwt>
<pdfrwt beam="2">  1       -2 0.75216951E-02 0.14919355E+03</pdfrwt>
<totfact> 0.70007808E+03</totfact>
</mgrwt>
</event>
<event>
 8    1  0.2964543E-004  0.1121341E+03  0.7546771E-02  0.1263881E+00
          1   -1    0    0  501    0  0.00000000000E+00  0.00000000000E+00  0.21016019418E+03  0.21016019418E+03  0.00000000000E+00 0. -1.
         -1   -1    0    0    0  501 -0.00000000000E+00 -0.00000000000E+00 -0.60981253700E+02  0.60981253700E+02  0.00000000000E+00 0.  1.
         23    2    1    2    0    0  0.51928934247E+02 -0.20412297618E+02  0.18701227672E+02  0.99099307446E+02  0.79734940357E+02 0.  0.
         23    2    1    2    0    0 -0.51928934247E+02  0.20412297618E+02  0.13047771281E+03  0.17204214043E+03  0.97266584393E+02 0.  0.
          5    1    4    4  502    0  0.30131335159E+01  0.42818606549E+02  0.90695387605E+02  0.10045026318E+03  0.47000000000E+01 0. -1.
         -5    1    4    4    0  502 -0.54942067763E+02 -0.22406308931E+02  0.39782325204E+02  0.71591877253E+02  0.47000000000E+01 0.  1.
          5    1    3    3  503    0  0.15976808130E+02 -0.13563262086E+02  0.47605920926E+02  0.52226757354E+02  0.47000000000E+01 0. -1.
         -5    1    3    3    0  503  0.35952126117E+02 -0.68490355315E+01 -0.28904693254E+02  0.46872550092E+02  0.47000000000E+01 0.  1.
<mgrwt>
<rscale>  0 0.10823121E+03</rscale>
<asrwt>0</asrwt>
<pdfrwt beam="1">  1        1 0.32332337E-01 0.11213414E+03</pdfrwt>
<pdfrwt beam="2">  1       -1 0.93817315E-02 0.11213414E+03</pdfrwt>
<totfact> 0.86353107E+03</totfact>
</mgrwt>
</event>
<event>
 8    1  0.2964543E-004  0.1473789E+03  0.7546771E-02  0.1203858E+00
         -1   -1    0    0    0  501 -0.00000000000E+00  0.00000000000E+00  0.44201978990E+02  0.44201978990E+02  0.00000000000E+00 0.  1.
          1   -1    0    0  501    0  0.00000000000E+00 -0.00000000000E+00 -0.72469851001E+03  0.72469851001E+03  0.00000000000E+00 0. -1.
         23    2    1    2    0    0  0.21039269454E+02  0.11347182305E+03 -0.55932588190E+03  0.57841678796E+03  0.91662603818E+02 0.  0.
         23    2    1    2    0    0 -0.21039269454E+02 -0.11347182305E+03 -0.12117064912E+03  0.19048370104E+03  0.91012134745E+02 0.  0.
          5    1    4    4  502    0  0.17304624137E+02 -0.10058193228E+03 -0.10546070641E+03  0.14683400735E+03  0.47000000000E+01 0. -1.
         -5    1    3    3    0  503 -0.35429954110E+02  0.57376941621E+02 -0.24936266964E+03  0.25836258647E+03  0.47000000000E+01 0.  1.
          5    1    3    3  503    0  0.56469223564E+02  0.56094881425E+02 -0.30996321226E+03  0.32005420148E+03  0.47000000000E+01 0. -1.
         -5    1    4    4    0  502 -0.38343893591E+02 -0.12889890770E+02 -0.15709942704E+02  0.43649693694E+02  0.47000000000E+01 0.  1.
<mgrwt>
<rscale>  0 0.14727787E+03</rscale>
<asrwt>0</asrwt>
<pdfrwt beam="1">  1        1 0.11149208E+00 0.14737889E+03</pdfrwt>
<pdfrwt beam="2">  1       -1 0.68003042E-02 0.14737889E+03</pdfrwt>
<totfact> 0.29048597E+03</totfact>
</mgrwt>
</event>
<event>
 8    1  0.2964543E-004  0.1143275E+03  0.7546771E-02  0.1255034E+00
         -1   -1    0    0    0  501 -0.00000000000E+00  0.00000000000E+00  0.21419451747E+02  0.21419451747E+02  0.00000000000E+00 0.  1.
          1   -1    0    0  501    0  0.00000000000E+00 -0.00000000000E+00 -0.82371295231E+03  0.82371295231E+03  0.00000000000E+00 0. -1.
         23    2    1    2    0    0 -0.39457227403E+02 -0.47641237860E+02 -0.16661734710E+03  0.19925707562E+03  0.90085967243E+02 0.  0.
         23    2    1    2    0    0  0.39457227403E+02  0.47641237860E+02 -0.63567615347E+03  0.64587532844E+03  0.96146801563E+02 0.  0.
          5    1    3    3  502    0 -0.66837421516E+02 -0.32451406780E+02 -0.13690016278E+03  0.15583349860E+03  0.47000000000E+01 0. -1.
         -5    1    4    4    0  503  0.51688069411E+02 -0.45151614262E+01 -0.19165999985E+03  0.19861442229E+03  0.47000000000E+01 0.  1.
          5    1    4    4  503    0 -0.12230842008E+02  0.52156399286E+02 -0.44401615363E+03  0.44726090614E+03  0.47000000000E+01 0. -1.
         -5    1    3    3    0  502  0.27380194113E+02 -0.15189831079E+02 -0.29717184312E+02  0.43423577021E+02  0.47000000000E+01 0.  1.
<mgrwt>
<rscale>  0 0.11304406E+03</rscale>
<asrwt>0</asrwt>
<pdfrwt beam="1">  1        1 0.12672505E+00 0.11432746E+03</pdfrwt>
<pdfrwt beam="2">  1       -1 0.32953008E-02 0.11432746E+03</pdfrwt>
<totfact> 0.69202420E+03</totfact>
</mgrwt>
</event>
<event>
 8    1  0.2964543E-004  0.1198177E+03  0.7546771E-02  0.1244199E+00
         -1   -1    0    0    0  501 -0.00000000000E+00  0.00000000000E+00  0.17172882364E+03  0.17172882364E+03  0.00000000000E+00 0.  1.
          1   -1    0    0  501    0  0.00000000000E+00 -0.00000000000E+00 -0.36133738397E+03  0.36133738397E+03  0.00000000000E+00 0. -1.
         23    2    1    2    0    0  0.63531938666E+02  0.38342316705E+02  0.13925583994E+03  0.18370756742E+03  0.94073592945E+02 0.  0.
         23    2    1    2    0    0 -0.63531938666E+02 -0.38342316705E+02 -0.32886440026E+03  0.34935864019E+03  0.91614547054E+02 0.  0.
          5    1    3    3  502    0  0.53026638831E+01  0.53542465576E+02  0.38767082984E+02  0.66482257688E+02  0.47000000000E+01 0. -1.
         -5    1    3    3    0  502  0.58229274783E+02 -0.15200148871E+02  0.10048875696E+03  0.11722530973E+03  0.47000000000E+01 0.  1.
          5    1    4    4  503    0 -0.54742147861E+02  0.17112179605E+02 -0.21120510933E+03  0.21890458572E+03  0.47000000000E+01 0. -1.
         -5    1    4    4    0  503 -0.87897908056E+01 -0.55454496310E+02 -0.11765929093E+03  0.13045405447E+03  0.47000000000E+01 0.  1.
<mgrwt>
<rscale>  0 0.11933457E+03</rscale>
<asrwt>0</asrwt>
<pdfrwt beam="1">  1        1 0.55590366E-01 0.11981770E+03</pdfrwt>
<pdfrwt beam="2">  1       -1 0.26419819E-01 0.11981770E+03</pdfrwt>
<totfact> 0.87295806E+02</totfact>
</mgrwt>
</event>
<event>
 8    1  0.2964543E-004  0.1316603E+03  0.7546771E-02  0.1225628E+00
         -1   -1    0    0    0  501 -0.00000000000E+00  0.00000000000E+00  0.67010261716E+03  0.67010261716E+03  0.00000000000E+00 0.  1.
          1   -1    0    0  501    0  0.00000000000E+00 -0.00000000000E+00 -0.27681184861E+02  0.27681184861E+02  0.00000000000E+00 0. -1.
         23    2    1    2    0    0  0.93183237894E+02 -0.94676098784E+01  0.22608489683E+03  0.26162726313E+03  0.92529415740E+02 0.  0.
         23    2    1    2    0    0 -0.93183237894E+02  0.94676098784E+01  0.41633653546E+03  0.43615653889E+03  0.90131371839E+02 0.  0.
          5    1    4    4  502    0 -0.44742633711E+02 -0.14940285117E+02  0.64033001333E+02  0.79670764088E+02  0.47000000000E+01 0. -1.
         -5    1    3    3    0  503  0.36380084812E+02 -0.33519294820E+02  0.35005122218E+02  0.60782417504E+02  0.47000000000E+01 0.  1.
          5    1    3    3  503    0  0.56803153082E+02  0.24051684942E+02  0.19107977462E+03  0.20084484563E+03  0.47000000000E+01 0. -1.
         -5    1    4    4    0  502 -0.48440604183E+02  0.24407894995E+02  0.35230353413E+03  0.35648577480E+03  0.47000000000E+01 0.  1.
<mgrwt>
<rscale>  0 0.13123980E+03</rscale>
<asrwt>0</asrwt>
<pdfrwt beam="1">  1        1 0.42586443E-02 0.13166034E+03</pdfrwt>
<pdfrwt beam="2">  1       -1 0.10309270E+00 0.13166034E+03</pdfrwt>
<totfact> 0.19019840E+03</totfact>
</mgrwt>
</event>
<event>
 8    1  0.2964543E-004  0.1023945E+03  0.7546771E-02  0.1277420E+00
         -1   -1    0    0    0  501 -0.00000000000E+00  0.00000000000E+00  0.13138658954E+03  0.13138658954E+03  0.00000000000E+00 0.  1.
          1   -1    0    0  501    0  0.00000000000E+00 -0.00000000000E+00 -0.93192709413E+02  0.93192709413E+02  0.00000000000E+00 0. -1.
         23    2    1    2    0    0 -0.28992781768E+02  0.23048269179E+02 -0.28424580393E+02  0.10242098251E+03  0.91160829199E+02 0.  0.
         23    2    1    2    0    0  0.28992781768E+02 -0.23048269179E+02  0.66618460519E+02  0.12215831644E+03  0.95461148579E+02 0.  0.
          5    1    4    4  502    0 -0.70469744106E+01  0.30870052762E+02  0.41592029145E+02  0.52484349041E+02  0.47000000000E+01 0. -1.
         -5    1    3    3    0  503  0.81345164382E+01  0.24064551329E+02  0.25811666052E+02  0.36518558196E+02  0.47000000000E+01 0.  1.
          5    1    3    3  503    0 -0.37127298207E+02 -0.10162821496E+01 -0.54236246445E+02  0.65902424310E+02  0.47000000000E+01 0. -1.
         -5    1    4    4    0  502  0.36039756179E+02 -0.53918321942E+02  0.25026431374E+02  0.69673967404E+02  0.47000000000E+01 0.  1.
<mgrwt>
<rscale>  0 0.10138033E+03</rscale>
<asrwt>0</asrwt>
<pdfrwt beam="1">  1        1 0.14337340E-01 0.10239451E+03</pdfrwt>
<pdfrwt beam="2">  1       -1 0.20213322E-01 0.10239451E+03</pdfrwt>
<totfact> 0.72546864E+03</totfact>
</mgrwt>
</event>
<event>
 8    1  0.2964543E-004  0.9555273E+02  0.7546771E-02  0.1291035E+00
          1   -1    0    0  501    0  0.00000000000E+00  0.00000000000E+00  0.17422989911E+03  0.17422989911E+03  0.00000000000E+00 0. -1.
         -1   -1    0    0    0  501 -0.00000000000E+00 -0.00000000000E+00 -0.53111921941E+02  0.53111921941E+02  0.00000000000E+00 0.  1.
         23    2    1    2    0    0  0.20928155877E+01  0.20297452842E+02  0.80705204476E+02  0.12359445603E+03  0.91355859488E+02 0.  0.
         23    2    1    2    0    0 -0.20928155877E+01 -0.20297452842E+02  0.40412772690E+02  0.10374736502E+03  0.93348578366E+02 0.  0.
          5    1    4    4  502    0 -0.33361330579E+02 -0.35146980775E+02  0.47592685994E+02  0.68084083277E+02  0.47000000000E+01 0. -1.
         -5    1    3    3    0  503 -0.19861145140E+02  0.48896564858E+02  0.29050315831E+02  0.60426401440E+02  0.47000000000E+01 0.  1.
          5    1    3    3  503    0  0.21953960727E+02 -0.28599112015E+02  0.51654888645E+02  0.63168054589E+02  0.47000000000E+01 0. -1.
         -5    1    4    4    0  502  0.31268514991E+02  0.14849527933E+02 -0.71799133039E+01  0.35663281742E+02  0.47000000000E+01 0.  1.
<mgrwt>
<rscale>  0 0.95062521E+02</rscale>
<asrwt>0</asrwt>
<pdfrwt beam="1">  1        1 0.26804600E-01 0.95552727E+02</pdfrwt>
<pdfrwt beam="2">  1       -1 0.81710650E-02 0.95552727E+02</pdfrwt>
<totfact> 0.13210910E+04</totfact>
</mgrwt>
</event>
<event>
 8    1  0.2964543E-004  0.1282776E+03  0.7546771E-02  0.1236113E+00
         -1   -1    0    0    0  501 -0.00000000000E+00  0.00000000000E+00  0.64874825293E+02  0.64874825293E+02  0.00000000000E+00 0.  1.
          1   -1    0    0  501    0  0.00000000000E+00 -0.00000000000E+00 -0.29719092728E+03  0.29719092728E+03  0.00000000000E+00 0. -1.
         23    2    1    2    0    0  0.46560240160E+02 -0.58961294164E+02 -0.21426419616E+02  0.11522654818E+03  0.84698145049E+02 0.  0.
         23    2    1    2    0    0 -0.46560240160E+02  0.58961294164E+02 -0.21088968238E+03  0.24683920440E+03  0.10397521109E+03 0.  0.
          5    1    3    3  502    0  0.15851214073E+02  0.16514170569E+02 -0.24092858017E+02  0.33563888699E+02  0.47000000000E+01 0. -1.
         -5    1    3    3    0  502  0.30709026087E+02 -0.75475464733E+02  0.26664384006E+01  0.81662659481E+02  0.47000000000E+01 0.  1.
          5    1    4    4  503    0 -0.48613824365E+01  0.50431596712E+02 -0.19440675702E+03  0.20095535863E+03  0.47000000000E+01 0. -1.
         -5    1    4    4    0  503 -0.41698857724E+02  0.85296974516E+01 -0.16482925351E+02  0.45883845765E+02  0.47000000000E+01 0.  1.
<mgrwt>
<rscale>  0 0.12433427E+03</rscale>
<asrwt>0</asrwt>
<pdfrwt beam="1">  1        1 0.45721681E-01 0.12827757E+03</pdfrwt>
<pdfrwt beam="2">  1       -1 0.99807425E-02 0.12827757E+03</pdfrwt>
<totfact> 0.51768192E+03</totfact>
</mgrwt>
</event>
<event>
 8    1  0.2964543E-004  0.1112449E+03  0.7546771E-02  0.1260045E+00
         -1   -1    0    0    0  501 -0.00000000000E+00  0.00000000000E+00  0.10835626244E+03  0.10835626244E+03  0.00000000000E+00 0.  1.
          1   -1    0    0  501    0  0.00000000000E+00 -0.00000000000E+00 -0.12604386321E+03  0.12604386321E+03  0.00000000000E+00 0. -1.
         23    2    1    2    0    0 -0.52627845964E+02 -0.25563309359E+02  0.32643104510E+02  0.11229930373E+03  0.90124294122E+02 0.  0.
         23    2    1    2    0    0  0.52627845964E+02  0.25563309359E+02 -0.50330705281E+02  0.12210082191E+03  0.94616372055E+02 0.  0.
          5    1    3    3  502    0 -0.64135524800E+01  0.19453942014E+02 -0.19914171124E+02  0.28952611745E+02  0.47000000000E+01 0. -1.
         -5    1    3    3    0  502 -0.46214293484E+02 -0.45017251373E+02  0.52557275634E+02  0.83346691989E+02  0.47000000000E+01 0.  1.
          5    1    4    4  503    0  0.20806861672E+02  0.46233819555E+02 -0.63741737882E+02  0.81581803802E+02  0.47000000000E+01 0. -1.
         -5    1    4    4    0  503  0.31820984292E+02 -0.20670510196E+02  0.13411032602E+02  0.40519018109E+02  0.47000000000E+01 0.  1.
<mgrwt>
<rscale>  0 0.11028387E+03</rscale>
<asrwt>0</asrwt>
<pdfrwt beam="1">  1        1 0.19391364E-01 0.11124491E+03</pdfrwt>
<pdfrwt beam="2">  1       -1 0.16670194E-01 0.11124491E+03</pdfrwt>
<totfact> 0.67386896E+03</totfact>
</mgrwt>
</event>
<event>
 8    1  0.2964543E-004  0.1216307E+03  0.7546771E-02  0.1241790E+00
          2   -1    0    0  501    0  0.00000000000E+00  0.00000000000E+00  0.76053872888E+03  0.76053872888E+03  0.00000000000E+00 0. -1.
         -2   -1    0    0    0  501 -0.00000000000E+00 -0.00000000000E+00 -0.22781955414E+02  0.22781955414E+02  0.00000000000E+00 0.  1.
         23    2    1    2    0    0  0.36406066123E+02 -0.73543191119E+02  0.52575309813E+03  0.53890386049E+03  0.85246982655E+02 0.  0.
         23    2    1    2    0    0 -0.36406066123E+02  0.73543191119E+02  0.21200367534E+03  0.24441682381E+03  0.89777629675E+02 0.  0.
          5    1    4    4  502    0  0.26898745779E+02  0.55406837372E+01  0.60934008353E+02  0.67002127390E+02  0.47000000000E+01 0. -1.
         -5    1    3    3    0  503  0.26093164778E+02  0.92954254930E+01  0.22492196702E+03  0.22666989088E+03  0.47000000000E+01 0.  1.
          5    1    3    3  503    0  0.10312901345E+02 -0.82838616612E+02  0.30083113111E+03  0.31223396961E+03  0.47000000000E+01 0. -1.
         -5    1    4    4    0  502 -0.63304811902E+02  0.68002507382E+02  0.15106966699E+03  0.17741469642E+03  0.47000000000E+01 0.  1.
<mgrwt>
<rscale>  0 0.12079597E+03</rscale>
<asrwt>0</asrwt>
<pdfrwt beam="1">  1        2 0.11700594E+00 0.12163069E+03</pdfrwt>
<pdfrwt beam="2">  1       -2 0.35049168E-02 0.12163069E+03</pdfrwt>
<totfact> 0.12040389E+04</totfact>
</mgrwt>
</event>
<event>
 8    1  0.2964543E-004  0.1064457E+03  0.7546771E-02  0.1267343E+00
          1   -1    0    0  501    0  0.00000000000E+00  0.00000000000E+00  0.30415939149E+03  0.30415939149E+03  0.00000000000E+00 0. -1.
         -1   -1    0    0    0  501 -0.00000000000E+00 -0.00000000000E+00 -0.56914774895E+02  0.56914774895E+02  0.00000000000E+00 0.  1.
         23    2    1    2    0    0 -0.71813627703E+01  0.53101084241E+02  0.22986102926E+03  0.25331164031E+03  0.91974981501E+02 0.  0.
         23    2    1    2    0    0  0.71813627703E+01 -0.53101084241E+02  0.17383587329E+02  0.10776252608E+03  0.91865531072E+02 0.  0.
          5    1    4    4  502    0 -0.15963975092E+02 -0.23947853687E+02  0.50108494327E+02  0.57976714297E+02  0.47000000000E+01 0. -1.
         -5    1    4    4    0  502  0.23145337863E+02 -0.29153230554E+02 -0.32724906998E+02  0.49785811779E+02  0.47000000000E+01 0.  1.
          5    1    3    3  503    0 -0.32960865603E+02  0.41102194257E+02  0.55822495102E+02  0.76902860762E+02  0.47000000000E+01 0. -1.
         -5    1    3    3    0  503  0.25779502833E+02  0.11998889984E+02  0.17403853416E+03  0.17640877955E+03  0.47000000000E+01 0.  1.
<mgrwt>
<rscale>  0 0.10642209E+03</rscale>
<asrwt>0</asrwt>
<pdfrwt beam="1">  1        1 0.46793751E-01 0.10644573E+03</pdfrwt>
<pdfrwt beam="2">  1       -1 0.87561195E-02 0.10644573E+03</pdfrwt>
<totfact> 0.60616035E+03</totfact>
</mgrwt>
</event>
<event>
 8    1  0.2964543E-004  0.1070809E+03  0.7546771E-02  0.1268939E+00
         -1   -1    0    0    0  501 -0.00000000000E+00  0.00000000000E+00  0.14594098196E+03  0.14594098196E+03  0.00000000000E+00 0.  1.
          1   -1    0    0  501    0  0.00000000000E+00 -0.00000000000E+00 -0.15931288318E+03  0.15931288318E+03  0.00000000000E+00 0. -1.
         23    2    1    2    0    0 -0.65057511790E+01  0.42554542207E+02  0.10465229383E+03  0.14972785704E+03  0.98046492589E+02 0.  0.
         23    2    1    2    0    0  0.65057511790E+01 -0.42554542207E+02 -0.11802419505E+03  0.15552600810E+03  0.91681048842E+02 0.  0.
          5    1    3    3  502    0  0.36127566846E+02 -0.85866803895E+01  0.55044193109E+02  0.66564895864E+02  0.47000000000E+01 0. -1.
         -5    1    4    4    0  503 -0.81496756392E+01  0.20551989939E+02 -0.21727531373E+01  0.22707099323E+02  0.47000000000E+01 0.  1.
          5    1    4    4  503    0  0.14655426818E+02 -0.63106532146E+02 -0.11585144191E+03  0.13281890877E+03  0.47000000000E+01 0. -1.
         -5    1    3    3    0  502 -0.42633318025E+02  0.51141222596E+02  0.49608100724E+02  0.83162961178E+02  0.47000000000E+01 0.  1.
<mgrwt>
<rscale>  0 0.10560155E+03</rscale>
<asrwt>0</asrwt>
<pdfrwt beam="1">  1        1 0.24509674E-01 0.10708094E+03</pdfrwt>
<pdfrwt beam="2">  1       -1 0.22452459E-01 0.10708094E+03</pdfrwt>
<totfact> 0.31174914E+03</totfact>
</mgrwt>
</event>
<event>
 8    1  0.2964543E-004  0.9663737E+02  0.7546771E-02  0.1289433E+00
         -2   -1    0    0    0  501 -0.00000000000E+00  0.00000000000E+00  0.47169055468E+02  0.47169055468E+02  0.00000000000E+00 0.  1.
          2   -1    0    0  501    0  0.00000000000E+00 -0.00000000000E+00 -0.19141331617E+03  0.19141331617E+03  0.00000000000E+00 0. -1.
         23    2    1    2    0    0 -0.24525306964E+02 -0.78943422151E+00 -0.68561748976E+02  0.11848837535E+03  0.93470143802E+02 0.  0.
         23    2    1    2    0    0  0.24525306964E+02  0.78943422151E+00 -0.75682511725E+02  0.12009399629E+03  0.89958943274E+02 0.  0.
          5    1    3    3  502    0 -0.47228779550E+02  0.12467614051E+02 -0.76268140123E+02  0.90691334844E+02  0.47000000000E+01 0. -1.
         -5    1    4    4    0  503  0.44456456375E+02 -0.16360371769E+02 -0.92519828903E+01  0.48494612744E+02  0.47000000000E+01 0.  1.
          5    1    4    4  503    0 -0.19931149411E+02  0.17149805990E+02 -0.66430528835E+02  0.71599383542E+02  0.47000000000E+01 0. -1.
         -5    1    3    3    0  502  0.22703472586E+02 -0.13257048272E+02  0.77063911473E+01  0.27797040506E+02  0.47000000000E+01 0.  1.
<mgrwt>
<rscale>  0 0.95778012E+02</rscale>
<asrwt>0</asrwt>
<pdfrwt beam="1">  1        2 0.29448202E-01 0.96637372E+02</pdfrwt>
<pdfrwt beam="2">  1       -2 0.72567779E-02 0.96637372E+02</pdfrwt>
<totfact> 0.17779151E+04</totfact>
</mgrwt>
</event>
<event>
 8    1  0.2964543E-004  0.9688423E+02  0.7546771E-02  0.1288384E+00
         -2   -1    0    0    0  501 -0.00000000000E+00  0.00000000000E+00  0.77691519321E+02  0.77691519321E+02  0.00000000000E+00 0.  1.
          2   -1    0    0  501    0  0.00000000000E+00 -0.00000000000E+00 -0.12800581626E+03  0.12800581626E+03  0.00000000000E+00 0. -1.
         23    2    1    2    0    0  0.24612985756E+02  0.14206662925E+02  0.37073579853E+01  0.96955132452E+02  0.92622485749E+02 0.  0.
         23    2    1    2    0    0 -0.24612985756E+02 -0.14206662925E+02 -0.54021654923E+02  0.10874220313E+03  0.89993884242E+02 0.  0.
          5    1    4    4  502    0  0.22092000516E+02  0.15168487430E+02 -0.45074836696E+02  0.52649505229E+02  0.47000000000E+01 0. -1.
         -5    1    3    3    0  503 -0.56567417815E+01  0.43377754336E+02 -0.20149436784E+02  0.48391301920E+02  0.47000000000E+01 0.  1.
          5    1    3    3  503    0  0.30269727538E+02 -0.29171091411E+02  0.23856794769E+02  0.48563830532E+02  0.47000000000E+01 0. -1.
         -5    1    4    4    0  502 -0.46704986272E+02 -0.29375150355E+02 -0.89468182272E+01  0.56092697898E+02  0.47000000000E+01 0.  1.
<mgrwt>
<rscale>  0 0.96250580E+02</rscale>
<asrwt>0</asrwt>
<pdfrwt beam="1">  1        2 0.19693203E-01 0.96884226E+02</pdfrwt>
<pdfrwt beam="2">  1       -2 0.11952541E-01 0.96884226E+02</pdfrwt>
<totfact> 0.12756735E+04</totfact>
</mgrwt>
</event>
<event>
 8    1  0.2964543E-004  0.1024036E+03  0.7546771E-02  0.1277169E+00
         -4   -1    0    0    0  501 -0.00000000000E+00  0.00000000000E+00  0.39894693908E+03  0.39894693908E+03  0.00000000000E+00 0.  1.
          4   -1    0    0  501    0  0.00000000000E+00 -0.00000000000E+00 -0.25515369732E+02  0.25515369732E+02  0.00000000000E+00 0. -1.
         23    2    1    2    0    0 -0.40879980398E+02 -0.25721731489E+02  0.20545739997E+03  0.22956313931E+03  0.90297903941E+02 0.  0.
         23    2    1    2    0    0  0.40879980398E+02  0.25721731489E+02  0.16797416937E+03  0.19489916950E+03  0.86241431045E+02 0.  0.
          5    1    4    4  502    0 -0.23688147929E+02  0.23938494766E+02  0.61542369501E+02  0.70311685570E+02  0.47000000000E+01 0. -1.
         -5    1    4    4    0  502  0.64568128327E+02  0.17832367231E+01  0.10643179987E+03  0.12458748393E+03  0.47000000000E+01 0.  1.
          5    1    3    3  503    0 -0.65384274573E+02 -0.38528335186E+01  0.16263558161E+03  0.17539204684E+03  0.47000000000E+01 0. -1.
         -5    1    3    3    0  503  0.24504294175E+02 -0.21868897970E+02  0.42821818359E+02  0.54171092467E+02  0.47000000000E+01 0.  1.
<mgrwt>
<rscale>  0 0.10150214E+03</rscale>
<asrwt>0</asrwt>
<pdfrwt beam="1">  1        4 0.39254418E-02 0.10240357E+03</pdfrwt>
<pdfrwt beam="2">  1       -4 0.61376447E-01 0.10240357E+03</pdfrwt>
<totfact> 0.13770220E+03</totfact>
</mgrwt>
</event>
<event>
 8    1  0.2964543E-004  0.1635034E+03  0.7546771E-02  0.1185952E+00
         -1   -1    0    0    0  501 -0.00000000000E+00  0.00000000000E+00  0.21726796228E+02  0.21726796228E+02  0.00000000000E+00 0.  1.
          1   -1    0    0  501    0  0.00000000000E+00 -0.00000000000E+00 -0.12338686528E+04  0.12338686528E+04  0.00000000000E+00 0. -1.
         23    2    1    2    0    0 -0.46299333208E+02 -0.12821659348E+03 -0.70342070222E+03  0.72124482726E+03  0.82524502067E+02 0.  0.
         23    2    1    2    0    0  0.46299333208E+02  0.12821659348E+03 -0.50872115437E+03  0.53435062178E+03  0.90278740575E+02 0.  0.
          5    1    3    3  502    0  0.22507730158E+02 -0.18203635756E+02 -0.11671461621E+03  0.12034268531E+03  0.47000000000E+01 0. -1.
         -5    1    3    3    0  502 -0.68807063366E+02 -0.11001295772E+03 -0.58670608601E+03  0.60090214195E+03  0.47000000000E+01 0.  1.
          5    1    4    4  503    0  0.47849268253E+02  0.53043150654E+02 -0.36631311011E+03  0.37324323562E+03  0.47000000000E+01 0. -1.
         -5    1    4    4    0  503 -0.15499350453E+01  0.75173442821E+02 -0.14240804426E+03  0.16110738616E+03  0.47000000000E+01 0.  1.
<mgrwt>
<rscale>  0 0.16245583E+03</rscale>
<asrwt>0</asrwt>
<pdfrwt beam="1">  1        1 0.18982606E+00 0.16350344E+03</pdfrwt>
<pdfrwt beam="2">  1       -1 0.33425821E-02 0.16350344E+03</pdfrwt>
<totfact> 0.34511613E+03</totfact>
</mgrwt>
</event>
<event>
 7    1  0.2964543E-004  0.1672689E+03  0.7546771E-02  0.1204822E+00
          3   -1    0    0  501    0  0.00000000000E+00  0.00000000000E+00  0.13981860218E+03  0.13981860218E+03  0.00000000000E+00 0. -1.
         -3   -1    0    0    0  501 -0.00000000000E+00 -0.00000000000E+00 -0.12629780832E+03  0.12629780832E+03  0.00000000000E+00 0.  1.
         23    2    1    2    0    0 -0.16552853508E+02  0.36798247875E+02  0.28342729878E+01  0.98506487457E+02  0.89818633711E+02 0.  0.
          5    1    3    3  502    0  0.68820931921E+01 -0.19209123652E+02  0.25974742187E+02  0.33363615959E+02  0.47000000000E+01 0. -1.
         -5    1    3    3    0  502 -0.23434946700E+02  0.56007371528E+02 -0.23140469199E+02  0.65142871498E+02  0.47000000000E+01 0.  1.
          5    1    1    2  503    0  0.61900606353E+02 -0.13880703805E+02 -0.55235863182E+02  0.84246362452E+02  0.47000000000E+01 0. -1.
         -5    1    1    2    0  503 -0.45347752846E+02 -0.22917544071E+02  0.65922384051E+02  0.83363560585E+02  0.47000000000E+01 0.  1.
<mgrwt>
<rscale>  0 0.14651519E+03</rscale>
<asrwt>0</asrwt>
<pdfrwt beam="1">  1        3 0.21510554E-01 0.16726890E+03</pdfrwt>
<pdfrwt beam="2">  1       -3 0.19430432E-01 0.16726890E+03</pdfrwt>
<totfact> 0.11077822E+03</totfact>
</mgrwt>
</event>
<event>
 8    1  0.2964543E-004  0.2708416E+03  0.7546771E-02  0.1100951E+00
         -2   -1    0    0    0  501 -0.00000000000E+00  0.00000000000E+00  0.73908333053E+02  0.73908333053E+02  0.00000000000E+00 0.  1.
          2   -1    0    0  501    0  0.00000000000E+00 -0.00000000000E+00 -0.12936155268E+04  0.12936155268E+04  0.00000000000E+00 0. -1.
         23    2    1    2    0    0  0.39608077465E+02  0.25063740104E+03 -0.27692489237E+03  0.38660915339E+03  0.91604229539E+02 0.  0.
         23    2    1    2    0    0 -0.39608077465E+02 -0.25063740104E+03 -0.94278230136E+03  0.98091470645E+03  0.94695760044E+02 0.  0.
          5    1    4    4  502    0  0.17759949053E+02 -0.13207930464E+03 -0.57412410633E+03  0.58940727682E+03  0.47000000000E+01 0. -1.
         -5    1    4    4    0  502 -0.57368026519E+02 -0.11855809640E+03 -0.36865819504E+03  0.39150742963E+03  0.47000000000E+01 0.  1.
          5    1    3    3  503    0 -0.13908555610E+02  0.79537614111E+02 -0.13720602584E+03  0.15927103787E+03  0.47000000000E+01 0. -1.
         -5    1    3    3    0  503  0.53516633076E+02  0.17109978693E+03 -0.13971886653E+03  0.22733811552E+03  0.47000000000E+01 0.  1.
<mgrwt>
<rscale>  0 0.27057491E+03</rscale>
<asrwt>0</asrwt>
<pdfrwt beam="1">  1        2 0.19901775E+00 0.27084164E+03</pdfrwt>
<pdfrwt beam="2">  1       -2 0.11370514E-01 0.27084164E+03</pdfrwt>
<totfact> 0.95653451E+02</totfact>
</mgrwt>
</event>
<event>
 8    1  0.2964543E-004  0.9360265E+02  0.7546771E-02  0.1295282E+00
          1   -1    0    0  501    0  0.00000000000E+00  0.00000000000E+00  0.14888076515E+03  0.14888076515E+03  0.00000000000E+00 0. -1.
         -1   -1    0    0    0  501 -0.00000000000E+00 -0.00000000000E+00 -0.58067530862E+02  0.58067530862E+02  0.00000000000E+00 0.  1.
         23    2    1    2    0    0  0.11753473203E+02  0.75551745716E+01  0.39428127846E+02  0.10156787233E+03  0.92553933621E+02 0.  0.
         23    2    1    2    0    0 -0.11753473203E+02 -0.75551745716E+01  0.51385106445E+02  0.10538042369E+03  0.90936129986E+02 0.  0.
          5    1    3    3  502    0 -0.30406724096E+02  0.23003592418E+02  0.41270843111E+02  0.56383566981E+02  0.47000000000E+01 0. -1.
         -5    1    3    3    0  502  0.42160197299E+02 -0.15448417846E+02 -0.18427152657E+01  0.45184305348E+02  0.47000000000E+01 0.  1.
          5    1    4    4  503    0 -0.19263423893E+02  0.33879524950E+02  0.49215557259E+02  0.62953655868E+02  0.47000000000E+01 0. -1.
         -5    1    4    4    0  503  0.75099506901E+01 -0.41434699522E+02  0.21695491859E+01  0.42426767818E+02  0.47000000000E+01 0.  1.
<mgrwt>
<rscale>  0 0.93200218E+02</rscale>
<asrwt>0</asrwt>
<pdfrwt beam="1">  1        1 0.22904733E-01 0.93602646E+02</pdfrwt>
<pdfrwt beam="2">  1       -1 0.89334664E-02 0.93602646E+02</pdfrwt>
<totfact> 0.14021442E+04</totfact>
</mgrwt>
</event>
<event>
 8    1  0.2964543E-004  0.1464247E+03  0.7546771E-02  0.1206950E+00
         -1   -1    0    0    0  501 -0.00000000000E+00  0.00000000000E+00  0.20739112364E+03  0.20739112364E+03  0.00000000000E+00 0.  1.
          1   -1    0    0  501    0  0.00000000000E+00 -0.00000000000E+00 -0.16434203619E+03  0.16434203619E+03  0.00000000000E+00 0. -1.
         23    2    1    2    0    0 -0.49740163807E+01 -0.10518136364E+03  0.13894673906E+03  0.20185733262E+03  0.10174638245E+03 0.  0.
         23    2    1    2    0    0  0.49740163807E+01  0.10518136364E+03 -0.95897651607E+02  0.16987582721E+03  0.92593612039E+02 0.  0.
          5    1    3    3  502    0  0.42846548950E+02 -0.21467499833E+02  0.32125727281E+02  0.57886377148E+02  0.47000000000E+01 0. -1.
         -5    1    4    4    0  503  0.19215539275E+02 -0.10981519145E+02 -0.10626112675E+02  0.24996699441E+02  0.47000000000E+01 0.  1.
          5    1    4    4  503    0 -0.14241522894E+02  0.11616288278E+03 -0.85271538932E+02  0.14487912777E+03  0.47000000000E+01 0. -1.
         -5    1    3    3    0  502 -0.47820565330E+02 -0.83713863805E+02  0.10682101178E+03  0.14397095547E+03  0.47000000000E+01 0.  1.
<mgrwt>
<rscale>  0 0.14484804E+03</rscale>
<asrwt>0</asrwt>
<pdfrwt beam="1">  1        1 0.25283390E-01 0.14642468E+03</pdfrwt>
<pdfrwt beam="2">  1       -1 0.31906327E-01 0.14642468E+03</pdfrwt>
<totfact> 0.17000196E+03</totfact>
</mgrwt>
</event>
<event>
 8    1  0.2964543E-004  0.1053683E+03  0.7546771E-02  0.1269812E+00
          1   -1    0    0  501    0  0.00000000000E+00  0.00000000000E+00  0.16196360411E+03  0.16196360411E+03  0.00000000000E+00 0. -1.
         -1   -1    0    0    0  501 -0.00000000000E+00 -0.00000000000E+00 -0.74823728292E+02  0.74823728292E+02  0.00000000000E+00 0.  1.
         23    2    1    2    0    0 -0.31244473232E+02  0.42262321744E+02  0.76575427742E+01  0.10480277055E+03  0.90347450475E+02 0.  0.
         23    2    1    2    0    0  0.31244473232E+02 -0.42262321744E+02  0.79482333042E+02  0.13198456185E+03  0.91324489342E+02 0.  0.
          5    1    3    3  502    0 -0.50927461983E+01 -0.22564588328E+02  0.23136013763E+02  0.33052410549E+02  0.47000000000E+01 0. -1.
         -5    1    4    4    0  503  0.53723472364E+02 -0.95466169619E+01  0.16159554625E+02  0.57101406146E+02  0.47000000000E+01 0.  1.
          5    1    4    4  503    0 -0.22478999131E+02 -0.32715704782E+02  0.63322778417E+02  0.74883155701E+02  0.47000000000E+01 0. -1.
         -5    1    3    3    0  502 -0.26151727034E+02  0.64826910072E+02 -0.15478470989E+02  0.71750360003E+02  0.47000000000E+01 0.  1.
<mgrwt>
<rscale>  0 0.10515626E+03</rscale>
<asrwt>0</asrwt>
<pdfrwt beam="1">  1        1 0.24917477E-01 0.10536832E+03</pdfrwt>
<pdfrwt beam="2">  1       -1 0.11511343E-01 0.10536832E+03</pdfrwt>
<totfact> 0.86916952E+03</totfact>
</mgrwt>
</event>
<event>
 8    1  0.2964543E-004  0.1080512E+03  0.7546771E-02  0.1264449E+00
         -2   -1    0    0    0  501 -0.00000000000E+00  0.00000000000E+00  0.22068651529E+03  0.22068651529E+03  0.00000000000E+00 0.  1.
          2   -1    0    0  501    0  0.00000000000E+00 -0.00000000000E+00 -0.27188259443E+03  0.27188259443E+03  0.00000000000E+00 0. -1.
         23    2    1    2    0    0 -0.23373612717E+01 -0.57257581290E+02  0.19553700503E+03  0.22340498362E+03  0.91603343256E+02 0.  0.
         23    2    1    2    0    0  0.23373612717E+01  0.57257581290E+02 -0.24673308416E+03  0.26916412610E+03  0.91039651176E+02 0.  0.
          5    1    3    3  502    0  0.35002053890E+02 -0.20152927084E+02  0.32616277564E+02  0.52126728352E+02  0.47000000000E+01 0. -1.
         -5    1    3    3    0  502 -0.37339415161E+02 -0.37104654206E+02  0.16292072747E+03  0.17127825527E+03  0.47000000000E+01 0.  1.
          5    1    4    4  503    0 -0.20223453099E+02  0.46681318126E+01 -0.17947054445E+03  0.18072782252E+03  0.47000000000E+01 0. -1.
         -5    1    4    4    0  503  0.22560814370E+02  0.52589449478E+02 -0.67262539715E+02  0.88436303577E+02  0.47000000000E+01 0.  1.
<mgrwt>
<rscale>  0 0.10793166E+03</rscale>
<asrwt>0</asrwt>
<pdfrwt beam="1">  1        2 0.41828092E-01 0.10805122E+03</pdfrwt>
<pdfrwt beam="2">  1       -2 0.33951772E-01 0.10805122E+03</pdfrwt>
<totfact> 0.97426805E+02</totfact>
</mgrwt>
</event>
<event>
 8    1  0.2964543E-004  0.1111394E+03  0.7546771E-02  0.1258840E+00
         -1   -1    0    0    0  501 -0.00000000000E+00  0.00000000000E+00  0.20917841183E+03  0.20917841183E+03  0.00000000000E+00 0.  1.
          1   -1    0    0  501    0  0.00000000000E+00 -0.00000000000E+00 -0.91144594527E+02  0.91144594527E+02  0.00000000000E+00 0. -1.
         23    2    1    2    0    0  0.56659820541E+01  0.65619441794E+02  0.14884429522E+03  0.18575951081E+03  0.89520707914E+02 0.  0.
         23    2    1    2    0    0 -0.56659820541E+01 -0.65619441794E+02 -0.30810477914E+02  0.11456349554E+03  0.88529624800E+02 0.  0.
          5    1    3    3  502    0 -0.39051019613E+02  0.43215360923E+02  0.60376285622E+02  0.84023421842E+02  0.47000000000E+01 0. -1.
         -5    1    3    3    0  502  0.44717001667E+02  0.22404080871E+02  0.88468009594E+02  0.10173608897E+03  0.47000000000E+01 0.  1.
          5    1    4    4  503    0  0.32007800863E+02 -0.58844258102E+02 -0.35080894403E+02  0.75762161926E+02  0.47000000000E+01 0. -1.
         -5    1    4    4    0  503 -0.37673782917E+02 -0.67751836923E+01  0.42704164884E+01  0.38801333615E+02  0.47000000000E+01 0.  1.
<mgrwt>
<rscale>  0 0.11093970E+03</rscale>
<asrwt>0</asrwt>
<pdfrwt beam="1">  1        1 0.14022245E-01 0.11113942E+03</pdfrwt>
<pdfrwt beam="2">  1       -1 0.32181294E-01 0.11113942E+03</pdfrwt>
<totfact> 0.35061403E+03</totfact>
</mgrwt>
</event>
<event>
 8    1  0.2964543E-004  0.9932300E+02  0.7546771E-02  0.1282055E+00
          1   -1    0    0  501    0  0.00000000000E+00  0.00000000000E+00  0.17707499294E+02  0.17707499294E+02  0.00000000000E+00 0. -1.
         -1   -1    0    0    0  501 -0.00000000000E+00 -0.00000000000E+00 -0.65614161548E+03  0.65614161548E+03  0.00000000000E+00 0.  1.
         23    2    1    2    0    0 -0.21655282223E+02  0.28236111448E+02 -0.45153468692E+03  0.46219738274E+03  0.92068549940E+02 0.  0.
         23    2    1    2    0    0  0.21655282223E+02 -0.28236111448E+02 -0.18689942927E+03  0.21165173203E+03  0.92729875295E+02 0.  0.
          5    1    4    4  502    0  0.38905252081E+02 -0.54743854592E+02 -0.12891257422E+03  0.14543400582E+03  0.47000000000E+01 0. -1.
         -5    1    4    4    0  502 -0.17249969858E+02  0.26507743144E+02 -0.57986855047E+02  0.66217726213E+02  0.47000000000E+01 0.  1.
          5    1    3    3  503    0 -0.43518037873E+02  0.50189197202E+02 -0.27879935134E+03  0.28664253600E+03  0.47000000000E+01 0. -1.
         -5    1    3    3    0  503  0.21862755650E+02 -0.21953085754E+02 -0.17273533558E+03  0.17555484675E+03  0.47000000000E+01 0.  1.
<mgrwt>
<rscale>  0 0.99168357E+02</rscale>
<asrwt>0</asrwt>
<pdfrwt beam="1">  1        1 0.27242302E-02 0.99323003E+02</pdfrwt>
<pdfrwt beam="2">  1       -1 0.10094488E+00 0.99323003E+02</pdfrwt>
<totfact> 0.36202179E+03</totfact>
</mgrwt>
</event>
<event>
 8    1  0.2964543E-004  0.1787019E+03  0.7546771E-02  0.1169935E+00
          3   -1    0    0  501    0  0.00000000000E+00  0.00000000000E+00  0.15322374368E+04  0.15322374368E+04  0.00000000000E+00 0. -1.
         -3   -1    0    0    0  501 -0.00000000000E+00 -0.00000000000E+00 -0.23552334871E+02  0.23552334871E+02  0.00000000000E+00 0.  1.
         23    2    1    2    0    0  0.15292910294E+03 -0.16442441930E+02  0.47776685237E+03  0.51009364305E+03  0.90976343259E+02 0.  0.
         23    2    1    2    0    0 -0.15292910294E+03  0.16442441930E+02  0.10309182496E+04  0.10456961286E+04  0.83846834838E+02 0.  0.
          5    1    3    3  502    0  0.41718570765E+02  0.41218351407E+01  0.27196124289E+03  0.27521343772E+03  0.47000000000E+01 0. -1.
         -5    1    4    4    0  503 -0.82302672951E+01  0.24085216459E+02  0.25830199453E+03  0.25959554182E+03  0.47000000000E+01 0.  1.
          5    1    4    4  503    0 -0.14469883565E+03 -0.76427745291E+01  0.77261625502E+03  0.78610058679E+03  0.47000000000E+01 0. -1.
         -5    1    3    3    0  502  0.11121053218E+03 -0.20564277071E+02  0.20580560948E+03  0.23488020532E+03  0.47000000000E+01 0.  1.
<mgrwt>
<rscale>  0 0.17781477E+03</rscale>
<asrwt>0</asrwt>
<pdfrwt beam="1">  1        3 0.23572876E+00 0.17870187E+03</pdfrwt>
<pdfrwt beam="2">  1       -3 0.36234373E-02 0.17870187E+03</pdfrwt>
<totfact> 0.92023455E+01</totfact>
</mgrwt>
</event>
<event>
 8    1  0.2964543E-004  0.9823979E+02  0.7546771E-02  0.1286125E+00
         -2   -1    0    0    0  501 -0.00000000000E+00  0.00000000000E+00  0.96401991765E+02  0.96401991765E+02  0.00000000000E+00 0.  1.
          2   -1    0    0  501    0  0.00000000000E+00 -0.00000000000E+00 -0.10833375147E+03  0.10833375147E+03  0.00000000000E+00 0. -1.
         23    2    1    2    0    0  0.28223698682E+02  0.88449819726E+01  0.28057496012E+02  0.10216790300E+03  0.93681622784E+02 0.  0.
         23    2    1    2    0    0 -0.28223698682E+02 -0.88449819726E+01 -0.39989255719E+02  0.10256784024E+03  0.89700671149E+02 0.  0.
          5    1    4    4  502    0 -0.16037734539E+02 -0.44061240861E+02 -0.44404283866E+02  0.64748994595E+02  0.47000000000E+01 0. -1.
         -5    1    4    4    0  502 -0.12185964143E+02  0.35216258888E+02  0.44150281470E+01  0.37818845642E+02  0.47000000000E+01 0.  1.
          5    1    3    3  503    0 -0.18337847369E+02  0.87355203846E+01 -0.24250703089E+02  0.31980815543E+02  0.47000000000E+01 0. -1.
         -5    1    3    3    0  503  0.46561546051E+02  0.10946158797E+00  0.52308199101E+02  0.70187087457E+02  0.47000000000E+01 0.  1.
<mgrwt>
<rscale>  0 0.97278621E+02</rscale>
<asrwt>0</asrwt>
<pdfrwt beam="1">  1        2 0.16666731E-01 0.98239795E+02</pdfrwt>
<pdfrwt beam="2">  1       -2 0.14831076E-01 0.98239795E+02</pdfrwt>
<totfact> 0.10925237E+04</totfact>
</mgrwt>
</event>
<event>
 8    1  0.2964543E-004  0.9679716E+02  0.7546771E-02  0.1288854E+00
          1   -1    0    0  501    0  0.00000000000E+00  0.00000000000E+00  0.41805397926E+03  0.41805397926E+03  0.00000000000E+00 0. -1.
         -1   -1    0    0    0  501 -0.00000000000E+00 -0.00000000000E+00 -0.22684497447E+02  0.22684497447E+02  0.00000000000E+00 0.  1.
         23    2    1    2    0    0 -0.44690001536E+02 -0.51972508058E+01  0.14936216890E+03  0.17637265419E+03  0.82304604932E+02 0.  0.
         23    2    1    2    0    0  0.44690001536E+02  0.51972508058E+01  0.24600731291E+03  0.26436582252E+03  0.85705790106E+02 0.  0.
          5    1    3    3  502    0 -0.12375616227E+02 -0.42176041445E+02  0.77177052368E+02  0.88940214533E+02  0.47000000000E+01 0. -1.
         -5    1    4    4    0  503  0.64857113265E+02  0.16874018625E+02  0.13440573241E+03  0.15026033592E+03  0.47000000000E+01 0.  1.
          5    1    4    4  503    0 -0.20167111730E+02 -0.11676767820E+02  0.11160158050E+03  0.11410548660E+03  0.47000000000E+01 0. -1.
         -5    1    3    3    0  502 -0.32314385309E+02  0.36978790639E+02  0.72185116536E+02  0.87432439657E+02  0.47000000000E+01 0.  1.
<mgrwt>
<rscale>  0 0.96038757E+02</rscale>
<asrwt>0</asrwt>
<pdfrwt beam="1">  1        1 0.64315991E-01 0.96797160E+02</pdfrwt>
<pdfrwt beam="2">  1       -1 0.34899230E-02 0.96797160E+02</pdfrwt>
<totfact> 0.15753493E+04</totfact>
</mgrwt>
</event>
<event>
 8    1  0.2964543E-004  0.9980338E+02  0.7546771E-02  0.1283834E+00
         -1   -1    0    0    0  501 -0.00000000000E+00  0.00000000000E+00  0.47839676820E+03  0.47839676820E+03  0.00000000000E+00 0.  1.
          1   -1    0    0  501    0  0.00000000000E+00 -0.00000000000E+00 -0.12228783872E+03  0.12228783872E+03  0.00000000000E+00 0. -1.
         23    2    1    2    0    0 -0.12605624216E+02  0.38122913296E+02  0.45404997904E+03  0.46488934012E+03  0.91369890021E+02 0.  0.
         23    2    1    2    0    0  0.12605624216E+02 -0.38122913296E+02 -0.97941049568E+02  0.13579526681E+03  0.85062606455E+02 0.  0.
          5    1    3    3  502    0  0.15680277937E+02 -0.25151948888E+02  0.12034130321E+03  0.12402665402E+03  0.47000000000E+01 0. -1.
         -5    1    4    4    0  503  0.23435264553E+02 -0.20764551512E+02  0.38200919514E+01  0.31891398945E+02  0.47000000000E+01 0.  1.
          5    1    4    4  503    0 -0.10829640337E+02 -0.17358361784E+02 -0.10176114152E+03  0.10390386786E+03  0.47000000000E+01 0. -1.
         -5    1    3    3    0  502 -0.28285902153E+02  0.63274862184E+02  0.33370867583E+03  0.34086268609E+03  0.47000000000E+01 0.  1.
<mgrwt>
<rscale>  0 0.98336331E+02</rscale>
<asrwt>0</asrwt>
<pdfrwt beam="1">  1        1 0.18813514E-01 0.99803382E+02</pdfrwt>
<pdfrwt beam="2">  1       -1 0.73599502E-01 0.99803382E+02</pdfrwt>
<totfact> 0.53466250E+02</totfact>
</mgrwt>
</event>
<event>
 8    1  0.2964543E-004  0.1232128E+03  0.7546771E-02  0.1244619E+00
          2   -1    0    0  501    0  0.00000000000E+00  0.00000000000E+00  0.25996760785E+03  0.25996760785E+03  0.00000000000E+00 0. -1.
         -2   -1    0    0    0  501 -0.00000000000E+00 -0.00000000000E+00 -0.21044496432E+03  0.21044496432E+03  0.00000000000E+00 0.  1.
         23    2    1    2    0    0 -0.26352914442E+02  0.48832653425E+02 -0.18014392434E+03  0.20978230006E+03  0.92074295002E+02 0.  0.
         23    2    1    2    0    0  0.26352914442E+02 -0.48832653425E+02  0.22966656787E+03  0.26063027212E+03  0.11001046407E+03 0.  0.
          5    1    4    4  502    0  0.10898066041E+02  0.23440530846E+02  0.14829457673E+03  0.15060410956E+03  0.47000000000E+01 0. -1.
         -5    1    3    3    0  503 -0.16120264386E+02 -0.14262049118E+02 -0.11961274686E+03  0.12162470218E+03  0.47000000000E+01 0.  1.
          5    1    3    3  503    0 -0.10232650056E+02  0.63094702542E+02 -0.60531177478E+02  0.88157597874E+02  0.47000000000E+01 0. -1.
         -5    1    4    4    0  502  0.15454848401E+02 -0.72273184271E+02  0.81371991144E+02  0.11002616255E+03  0.47000000000E+01 0.  1.
<mgrwt>
<rscale>  0 0.11908213E+03</rscale>
<asrwt>0</asrwt>
<pdfrwt beam="1">  1        2 0.39995016E-01 0.12321285E+03</pdfrwt>
<pdfrwt beam="2">  1       -2 0.32376148E-01 0.12321285E+03</pdfrwt>
<totfact> 0.11176256E+03</totfact>
</mgrwt>
</event>
<event>
 8    1  0.2964543E-004  0.1053082E+03  0.7546771E-02  0.1277755E+00
         -3   -1    0    0    0  501 -0.00000000000E+00  0.00000000000E+00  0.14541994986E+03  0.14541994986E+03  0.00000000000E+00 0.  1.
          3   -1    0    0  501    0  0.00000000000E+00 -0.00000000000E+00 -0.10786586637E+03  0.10786586637E+03  0.00000000000E+00 0. -1.
         23    2    1    2    0    0 -0.13896591715E+02  0.12783009005E+02  0.98900285277E+02  0.14446830273E+03  0.10360165773E+03 0.  0.
         23    2    1    2    0    0  0.13896591715E+02 -0.12783009005E+02 -0.61346201787E+02  0.10881751350E+03  0.87871350218E+02 0.  0.
          5    1    4    4  502    0  0.42348440301E+02 -0.60494844133E+01 -0.66049884586E+02  0.78833139678E+02  0.47000000000E+01 0. -1.
         -5    1    4    4    0  502 -0.28451848586E+02 -0.67335245918E+01  0.47036827991E+01  0.29984373818E+02  0.47000000000E+01 0.  1.
          5    1    3    3  503    0  0.31144110171E+02 -0.23679794615E+01 -0.32054738869E+01  0.31747881629E+02  0.47000000000E+01 0. -1.
         -5    1    3    3    0  503 -0.45040701886E+02  0.15150988467E+02  0.10210575916E+03  0.11272042110E+03  0.47000000000E+01 0.  1.
<mgrwt>
<rscale>  0 0.10121830E+03</rscale>
<asrwt>0</asrwt>
<pdfrwt beam="1">  1        3 0.16594749E-01 0.10530823E+03</pdfrwt>
<pdfrwt beam="2">  1       -3 0.22372300E-01 0.10530823E+03</pdfrwt>
<totfact> 0.12604042E+03</totfact>
</mgrwt>
</event>
<event>
 8    1  0.2964543E-004  0.1420277E+03  0.7546771E-02  0.1210744E+00
          4   -1    0    0  501    0  0.00000000000E+00  0.00000000000E+00  0.40534787936E+03  0.40534787936E+03  0.00000000000E+00 0. -1.
         -4   -1    0    0    0  501 -0.00000000000E+00 -0.00000000000E+00 -0.89716186597E+02  0.89716186597E+02  0.00000000000E+00 0.  1.
         23    2    1    2    0    0 -0.49260673443E+02 -0.96955082838E+02 -0.75141263861E+01  0.14222633198E+03  0.91350782025E+02 0.  0.
         23    2    1    2    0    0  0.49260673443E+02  0.96955082838E+02  0.32314581915E+03  0.35283773397E+03  0.90798370296E+02 0.  0.
          5    1    4    4  502    0  0.29034654818E+02  0.61791713461E+02  0.29598478258E+03  0.30379320031E+03  0.47000000000E+01 0. -1.
         -5    1    4    4    0  502  0.20226018625E+02  0.35163369377E+02  0.27161036564E+02  0.49044533667E+02  0.47000000000E+01 0.  1.
          5    1    3    3  503    0 -0.65025645570E+02 -0.27734089827E+02 -0.22972666557E+01  0.70886400349E+02  0.47000000000E+01 0. -1.
         -5    1    3    3    0  503  0.15764972127E+02 -0.69220993011E+02 -0.52168597304E+01  0.71339931630E+02  0.47000000000E+01 0.  1.
<mgrwt>
<rscale>  0 0.14193895E+03</rscale>
<asrwt>0</asrwt>
<pdfrwt beam="1">  1        4 0.62361211E-01 0.14202770E+03</pdfrwt>
<pdfrwt beam="2">  1       -4 0.13802491E-01 0.14202770E+03</pdfrwt>
<totfact> 0.17951971E+02</totfact>
</mgrwt>
</event>
<event>
 8    1  0.2964543E-004  0.1043067E+03  0.7546771E-02  0.1273103E+00
         -2   -1    0    0    0  501 -0.00000000000E+00  0.00000000000E+00  0.28559902733E+03  0.28559902733E+03  0.00000000000E+00 0.  1.
          2   -1    0    0  501    0  0.00000000000E+00 -0.00000000000E+00 -0.65826062370E+02  0.65826062370E+02  0.00000000000E+00 0. -1.
         23    2    1    2    0    0  0.24425872232E+02  0.35611296687E+02  0.22532119472E+03  0.24697096485E+03  0.91434287891E+02 0.  0.
         23    2    1    2    0    0 -0.24425872232E+02 -0.35611296687E+02 -0.55482297646E+01  0.10445412485E+03  0.94947847043E+02 0.  0.
          5    1    4    4  502    0 -0.48162421351E+02  0.29329616687E+01 -0.25482961262E+02  0.54769447771E+02  0.47000000000E+01 0. -1.
         -5    1    4    4    0  502  0.23736549119E+02 -0.38544258355E+02  0.19934731497E+02  0.49684677076E+02  0.47000000000E+01 0.  1.
          5    1    3    3  503    0 -0.23790287850E+02 -0.14499210451E+02  0.39967414105E+02  0.48945777039E+02  0.47000000000E+01 0. -1.
         -5    1    3    3    0  503  0.48216160082E+02  0.50110507138E+02  0.18535378062E+03  0.19802518781E+03  0.47000000000E+01 0.  1.
<mgrwt>
<rscale>  0 0.10350041E+03</rscale>
<asrwt>0</asrwt>
<pdfrwt beam="1">  1        2 0.10127087E-01 0.10430667E+03</pdfrwt>
<pdfrwt beam="2">  1       -2 0.43938311E-01 0.10430667E+03</pdfrwt>
<totfact> 0.29557319E+03</totfact>
</mgrwt>
</event>
<event>
 8    1  0.2964543E-004  0.9770509E+02  0.7546771E-02  0.1285571E+00
          2   -1    0    0  501    0  0.00000000000E+00  0.00000000000E+00  0.41917340585E+03  0.41917340585E+03  0.00000000000E+00 0. -1.
         -2   -1    0    0    0  501 -0.00000000000E+00 -0.00000000000E+00 -0.26667063875E+02  0.26667063875E+02  0.00000000000E+00 0.  1.
         23    2    1    2    0    0  0.20872467133E+02 -0.28707410973E+02  0.10993603927E+03  0.14707894990E+03  0.91030266641E+02 0.  0.
         23    2    1    2    0    0 -0.20872467133E+02  0.28707410973E+02  0.28257030270E+03  0.29876151982E+03  0.90292272250E+02 0.  0.
          5    1    4    4  502    0  0.22394439248E+02 -0.18426341129E+02  0.12950432432E+03  0.13279495839E+03  0.47000000000E+01 0. -1.
         -5    1    3    3    0  503  0.10939374047E+02  0.32916452648E+02  0.42739002235E+02  0.55243778577E+02  0.47000000000E+01 0.  1.
          5    1    3    3  503    0  0.99330930861E+01 -0.61623863621E+02  0.67197037039E+02  0.91835171327E+02  0.47000000000E+01 0. -1.
         -5    1    4    4    0  502 -0.43266906380E+02  0.47133752102E+02  0.15306597838E+03  0.16596656143E+03  0.47000000000E+01 0.  1.
<mgrwt>
<rscale>  0 0.97532834E+02</rscale>
<asrwt>0</asrwt>
<pdfrwt beam="1">  1        2 0.64488212E-01 0.97705091E+02</pdfrwt>
<pdfrwt beam="2">  1       -2 0.41026255E-02 0.97705091E+02</pdfrwt>
<totfact> 0.18277615E+04</totfact>
</mgrwt>
</event>
<event>
 8    1  0.2964543E-004  0.1235611E+03  0.7546771E-02  0.1238797E+00
          2   -1    0    0  501    0  0.00000000000E+00  0.00000000000E+00  0.12056071771E+04  0.12056071771E+04  0.00000000000E+00 0. -1.
         -2   -1    0    0    0  501 -0.00000000000E+00 -0.00000000000E+00 -0.12354019140E+02  0.12354019140E+02  0.00000000000E+00 0.  1.
         23    2    1    2    0    0  0.83808178399E+02 -0.77775427939E+01  0.62993537620E+03  0.64125133298E+03  0.85442336864E+02 0.  0.
         23    2    1    2    0    0 -0.83808178399E+02  0.77775427939E+01  0.56331778175E+03  0.57670986325E+03  0.90460169075E+02 0.  0.
          5    1    3    3  502    0  0.57454076695E+02 -0.34053060017E+02  0.53501581394E+03  0.53918882870E+03  0.47000000000E+01 0. -1.
         -5    1    3    3    0  502  0.26354101703E+02  0.26275517223E+02  0.94919562251E+02  0.10206250428E+03  0.47000000000E+01 0.  1.
          5    1    4    4  503    0 -0.19846520512E+02  0.37569594302E+02  0.11191565825E+03  0.11980218426E+03  0.47000000000E+01 0. -1.
         -5    1    4    4    0  503 -0.63961657887E+02 -0.29792051508E+02  0.45140212350E+03  0.45690767898E+03  0.47000000000E+01 0.  1.
<mgrwt>
<rscale>  0 0.12264473E+03</rscale>
<asrwt>0</asrwt>
<pdfrwt beam="1">  1        2 0.18547793E+00 0.12356109E+03</pdfrwt>
<pdfrwt beam="2">  1       -2 0.19006193E-02 0.12356109E+03</pdfrwt>
<totfact> 0.15806360E+04</totfact>
</mgrwt>
</event>
<event>
 8    1  0.2964543E-004  0.9665648E+02  0.7546771E-02  0.1287995E+00
         -1   -1    0    0    0  501 -0.00000000000E+00  0.00000000000E+00  0.67034355228E+02  0.67034355228E+02  0.00000000000E+00 0.  1.
          1   -1    0    0  501    0  0.00000000000E+00 -0.00000000000E+00 -0.23664054152E+03  0.23664054152E+03  0.00000000000E+00 0. -1.
         23    2    1    2    0    0 -0.20246613477E+02  0.10535996347E+02  0.13437888157E+02  0.96678259148E+02  0.92979440617E+02 0.  0.
         23    2    1    2    0    0  0.20246613477E+02 -0.10535996347E+02 -0.18304407445E+03  0.20699663760E+03  0.93923065381E+02 0.  0.
          5    1    4    4  502    0  0.45303621452E+02  0.25562370968E+02 -0.91946888465E+02  0.10574579530E+03  0.47000000000E+01 0. -1.
         -5    1    4    4    0  502 -0.25057007975E+02 -0.36098367314E+02 -0.91097185980E+02  0.10125084229E+03  0.47000000000E+01 0.  1.
          5    1    3    3  503    0 -0.30699127975E+02  0.43755746521E+02  0.25653775900E+02  0.59474431733E+02  0.47000000000E+01 0. -1.
         -5    1    3    3    0  503  0.10452514498E+02 -0.33219750174E+02 -0.12215887743E+02  0.37203827415E+02  0.47000000000E+01 0.  1.
<mgrwt>
<rscale>  0 0.96426489E+02</rscale>
<asrwt>0</asrwt>
<pdfrwt beam="1">  1        1 0.36406238E-01 0.96656478E+02</pdfrwt>
<pdfrwt beam="2">  1       -1 0.10312978E-01 0.96656478E+02</pdfrwt>
<totfact> 0.63935638E+03</totfact>
</mgrwt>
</event>
<event>
 8    1  0.2964543E-004  0.9357491E+02  0.7546771E-02  0.1300371E+00
         -1   -1    0    0    0  501 -0.00000000000E+00  0.00000000000E+00  0.19742032467E+02  0.19742032467E+02  0.00000000000E+00 0.  1.
          1   -1    0    0  501    0  0.00000000000E+00 -0.00000000000E+00 -0.46859206538E+03  0.46859206538E+03  0.00000000000E+00 0. -1.
         23    2    1    2    0    0 -0.13535969320E+02  0.61219184261E+01 -0.32926204226E+03  0.34230068039E+03  0.92388110565E+02 0.  0.
         23    2    1    2    0    0  0.13535969320E+02 -0.61219184261E+01 -0.11958799066E+03  0.14603341746E+03  0.82484975328E+02 0.  0.
          5    1    3    3  502    0 -0.65732762895E+01 -0.42459273177E+02 -0.12852300634E+03  0.13559591070E+03  0.47000000000E+01 0. -1.
         -5    1    4    4    0  503 -0.22510390793E+02  0.26207740882E+02 -0.56062681204E+02  0.66020281729E+02  0.47000000000E+01 0.  1.
          5    1    4    4  503    0  0.36046360112E+02 -0.32329659308E+02 -0.63525309457E+02  0.80013135734E+02  0.47000000000E+01 0. -1.
         -5    1    3    3    0  502 -0.69626930303E+01  0.48581191603E+02 -0.20073903591E+03  0.20670476969E+03  0.47000000000E+01 0.  1.
<mgrwt>
<rscale>  0 0.91032456E+02</rscale>
<asrwt>0</asrwt>
<pdfrwt beam="1">  1        1 0.72091079E-01 0.93574908E+02</pdfrwt>
<pdfrwt beam="2">  1       -1 0.30372361E-02 0.93574908E+02</pdfrwt>
<totfact> 0.16622962E+04</totfact>
</mgrwt>
</event>
<event>
 8    1  0.2964543E-004  0.9803892E+02  0.7546771E-02  0.1288354E+00
          1   -1    0    0  501    0  0.00000000000E+00  0.00000000000E+00  0.85454274381E+03  0.85454274381E+03  0.00000000000E+00 0. -1.
         -1   -1    0    0    0  501 -0.00000000000E+00 -0.00000000000E+00 -0.18323241438E+02  0.18323241438E+02  0.00000000000E+00 0.  1.
         23    2    1    2    0    0  0.74585965427E+01 -0.31904354565E+02  0.71246371432E+03  0.71917742877E+03  0.92401901129E+02 0.  0.
         23    2    1    2    0    0 -0.74585965427E+01  0.31904354565E+02  0.12375578805E+03  0.15368855648E+03  0.85036220592E+02 0.  0.
          5    1    4    4  502    0 -0.27591208942E+02  0.21335997674E+01  0.11218189009E+03  0.11564036286E+03  0.47000000000E+01 0. -1.
         -5    1    3    3    0  503  0.11374749517E+02  0.31727262240E+02  0.26179942257E+03  0.26400195407E+03  0.47000000000E+01 0.  1.
          5    1    3    3  503    0 -0.39161529742E+01 -0.63631616806E+02  0.45066429175E+03  0.45517547470E+03  0.47000000000E+01 0. -1.
         -5    1    4    4    0  502  0.20132612399E+02  0.29770754798E+02  0.11573897964E+02  0.38048193615E+02  0.47000000000E+01 0.  1.
<mgrwt>
<rscale>  0 0.96264073E+02</rscale>
<asrwt>0</asrwt>
<pdfrwt beam="1">  1        1 0.13146808E+00 0.98038920E+02</pdfrwt>
<pdfrwt beam="2">  1       -1 0.28189609E-02 0.98038920E+02</pdfrwt>
<totfact> 0.81266915E+03</totfact>
</mgrwt>
</event>
<event>
 8    1  0.2964543E-004  0.1084230E+03  0.7546771E-02  0.1263890E+00
          2   -1    0    0  501    0  0.00000000000E+00  0.00000000000E+00  0.89596414830E+03  0.89596414830E+03  0.00000000000E+00 0. -1.
         -2   -1    0    0    0  501 -0.00000000000E+00 -0.00000000000E+00 -0.13802235346E+02  0.13802235346E+02  0.00000000000E+00 0.  1.
         23    2    1    2    0    0 -0.56104152637E+02 -0.14196214142E+02  0.55046904752E+03  0.56104520391E+03  0.91686095507E+02 0.  0.
         23    2    1    2    0    0  0.56104152637E+02  0.14196214142E+02  0.33169286543E+03  0.34872117973E+03  0.90758447434E+02 0.  0.
          5    1    3    3  502    0  0.20418143365E+01  0.27586459226E+02  0.27337455636E+03  0.27481069813E+03  0.47000000000E+01 0. -1.
         -5    1    3    3    0  502 -0.58145966974E+02 -0.41782673368E+02  0.27709449116E+03  0.28623450578E+03  0.47000000000E+01 0.  1.
          5    1    4    4  503    0  0.52152552778E+02 -0.57649334817E+01  0.32093323027E+03  0.32522815301E+03  0.47000000000E+01 0. -1.
         -5    1    4    4    0  503  0.39515998595E+01  0.19961147624E+02  0.10759635157E+02  0.23493026723E+02  0.47000000000E+01 0.  1.
<mgrwt>
<rscale>  0 0.10822665E+03</rscale>
<asrwt>0</asrwt>
<pdfrwt beam="1">  1        2 0.13784059E+00 0.10842301E+03</pdfrwt>
<pdfrwt beam="2">  1       -2 0.21234215E-02 0.10842301E+03</pdfrwt>
<totfact> 0.20201921E+04</totfact>
</mgrwt>
</event>
<event>
 8    1  0.2964543E-004  0.1690899E+03  0.7546771E-02  0.1178917E+00
         -1   -1    0    0    0  501 -0.00000000000E+00  0.00000000000E+00  0.19625822194E+03  0.19625822194E+03  0.00000000000E+00 0.  1.
          1   -1    0    0  501    0  0.00000000000E+00 -0.00000000000E+00 -0.17879173829E+03  0.17879173829E+03  0.00000000000E+00 0. -1.
         23    2    1    2    0    0 -0.10373201526E+03 -0.97052350268E+02 -0.72437005330E+02  0.18354534772E+03  0.90897113530E+02 0.  0.
         23    2    1    2    0    0  0.10373201526E+03  0.97052350268E+02  0.89903488979E+02  0.19150461251E+03  0.91716354044E+02 0.  0.
          5    1    4    4  502    0  0.26849543141E+02 -0.87963274409E+01 -0.59523006791E+01  0.29253943780E+02  0.47000000000E+01 0. -1.
         -5    1    3    3    0  503 -0.26996985879E+02  0.14952084016E+02 -0.23785608737E+02  0.39245983820E+02  0.47000000000E+01 0.  1.
          5    1    3    3  503    0 -0.76735029377E+02 -0.11200443428E+03 -0.48651396593E+02  0.14429936390E+03  0.47000000000E+01 0. -1.
         -5    1    4    4    0  502  0.76882472115E+02  0.10584867771E+03  0.95855789659E+02  0.16225066873E+03  0.47000000000E+01 0.  1.
<mgrwt>
<rscale>  0 0.16897901E+03</rscale>
<asrwt>0</asrwt>
<pdfrwt beam="1">  1        1 0.27506421E-01 0.16908986E+03</pdfrwt>
<pdfrwt beam="2">  1       -1 0.30193573E-01 0.16908986E+03</pdfrwt>
<totfact> 0.16863980E+03</totfact>
</mgrwt>
</event>
<event>
 8    1  0.2964543E-004  0.9279054E+02  0.7546771E-02  0.1296450E+00
         -3   -1    0    0    0  501 -0.00000000000E+00  0.00000000000E+00  0.10325412480E+03  0.10325412480E+03  0.00000000000E+00 0.  1.
          3   -1    0    0  501    0  0.00000000000E+00 -0.00000000000E+00 -0.23944079544E+03  0.23944079544E+03  0.00000000000E+00 0. -1.
         23    2    1    2    0    0 -0.15244464671E+02  0.11644839364E+02 -0.20662022716E+03  0.22649945375E+03  0.90785947654E+02 0.  0.
         23    2    1    2    0    0  0.15244464671E+02 -0.11644839364E+02  0.70433556518E+02  0.11619546648E+03  0.90401905737E+02 0.  0.
          5    1    4    4  502    0  0.21509363682E+02  0.83576353040E+01 -0.15120335430E+02  0.27986020393E+02  0.47000000000E+01 0. -1.
         -5    1    4    4    0  502 -0.62648990117E+01 -0.20002474668E+02  0.85553891948E+02  0.88209446092E+02  0.47000000000E+01 0.  1.
          5    1    3    3  503    0 -0.51239462190E+02  0.18571064909E+02 -0.14013758524E+03  0.15043603203E+03  0.47000000000E+01 0. -1.
         -5    1    3    3    0  503  0.35994997519E+02 -0.69262255451E+01 -0.66482641921E+02  0.76063421718E+02  0.47000000000E+01 0.  1.
<mgrwt>
<rscale>  0 0.92696469E+02</rscale>
<asrwt>0</asrwt>
<pdfrwt beam="1">  1        3 0.36837045E-01 0.92790540E+02</pdfrwt>
<pdfrwt beam="2">  1       -3 0.15885250E-01 0.92790540E+02</pdfrwt>
<totfact> 0.53447515E+02</totfact>
</mgrwt>
</event>
<event>
 8    1  0.2964543E-004  0.1563801E+03  0.7546771E-02  0.1192936E+00
         -2   -1    0    0    0  501 -0.00000000000E+00  0.00000000000E+00  0.29564998652E+02  0.29564998652E+02  0.00000000000E+00 0.  1.
          2   -1    0    0  501    0  0.00000000000E+00 -0.00000000000E+00 -0.84792751432E+03  0.84792751432E+03  0.00000000000E+00 0. -1.
         23    2    1    2    0    0 -0.62846482467E+02  0.10964545599E+03 -0.48012941565E+03  0.50485815971E+03  0.91573463831E+02 0.  0.
         23    2    1    2    0    0  0.62846482467E+02 -0.10964545599E+03 -0.33823310002E+03  0.37263435326E+03  0.92102795315E+02 0.  0.
          5    1    3    3  502    0 -0.58007201711E+02  0.14916908623E+02 -0.21485765247E+03  0.22309919417E+03  0.47000000000E+01 0. -1.
         -5    1    4    4    0  503  0.21813371676E+02 -0.79017070555E+01 -0.85878759439E+01  0.25181377474E+02  0.47000000000E+01 0.  1.
          5    1    4    4  503    0  0.41033110792E+02 -0.10174374893E+03 -0.32964522408E+03  0.34745297579E+03  0.47000000000E+01 0. -1.
         -5    1    3    3    0  502 -0.48392807560E+01  0.94728547363E+02 -0.26527176317E+03  0.28175896554E+03  0.47000000000E+01 0.  1.
<mgrwt>
<rscale>  0 0.15630223E+03</rscale>
<asrwt>0</asrwt>
<pdfrwt beam="1">  1        2 0.13045039E+00 0.15638009E+03</pdfrwt>
<pdfrwt beam="2">  1       -2 0.45484613E-02 0.15638009E+03</pdfrwt>
<totfact> 0.72420339E+03</totfact>
</mgrwt>
</event>
<event>
 8    1  0.2964543E-004  0.9691314E+02  0.7546771E-02  0.1287173E+00
         -1   -1    0    0    0  501 -0.00000000000E+00  0.00000000000E+00  0.10399287754E+03  0.10399287754E+03  0.00000000000E+00 0.  1.
          1   -1    0    0  501    0  0.00000000000E+00 -0.00000000000E+00 -0.12649682981E+03  0.12649682981E+03  0.00000000000E+00 0. -1.
         23    2    1    2    0    0  0.30840378740E+02  0.10376107977E+01 -0.73225921155E+02  0.12110563399E+03  0.91391101639E+02 0.  0.
         23    2    1    2    0    0 -0.30840378740E+02 -0.10376107977E+01  0.50721968880E+02  0.10938407336E+03  0.91869210186E+02 0.  0.
          5    1    4    4  502    0 -0.54240361126E+02 -0.15862747151E+02  0.66201690045E+01  0.57092557833E+02  0.47000000000E+01 0. -1.
         -5    1    4    4    0  502  0.23399982386E+02  0.14825136353E+02  0.44101799876E+02  0.52291515525E+02  0.47000000000E+01 0.  1.
          5    1    3    3  503    0  0.39076499715E+02 -0.31013145920E+02 -0.12272754914E+02  0.51589713732E+02  0.47000000000E+01 0. -1.
         -5    1    3    3    0  503 -0.82361209742E+01  0.32050756718E+02 -0.60953166240E+02  0.69515920260E+02  0.47000000000E+01 0.  1.
<mgrwt>
<rscale>  0 0.96799668E+02</rscale>
<asrwt>0</asrwt>
<pdfrwt beam="1">  1        1 0.19461051E-01 0.96913143E+02</pdfrwt>
<pdfrwt beam="2">  1       -1 0.15998904E-01 0.96913143E+02</pdfrwt>
<totfact> 0.70769087E+03</totfact>
</mgrwt>
</event>
<event>
 8    1  0.2964543E-004  0.9583372E+02  0.7546771E-02  0.1290177E+00
         -1   -1    0    0    0  501 -0.00000000000E+00  0.00000000000E+00  0.17053338019E+02  0.17053338019E+02  0.00000000000E+00 0.  1.
          1   -1    0    0  501    0  0.00000000000E+00 -0.00000000000E+00 -0.53094965765E+03  0.53094965765E+03  0.00000000000E+00 0. -1.
         23    2    1    2    0    0 -0.63893368017E+01  0.28189070946E+02 -0.26704173816E+03  0.28319875557E+03  0.89748525846E+02 0.  0.
         23    2    1    2    0    0  0.63893368017E+01 -0.28189070946E+02 -0.24685458147E+03  0.26480424010E+03  0.91370968233E+02 0.  0.
          5    1    4    4  502    0 -0.35775734965E+02 -0.28317067521E+02 -0.17895418964E+03  0.18473887386E+03  0.47000000000E+01 0. -1.
         -5    1    4    4    0  502  0.42165071767E+02  0.12799657520E+00 -0.67900391826E+02  0.80065366235E+02  0.47000000000E+01 0.  1.
          5    1    3    3  503    0 -0.34317686316E+02 -0.13041872031E+02 -0.62567373811E+02  0.72694981159E+02  0.47000000000E+01 0. -1.
         -5    1    3    3    0  503  0.27928349514E+02  0.41230942977E+02 -0.20447436435E+03  0.21050377442E+03  0.47000000000E+01 0.  1.
<mgrwt>
<rscale>  0 0.95444952E+02</rscale>
<asrwt>0</asrwt>
<pdfrwt beam="1">  1        1 0.81684573E-01 0.95833716E+02</pdfrwt>
<pdfrwt beam="2">  1       -1 0.26235901E-02 0.95833716E+02</pdfrwt>
<totfact> 0.17515734E+04</totfact>
</mgrwt>
</event>
<event>
 8    1  0.2964543E-004  0.9307833E+02  0.7546771E-02  0.1298594E+00
          1   -1    0    0  501    0  0.00000000000E+00  0.00000000000E+00  0.19386402482E+02  0.19386402482E+02  0.00000000000E+00 0. -1.
         -1   -1    0    0    0  501 -0.00000000000E+00 -0.00000000000E+00 -0.46195556102E+03  0.46195556102E+03  0.00000000000E+00 0.  1.
         23    2    1    2    0    0 -0.41327238606E+01 -0.15042295490E+02 -0.28561595348E+03  0.29886488584E+03  0.86604832699E+02 0.  0.
         23    2    1    2    0    0  0.41327238606E+01  0.15042295490E+02 -0.15695320506E+03  0.18247707767E+03  0.91761785257E+02 0.  0.
          5    1    3    3  502    0 -0.44467105670E+02 -0.36413688313E+00 -0.15254714709E+03  0.15896596544E+03  0.47000000000E+01 0. -1.
         -5    1    4    4    0  503  0.22360370398E+02 -0.19543837111E+02 -0.13306735075E+03  0.13642198346E+03  0.47000000000E+01 0.  1.
          5    1    4    4  503    0 -0.18227646537E+02  0.34586132601E+02 -0.23885854309E+02  0.46055094209E+02  0.47000000000E+01 0. -1.
         -5    1    3    3    0  502  0.40334381810E+02 -0.14678158607E+02 -0.13306880638E+03  0.13989892040E+03  0.47000000000E+01 0.  1.
<mgrwt>
<rscale>  0 0.91781537E+02</rscale>
<asrwt>0</asrwt>
<pdfrwt beam="1">  1        1 0.29825234E-02 0.93078329E+02</pdfrwt>
<pdfrwt beam="2">  1       -1 0.71070089E-01 0.93078329E+02</pdfrwt>
<totfact> 0.65691665E+03</totfact>
</mgrwt>
</event>
<event>
 8    1  0.2964543E-004  0.1098411E+03  0.7546771E-02  0.1261244E+00
         -2   -1    0    0    0  501 -0.00000000000E+00  0.00000000000E+00  0.22276906645E+03  0.22276906645E+03  0.00000000000E+00 0.  1.
          2   -1    0    0  501    0  0.00000000000E+00 -0.00000000000E+00 -0.63106826628E+02  0.63106826628E+02  0.00000000000E+00 0. -1.
         23    2    1    2    0    0 -0.56692545069E+02 -0.22704199911E+02  0.13509947899E+03  0.17411761417E+03  0.91299227713E+02 0.  0.
         23    2    1    2    0    0  0.56692545069E+02  0.22704199911E+02  0.24562760832E+02  0.11175827891E+03  0.90316434411E+02 0.  0.
          5    1    3    3  502    0 -0.23306866901E+02 -0.27706291328E+02  0.18263170655E+01  0.36555082518E+02  0.47000000000E+01 0. -1.
         -5    1    4    4    0  503 -0.47865949778E+00 -0.20616744313E+02  0.33191627052E+02  0.39358015287E+02  0.47000000000E+01 0.  1.
          5    1    4    4  503    0  0.57171204567E+02  0.43320944224E+02 -0.86288662200E+01  0.72400263621E+02  0.47000000000E+01 0. -1.
         -5    1    3    3    0  502 -0.33385678169E+02  0.50020914176E+01  0.13327316192E+03  0.13756253165E+03  0.47000000000E+01 0.  1.
<mgrwt>
<rscale>  0 0.10963668E+03</rscale>
<asrwt>0</asrwt>
<pdfrwt beam="1">  1        2 0.97087426E-02 0.10984113E+03</pdfrwt>
<pdfrwt beam="2">  1       -2 0.34272164E-01 0.10984113E+03</pdfrwt>
<totfact> 0.49741424E+03</totfact>
</mgrwt>
</event>
<event>
 8    1  0.2964543E-004  0.1095839E+03  0.7546771E-02  0.1264303E+00
         -3   -1    0    0    0  501 -0.00000000000E+00  0.00000000000E+00  0.73547700926E+02  0.73547700926E+02  0.00000000000E+00 0.  1.
          3   -1    0    0  501    0  0.00000000000E+00 -0.00000000000E+00 -0.15680788347E+03  0.15680788347E+03  0.00000000000E+00 0. -1.
         23    2    1    2    0    0  0.12969860860E+02  0.56964164819E+02 -0.55243120053E+02  0.11724682562E+03  0.85333946590E+02 0.  0.
         23    2    1    2    0    0 -0.12969860860E+02 -0.56964164819E+02 -0.28017062493E+02  0.11310875878E+03  0.92711931040E+02 0.  0.
          5    1    4    4  502    0 -0.37944384833E+02 -0.27123362918E+02 -0.49696183211E+02  0.68317302216E+02  0.47000000000E+01 0. -1.
         -5    1    4    4    0  502  0.24974523973E+02 -0.29840801901E+02  0.21679120718E+02  0.44791456561E+02  0.47000000000E+01 0.  1.
          5    1    3    3  503    0 -0.30246871080E+02  0.20070168244E+02 -0.47101082062E+02  0.59651377141E+02  0.47000000000E+01 0. -1.
         -5    1    3    3    0  503  0.43216731940E+02  0.36893996575E+02 -0.81420379914E+01  0.57595448479E+02  0.47000000000E+01 0.  1.
<mgrwt>
<rscale>  0 0.10800847E+03</rscale>
<asrwt>0</asrwt>
<pdfrwt beam="1">  1        3 0.24124289E-01 0.10958392E+03</pdfrwt>
<pdfrwt beam="2">  1       -3 0.11315031E-01 0.10958392E+03</pdfrwt>
<totfact> 0.21189029E+03</totfact>
</mgrwt>
</event>
<event>
 8    1  0.2964543E-004  0.9539734E+02  0.7546771E-02  0.1293267E+00
          3   -1    0    0  501    0  0.00000000000E+00  0.00000000000E+00  0.16496682208E+03  0.16496682208E+03  0.00000000000E+00 0. -1.
         -3   -1    0    0    0  501 -0.00000000000E+00 -0.00000000000E+00 -0.86227161579E+02  0.86227161579E+02  0.00000000000E+00 0.  1.
         23    2    1    2    0    0  0.45929517827E+01 -0.56696379638E+01 -0.38826394127E+02  0.10299583058E+03  0.95117885995E+02 0.  0.
         23    2    1    2    0    0 -0.45929517827E+01  0.56696379638E+01  0.11756605463E+03  0.14819815308E+03  0.89931503788E+02 0.  0.
          5    1    3    3  502    0  0.30194412994E+02  0.32859235421E+02 -0.42927180611E+01  0.45077148943E+02  0.47000000000E+01 0. -1.
         -5    1    4    4    0  503  0.39424658937E+02 -0.91359675608E+01  0.73336595565E+02  0.83893479393E+02  0.47000000000E+01 0.  1.
          5    1    4    4  503    0 -0.44017610720E+02  0.14805605525E+02  0.44229459065E+02  0.64304673684E+02  0.47000000000E+01 0. -1.
         -5    1    3    3    0  502 -0.25601461211E+02 -0.38528873385E+02 -0.34533676066E+02  0.57918681641E+02  0.47000000000E+01 0.  1.
<mgrwt>
<rscale>  0 0.94077626E+02</rscale>
<asrwt>0</asrwt>
<pdfrwt beam="1">  1        3 0.25379511E-01 0.95397339E+02</pdfrwt>
<pdfrwt beam="2">  1       -3 0.13265717E-01 0.95397339E+02</pdfrwt>
<totfact> 0.14450299E+03</totfact>
</mgrwt>
</event>
<event>
 8    1  0.2964543E-004  0.1354032E+03  0.7546771E-02  0.1219835E+00
         -1   -1    0    0    0  501 -0.00000000000E+00  0.00000000000E+00  0.45949152988E+02  0.45949152988E+02  0.00000000000E+00 0.  1.
          1   -1    0    0  501    0  0.00000000000E+00 -0.00000000000E+00 -0.41631582964E+03  0.41631582964E+03  0.00000000000E+00 0. -1.
         23    2    1    2    0    0  0.94340868444E+02 -0.31554770703E+02 -0.23400992624E+03  0.27010050712E+03  0.91091906081E+02 0.  0.
         23    2    1    2    0    0 -0.94340868444E+02  0.31554770703E+02 -0.13635675041E+03  0.19216447550E+03  0.91859236073E+02 0.  0.
          5    1    3    3  502    0  0.40307252757E+01 -0.39708887182E+02 -0.10424004878E+03  0.11171893410E+03  0.47000000000E+01 0. -1.
         -5    1    4    4    0  503 -0.51428833851E+01 -0.21827345199E+02 -0.31439147847E+01  0.23126963659E+02  0.47000000000E+01 0.  1.
          5    1    4    4  503    0 -0.89197985059E+02  0.53382115902E+02 -0.13321283562E+03  0.16903751185E+03  0.47000000000E+01 0. -1.
         -5    1    3    3    0  502  0.90310143168E+02  0.81541164792E+01 -0.12976987746E+03  0.15838157302E+03  0.47000000000E+01 0.  1.
<mgrwt>
<rscale>  0 0.13527315E+03</rscale>
<asrwt>0</asrwt>
<pdfrwt beam="1">  1        1 0.64048587E-01 0.13540318E+03</pdfrwt>
<pdfrwt beam="2">  1       -1 0.70691007E-02 0.13540318E+03</pdfrwt>
<totfact> 0.57435973E+03</totfact>
</mgrwt>
</event>
<event>
 8    1  0.2964543E-004  0.9622329E+02  0.7546771E-02  0.1290483E+00
          1   -1    0    0  501    0  0.00000000000E+00  0.00000000000E+00  0.32752054954E+02  0.32752054954E+02  0.00000000000E+00 0. -1.
         -1   -1    0    0    0  501 -0.00000000000E+00 -0.00000000000E+00 -0.27291159549E+03  0.27291159549E+03  0.00000000000E+00 0.  1.
         23    2    1    2    0    0 -0.19620449012E+02 -0.38371720776E+01 -0.13019567461E+03  0.16189451955E+03  0.94123513875E+02 0.  0.
         23    2    1    2    0    0  0.19620449012E+02  0.38371720776E+01 -0.10996386593E+03  0.14376913089E+03  0.90431329082E+02 0.  0.
          5    1    3    3  502    0 -0.46645495603E+02  0.70887554856E+01 -0.12253752667E+03  0.13139097441E+03  0.47000000000E+01 0. -1.
         -5    1    3    3    0  502  0.27025046591E+02 -0.10925927563E+02 -0.76581479464E+01  0.30503545144E+02  0.47000000000E+01 0.  1.
          5    1    4    4  503    0 -0.25739820949E+02  0.13879303766E+02 -0.65972069497E+01  0.30344465641E+02  0.47000000000E+01 0. -1.
         -5    1    4    4    0  503  0.45360269961E+02 -0.10042131688E+02 -0.10336665898E+03  0.11342466525E+03  0.47000000000E+01 0.  1.
<mgrwt>
<rscale>  0 0.95308211E+02</rscale>
<asrwt>0</asrwt>
<pdfrwt beam="1">  1        1 0.50387776E-02 0.96223291E+02</pdfrwt>
<pdfrwt beam="2">  1       -1 0.41986400E-01 0.96223291E+02</pdfrwt>
<totfact> 0.85267080E+03</totfact>
</mgrwt>
</event>
<event>
 8    1  0.2964543E-004  0.1003382E+03  0.7546771E-02  0.1280182E+00
         -1   -1    0    0    0  501 -0.00000000000E+00  0.00000000000E+00  0.35560680201E+02  0.35560680201E+02  0.00000000000E+00 0.  1.
          1   -1    0    0  501    0  0.00000000000E+00 -0.00000000000E+00 -0.28334334774E+03  0.28334334774E+03  0.00000000000E+00 0. -1.
         23    2    1    2    0    0  0.34297504544E+02 -0.20998105481E+02 -0.10708924523E+03  0.14675098647E+03  0.91926635610E+02 0.  0.
         23    2    1    2    0    0 -0.34297504544E+02  0.20998105481E+02 -0.14069342231E+03  0.17215304147E+03  0.90690635429E+02 0.  0.
          5    1    4    4  502    0 -0.52848121118E+02 -0.17293140447E+02 -0.88848964467E+02  0.10491999380E+03  0.47000000000E+01 0. -1.
         -5    1    3    3    0  503  0.44521894502E+02  0.20647356729E+02 -0.28093330335E+02  0.56743613202E+02  0.47000000000E+01 0.  1.
          5    1    3    3  503    0 -0.10224389958E+02 -0.41645462209E+02 -0.78995914894E+02  0.90007373268E+02  0.47000000000E+01 0. -1.
         -5    1    4    4    0  502  0.18550616574E+02  0.38291245928E+02 -0.51844457840E+02  0.67233047668E+02  0.47000000000E+01 0.  1.
<mgrwt>
<rscale>  0 0.10005417E+03</rscale>
<asrwt>0</asrwt>
<pdfrwt beam="1">  1        1 0.43591283E-01 0.10033816E+03</pdfrwt>
<pdfrwt beam="2">  1       -1 0.54708740E-02 0.10033816E+03</pdfrwt>
<totfact> 0.13249552E+04</totfact>
</mgrwt>
</event>
<event>
 8    1  0.2964543E-004  0.1401520E+03  0.7546771E-02  0.1215555E+00
         -1   -1    0    0    0  501 -0.00000000000E+00  0.00000000000E+00  0.19430053288E+02  0.19430053288E+02  0.00000000000E+00 0.  1.
          1   -1    0    0  501    0  0.00000000000E+00 -0.00000000000E+00 -0.11902504920E+04  0.11902504920E+04  0.00000000000E+00 0. -1.
         23    2    1    2    0    0 -0.98110543971E+02 -0.31884093706E+01 -0.83872261022E+03  0.84922034793E+03  0.89909608250E+02 0.  0.
         23    2    1    2    0    0  0.98110543971E+02  0.31884093706E+01 -0.33209782852E+03  0.36046019738E+03  0.10003370131E+03 0.  0.
          5    1    3    3  502    0 -0.99204441677E+02  0.26160474554E+02 -0.68360983705E+03  0.69128170162E+03  0.47000000000E+01 0. -1.
         -5    1    4    4    0  503  0.95006328964E+02  0.39602764775E+02 -0.25412774757E+03  0.27422177814E+03  0.47000000000E+01 0.  1.
          5    1    4    4  503    0  0.31042150074E+01 -0.36414355404E+02 -0.77970080947E+02  0.86238419241E+02  0.47000000000E+01 0. -1.
         -5    1    3    3    0  502  0.10938977058E+01 -0.29348883925E+02 -0.15511277316E+03  0.15793864631E+03  0.47000000000E+01 0.  1.
<mgrwt>
<rscale>  0 0.13835861E+03</rscale>
<asrwt>0</asrwt>
<pdfrwt beam="1">  1        1 0.18311542E+00 0.14015201E+03</pdfrwt>
<pdfrwt beam="2">  1       -1 0.29892396E-02 0.14015201E+03</pdfrwt>
<totfact> 0.43351754E+03</totfact>
</mgrwt>
</event>
<event>
 8    1  0.2964543E-004  0.1348571E+03  0.7546771E-02  0.1220673E+00
         -1   -1    0    0    0  501 -0.00000000000E+00  0.00000000000E+00  0.46504734666E+03  0.46504734666E+03  0.00000000000E+00 0.  1.
          1   -1    0    0  501    0  0.00000000000E+00 -0.00000000000E+00 -0.45639369683E+02  0.45639369683E+02  0.00000000000E+00 0. -1.
         23    2    1    2    0    0  0.98239557459E+02 -0.52816640967E+02  0.11112192049E+03  0.17419490609E+03  0.74533052273E+02 0.  0.
         23    2    1    2    0    0 -0.98239557459E+02  0.52816640967E+02  0.30828605649E+03  0.33649181026E+03  0.75801302973E+02 0.  0.
          5    1    3    3  502    0  0.72256486747E+02 -0.31159927928E+02  0.26866373622E+02  0.83281648742E+02  0.47000000000E+01 0. -1.
         -5    1    3    3    0  502  0.25983070712E+02 -0.21656713039E+02  0.84255546872E+02  0.90913257350E+02  0.47000000000E+01 0.  1.
          5    1    4    4  503    0 -0.38177862639E+02  0.13054994426E+02  0.34327442209E+02  0.53183130443E+02  0.47000000000E+01 0. -1.
         -5    1    4    4    0  503 -0.60061694821E+02  0.39761646541E+02  0.27395861428E+03  0.28330867981E+03  0.47000000000E+01 0.  1.
<mgrwt>
<rscale>  0 0.13467959E+03</rscale>
<asrwt>0</asrwt>
<pdfrwt beam="1">  1        1 0.70214418E-02 0.13485713E+03</pdfrwt>
<pdfrwt beam="2">  1       -1 0.71545742E-01 0.13485713E+03</pdfrwt>
<totfact> 0.20712631E+03</totfact>
</mgrwt>
</event>
<event>
 8    1  0.2964543E-004  0.9210915E+02  0.7546771E-02  0.1311262E+00
         -1   -1    0    0    0  501 -0.00000000000E+00  0.00000000000E+00  0.15797833721E+03  0.15797833721E+03  0.00000000000E+00 0.  1.
          1   -1    0    0  501    0  0.00000000000E+00 -0.00000000000E+00 -0.18056587376E+03  0.18056587376E+03  0.00000000000E+00 0. -1.
         23    2    1    2    0    0 -0.50042812414E+00 -0.47302753046E+01  0.13606447543E+03  0.16430957798E+03  0.91986249029E+02 0.  0.
         23    2    1    2    0    0  0.50042812414E+00  0.47302753046E+01 -0.15865201198E+03  0.17423463299E+03  0.71865294081E+02 0.  0.
          5    1    4    4  502    0 -0.33887722463E+02 -0.77095288124E+01 -0.81518917978E+02  0.88742540850E+02  0.47000000000E+01 0. -1.
         -5    1    4    4    0  502  0.34388150587E+02  0.12439804117E+02 -0.77133094003E+02  0.85492092136E+02  0.47000000000E+01 0.  1.
          5    1    3    3  503    0  0.41919253943E+02  0.10185360743E+02  0.44300390849E+02  0.62012741062E+02  0.47000000000E+01 0. -1.
         -5    1    3    3    0  503 -0.42419682067E+02 -0.14915636047E+02  0.91764084578E+02  0.10229683692E+03  0.47000000000E+01 0.  1.
<mgrwt>
<rscale>  0 0.86615217E+02</rscale>
<asrwt>0</asrwt>
<pdfrwt beam="1">  1        1 0.27779365E-01 0.92109152E+02</pdfrwt>
<pdfrwt beam="2">  1       -1 0.24304360E-01 0.92109152E+02</pdfrwt>
<totfact> 0.23295845E+03</totfact>
</mgrwt>
</event>
<event>
 8    1  0.2964543E-004  0.1477197E+03  0.7546771E-02  0.1206008E+00
         -1   -1    0    0    0  501 -0.00000000000E+00  0.00000000000E+00  0.96876689976E+02  0.96876689976E+02  0.00000000000E+00 0.  1.
          1   -1    0    0  501    0  0.00000000000E+00 -0.00000000000E+00 -0.21429760175E+03  0.21429760175E+03  0.00000000000E+00 0. -1.
         23    2    1    2    0    0  0.98237941257E+02  0.63004327037E+02 -0.43487406229E+02  0.14598569076E+03  0.76160548039E+02 0.  0.
         23    2    1    2    0    0 -0.98237941257E+02 -0.63004327037E+02 -0.73933505547E+02  0.16518860097E+03  0.90558667835E+02 0.  0.
          5    1    3    3  502    0 -0.67240189226E+01  0.27104395933E+02 -0.94765975688E+01  0.29862294133E+02  0.47000000000E+01 0. -1.
         -5    1    3    3    0  502  0.10496196018E+03  0.35899931104E+02 -0.34010808660E+02  0.11612339662E+03  0.47000000000E+01 0.  1.
          5    1    4    4  503    0 -0.62007570769E+02  0.55927682896E+01 -0.59288920896E+02  0.86101591338E+02  0.47000000000E+01 0. -1.
         -5    1    4    4    0  503 -0.36230370488E+02 -0.68597095327E+02 -0.14644584650E+02  0.79087009632E+02  0.47000000000E+01 0.  1.
<mgrwt>
<rscale>  0 0.14558339E+03</rscale>
<asrwt>0</asrwt>
<pdfrwt beam="1">  1        1 0.32968861E-01 0.14771970E+03</pdfrwt>
<pdfrwt beam="2">  1       -1 0.14904106E-01 0.14771970E+03</pdfrwt>
<totfact> 0.42083327E+03</totfact>
</mgrwt>
</event>
<event>
 8    1  0.2964543E-004  0.9758299E+02  0.7546771E-02  0.1286712E+00
          2   -1    0    0  501    0  0.00000000000E+00  0.00000000000E+00  0.22656444721E+03  0.22656444721E+03  0.00000000000E+00 0. -1.
         -2   -1    0    0    0  501 -0.00000000000E+00 -0.00000000000E+00 -0.10725508934E+03  0.10725508934E+03  0.00000000000E+00 0.  1.
         23    2    1    2    0    0 -0.26927328671E+02  0.26348461827E+02 -0.71201002918E+02  0.12079744777E+03  0.90017321124E+02 0.  0.
         23    2    1    2    0    0  0.26927328671E+02 -0.26348461827E+02  0.19051036079E+03  0.21302208877E+03  0.87549359022E+02 0.  0.
          5    1    4    4  502    0  0.40324687571E+02  0.14023217851E+02  0.14189887114E+03  0.14825690776E+03  0.47000000000E+01 0. -1.
         -5    1    3    3    0  503 -0.22006869295E+01 -0.32641464453E+02 -0.29462230073E+02  0.44276644244E+02  0.47000000000E+01 0.  1.
          5    1    3    3  503    0 -0.24726641742E+02  0.58989926280E+02 -0.41738772845E+02  0.76520803531E+02  0.47000000000E+01 0. -1.
         -5    1    4    4    0  502 -0.13397358900E+02 -0.40371679678E+02  0.48611489646E+02  0.64765181009E+02  0.47000000000E+01 0.  1.
<mgrwt>
<rscale>  0 0.97010002E+02</rscale>
<asrwt>0</asrwt>
<pdfrwt beam="1">  1        2 0.34856069E-01 0.97582993E+02</pdfrwt>
<pdfrwt beam="2">  1       -2 0.16500783E-01 0.97582993E+02</pdfrwt>
<totfact> 0.40826378E+03</totfact>
</mgrwt>
</event>
<event>
 8    1  0.2964543E-004  0.9647744E+02  0.7546771E-02  0.1287943E+00
         -1   -1    0    0    0  501 -0.00000000000E+00  0.00000000000E+00  0.20940070134E+02  0.20940070134E+02  0.00000000000E+00 0.  1.
          1   -1    0    0  501    0  0.00000000000E+00 -0.00000000000E+00 -0.68926496755E+03  0.68926496755E+03  0.00000000000E+00 0. -1.
         23    2    1    2    0    0  0.33648193800E+02  0.81123031148E+00 -0.54586616227E+03  0.55430751402E+03  0.90300021884E+02 0.  0.
         23    2    1    2    0    0 -0.33648193800E+02 -0.81123031148E+00 -0.12245873515E+03  0.15589752367E+03  0.90415911373E+02 0.  0.
          5    1    3    3  502    0 -0.26238607041E+02 -0.16310475417E+02 -0.24809468362E+03  0.25005511022E+03  0.47000000000E+01 0. -1.
         -5    1    4    4    0  503  0.23975014653E+02  0.63782419623E+01 -0.64185385559E+01  0.26053232724E+02  0.47000000000E+01 0.  1.
          5    1    4    4  503    0 -0.57623208454E+02 -0.71894722737E+01 -0.11604019660E+03  0.12984429094E+03  0.47000000000E+01 0. -1.
         -5    1    3    3    0  502  0.59886800842E+02  0.17121705729E+02 -0.29777147865E+03  0.30425240380E+03  0.47000000000E+01 0.  1.
<mgrwt>
<rscale>  0 0.96450277E+02</rscale>
<asrwt>0</asrwt>
<pdfrwt beam="1">  1        1 0.10604077E+00 0.96477438E+02</pdfrwt>
<pdfrwt beam="2">  1       -1 0.32215491E-02 0.96477438E+02</pdfrwt>
<totfact> 0.91689048E+03</totfact>
</mgrwt>
</event>
<event>
 8    1  0.2964543E-004  0.2305657E+03  0.7546771E-02  0.1126711E+00
         -1   -1    0    0    0  501 -0.00000000000E+00  0.00000000000E+00  0.30944687136E+03  0.30944687136E+03  0.00000000000E+00 0.  1.
          1   -1    0    0  501    0  0.00000000000E+00 -0.00000000000E+00 -0.20805538984E+03  0.20805538984E+03  0.00000000000E+00 0. -1.
         23    2    1    2    0    0  0.12598682289E+03  0.17180638947E+03  0.16186132088E+03  0.28170843672E+03  0.88150105616E+02 0.  0.
         23    2    1    2    0    0 -0.12598682289E+03 -0.17180638947E+03 -0.60469839357E+02  0.23579382447E+03  0.80944494452E+02 0.  0.
          5    1    3    3  502    0  0.32649909029E+01  0.69151726634E+02  0.61964650905E+02  0.93028648404E+02  0.47000000000E+01 0. -1.
         -5    1    3    3    0  502  0.12272183199E+03  0.10265466283E+03  0.99896669973E+02  0.18867978832E+03  0.47000000000E+01 0.  1.
          5    1    4    4  503    0 -0.11918946311E+03 -0.12343009327E+03 -0.70739664150E+02  0.18565372640E+03  0.47000000000E+01 0. -1.
         -5    1    4    4    0  503 -0.67973597875E+01 -0.48376296194E+02  0.10269824793E+02  0.50140098074E+02  0.47000000000E+01 0.  1.
<mgrwt>
<rscale>  0 0.22989844E+03</rscale>
<asrwt>0</asrwt>
<pdfrwt beam="1">  1        1 0.32008521E-01 0.23056573E+03</pdfrwt>
<pdfrwt beam="2">  1       -1 0.47607211E-01 0.23056573E+03</pdfrwt>
<totfact> 0.62940939E+02</totfact>
</mgrwt>
</event>
<event>
 8    1  0.2964543E-004  0.8992980E+02  0.7546771E-02  0.1303651E+00
          1   -1    0    0  501    0  0.00000000000E+00  0.00000000000E+00  0.38559145248E+03  0.38559145248E+03  0.00000000000E+00 0. -1.
         -1   -1    0    0    0  501 -0.00000000000E+00 -0.00000000000E+00 -0.21514593562E+02  0.21514593562E+02  0.00000000000E+00 0.  1.
         23    2    1    2    0    0  0.89883816280E+00  0.75675531690E+01  0.22182813368E+03  0.23936392756E+03  0.89606323192E+02 0.  0.
         23    2    1    2    0    0 -0.89883816280E+00 -0.75675531690E+01  0.14224872524E+03  0.16774211848E+03  0.88569987627E+02 0.  0.
          5    1    4    4  502    0  0.40166186360E+02 -0.70378838411E+01  0.10242107102E+03  0.11034047365E+03  0.47000000000E+01 0. -1.
         -5    1    4    4    0  502 -0.41065024523E+02 -0.52966932789E+00  0.39827654214E+02  0.57401644827E+02  0.47000000000E+01 0.  1.
          5    1    3    3  503    0  0.20717311368E+02 -0.24731056833E+02  0.17916982289E+03  0.18211190954E+03  0.47000000000E+01 0. -1.
         -5    1    3    3    0  503 -0.19818473205E+02  0.32298610002E+02  0.42658310793E+02  0.57252018025E+02  0.47000000000E+01 0.  1.
<mgrwt>
<rscale>  0 0.89670540E+02</rscale>
<asrwt>0</asrwt>
<pdfrwt beam="1">  1        1 0.59321757E-01 0.89929800E+02</pdfrwt>
<pdfrwt beam="2">  1       -1 0.33099378E-02 0.89929800E+02</pdfrwt>
<totfact> 0.18672234E+04</totfact>
</mgrwt>
</event>
<event>
 8    1  0.2964543E-004  0.9745926E+02  0.7546771E-02  0.1286902E+00
          1   -1    0    0  501    0  0.00000000000E+00  0.00000000000E+00  0.81580220091E+02  0.81580220091E+02  0.00000000000E+00 0. -1.
         -1   -1    0    0    0  501 -0.00000000000E+00 -0.00000000000E+00 -0.38909972417E+03  0.38909972417E+03  0.00000000000E+00 0.  1.
         23    2    1    2    0    0 -0.19791029814E+02  0.26393092781E+02 -0.35117847465E+03  0.36388849634E+03  0.89444041185E+02 0.  0.
         23    2    1    2    0    0  0.19791029814E+02 -0.26393092781E+02  0.43658970573E+02  0.10679144792E+03  0.91706201696E+02 0.  0.
          5    1    4    4  502    0 -0.14916926644E+02  0.14840167650E+02  0.47895952769E+02  0.52524828110E+02  0.47000000000E+01 0. -1.
         -5    1    3    3    0  503  0.29652163014E+01  0.55036446087E+02 -0.25381932670E+03  0.25977710352E+03  0.47000000000E+01 0.  1.
          5    1    3    3  503    0 -0.22756246116E+02 -0.28643353305E+02 -0.97359147946E+02  0.10411139282E+03  0.47000000000E+01 0. -1.
         -5    1    4    4    0  502  0.34707956458E+02 -0.41233260432E+02 -0.42369821962E+01  0.54266619809E+02  0.47000000000E+01 0.  1.
<mgrwt>
<rscale>  0 0.96923472E+02</rscale>
<asrwt>0</asrwt>
<pdfrwt beam="1">  1        1 0.12550803E-01 0.97459261E+02</pdfrwt>
<pdfrwt beam="2">  1       -1 0.59861497E-01 0.97459261E+02</pdfrwt>
<totfact> 0.13370591E+03</totfact>
</mgrwt>
</event>
<event>
 8    1  0.2964543E-004  0.9242374E+02  0.7546771E-02  0.1300766E+00
          1   -1    0    0  501    0  0.00000000000E+00  0.00000000000E+00  0.33024881531E+02  0.33024881531E+02  0.00000000000E+00 0. -1.
         -1   -1    0    0    0  501 -0.00000000000E+00 -0.00000000000E+00 -0.28241633933E+03  0.28241633933E+03  0.00000000000E+00 0.  1.
         23    2    1    2    0    0 -0.19395971844E+02 -0.23165696523E+01 -0.18074398126E+03  0.20031249759E+03  0.84113849691E+02 0.  0.
         23    2    1    2    0    0  0.19395971844E+02  0.23165696523E+01 -0.68647476534E+02  0.11512872327E+03  0.90335910179E+02 0.  0.
          5    1    3    3  502    0 -0.62943825444E+01 -0.27539428329E+02 -0.15475251569E+02  0.32551693895E+02  0.47000000000E+01 0. -1.
         -5    1    4    4    0  503 -0.31915439414E+02 -0.98255479775E+01 -0.80604653637E+01  0.34672723688E+02  0.47000000000E+01 0.  1.
          5    1    4    4  503    0  0.51311411257E+02  0.12142117630E+02 -0.60587011170E+02  0.80455999579E+02  0.47000000000E+01 0. -1.
         -5    1    3    3    0  502 -0.13101589299E+02  0.25222858677E+02 -0.16526872969E+03  0.16776080370E+03  0.47000000000E+01 0.  1.
<mgrwt>
<rscale>  0 0.90866970E+02</rscale>
<asrwt>0</asrwt>
<pdfrwt beam="1">  1        1 0.50807513E-02 0.92423736E+02</pdfrwt>
<pdfrwt beam="2">  1       -1 0.43448665E-01 0.92423736E+02</pdfrwt>
<totfact> 0.79104742E+03</totfact>
</mgrwt>
</event>
<event>
 8    1  0.2964543E-004  0.1130648E+03  0.7546771E-02  0.1255878E+00
         -1   -1    0    0    0  501 -0.00000000000E+00  0.00000000000E+00  0.18655596957E+02  0.18655596957E+02  0.00000000000E+00 0.  1.
          1   -1    0    0  501    0  0.00000000000E+00 -0.00000000000E+00 -0.90651900385E+03  0.90651900385E+03  0.00000000000E+00 0. -1.
         23    2    1    2    0    0 -0.62189519119E+02  0.13617273597E+02 -0.67560613843E+03  0.68468177827E+03  0.91063257043E+02 0.  0.
         23    2    1    2    0    0  0.62189519119E+02 -0.13617273597E+02 -0.21225726847E+03  0.24049282254E+03  0.93438125239E+02 0.  0.
          5    1    3    3  502    0  0.22800941663E+02  0.25971225415E+01 -0.99702950804E+02  0.10241775425E+03  0.47000000000E+01 0. -1.
         -5    1    3    3    0  502 -0.84990460782E+02  0.11020151055E+02 -0.57590318762E+03  0.58226402402E+03  0.47000000000E+01 0.  1.
          5    1    4    4  503    0  0.50674264824E+02 -0.50131458427E+02 -0.16270325185E+03  0.17769491383E+03  0.47000000000E+01 0. -1.
         -5    1    4    4    0  503  0.11515254295E+02  0.36514184831E+02 -0.49554016623E+02  0.62797908714E+02  0.47000000000E+01 0.  1.
<mgrwt>
<rscale>  0 0.11257296E+03</rscale>
<asrwt>0</asrwt>
<pdfrwt beam="1">  1        1 0.13946439E+00 0.11306480E+03</pdfrwt>
<pdfrwt beam="2">  1       -1 0.28700933E-02 0.11306480E+03</pdfrwt>
<totfact> 0.72842243E+03</totfact>
</mgrwt>
</event>
<event>
 8    1  0.2964543E-004  0.9556754E+02  0.7546771E-02  0.1291216E+00
         -1   -1    0    0    0  501 -0.00000000000E+00  0.00000000000E+00  0.27353540396E+02  0.27353540396E+02  0.00000000000E+00 0.  1.
          1   -1    0    0  501    0  0.00000000000E+00 -0.00000000000E+00 -0.69915206988E+03  0.69915206988E+03  0.00000000000E+00 0. -1.
         23    2    1    2    0    0  0.16421954617E+02  0.12241616723E+02 -0.59940320550E+03  0.60661300243E+03  0.90970292845E+02 0.  0.
         23    2    1    2    0    0 -0.16421954617E+02 -0.12241616723E+02 -0.72395323981E+02  0.11989260784E+03  0.93346755207E+02 0.  0.
          5    1    4    4  502    0  0.19763572354E+02  0.22727413740E+02  0.13243456376E+01  0.30511932402E+02  0.47000000000E+01 0. -1.
         -5    1    4    4    0  502 -0.36185526971E+02 -0.34969030464E+02 -0.73719669619E+02  0.89380675442E+02  0.47000000000E+01 0.  1.
          5    1    3    3  503    0 -0.35917345500E+02 -0.16455713106E+01 -0.31339776157E+03  0.31548852684E+03  0.47000000000E+01 0. -1.
         -5    1    3    3    0  503  0.52339300117E+02  0.13887188034E+02 -0.28600544393E+03  0.29112447559E+03  0.47000000000E+01 0.  1.
<mgrwt>
<rscale>  0 0.94982222E+02</rscale>
<asrwt>0</asrwt>
<pdfrwt beam="1">  1        1 0.10756185E+00 0.95567539E+02</pdfrwt>
<pdfrwt beam="2">  1       -1 0.42082374E-02 0.95567539E+02</pdfrwt>
<totfact> 0.60952563E+03</totfact>
</mgrwt>
</event>
<event>
 8    1  0.2964543E-004  0.8748526E+02  0.7546771E-02  0.1310876E+00
         -1   -1    0    0    0  501 -0.00000000000E+00  0.00000000000E+00  0.41108661925E+02  0.41108661925E+02  0.00000000000E+00 0.  1.
          1   -1    0    0  501    0  0.00000000000E+00 -0.00000000000E+00 -0.29496182419E+03  0.29496182419E+03  0.00000000000E+00 0. -1.
         23    2    1    2    0    0 -0.32952310162E+00  0.82449267383E+01 -0.23396052880E+02  0.90559629707E+02  0.87095257276E+02 0.  0.
         23    2    1    2    0    0  0.32952310162E+00 -0.82449267383E+01 -0.23045710938E+03  0.24551085640E+03  0.84243776893E+02 0.  0.
          5    1    3    3  502    0 -0.16147129519E+02  0.33943424386E+02  0.15651683776E+02  0.40987206001E+02  0.47000000000E+01 0. -1.
         -5    1    3    3    0  502  0.15817606418E+02 -0.25698497647E+02 -0.39047736656E+02  0.49572423706E+02  0.47000000000E+01 0.  1.
          5    1    4    4  503    0 -0.10174287088E+02 -0.43979607617E+02 -0.10117432630E+03  0.11088758409E+03  0.47000000000E+01 0. -1.
         -5    1    4    4    0  503  0.10503810190E+02  0.35734680879E+02 -0.12928278308E+03  0.13462327231E+03  0.47000000000E+01 0.  1.
<mgrwt>
<rscale>  0 0.86766877E+02</rscale>
<asrwt>0</asrwt>
<pdfrwt beam="1">  1        1 0.45378741E-01 0.87485263E+02</pdfrwt>
<pdfrwt beam="2">  1       -1 0.63244097E-02 0.87485263E+02</pdfrwt>
<totfact> 0.10063155E+04</totfact>
</mgrwt>
</event>
<event>
 8    1  0.2964543E-004  0.1022304E+03  0.7546771E-02  0.1278781E+00
         -1   -1    0    0    0  501 -0.00000000000E+00  0.00000000000E+00  0.45060531760E+02  0.45060531760E+02  0.00000000000E+00 0.  1.
          1   -1    0    0  501    0  0.00000000000E+00 -0.00000000000E+00 -0.24708289208E+03  0.24708289208E+03  0.00000000000E+00 0. -1.
         23    2    1    2    0    0  0.24819953958E+02  0.15039113729E+02 -0.14779856344E+03  0.17642271369E+03  0.91860511072E+02 0.  0.
         23    2    1    2    0    0 -0.24819953958E+02 -0.15039113729E+02 -0.54223796877E+02  0.11572071015E+03  0.98024780301E+02 0.  0.
          5    1    3    3  502    0 -0.10336979450E+02 -0.32363560007E+02 -0.34839823570E+02  0.48889226491E+02  0.47000000000E+01 0. -1.
         -5    1    4    4    0  503 -0.44357448323E+02  0.94908938092E+01  0.76054945685E+01  0.46234119811E+02  0.47000000000E+01 0.  1.
          5    1    4    4  503    0  0.19537494366E+02 -0.24530007538E+02 -0.61829291445E+02  0.69486590336E+02  0.47000000000E+01 0. -1.
         -5    1    3    3    0  502  0.35156933408E+02  0.47402673736E+02 -0.11295873987E+03  0.12753348720E+03  0.47000000000E+01 0.  1.
<mgrwt>
<rscale>  0 0.10072376E+03</rscale>
<asrwt>0</asrwt>
<pdfrwt beam="1">  1        1 0.38012752E-01 0.10223044E+03</pdfrwt>
<pdfrwt beam="2">  1       -1 0.69323896E-02 0.10223044E+03</pdfrwt>
<totfact> 0.11055568E+04</totfact>
</mgrwt>
</event>
<event>
 8    1  0.2964543E-004  0.1754812E+03  0.7546771E-02  0.1172486E+00
          2   -1    0    0  501    0  0.00000000000E+00  0.00000000000E+00  0.64961141989E+03  0.64961141989E+03  0.00000000000E+00 0. -1.
         -2   -1    0    0    0  501 -0.00000000000E+00 -0.00000000000E+00 -0.47422033052E+02  0.47422033052E+02  0.00000000000E+00 0.  1.
         23    2    1    2    0    0  0.28653263101E+02  0.14644858822E+03  0.32836375759E+03  0.37231225632E+03  0.92333419884E+02 0.  0.
         23    2    1    2    0    0 -0.28653263101E+02 -0.14644858822E+03  0.27382562924E+03  0.32472119662E+03  0.90527243544E+02 0.  0.
          5    1    3    3  502    0 -0.19141582124E+02  0.11644839589E+03  0.20534237297E+03  0.23688437941E+03  0.47000000000E+01 0. -1.
         -5    1    4    4    0  503  0.28799329302E+01 -0.78132790783E+02  0.62048433851E+02  0.99925598084E+02  0.47000000000E+01 0.  1.
          5    1    4    4  503    0 -0.31533196031E+02 -0.68315797441E+02  0.21177719539E+03  0.22479559853E+03  0.47000000000E+01 0. -1.
         -5    1    3    3    0  502  0.47794845225E+02  0.30000192332E+02  0.12302138462E+03  0.13542787691E+03  0.47000000000E+01 0.  1.
<mgrwt>
<rscale>  0 0.17524484E+03</rscale>
<asrwt>0</asrwt>
<pdfrwt beam="1">  1        2 0.99940212E-01 0.17548122E+03</pdfrwt>
<pdfrwt beam="2">  1       -2 0.72956979E-02 0.17548122E+03</pdfrwt>
<totfact> 0.49143082E+03</totfact>
</mgrwt>
</event>
<event>
 8    1  0.2964543E-004  0.1073313E+03  0.7546771E-02  0.1272782E+00
         -1   -1    0    0    0  501 -0.00000000000E+00  0.00000000000E+00  0.25719674797E+03  0.25719674797E+03  0.00000000000E+00 0.  1.
          1   -1    0    0  501    0  0.00000000000E+00 -0.00000000000E+00 -0.42733253552E+02  0.42733253552E+02  0.00000000000E+00 0. -1.
         23    2    1    2    0    0  0.24131060528E+02  0.50155309677E+01  0.15733628847E+03  0.19045923303E+03  0.10446314251E+03 0.  0.
         23    2    1    2    0    0 -0.24131060528E+02 -0.50155309677E+01  0.57127205950E+02  0.10947076850E+03  0.90071459754E+02 0.  0.
          5    1    3    3  502    0 -0.15623559887E+02  0.46703793445E+02  0.75831508037E+02  0.90541965723E+02  0.47000000000E+01 0. -1.
         -5    1    4    4    0  503  0.31670910452E+02 -0.10421318743E+02  0.36215938711E+02  0.49450325276E+02  0.47000000000E+01 0.  1.
          5    1    4    4  503    0 -0.55801970980E+02  0.54057877750E+01  0.20911267239E+02  0.60020443219E+02  0.47000000000E+01 0. -1.
         -5    1    3    3    0  502  0.39754620414E+02 -0.41688262478E+02  0.81504780433E+02  0.99917267307E+02  0.47000000000E+01 0.  1.
<mgrwt>
<rscale>  0 0.10366006E+03</rscale>
<asrwt>0</asrwt>
<pdfrwt beam="1">  1        1 0.65743469E-02 0.10733132E+03</pdfrwt>
<pdfrwt beam="2">  1       -1 0.39568729E-01 0.10733132E+03</pdfrwt>
<totfact> 0.66703377E+03</totfact>
</mgrwt>
</event>
<event>
 8    1  0.2964543E-004  0.2156404E+03  0.7546771E-02  0.1137887E+00
         -3   -1    0    0    0  501 -0.00000000000E+00  0.00000000000E+00  0.93358646011E+02  0.93358646011E+02  0.00000000000E+00 0.  1.
          3   -1    0    0  501    0  0.00000000000E+00 -0.00000000000E+00 -0.67934153547E+03  0.67934153547E+03  0.00000000000E+00 0. -1.
         23    2    1    2    0    0  0.18755129159E+03 -0.45661997849E+02 -0.49534030173E+03  0.53878380728E+03  0.87552678132E+02 0.  0.
         23    2    1    2    0    0 -0.18755129159E+03  0.45661997849E+02 -0.90642587731E+02  0.23391637420E+03  0.96126408354E+02 0.  0.
          5    1    3    3  502    0  0.17068883711E+03 -0.57576771391E+02 -0.36863618850E+03  0.41032242589E+03  0.47000000000E+01 0. -1.
         -5    1    4    4    0  503 -0.12236613045E+03  0.13262730870E+02 -0.10221381293E+03  0.16005974967E+03  0.47000000000E+01 0.  1.
          5    1    4    4  503    0 -0.65185161143E+02  0.32399266979E+02  0.11571225200E+02  0.73856624528E+02  0.47000000000E+01 0. -1.
         -5    1    3    3    0  502  0.16862454482E+02  0.11914773543E+02 -0.12670411323E+03  0.12846138140E+03  0.47000000000E+01 0.  1.
<mgrwt>
<rscale>  0 0.21471373E+03</rscale>
<asrwt>0</asrwt>
<pdfrwt beam="1">  1        3 0.10451408E+00 0.21564042E+03</pdfrwt>
<pdfrwt beam="2">  1       -3 0.14362869E-01 0.21564042E+03</pdfrwt>
<totfact> 0.80520822E+01</totfact>
</mgrwt>
</event>
<event>
 8    1  0.2964543E-004  0.1103641E+03  0.7546771E-02  0.1260505E+00
         -1   -1    0    0    0  501 -0.00000000000E+00  0.00000000000E+00  0.85226177376E+03  0.85226177376E+03  0.00000000000E+00 0.  1.
          1   -1    0    0  501    0  0.00000000000E+00 -0.00000000000E+00 -0.19922189302E+02  0.19922189302E+02  0.00000000000E+00 0. -1.
         23    2    1    2    0    0 -0.41287561332E+02  0.43827909236E+02  0.17911398287E+03  0.20970081688E+03  0.90923403964E+02 0.  0.
         23    2    1    2    0    0  0.41287561332E+02 -0.43827909236E+02  0.65322560158E+03  0.66248314618E+03  0.92491535115E+02 0.  0.
          5    1    3    3  502    0  0.12709552600E+02  0.29497561541E+02  0.14042108989E+02  0.35368201665E+02  0.47000000000E+01 0. -1.
         -5    1    3    3    0  502 -0.53997113932E+02  0.14330347695E+02  0.16507187388E+03  0.17433261521E+03  0.47000000000E+01 0.  1.
          5    1    4    4  503    0  0.65144254044E+02 -0.63783452541E+01  0.40168328892E+03  0.40700861381E+03  0.47000000000E+01 0. -1.
         -5    1    4    4    0  503 -0.23856692712E+02 -0.37449563982E+02  0.25154231266E+03  0.25547453237E+03  0.47000000000E+01 0.  1.
<mgrwt>
<rscale>  0 0.11003491E+03</rscale>
<asrwt>0</asrwt>
<pdfrwt beam="1">  1        1 0.30649529E-02 0.11036409E+03</pdfrwt>
<pdfrwt beam="2">  1       -1 0.13111717E+00 0.11036409E+03</pdfrwt>
<totfact> 0.16975392E+03</totfact>
</mgrwt>
</event>
<event>
 8    1  0.2964543E-004  0.1745519E+03  0.7546771E-02  0.1173515E+00
          1   -1    0    0  501    0  0.00000000000E+00  0.00000000000E+00  0.14736424293E+03  0.14736424293E+03  0.00000000000E+00 0. -1.
         -1   -1    0    0    0  501 -0.00000000000E+00 -0.00000000000E+00 -0.20763784151E+03  0.20763784151E+03  0.00000000000E+00 0.  1.
         23    2    1    2    0    0  0.53561386152E+02 -0.13843759050E+03 -0.11017280156E+02  0.17489923106E+03  0.91839926044E+02 0.  0.
         23    2    1    2    0    0 -0.53561386152E+02  0.13843759050E+03 -0.49256318426E+02  0.18010285338E+03  0.89314412836E+02 0.  0.
          5    1    3    3  502    0  0.18611794657E+02 -0.11510677652E+03  0.25012761108E+02  0.11934696109E+03  0.47000000000E+01 0. -1.
         -5    1    3    3    0  502  0.34949591495E+02 -0.23330813973E+02 -0.36030041264E+02  0.55552269979E+02  0.47000000000E+01 0.  1.
          5    1    4    4  503    0 -0.66286917535E+02  0.48477133535E+02 -0.23889878632E+02  0.85655147032E+02  0.47000000000E+01 0. -1.
         -5    1    4    4    0  503  0.12725531383E+02  0.89960456961E+02 -0.25366439794E+02  0.94447706343E+02  0.47000000000E+01 0.  1.
<mgrwt>
<rscale>  0 0.17422208E+03</rscale>
<asrwt>0</asrwt>
<pdfrwt beam="1">  1        1 0.22671422E-01 0.17455189E+03</pdfrwt>
<pdfrwt beam="2">  1       -1 0.31944283E-01 0.17455189E+03</pdfrwt>
<totfact> 0.19586089E+03</totfact>
</mgrwt>
</event>
<event>
 8    1  0.2964543E-004  0.9589217E+02  0.7546771E-02  0.1293157E+00
          1   -1    0    0  501    0  0.00000000000E+00  0.00000000000E+00  0.35405195725E+03  0.35405195725E+03  0.00000000000E+00 0. -1.
         -1   -1    0    0    0  501 -0.00000000000E+00 -0.00000000000E+00 -0.24398148383E+02  0.24398148383E+02  0.00000000000E+00 0.  1.
         23    2    1    2    0    0 -0.42261887518E+02 -0.45394654585E+01  0.15157762905E+03  0.17936299773E+03  0.85957160512E+02 0.  0.
         23    2    1    2    0    0  0.42261887518E+02  0.45394654585E+01  0.17807617981E+03  0.19908710790E+03  0.78216857720E+02 0.  0.
          5    1    4    4  502    0  0.10611537213E+02 -0.35740497829E+02  0.75239104462E+02  0.84101134043E+02  0.47000000000E+01 0. -1.
         -5    1    3    3    0  503 -0.59734470654E+02 -0.16987460863E+02  0.64912185107E+02  0.89958115733E+02  0.47000000000E+01 0.  1.
          5    1    3    3  503    0  0.17472583136E+02  0.12447995404E+02  0.86665443947E+02  0.89404882001E+02  0.47000000000E+01 0. -1.
         -5    1    4    4    0  502  0.31650350305E+02  0.40279963288E+02  0.10283707535E+03  0.11498597385E+03  0.47000000000E+01 0.  1.
<mgrwt>
<rscale>  0 0.94125907E+02</rscale>
<asrwt>0</asrwt>
<pdfrwt beam="1">  1        1 0.54469528E-01 0.95892165E+02</pdfrwt>
<pdfrwt beam="2">  1       -1 0.37535615E-02 0.95892165E+02</pdfrwt>
<totfact> 0.17406142E+04</totfact>
</mgrwt>
</event>
<event>
 8    1  0.2964543E-004  0.1581385E+03  0.7546771E-02  0.1190979E+00
          1   -1    0    0  501    0  0.00000000000E+00  0.00000000000E+00  0.70749206334E+03  0.70749206334E+03  0.00000000000E+00 0. -1.
         -1   -1    0    0    0  501 -0.00000000000E+00 -0.00000000000E+00 -0.51192076048E+02  0.51192076048E+02  0.00000000000E+00 0.  1.
         23    2    1    2    0    0 -0.12045296654E+03 -0.45866025744E+02  0.11666480053E+03  0.19651576469E+03  0.91625109143E+02 0.  0.
         23    2    1    2    0    0  0.12045296654E+03  0.45866025744E+02  0.53963518677E+03  0.56216837470E+03  0.90634084368E+02 0.  0.
          5    1    3    3  502    0 -0.65300635517E+02 -0.49595689510E+01  0.10902101012E+03  0.12726523866E+03  0.47000000000E+01 0. -1.
         -5    1    4    4    0  503  0.48738972467E+02 -0.21958142726E+02  0.12712960029E+03  0.13799156764E+03  0.47000000000E+01 0.  1.
          5    1    4    4  503    0  0.71713994069E+02  0.67824168469E+02  0.41250558648E+03  0.42417680706E+03  0.47000000000E+01 0. -1.
         -5    1    3    3    0  502 -0.55152331019E+02 -0.40906456793E+02  0.76437904068E+01  0.69250526034E+02  0.47000000000E+01 0.  1.
<mgrwt>
<rscale>  0 0.15799523E+03</rscale>
<asrwt>0</asrwt>
<pdfrwt beam="1">  1        1 0.10884493E+00 0.15813845E+03</pdfrwt>
<pdfrwt beam="2">  1       -1 0.78757045E-02 0.15813845E+03</pdfrwt>
<totfact> 0.24155631E+03</totfact>
</mgrwt>
</event>
<event>
 8    1  0.2964543E-004  0.1055774E+03  0.7546771E-02  0.1273789E+00
         -1   -1    0    0    0  501 -0.00000000000E+00  0.00000000000E+00  0.65972106834E+02  0.65972106834E+02  0.00000000000E+00 0.  1.
          1   -1    0    0  501    0  0.00000000000E+00 -0.00000000000E+00 -0.16358199388E+03  0.16358199388E+03  0.00000000000E+00 0. -1.
         23    2    1    2    0    0 -0.38022038777E+01  0.66968372162E+01 -0.19413411662E+02  0.98171895535E+02  0.95924637802E+02 0.  0.
         23    2    1    2    0    0  0.38022038777E+01 -0.66968372162E+01 -0.78196475383E+02  0.13138220518E+03  0.10529620455E+03 0.  0.
          5    1    4    4  502    0  0.56128954177E+01 -0.53626189192E+02 -0.23137656898E+02  0.58861820640E+02  0.47000000000E+01 0. -1.
         -5    1    3    3    0  503 -0.10691180083E+02  0.34206199379E+02  0.25930387045E+02  0.44484158752E+02  0.47000000000E+01 0.  1.
          5    1    3    3  503    0  0.68889762056E+01 -0.27509362163E+02 -0.45343798707E+02  0.53687736783E+02  0.47000000000E+01 0. -1.
         -5    1    4    4    0  502 -0.18106915400E+01  0.46929351976E+02 -0.55058818485E+02  0.72520384539E+02  0.47000000000E+01 0.  1.
<mgrwt>
<rscale>  0 0.10315960E+03</rscale>
<asrwt>0</asrwt>
<pdfrwt beam="1">  1        1 0.25166460E-01 0.10557744E+03</pdfrwt>
<pdfrwt beam="2">  1       -1 0.10149555E-01 0.10557744E+03</pdfrwt>
<totfact> 0.10400885E+04</totfact>
</mgrwt>
</event>
<event>
 8    1  0.2964543E-004  0.1183139E+03  0.7546771E-02  0.1246044E+00
          1   -1    0    0  501    0  0.00000000000E+00  0.00000000000E+00  0.73031561089E+03  0.73031561089E+03  0.00000000000E+00 0. -1.
         -1   -1    0    0    0  501 -0.00000000000E+00 -0.00000000000E+00 -0.39878226545E+02  0.39878226545E+02  0.00000000000E+00 0.  1.
         23    2    1    2    0    0  0.71489915052E+02  0.27781126092E+02  0.62333559203E+03  0.63446469234E+03  0.90086550654E+02 0.  0.
         23    2    1    2    0    0 -0.71489915052E+02 -0.27781126092E+02  0.67101792319E+02  0.13572914510E+03  0.89650161052E+02 0.  0.
          5    1    4    4  502    0 -0.28115440750E+02  0.26367678430E+02  0.51437492486E+02  0.64448724639E+02  0.47000000000E+01 0. -1.
         -5    1    3    3    0  503 -0.11305054336E+02  0.32736363012E+02  0.20537027870E+03  0.20832310263E+03  0.47000000000E+01 0.  1.
          5    1    3    3  503    0  0.82794969388E+02 -0.49552369197E+01  0.41796531333E+03  0.42614158970E+03  0.47000000000E+01 0. -1.
         -5    1    4    4    0  502 -0.43374474302E+02 -0.54148804523E+02  0.15664299833E+02  0.71280420463E+02  0.47000000000E+01 0.  1.
<mgrwt>
<rscale>  0 0.11823086E+03</rscale>
<asrwt>0</asrwt>
<pdfrwt beam="1">  1        1 0.11235624E+00 0.11831393E+03</pdfrwt>
<pdfrwt beam="2">  1       -1 0.61351123E-02 0.11831393E+03</pdfrwt>
<totfact> 0.33246618E+03</totfact>
</mgrwt>
</event>
<event>
 8    1  0.2964543E-004  0.1125646E+03  0.7546771E-02  0.1259134E+00
         -1   -1    0    0    0  501 -0.00000000000E+00  0.00000000000E+00  0.59850378892E+02  0.59850378892E+02  0.00000000000E+00 0.  1.
          1   -1    0    0  501    0  0.00000000000E+00 -0.00000000000E+00 -0.33882801841E+03  0.33882801841E+03  0.00000000000E+00 0. -1.
         23    2    1    2    0    0  0.20730077208E+02  0.51758219810E+02 -0.13993112995E+02  0.11343106134E+03  0.97786241598E+02 0.  0.
         23    2    1    2    0    0 -0.20730077208E+02 -0.51758219810E+02 -0.26498452652E+03  0.28524733596E+03  0.89669359092E+02 0.  0.
          5    1    4    4  502    0  0.10809142082E+02 -0.23761718337E+02 -0.12680222929E+02  0.29399572521E+02  0.47000000000E+01 0.  1.
         -5    1    3    3    0  503 -0.26573637938E+02 -0.14654097739E+02 -0.67275290966E+01  0.31436451160E+02  0.47000000000E+01 0.  1.
          5    1    3    3  503    0  0.47303715145E+02  0.66412317549E+02 -0.72655838984E+01  0.81994610177E+02  0.47000000000E+01 0. -1.
         -5    1    4    4    0  502 -0.31539219289E+02 -0.27996501473E+02 -0.25230430359E+03  0.25584776344E+03  0.47000000000E+01 0. -1.
<mgrwt>
<rscale>  0 0.11077893E+03</rscale>
<asrwt>0</asrwt>
<pdfrwt beam="1">  1        1 0.52127388E-01 0.11256464E+03</pdfrwt>
<pdfrwt beam="2">  1       -1 0.92077505E-02 0.11256464E+03</pdfrwt>
<totfact> 0.49366503E+03</totfact>
</mgrwt>
</event>
<event>
 8    1  0.2964543E-004  0.9928494E+02  0.7546771E-02  0.1282329E+00
         -2   -1    0    0    0  501 -0.00000000000E+00  0.00000000000E+00  0.36363293568E+02  0.36363293568E+02  0.00000000000E+00 0.  1.
          2   -1    0    0  501    0  0.00000000000E+00 -0.00000000000E+00 -0.86410030569E+03  0.86410030569E+03  0.00000000000E+00 0. -1.
         23    2    1    2    0    0 -0.69148447691E+01 -0.37382278129E+02 -0.78832393255E+03  0.79455152206E+03  0.91718312100E+02 0.  0.
         23    2    1    2    0    0  0.69148447691E+01  0.37382278129E+02 -0.39413079573E+02  0.10591207720E+03  0.90657197505E+02 0.  0.
          5    1    3    3  502    0 -0.34923877883E+02 -0.53893517889E+02 -0.59280572091E+03  0.59629263056E+03  0.47000000000E+01 0. -1.
         -5    1    3    3    0  502  0.28009033114E+02  0.16511239759E+02 -0.19551821164E+03  0.19825889150E+03  0.47000000000E+01 0.  1.
          5    1    4    4  503    0 -0.23688757155E+02  0.33839160966E+02  0.14172876488E+02  0.43922732820E+02  0.47000000000E+01 0. -1.
         -5    1    4    4    0  503  0.30603601924E+02  0.35431171633E+01 -0.53585956061E+02  0.61989344382E+02  0.47000000000E+01 0.  1.
<mgrwt>
<rscale>  0 0.99039174E+02</rscale>
<asrwt>0</asrwt>
<pdfrwt beam="1">  1        2 0.13293850E+00 0.99284936E+02</pdfrwt>
<pdfrwt beam="2">  1       -2 0.55943530E-02 0.99284936E+02</pdfrwt>
<totfact> 0.50719992E+03</totfact>
</mgrwt>
</event>
<event>
 8    1  0.2964543E-004  0.9375808E+02  0.7546771E-02  0.1295257E+00
         -1   -1    0    0    0  501 -0.00000000000E+00  0.00000000000E+00  0.74025568278E+02  0.74025568278E+02  0.00000000000E+00 0.  1.
          1   -1    0    0  501    0  0.00000000000E+00 -0.00000000000E+00 -0.63961800288E+03  0.63961800288E+03  0.00000000000E+00 0. -1.
         23    2    1    2    0    0  0.99916995499E+01  0.24689453917E+02  0.40642631075E+02  0.10020120847E+03  0.87630220373E+02 0.  0.
         23    2    1    2    0    0 -0.99916995499E+01 -0.24689453917E+02 -0.60623506568E+03  0.61344236269E+03  0.89895351901E+02 0.  0.
          5    1    3    3  502    0 -0.21068524261E+02 -0.21392567634E+02 -0.13001903209E+01  0.30418829027E+02  0.47000000000E+01 0. -1.
         -5    1    3    3    0  502  0.31060223811E+02  0.46082021552E+02  0.41942821396E+02  0.69782379439E+02  0.47000000000E+01 0.  1.
          5    1    4    4  503    0 -0.37039185972E+02 -0.45223777045E+02 -0.42051982419E+03  0.42458933553E+03  0.47000000000E+01 0. -1.
         -5    1    4    4    0  503  0.27047486422E+02  0.20534323127E+02 -0.18571524148E+03  0.18885302716E+03  0.47000000000E+01 0.  1.
<mgrwt>
<rscale>  0 0.93210921E+02</rscale>
<asrwt>0</asrwt>
<pdfrwt beam="1">  1        1 0.98402773E-01 0.93758080E+02</pdfrwt>
<pdfrwt beam="2">  1       -1 0.11388549E-01 0.93758080E+02</pdfrwt>
<totfact> 0.15695985E+03</totfact>
</mgrwt>
</event>
<event>
 8    1  0.2964543E-004  0.1090008E+03  0.7546771E-02  0.1263715E+00
         -2   -1    0    0    0  501 -0.00000000000E+00  0.00000000000E+00  0.89475942864E+02  0.89475942864E+02  0.00000000000E+00 0.  1.
          2   -1    0    0  501    0  0.00000000000E+00 -0.00000000000E+00 -0.13028553480E+03  0.13028553480E+03  0.00000000000E+00 0. -1.
         23    2    1    2    0    0 -0.21320124532E+02 -0.50948657340E+02 -0.28606800753E+02  0.11007970752E+03  0.90823342611E+02 0.  0.
         23    2    1    2    0    0  0.21320124532E+02  0.50948657340E+02 -0.12202791179E+02  0.10968177014E+03  0.93972704517E+02 0.  0.
          5    1    3    3  502    0  0.28397496797E+02  0.68386925626E+01 -0.40978897980E+01  0.29867511465E+02  0.47000000000E+01 0. -1.
         -5    1    3    3    0  502 -0.49717621329E+02 -0.57787349902E+02 -0.24508910955E+02  0.80212196053E+02  0.47000000000E+01 0.  1.
          5    1    4    4  503    0  0.16792389145E+02  0.76363473286E+02  0.46990837766E+01  0.78469967337E+02  0.47000000000E+01 0. -1.
         -5    1    4    4    0  503  0.45277353867E+01 -0.25414815947E+02 -0.16901874956E+02  0.31211802805E+02  0.47000000000E+01 0.  1.
<mgrwt>
<rscale>  0 0.10831867E+03</rscale>
<asrwt>0</asrwt>
<pdfrwt beam="1">  1        2 0.20043928E-01 0.10900084E+03</pdfrwt>
<pdfrwt beam="2">  1       -2 0.13765530E-01 0.10900084E+03</pdfrwt>
<totfact> 0.10091920E+04</totfact>
</mgrwt>
</event>
<event>
 7    1  0.2964543E-004  0.1786637E+03  0.7546771E-02  0.1184371E+00
          4   -1    0    0  501    0  0.00000000000E+00  0.00000000000E+00  0.57175749739E+02  0.57175749739E+02  0.00000000000E+00 0. -1.
         -4   -1    0    0    0  501 -0.00000000000E+00 -0.00000000000E+00 -0.46828201921E+03  0.46828201921E+03  0.00000000000E+00 0.  1.
         23    2    1    2    0    0  0.66256590331E+01 -0.89750882911E+02 -0.81341627425E+02  0.15040387283E+03  0.88914252343E+02 0.  0.
          5    1    1    2  502    0  0.18795505153E+02 -0.37981582493E+02 -0.45589555902E+02  0.62420903790E+02  0.47000000000E+01 0. -1.
         -5    1    1    2    0  502 -0.25421164187E+02  0.12773246540E+03 -0.28417508614E+03  0.31263299233E+03  0.47000000000E+01 0.  1.
          5    1    3    3  503    0  0.36898637185E+02 -0.65970924316E+01 -0.21401048301E+02  0.43418036840E+02  0.47000000000E+01 0. -1.
         -5    1    3    3    0  503 -0.30272978151E+02 -0.83153790479E+02 -0.59940579124E+02  0.10698583599E+03  0.47000000000E+01 0.  1.
<mgrwt>
<rscale>  0 0.16389235E+03</rscale>
<asrwt>0</asrwt>
<pdfrwt beam="1">  1        4 0.87962690E-02 0.17866367E+03</pdfrwt>
<pdfrwt beam="2">  1       -4 0.72043389E-01 0.17866367E+03</pdfrwt>
<totfact> 0.29481543E+02</totfact>
</mgrwt>
</event>
<event>
 8    1  0.2964543E-004  0.1160259E+03  0.7546771E-02  0.1250232E+00
         -3   -1    0    0    0  501 -0.00000000000E+00  0.00000000000E+00  0.43911797735E+02  0.43911797735E+02  0.00000000000E+00 0.  1.
          3   -1    0    0  501    0  0.00000000000E+00 -0.00000000000E+00 -0.30537414607E+03  0.30537414607E+03  0.00000000000E+00 0. -1.
         23    2    1    2    0    0 -0.61494720410E+02 -0.34298107468E+02 -0.14211741609E+03  0.18283707155E+03  0.90961936875E+02 0.  0.
         23    2    1    2    0    0  0.61494720410E+02  0.34298107468E+02 -0.11934493224E+03  0.16644887226E+03  0.92217424656E+02 0.  0.
          5    1    3    3  502    0 -0.45099965903E+02  0.61672095751E+00 -0.13617526427E+03  0.14352762755E+03  0.47000000000E+01 0. -1.
         -5    1    3    3    0  502 -0.16394754507E+02 -0.34914828425E+02 -0.59421518214E+01  0.39309444000E+02  0.47000000000E+01 0.  1.
          5    1    4    4  503    0 -0.13948245430E+02  0.19753536772E+02 -0.24085835069E+00  0.24635417154E+02  0.47000000000E+01 0. -1.
         -5    1    4    4    0  503  0.75442965841E+02  0.14544570696E+02 -0.11910407389E+03  0.14181345510E+03  0.47000000000E+01 0.  1.
<mgrwt>
<rscale>  0 0.11577628E+03</rscale>
<asrwt>0</asrwt>
<pdfrwt beam="1">  1        3 0.46980638E-01 0.11602592E+03</pdfrwt>
<pdfrwt beam="2">  1       -3 0.67556611E-02 0.11602592E+03</pdfrwt>
<totfact> 0.14241657E+03</totfact>
</mgrwt>
</event>
<event>
 8    1  0.2964543E-004  0.9539884E+02  0.7546771E-02  0.1290888E+00
          1   -1    0    0  501    0  0.00000000000E+00  0.00000000000E+00  0.37851564210E+03  0.37851564210E+03  0.00000000000E+00 0. -1.
         -1   -1    0    0    0  501 -0.00000000000E+00 -0.00000000000E+00 -0.23951298186E+02  0.23951298186E+02  0.00000000000E+00 0.  1.
         23    2    1    2    0    0 -0.21146369267E+02 -0.53837519722E+01  0.16091235463E+03  0.18706609564E+03  0.92869718141E+02 0.  0.
         23    2    1    2    0    0  0.21146369267E+02  0.53837519722E+01  0.19365198929E+03  0.21540084465E+03  0.91762068425E+02 0.  0.
          5    1    4    4  502    0  0.13787762007E+01 -0.34229407714E+02  0.14660830670E+03  0.15063080352E+03  0.47000000000E+01 0. -1.
         -5    1    4    4    0  502  0.19767593066E+02  0.39613159686E+02  0.47043682584E+02  0.64770041123E+02  0.47000000000E+01 0.  1.
          5    1    3    3  503    0  0.18326651265E+02  0.30804870017E+02  0.97199135800E+02  0.10370423407E+03  0.47000000000E+01 0.  1.
         -5    1    3    3    0  503 -0.39473020532E+02 -0.36188621989E+02  0.63713218831E+02  0.83361861574E+02  0.47000000000E+01 0. -1.
<mgrwt>
<rscale>  0 0.95128202E+02</rscale>
<asrwt>0</asrwt>
<pdfrwt beam="1">  1        1 0.58233172E-01 0.95398838E+02</pdfrwt>
<pdfrwt beam="2">  1       -1 0.36848154E-02 0.95398838E+02</pdfrwt>
<totfact> 0.16453787E+04</totfact>
</mgrwt>
</event>
<event>
 8    1  0.2964543E-004  0.3034116E+03  0.7546771E-02  0.1083632E+00
         -1   -1    0    0    0  501 -0.00000000000E+00  0.00000000000E+00  0.25123254901E+03  0.25123254901E+03  0.00000000000E+00 0.  1.
          1   -1    0    0  501    0  0.00000000000E+00 -0.00000000000E+00 -0.55418626365E+03  0.55418626365E+03  0.00000000000E+00 0. -1.
         23    2    1    2    0    0 -0.14853912143E+03  0.24750128683E+03  0.83555724864E+02  0.31404507555E+03  0.91224956810E+02 0.  0.
         23    2    1    2    0    0  0.14853912143E+03 -0.24750128683E+03 -0.38650943951E+03  0.49137373711E+03  0.93476441505E+02 0.  0.
          5    1    3    3  502    0 -0.64374265194E+02  0.96377872628E+02 -0.11583864616E+02  0.11657193603E+03  0.47000000000E+01 0. -1.
         -5    1    3    3    0  502 -0.84164856232E+02  0.15112341420E+03  0.95139589480E+02  0.19747313951E+03  0.47000000000E+01 0.  1.
          5    1    4    4  503    0  0.13655087664E+03 -0.22190895043E+03 -0.38192227384E+03  0.46235964081E+03  0.47000000000E+01 0. -1.
         -5    1    4    4    0  503  0.11988244781E+02 -0.25592336395E+02 -0.45871656649E+01  0.29014096297E+02  0.47000000000E+01 0.  1.
<mgrwt>
<rscale>  0 0.30323994E+03</rscale>
<asrwt>0</asrwt>
<pdfrwt beam="1">  1        1 0.85259425E-01 0.30341161E+03</pdfrwt>
<pdfrwt beam="2">  1       -1 0.38651161E-01 0.30341161E+03</pdfrwt>
<totfact> 0.25917443E+02</totfact>
</mgrwt>
</event>
<event>
 8    1  0.2964543E-004  0.1303242E+03  0.7546771E-02  0.1227965E+00
          1   -1    0    0  501    0  0.00000000000E+00  0.00000000000E+00  0.74521986504E+02  0.74521986504E+02  0.00000000000E+00 0. -1.
         -1   -1    0    0    0  501 -0.00000000000E+00 -0.00000000000E+00 -0.27588270813E+03  0.27588270813E+03  0.00000000000E+00 0.  1.
         23    2    1    2    0    0 -0.91807873924E+02 -0.29016513198E+01 -0.17799747190E+03  0.22060713307E+03  0.92451619038E+02 0.  0.
         23    2    1    2    0    0  0.91807873924E+02  0.29016513198E+01 -0.23363249721E+02  0.12979756156E+03  0.88681792128E+02 0.  0.
          5    1    3    3  502    0 -0.15222578047E+02 -0.37473923168E+02 -0.90322846035E+02  0.99077385492E+02  0.47000000000E+01 0. -1.
         -5    1    3    3    0  502 -0.76585295876E+02  0.34572271849E+02 -0.87674625865E+02  0.12152974758E+03  0.47000000000E+01 0.  1.
          5    1    4    4  503    0  0.72443172561E+02  0.41847018000E+02 -0.18198320376E+02  0.85746457832E+02  0.47000000000E+01 0. -1.
         -5    1    4    4    0  503  0.19364701363E+02 -0.38945366680E+02 -0.51649293451E+01  0.44051103730E+02  0.47000000000E+01 0.  1.
<mgrwt>
<rscale>  0 0.12965748E+03</rscale>
<asrwt>0</asrwt>
<pdfrwt beam="1">  1        1 0.11464921E-01 0.13032424E+03</pdfrwt>
<pdfrwt beam="2">  1       -1 0.42443494E-01 0.13032424E+03</pdfrwt>
<totfact> 0.28521741E+03</totfact>
</mgrwt>
</event>
<event>
 8    1  0.2964543E-004  0.1159933E+03  0.7546771E-02  0.1254118E+00
          3   -1    0    0  501    0  0.00000000000E+00  0.00000000000E+00  0.41098087056E+03  0.41098087056E+03  0.00000000000E+00 0. -1.
         -3   -1    0    0    0  501 -0.00000000000E+00 -0.00000000000E+00 -0.31390404333E+02  0.31390404333E+02  0.00000000000E+00 0.  1.
         23    2    1    2    0    0  0.56131109314E+02 -0.66255635228E+01  0.22638050899E+03  0.25020537348E+03  0.90332688107E+02 0.  0.
         23    2    1    2    0    0 -0.56131109314E+02  0.66255635228E+01  0.15320995723E+03  0.19216590141E+03  0.10129088382E+03 0.  0.
          5    1    4    4  502    0 -0.36511818277E+01 -0.19710635735E+02 -0.67795332709E+01  0.21677000742E+02  0.47000000000E+01 0. -1.
         -5    1    4    4    0  502 -0.52479927486E+02  0.26336199258E+02  0.15998949050E+03  0.17048890067E+03  0.47000000000E+01 0.  1.
          5    1    3    3  503    0  0.23988365315E+02 -0.47822402584E+02  0.12515464774E+03  0.13619177548E+03  0.47000000000E+01 0. -1.
         -5    1    3    3    0  503  0.32142743999E+02  0.41196839062E+02  0.10122586125E+03  0.11401359799E+03  0.47000000000E+01 0.  1.
<mgrwt>
<rscale>  0 0.11355888E+03</rscale>
<asrwt>0</asrwt>
<pdfrwt beam="1">  1        3 0.63227822E-01 0.11599329E+03</pdfrwt>
<pdfrwt beam="2">  1       -3 0.48292933E-02 0.11599329E+03</pdfrwt>
<totfact> 0.13329983E+03</totfact>
</mgrwt>
</event>
<event>
 8    1  0.2964543E-004  0.1900442E+03  0.7546771E-02  0.1158589E+00
         -4   -1    0    0    0  501 -0.00000000000E+00  0.00000000000E+00  0.51394185857E+03  0.51394185857E+03  0.00000000000E+00 0.  1.
          4   -1    0    0  501    0  0.00000000000E+00 -0.00000000000E+00 -0.11077994374E+03  0.11077994374E+03  0.00000000000E+00 0. -1.
         23    2    1    2    0    0  0.13334423856E+03  0.99567813900E+02  0.39134778081E+03  0.43505158133E+03  0.91773402199E+02 0.  0.
         23    2    1    2    0    0 -0.13334423856E+03 -0.99567813900E+02  0.11814134024E+02  0.18967022097E+03  0.90226290178E+02 0.  0.
          5    1    3    3  502    0  0.39431679525E+02 -0.14309593454E+02  0.94418517150E+02  0.10342421475E+03  0.47000000000E+01 0. -1.
         -5    1    3    3    0  502  0.93912559036E+02  0.11387740735E+03  0.29692926366E+03  0.33162736658E+03  0.47000000000E+01 0.  1.
          5    1    4    4  503    0 -0.45574056609E+02 -0.49903568096E+02 -0.37371184798E+02  0.77369607713E+02  0.47000000000E+01 0. -1.
         -5    1    4    4    0  503 -0.87770181952E+02 -0.49664245804E+02  0.49185318821E+02  0.11230061326E+03  0.47000000000E+01 0.  1.
<mgrwt>
<rscale>  0 0.18985835E+03</rscale>
<asrwt>0</asrwt>
<pdfrwt beam="1">  1        4 0.17043069E-01 0.19004419E+03</pdfrwt>
<pdfrwt beam="2">  1       -4 0.79067977E-01 0.19004419E+03</pdfrwt>
<totfact> 0.77414649E+01</totfact>
</mgrwt>
</event>
<event>
 8    1  0.2964543E-004  0.9906784E+02  0.7546771E-02  0.1285150E+00
         -1   -1    0    0    0  501 -0.00000000000E+00  0.00000000000E+00  0.20499559682E+02  0.20499559682E+02  0.00000000000E+00 0.  1.
          1   -1    0    0  501    0  0.00000000000E+00 -0.00000000000E+00 -0.53894551006E+03  0.53894551006E+03  0.00000000000E+00 0. -1.
         23    2    1    2    0    0 -0.36271025837E+02  0.10686463521E+02 -0.15395531862E+03  0.18307560259E+03  0.91567725285E+02 0.  0.
         23    2    1    2    0    0  0.36271025837E+02 -0.10686463521E+02 -0.36449063176E+03  0.37636946715E+03  0.85853173201E+02 0.  0.
          5    1    4    4  502    0  0.44604136192E+02  0.21828851767E+02 -0.29343114876E+03  0.29764065044E+03  0.47000000000E+01 0. -1.
         -5    1    4    4    0  502 -0.83331103552E+01 -0.32515315288E+02 -0.71059483003E+02  0.78728816713E+02  0.47000000000E+01 0.  1.
          5    1    3    3  503    0  0.23753879119E+02  0.18684592889E+02 -0.21581924815E+02  0.37433010343E+02  0.47000000000E+01 0. -1.
         -5    1    3    3    0  503 -0.60024904956E+02 -0.79981293685E+01 -0.13237339380E+03  0.14564259224E+03  0.47000000000E+01 0.  1.
<mgrwt>
<rscale>  0 0.97726707E+02</rscale>
<asrwt>0</asrwt>
<pdfrwt beam="1">  1        1 0.82914686E-01 0.99067836E+02</pdfrwt>
<pdfrwt beam="2">  1       -1 0.31537787E-02 0.99067836E+02</pdfrwt>
<totfact> 0.13213179E+04</totfact>
</mgrwt>
</event>
<event>
 8    1  0.2964543E-004  0.1042450E+03  0.7546771E-02  0.1272442E+00
          2   -1    0    0  501    0  0.00000000000E+00  0.00000000000E+00  0.16258292084E+03  0.16258292084E+03  0.00000000000E+00 0. -1.
         -2   -1    0    0    0  501 -0.00000000000E+00 -0.00000000000E+00 -0.14216896879E+03  0.14216896879E+03  0.00000000000E+00 0.  1.
         23    2    1    2    0    0  0.10948662137E+02 -0.49008353895E+02 -0.10151796030E+03  0.14433242942E+03  0.89466541034E+02 0.  0.
         23    2    1    2    0    0 -0.10948662137E+02  0.49008353895E+02  0.12193191235E+03  0.16041946021E+03  0.91352723066E+02 0.  0.
          5    1    4    4  502    0 -0.49852625385E+01  0.73409537825E+02  0.10948112953E+03  0.13199250285E+03  0.47000000000E+01 0. -1.
         -5    1    4    4    0  502 -0.59633995981E+01 -0.24401183930E+02  0.12450782821E+02  0.28426957361E+02  0.47000000000E+01 0.  1.
          5    1    3    3  503    0 -0.36534626088E+02 -0.29286786471E+02 -0.68288041057E+02  0.82932751773E+02  0.47000000000E+01 0. -1.
         -5    1    3    3    0  503  0.47483288225E+02 -0.19721567424E+02 -0.33229919247E+02  0.61399677649E+02  0.47000000000E+01 0.  1.
<mgrwt>
<rscale>  0 0.10383027E+03</rscale>
<asrwt>0</asrwt>
<pdfrwt beam="1">  1        2 0.25012757E-01 0.10424496E+03</pdfrwt>
<pdfrwt beam="2">  1       -2 0.21872149E-01 0.10424496E+03</pdfrwt>
<totfact> 0.36593983E+03</totfact>
</mgrwt>
</event>
<event>
 8    1  0.2964543E-004  0.1019903E+03  0.7546771E-02  0.1276461E+00
         -1   -1    0    0    0  501 -0.00000000000E+00  0.00000000000E+00  0.17428749850E+02  0.17428749850E+02  0.00000000000E+00 0.  1.
          1   -1    0    0  501    0  0.00000000000E+00 -0.00000000000E+00 -0.84542753982E+03  0.84542753982E+03  0.00000000000E+00 0. -1.
         23    2    1    2    0    0 -0.32401037411E+02 -0.29449568533E+02 -0.64870180608E+03  0.65658114595E+03  0.91474934732E+02 0.  0.
         23    2    1    2    0    0  0.32401037411E+02  0.29449568533E+02 -0.17929698388E+03  0.20627514372E+03  0.92113637290E+02 0.  0.
          5    1    3    3  502    0 -0.60967889522E+02 -0.41209582702E+01 -0.33851282615E+03  0.34401611781E+03  0.47000000000E+01 0. -1.
         -5    1    3    3    0  502  0.28566852111E+02 -0.25328610263E+02 -0.31018897994E+03  0.31256502813E+03  0.47000000000E+01 0.  1.
          5    1    4    4  503    0 -0.79562340409E+01 -0.27545283799E+02 -0.77225221120E+02  0.82509812124E+02  0.47000000000E+01 0. -1.
         -5    1    4    4    0  503  0.40357271452E+02  0.56994852332E+02 -0.10207176276E+03  0.12376533159E+03  0.47000000000E+01 0.  1.
<mgrwt>
<rscale>  0 0.10184590E+03</rscale>
<asrwt>0</asrwt>
<pdfrwt beam="1">  1        1 0.13006578E+00 0.10199033E+03</pdfrwt>
<pdfrwt beam="2">  1       -1 0.26813461E-02 0.10199033E+03</pdfrwt>
<totfact> 0.89015984E+03</totfact>
</mgrwt>
</event>
<event>
 8    1  0.2964543E-004  0.1077867E+03  0.7546771E-02  0.1267886E+00
         -3   -1    0    0    0  501 -0.00000000000E+00  0.00000000000E+00  0.67687532037E+02  0.67687532037E+02  0.00000000000E+00 0.  1.
          3   -1    0    0  501    0  0.00000000000E+00 -0.00000000000E+00 -0.23717854190E+03  0.23717854190E+03  0.00000000000E+00 0. -1.
         23    2    1    2    0    0  0.11771357526E+02  0.50344094353E+02 -0.16901680556E+03  0.19707835165E+03  0.87178572115E+02 0.  0.
         23    2    1    2    0    0 -0.11771357526E+02 -0.50344094353E+02 -0.47420430515E+00  0.10778772228E+03  0.94577351995E+02 0.  0.
          5    1    3    3  502    0  0.21162774913E+02 -0.18515056918E+02 -0.28858531511E+02  0.40565690130E+02  0.47000000000E+01 0. -1.
         -5    1    3    3    0  502 -0.93914173874E+01  0.68859151271E+02 -0.14015827404E+03  0.15651266152E+03  0.47000000000E+01 0.  1.
          5    1    4    4  503    0  0.36768376834E+02 -0.45611911453E+02 -0.11919847721E+01  0.58786655195E+02  0.47000000000E+01 0. -1.
         -5    1    4    4    0  503 -0.48539734359E+02 -0.47321829006E+01  0.71778046693E+00  0.49001067085E+02  0.47000000000E+01 0.  1.
<mgrwt>
<rscale>  0 0.10614194E+03</rscale>
<asrwt>0</asrwt>
<pdfrwt beam="1">  1        3 0.36489008E-01 0.10778668E+03</pdfrwt>
<pdfrwt beam="2">  1       -3 0.10413466E-01 0.10778668E+03</pdfrwt>
<totfact> 0.11328336E+03</totfact>
</mgrwt>
</event>
<event>
 8    1  0.2964543E-004  0.1007048E+03  0.7546771E-02  0.1279190E+00
          2   -1    0    0  501    0  0.00000000000E+00  0.00000000000E+00  0.98955030212E+02  0.98955030212E+02  0.00000000000E+00 0. -1.
         -2   -1    0    0    0  501 -0.00000000000E+00 -0.00000000000E+00 -0.12607127456E+03  0.12607127456E+03  0.00000000000E+00 0.  1.
         23    2    1    2    0    0  0.32039508905E+02  0.14502567066E+02 -0.62918532154E+02  0.11814664990E+03  0.93611081666E+02 0.  0.
         23    2    1    2    0    0 -0.32039508905E+02 -0.14502567066E+02  0.35802287806E+02  0.10687965488E+03  0.94364199950E+02 0.  0.
          5    1    4    4  502    0 -0.50691048596E+02  0.12563042495E+02  0.48407079470E+02  0.71363490577E+02  0.47000000000E+01 0. -1.
         -5    1    4    4    0  502  0.18651539691E+02 -0.27065609561E+02 -0.12604791664E+02  0.35516164301E+02  0.47000000000E+01 0.  1.
          5    1    3    3  503    0  0.16679398364E+02  0.52606177853E+02 -0.20914873952E+02  0.59204174097E+02  0.47000000000E+01 0. -1.
         -5    1    3    3    0  503  0.15360110542E+02 -0.38103610787E+02 -0.42003658203E+02  0.58942475798E+02  0.47000000000E+01 0.  1.
<mgrwt>
<rscale>  0 0.10052800E+03</rscale>
<asrwt>0</asrwt>
<pdfrwt beam="1">  1        2 0.15223851E-01 0.10070480E+03</pdfrwt>
<pdfrwt beam="2">  1       -2 0.19395581E-01 0.10070480E+03</pdfrwt>
<totfact> 0.78157988E+03</totfact>
</mgrwt>
</event>
<event>
 8    1  0.2964543E-004  0.9799015E+02  0.7546771E-02  0.1284726E+00
          1   -1    0    0  501    0  0.00000000000E+00  0.00000000000E+00  0.98068885605E+01  0.98068885605E+01  0.00000000000E+00 0. -1.
         -1   -1    0    0    0  501 -0.00000000000E+00 -0.00000000000E+00 -0.11588030163E+04  0.11588030163E+04  0.00000000000E+00 0.  1.
         23    2    1    2    0    0  0.13651453579E+02 -0.33335674819E+02 -0.80564063698E+03  0.81154539767E+03  0.90837586528E+02 0.  0.
         23    2    1    2    0    0 -0.13651453579E+02  0.33335674819E+02 -0.34335549071E+03  0.35706450714E+03  0.91128699422E+02 0.  0.
          5    1    3    3  502    0  0.23757615162E+02  0.26822122920E+02 -0.26455073293E+03  0.26700754830E+03  0.47000000000E+01 0. -1.
         -5    1    3    3    0  502 -0.10106161583E+02 -0.60157797739E+02 -0.54108990405E+03  0.54453784937E+03  0.47000000000E+01 0.  1.
          5    1    4    4  503    0  0.37232377966E+02  0.16662224316E+02 -0.10544628023E+03  0.11315868372E+03  0.47000000000E+01 0. -1.
         -5    1    4    4    0  503 -0.50883831545E+02  0.16673450503E+02 -0.23790921049E+03  0.24390582342E+03  0.47000000000E+01 0.  1.
<mgrwt>
<rscale>  0 0.97922411E+02</rscale>
<asrwt>0</asrwt>
<pdfrwt beam="1">  1        1 0.15087523E-02 0.97990149E+02</pdfrwt>
<pdfrwt beam="2">  1       -1 0.17827737E+00 0.97990149E+02</pdfrwt>
<totfact> 0.20183935E+03</totfact>
</mgrwt>
</event>
<event>
 8    1  0.2964543E-004  0.9570088E+02  0.7546771E-02  0.1296280E+00
         -1   -1    0    0    0  501 -0.00000000000E+00  0.00000000000E+00  0.35669399639E+02  0.35669399639E+02  0.00000000000E+00 0.  1.
          1   -1    0    0  501    0  0.00000000000E+00 -0.00000000000E+00 -0.23414731145E+03  0.23414731145E+03  0.00000000000E+00 0. -1.
         23    2    1    2    0    0  0.11600008858E+02  0.23965396747E+02 -0.70727139559E+02  0.11019553737E+03  0.80198676669E+02 0.  0.
         23    2    1    2    0    0 -0.11600008858E+02 -0.23965396747E+02 -0.12775077225E+03  0.15962117371E+03  0.91922569814E+02 0.  0.
          5    1    3    3  502    0  0.31440383523E+02  0.41034329921E+02 -0.25744535586E+02  0.57941220739E+02  0.47000000000E+01 0. -1.
         -5    1    4    4    0  503 -0.15666966440E+02  0.26722486078E+02 -0.12814049642E+02  0.33850184163E+02  0.47000000000E+01 0.  1.
          5    1    4    4  503    0  0.40669575828E+01 -0.50687882825E+02 -0.11493672261E+03  0.12577098955E+03  0.47000000000E+01 0. -1.
         -5    1    3    3    0  502 -0.19840374665E+02 -0.17068933174E+02 -0.44982603973E+02  0.52254316632E+02  0.47000000000E+01 0.  1.
<mgrwt>
<rscale>  0 0.92769406E+02</rscale>
<asrwt>0</asrwt>
<pdfrwt beam="1">  1        1 0.36022664E-01 0.95700884E+02</pdfrwt>
<pdfrwt beam="2">  1       -1 0.54875998E-02 0.95700884E+02</pdfrwt>
<totfact> 0.16579521E+04</totfact>
</mgrwt>
</event>
<event>
 8    1  0.2964543E-004  0.1365245E+03  0.7546771E-02  0.1219663E+00
          2   -1    0    0  501    0  0.00000000000E+00  0.00000000000E+00  0.22367685773E+03  0.22367685773E+03  0.00000000000E+00 0. -1.
         -2   -1    0    0    0  501 -0.00000000000E+00 -0.00000000000E+00 -0.10050883076E+03  0.10050883076E+03  0.00000000000E+00 0.  1.
         23    2    1    2    0    0  0.66345862794E+02  0.71902031199E+02 -0.11316287931E+02  0.13254810229E+03  0.88708880321E+02 0.  0.
         23    2    1    2    0    0 -0.66345862794E+02 -0.71902031199E+02  0.13448431490E+03  0.19163758619E+03  0.95222150192E+02 0.  0.
          5    1    3    3  502    0  0.32171637113E+02 -0.14891323884E+02  0.91966335266E+01  0.36924704870E+02  0.47000000000E+01 0. -1.
         -5    1    3    3    0  502  0.34174225681E+02  0.86793355082E+02 -0.20512921457E+02  0.95623397420E+02  0.47000000000E+01 0.  1.
          5    1    4    4  503    0 -0.33767889514E+02 -0.34733784742E+02  0.13337471467E+03  0.14197750061E+03  0.47000000000E+01 0. -1.
         -5    1    4    4    0  503 -0.32577973279E+02 -0.37168246457E+02  0.11096002279E+01  0.49660085585E+02  0.47000000000E+01 0.  1.
<mgrwt>
<rscale>  0 0.13539547E+03</rscale>
<asrwt>0</asrwt>
<pdfrwt beam="1">  1        2 0.34411824E-01 0.13652448E+03</pdfrwt>
<pdfrwt beam="2">  1       -2 0.15462897E-01 0.13652448E+03</pdfrwt>
<totfact> 0.46989875E+03</totfact>
</mgrwt>
</event>
<event>
 8    1  0.2964543E-004  0.1235554E+03  0.7546771E-02  0.1237346E+00
         -1   -1    0    0    0  501 -0.00000000000E+00  0.00000000000E+00  0.75910342187E+02  0.75910342187E+02  0.00000000000E+00 0.  1.
          1   -1    0    0  501    0  0.00000000000E+00 -0.00000000000E+00 -0.20132170461E+03  0.20132170461E+03  0.00000000000E+00 0. -1.
         23    2    1    2    0    0  0.51519636907E+02 -0.65559796216E+02 -0.67324856979E+02  0.14070736095E+03  0.91178754064E+02 0.  0.
         23    2    1    2    0    0 -0.51519636907E+02  0.65559796216E+02 -0.58086505447E+02  0.13652468584E+03  0.91173394490E+02 0.  0.
          5    1    3    3  502    0  0.12075325171E+02  0.21679885013E+02 -0.33884838168E+01  0.25483381148E+02  0.47000000000E+01 0. -1.
         -5    1    3    3    0  502  0.39444311736E+02 -0.87239681230E+02 -0.63936373162E+02  0.11522397981E+03  0.47000000000E+01 0.  1.
          5    1    4    4  503    0 -0.61880534445E+02  0.36809148525E+02 -0.72609657134E+02  0.10236389142E+03  0.47000000000E+01 0. -1.
         -5    1    4    4    0  503  0.10360897539E+02  0.28750647691E+02  0.14523151687E+02  0.34160794420E+02  0.47000000000E+01 0.  1.
<mgrwt>
<rscale>  0 0.12355436E+03</rscale>
<asrwt>0</asrwt>
<pdfrwt beam="1">  1        1 0.30972569E-01 0.12355535E+03</pdfrwt>
<pdfrwt beam="2">  1       -1 0.11678514E-01 0.12355535E+03</pdfrwt>
<totfact> 0.65683711E+03</totfact>
</mgrwt>
</event>
<event>
 8    1  0.2964543E-004  0.9839072E+02  0.7546771E-02  0.1285006E+00
         -1   -1    0    0    0  501 -0.00000000000E+00  0.00000000000E+00  0.12882496700E+03  0.12882496700E+03  0.00000000000E+00 0.  1.
          1   -1    0    0  501    0  0.00000000000E+00 -0.00000000000E+00 -0.10453163333E+03  0.10453163333E+03  0.00000000000E+00 0. -1.
         23    2    1    2    0    0  0.18142865519E+02 -0.24095378940E+02  0.75973850746E+02  0.12430912703E+03  0.93653522150E+02 0.  0.
         23    2    1    2    0    0 -0.18142865519E+02  0.24095378940E+02 -0.51680517076E+02  0.10904747329E+03  0.91163176398E+02 0.  0.
          5    1    3    3  502    0 -0.10127749977E+02 -0.52088151146E+02  0.62318658500E+02  0.81984461983E+02  0.47000000000E+01 0. -1.
         -5    1    4    4    0  503  0.49122677411E+01  0.44160654404E+02 -0.62022544954E+02  0.76440695015E+02  0.47000000000E+01 0.  1.
          5    1    4    4  503    0 -0.23055133260E+02 -0.20065275464E+02  0.10342027878E+02  0.32606778279E+02  0.47000000000E+01 0. -1.
         -5    1    3    3    0  502  0.28270615496E+02  0.27992772206E+02  0.13655192247E+02  0.42324665050E+02  0.47000000000E+01 0.  1.
<mgrwt>
<rscale>  0 0.97793448E+02</rscale>
<asrwt>0</asrwt>
<pdfrwt beam="1">  1        1 0.16081790E-01 0.98390716E+02</pdfrwt>
<pdfrwt beam="2">  1       -1 0.19819226E-01 0.98390716E+02</pdfrwt>
<totfact> 0.64407742E+03</totfact>
</mgrwt>
</event>
<event>
 8    1  0.2964543E-004  0.9650070E+02  0.7546771E-02  0.1291299E+00
         -1   -1    0    0    0  501 -0.00000000000E+00  0.00000000000E+00  0.42021152900E+02  0.42021152900E+02  0.00000000000E+00 0.  1.
          1   -1    0    0  501    0  0.00000000000E+00 -0.00000000000E+00 -0.20901474187E+03  0.20901474187E+03  0.00000000000E+00 0. -1.
         23    2    1    2    0    0 -0.19619995869E+02 -0.82039501359E+01 -0.71585654152E+02  0.11533379897E+03  0.87892720227E+02 0.  0.
         23    2    1    2    0    0  0.19619995869E+02  0.82039501359E+01 -0.95407934818E+02  0.13570209580E+03  0.94128294059E+02 0.  0.
          5    1    3    3  502    0  0.33586580354E+02  0.63223013363E+01 -0.33919047518E+02  0.48379971667E+02  0.47000000000E+01 0. -1.
         -5    1    3    3    0  502 -0.53206576223E+02 -0.14526251472E+02 -0.37666606635E+02  0.66953827303E+02  0.47000000000E+01 0.  1.
          5    1    4    4  503    0  0.33288789063E+02 -0.20685539214E+02 -0.95566856730E+02  0.10339801311E+03  0.47000000000E+01 0. -1.
         -5    1    4    4    0  503 -0.13668793194E+02  0.28889489350E+02  0.15892191172E+00  0.32304082690E+02  0.47000000000E+01 0.  1.
<mgrwt>
<rscale>  0 0.94945549E+02</rscale>
<asrwt>0</asrwt>
<pdfrwt beam="1">  1        1 0.32156114E-01 0.96500698E+02</pdfrwt>
<pdfrwt beam="2">  1       -1 0.64647927E-02 0.96500698E+02</pdfrwt>
<totfact> 0.14974703E+04</totfact>
</mgrwt>
</event>
<event>
 8    1  0.2964543E-004  0.9483498E+02  0.7546771E-02  0.1294475E+00
         -1   -1    0    0    0  501 -0.00000000000E+00  0.00000000000E+00  0.17890548216E+03  0.17890548216E+03  0.00000000000E+00 0.  1.
          1   -1    0    0  501    0  0.00000000000E+00 -0.00000000000E+00 -0.12077931534E+03  0.12077931534E+03  0.00000000000E+00 0. -1.
         23    2    1    2    0    0  0.39169234769E+01 -0.69818394764E+01  0.14534016123E+03  0.17084398830E+03  0.89441698884E+02 0.  0.
         23    2    1    2    0    0 -0.39169234769E+01  0.69818394764E+01 -0.87213994405E+02  0.12884080920E+03  0.94496481010E+02 0.  0.
          5    1    3    3  502    0 -0.58261033927E+01  0.37185631063E+02  0.98548461063E+02  0.10559641952E+03  0.47000000000E+01 0. -1.
         -5    1    3    3    0  502  0.97430268696E+01 -0.44167470540E+02  0.46791700168E+02  0.65247568775E+02  0.47000000000E+01 0.  1.
          5    1    4    4  503    0 -0.46203207550E+02  0.41216459683E+01 -0.67059981718E+02  0.81675305334E+02  0.47000000000E+01 0. -1.
         -5    1    4    4    0  503  0.42286284073E+02  0.28601935081E+01 -0.20154012687E+02  0.47165503866E+02  0.47000000000E+01 0.  1.
<mgrwt>
<rscale>  0 0.93550173E+02</rscale>
<asrwt>0</asrwt>
<pdfrwt beam="1">  1        1 0.18581433E-01 0.94834979E+02</pdfrwt>
<pdfrwt beam="2">  1       -1 0.27523920E-01 0.94834979E+02</pdfrwt>
<totfact> 0.31447986E+03</totfact>
</mgrwt>
</event>
<event>
 8    1  0.3488699E-004  0.1183302E+03  0.7546771E-02  0.1249326E+00
          1   -1    0    0  501    0  0.00000000000E+00  0.00000000000E+00  0.33477729485E+03  0.33477729485E+03  0.00000000000E+00 0. -1.
         -1   -1    0    0    0  501 -0.00000000000E+00 -0.00000000000E+00 -0.10165904989E+03  0.10165904989E+03  0.00000000000E+00 0.  1.
         23    2    1    2    0    0 -0.27021184300E+02 -0.54570064192E+02  0.28928510010E+03  0.31255065549E+03  0.10145938499E+03 0.  0.
         23    2    1    2    0    0  0.27021184300E+02  0.54570064192E+02 -0.56166855141E+02  0.12388568924E+03  0.92113582469E+02 0.  0.
          5    1    3    3  502    0  0.68796260575E+01 -0.74736489308E+02  0.15124399924E+03  0.16890739888E+03  0.47000000000E+01 0. -1.
         -5    1    3    3    0  502 -0.33900810357E+02  0.20166425116E+02  0.13804110086E+03  0.14364325661E+03  0.47000000000E+01 0.  1.
          5    1    4    4  503    0 -0.24644429781E+02 -0.88728004605E+00  0.59228544579E+01  0.25793514495E+02  0.47000000000E+01 0. -1.
         -5    1    4    4    0  503  0.51665614080E+02  0.55457344238E+02 -0.62089709599E+02  0.98092174746E+02  0.47000000000E+01 0.  1.
<mgrwt>
<rscale>  0 0.11630151E+03</rscale>
<asrwt>0</asrwt>
<pdfrwt beam="1">  1        1 0.51504199E-01 0.11833023E+03</pdfrwt>
<pdfrwt beam="2">  1       -1 0.15639854E-01 0.11833023E+03</pdfrwt>
<totfact> 0.22245795E+03</totfact>
</mgrwt>
</event>
<event>
 8    1  0.2964543E-004  0.1248422E+03  0.7546771E-02  0.1238275E+00
         -2   -1    0    0    0  501 -0.00000000000E+00  0.00000000000E+00  0.45823093237E+02  0.45823093237E+02  0.00000000000E+00 0.  1.
          2   -1    0    0  501    0  0.00000000000E+00 -0.00000000000E+00 -0.57131694807E+03  0.57131694807E+03  0.00000000000E+00 0. -1.
         23    2    1    2    0    0  0.57796540008E+02 -0.45930230578E+02 -0.62788054894E+02  0.13974232767E+03  0.10067547957E+03 0.  0.
         23    2    1    2    0    0 -0.57796540008E+02  0.45930230578E+02 -0.46270579994E+03  0.47739771364E+03  0.91443389971E+02 0.  0.
          5    1    3    3  502    0 -0.24917394696E+02 -0.30125708780E+02 -0.28916085202E+02  0.48853504187E+02  0.47000000000E+01 0. -1.
         -5    1    4    4    0  503  0.16645513256E+02 -0.13667628948E+02 -0.85318501950E+02  0.88120451472E+02  0.47000000000E+01 0.  1.
          5    1    4    4  503    0 -0.74442053264E+02  0.59597859526E+02 -0.37738729799E+03  0.38927726216E+03  0.47000000000E+01 0. -1.
         -5    1    3    3    0  502  0.82713934704E+02 -0.15804521799E+02 -0.33871969692E+02  0.90888823484E+02  0.47000000000E+01 0.  1.
<mgrwt>
<rscale>  0 0.12297104E+03</rscale>
<asrwt>0</asrwt>
<pdfrwt beam="1">  1        2 0.87894924E-01 0.12484221E+03</pdfrwt>
<pdfrwt beam="2">  1       -2 0.70497060E-02 0.12484221E+03</pdfrwt>
<totfact> 0.59039187E+03</totfact>
</mgrwt>
</event>
<event>
 8    1  0.2964543E-004  0.9442010E+02  0.7546771E-02  0.1293908E+00
         -2   -1    0    0    0  501 -0.00000000000E+00  0.00000000000E+00  0.11200879523E+02  0.11200879523E+02  0.00000000000E+00 0.  1.
          2   -1    0    0  501    0  0.00000000000E+00 -0.00000000000E+00 -0.92609486022E+03  0.92609486022E+03  0.00000000000E+00 0. -1.
         23    2    1    2    0    0  0.73227474546E+01  0.14351843890E+02 -0.64148844040E+03  0.64804542437E+03  0.90530960624E+02 0.  0.
         23    2    1    2    0    0 -0.73227474546E+01 -0.14351843890E+02 -0.27340554030E+03  0.28925031537E+03  0.93035248281E+02 0.  0.
          5    1    3    3  502    0 -0.19882431922E+02 -0.32021582116E+02 -0.26534992997E+03  0.26805478573E+03  0.47000000000E+01 0. -1.
         -5    1    4    4    0  503 -0.11201148116E+01 -0.51689445648E+02 -0.11272237880E+03  0.12410269188E+03  0.47000000000E+01 0.  1.
          5    1    4    4  503    0 -0.62026326431E+01  0.37337601758E+02 -0.16068316150E+03  0.16514762349E+03  0.47000000000E+01 0. -1.
         -5    1    3    3    0  502  0.27205179376E+02  0.46373426007E+02 -0.37613851043E+03  0.37999063864E+03  0.47000000000E+01 0.  1.
<mgrwt>
<rscale>  0 0.93797325E+02</rscale>
<asrwt>0</asrwt>
<pdfrwt beam="1">  1        2 0.14247614E+00 0.94420101E+02</pdfrwt>
<pdfrwt beam="2">  1       -2 0.17232121E-02 0.94420101E+02</pdfrwt>
<totfact> 0.25823267E+04</totfact>
</mgrwt>
</event>
<event>
 8    1  0.2964543E-004  0.9753642E+02  0.7546771E-02  0.1285622E+00
         -2   -1    0    0    0  501 -0.00000000000E+00  0.00000000000E+00  0.11572351390E+02  0.11572351390E+02  0.00000000000E+00 0.  1.
          2   -1    0    0  501    0  0.00000000000E+00 -0.00000000000E+00 -0.84523553538E+03  0.84523553538E+03  0.00000000000E+00 0. -1.
         23    2    1    2    0    0  0.30744929966E+02 -0.18923557045E+02 -0.48889157212E+03  0.49850519793E+03  0.90493708882E+02 0.  0.
         23    2    1    2    0    0 -0.30744929966E+02  0.18923557045E+02 -0.34477161187E+03  0.35830268883E+03  0.90609054436E+02 0.  0.
          5    1    4    4  502    0 -0.18879826759E+02  0.38413192161E+02 -0.32472842890E+03  0.32757085299E+03  0.47000000000E+01 0. -1.
         -5    1    4    4    0  502 -0.11865103207E+02 -0.19489635117E+02 -0.20043182969E+02  0.30731835848E+02  0.47000000000E+01 0.  1.
          5    1    3    3  503    0 -0.31005795099E+02 -0.14467130060E+02 -0.20652966855E+03  0.20939735236E+03  0.47000000000E+01 0. -1.
         -5    1    3    3    0  503  0.61750725065E+02 -0.44564269842E+01 -0.28236190357E+03  0.28910784557E+03  0.47000000000E+01 0.  1.
<mgrwt>
<rscale>  0 0.97509619E+02</rscale>
<asrwt>0</asrwt>
<pdfrwt beam="1">  1        2 0.13003628E+00 0.97536416E+02</pdfrwt>
<pdfrwt beam="2">  1       -2 0.17803611E-02 0.97536416E+02</pdfrwt>
<totfact> 0.27776538E+04</totfact>
</mgrwt>
</event>
<event>
 8    1  0.2964543E-004  0.9250769E+02  0.7546771E-02  0.1297214E+00
         -1   -1    0    0    0  501 -0.00000000000E+00  0.00000000000E+00  0.52374140543E+02  0.52374140543E+02  0.00000000000E+00 0.  1.
          1   -1    0    0  501    0  0.00000000000E+00 -0.00000000000E+00 -0.16954125926E+03  0.16954125926E+03  0.00000000000E+00 0. -1.
         23    2    1    2    0    0  0.92893484885E+00  0.13973006003E+02 -0.36012478104E+02  0.99270193498E+02  0.91441592950E+02 0.  0.
         23    2    1    2    0    0 -0.92893484885E+00 -0.13973006003E+02 -0.81154640609E+02  0.12264520630E+03  0.90882688780E+02 0.  0.
          5    1    4    4  502    0  0.28166609753E+02 -0.35191355447E+01  0.65706197083E+01  0.29512798297E+02  0.47000000000E+01 0. -1.
         -5    1    4    4    0  502 -0.29095544602E+02 -0.10453870458E+02 -0.87725260317E+02  0.93132408006E+02  0.47000000000E+01 0.  1.
          5    1    3    3  503    0  0.19148117483E+02  0.36431358050E+02 -0.51530012336E+02  0.66116007319E+02  0.47000000000E+01 0. -1.
         -5    1    3    3    0  503 -0.18219182634E+02 -0.22458352047E+02  0.15517534231E+02  0.33154186178E+02  0.47000000000E+01 0.  1.
<mgrwt>
<rscale>  0 0.92369274E+02</rscale>
<asrwt>0</asrwt>
<pdfrwt beam="1">  1        1 0.26083271E-01 0.92507690E+02</pdfrwt>
<pdfrwt beam="2">  1       -1 0.80575601E-02 0.92507690E+02</pdfrwt>
<totfact> 0.13909494E+04</totfact>
</mgrwt>
</event>
<event>
 8    1  0.2964543E-004  0.1297036E+03  0.7546771E-02  0.1229624E+00
          2   -1    0    0  501    0  0.00000000000E+00  0.00000000000E+00  0.10529307976E+04  0.10529307976E+04  0.00000000000E+00 0.  1.
         -2   -1    0    0    0  501 -0.00000000000E+00 -0.00000000000E+00 -0.22454260485E+02  0.22454260485E+02  0.00000000000E+00 0. -1.
         23    2    1    2    0    0  0.55223363379E+02  0.67853796380E+02  0.22067012579E+03  0.25596546890E+03  0.95756249442E+02 0.  0.
         23    2    1    2    0    0 -0.55223363379E+02 -0.67853796380E+02  0.80980641135E+03  0.81941958921E+03  0.89489003638E+02 0.  0.
          5    1    4    4  502    0  0.16315868436E+02 -0.47677163413E+02  0.34008532072E+03  0.34383053216E+03  0.47000000000E+01 0. -1.
         -5    1    4    4    0  502 -0.71539231815E+02 -0.20176632967E+02  0.46972109063E+03  0.47558905705E+03  0.47000000000E+01 0.  1.
          5    1    3    3  503    0  0.46459264403E+02 -0.12722452302E+02  0.87735959320E+02  0.10019986327E+03  0.47000000000E+01 0. -1.
         -5    1    3    3    0  503  0.87640989753E+01  0.80576248682E+02  0.13293416647E+03  0.15576560563E+03  0.47000000000E+01 0.  1.
<mgrwt>
<rscale>  0 0.12854938E+03</rscale>
<asrwt>0</asrwt>
<pdfrwt beam="1">  1        2 0.16198932E+00 0.12970357E+03</pdfrwt>
<pdfrwt beam="2">  1       -2 0.34545024E-02 0.12970357E+03</pdfrwt>
<totfact> 0.80804803E+03</totfact>
</mgrwt>
</event>
<event>
 8    1  0.2964543E-004  0.2303052E+03  0.7546771E-02  0.1126742E+00
          2   -1    0    0  501    0  0.00000000000E+00  0.00000000000E+00  0.15412151175E+04  0.15412151175E+04  0.00000000000E+00 0. -1.
         -2   -1    0    0    0  501 -0.00000000000E+00 -0.00000000000E+00 -0.34147278227E+02  0.34147278227E+02  0.00000000000E+00 0.  1.
         23    2    1    2    0    0  0.16547533345E+03  0.13025478173E+03  0.74755531374E+03  0.78170014973E+03  0.88700523332E+02 0.  0.
         23    2    1    2    0    0 -0.16547533345E+03 -0.13025478173E+03  0.75951252552E+03  0.79366224599E+03  0.93231379613E+02 0.  0.
          5    1    4    4  502    0 -0.14892163179E+03 -0.10477809974E+03  0.72459688680E+03  0.74714044259E+03  0.47000000000E+01 0. -1.
         -5    1    3    3    0  503  0.51828084315E+02  0.94001263891E+02  0.30713639860E+03  0.32538783825E+03  0.47000000000E+01 0. -1.
          5    1    3    3  503    0  0.11364724913E+03  0.36253517836E+02  0.44041891515E+03  0.45631231148E+03  0.47000000000E+01 0.  1.
         -5    1    4    4    0  502 -0.16553701658E+02 -0.25476681991E+02  0.34915638717E+02  0.46521803392E+02  0.47000000000E+01 0.  1.
<mgrwt>
<rscale>  0 0.22985473E+03</rscale>
<asrwt>0</asrwt>
<pdfrwt beam="1">  1        2 0.23710996E+00 0.23030520E+03</pdfrwt>
<pdfrwt beam="2">  1       -2 0.52534286E-02 0.23030520E+03</pdfrwt>
<totfact> 0.23554597E+03</totfact>
</mgrwt>
</event>
<event>
 8    1  0.2964543E-004  0.1169693E+03  0.7546771E-02  0.1248481E+00
          1   -1    0    0  501    0  0.00000000000E+00  0.00000000000E+00  0.36936118618E+03  0.36936118618E+03  0.00000000000E+00 0. -1.
         -1   -1    0    0    0  501 -0.00000000000E+00 -0.00000000000E+00 -0.38725473682E+02  0.38725473682E+02  0.00000000000E+00 0.  1.
         23    2    1    2    0    0  0.62316784867E+02 -0.37340807092E+02  0.12054378444E+03  0.16796611683E+03  0.91673850604E+02 0.  0.
         23    2    1    2    0    0 -0.62316784867E+02  0.37340807092E+02  0.21009192806E+03  0.24012054303E+03  0.90782924612E+02 0.  0.
          5    1    4    4  502    0 -0.82348459744E+02  0.39151346972E+02  0.19223894189E+03  0.21281916637E+03  0.47000000000E+01 0. -1.
         -5    1    4    4    0  502  0.20031674876E+02 -0.18105398797E+01  0.17852986164E+02  0.27301376668E+02  0.47000000000E+01 0.  1.
          5    1    3    3  503    0  0.28767639603E+02 -0.65846583273E+02  0.83296520589E+02  0.11010790144E+03  0.47000000000E+01 0. -1.
         -5    1    3    3    0  503  0.33549145265E+02  0.28505776180E+02  0.37247263850E+02  0.57858215388E+02  0.47000000000E+01 0.  1.
<mgrwt>
<rscale>  0 0.11679465E+03</rscale>
<asrwt>0</asrwt>
<pdfrwt beam="1">  1        1 0.56824796E-01 0.11696928E+03</pdfrwt>
<pdfrwt beam="2">  1       -1 0.59577654E-02 0.11696928E+03</pdfrwt>
<totfact> 0.85314498E+03</totfact>
</mgrwt>
</event>
<event>
 8    1  0.2964543E-004  0.1120329E+03  0.7546771E-02  0.1257015E+00
         -1   -1    0    0    0  501 -0.00000000000E+00  0.00000000000E+00  0.26329579918E+02  0.26329579918E+02  0.00000000000E+00 0.  1.
          1   -1    0    0  501    0  0.00000000000E+00 -0.00000000000E+00 -0.47556693978E+03  0.47556693978E+03  0.00000000000E+00 0. -1.
         23    2    1    2    0    0 -0.34973041157E+02  0.54519262386E+02 -0.23154944132E+03  0.25707128386E+03  0.90967233845E+02 0.  0.
         23    2    1    2    0    0  0.34973041157E+02 -0.54519262386E+02 -0.21768791855E+03  0.24482523584E+03  0.91410626533E+02 0.  0.
          5    1    4    4  502    0  0.36152530699E+02  0.14182636940E+02 -0.11239399489E+03  0.11900694414E+03  0.47000000000E+01 0. -1.
         -5    1    3    3    0  503 -0.44739211513E+02 -0.60066871374E+01 -0.13667884081E+03  0.14401691866E+03  0.47000000000E+01 0.  1.
          5    1    3    3  503    0  0.97661703560E+01  0.60525949524E+02 -0.94870600511E+02  0.11305436520E+03  0.47000000000E+01 0. -1.
         -5    1    4    4    0  502 -0.11794895417E+01 -0.68701899327E+02 -0.10529392366E+03  0.12581829170E+03  0.47000000000E+01 0.  1.
<mgrwt>
<rscale>  0 0.11194240E+03</rscale>
<asrwt>0</asrwt>
<pdfrwt beam="1">  1        1 0.73164138E-01 0.11203288E+03</pdfrwt>
<pdfrwt beam="2">  1       -1 0.40507050E-02 0.11203288E+03</pdfrwt>
<totfact> 0.10909330E+04</totfact>
</mgrwt>
</event>
<event>
 8    1  0.2964543E-004  0.9538932E+02  0.7546771E-02  0.1290928E+00
         -1   -1    0    0    0  501 -0.00000000000E+00  0.00000000000E+00  0.85930059729E+02  0.85930059729E+02  0.00000000000E+00 0.  1.
          1   -1    0    0  501    0  0.00000000000E+00 -0.00000000000E+00 -0.14598936821E+03  0.14598936821E+03  0.00000000000E+00 0. -1.
         23    2    1    2    0    0  0.14407866534E+02 -0.19843506404E+02  0.31542330431E+02  0.10046910629E+03  0.92183357202E+02 0.  0.
         23    2    1    2    0    0 -0.14407866534E+02  0.19843506404E+02 -0.91601638911E+02  0.13145032165E+03  0.91032826200E+02 0.  0.
          5    1    4    4  502    0 -0.50451595124E+02  0.55866927571E+01 -0.70703665346E+02  0.87164630900E+02  0.47000000000E+01 0. -1.
         -5    1    3    3    0  503  0.86937509540E+01  0.18779630137E+02  0.51983547606E+02  0.56148330656E+02  0.47000000000E+01 0.  1.
          5    1    3    3  503    0  0.57141155802E+01 -0.38623136541E+02 -0.20441217174E+02  0.44320775633E+02  0.47000000000E+01 0. -1.
         -5    1    4    4    0  502  0.36043728590E+02  0.14256813647E+02 -0.20897973565E+02  0.44285690750E+02  0.47000000000E+01 0.  1.
<mgrwt>
<rscale>  0 0.95110250E+02</rscale>
<asrwt>0</asrwt>
<pdfrwt beam="1">  1        1 0.22459903E-01 0.95389322E+02</pdfrwt>
<pdfrwt beam="2">  1       -1 0.13220009E-01 0.95389322E+02</pdfrwt>
<totfact> 0.79356672E+03</totfact>
</mgrwt>
</event>
<event>
 8    1  0.2964543E-004  0.1137842E+03  0.7546771E-02  0.1256146E+00
          1   -1    0    0  501    0  0.00000000000E+00  0.00000000000E+00  0.49853318379E+03  0.49853318379E+03  0.00000000000E+00 0. -1.
         -1   -1    0    0    0  501 -0.00000000000E+00 -0.00000000000E+00 -0.35214416147E+02  0.35214416147E+02  0.00000000000E+00 0.  1.
         23    2    1    2    0    0  0.34720906915E+02  0.48782449364E+02  0.90226739557E+02  0.14521610235E+03  0.96755274319E+02 0.  0.
         23    2    1    2    0    0 -0.34720906915E+02 -0.48782449364E+02  0.37309202809E+03  0.38853149759E+03  0.90409039654E+02 0.  0.
          5    1    3    3  502    0 -0.20676664242E+02  0.24712245636E+01 -0.83591713386E+01  0.22925905445E+02  0.47000000000E+01 0. -1.
         -5    1    3    3    0  502  0.55397571157E+02  0.46311224800E+02  0.98585910896E+02  0.12229019691E+03  0.47000000000E+01 0.  1.
          5    1    4    4  503    0 -0.39995578236E+00 -0.68323093003E+02  0.24667605392E+03  0.25600658308E+03  0.47000000000E+01 0. -1.
         -5    1    4    4    0  503 -0.34320951132E+02  0.19540643639E+02  0.12641597417E+03  0.13252491451E+03  0.47000000000E+01 0.  1.
<mgrwt>
<rscale>  0 0.11242377E+03</rscale>
<asrwt>0</asrwt>
<pdfrwt beam="1">  1        1 0.76697408E-01 0.11378423E+03</pdfrwt>
<pdfrwt beam="2">  1       -1 0.54176028E-02 0.11378423E+03</pdfrwt>
<totfact> 0.67048365E+03</totfact>
</mgrwt>
</event>
<event>
 8    1  0.2964543E-004  0.9380717E+02  0.7546771E-02  0.1295224E+00
         -1   -1    0    0    0  501 -0.00000000000E+00  0.00000000000E+00  0.19926207552E+02  0.19926207552E+02  0.00000000000E+00 0.  1.
          1   -1    0    0  501    0  0.00000000000E+00 -0.00000000000E+00 -0.63490429368E+03  0.63490429368E+03  0.00000000000E+00 0. -1.
         23    2    1    2    0    0 -0.10304564350E+02 -0.20861322868E+02 -0.49570368942E+03  0.50450166817E+03  0.90875775922E+02 0.  0.
         23    2    1    2    0    0  0.10304564350E+02  0.20861322868E+02 -0.11927439671E+03  0.15032883306E+03  0.88492923446E+02 0.  0.
          5    1    3    3  502    0  0.28963405785E+02 -0.26603314360E+02 -0.38065325050E+03  0.38270824700E+03  0.47000000000E+01 0. -1.
         -5    1    3    3    0  502 -0.39267970134E+02  0.57419914920E+01 -0.11505043892E+03  0.12179342117E+03  0.47000000000E+01 0.  1.
          5    1    4    4  503    0  0.42649637301E+02  0.31471779132E+02 -0.92705098735E+02  0.10689148598E+03  0.47000000000E+01 0. -1.
         -5    1    4    4    0  503 -0.32345072952E+02 -0.10610456264E+02 -0.26569297978E+02  0.43437347081E+02  0.47000000000E+01 0.  1.
<mgrwt>
<rscale>  0 0.93225157E+02</rscale>
<asrwt>0</asrwt>
<pdfrwt beam="1">  1        1 0.97677594E-01 0.93807172E+02</pdfrwt>
<pdfrwt beam="2">  1       -1 0.30655701E-02 0.93807172E+02</pdfrwt>
<totfact> 0.11011909E+04</totfact>
</mgrwt>
</event>
<event>
 8    1  0.2964543E-004  0.1099941E+03  0.7546771E-02  0.1262088E+00
         -1   -1    0    0    0  501 -0.00000000000E+00  0.00000000000E+00  0.21219651080E+02  0.21219651080E+02  0.00000000000E+00 0.  1.
          1   -1    0    0  501    0  0.00000000000E+00 -0.00000000000E+00 -0.56494366874E+03  0.56494366874E+03  0.00000000000E+00 0. -1.
         23    2    1    2    0    0 -0.47842041934E+01 -0.58447382812E+02 -0.23441511149E+03  0.25893849821E+03  0.93057596104E+02 0.  0.
         23    2    1    2    0    0  0.47842041934E+01  0.58447382812E+02 -0.30930890617E+03  0.32722482161E+03  0.89247404864E+02 0.  0.
          5    1    3    3  502    0  0.14785472621E+02 -0.44663628883E+02 -0.22915777064E+03  0.23398466572E+03  0.47000000000E+01 0. -1.
         -5    1    4    4    0  503  0.24488214097E+01 -0.21304073849E+02 -0.33366294478E+02  0.39940704752E+02  0.47000000000E+01 0.  1.
          5    1    4    4  503    0  0.23353827837E+01  0.79751456661E+02 -0.27594261169E+03  0.28728411686E+03  0.47000000000E+01 0. -1.
         -5    1    3    3    0  502 -0.19569676814E+02 -0.13783753929E+02 -0.52573408425E+01  0.24953832486E+02  0.47000000000E+01 0.  1.
<mgrwt>
<rscale>  0 0.10918415E+03</rscale>
<asrwt>0</asrwt>
<pdfrwt beam="1">  1        1 0.86914396E-01 0.10999410E+03</pdfrwt>
<pdfrwt beam="2">  1       -1 0.32645622E-02 0.10999410E+03</pdfrwt>
<totfact> 0.11914007E+04</totfact>
</mgrwt>
</event>
<event>
 8    1  0.2964543E-004  0.9479397E+02  0.7546771E-02  0.1293569E+00
         -1   -1    0    0    0  501 -0.00000000000E+00  0.00000000000E+00  0.43584972481E+02  0.43584972481E+02  0.00000000000E+00 0.  1.
          1   -1    0    0  501    0  0.00000000000E+00 -0.00000000000E+00 -0.30721849153E+03  0.30721849153E+03  0.00000000000E+00 0. -1.
         23    2    1    2    0    0 -0.15421048669E+02  0.18963376334E+02 -0.23439735372E+03  0.25160341453E+03  0.88117764325E+02 0.  0.
         23    2    1    2    0    0  0.15421048669E+02 -0.18963376334E+02 -0.29236165329E+02  0.99200049477E+02  0.91588635043E+02 0.  0.
          5    1    4    4  502    0  0.21792548335E+02 -0.53764972780E+02 -0.24677980271E+02  0.63219302205E+02  0.47000000000E+01 0. -1.
         -5    1    4    4    0  502 -0.63714996656E+01  0.34801596447E+02 -0.45581850578E+01  0.35980747272E+02  0.47000000000E+01 0.  1.
          5    1    3    3  503    0  0.29499915148E+02 -0.16064514463E+02 -0.98470655203E+02  0.10414832478E+03  0.47000000000E+01 0. -1.
         -5    1    3    3    0  503 -0.44920963817E+02  0.35027890797E+02 -0.13592669852E+03  0.14745508975E+03  0.47000000000E+01 0.  1.
<mgrwt>
<rscale>  0 0.93945359E+02</rscale>
<asrwt>0</asrwt>
<pdfrwt beam="1">  1        1 0.47264383E-01 0.94793968E+02</pdfrwt>
<pdfrwt beam="2">  1       -1 0.67053805E-02 0.94793968E+02</pdfrwt>
<totfact> 0.88419998E+03</totfact>
</mgrwt>
</event>
<event>
 8    1  0.2964543E-004  0.1222790E+03  0.7546771E-02  0.1245540E+00
          3   -1    0    0  501    0  0.00000000000E+00  0.00000000000E+00  0.98408628907E+03  0.98408628907E+03  0.00000000000E+00 0. -1.
         -3   -1    0    0    0  501 -0.00000000000E+00 -0.00000000000E+00 -0.13539884173E+02  0.13539884173E+02  0.00000000000E+00 0.  1.
         23    2    1    2    0    0 -0.73557054004E+01  0.20427747901E+02  0.55179057051E+03  0.56517694994E+03  0.12033599523E+03 0.  0.
         23    2    1    2    0    0  0.73557054004E+01 -0.20427747901E+02  0.41875583438E+03  0.43244922330E+03  0.10575671430E+03 0.  0.
          5    1    3    3  502    0  0.16075239340E+02 -0.40727387870E+02  0.10923677218E+03  0.11777901273E+03  0.47000000000E+01 0. -1.
         -5    1    4    4    0  503  0.56896599049E+01  0.42786652016E+02  0.14030680524E+03  0.14687123414E+03  0.47000000000E+01 0.  1.
          5    1    4    4  503    0  0.16660454955E+01 -0.63214399917E+02  0.27844902914E+03  0.28557798916E+03  0.47000000000E+01 0. -1.
         -5    1    3    3    0  502 -0.23430944740E+02  0.61155135771E+02  0.44255379833E+03  0.44739793721E+03  0.47000000000E+01 0.  1.
<mgrwt>
<rscale>  0 0.11853102E+03</rscale>
<asrwt>0</asrwt>
<pdfrwt beam="1">  1        3 0.15139783E+00 0.12227899E+03</pdfrwt>
<pdfrwt beam="2">  1       -3 0.20830599E-02 0.12227899E+03</pdfrwt>
<totfact> 0.68729329E+02</totfact>
</mgrwt>
</event>
<event>
 8    1  0.2964543E-004  0.1062294E+03  0.7546771E-02  0.1268393E+00
         -1   -1    0    0    0  501 -0.00000000000E+00  0.00000000000E+00  0.25653417579E+02  0.25653417579E+02  0.00000000000E+00 0.  1.
          1   -1    0    0  501    0  0.00000000000E+00 -0.00000000000E+00 -0.59682905181E+03  0.59682905181E+03  0.00000000000E+00 0. -1.
         23    2    1    2    0    0  0.11077780648E+02 -0.50643160431E+02 -0.12447051009E+03  0.16363857726E+03  0.92721244406E+02 0.  0.
         23    2    1    2    0    0 -0.11077780648E+02  0.50643160431E+02 -0.44670512414E+03  0.45884389212E+03  0.91130689039E+02 0.  0.
          5    1    4    4  502    0 -0.41413152284E+02  0.38251715453E+02 -0.38195975006E+03  0.38612638291E+03  0.47000000000E+01 0. -1.
         -5    1    4    4    0  502  0.30335371636E+02  0.12391444978E+02 -0.64745374082E+02  0.72717509212E+02  0.47000000000E+01 0.  1.
          5    1    3    3  503    0 -0.32483555281E+02 -0.35763411322E+02 -0.10031221807E+03  0.11143982254E+03  0.47000000000E+01 0. -1.
         -5    1    3    3    0  503  0.43561335929E+02 -0.14879749109E+02 -0.24158292016E+02  0.52198754723E+02  0.47000000000E+01 0.  1.
<mgrwt>
<rscale>  0 0.10588129E+03</rscale>
<asrwt>0</asrwt>
<pdfrwt beam="1">  1        1 0.91819842E-01 0.10622936E+03</pdfrwt>
<pdfrwt beam="2">  1       -1 0.39466802E-02 0.10622936E+03</pdfrwt>
<totfact> 0.83783306E+03</totfact>
</mgrwt>
</event>
<event>
 8    1  0.2964543E-004  0.1009885E+03  0.7546771E-02  0.1278758E+00
          1   -1    0    0  501    0  0.00000000000E+00  0.00000000000E+00  0.33563861746E+03  0.33563861746E+03  0.00000000000E+00 0. -1.
         -1   -1    0    0    0  501 -0.00000000000E+00 -0.00000000000E+00 -0.30142847052E+02  0.30142847052E+02  0.00000000000E+00 0.  1.
         23    2    1    2    0    0  0.76582719783E+01  0.39959612878E+02  0.16169580298E+03  0.19064156544E+03  0.92429724547E+02 0.  0.
         23    2    1    2    0    0 -0.76582719783E+01 -0.39959612878E+02  0.14379996743E+03  0.17513989907E+03  0.91324333146E+02 0.  0.
          5    1    3    3  502    0  0.24165348193E+02  0.61405060773E+02  0.14256896091E+03  0.15717043029E+03  0.47000000000E+01 0. -1.
         -5    1    3    3    0  502 -0.16507076215E+02 -0.21445447895E+02  0.19126842068E+02  0.33471135147E+02  0.47000000000E+01 0.  1.
          5    1    4    4  503    0 -0.34896543659E+02 -0.36756919235E+02  0.13748708616E+03  0.14660705553E+03  0.47000000000E+01 0. -1.
         -5    1    4    4    0  503  0.27238271680E+02 -0.32026936433E+01  0.63128812671E+01  0.28532843542E+02  0.47000000000E+01 0.  1.
<mgrwt>
<rscale>  0 0.10073485E+03</rscale>
<asrwt>0</asrwt>
<pdfrwt beam="1">  1        1 0.51636708E-01 0.10098848E+03</pdfrwt>
<pdfrwt beam="2">  1       -1 0.46373613E-02 0.10098848E+03</pdfrwt>
<totfact> 0.13727242E+04</totfact>
</mgrwt>
</event>
<event>
 8    1  0.2964543E-004  0.1053122E+03  0.7546771E-02  0.1270001E+00
         -1   -1    0    0    0  501 -0.00000000000E+00  0.00000000000E+00  0.11787243366E+03  0.11787243366E+03  0.00000000000E+00 0.  1.
          1   -1    0    0  501    0  0.00000000000E+00 -0.00000000000E+00 -0.96073819320E+02  0.96073819320E+02  0.00000000000E+00 0. -1.
         23    2    1    2    0    0 -0.50552402801E+02  0.10827560935E+02  0.29463444235E+02  0.10935606891E+03  0.91748971419E+02 0.  0.
         23    2    1    2    0    0  0.50552402801E+02 -0.10827560935E+02 -0.76648299004E+01  0.10459018407E+03  0.90595670320E+02 0.  0.
          5    1    3    3  502    0  0.23003240688E+02 -0.62910947426E+01  0.22915722907E+02  0.33405797574E+02  0.47000000000E+01 0. -1.
         -5    1    4    4    0  503  0.63887116214E+02  0.22288522984E+02 -0.97406634337E+01  0.68522349631E+02  0.47000000000E+01 0.  1.
          5    1    4    4  503    0 -0.13334713412E+02 -0.33116083919E+02  0.20758335333E+01  0.36067834434E+02  0.47000000000E+01 0. -1.
         -5    1    3    3    0  502 -0.73555643490E+02  0.17118655678E+02  0.65477213285E+01  0.75950271336E+02  0.47000000000E+01 0.  1.
<mgrwt>
<rscale>  0 0.10506047E+03</rscale>
<asrwt>0</asrwt>
<pdfrwt beam="1">  1        1 0.14780588E-01 0.10531218E+03</pdfrwt>
<pdfrwt beam="2">  1       -1 0.18134221E-01 0.10531218E+03</pdfrwt>
<totfact> 0.83077605E+03</totfact>
</mgrwt>
</event>
<event>
 8    1  0.2964543E-004  0.1057359E+03  0.7546771E-02  0.1271594E+00
          2   -1    0    0  501    0  0.00000000000E+00  0.00000000000E+00  0.53288227119E+02  0.53288227119E+02  0.00000000000E+00 0. -1.
         -2   -1    0    0    0  501 -0.00000000000E+00 -0.00000000000E+00 -0.31242289451E+03  0.31242289451E+03  0.00000000000E+00 0.  1.
         23    2    1    2    0    0  0.31698249247E+02 -0.24400445087E+02 -0.23765910443E+03  0.25781634255E+03  0.91581962408E+02 0.  0.
         23    2    1    2    0    0 -0.31698249247E+02  0.24400445087E+02 -0.21475562962E+02  0.10789477909E+03  0.97877080175E+02 0.  0.
          5    1    4    4  502    0 -0.20796363805E+02  0.32661205437E+01  0.37985595251E+02  0.43682396197E+02  0.47000000000E+01 0. -1.
         -5    1    3    3    0  503 -0.10463406405E+02 -0.38239221372E+02 -0.18275949072E+03  0.18706908449E+03  0.47000000000E+01 0.  1.
          5    1    3    3  503    0  0.42161655653E+02  0.13838776285E+02 -0.54899613716E+02  0.70747258057E+02  0.47000000000E+01 0. -1.
         -5    1    4    4    0  502 -0.10901885443E+02  0.21134324543E+02 -0.59461158214E+02  0.64212382889E+02  0.47000000000E+01 0.  1.
<mgrwt>
<rscale>  0 0.10425540E+03</rscale>
<asrwt>0</asrwt>
<pdfrwt beam="1">  1        2 0.81981888E-02 0.10573591E+03</pdfrwt>
<pdfrwt beam="2">  1       -2 0.48065060E-01 0.10573591E+03</pdfrwt>
<totfact> 0.32246237E+03</totfact>
</mgrwt>
</event>
<event>
 8    1  0.2964543E-004  0.1143922E+03  0.7546771E-02  0.1252972E+00
          1   -1    0    0  501    0  0.00000000000E+00  0.00000000000E+00  0.92289002793E+02  0.92289002793E+02  0.00000000000E+00 0. -1.
         -1   -1    0    0    0  501 -0.00000000000E+00 -0.00000000000E+00 -0.22342433672E+03  0.22342433672E+03  0.00000000000E+00 0.  1.
         23    2    1    2    0    0 -0.11572417158E+02  0.67642558108E+02 -0.16165355738E+03  0.19803398102E+03  0.91521300906E+02 0.  0.
         23    2    1    2    0    0  0.11572417158E+02 -0.67642558108E+02  0.30518223456E+02  0.11767935849E+03  0.90595987467E+02 0.  0.
          5    1    3    3  502    0 -0.44400282107E+02  0.58802156379E+02 -0.76951900072E+02  0.10664315998E+03  0.47000000000E+01 0. -1.
         -5    1    4    4    0  503  0.47654742702E+02 -0.59296939674E+02  0.22831908956E+02  0.79564361515E+02  0.47000000000E+01 0.  1.
          5    1    4    4  503    0 -0.36082325544E+02 -0.83456184338E+01  0.76863144998E+01  0.38114996974E+02  0.47000000000E+01 0. -1.
         -5    1    3    3    0  502  0.32827864949E+02  0.88404017293E+01 -0.84701657311E+02  0.91390821044E+02  0.47000000000E+01 0.  1.
<mgrwt>
<rscale>  0 0.11420705E+03</rscale>
<asrwt>0</asrwt>
<pdfrwt beam="1">  1        1 0.14198308E-01 0.11439224E+03</pdfrwt>
<pdfrwt beam="2">  1       -1 0.34372974E-01 0.11439224E+03</pdfrwt>
<totfact> 0.30904911E+03</totfact>
</mgrwt>
</event>
<event>
 8    1  0.2964543E-004  0.1074720E+03  0.7546771E-02  0.1269559E+00
         -2   -1    0    0    0  501 -0.00000000000E+00  0.00000000000E+00  0.34496407495E+02  0.34496407495E+02  0.00000000000E+00 0.  1.
          2   -1    0    0  501    0  0.00000000000E+00 -0.00000000000E+00 -0.36218965447E+03  0.36218965447E+03  0.00000000000E+00 0. -1.
         23    2    1    2    0    0 -0.26964629040E+02 -0.32044500750E+02 -0.23411887331E+03  0.25418559220E+03  0.89692403214E+02 0.  0.
         23    2    1    2    0    0  0.26964629040E+02  0.32044500750E+02 -0.93574373672E+02  0.14250046977E+03  0.98976154853E+02 0.  0.
          5    1    3    3  502    0 -0.21840718235E+02  0.22940565652E+02 -0.15048719071E+03  0.15385633264E+03  0.47000000000E+01 0. -1.
         -5    1    3    3    0  502 -0.51239108049E+01 -0.54985066403E+02 -0.83631682593E+02  0.10032925955E+03  0.47000000000E+01 0.  1.
          5    1    4    4  503    0  0.60650738061E+00  0.64862517003E+02 -0.53924934205E+02  0.84483740993E+02  0.47000000000E+01 0. -1.
         -5    1    4    4    0  503  0.26358121659E+02 -0.32818016252E+02 -0.39649439467E+02  0.58016728778E+02  0.47000000000E+01 0.  1.
<mgrwt>
<rscale>  0 0.10528518E+03</rscale>
<asrwt>0</asrwt>
<pdfrwt beam="1">  1        2 0.55721485E-01 0.10747195E+03</pdfrwt>
<pdfrwt beam="2">  1       -2 0.53071396E-02 0.10747195E+03</pdfrwt>
<totfact> 0.14680171E+04</totfact>
</mgrwt>
</event>
<event>
 8    1  0.2964543E-004  0.1052899E+03  0.7546771E-02  0.1275674E+00
         -1   -1    0    0    0  501 -0.00000000000E+00  0.00000000000E+00  0.99587088012E+01  0.99587088012E+01  0.00000000000E+00 0.  1.
          1   -1    0    0  501    0  0.00000000000E+00 -0.00000000000E+00 -0.10626872565E+04  0.10626872565E+04  0.00000000000E+00 0. -1.
         23    2    1    2    0    0  0.11648551064E+02  0.10600439610E+02 -0.63472918779E+03  0.64158977713E+03  0.92240133488E+02 0.  0.
         23    2    1    2    0    0 -0.11648551064E+02 -0.10600439610E+02 -0.41799935990E+03  0.43105618816E+03  0.10410530444E+03 0.  0.
          5    1    4    4  502    0 -0.54801233180E+02  0.10681817111E+02 -0.19583818781E+03  0.20369575886E+03  0.47000000000E+01 0. -1.
         -5    1    3    3    0  503  0.47449749444E+02  0.18278135457E+02 -0.47048396228E+03  0.47324710006E+03  0.47000000000E+01 0.  1.
          5    1    3    3  503    0 -0.35801198380E+02 -0.76776958467E+01 -0.16424522551E+03  0.16834267707E+03  0.47000000000E+01 0. -1.
         -5    1    4    4    0  502  0.43152682116E+02 -0.21282256721E+02 -0.22216117209E+03  0.22736042929E+03  0.47000000000E+01 0.  1.
<mgrwt>
<rscale>  0 0.10223045E+03</rscale>
<asrwt>0</asrwt>
<pdfrwt beam="1">  1        1 0.16349045E+00 0.10528994E+03</pdfrwt>
<pdfrwt beam="2">  1       -1 0.15321081E-02 0.10528994E+03</pdfrwt>
<totfact> 0.13728023E+04</totfact>
</mgrwt>
</event>
<event>
 8    1  0.2964543E-004  0.9225222E+02  0.7546771E-02  0.1297596E+00
          1   -1    0    0  501    0  0.00000000000E+00  0.00000000000E+00  0.17595369160E+03  0.17595369160E+03  0.00000000000E+00 0. -1.
         -1   -1    0    0    0  501 -0.00000000000E+00 -0.00000000000E+00 -0.90192181195E+02  0.90192181195E+02  0.00000000000E+00 0.  1.
         23    2    1    2    0    0  0.93451848096E+01 -0.20475270195E+02 -0.47820322328E+02  0.10390983787E+03  0.89464529342E+02 0.  0.
         23    2    1    2    0    0 -0.93451848096E+01  0.20475270195E+02  0.13358183274E+03  0.16223603493E+03  0.89274048988E+02 0.  0.
          5    1    4    4  502    0 -0.18053992306E+01 -0.27716591520E+02  0.11034827585E+02  0.30254360540E+02  0.47000000000E+01 0. -1.
         -5    1    4    4    0  502 -0.75397855790E+01  0.48191861715E+02  0.12254700515E+03  0.13198167439E+03  0.47000000000E+01 0.  1.
          5    1    3    3  503    0  0.32660082392E+02 -0.37931272032E+02 -0.31459969267E+01  0.50373104693E+02  0.47000000000E+01 0. -1.
         -5    1    3    3    0  503 -0.23314897582E+02  0.17456001837E+02 -0.44674325401E+02  0.53536733179E+02  0.47000000000E+01 0.  1.
<mgrwt>
<rscale>  0 0.92206002E+02</rscale>
<asrwt>0</asrwt>
<pdfrwt beam="1">  1        1 0.27069799E-01 0.92252215E+02</pdfrwt>
<pdfrwt beam="2">  1       -1 0.13875720E-01 0.92252215E+02</pdfrwt>
<totfact> 0.58261713E+03</totfact>
</mgrwt>
</event>
<event>
 8    1  0.2964543E-004  0.1015593E+03  0.7546771E-02  0.1277880E+00
         -1   -1    0    0    0  501 -0.00000000000E+00  0.00000000000E+00  0.12223425696E+03  0.12223425696E+03  0.00000000000E+00 0.  1.
          1   -1    0    0  501    0  0.00000000000E+00 -0.00000000000E+00 -0.12465458479E+03  0.12465458479E+03  0.00000000000E+00 0. -1.
         23    2    1    2    0    0 -0.33400585516E+02  0.28783612262E+02  0.70089900071E+02  0.12339722871E+03  0.91488723427E+02 0.  0.
         23    2    1    2    0    0  0.33400585516E+02 -0.28783612262E+02 -0.72510227899E+02  0.12349161304E+03  0.89712596077E+02 0.  0.
          5    1    4    4  502    0  0.14895090576E+02  0.16772504087E+02 -0.70415961076E+02  0.74051861495E+02  0.47000000000E+01 0. -1.
         -5    1    4    4    0  502  0.18505494940E+02 -0.45556116349E+02 -0.20942668233E+01  0.49439751550E+02  0.47000000000E+01 0.  1.
          5    1    3    3  503    0  0.30725926865E+02  0.18002713370E+02  0.19475624107E+02  0.40860374506E+02  0.47000000000E+01 0. -1.
         -5    1    3    3    0  503 -0.64126512381E+02  0.10780898892E+02  0.50614275964E+02  0.82536854207E+02  0.47000000000E+01 0.  1.
<mgrwt>
<rscale>  0 0.10115762E+03</rscale>
<asrwt>0</asrwt>
<pdfrwt beam="1">  1        1 0.19177628E-01 0.10155925E+03</pdfrwt>
<pdfrwt beam="2">  1       -1 0.18805270E-01 0.10155925E+03</pdfrwt>
<totfact> 0.56117651E+03</totfact>
</mgrwt>
</event>
<event>
 8    1  0.4824781E-004  0.1703201E+03  0.7546771E-02  0.1184721E+00
         -1   -1    0    0    0  501 -0.00000000000E+00  0.00000000000E+00  0.40079481310E+02  0.40079481310E+02  0.00000000000E+00 0.  1.
          1   -1    0    0  501    0  0.00000000000E+00 -0.00000000000E+00 -0.15315138089E+04  0.15315138089E+04  0.00000000000E+00 0. -1.
         23    2    1    2    0    0  0.89572111909E+02  0.68299206617E+02 -0.13268756875E+04  0.13347632022E+04  0.91136002859E+02 0.  0.
         23    2    1    2    0    0 -0.89572111909E+02 -0.68299206617E+02 -0.16455864007E+03  0.23683008799E+03  0.12775366804E+03 0.  0.
          5    1    4    4  502    0 -0.34356056518E+02  0.23903722805E+02 -0.10663779353E+03  0.11465354592E+03  0.47000000000E+01 0. -1.
         -5    1    4    4    0  502 -0.55216055390E+02 -0.92202929422E+02 -0.57920846535E+02  0.12217654206E+03  0.47000000000E+01 0.  1.
          5    1    3    3  503    0  0.76959235735E+02  0.90490484252E+02 -0.11027686231E+04  0.11091582294E+04  0.47000000000E+01 0. -1.
         -5    1    3    3    0  503  0.12612876174E+02 -0.22191277635E+02 -0.22410706440E+03  0.22560497282E+03  0.47000000000E+01 0.  1.
<mgrwt>
<rscale>  0 0.16357263E+03</rscale>
<asrwt>0</asrwt>
<pdfrwt beam="1">  1        1 0.23561749E+00 0.17032012E+03</pdfrwt>
<pdfrwt beam="2">  1       -1 0.61660744E-02 0.17032012E+03</pdfrwt>
<totfact> 0.88285833E+02</totfact>
</mgrwt>
</event>
<event>
 8    1  0.2964543E-004  0.9711776E+02  0.7546771E-02  0.1287077E+00
          1   -1    0    0  501    0  0.00000000000E+00  0.00000000000E+00  0.56437091380E+02  0.56437091380E+02  0.00000000000E+00 0. -1.
         -1   -1    0    0    0  501 -0.00000000000E+00 -0.00000000000E+00 -0.20067870404E+03  0.20067870404E+03  0.00000000000E+00 0.  1.
         23    2    1    2    0    0 -0.22661195551E+02  0.22921959124E+02 -0.17766539890E+02  0.97654818952E+02  0.90453677266E+02 0.  0.
         23    2    1    2    0    0  0.22661195551E+02 -0.22921959124E+02 -0.12647507277E+03  0.15946097647E+03  0.91612842933E+02 0.  0.
          5    1    4    4  502    0  0.44708443576E+02  0.18562943383E+02 -0.76987660343E+02  0.91063810810E+02  0.47000000000E+01 0. -1.
         -5    1    4    4    0  502 -0.22047248025E+02 -0.41484902506E+02 -0.49487412427E+02  0.68397165659E+02  0.47000000000E+01 0.  1.
          5    1    3    3  503    0  0.24372692610E+02  0.35777227297E+02  0.46349473286E+01  0.43790534079E+02  0.47000000000E+01 0. -1.
         -5    1    3    3    0  503 -0.47033888160E+02 -0.12855268174E+02 -0.22401487219E+02  0.53864284873E+02  0.47000000000E+01 0.  1.
<mgrwt>
<rscale>  0 0.96843426E+02</rscale>
<asrwt>0</asrwt>
<pdfrwt beam="1">  1        1 0.86826293E-02 0.97117758E+02</pdfrwt>
<pdfrwt beam="2">  1       -1 0.30873647E-01 0.97117758E+02</pdfrwt>
<totfact> 0.69670341E+03</totfact>
</mgrwt>
</event>
<event>
 8    1  0.2964543E-004  0.2103606E+03  0.7546771E-02  0.1141325E+00
          1   -1    0    0  501    0  0.00000000000E+00  0.00000000000E+00  0.56355571300E+03  0.56355571300E+03  0.00000000000E+00 0. -1.
         -1   -1    0    0    0  501 -0.00000000000E+00 -0.00000000000E+00 -0.89703122907E+02  0.89703122907E+02  0.00000000000E+00 0.  1.
         23    2    1    2    0    0 -0.70426979794E+02  0.17612366264E+03  0.12107207702E+03  0.24252090024E+03  0.90434701268E+02 0.  0.
         23    2    1    2    0    0  0.70426979794E+02 -0.17612366264E+03  0.35278051308E+03  0.41073793567E+03  0.90950851398E+02 0.  0.
          5    1    4    4  502    0  0.31181006527E+02 -0.16549540814E+03  0.26728588747E+03  0.31595066217E+03  0.47000000000E+01 0. -1.
         -5    1    4    4    0  502  0.39245973267E+02 -0.10628254504E+02  0.85494625604E+02  0.94787273506E+02  0.47000000000E+01 0.  1.
          5    1    3    3  503    0 -0.22641694490E+02  0.27347652762E+02 -0.11426386009E+02  0.37592455868E+02  0.47000000000E+01 0. -1.
         -5    1    3    3    0  503 -0.47785285304E+02  0.14877600988E+03  0.13249846303E+03  0.20492844437E+03  0.47000000000E+01 0.  1.
<mgrwt>
<rscale>  0 0.21030487E+03</rscale>
<asrwt>0</asrwt>
<pdfrwt beam="1">  1        1 0.86700877E-01 0.21036055E+03</pdfrwt>
<pdfrwt beam="2">  1       -1 0.13800481E-01 0.21036055E+03</pdfrwt>
<totfact> 0.14053178E+03</totfact>
</mgrwt>
</event>
<event>
 8    1  0.2964543E-004  0.1028583E+03  0.7546771E-02  0.1276500E+00
         -2   -1    0    0    0  501 -0.00000000000E+00  0.00000000000E+00  0.37601198337E+02  0.37601198337E+02  0.00000000000E+00 0.  1.
          2   -1    0    0  501    0  0.00000000000E+00 -0.00000000000E+00 -0.48098027998E+03  0.48098027998E+03  0.00000000000E+00 0. -1.
         23    2    1    2    0    0 -0.41992129341E+02 -0.22718989281E+02 -0.52639268015E+02  0.11554532526E+03  0.91106192164E+02 0.  0.
         23    2    1    2    0    0  0.41992129341E+02  0.22718989281E+02 -0.39073981363E+03  0.40303615306E+03  0.86493047818E+02 0.  0.
          5    1    4    4  502    0  0.37589919441E+02  0.54497633678E+02 -0.26226266638E+03  0.27053057183E+03  0.47000000000E+01 0. -1.
         -5    1    3    3    0  503 -0.36270477933E+02 -0.43634430252E+02  0.15852131822E+01  0.56957123994E+02  0.47000000000E+01 0.  1.
          5    1    3    3  503    0 -0.57216514077E+01  0.20915440971E+02 -0.54224481197E+02  0.58588201261E+02  0.47000000000E+01 0. -1.
         -5    1    4    4    0  502  0.44022098997E+01 -0.31778644397E+02 -0.12847714725E+03  0.13250558123E+03  0.47000000000E+01 0.  1.
<mgrwt>
<rscale>  0 0.10182718E+03</rscale>
<asrwt>0</asrwt>
<pdfrwt beam="1">  1        2 0.73996965E-01 0.10285830E+03</pdfrwt>
<pdfrwt beam="2">  1       -2 0.57847999E-02 0.10285830E+03</pdfrwt>
<totfact> 0.95043976E+03</totfact>
</mgrwt>
</event>
<event>
 7    1  0.2964543E-004  0.1344838E+03  0.7546771E-02  0.1235915E+00
         -2   -1    0    0    0  501 -0.00000000000E+00  0.00000000000E+00  0.35015414871E+03  0.35015414871E+03  0.00000000000E+00 0.  1.
          2   -1    0    0  501    0  0.00000000000E+00 -0.00000000000E+00 -0.40739347705E+02  0.40739347705E+02  0.00000000000E+00 0. -1.
         23    2    1    2    0    0 -0.15747857393E+02 -0.33877944316E+02  0.17414511986E+03  0.20014815496E+03  0.91307453350E+02 0.  0.
          5    1    1    2  502    0 -0.53793106594E+02  0.34096257739E+02  0.75856851522E+02  0.99159492898E+02  0.47000000000E+01 0. -1.
         -5    1    3    3    0  503  0.30897734264E+02 -0.29272528855E+02  0.12473514348E+03  0.13188061627E+03  0.47000000000E+01 0.  1.
          5    1    3    3  503    0 -0.46645591657E+02 -0.46054154612E+01  0.49409976381E+02  0.68267538688E+02  0.47000000000E+01 0. -1.
         -5    1    1    2    0  502  0.69540963986E+02 -0.21831342273E+00  0.59412829619E+02  0.91585848559E+02  0.47000000000E+01 0.  1.
<mgrwt>
<rscale>  0 0.12446064E+03</rscale>
<asrwt>0</asrwt>
<pdfrwt beam="1">  1        2 0.62675922E-02 0.13448382E+03</pdfrwt>
<pdfrwt beam="2">  1       -2 0.53869867E-01 0.13448382E+03</pdfrwt>
<totfact> 0.36734831E+03</totfact>
</mgrwt>
</event>
<event>
 8    1  0.2964543E-004  0.9446867E+02  0.7546771E-02  0.1292401E+00
         -2   -1    0    0    0  501 -0.00000000000E+00  0.00000000000E+00  0.18980123394E+02  0.18980123394E+02  0.00000000000E+00 0.  1.
          2   -1    0    0  501    0  0.00000000000E+00 -0.00000000000E+00 -0.47350141253E+03  0.47350141253E+03  0.00000000000E+00 0. -1.
         23    2    1    2    0    0 -0.15325802618E+02  0.89357404968E+01 -0.20599334452E+03  0.22660474190E+03  0.92745476349E+02 0.  0.
         23    2    1    2    0    0  0.15325802618E+02 -0.89357404968E+01 -0.24852794461E+03  0.26587679402E+03  0.92787944575E+02 0.  0.
          5    1    3    3  502    0  0.13449710855E+01 -0.30720556269E+02 -0.16176086360E+03  0.16472470524E+03  0.47000000000E+01 0. -1.
         -5    1    4    4    0  503 -0.18803552708E+02 -0.41412721820E+02 -0.99374436218E+02  0.10938901086E+03  0.47000000000E+01 0.  1.
          5    1    4    4  503    0  0.34129355325E+02  0.32476981324E+02 -0.14915350840E+03  0.15648778316E+03  0.47000000000E+01 0. -1.
         -5    1    3    3    0  502 -0.16670773703E+02  0.39656296766E+02 -0.44232480921E+02  0.61880036663E+02  0.47000000000E+01 0.  1.
<mgrwt>
<rscale>  0 0.94458244E+02</rscale>
<asrwt>0</asrwt>
<pdfrwt beam="1">  1        2 0.72846367E-01 0.94468674E+02</pdfrwt>
<pdfrwt beam="2">  1       -2 0.29200191E-02 0.94468674E+02</pdfrwt>
<totfact> 0.26315801E+04</totfact>
</mgrwt>
</event>
<event>
 8    1  0.2964543E-004  0.1145823E+03  0.7546771E-02  0.1253618E+00
         -3   -1    0    0    0  501 -0.00000000000E+00  0.00000000000E+00  0.42806361920E+02  0.42806361920E+02  0.00000000000E+00 0.  1.
          3   -1    0    0  501    0  0.00000000000E+00 -0.00000000000E+00 -0.34821124459E+03  0.34821124459E+03  0.00000000000E+00 0. -1.
         23    2    1    2    0    0 -0.20511706682E+02  0.67829196389E+02 -0.77431850809E+02  0.13586900546E+03  0.86273780087E+02 0.  0.
         23    2    1    2    0    0  0.20511706682E+02 -0.67829196389E+02 -0.22797303186E+03  0.25514860105E+03  0.90042075548E+02 0.  0.
          5    1    3    3  502    0 -0.86232738917E+01 -0.19079292158E+02 -0.27309994770E+02  0.34731916967E+02  0.47000000000E+01 0. -1.
         -5    1    4    4    0  503 -0.15990883298E+01 -0.84250498058E+02 -0.14717740231E+03  0.16965842525E+03  0.47000000000E+01 0.  1.
          5    1    4    4  503    0  0.22110795012E+02  0.16421301669E+02 -0.80795629551E+02  0.85490175805E+02  0.47000000000E+01 0. -1.
         -5    1    3    3    0  502 -0.11888432791E+02  0.86908488546E+02 -0.50121856039E+02  0.10113708849E+03  0.47000000000E+01 0.  1.
<mgrwt>
<rscale>  0 0.11384092E+03</rscale>
<asrwt>0</asrwt>
<pdfrwt beam="1">  1        3 0.53570960E-01 0.11458231E+03</pdfrwt>
<pdfrwt beam="2">  1       -3 0.65855943E-02 0.11458231E+03</pdfrwt>
<totfact> 0.11402280E+03</totfact>
</mgrwt>
</event>
<event>
 8    1  0.2964543E-004  0.9735240E+02  0.7546771E-02  0.1287541E+00
          4   -1    0    0  501    0  0.00000000000E+00  0.00000000000E+00  0.21359274021E+03  0.21359274021E+03  0.00000000000E+00 0. -1.
         -4   -1    0    0    0  501 -0.00000000000E+00 -0.00000000000E+00 -0.58235075861E+02  0.58235075861E+02  0.00000000000E+00 0.  1.
         23    2    1    2    0    0 -0.14020081481E+02 -0.13528602899E+02  0.14785229447E+03  0.17702483235E+03  0.95382936133E+02 0.  0.
         23    2    1    2    0    0  0.14020081481E+02  0.13528602899E+02  0.75053698774E+01  0.94802983725E+02  0.92475344634E+02 0.  0.
          5    1    3    3  502    0 -0.28297728499E+02  0.31116420119E+02  0.10552249352E+03  0.11369291832E+03  0.47000000000E+01 0. -1.
         -5    1    3    3    0  502  0.14277647018E+02 -0.44645023019E+02  0.42329800956E+02  0.63331914022E+02  0.47000000000E+01 0.  1.
          5    1    4    4  503    0  0.18459818274E+02  0.34424226869E+02 -0.31288418628E+02  0.50267757325E+02  0.47000000000E+01 0. -1.
         -5    1    4    4    0  503 -0.44397367924E+01 -0.20895623970E+02  0.38793788506E+02  0.44535226400E+02  0.47000000000E+01 0.  1.
<mgrwt>
<rscale>  0 0.96632717E+02</rscale>
<asrwt>0</asrwt>
<pdfrwt beam="1">  1        4 0.32860421E-01 0.97352403E+02</pdfrwt>
<pdfrwt beam="2">  1       -4 0.89592426E-02 0.97352403E+02</pdfrwt>
<totfact> 0.12455436E+03</totfact>
</mgrwt>
</event>
<event>
 8    1  0.2964543E-004  0.9182131E+02  0.7546771E-02  0.1301529E+00
         -1   -1    0    0    0  501 -0.00000000000E+00  0.00000000000E+00  0.10476079195E+04  0.10476079195E+04  0.00000000000E+00 0.  1.
          1   -1    0    0  501    0  0.00000000000E+00 -0.00000000000E+00 -0.89256029067E+01  0.89256029067E+01  0.00000000000E+00 0. -1.
         23    2    1    2    0    0 -0.10810072920E+02  0.35133254261E+01  0.73392332620E+03  0.73964491600E+03  0.91115047551E+02 0.  0.
         23    2    1    2    0    0  0.10810072920E+02 -0.35133254261E+01  0.30475899044E+03  0.31688860645E+03  0.86088010284E+02 0.  0.
          5    1    4    4  502    0  0.34379896773E+02  0.94362006112E+01  0.55450752883E+02  0.66090053559E+02  0.47000000000E+01 0. -1.
         -5    1    4    4    0  502 -0.23569823853E+02 -0.12949526037E+02  0.24930823755E+03  0.25079855289E+03  0.47000000000E+01 0.  1.
          5    1    3    3  503    0 -0.18401150665E+02 -0.41653056905E+02  0.36321468253E+03  0.36608820672E+03  0.47000000000E+01 0. -1.
         -5    1    3    3    0  503  0.75910777447E+01  0.45166382331E+02  0.37070864367E+03  0.37355670928E+03  0.47000000000E+01 0.  1.
<mgrwt>
<rscale>  0 0.90548556E+02</rscale>
<asrwt>0</asrwt>
<pdfrwt beam="1">  1        1 0.13731705E-02 0.91821310E+02</pdfrwt>
<pdfrwt beam="2">  1       -1 0.16117035E+00 0.91821310E+02</pdfrwt>
<totfact> 0.30149104E+03</totfact>
</mgrwt>
</event>
<event>
 8    1  0.2964543E-004  0.1400619E+03  0.7546771E-02  0.1214648E+00
         -1   -1    0    0    0  501 -0.00000000000E+00  0.00000000000E+00  0.15935026798E+02  0.15935026798E+02  0.00000000000E+00 0.  1.
          1   -1    0    0  501    0  0.00000000000E+00 -0.00000000000E+00 -0.14204687126E+04  0.14204687126E+04  0.00000000000E+00 0. -1.
         23    2    1    2    0    0  0.44382523828E+02  0.91548371378E+02 -0.40753635924E+03  0.42961627213E+03  0.90185056724E+02 0.  0.
         23    2    1    2    0    0 -0.44382523828E+02 -0.91548371378E+02 -0.99699732658E+03  0.10067874673E+04  0.96262258148E+02 0.  0.
          5    1    4    4  502    0  0.19879491409E+02 -0.67468768879E+02 -0.45141064179E+03  0.45688169855E+03  0.47000000000E+01 0. -1.
         -5    1    4    4    0  502 -0.64262015237E+02 -0.24079602498E+02 -0.54558668479E+03  0.54990576873E+03  0.47000000000E+01 0.  1.
          5    1    3    3  503    0 -0.25850854212E+02  0.97678415328E+01 -0.87287532422E+02  0.91678136477E+02  0.47000000000E+01 0. -1.
         -5    1    3    3    0  503  0.70233378039E+02  0.81780529845E+02 -0.32024882682E+03  0.33793813565E+03  0.47000000000E+01 0.  1.
<mgrwt>
<rscale>  0 0.13902415E+03</rscale>
<asrwt>0</asrwt>
<pdfrwt beam="1">  1        1 0.21853369E+00 0.14006190E+03</pdfrwt>
<pdfrwt beam="2">  1       -1 0.24515421E-02 0.14006190E+03</pdfrwt>
<totfact> 0.40559537E+03</totfact>
</mgrwt>
</event>
<event>
 8    1  0.2964543E-004  0.9944475E+02  0.7546771E-02  0.1281887E+00
         -1   -1    0    0    0  501 -0.00000000000E+00  0.00000000000E+00  0.23630830091E+02  0.23630830091E+02  0.00000000000E+00 0.  1.
          1   -1    0    0  501    0  0.00000000000E+00 -0.00000000000E+00 -0.42173563795E+03  0.42173563795E+03  0.00000000000E+00 0. -1.
         23    2    1    2    0    0  0.34909643032E+02  0.11810325866E+02 -0.17051653095E+03  0.19700044288E+03  0.91515682794E+02 0.  0.
         23    2    1    2    0    0 -0.34909643032E+02 -0.11810325866E+02 -0.22758827691E+03  0.24836602515E+03  0.92363909021E+02 0.  0.
          5    1    3    3  502    0  0.16775517369E+02  0.44712586444E+02 -0.14115296575E+03  0.14908683077E+03  0.47000000000E+01 0. -1.
         -5    1    3    3    0  502  0.18134125663E+02 -0.32902260579E+02 -0.29363565197E+02  0.47913612114E+02  0.47000000000E+01 0.  1.
          5    1    4    4  503    0  0.26342806631E+02 -0.46374388250E+01 -0.26359323962E+02  0.37846443159E+02  0.47000000000E+01 0. -1.
         -5    1    4    4    0  503 -0.61252449663E+02 -0.71728870405E+01 -0.20122895295E+03  0.21051958199E+03  0.47000000000E+01 0.  1.
<mgrwt>
<rscale>  0 0.99247333E+02</rscale>
<asrwt>0</asrwt>
<pdfrwt beam="1">  1        1 0.64882403E-01 0.99444752E+02</pdfrwt>
<pdfrwt beam="2">  1       -1 0.36355125E-02 0.99444752E+02</pdfrwt>
<totfact> 0.14721352E+04</totfact>
</mgrwt>
</event>
<event>
 8    1  0.2964543E-004  0.1340907E+03  0.7546771E-02  0.1221940E+00
         -1   -1    0    0    0  501 -0.00000000000E+00  0.00000000000E+00  0.13240400946E+03  0.13240400946E+03  0.00000000000E+00 0.  1.
          1   -1    0    0  501    0  0.00000000000E+00 -0.00000000000E+00 -0.21167233757E+03  0.21167233757E+03  0.00000000000E+00 0. -1.
         23    2    1    2    0    0  0.92849620876E+02  0.33736583667E+02  0.64073575271E+02  0.14861270244E+03  0.90670298910E+02 0.  0.
         23    2    1    2    0    0 -0.92849620876E+02 -0.33736583667E+02 -0.14334190338E+03  0.19546364459E+03  0.88881527419E+02 0.  0.
          5    1    3    3  502    0  0.14687502789E+02 -0.23420933223E+02 -0.63949898795E+01  0.28761932250E+02  0.47000000000E+01 0. -1.
         -5    1    3    3    0  502  0.78162118087E+02  0.57157516891E+02  0.70468565150E+02  0.11985077019E+03  0.47000000000E+01 0.  1.
          5    1    4    4  503    0 -0.69288871830E+02 -0.13052671556E+02 -0.14743867958E+03  0.16349793341E+03  0.47000000000E+01 0. -1.
         -5    1    4    4    0  503 -0.23560749046E+02 -0.20683912111E+02  0.40967761957E+01  0.31965711177E+02  0.47000000000E+01 0.  1.
<mgrwt>
<rscale>  0 0.13378892E+03</rscale>
<asrwt>0</asrwt>
<pdfrwt beam="1">  1        1 0.32564975E-01 0.13409069E+03</pdfrwt>
<pdfrwt beam="2">  1       -1 0.20369848E-01 0.13409069E+03</pdfrwt>
<totfact> 0.25901057E+03</totfact>
</mgrwt>
</event>
<event>
 8    1  0.2964543E-004  0.1421091E+03  0.7546771E-02  0.1210874E+00
          2   -1    0    0  501    0  0.00000000000E+00  0.00000000000E+00  0.12597917412E+04  0.12597917412E+04  0.00000000000E+00 0. -1.
         -2   -1    0    0    0  501 -0.00000000000E+00 -0.00000000000E+00 -0.26653408825E+02  0.26653408825E+02  0.00000000000E+00 0.  1.
         23    2    1    2    0    0 -0.16676824407E+02  0.10605625560E+03  0.20958795020E+03  0.25322340459E+03  0.93107131497E+02 0.  0.
         23    2    1    2    0    0  0.16676824407E+02 -0.10605625560E+03  0.10235503822E+04  0.10332217454E+04  0.91464444354E+02 0.  0.
          5    1    4    4  502    0 -0.30522119926E+02 -0.82336521521E+02  0.62280321995E+03  0.62898079729E+03  0.47000000000E+01 0. -1.
         -5    1    4    4    0  502  0.47198944334E+02 -0.23719734077E+02  0.40074716223E+03  0.40424094816E+03  0.47000000000E+01 0.  1.
          5    1    3    3  503    0  0.29867647666E+02  0.78275710370E+02  0.97562317662E+02  0.12868433875E+03  0.47000000000E+01 0. -1.
         -5    1    3    3    0  503 -0.46544472073E+02  0.27780545228E+02  0.11202563254E+03  0.12453906584E+03  0.47000000000E+01 0.  1.
<mgrwt>
<rscale>  0 0.14184060E+03</rscale>
<asrwt>0</asrwt>
<pdfrwt beam="1">  1        2 0.19381407E+00 0.14210906E+03</pdfrwt>
<pdfrwt beam="2">  1       -2 0.41005254E-02 0.14210906E+03</pdfrwt>
<totfact> 0.48124902E+03</totfact>
</mgrwt>
</event>
<event>
 7    1  0.2964543E-004  0.1344450E+03  0.7546771E-02  0.1238622E+00
          1   -1    0    0  501    0  0.00000000000E+00  0.00000000000E+00  0.87621202861E+03  0.87621202861E+03  0.00000000000E+00 0. -1.
         -1   -1    0    0    0  501 -0.00000000000E+00 -0.00000000000E+00 -0.32558986595E+02  0.32558986595E+02  0.00000000000E+00 0.  1.
         23    2    1    2    0    0  0.12947962535E+02 -0.19847672994E+02  0.72022715144E+03  0.72626237759E+03  0.90378711910E+02 0.  0.
          5    1    3    3  502    0 -0.26493825321E+02 -0.39736276307E+02  0.42725264030E+03  0.42993930162E+03  0.47000000000E+01 0. -1.
         -5    1    3    3    0  502  0.39441787855E+02  0.19888603313E+02  0.29297451114E+03  0.29632307597E+03  0.47000000000E+01 0.  1.
          5    1    1    2  503    0 -0.54957959521E+02  0.45954375354E+02  0.10945211385E+03  0.13089704792E+03  0.47000000000E+01 0. -1.
         -5    1    1    2    0  503  0.42009996986E+02 -0.26106702361E+02  0.13973776724E+02  0.51611589695E+02  0.47000000000E+01 0.  1.
<mgrwt>
<rscale>  0 0.12275369E+03</rscale>
<asrwt>0</asrwt>
<pdfrwt beam="1">  1        1 0.13480183E+00 0.13444498E+03</pdfrwt>
<pdfrwt beam="2">  1       -1 0.50090755E-02 0.13444498E+03</pdfrwt>
<totfact> 0.34300898E+03</totfact>
</mgrwt>
</event>
<event>
 8    1  0.2964543E-004  0.1304361E+03  0.7546771E-02  0.1227671E+00
          1   -1    0    0  501    0  0.00000000000E+00  0.00000000000E+00  0.48421559094E+02  0.48421559094E+02  0.00000000000E+00 0. -1.
         -1   -1    0    0    0  501 -0.00000000000E+00 -0.00000000000E+00 -0.34809665738E+03  0.34809665738E+03  0.00000000000E+00 0.  1.
         23    2    1    2    0    0 -0.27699839555E+02  0.88263191712E+02 -0.16668444157E+03  0.21023860894E+03  0.88650423055E+02 0.  0.
         23    2    1    2    0    0  0.27699839555E+02 -0.88263191712E+02 -0.13299065672E+03  0.18627960753E+03  0.91955996457E+02 0.  0.
          5    1    3    3  502    0 -0.46703314245E+02  0.69954959108E+02 -0.16259766273E+03  0.18312560113E+03  0.47000000000E+01 0. -1.
         -5    1    4    4    0  503  0.10099780293E+02 -0.39788713865E+02 -0.12770871552E+03  0.13422650012E+03  0.47000000000E+01 0.  1.
          5    1    4    4  503    0  0.17600059262E+02 -0.48474477847E+02 -0.52819411960E+01  0.52053107413E+02  0.47000000000E+01 0. -1.
         -5    1    3    3    0  502  0.19003474690E+02  0.18308232605E+02 -0.40867788396E+01  0.27113007813E+02  0.47000000000E+01 0.  1.
<mgrwt>
<rscale>  0 0.12985500E+03</rscale>
<asrwt>0</asrwt>
<pdfrwt beam="1">  1        1 0.74494707E-02 0.13043610E+03</pdfrwt>
<pdfrwt beam="2">  1       -1 0.53553331E-01 0.13043610E+03</pdfrwt>
<totfact> 0.33237561E+03</totfact>
</mgrwt>
</event>
<event>
 8    1  0.2964543E-004  0.1107259E+03  0.7546771E-02  0.1268543E+00
         -1   -1    0    0    0  501 -0.00000000000E+00  0.00000000000E+00  0.71867126128E+02  0.71867126128E+02  0.00000000000E+00 0.  1.
          1   -1    0    0  501    0  0.00000000000E+00 -0.00000000000E+00 -0.21330558009E+03  0.21330558009E+03  0.00000000000E+00 0. -1.
         23    2    1    2    0    0  0.62870149664E+01  0.62419087531E+01 -0.15642686663E+03  0.19164967458E+03  0.11037094356E+03 0.  0.
         23    2    1    2    0    0 -0.62870149664E+01 -0.62419087531E+01  0.14988412659E+02  0.93523031644E+02  0.91888067515E+02 0.  0.
          5    1    3    3  502    0  0.12244863226E+02  0.55180426361E+02 -0.56150724636E+02  0.79811089492E+02  0.47000000000E+01 0. -1.
         -5    1    4    4    0  503  0.15554041637E+02  0.35640841218E+02 -0.92158343804E+01  0.40239525063E+02  0.47000000000E+01 0. -1.
          5    1    4    4  503    0 -0.21841056604E+02 -0.41882749971E+02  0.24204247040E+02  0.53283506580E+02  0.47000000000E+01 0.  1.
         -5    1    3    3    0  502 -0.59578482593E+01 -0.48938517608E+02 -0.10027614199E+03  0.11183858509E+03  0.47000000000E+01 0.  1.
<mgrwt>
<rscale>  0 0.10580449E+03</rscale>
<asrwt>0</asrwt>
<pdfrwt beam="1">  1        1 0.32816242E-01 0.11072594E+03</pdfrwt>
<pdfrwt beam="2">  1       -1 0.11056481E-01 0.11072594E+03</pdfrwt>
<totfact> 0.65992469E+03</totfact>
</mgrwt>
</event>
<event>
 8    1  0.2964543E-004  0.2233337E+03  0.7546771E-02  0.1131523E+00
         -1   -1    0    0    0  501 -0.00000000000E+00  0.00000000000E+00  0.12467918385E+03  0.12467918385E+03  0.00000000000E+00 0.  1.
          1   -1    0    0  501    0  0.00000000000E+00 -0.00000000000E+00 -0.43603860010E+03  0.43603860010E+03  0.00000000000E+00 0. -1.
         23    2    1    2    0    0 -0.19354408982E+03 -0.63532313752E+02 -0.23750000829E+03  0.32601255519E+03  0.91554697352E+02 0.  0.
         23    2    1    2    0    0  0.19354408982E+03  0.63532313752E+02 -0.73859407965E+02  0.23470522876E+03  0.90197908323E+02 0.  0.
          5    1    4    4  502    0  0.71763437513E+02 -0.16789798110E+02 -0.70654164034E+01  0.74188263176E+02  0.47000000000E+01 0. -1.
         -5    1    4    4    0  502  0.12178065231E+03  0.80322111862E+02 -0.66793991561E+02  0.16051696558E+03  0.47000000000E+01 0.  1.
          5    1    3    3  503    0 -0.14868664786E+03 -0.59392476411E+02 -0.12017357360E+03  0.20024725540E+03  0.47000000000E+01 0. -1.
         -5    1    3    3    0  503 -0.44857441965E+02 -0.41398373411E+01 -0.11732643469E+03  0.12576529978E+03  0.47000000000E+01 0.  1.
<mgrwt>
<rscale>  0 0.22319536E+03</rscale>
<asrwt>0</asrwt>
<pdfrwt beam="1">  1        1 0.67082862E-01 0.22333368E+03</pdfrwt>
<pdfrwt beam="2">  1       -1 0.19181413E-01 0.22333368E+03</pdfrwt>
<totfact> 0.11681384E+03</totfact>
</mgrwt>
</event>
<event>
 8    1  0.2964543E-004  0.9921323E+02  0.7546771E-02  0.1285015E+00
         -2   -1    0    0    0  501 -0.00000000000E+00  0.00000000000E+00  0.14379879838E+03  0.14379879838E+03  0.00000000000E+00 0.  1.
          2   -1    0    0  501    0  0.00000000000E+00 -0.00000000000E+00 -0.37676743109E+03  0.37676743109E+03  0.00000000000E+00 0. -1.
         23    2    1    2    0    0 -0.25420581043E+01 -0.18914840116E+02  0.12097472179E+03  0.15298064337E+03  0.91673118735E+02 0.  0.
         23    2    1    2    0    0  0.25420581043E+01  0.18914840116E+02 -0.35394335450E+03  0.36758558609E+03  0.97360318756E+02 0.  0.
          5    1    4    4  502    0  0.14948822150E+02  0.55836749755E+02 -0.24569672999E+03  0.25244837697E+03  0.47000000000E+01 0. -1.
         -5    1    3    3    0  503 -0.40555343082E+02 -0.27681814310E+01  0.96319815168E+02  0.10465178200E+03  0.47000000000E+01 0.  1.
          5    1    3    3  503    0  0.38013284978E+02 -0.16146658685E+02  0.24654906623E+02  0.48328861378E+02  0.47000000000E+01 0. -1.
         -5    1    4    4    0  502 -0.12406764046E+02 -0.36921909640E+02 -0.10824662451E+03  0.11513720912E+03  0.47000000000E+01 0.  1.
<mgrwt>
<rscale>  0 0.97789215E+02</rscale>
<asrwt>0</asrwt>
<pdfrwt beam="1">  1        2 0.57964220E-01 0.99213229E+02</pdfrwt>
<pdfrwt beam="2">  1       -2 0.22122892E-01 0.99213229E+02</pdfrwt>
<totfact> 0.14672858E+03</totfact>
</mgrwt>
</event>
<event>
 8    1  0.2964543E-004  0.9259627E+02  0.7546771E-02  0.1323278E+00
          2   -1    0    0  501    0  0.00000000000E+00  0.00000000000E+00  0.16502348737E+03  0.16502348737E+03  0.00000000000E+00 0. -1.
         -2   -1    0    0    0  501 -0.00000000000E+00 -0.00000000000E+00 -0.40293391759E+02  0.40293391759E+02  0.00000000000E+00 0.  1.
         23    2    1    2    0    0 -0.10677469748E+02 -0.84270827000E+01  0.35109163553E+02  0.99028896430E+02  0.91591729319E+02 0.  0.
         23    2    1    2    0    0  0.10677469748E+02  0.84270827000E+01  0.89620932063E+02  0.10628798270E+03  0.55499547028E+02 0.  0.
          5    1    4    4  502    0  0.15409745658E+02 -0.18578408345E+02  0.21343430812E+02  0.32561473503E+02  0.47000000000E+01 0.  1.
         -5    1    4    4    0  502 -0.47322759097E+01  0.27005491045E+02  0.68277501251E+02  0.73726509200E+02  0.47000000000E+01 0. -1.
          5    1    3    3  503    0 -0.31229646233E+02  0.26985627995E+02  0.39824733653E+02  0.57546627466E+02  0.47000000000E+01 0. -1.
         -5    1    3    3    0  503  0.20552176485E+02 -0.35412710695E+02 -0.47155701004E+01  0.41482268964E+02  0.47000000000E+01 0.  1.
<mgrwt>
<rscale>  0 0.82069962E+02</rscale>
<asrwt>0</asrwt>
<pdfrwt beam="1">  1        2 0.25388228E-01 0.92596269E+02</pdfrwt>
<pdfrwt beam="2">  1       -2 0.61989834E-02 0.92596269E+02</pdfrwt>
<totfact> 0.26362149E+04</totfact>
</mgrwt>
</event>
<event>
 8    1  0.2964543E-004  0.9881682E+02  0.7546771E-02  0.1283324E+00
          3   -1    0    0  501    0  0.00000000000E+00  0.00000000000E+00  0.61873639188E+02  0.61873639188E+02  0.00000000000E+00 0. -1.
         -3   -1    0    0    0  501 -0.00000000000E+00 -0.00000000000E+00 -0.15937486472E+03  0.15937486472E+03  0.00000000000E+00 0.  1.
         23    2    1    2    0    0 -0.64324034315E+01 -0.37142275210E+02 -0.64415303857E+02  0.11795802734E+03  0.91344624483E+02 0.  0.
         23    2    1    2    0    0  0.64324034315E+01  0.37142275210E+02 -0.33085921672E+02  0.10329047656E+03  0.90295735857E+02 0.  0.
          5    1    3    3  502    0 -0.38500495211E+02 -0.36151792862E+02 -0.90394349430E+01  0.53787002545E+02  0.47000000000E+01 0. -1.
         -5    1    3    3    0  502  0.32068091780E+02 -0.99048234755E+00 -0.55375868914E+02  0.64171024799E+02  0.47000000000E+01 0.  1.
          5    1    4    4  503    0 -0.32196620113E+02  0.31195834986E+02  0.86713681216E+01  0.45902996550E+02  0.47000000000E+01 0. -1.
         -5    1    4    4    0  503  0.38629023544E+02  0.59464402241E+01 -0.41757289794E+02  0.57387480013E+02  0.47000000000E+01 0.  1.
<mgrwt>
<rscale>  0 0.98573740E+02</rscale>
<asrwt>0</asrwt>
<pdfrwt beam="1">  1        3 0.95190216E-02 0.98816825E+02</pdfrwt>
<pdfrwt beam="2">  1       -3 0.24519209E-01 0.98816825E+02</pdfrwt>
<totfact> 0.26805202E+03</totfact>
</mgrwt>
</event>
<event>
 8    1  0.2964543E-004  0.9586839E+02  0.7546771E-02  0.1291621E+00
         -2   -1    0    0    0  501 -0.00000000000E+00  0.00000000000E+00  0.39439080624E+02  0.39439080624E+02  0.00000000000E+00 0.  1.
          2   -1    0    0  501    0  0.00000000000E+00 -0.00000000000E+00 -0.22356960087E+03  0.22356960087E+03  0.00000000000E+00 0. -1.
         23    2    1    2    0    0  0.73445777331E+01  0.64272851435E+01 -0.87244685508E+02  0.12962400988E+03  0.95370309696E+02 0.  0.
         23    2    1    2    0    0 -0.73445777331E+01 -0.64272851435E+01 -0.96885834741E+02  0.13338467162E+03  0.91155651677E+02 0.  0.
          5    1    3    3  502    0 -0.25200632473E+02  0.23422465542E+02 -0.85822980241E+02  0.92581627263E+02  0.47000000000E+01 0. -1.
         -5    1    4    4    0  503  0.62862780415E+01 -0.45307006294E+02 -0.30723707075E+02  0.55301702391E+02  0.47000000000E+01 0.  1.
          5    1    4    4  503    0 -0.13630855775E+02  0.38879721151E+02 -0.66162127666E+02  0.78082969227E+02  0.47000000000E+01 0. -1.
         -5    1    3    3    0  502  0.32545210206E+02 -0.16995180398E+02 -0.14217052666E+01  0.37042382617E+02  0.47000000000E+01 0.  1.
<mgrwt>
<rscale>  0 0.94802819E+02</rscale>
<asrwt>0</asrwt>
<pdfrwt beam="1">  1        2 0.34395323E-01 0.95868393E+02</pdfrwt>
<pdfrwt beam="2">  1       -2 0.60675509E-02 0.95868393E+02</pdfrwt>
<totfact> 0.19731677E+04</totfact>
</mgrwt>
</event>
<event>
 8    1  0.2964543E-004  0.9487530E+02  0.7546771E-02  0.1292071E+00
         -1   -1    0    0    0  501 -0.00000000000E+00  0.00000000000E+00  0.17912695135E+02  0.17912695135E+02  0.00000000000E+00 0.  1.
          1   -1    0    0  501    0  0.00000000000E+00 -0.00000000000E+00 -0.67173448700E+03  0.67173448700E+03  0.00000000000E+00 0. -1.
         23    2    1    2    0    0 -0.99169318215E+01 -0.20850479367E+02 -0.50149201102E+03  0.51018775825E+03  0.90907774807E+02 0.  0.
         23    2    1    2    0    0  0.99169318215E+01  0.20850479367E+02 -0.15232978084E+03  0.17945942389E+03  0.92023011597E+02 0.  0.
          5    1    4    4  502    0 -0.30942992071E+02  0.36988795450E+02 -0.98874822728E+02  0.11010885667E+03  0.47000000000E+01 0. -1.
         -5    1    4    4    0  502  0.40859923892E+02 -0.16138316083E+02 -0.53454958113E+02  0.69350567218E+02  0.47000000000E+01 0.  1.
          5    1    3    3  503    0 -0.10644927330E+01  0.35299572609E+02 -0.23262270983E+03  0.23533509747E+03  0.47000000000E+01 0. -1.
         -5    1    3    3    0  503 -0.88524390885E+01 -0.56150051976E+02 -0.26886930119E+03  0.27485266078E+03  0.47000000000E+01 0.  1.
<mgrwt>
<rscale>  0 0.94603809E+02</rscale>
<asrwt>0</asrwt>
<pdfrwt beam="1">  1        1 0.10334375E+00 0.94875301E+02</pdfrwt>
<pdfrwt beam="2">  1       -1 0.27557998E-02 0.94875301E+02</pdfrwt>
<totfact> 0.11890294E+04</totfact>
</mgrwt>
</event>
<event>
 8    1  0.2964543E-004  0.9612062E+02  0.7546771E-02  0.1290333E+00
         -2   -1    0    0    0  501 -0.00000000000E+00  0.00000000000E+00  0.17806995190E+02  0.17806995190E+02  0.00000000000E+00 0.  1.
          2   -1    0    0  501    0  0.00000000000E+00 -0.00000000000E+00 -0.69100742030E+03  0.69100742030E+03  0.00000000000E+00 0. -1.
         23    2    1    2    0    0 -0.76207863156E+01  0.23434532220E+02 -0.51759833901E+03  0.52591777096E+03  0.89856594518E+02 0.  0.
         23    2    1    2    0    0  0.76207863156E+01 -0.23434532220E+02 -0.15560208610E+03  0.18289664453E+03  0.92908125039E+02 0.  0.
          5    1    3    3  502    0 -0.36685742614E+02  0.42429877375E+02 -0.36740077778E+03  0.37168744897E+03  0.47000000000E+01 0. -1.
         -5    1    4    4    0  503  0.23830310621E+02 -0.51607973278E+02 -0.64744251236E+02  0.86285425643E+02  0.47000000000E+01 0.  1.
          5    1    4    4  503    0 -0.16209524305E+02  0.28173441059E+02 -0.90857834865E+02  0.96611218891E+02  0.47000000000E+01 0. -1.
         -5    1    3    3    0  502  0.29064956298E+02 -0.18995345155E+02 -0.15019756123E+03  0.15423032199E+03  0.47000000000E+01 0.  1.
<mgrwt>
<rscale>  0 0.95375433E+02</rscale>
<asrwt>0</asrwt>
<pdfrwt beam="1">  1        2 0.10630883E+00 0.96120619E+02</pdfrwt>
<pdfrwt beam="2">  1       -2 0.27395378E-02 0.96120619E+02</pdfrwt>
<totfact> 0.18990377E+04</totfact>
</mgrwt>
</event>
<event>
 8    1  0.2964543E-004  0.9497716E+02  0.7546771E-02  0.1294125E+00
         -2   -1    0    0    0  501 -0.00000000000E+00  0.00000000000E+00  0.10722807166E+02  0.10722807166E+02  0.00000000000E+00 0.  1.
          2   -1    0    0  501    0  0.00000000000E+00 -0.00000000000E+00 -0.80053428345E+03  0.80053428345E+03  0.00000000000E+00 0. -1.
         23    2    1    2    0    0 -0.13341374238E+02 -0.54612863279E+01 -0.38092466934E+03  0.39258663291E+03  0.93876742108E+02 0.  0.
         23    2    1    2    0    0  0.13341374238E+02  0.54612863279E+01 -0.40888680694E+03  0.41867045771E+03  0.88818429130E+02 0.  0.
          5    1    4    4  502    0  0.45051379142E+02  0.20882996101E+02 -0.30005628983E+03  0.30417362370E+03  0.47000000000E+01 0. -1.
         -5    1    3    3    0  503 -0.25876989415E+02 -0.45334029874E+02 -0.19099004838E+03  0.19805070418E+03  0.47000000000E+01 0.  1.
          5    1    3    3  503    0  0.12535615176E+02  0.39872743546E+02 -0.18993462097E+03  0.19453592873E+03  0.47000000000E+01 0. -1.
         -5    1    4    4    0  502 -0.31710004904E+02 -0.15421709773E+02 -0.10883051712E+03  0.11449683401E+03  0.47000000000E+01 0.  1.
<mgrwt>
<rscale>  0 0.93702624E+02</rscale>
<asrwt>0</asrwt>
<pdfrwt beam="1">  1        2 0.12315918E+00 0.94977158E+02</pdfrwt>
<pdfrwt beam="2">  1       -2 0.16496618E-02 0.94977158E+02</pdfrwt>
<totfact> 0.33052890E+04</totfact>
</mgrwt>
</event>
<event>
 8    1  0.2964543E-004  0.1110374E+03  0.7546771E-02  0.1259879E+00
         -1   -1    0    0    0  501 -0.00000000000E+00  0.00000000000E+00  0.11544707602E+02  0.11544707602E+02  0.00000000000E+00 0.  1.
          1   -1    0    0  501    0  0.00000000000E+00 -0.00000000000E+00 -0.11309719905E+04  0.11309719905E+04  0.00000000000E+00 0. -1.
         23    2    1    2    0    0  0.24079829302E+02  0.53988601724E+02 -0.72538463514E+03  0.73383389381E+03  0.93993124804E+02 0.  0.
         23    2    1    2    0    0 -0.24079829302E+02 -0.53988601724E+02 -0.39404264772E+03  0.40868280426E+03  0.90870341563E+02 0.  0.
          5    1    3    3  502    0  0.20916085359E+02 -0.24221664082E+02 -0.23612184730E+03  0.23832706185E+03  0.47000000000E+01 0. -1.
         -5    1    4    4    0  503 -0.43340356936E+02  0.68954490437E+01 -0.14759499302E+03  0.15405293156E+03  0.47000000000E+01 0.  1.
          5    1    4    4  503    0  0.19260527634E+02 -0.60884050768E+02 -0.24644765470E+03  0.25462987270E+03  0.47000000000E+01 0. -1.
         -5    1    3    3    0  502  0.31637439435E+01  0.78210265807E+02 -0.48926278783E+03  0.49550683195E+03  0.47000000000E+01 0.  1.
<mgrwt>
<rscale>  0 0.11037385E+03</rscale>
<asrwt>0</asrwt>
<pdfrwt beam="1">  1        1 0.17399573E+00 0.11103745E+03</pdfrwt>
<pdfrwt beam="2">  1       -1 0.17761084E-02 0.11103745E+03</pdfrwt>
<totfact> 0.99933267E+03</totfact>
</mgrwt>
</event>
<event>
 8    1  0.2964543E-004  0.9765056E+02  0.7546771E-02  0.1285737E+00
         -1   -1    0    0    0  501 -0.00000000000E+00  0.00000000000E+00  0.57623144102E+03  0.57623144102E+03  0.00000000000E+00 0.  1.
          1   -1    0    0  501    0  0.00000000000E+00 -0.00000000000E+00 -0.16432293548E+02  0.16432293548E+02  0.00000000000E+00 0. -1.
         23    2    1    2    0    0  0.35281540634E+02  0.20684837931E+01  0.26987338398E+03  0.28673469151E+03  0.90200189572E+02 0.  0.
         23    2    1    2    0    0 -0.35281540634E+02 -0.20684837931E+01  0.28992576349E+03  0.30592904306E+03  0.91030573528E+02 0.  0.
          5    1    4    4  502    0 -0.47311767746E+02 -0.37099372656E+02  0.17713738473E+03  0.18712164463E+03  0.47000000000E+01 0. -1.
         -5    1    3    3    0  503  0.48777948243E+02 -0.18460150828E+02  0.24811907995E+03  0.25358476539E+03  0.47000000000E+01 0.  1.
          5    1    3    3  503    0 -0.13496407609E+02  0.20528634621E+02  0.21754304032E+02  0.33149926118E+02  0.47000000000E+01 0. -1.
         -5    1    4    4    0  502  0.12030227113E+02  0.35030888863E+02  0.11278837876E+03  0.11880739843E+03  0.47000000000E+01 0.  1.
<mgrwt>
<rscale>  0 0.97456573E+02</rscale>
<asrwt>0</asrwt>
<pdfrwt beam="1">  1        1 0.25280456E-02 0.97650556E+02</pdfrwt>
<pdfrwt beam="2">  1       -1 0.88650975E-01 0.97650556E+02</pdfrwt>
<totfact> 0.52906104E+03</totfact>
</mgrwt>
</event>
<event>
 8    1  0.2964543E-004  0.9362823E+02  0.7546771E-02  0.1301480E+00
          1   -1    0    0  501    0  0.00000000000E+00  0.00000000000E+00  0.34975108042E+03  0.34975108042E+03  0.00000000000E+00 0. -1.
         -1   -1    0    0    0  501 -0.00000000000E+00 -0.00000000000E+00 -0.22193659168E+02  0.22193659168E+02  0.00000000000E+00 0.  1.
         23    2    1    2    0    0  0.17202120768E+02  0.88956436283E+01  0.18989886569E+03  0.21172582329E+03  0.91603491339E+02 0.  0.
         23    2    1    2    0    0 -0.17202120768E+02 -0.88956436283E+01  0.13765855556E+03  0.16021891629E+03  0.79656624229E+02 0.  0.
          5    1    4    4  502    0 -0.39626282959E+02  0.16377218551E+01  0.30825782858E+02  0.50450404586E+02  0.47000000000E+01 0. -1.
         -5    1    4    4    0  502  0.22424162192E+02 -0.10533365483E+02  0.10683277270E+03  0.10976851170E+03  0.47000000000E+01 0.  1.
          5    1    3    3  503    0  0.42936274094E+02  0.33941428396E+02  0.89717755363E+02  0.10519938128E+03  0.47000000000E+01 0. -1.
         -5    1    3    3    0  503 -0.25734153326E+02 -0.25045784767E+02  0.10018111033E+03  0.10652644201E+03  0.47000000000E+01 0.  1.
<mgrwt>
<rscale>  0 0.90568686E+02</rscale>
<asrwt>0</asrwt>
<pdfrwt beam="1">  1        1 0.53807854E-01 0.93628228E+02</pdfrwt>
<pdfrwt beam="2">  1       -1 0.34144094E-02 0.93628228E+02</pdfrwt>
<totfact> 0.20220764E+04</totfact>
</mgrwt>
</event>
<event>
 8    1  0.2964543E-004  0.1108122E+03  0.7546771E-02  0.1259856E+00
         -2   -1    0    0    0  501 -0.00000000000E+00  0.00000000000E+00  0.11766973988E+03  0.11766973988E+03  0.00000000000E+00 0.  1.
          2   -1    0    0  501    0  0.00000000000E+00 -0.00000000000E+00 -0.10280045514E+03  0.10280045514E+03  0.00000000000E+00 0. -1.
         23    2    1    2    0    0 -0.60284782493E+02 -0.28256825449E+01  0.53364816601E+01  0.10924867582E+03  0.90909601524E+02 0.  0.
         23    2    1    2    0    0  0.60284782493E+02  0.28256825449E+01  0.95328030746E+01  0.11122151921E+03  0.92936066831E+02 0.  0.
          5    1    4    4  502    0 -0.46669555410E+01  0.30939381394E+02  0.22879303142E+02  0.39045848785E+02  0.47000000000E+01 0. -1.
         -5    1    4    4    0  502  0.64951738034E+02 -0.28113698850E+02 -0.13346500068E+02  0.72175670421E+02  0.47000000000E+01 0.  1.
          5    1    3    3  503    0 -0.20216170252E+02  0.12602663213E+02 -0.39896967144E+02  0.46705231473E+02  0.47000000000E+01 0. -1.
         -5    1    3    3    0  503 -0.40068612241E+02 -0.15428345758E+02  0.45233448804E+02  0.62543444344E+02  0.47000000000E+01 0.  1.
<mgrwt>
<rscale>  0 0.11038629E+03</rscale>
<asrwt>0</asrwt>
<pdfrwt beam="1">  1        2 0.15815455E-01 0.11081224E+03</pdfrwt>
<pdfrwt beam="2">  1       -2 0.18103037E-01 0.11081224E+03</pdfrwt>
<totfact> 0.84588571E+03</totfact>
</mgrwt>
</event>
<event>
 8    1  0.2964543E-004  0.9727037E+02  0.7546771E-02  0.1291002E+00
          1   -1    0    0  501    0  0.00000000000E+00  0.00000000000E+00  0.10692878138E+03  0.10692878138E+03  0.00000000000E+00 0. -1.
         -1   -1    0    0    0  501 -0.00000000000E+00 -0.00000000000E+00 -0.15415011395E+03  0.15415011395E+03  0.00000000000E+00 0.  1.
         23    2    1    2    0    0  0.13440135923E+02 -0.24917304710E+02 -0.11408856132E+03  0.14992573052E+03  0.93059204388E+02 0.  0.
         23    2    1    2    0    0 -0.13440135923E+02  0.24917304710E+02  0.66867228742E+02  0.11115316481E+03  0.84156345221E+02 0.  0.
          5    1    4    4  502    0 -0.41931436970E+02  0.38204665673E+02  0.45201195367E+02  0.72684798604E+02  0.47000000000E+01 0. -1.
         -5    1    3    3    0  503  0.45833633799E+01  0.25810453481E+02 -0.88130811428E+02  0.92066913990E+02  0.47000000000E+01 0.  1.
          5    1    3    3  503    0  0.88567725436E+01 -0.50727758191E+02 -0.25957749888E+02  0.57858816530E+02  0.47000000000E+01 0. -1.
         -5    1    4    4    0  502  0.28491301046E+02 -0.13287360963E+02  0.21666033375E+02  0.38468366210E+02  0.47000000000E+01 0.  1.
<mgrwt>
<rscale>  0 0.95077417E+02</rscale>
<asrwt>0</asrwt>
<pdfrwt beam="1">  1        1 0.16450582E-01 0.97270370E+02</pdfrwt>
<pdfrwt beam="2">  1       -1 0.23715402E-01 0.97270370E+02</pdfrwt>
<totfact> 0.46877065E+03</totfact>
</mgrwt>
</event>
<event>
 8    1  0.2964543E-004  0.1122263E+03  0.7546771E-02  0.1257203E+00
          1   -1    0    0  501    0  0.00000000000E+00  0.00000000000E+00  0.11127994924E+03  0.11127994924E+03  0.00000000000E+00 0. -1.
         -1   -1    0    0    0  501 -0.00000000000E+00 -0.00000000000E+00 -0.11259359952E+03  0.11259359952E+03  0.00000000000E+00 0.  1.
         23    2    1    2    0    0  0.47911123970E+02  0.38834642248E+02  0.96970847176E+01  0.11264447149E+03  0.93761070101E+02 0.  0.
         23    2    1    2    0    0 -0.47911123970E+02 -0.38834642248E+02 -0.11010734993E+02  0.11122907727E+03  0.91907921890E+02 0.  0.
          5    1    3    3  502    0 -0.36743132585E+01  0.56988237277E+02  0.64291437316E+01  0.57659202691E+02  0.47000000000E+01 0. -1.
         -5    1    4    4    0  503 -0.19593717242E+02 -0.59708926088E+02 -0.31283619584E+02  0.70354988908E+02  0.47000000000E+01 0.  1.
          5    1    4    4  503    0 -0.28317406728E+02  0.20874283840E+02  0.20272884591E+02  0.40874088360E+02  0.47000000000E+01 0. -1.
         -5    1    3    3    0  502  0.51585437229E+02 -0.18153595029E+02  0.32679409860E+01  0.54985268799E+02  0.47000000000E+01 0.  1.
<mgrwt>
<rscale>  0 0.11183841E+03</rscale>
<asrwt>0</asrwt>
<pdfrwt beam="1">  1        1 0.17119992E-01 0.11222630E+03</pdfrwt>
<pdfrwt beam="2">  1       -1 0.17322092E-01 0.11222630E+03</pdfrwt>
<totfact> 0.74372934E+03</totfact>
</mgrwt>
</event>
<event>
 8    1  0.2964543E-004  0.9667697E+02  0.7546771E-02  0.1289279E+00
         -2   -1    0    0    0  501 -0.00000000000E+00  0.00000000000E+00  0.75522198147E+02  0.75522198147E+02  0.00000000000E+00 0.  1.
          2   -1    0    0  501    0  0.00000000000E+00 -0.00000000000E+00 -0.16314671294E+03  0.16314671294E+03  0.00000000000E+00 0. -1.
         23    2    1    2    0    0  0.22330202448E+02  0.26394648324E+01  0.18387491121E+02  0.95194239590E+02  0.90654501849E+02 0.  0.
         23    2    1    2    0    0 -0.22330202448E+02 -0.26394648324E+01 -0.10601200591E+03  0.14347467149E+03  0.94025694610E+02 0.  0.
          5    1    4    4  502    0 -0.58581345370E+02 -0.89147020030E+01 -0.69074971066E+02  0.91130058515E+02  0.47000000000E+01 0. -1.
         -5    1    4    4    0  502  0.36251142922E+02  0.62752371706E+01 -0.36937034844E+02  0.52344612978E+02  0.47000000000E+01 0.  1.
          5    1    3    3  503    0 -0.34550759601E+02  0.86889639705E+01  0.88983501315E+01  0.37020585071E+02  0.47000000000E+01 0. -1.
         -5    1    3    3    0  503  0.56880962049E+02 -0.60494991381E+01  0.94891409895E+01  0.58173654520E+02  0.47000000000E+01 0.  1.
<mgrwt>
<rscale>  0 0.95847490E+02</rscale>
<asrwt>0</asrwt>
<pdfrwt beam="1">  1        2 0.25099494E-01 0.96676967E+02</pdfrwt>
<pdfrwt beam="2">  1       -2 0.11618800E-01 0.96676967E+02</pdfrwt>
<totfact> 0.10200368E+04</totfact>
</mgrwt>
</event>
<event>
 7    1  0.7921119E-004  0.2815517E+03  0.7546771E-02  0.1128433E+00
         -1   -1    0    0    0  501 -0.00000000000E+00  0.00000000000E+00  0.89248064085E+03  0.89248064085E+03  0.00000000000E+00 0.  1.
          1   -1    0    0  501    0  0.00000000000E+00 -0.00000000000E+00 -0.49288260525E+02  0.49288260525E+02  0.00000000000E+00 0. -1.
         23    2    1    2    0    0 -0.68848250708E+02  0.36111603036E+02  0.14033731299E+03  0.18461858940E+03  0.91352792154E+02 0.  0.
          5    1    3    3  502    0 -0.32650349660E+02  0.52801682682E+02  0.12847563100E+03  0.14276603513E+03  0.47000000000E+01 0. -1.
         -5    1    3    3    0  502 -0.36197901048E+02 -0.16690079647E+02  0.11861681994E+02  0.41852554266E+02  0.47000000000E+01 0.  1.
          5    1    1    2  503    0  0.37824430679E+02  0.38830886405E+02  0.50655503138E+01  0.54646821455E+02  0.47000000000E+01 0. -1.
         -5    1    1    2    0  503  0.31023820028E+02 -0.74942489440E+02  0.69778951702E+03  0.70250349052E+03  0.47000000000E+01 0.  1.
<mgrwt>
<rscale>  0 0.22747002E+03</rscale>
<asrwt>0</asrwt>
<pdfrwt beam="1">  1        1 0.75828099E-02 0.28155168E+03</pdfrwt>
<pdfrwt beam="2">  1       -1 0.13730470E+00 0.28155168E+03</pdfrwt>
<totfact> 0.44456052E+02</totfact>
</mgrwt>
</event>
<event>
 8    1  0.2964543E-004  0.1001952E+03  0.7546771E-02  0.1280275E+00
          1   -1    0    0  501    0  0.00000000000E+00  0.00000000000E+00  0.25692408014E+03  0.25692408014E+03  0.00000000000E+00 0. -1.
         -1   -1    0    0    0  501 -0.00000000000E+00 -0.00000000000E+00 -0.54053596625E+02  0.54053596625E+02  0.00000000000E+00 0.  1.
         23    2    1    2    0    0 -0.13777201695E+02  0.30642137220E+02  0.18433991148E+03  0.20981010465E+03  0.94394518841E+02 0.  0.
         23    2    1    2    0    0  0.13777201695E+02 -0.30642137220E+02  0.18530572032E+02  0.10116757212E+03  0.93609527763E+02 0.  0.
          5    1    4    4  502    0 -0.72699476902E+00 -0.62283597376E+02  0.23832346782E+01  0.62510357790E+02  0.47000000000E+01 0.  1.
         -5    1    3    3    0  503  0.29976848798E+02 -0.23083125618E+00  0.18647235984E+02  0.35615644832E+02  0.47000000000E+01 0.  1.
          5    1    3    3  503    0 -0.43754050492E+02  0.30872968476E+02  0.16569267550E+03  0.17419445982E+03  0.47000000000E+01 0. -1.
         -5    1    4    4    0  502  0.14504196464E+02  0.31641460155E+02  0.16147337353E+02  0.38657214326E+02  0.47000000000E+01 0. -1.
<mgrwt>
<rscale>  0 0.10000988E+03</rscale>
<asrwt>0</asrwt>
<pdfrwt beam="1">  1        1 0.39526781E-01 0.10019519E+03</pdfrwt>
<pdfrwt beam="2">  1       -1 0.83159381E-02 0.10019519E+03</pdfrwt>
<totfact> 0.80180867E+03</totfact>
</mgrwt>
</event>
<event>
 8    1  0.2964543E-004  0.1099775E+03  0.7546771E-02  0.1261296E+00
          2   -1    0    0  501    0  0.00000000000E+00  0.00000000000E+00  0.24711406519E+03  0.24711406519E+03  0.00000000000E+00 0. -1.
         -2   -1    0    0    0  501 -0.00000000000E+00 -0.00000000000E+00 -0.48789022158E+02  0.48789022158E+02  0.00000000000E+00 0.  1.
         23    2    1    2    0    0 -0.53244301242E+02 -0.20434342416E+00  0.83609240300E+02  0.13698561682E+03  0.94549229408E+02 0.  0.
         23    2    1    2    0    0  0.53244301242E+02  0.20434342416E+00  0.11471580273E+03  0.15891747053E+03  0.96229151877E+02 0.  0.
          5    1    4    4  502    0 -0.12523684945E+02 -0.27119667451E+02  0.93463217730E+01  0.31650636296E+02  0.47000000000E+01 0. -1.
         -5    1    4    4    0  502  0.65767986187E+02  0.27324010875E+02  0.10536948096E+03  0.12726683423E+03  0.47000000000E+01 0.  1.
          5    1    3    3  503    0 -0.78341165191E+02  0.15536969807E+01  0.44462967669E+02  0.90215284912E+02  0.47000000000E+01 0. -1.
         -5    1    3    3    0  503  0.25096863949E+02 -0.17580404048E+01  0.39146272631E+02  0.46770331910E+02  0.47000000000E+01 0.  1.
<mgrwt>
<rscale>  0 0.10960892E+03</rscale>
<asrwt>0</asrwt>
<pdfrwt beam="1">  1        2 0.38017548E-01 0.10997748E+03</pdfrwt>
<pdfrwt beam="2">  1       -2 0.75060036E-02 0.10997748E+03</pdfrwt>
<totfact> 0.13026176E+04</totfact>
</mgrwt>
</event>
<event>
 8    1  0.2964543E-004  0.1017912E+03  0.7546771E-02  0.1276620E+00
         -1   -1    0    0    0  501 -0.00000000000E+00  0.00000000000E+00  0.61261899077E+02  0.61261899077E+02  0.00000000000E+00 0.  1.
          1   -1    0    0  501    0  0.00000000000E+00 -0.00000000000E+00 -0.16921552158E+03  0.16921552158E+03  0.00000000000E+00 0. -1.
         23    2    1    2    0    0 -0.30656877608E+02 -0.34007675241E+02 -0.58254932194E+02  0.11728209846E+03  0.90912525951E+02 0.  0.
         23    2    1    2    0    0  0.30656877608E+02  0.34007675241E+02 -0.49698690310E+02  0.11319532220E+03  0.90812196474E+02 0.  0.
          5    1    4    4  502    0  0.17188257588E+01  0.47433850768E+02 -0.62397487766E+02  0.78539550802E+02  0.47000000000E+01 0. -1.
         -5    1    4    4    0  502  0.28938051849E+02 -0.13426175527E+02  0.12698797455E+02  0.34655771394E+02  0.47000000000E+01 0.  1.
          5    1    3    3  503    0  0.19844813065E+02  0.19009397918E+02 -0.10779588917E+02  0.29890857331E+02  0.47000000000E+01 0. -1.
         -5    1    3    3    0  503 -0.50501690673E+02 -0.53017073160E+02 -0.47475343277E+02  0.87391241131E+02  0.47000000000E+01 0.  1.
<mgrwt>
<rscale>  0 0.10176882E+03</rscale>
<asrwt>0</asrwt>
<pdfrwt beam="1">  1        1 0.26033157E-01 0.10179123E+03</pdfrwt>
<pdfrwt beam="2">  1       -1 0.94249077E-02 0.10179123E+03</pdfrwt>
<totfact> 0.11118644E+04</totfact>
</mgrwt>
</event>
<event>
 8    1  0.2964543E-004  0.9501376E+02  0.7546771E-02  0.1291463E+00
         -1   -1    0    0    0  501 -0.00000000000E+00  0.00000000000E+00  0.55139836939E+03  0.55139836939E+03  0.00000000000E+00 0.  1.
          1   -1    0    0  501    0  0.00000000000E+00 -0.00000000000E+00 -0.24978781045E+02  0.24978781045E+02  0.00000000000E+00 0. -1.
         23    2    1    2    0    0  0.28107640052E+02  0.90391511691E+01  0.43382935412E+03  0.44411206212E+03  0.90309852973E+02 0.  0.
         23    2    1    2    0    0 -0.28107640052E+02 -0.90391511691E+01  0.92590234230E+02  0.13226508832E+03  0.89718205674E+02 0.  0.
          5    1    3    3  502    0  0.15395645896E+02 -0.39758988902E+02  0.16065424842E+03  0.16628193120E+03  0.47000000000E+01 0.  1.
         -5    1    4    4    0  503 -0.11485123562E+02 -0.37824973893E+02  0.90217785298E+02  0.98610220045E+02  0.47000000000E+01 0.  1.
          5    1    4    4  503    0 -0.16622516490E+02  0.28785822724E+02  0.23724489313E+01  0.33654868271E+02  0.47000000000E+01 0. -1.
         -5    1    3    3    0  502  0.12711994156E+02  0.48798140071E+02  0.27317510570E+03  0.27783013092E+03  0.47000000000E+01 0. -1.
<mgrwt>
<rscale>  0 0.94872906E+02</rscale>
<asrwt>0</asrwt>
<pdfrwt beam="1">  1        1 0.38428898E-02 0.95013763E+02</pdfrwt>
<pdfrwt beam="2">  1       -1 0.84830509E-01 0.95013763E+02</pdfrwt>
<totfact> 0.32596344E+03</totfact>
</mgrwt>
</event>
<event>
 8    1  0.2964543E-004  0.1139344E+03  0.7546771E-02  0.1257089E+00
         -2   -1    0    0    0  501 -0.00000000000E+00  0.00000000000E+00  0.14146375892E+03  0.14146375892E+03  0.00000000000E+00 0.  1.
          2   -1    0    0  501    0  0.00000000000E+00 -0.00000000000E+00 -0.94669781926E+02  0.94669781926E+02  0.00000000000E+00 0. -1.
         23    2    1    2    0    0 -0.48723666443E+02 -0.46016263319E+02 -0.12572333229E+02  0.11462595043E+03  0.92138769190E+02 0.  0.
         23    2    1    2    0    0  0.48723666443E+02  0.46016263319E+02  0.59366310221E+02  0.12150759041E+03  0.82147693683E+02 0.  0.
          5    1    4    4  502    0  0.39397287068E+02 -0.81736189686E+01  0.78755054786E-01  0.40509881235E+02  0.47000000000E+01 0. -1.
         -5    1    3    3    0  503 -0.54770733794E+02  0.98140075701E+01 -0.16236600613E+02  0.58153806620E+02  0.47000000000E+01 0.  1.
          5    1    3    3  503    0  0.60470673515E+01 -0.55830270889E+02  0.36642673842E+01  0.56472143810E+02  0.47000000000E+01 0. -1.
         -5    1    4    4    0  502  0.93263793750E+01  0.54189882287E+02  0.59287555166E+02  0.80997709178E+02  0.47000000000E+01 0.  1.
<mgrwt>
<rscale>  0 0.11190143E+03</rscale>
<asrwt>0</asrwt>
<pdfrwt beam="1">  1        2 0.14564582E-01 0.11393439E+03</pdfrwt>
<pdfrwt beam="2">  1       -2 0.21763655E-01 0.11393439E+03</pdfrwt>
<totfact> 0.68429520E+03</totfact>
</mgrwt>
</event>
<event>
 8    1  0.2964543E-004  0.1075535E+03  0.7546771E-02  0.1269795E+00
          1   -1    0    0  501    0  0.00000000000E+00  0.00000000000E+00  0.14046010879E+03  0.14046010879E+03  0.00000000000E+00 0. -1.
         -1   -1    0    0    0  501 -0.00000000000E+00 -0.00000000000E+00 -0.13603627319E+03  0.13603627319E+03  0.00000000000E+00 0.  1.
         23    2    1    2    0    0 -0.84940948796E+01 -0.33105262899E+02  0.94379883835E+02  0.13628277998E+03  0.92180939280E+02 0.  0.
         23    2    1    2    0    0  0.84940948796E+01  0.33105262899E+02 -0.89956048234E+02  0.14021360200E+03  0.10197870117E+03 0.  0.
          5    1    4    4  502    0 -0.27276004897E+02 -0.24437629086E+02 -0.17358200450E+02  0.40799206872E+02  0.47000000000E+01 0. -1.
         -5    1    3    3    0  503 -0.24903485188E+02  0.23859637156E+02  0.17128338064E+02  0.38793502350E+02  0.47000000000E+01 0.  1.
          5    1    3    3  503    0  0.16409390308E+02 -0.56964900056E+02  0.77251545771E+02  0.97489277629E+02  0.47000000000E+01 0. -1.
         -5    1    4    4    0  502  0.35770099777E+02  0.57542891985E+02 -0.72597847784E+02  0.99414395129E+02  0.47000000000E+01 0.  1.
<mgrwt>
<rscale>  0 0.10516499E+03</rscale>
<asrwt>0</asrwt>
<pdfrwt beam="1">  1        1 0.21609248E-01 0.10755354E+03</pdfrwt>
<pdfrwt beam="2">  1       -1 0.20928657E-01 0.10755354E+03</pdfrwt>
<totfact> 0.40876877E+03</totfact>
</mgrwt>
</event>
<event>
 8    1  0.2964543E-004  0.1169428E+03  0.7546771E-02  0.1248927E+00
         -1   -1    0    0    0  501 -0.00000000000E+00  0.00000000000E+00  0.15181773603E+03  0.15181773603E+03  0.00000000000E+00 0.  1.
          1   -1    0    0  501    0  0.00000000000E+00 -0.00000000000E+00 -0.22175909060E+03  0.22175909060E+03  0.00000000000E+00 0. -1.
         23    2    1    2    0    0 -0.23979443829E+02  0.68292857305E+02  0.10954644696E+03  0.16023748789E+03  0.91851512769E+02 0.  0.
         23    2    1    2    0    0  0.23979443829E+02 -0.68292857305E+02 -0.17948780152E+03  0.21333933875E+03  0.89771234117E+02 0.  0.
          5    1    3    3  502    0  0.16773137784E+02 -0.13308939438E+02  0.39353941561E+02  0.45047627423E+02  0.47000000000E+01 0. -1.
         -5    1    3    3    0  502 -0.40752581613E+02  0.81601796743E+02  0.70192505396E+02  0.11518986046E+03  0.47000000000E+01 0.  1.
          5    1    4    4  503    0  0.33196402492E+02 -0.14841004778E+02 -0.14341897719E+03  0.14803158305E+03  0.47000000000E+01 0. -1.
         -5    1    4    4    0  503 -0.92169586628E+01 -0.53451852527E+02 -0.36068824336E+02  0.65307755700E+02  0.47000000000E+01 0.  1.
<mgrwt>
<rscale>  0 0.11653402E+03</rscale>
<asrwt>0</asrwt>
<pdfrwt beam="1">  1        1 0.34116783E-01 0.11694284E+03</pdfrwt>
<pdfrwt beam="2">  1       -1 0.23356575E-01 0.11694284E+03</pdfrwt>
<totfact> 0.19491685E+03</totfact>
</mgrwt>
</event>
<event>
 8    1  0.2964543E-004  0.9725241E+02  0.7546771E-02  0.1287318E+00
          1   -1    0    0  501    0  0.00000000000E+00  0.00000000000E+00  0.66792361695E+02  0.66792361695E+02  0.00000000000E+00 0. -1.
         -1   -1    0    0    0  501 -0.00000000000E+00 -0.00000000000E+00 -0.14707593784E+03  0.14707593784E+03  0.00000000000E+00 0.  1.
         23    2    1    2    0    0 -0.13574629933E+02 -0.29654856470E+02 -0.14103422946E+02  0.96233935689E+02  0.89433677937E+02 0.  0.
         23    2    1    2    0    0  0.13574629933E+02  0.29654856470E+02 -0.66180153198E+02  0.11763436385E+03  0.91620684291E+02 0.  0.
          5    1    3    3  502    0  0.13407840743E+02  0.21640843429E+02  0.16323626009E+02  0.30604690225E+02  0.47000000000E+01 0. -1.
         -5    1    4    4    0  503 -0.46187161921E+01 -0.27841791085E+02 -0.45422972896E+02  0.53682719164E+02  0.47000000000E+01 0.  1.
          5    1    4    4  503    0  0.18193346125E+02  0.57496647556E+02 -0.20757180302E+02  0.63951644682E+02  0.47000000000E+01 0. -1.
         -5    1    3    3    0  502 -0.26982470676E+02 -0.51295699900E+02 -0.30427048955E+02  0.65629245463E+02  0.47000000000E+01 0.  1.
<mgrwt>
<rscale>  0 0.96733892E+02</rscale>
<asrwt>0</asrwt>
<pdfrwt beam="1">  1        1 0.10275748E-01 0.97252408E+02</pdfrwt>
<pdfrwt beam="2">  1       -1 0.22627067E-01 0.97252408E+02</pdfrwt>
<totfact> 0.92910127E+03</totfact>
</mgrwt>
</event>
<event>
 8    1  0.2964543E-004  0.1198696E+03  0.7546771E-02  0.1243627E+00
         -2   -1    0    0    0  501 -0.00000000000E+00  0.00000000000E+00  0.11151263864E+03  0.11151263864E+03  0.00000000000E+00 0.  1.
          2   -1    0    0  501    0  0.00000000000E+00 -0.00000000000E+00 -0.16415532614E+03  0.16415532614E+03  0.00000000000E+00 0. -1.
         23    2    1    2    0    0  0.88398479682E+01 -0.77254144983E+02  0.38396661229E+02  0.12514592795E+03  0.90226680426E+02 0.  0.
         23    2    1    2    0    0 -0.88398479682E+01  0.77254144983E+02 -0.91039348724E+02  0.15052203683E+03  0.91227050406E+02 0.  0.
          5    1    3    3  502    0 -0.19346868673E+02 -0.82380985827E+01 -0.20714382997E+02  0.29888848400E+02  0.47000000000E+01 0. -1.
         -5    1    3    3    0  502  0.28186716641E+02 -0.69016046400E+02  0.59111044226E+02  0.95257079554E+02  0.47000000000E+01 0.  1.
          5    1    4    4  503    0 -0.45928042065E+02  0.32515088667E+02 -0.23139675110E+02  0.61025819152E+02  0.47000000000E+01 0. -1.
         -5    1    4    4    0  503  0.37088194097E+02  0.44739056315E+02 -0.67899673614E+02  0.89496217676E+02  0.47000000000E+01 0.  1.
<mgrwt>
<rscale>  0 0.11967925E+03</rscale>
<asrwt>0</asrwt>
<pdfrwt beam="1">  1        2 0.25254665E-01 0.11986960E+03</pdfrwt>
<pdfrwt beam="2">  1       -2 0.17155791E-01 0.11986960E+03</pdfrwt>
<totfact> 0.54917590E+03</totfact>
</mgrwt>
</event>
<event>
 8    1  0.2964543E-004  0.1058569E+03  0.7546771E-02  0.1272191E+00
         -3   -1    0    0    0  501 -0.00000000000E+00  0.00000000000E+00  0.23894313771E+03  0.23894313771E+03  0.00000000000E+00 0.  1.
          3   -1    0    0  501    0  0.00000000000E+00 -0.00000000000E+00 -0.45049564435E+02  0.45049564435E+02  0.00000000000E+00 0. -1.
         23    2    1    2    0    0  0.36016590049E+02 -0.38821871389E+02  0.11833323763E+03  0.15393485391E+03  0.82999106410E+02 0.  0.
         23    2    1    2    0    0 -0.36016590049E+02  0.38821871389E+02  0.75560335647E+02  0.13005784823E+03  0.91658862674E+02 0.  0.
          5    1    4    4  502    0 -0.23361392365E+02  0.61189758328E+02  0.19971950613E+02  0.68636069153E+02  0.47000000000E+01 0. -1.
         -5    1    3    3    0  503  0.33938069757E+02 -0.62562070229E+02  0.10272867332E+03  0.12506428560E+03  0.47000000000E+01 0.  1.
          5    1    3    3  503    0  0.20785202926E+01  0.23740198840E+02  0.15604564309E+02  0.28870568315E+02  0.47000000000E+01 0. -1.
         -5    1    4    4    0  502 -0.12655197685E+02 -0.22367886939E+02  0.55588385034E+02  0.61421779079E+02  0.47000000000E+01 0.  1.
<mgrwt>
<rscale>  0 0.10395554E+03</rscale>
<asrwt>0</asrwt>
<pdfrwt beam="1">  1        3 0.69307024E-02 0.10585688E+03</pdfrwt>
<pdfrwt beam="2">  1       -3 0.36760482E-01 0.10585688E+03</pdfrwt>
<totfact> 0.21566083E+03</totfact>
</mgrwt>
</event>
<event>
 8    1  0.2964543E-004  0.1613938E+03  0.7546771E-02  0.1189185E+00
         -2   -1    0    0    0  501 -0.00000000000E+00  0.00000000000E+00  0.29773834652E+03  0.29773834652E+03  0.00000000000E+00 0.  1.
          2   -1    0    0  501    0  0.00000000000E+00 -0.00000000000E+00 -0.10338801166E+03  0.10338801166E+03  0.00000000000E+00 0. -1.
         23    2    1    2    0    0  0.12341256876E+03 -0.21664515912E+02  0.18660351195E+03  0.24671608869E+03  0.10172484637E+03 0.  0.
         23    2    1    2    0    0 -0.12341256876E+03  0.21664515912E+02  0.77468229048E+01  0.15441026949E+03  0.89902751231E+02 0.  0.
          5    1    4    4  502    0 -0.14054159580E+02  0.39326687688E+02  0.11159633029E+02  0.43482584736E+02  0.47000000000E+01 0. -1.
         -5    1    3    3    0  503  0.34290512178E+02  0.25687798763E+02  0.11520343110E+03  0.12300253155E+03  0.47000000000E+01 0.  1.
          5    1    3    3  503    0  0.89122056585E+02 -0.47352314675E+02  0.71400080849E+02  0.12371355714E+03  0.47000000000E+01 0. -1.
         -5    1    4    4    0  502 -0.10935840918E+03 -0.17662171775E+02 -0.34128101239E+01  0.11092768475E+03  0.47000000000E+01 0.  1.
<mgrwt>
<rscale>  0 0.15956857E+03</rscale>
<asrwt>0</asrwt>
<pdfrwt beam="1">  1        2 0.15905848E-01 0.16139380E+03</pdfrwt>
<pdfrwt beam="2">  1       -2 0.45805899E-01 0.16139380E+03</pdfrwt>
<totfact> 0.16287379E+03</totfact>
</mgrwt>
</event>
<event>
 8    1  0.2964543E-004  0.9531095E+02  0.7546771E-02  0.1292882E+00
         -3   -1    0    0    0  501 -0.00000000000E+00  0.00000000000E+00  0.16562633596E+03  0.16562633596E+03  0.00000000000E+00 0.  1.
          3   -1    0    0  501    0  0.00000000000E+00 -0.00000000000E+00 -0.54750363624E+02  0.54750363624E+02  0.00000000000E+00 0. -1.
         23    2    1    2    0    0  0.61466357118E+01  0.21544611937E+02  0.31734287918E+02  0.96491331859E+02  0.88326443720E+02 0.  0.
         23    2    1    2    0    0 -0.61466357118E+01 -0.21544611937E+02  0.79141684421E+02  0.12388536773E+03  0.92640308129E+02 0.  0.
          5    1    3    3  502    0 -0.36873260985E+02  0.28520519155E+02  0.21105176393E+02  0.51386533831E+02  0.47000000000E+01 0. -1.
         -5    1    4    4    0  503  0.67596263271E+01 -0.55038911777E+02  0.31166207515E+02  0.63783985831E+02  0.47000000000E+01 0.  1.
          5    1    4    4  503    0 -0.12906262039E+02  0.33494299840E+02  0.47975476905E+02  0.60101381897E+02  0.47000000000E+01 0. -1.
         -5    1    3    3    0  502  0.43019896697E+02 -0.69759072185E+01  0.10629111525E+02  0.45104798028E+02  0.47000000000E+01 0.  1.
<mgrwt>
<rscale>  0 0.94246416E+02</rscale>
<asrwt>0</asrwt>
<pdfrwt beam="1">  1        3 0.84231329E-02 0.95310955E+02</pdfrwt>
<pdfrwt beam="2">  1       -3 0.25480975E-01 0.95310955E+02</pdfrwt>
<totfact> 0.30301488E+03</totfact>
</mgrwt>
</event>
<event>
 8    1  0.2964543E-004  0.1232028E+03  0.7546771E-02  0.1240604E+00
          1   -1    0    0  501    0  0.00000000000E+00  0.00000000000E+00  0.16688600452E+03  0.16688600452E+03  0.00000000000E+00 0. -1.
         -1   -1    0    0    0  501 -0.00000000000E+00 -0.00000000000E+00 -0.12620591695E+03  0.12620591695E+03  0.00000000000E+00 0.  1.
         23    2    1    2    0    0 -0.98682684695E+01  0.80802089668E+02  0.10324679754E+03  0.16074462488E+03  0.92480121151E+02 0.  0.
         23    2    1    2    0    0  0.98682684695E+01 -0.80802089668E+02 -0.62566709978E+02  0.13234729659E+03  0.83515587161E+02 0.  0.
          5    1    4    4  502    0  0.37954644284E+02 -0.20857987399E+02 -0.47193509882E+02  0.64225602652E+02  0.47000000000E+01 0.  1.
         -5    1    3    3    0  503 -0.33483238887E+02  0.71464410268E+01  0.39415231764E+01  0.34782531688E+02  0.47000000000E+01 0.  1.
          5    1    3    3  503    0  0.23614970417E+02  0.73655648641E+02  0.99305274368E+02  0.12596209319E+03  0.47000000000E+01 0. -1.
         -5    1    4    4    0  502 -0.28086375814E+02 -0.59944102269E+02 -0.15373200096E+02  0.68121693934E+02  0.47000000000E+01 0.  1.
<mgrwt>
<rscale>  0 0.12152417E+03</rscale>
<asrwt>0</asrwt>
<pdfrwt beam="1">  1        1 0.25674770E-01 0.12320281E+03</pdfrwt>
<pdfrwt beam="2">  1       -1 0.19416295E-01 0.12320281E+03</pdfrwt>
<totfact> 0.37434526E+03</totfact>
</mgrwt>
</event>
<event>
 8    1  0.2964543E-004  0.2138273E+03  0.7546771E-02  0.1138911E+00
         -1   -1    0    0    0  501 -0.00000000000E+00  0.00000000000E+00  0.22553657919E+03  0.22553657919E+03  0.00000000000E+00 0.  1.
          1   -1    0    0  501    0  0.00000000000E+00 -0.00000000000E+00 -0.22542169985E+03  0.22542169985E+03  0.00000000000E+00 0. -1.
         23    2    1    2    0    0 -0.17177810636E+03  0.88699786221E+02  0.74168727728E+02  0.22632525224E+03  0.91360547986E+02 0.  0.
         23    2    1    2    0    0  0.17177810636E+03 -0.88699786221E+02 -0.74053848388E+02  0.22463302681E+03  0.87181731872E+02 0.  0.
          5    1    4    4  502    0  0.14969297641E+03 -0.10205344629E+03 -0.79398356578E+02  0.19786126986E+03  0.47000000000E+01 0. -1.
         -5    1    3    3    0  503 -0.12844203390E+03  0.10398084282E+03  0.71309255136E+02  0.18004574867E+03  0.47000000000E+01 0.  1.
          5    1    3    3  503    0 -0.43336072452E+02 -0.15281056603E+02  0.28594725918E+01  0.46279503562E+02  0.47000000000E+01 0. -1.
         -5    1    4    4    0  502  0.22085129947E+02  0.13353660066E+02  0.53445081900E+01  0.26771756941E+02  0.47000000000E+01 0.  1.
<mgrwt>
<rscale>  0 0.21338801E+03</rscale>
<asrwt>0</asrwt>
<pdfrwt beam="1">  1        1 0.34680262E-01 0.21382731E+03</pdfrwt>
<pdfrwt beam="2">  1       -1 0.34697935E-01 0.21382731E+03</pdfrwt>
<totfact> 0.99857239E+02</totfact>
</mgrwt>
</event>
<event>
 8    1  0.6398037E-004  0.3333416E+03  0.7546771E-02  0.1069697E+00
          1   -1    0    0  501    0  0.00000000000E+00  0.00000000000E+00  0.94978121046E+03  0.94978121046E+03  0.00000000000E+00 0. -1.
         -1   -1    0    0    0  501 -0.00000000000E+00 -0.00000000000E+00 -0.28154421971E+03  0.28154421971E+03  0.00000000000E+00 0.  1.
         23    2    1    2    0    0 -0.14072474041E+03 -0.28796503215E+03  0.80487126674E+03  0.87106779541E+03  0.90631318372E+02 0.  0.
         23    2    1    2    0    0  0.14072474041E+03  0.28796503215E+03 -0.13663427599E+03  0.36025763476E+03  0.91593262427E+02 0.  0.
          5    1    3    3  502    0 -0.12790222180E+03 -0.26999360395E+03  0.66046356698E+03  0.72490670973E+03  0.47000000000E+01 0. -1.
         -5    1    4    4    0  503  0.10479925416E+03  0.18336781434E+03 -0.13273542049E+03  0.24949433032E+03  0.47000000000E+01 0.  1.
          5    1    4    4  503    0  0.35925486252E+02  0.10459721781E+03 -0.38988554975E+01  0.11076330444E+03  0.47000000000E+01 0. -1.
         -5    1    3    3    0  502 -0.12822518614E+02 -0.17971428207E+02  0.14440769976E+03  0.14616108567E+03  0.47000000000E+01 0.  1.
<mgrwt>
<rscale>  0 0.33327585E+03</rscale>
<asrwt>0</asrwt>
<pdfrwt beam="1">  1        1 0.14612018E+00 0.33334162E+03</pdfrwt>
<pdfrwt beam="2">  1       -1 0.43314496E-01 0.33334162E+03</pdfrwt>
<totfact> 0.93477546E+01</totfact>
</mgrwt>
</event>
<event>
 8    1  0.2964543E-004  0.1099751E+03  0.7546771E-02  0.1260821E+00
         -3   -1    0    0    0  501 -0.00000000000E+00  0.00000000000E+00  0.16350941702E+03  0.16350941702E+03  0.00000000000E+00 0.  1.
          3   -1    0    0  501    0  0.00000000000E+00 -0.00000000000E+00 -0.73740915283E+02  0.73740915283E+02  0.00000000000E+00 0. -1.
         23    2    1    2    0    0  0.51033549919E+02 -0.34289755536E+02  0.48630773379E+02  0.12024755631E+03  0.91182849964E+02 0.  0.
         23    2    1    2    0    0 -0.51033549919E+02  0.34289755536E+02  0.41137728361E+02  0.11700277599E+03  0.90648366470E+02 0.  0.
          5    1    4    4  502    0 -0.71242657122E+02  0.45935769997E+02  0.37959597844E+02  0.92998022708E+02  0.47000000000E+01 0. -1.
         -5    1    3    3    0  503  0.14139399175E+02  0.22318192356E+02  0.45029423656E+02  0.52419112105E+02  0.47000000000E+01 0.  1.
          5    1    3    3  503    0  0.36894150743E+02 -0.56607947892E+02  0.36013497225E+01  0.67828444206E+02  0.47000000000E+01 0. -1.
         -5    1    4    4    0  502  0.20209107204E+02 -0.11646014461E+02  0.31781305170E+01  0.24004753287E+02  0.47000000000E+01 0.  1.
<mgrwt>
<rscale>  0 0.10986425E+03</rscale>
<asrwt>0</asrwt>
<pdfrwt beam="1">  1        3 0.11344756E-01 0.10997510E+03</pdfrwt>
<pdfrwt beam="2">  1       -3 0.25155295E-01 0.10997510E+03</pdfrwt>
<totfact> 0.19582369E+03</totfact>
</mgrwt>
</event>
<event>
 8    1  0.2964543E-004  0.9485603E+02  0.7546771E-02  0.1293402E+00
         -1   -1    0    0    0  501 -0.00000000000E+00  0.00000000000E+00  0.39093578599E+03  0.39093578599E+03  0.00000000000E+00 0.  1.
          1   -1    0    0  501    0  0.00000000000E+00 -0.00000000000E+00 -0.44167644993E+02  0.44167644993E+02  0.00000000000E+00 0. -1.
         23    2    1    2    0    0  0.17852331957E+02 -0.13258624702E+02  0.32518048147E+03  0.33782191339E+03  0.88807672811E+02 0.  0.
         23    2    1    2    0    0 -0.17852331957E+02  0.13258624702E+02  0.21587659528E+02  0.97281517596E+02  0.92212633282E+02 0.  0.
          5    1    4    4  502    0 -0.43099927215E+02 -0.20349159463E+02 -0.36418716430E+01  0.48031710836E+02  0.47000000000E+01 0. -1.
         -5    1    3    3    0  503  0.53883159081E+02 -0.52696398745E+01  0.19203895802E+03  0.19958009754E+03  0.47000000000E+01 0.  1.
          5    1    3    3  503    0 -0.36030827125E+02 -0.79889848279E+01  0.13314152346E+03  0.13824181585E+03  0.47000000000E+01 0. -1.
         -5    1    4    4    0  502  0.25247595258E+02  0.33607784165E+02  0.25229531171E+02  0.49249806760E+02  0.47000000000E+01 0.  1.
<mgrwt>
<rscale>  0 0.94018352E+02</rscale>
<asrwt>0</asrwt>
<pdfrwt beam="1">  1        1 0.67950226E-02 0.94856031E+02</pdfrwt>
<pdfrwt beam="2">  1       -1 0.60143965E-01 0.94856031E+02</pdfrwt>
<totfact> 0.29696550E+03</totfact>
</mgrwt>
</event>
<event>
 8    1  0.2964543E-004  0.1125053E+03  0.7546771E-02  0.1256823E+00
         -2   -1    0    0    0  501 -0.00000000000E+00  0.00000000000E+00  0.38081010514E+03  0.38081010514E+03  0.00000000000E+00 0.  1.
          2   -1    0    0  501    0  0.00000000000E+00 -0.00000000000E+00 -0.32962787002E+02  0.32962787002E+02  0.00000000000E+00 0. -1.
         23    2    1    2    0    0 -0.52871378923E+02 -0.35315054200E+02  0.19085573190E+03  0.22063095628E+03  0.90606692382E+02 0.  0.
         23    2    1    2    0    0  0.52871378923E+02  0.35315054200E+02  0.15699158623E+03  0.19314193587E+03  0.92816558219E+02 0.  0.
          5    1    3    3  502    0  0.45025141415E+01 -0.47687285572E+02  0.58394682072E+02  0.75672840128E+02  0.47000000000E+01 0. -1.
         -5    1    3    3    0  502 -0.57373893064E+02  0.12372231372E+02  0.13246104983E+03  0.14495811615E+03  0.47000000000E+01 0.  1.
          5    1    4    4  503    0  0.72847235021E+02  0.47806975772E+02  0.13387187432E+03  0.15979986019E+03  0.47000000000E+01 0. -1.
         -5    1    4    4    0  503 -0.19975856098E+02 -0.12491921572E+02  0.23119711911E+02  0.33342075674E+02  0.47000000000E+01 0.  1.
<mgrwt>
<rscale>  0 0.11204853E+03</rscale>
<asrwt>0</asrwt>
<pdfrwt beam="1">  1        2 0.50711983E-02 0.11250533E+03</pdfrwt>
<pdfrwt beam="2">  1       -2 0.58586167E-01 0.11250533E+03</pdfrwt>
<totfact> 0.40203379E+03</totfact>
</mgrwt>
</event>
<event>
 8    1  0.2964543E-004  0.9354488E+02  0.7546771E-02  0.1294941E+00
          2   -1    0    0  501    0  0.00000000000E+00  0.00000000000E+00  0.59067099895E+03  0.59067099895E+03  0.00000000000E+00 0. -1.
         -2   -1    0    0    0  501 -0.00000000000E+00 -0.00000000000E+00 -0.21710945466E+02  0.21710945466E+02  0.00000000000E+00 0.  1.
         23    2    1    2    0    0  0.56891647044E+01 -0.17127859690E+02  0.45940543841E+03  0.46883259360E+03  0.91787329202E+02 0.  0.
         23    2    1    2    0    0 -0.56891647044E+01  0.17127859690E+02  0.10955461507E+03  0.14354935082E+03  0.90986110284E+02 0.  0.
          5    1    3    3  502    0 -0.23798375693E+02  0.25878196528E+02  0.11139359246E+03  0.11690451737E+03  0.47000000000E+01 0. -1.
         -5    1    4    4    0  503  0.16647286678E+02  0.49774021258E+02  0.57347053002E+02  0.77880420093E+02  0.47000000000E+01 0.  1.
          5    1    4    4  503    0 -0.22336451382E+02 -0.32646161568E+02  0.52207562064E+02  0.65668930722E+02  0.47000000000E+01 0. -1.
         -5    1    3    3    0  502  0.29487540397E+02 -0.43006056218E+02  0.34801184596E+03  0.35192807623E+03  0.47000000000E+01 0.  1.
<mgrwt>
<rscale>  0 0.93347745E+02</rscale>
<asrwt>0</asrwt>
<pdfrwt beam="1">  1        2 0.90872449E-01 0.93544877E+02</pdfrwt>
<pdfrwt beam="2">  1       -2 0.33401459E-02 0.93544877E+02</pdfrwt>
<totfact> 0.16972367E+04</totfact>
</mgrwt>
</event>
<event>
 8    1  0.2964543E-004  0.1388299E+03  0.7546771E-02  0.1215000E+00
          1   -1    0    0  501    0  0.00000000000E+00  0.00000000000E+00  0.62144762702E+03  0.62144762702E+03  0.00000000000E+00 0. -1.
         -1   -1    0    0    0  501 -0.00000000000E+00 -0.00000000000E+00 -0.35863863554E+02  0.35863863554E+02  0.00000000000E+00 0.  1.
         23    2    1    2    0    0  0.18544105319E+02  0.10399836646E+03  0.17098894042E+03  0.22009002670E+03  0.89681982799E+02 0.  0.
         23    2    1    2    0    0 -0.18544105319E+02 -0.10399836646E+03  0.41459482305E+03  0.43722146388E+03  0.90078838280E+02 0.  0.
          5    1    4    4  502    0 -0.21680407032E+02 -0.27018441557E+01  0.18326001846E+03  0.18461761665E+03  0.47000000000E+01 0. -1.
         -5    1    3    3    0  503  0.46481021241E+02  0.63972117129E+02  0.62053503607E+02  0.10062626106E+03  0.47000000000E+01 0.  1.
          5    1    3    3  503    0 -0.27936915923E+02  0.40026249333E+02  0.10893543681E+03  0.11946376564E+03  0.47000000000E+01 0. -1.
         -5    1    4    4    0  502  0.31363017137E+01 -0.10129652231E+03  0.23133480458E+03  0.25260384722E+03  0.47000000000E+01 0.  1.
<mgrwt>
<rscale>  0 0.13876556E+03</rscale>
<asrwt>0</asrwt>
<pdfrwt beam="1">  1        1 0.95607319E-01 0.13882990E+03</pdfrwt>
<pdfrwt beam="2">  1       -1 0.55175179E-02 0.13882990E+03</pdfrwt>
<totfact> 0.49194996E+03</totfact>
</mgrwt>
</event>
<event>
 8    1  0.2964543E-004  0.3402982E+03  0.7546771E-02  0.1066688E+00
          2   -1    0    0  501    0  0.00000000000E+00  0.00000000000E+00  0.11948366235E+04  0.11948366235E+04  0.00000000000E+00 0. -1.
         -2   -1    0    0    0  501 -0.00000000000E+00 -0.00000000000E+00 -0.16011176700E+03  0.16011176700E+03  0.00000000000E+00 0.  1.
         23    2    1    2    0    0  0.11762870172E+03  0.30605307101E+03  0.91501934295E+02  0.35221595301E+03  0.90434948070E+02 0.  0.
         23    2    1    2    0    0 -0.11762870172E+03 -0.30605307101E+03  0.94322292225E+03  0.10027324375E+04  0.91092625971E+02 0.  0.
          5    1    3    3  502    0  0.87752693092E+01  0.31542887974E+02  0.40849529069E+02  0.52561708100E+02  0.47000000000E+01 0. -1.
         -5    1    3    3    0  502  0.10885343241E+03  0.27451018303E+03  0.50652405226E+02  0.29965424491E+03  0.47000000000E+01 0.  1.
          5    1    4    4  503    0 -0.89828318788E+02 -0.29724471129E+03  0.87058838344E+03  0.92432124752E+03  0.47000000000E+01 0. -1.
         -5    1    4    4    0  503 -0.27800382934E+02 -0.88083597160E+01  0.72634538811E+02  0.78411190021E+02  0.47000000000E+01 0.  1.
<mgrwt>
<rscale>  0 0.34025432E+03</rscale>
<asrwt>0</asrwt>
<pdfrwt beam="1">  1        2 0.18382101E+00 0.34029819E+03</pdfrwt>
<pdfrwt beam="2">  1       -2 0.24632580E-01 0.34029819E+03</pdfrwt>
<totfact> 0.29320146E+02</totfact>
</mgrwt>
</event>
<event>
 8    1  0.2964543E-004  0.9451810E+02  0.7546771E-02  0.1297468E+00
          1   -1    0    0  501    0  0.00000000000E+00  0.00000000000E+00  0.35994682022E+03  0.35994682022E+03  0.00000000000E+00 0. -1.
         -1   -1    0    0    0  501 -0.00000000000E+00 -0.00000000000E+00 -0.29928112771E+02  0.29928112771E+02  0.00000000000E+00 0.  1.
         23    2    1    2    0    0 -0.32712436155E+01 -0.21153950353E+02  0.74547584911E+02  0.12037862508E+03  0.92062371842E+02 0.  0.
         23    2    1    2    0    0  0.32712436155E+01  0.21153950353E+02  0.25547112254E+03  0.26949630791E+03  0.83093771593E+02 0.  0.
          5    1    3    3  502    0  0.14402734620E+02  0.29420101853E+02  0.52917589489E+02  0.62412678479E+02  0.47000000000E+01 0. -1.
         -5    1    3    3    0  502 -0.17673978236E+02 -0.50574052205E+02  0.21629995422E+02  0.57965946599E+02  0.47000000000E+01 0.  1.
          5    1    4    4  503    0 -0.31164287332E+02  0.10793611282E+02  0.20297896323E+03  0.20569459002E+03  0.47000000000E+01 0. -1.
         -5    1    4    4    0  503  0.34435530948E+02  0.10360339070E+02  0.52492159308E+02  0.63801717893E+02  0.47000000000E+01 0.  1.
<mgrwt>
<rscale>  0 0.92260617E+02</rscale>
<asrwt>0</asrwt>
<pdfrwt beam="1">  1        1 0.55376431E-01 0.94518099E+02</pdfrwt>
<pdfrwt beam="2">  1       -1 0.46043253E-02 0.94518099E+02</pdfrwt>
<totfact> 0.12649667E+04</totfact>
</mgrwt>
</event>
<event>
 8    1  0.2964543E-004  0.9716322E+02  0.7546771E-02  0.1286759E+00
         -1   -1    0    0    0  501 -0.00000000000E+00  0.00000000000E+00  0.26703385857E+03  0.26703385857E+03  0.00000000000E+00 0.  1.
          1   -1    0    0  501    0  0.00000000000E+00 -0.00000000000E+00 -0.38221042625E+02  0.38221042625E+02  0.00000000000E+00 0. -1.
         23    2    1    2    0    0  0.18837039929E+02 -0.26930379639E+02  0.71175943177E+02  0.12044378841E+03  0.91436381478E+02 0.  0.
         23    2    1    2    0    0 -0.18837039929E+02  0.26930379639E+02  0.15763687277E+03  0.18481111279E+03  0.90695558510E+02 0.  0.
          5    1    3    3  502    0 -0.19343640572E+02  0.24640603948E+02  0.15073525107E+02  0.35080435468E+02  0.47000000000E+01 0.  1.
         -5    1    4    4    0  503 -0.52268906779E+02  0.10295703360E+02  0.12097901732E+03  0.13227264553E+03  0.47000000000E+01 0.  1.
          5    1    4    4  503    0  0.33431866850E+02  0.16634676279E+02  0.36657855450E+02  0.52538467262E+02  0.47000000000E+01 0. -1.
         -5    1    3    3    0  502  0.38180680501E+02 -0.51570983587E+02  0.56102418070E+02  0.85363352938E+02  0.47000000000E+01 0. -1.
<mgrwt>
<rscale>  0 0.96988541E+02</rscale>
<asrwt>0</asrwt>
<pdfrwt beam="1">  1        1 0.58801606E-02 0.97163220E+02</pdfrwt>
<pdfrwt beam="2">  1       -1 0.41082131E-01 0.97163220E+02</pdfrwt>
<totfact> 0.71981694E+03</totfact>
</mgrwt>
</event>
<event>
 8    1  0.2964543E-004  0.1315834E+03  0.7546771E-02  0.1225339E+00
          2   -1    0    0  501    0  0.00000000000E+00  0.00000000000E+00  0.15054818513E+04  0.15054818513E+04  0.00000000000E+00 0. -1.
         -2   -1    0    0    0  501 -0.00000000000E+00 -0.00000000000E+00 -0.12647531866E+02  0.12647531866E+02  0.00000000000E+00 0.  1.
         23    2    1    2    0    0  0.66027884776E+02  0.69775150288E+02  0.51129944697E+03  0.52781382648E+03  0.89062100686E+02 0.  0.
         23    2    1    2    0    0 -0.66027884776E+02 -0.69775150288E+02  0.98153487250E+03  0.99031555673E+03  0.89921870526E+02 0.  0.
          5    1    4    4  502    0 -0.65865581169E+02 -0.91528539363E+01  0.63467506556E+03  0.63816657571E+03  0.47000000000E+01 0. -1.
         -5    1    3    3    0  503  0.27787374213E+02 -0.18383953397E+02  0.10411056555E+03  0.10941301461E+03  0.47000000000E+01 0.  1.
          5    1    3    3  503    0  0.38240510563E+02  0.88159103685E+02  0.40718888143E+03  0.41840081186E+03  0.47000000000E+01 0. -1.
         -5    1    4    4    0  502 -0.16230360742E+00 -0.60622296351E+02  0.34685980694E+03  0.35214898101E+03  0.47000000000E+01 0.  1.
<mgrwt>
<rscale>  0 0.13143666E+03</rscale>
<asrwt>0</asrwt>
<pdfrwt beam="1">  1        2 0.23161245E+00 0.13158342E+03</pdfrwt>
<pdfrwt beam="2">  1       -2 0.19457753E-02 0.13158342E+03</pdfrwt>
<totfact> 0.10613765E+04</totfact>
</mgrwt>
</event>
<event>
 8    1  0.2964543E-004  0.1156360E+03  0.7546771E-02  0.1253338E+00
          2   -1    0    0  501    0  0.00000000000E+00  0.00000000000E+00  0.89399815083E+03  0.89399815083E+03  0.00000000000E+00 0. -1.
         -2   -1    0    0    0  501 -0.00000000000E+00 -0.00000000000E+00 -0.17347692168E+02  0.17347692168E+02  0.00000000000E+00 0.  1.
         23    2    1    2    0    0 -0.65949101961E+02  0.32719499828E+02  0.25262033787E+03  0.27782856867E+03  0.89173026985E+02 0.  0.
         23    2    1    2    0    0  0.65949101961E+02 -0.32719499828E+02  0.62403012079E+03  0.63351727433E+03  0.80688880926E+02 0.  0.
          5    1    3    3  502    0 -0.39546768361E+02 -0.27892764306E+02  0.91693423752E+02  0.10378693149E+03  0.47000000000E+01 0. -1.
         -5    1    3    3    0  502 -0.26402333600E+02  0.60612264134E+02  0.16092691412E+03  0.17404163718E+03  0.47000000000E+01 0.  1.
          5    1    4    4  503    0  0.62292317453E+02 -0.53681895893E+02  0.55638665618E+03  0.56245024663E+03  0.47000000000E+01 0. -1.
         -5    1    4    4    0  503  0.36567845081E+01  0.20962396065E+02  0.67643464607E+02  0.71067027698E+02  0.47000000000E+01 0.  1.
<mgrwt>
<rscale>  0 0.11399932E+03</rscale>
<asrwt>0</asrwt>
<pdfrwt beam="1">  1        2 0.13753814E+00 0.11563597E+03</pdfrwt>
<pdfrwt beam="2">  1       -2 0.26688764E-02 0.11563597E+03</pdfrwt>
<totfact> 0.14609606E+04</totfact>
</mgrwt>
</event>
<event>
 7    1  0.2964543E-004  0.1752867E+03  0.7546771E-02  0.1199999E+00
          2   -1    0    0  501    0  0.00000000000E+00  0.00000000000E+00  0.24314881107E+03  0.24314881107E+03  0.00000000000E+00 0. -1.
         -2   -1    0    0    0  501 -0.00000000000E+00 -0.00000000000E+00 -0.75097614884E+02  0.75097614884E+02  0.00000000000E+00 0.  1.
         23    2    1    2    0    0 -0.42005989369E+01 -0.27953250567E+02  0.58645199741E+02  0.11161853733E+03  0.90666472167E+02 0.  0.
          5    1    1    2  502    0 -0.43042936034E+02  0.14994036983E+02  0.14092429861E+03  0.14818658315E+03  0.47000000000E+01 0. -1.
         -5    1    1    2    0  502  0.47243534971E+02  0.12959213584E+02 -0.31518302166E+02  0.58441305467E+02  0.47000000000E+01 0.  1.
          5    1    3    3  503    0  0.16945964033E+02 -0.56475120306E+02  0.37096050443E+02  0.69819852972E+02  0.47000000000E+01 0. -1.
         -5    1    3    3    0  503 -0.21146562970E+02  0.28521869740E+02  0.21549149298E+02  0.41798684361E+02  0.47000000000E+01 0.  1.
<mgrwt>
<rscale>  0 0.15038658E+03</rscale>
<asrwt>0</asrwt>
<pdfrwt beam="1">  1        2 0.37407509E-01 0.17528666E+03</pdfrwt>
<pdfrwt beam="2">  1       -2 0.11553479E-01 0.17528666E+03</pdfrwt>
<totfact> 0.69910928E+03</totfact>
</mgrwt>
</event>
<event>
 8    1  0.2964543E-004  0.9776025E+02  0.7546771E-02  0.1285215E+00
          2   -1    0    0  501    0  0.00000000000E+00  0.00000000000E+00  0.37426614562E+03  0.37426614562E+03  0.00000000000E+00 0. -1.
         -2   -1    0    0    0  501 -0.00000000000E+00 -0.00000000000E+00 -0.56471346095E+02  0.56471346095E+02  0.00000000000E+00 0.  1.
         23    2    1    2    0    0  0.22851072631E+02  0.24587773928E+02 -0.77039875189E+00  0.97509564981E+02  0.91546663518E+02 0.  0.
         23    2    1    2    0    0 -0.22851072631E+02 -0.24587773928E+02  0.31856519828E+03  0.33322792674E+03  0.91816858235E+02 0.  0.
          5    1    3    3  502    0 -0.32330189580E+02  0.21145894835E+02 -0.12344735060E+02  0.40827350028E+02  0.47000000000E+01 0. -1.
         -5    1    4    4    0  503  0.28504545843E+02 -0.27017884166E+02  0.81310436085E+02  0.90420972207E+02  0.47000000000E+01 0.  1.
          5    1    4    4  503    0 -0.51355618475E+02  0.24301102373E+01  0.23725476219E+03  0.24280695453E+03  0.47000000000E+01 0. -1.
         -5    1    3    3    0  502  0.55181262211E+02  0.34418790934E+01  0.11574336308E+02  0.56682214952E+02  0.47000000000E+01 0.  1.
<mgrwt>
<rscale>  0 0.97696753E+02</rscale>
<asrwt>0</asrwt>
<pdfrwt beam="1">  1        2 0.57579405E-01 0.97760246E+02</pdfrwt>
<pdfrwt beam="2">  1       -2 0.86878996E-02 0.97760246E+02</pdfrwt>
<totfact> 0.66624428E+03</totfact>
</mgrwt>
</event>
<event>
 8    1  0.2964543E-004  0.9819020E+02  0.7546771E-02  0.1287376E+00
         -3   -1    0    0    0  501 -0.00000000000E+00  0.00000000000E+00  0.96264331057E+01  0.96264331057E+01  0.00000000000E+00 0.  1.
          3   -1    0    0  501    0  0.00000000000E+00 -0.00000000000E+00 -0.10321302000E+04  0.10321302000E+04  0.00000000000E+00 0. -1.
         23    2    1    2    0    0 -0.19268187943E+02  0.22362105320E+01 -0.37270277000E+03  0.38542012105E+03  0.96255136176E+02 0.  0.
         23    2    1    2    0    0  0.19268187943E+02 -0.22362105320E+01 -0.64980099689E+03  0.65633651205E+03  0.90332816786E+02 0.  0.
          5    1    3    3  502    0 -0.55859408489E+02 -0.56928646025E+01 -0.16601715180E+03  0.17531818764E+03  0.47000000000E+01 0. -1.
         -5    1    3    3    0  502  0.36591220546E+02  0.79290751345E+01 -0.20668561820E+03  0.21010193342E+03  0.47000000000E+01 0.  1.
          5    1    4    4  503    0 -0.10393926682E+02 -0.40539350896E+02 -0.36299001741E+03  0.36542484237E+03  0.47000000000E+01 0. -1.
         -5    1    4    4    0  503  0.29662114625E+02  0.38303140364E+02 -0.28681097948E+03  0.29091166968E+03  0.47000000000E+01 0.  1.
<mgrwt>
<rscale>  0 0.96707397E+02</rscale>
<asrwt>0</asrwt>
<pdfrwt beam="1">  1        3 0.15878924E+00 0.98190198E+02</pdfrwt>
<pdfrwt beam="2">  1       -3 0.14809899E-02 0.98190198E+02</pdfrwt>
<totfact> 0.98533119E+02</totfact>
</mgrwt>
</event>
<event>
 8    1  0.2964543E-004  0.1170816E+03  0.7546771E-02  0.1249525E+00
         -1   -1    0    0    0  501 -0.00000000000E+00  0.00000000000E+00  0.94149263541E+02  0.94149263541E+02  0.00000000000E+00 0.  1.
          1   -1    0    0  501    0  0.00000000000E+00 -0.00000000000E+00 -0.14172751366E+03  0.14172751366E+03  0.00000000000E+00 0. -1.
         23    2    1    2    0    0 -0.66782769530E+02  0.20628816690E+01 -0.31158361360E+02  0.12115666169E+03  0.96145199576E+02 0.  0.
         23    2    1    2    0    0  0.66782769530E+02 -0.20628816690E+01 -0.16419888765E+02  0.11472011552E+03  0.91798139256E+02 0.  0.
          5    1    3    3  502    0 -0.78953248849E+02  0.20521124409E+02  0.11577498782E+01  0.81720024692E+02  0.47000000000E+01 0. -1.
         -5    1    3    3    0  502  0.12170479319E+02 -0.18458242740E+02 -0.32316111238E+02  0.39436636994E+02  0.47000000000E+01 0.  1.
          5    1    4    4  503    0  0.21725409083E+02  0.43388583943E+02 -0.11908270326E+01  0.48765466115E+02  0.47000000000E+01 0. -1.
         -5    1    4    4    0  503  0.45057360448E+02 -0.45451465612E+02 -0.15229061732E+02  0.65954649404E+02  0.47000000000E+01 0.  1.
<mgrwt>
<rscale>  0 0.11618568E+03</rscale>
<asrwt>0</asrwt>
<pdfrwt beam="1">  1        1 0.21804233E-01 0.11708157E+03</pdfrwt>
<pdfrwt beam="2">  1       -1 0.14484502E-01 0.11708157E+03</pdfrwt>
<totfact> 0.72679137E+03</totfact>
</mgrwt>
</event>
<event>
 8    1  0.2964543E-004  0.1281314E+03  0.7546771E-02  0.1230597E+00
         -2   -1    0    0    0  501 -0.00000000000E+00  0.00000000000E+00  0.57728992703E+02  0.57728992703E+02  0.00000000000E+00 0.  1.
          2   -1    0    0  501    0  0.00000000000E+00 -0.00000000000E+00 -0.28262991231E+03  0.28262991231E+03  0.00000000000E+00 0. -1.
         23    2    1    2    0    0  0.38100665524E+02 -0.78636919444E+02 -0.10713232565E+03  0.16632700671E+03  0.92476549171E+02 0.  0.
         23    2    1    2    0    0 -0.38100665524E+02  0.78636919444E+02 -0.11776859395E+03  0.17403189831E+03  0.93713574759E+02 0.  0.
          5    1    4    4  502    0 -0.85612298146E+01  0.29762063089E+02 -0.11216588903E+03  0.11645751036E+03  0.47000000000E+01 0. -1.
         -5    1    4    4    0  502 -0.29539435709E+02  0.48874856355E+02 -0.56027049183E+01  0.57574387953E+02  0.47000000000E+01 0.  1.
          5    1    3    3  503    0  0.47423053680E+02 -0.18992724407E+02 -0.10613522914E+02  0.52387083040E+02  0.47000000000E+01 0. -1.
         -5    1    3    3    0  503 -0.93223881568E+01 -0.59644195037E+02 -0.96518802740E+02  0.11393992367E+03  0.47000000000E+01 0.  1.
<mgrwt>
<rscale>  0 0.12790533E+03</rscale>
<asrwt>0</asrwt>
<pdfrwt beam="1">  1        2 0.43481525E-01 0.12813142E+03</pdfrwt>
<pdfrwt beam="2">  1       -2 0.88813836E-02 0.12813142E+03</pdfrwt>
<totfact> 0.88279508E+03</totfact>
</mgrwt>
</event>
<event>
 8    1  0.2964543E-004  0.1105058E+03  0.7546771E-02  0.1260094E+00
         -1   -1    0    0    0  501 -0.00000000000E+00  0.00000000000E+00  0.52492924505E+02  0.52492924505E+02  0.00000000000E+00 0.  1.
          1   -1    0    0  501    0  0.00000000000E+00 -0.00000000000E+00 -0.26574367104E+03  0.26574367104E+03  0.00000000000E+00 0. -1.
         23    2    1    2    0    0 -0.59171697823E+02 -0.10111407379E+02 -0.16494296283E+03  0.19853892733E+03  0.92779277297E+02 0.  0.
         23    2    1    2    0    0  0.59171697823E+02  0.10111407379E+02 -0.48307783699E+02  0.11969766821E+03  0.91598905160E+02 0.  0.
          5    1    3    3  502    0 -0.74983055800E+02 -0.30345949931E+02 -0.14332741838E+03  0.16464560180E+03  0.47000000000E+01 0. -1.
         -5    1    3    3    0  502  0.15811357976E+02  0.20234542552E+02 -0.21615544455E+02  0.33893325529E+02  0.47000000000E+01 0.  1.
          5    1    4    4  503    0  0.34445186136E+01 -0.31121552250E+02 -0.37988659966E+02  0.49453452953E+02  0.47000000000E+01 0. -1.
         -5    1    4    4    0  503  0.55727179210E+02  0.41232959629E+02 -0.10319123733E+02  0.70244215257E+02  0.47000000000E+01 0.  1.
<mgrwt>
<rscale>  0 0.11025765E+03</rscale>
<asrwt>0</asrwt>
<pdfrwt beam="1">  1        1 0.40883641E-01 0.11050577E+03</pdfrwt>
<pdfrwt beam="2">  1       -1 0.80758347E-02 0.11050577E+03</pdfrwt>
<totfact> 0.81011612E+03</totfact>
</mgrwt>
</event>
<event>
 8    1  0.2964543E-004  0.9759036E+02  0.7546771E-02  0.1286746E+00
          1   -1    0    0  501    0  0.00000000000E+00  0.00000000000E+00  0.31650485138E+03  0.31650485138E+03  0.00000000000E+00 0. -1.
         -1   -1    0    0    0  501 -0.00000000000E+00 -0.00000000000E+00 -0.29836207311E+02  0.29836207311E+02  0.00000000000E+00 0.  1.
         23    2    1    2    0    0 -0.30054604820E+02  0.19425108373E+02  0.16332337889E+03  0.18905809021E+03  0.88248633296E+02 0.  0.
         23    2    1    2    0    0  0.30054604820E+02 -0.19425108373E+02  0.12334526518E+03  0.15728296848E+03  0.90792420518E+02 0.  0.
          5    1    3    3  502    0  0.76480894781E+01  0.42559596269E+02  0.11705188396E+03  0.12487211877E+03  0.47000000000E+01 0. -1.
         -5    1    4    4    0  503  0.39035789567E+02 -0.46847134868E+02  0.10836533255E+03  0.12443304309E+03  0.47000000000E+01 0.  1.
          5    1    4    4  503    0 -0.89811847469E+01  0.27422026495E+02  0.14979932631E+02  0.32849925391E+02  0.47000000000E+01 0. -1.
         -5    1    3    3    0  502 -0.37702694298E+02 -0.23134487897E+02  0.46271494922E+02  0.64185971442E+02  0.47000000000E+01 0.  1.
<mgrwt>
<rscale>  0 0.96994414E+02</rscale>
<asrwt>0</asrwt>
<pdfrwt beam="1">  1        1 0.48693052E-01 0.97590357E+02</pdfrwt>
<pdfrwt beam="2">  1       -1 0.45901859E-02 0.97590357E+02</pdfrwt>
<totfact> 0.14928603E+04</totfact>
</mgrwt>
</event>
<event>
 8    1  0.2964543E-004  0.1292625E+03  0.7546771E-02  0.1230321E+00
          1   -1    0    0  501    0  0.00000000000E+00  0.00000000000E+00  0.13097866212E+04  0.13097866212E+04  0.00000000000E+00 0. -1.
         -1   -1    0    0    0  501 -0.00000000000E+00 -0.00000000000E+00 -0.12363930957E+02  0.12363930957E+02  0.00000000000E+00 0.  1.
         23    2    1    2    0    0  0.61059107612E+02 -0.57861819757E+02  0.70664761397E+03  0.71837290988E+03  0.98145720759E+02 0.  0.
         23    2    1    2    0    0 -0.61059107612E+02  0.57861819757E+02  0.59077507629E+03  0.60377764230E+03  0.91956760311E+02 0.  0.
          5    1    4    4  502    0 -0.70114408744E+02  0.17934978919E+02  0.48259802925E+03  0.48801705054E+03  0.47000000000E+01 0. -1.
         -5    1    3    3    0  503  0.47800221309E+02 -0.63426627115E+00  0.12773009694E+03  0.13646366226E+03  0.47000000000E+01 0.  1.
          5    1    3    3  503    0  0.13258886303E+02 -0.57227553486E+02  0.57891751703E+03  0.58190924762E+03  0.47000000000E+01 0. -1.
         -5    1    4    4    0  502  0.90553011321E+01  0.39926840838E+02  0.10817704703E+03  0.11576059175E+03  0.47000000000E+01 0.  1.
<mgrwt>
<rscale>  0 0.12808806E+03</rscale>
<asrwt>0</asrwt>
<pdfrwt beam="1">  1        1 0.20150552E+00 0.12926247E+03</pdfrwt>
<pdfrwt beam="2">  1       -1 0.19021443E-02 0.12926247E+03</pdfrwt>
<totfact> 0.69051964E+03</totfact>
</mgrwt>
</event>
<event>
 8    1  0.2964543E-004  0.1031799E+03  0.7546771E-02  0.1274962E+00
         -2   -1    0    0    0  501 -0.00000000000E+00  0.00000000000E+00  0.60910265006E+02  0.60910265006E+02  0.00000000000E+00 0.  1.
          2   -1    0    0  501    0  0.00000000000E+00 -0.00000000000E+00 -0.25251220412E+03  0.25251220412E+03  0.00000000000E+00 0. -1.
         23    2    1    2    0    0  0.98237898653E+01  0.41493987584E+02 -0.74024599495E+01  0.10344507389E+03  0.93956527431E+02 0.  0.
         23    2    1    2    0    0 -0.98237898653E+01 -0.41493987584E+02 -0.18419947916E+03  0.20997739523E+03  0.91338932171E+02 0.  0.
          5    1    3    3  502    0  0.28245069033E+02  0.16336845602E+02 -0.44100758568E+02  0.55060361016E+02  0.47000000000E+01 0. -1.
         -5    1    3    3    0  502 -0.18421279168E+02  0.25157141982E+02  0.36698298619E+02  0.48384712879E+02  0.47000000000E+01 0.  1.
          5    1    4    4  503    0 -0.36436351731E+01 -0.64477213333E+02 -0.79643036663E+02  0.10264351127E+03  0.47000000000E+01 0. -1.
         -5    1    4    4    0  503 -0.61801546922E+01  0.22983225750E+02 -0.10455644250E+03  0.10733388396E+03  0.47000000000E+01 0.  1.
<mgrwt>
<rscale>  0 0.10258022E+03</rscale>
<asrwt>0</asrwt>
<pdfrwt beam="1">  1        2 0.38848032E-01 0.10317988E+03</pdfrwt>
<pdfrwt beam="2">  1       -2 0.93708099E-02 0.10317988E+03</pdfrwt>
<totfact> 0.89964580E+03</totfact>
</mgrwt>
</event>
<event>
 8    1  0.2964543E-004  0.1028390E+03  0.7546771E-02  0.1275142E+00
          1   -1    0    0  501    0  0.00000000000E+00  0.00000000000E+00  0.68948907163E+03  0.68948907163E+03  0.00000000000E+00 0. -1.
         -1   -1    0    0    0  501 -0.00000000000E+00 -0.00000000000E+00 -0.25919670683E+02  0.25919670683E+02  0.00000000000E+00 0.  1.
         23    2    1    2    0    0 -0.13517398946E+02  0.18960806493E+02  0.99720302883E+02  0.14225808839E+03  0.98747114628E+02 0.  0.
         23    2    1    2    0    0  0.13517398946E+02 -0.18960806493E+02  0.56384909807E+03  0.57315065393E+03  0.10016803109E+03 0.  0.
          5    1    4    4  502    0  0.37944801027E+02 -0.47871648888E+02  0.41475442821E+03  0.41925508753E+03  0.47000000000E+01 0. -1.
         -5    1    3    3    0  503 -0.18219560353E+02 -0.30212190643E+02  0.58362871377E+01  0.36067729212E+02  0.47000000000E+01 0.  1.
          5    1    3    3  503    0  0.47021614079E+01  0.49172997137E+02  0.93884015745E+02  0.10619035918E+03  0.47000000000E+01 0. -1.
         -5    1    4    4    0  502 -0.24427402081E+02  0.28910842395E+02  0.14909466985E+03  0.15389556640E+03  0.47000000000E+01 0.  1.
<mgrwt>
<rscale>  0 0.10249140E+03</rscale>
<asrwt>0</asrwt>
<pdfrwt beam="1">  1        1 0.10607523E+00 0.10283903E+03</pdfrwt>
<pdfrwt beam="2">  1       -1 0.39876422E-02 0.10283903E+03</pdfrwt>
<totfact> 0.67532080E+03</totfact>
</mgrwt>
</event>
<event>
 8    1  0.2964543E-004  0.2428198E+03  0.7546771E-02  0.1117995E+00
          3   -1    0    0  501    0  0.00000000000E+00  0.00000000000E+00  0.24688567106E+03  0.24688567106E+03  0.00000000000E+00 0. -1.
         -3   -1    0    0    0  501 -0.00000000000E+00 -0.00000000000E+00 -0.24054919669E+03  0.24054919669E+03  0.00000000000E+00 0.  1.
         23    2    1    2    0    0  0.40183002883E+02  0.22057085204E+03  0.26087170745E+02  0.24421714764E+03  0.93248593734E+02 0.  0.
         23    2    1    2    0    0 -0.40183002883E+02 -0.22057085204E+03 -0.19750696366E+02  0.24321772011E+03  0.92187823898E+02 0.  0.
          5    1    3    3  502    0  0.26007549764E+02  0.10349209917E+03 -0.33576672377E+02  0.11196646892E+03  0.47000000000E+01 0. -1.
         -5    1    3    3    0  502  0.14175453119E+02  0.11707875288E+03  0.59663843122E+02  0.13225067872E+03  0.47000000000E+01 0.  1.
          5    1    4    4  503    0 -0.69025897094E+02 -0.16572776267E+03 -0.22620315402E+02  0.18100838229E+03  0.47000000000E+01 0. -1.
         -5    1    4    4    0  503  0.28842894212E+02 -0.54843089369E+02  0.28696190363E+01  0.62209337816E+02  0.47000000000E+01 0.  1.
<mgrwt>
<rscale>  0 0.24271843E+03</rscale>
<asrwt>0</asrwt>
<pdfrwt beam="1">  1        3 0.37982411E-01 0.24281984E+03</pdfrwt>
<pdfrwt beam="2">  1       -3 0.37007568E-01 0.24281984E+03</pdfrwt>
<totfact> 0.12312284E+02</totfact>
</mgrwt>
</event>
<event>
 8    1  0.2964543E-004  0.1072861E+03  0.7546771E-02  0.1268146E+00
         -1   -1    0    0    0  501 -0.00000000000E+00  0.00000000000E+00  0.31757505816E+03  0.31757505816E+03  0.00000000000E+00 0.  1.
          1   -1    0    0  501    0  0.00000000000E+00 -0.00000000000E+00 -0.52711982667E+02  0.52711982667E+02  0.00000000000E+00 0. -1.
         23    2    1    2    0    0 -0.55108996134E+02 -0.29465831068E+01  0.24311648997E+03  0.26573659856E+03  0.92003414679E+02 0.  0.
         23    2    1    2    0    0  0.55108996134E+02  0.29465831068E+01  0.21746585519E+02  0.10455044226E+03  0.86094118199E+02 0.  0.
          5    1    4    4  502    0  0.34112517548E+02 -0.14062781081E+02 -0.28799975666E+02  0.47042047825E+02  0.47000000000E+01 0. -1.
         -5    1    4    4    0  502  0.20996478586E+02  0.17009364188E+02  0.50546561184E+02  0.57508394436E+02  0.47000000000E+01 0.  1.
          5    1    3    3  503    0 -0.51204918696E+01 -0.30250016689E+02  0.23847994711E+02  0.39142046426E+02  0.47000000000E+01 0. -1.
         -5    1    3    3    0  503 -0.49988504264E+02  0.27303433583E+02  0.21926849526E+03  0.22659455213E+03  0.47000000000E+01 0.  1.
<mgrwt>
<rscale>  0 0.10600787E+03</rscale>
<asrwt>0</asrwt>
<pdfrwt beam="1">  1        1 0.81095360E-02 0.10728612E+03</pdfrwt>
<pdfrwt beam="2">  1       -1 0.48857700E-01 0.10728612E+03</pdfrwt>
<totfact> 0.34673489E+03</totfact>
</mgrwt>
</event>
<event>
 8    1  0.2964543E-004  0.1543657E+03  0.7546771E-02  0.1195752E+00
         -1   -1    0    0    0  501 -0.00000000000E+00  0.00000000000E+00  0.39889700826E+03  0.39889700826E+03  0.00000000000E+00 0.  1.
          1   -1    0    0  501    0  0.00000000000E+00 -0.00000000000E+00 -0.64401322228E+02  0.64401322228E+02  0.00000000000E+00 0. -1.
         23    2    1    2    0    0  0.30347355916E+02  0.11940637324E+03  0.23504419599E+03  0.28120194711E+03  0.93004930004E+02 0.  0.
         23    2    1    2    0    0 -0.30347355916E+02 -0.11940637324E+03  0.99451490045E+02  0.18209638338E+03  0.89942481549E+02 0.  0.
          5    1    3    3  502    0  0.34618692499E+02  0.16691279038E+02  0.12354131148E+03  0.12946659148E+03  0.47000000000E+01 0. -1.
         -5    1    4    4    0  503 -0.71483844901E+00 -0.75913562600E+02  0.10424207273E+03  0.12904216252E+03  0.47000000000E+01 0.  1.
          5    1    4    4  503    0 -0.29632517467E+02 -0.43492810645E+02 -0.47905826850E+01  0.53054220866E+02  0.47000000000E+01 0. -1.
         -5    1    3    3    0  502 -0.42713365822E+01  0.10271509421E+03  0.11150288451E+03  0.15173535563E+03  0.47000000000E+01 0.  1.
<mgrwt>
<rscale>  0 0.15390725E+03</rscale>
<asrwt>0</asrwt>
<pdfrwt beam="1">  1        1 0.99078960E-02 0.15436567E+03</pdfrwt>
<pdfrwt beam="2">  1       -1 0.61368769E-01 0.15436567E+03</pdfrwt>
<totfact> 0.17703193E+03</totfact>
</mgrwt>
</event>
<event>
 8    1  0.2964543E-004  0.1208180E+03  0.7546771E-02  0.1242218E+00
         -1   -1    0    0    0  501 -0.00000000000E+00  0.00000000000E+00  0.45676548118E+02  0.45676548118E+02  0.00000000000E+00 0.  1.
          1   -1    0    0  501    0  0.00000000000E+00 -0.00000000000E+00 -0.31843891543E+03  0.31843891543E+03  0.00000000000E+00 0. -1.
         23    2    1    2    0    0 -0.64714443072E+02  0.44900054789E+02 -0.12187931962E+03  0.17082114792E+03  0.90118377508E+02 0.  0.
         23    2    1    2    0    0  0.64714443072E+02 -0.44900054789E+02 -0.15088304769E+03  0.19329431563E+03  0.91613450487E+02 0.  0.
          5    1    4    4  502    0  0.88000136575E+02 -0.36130791905E+02 -0.11393238915E+03  0.14849962107E+03  0.47000000000E+01 0. -1.
         -5    1    4    4    0  502 -0.23285693504E+02 -0.87692628838E+01 -0.36950658544E+02  0.44794694555E+02  0.47000000000E+01 0.  1.
          5    1    3    3  503    0  0.19404997290E+02  0.21123013008E+02 -0.48732929691E+02  0.56742612159E+02  0.47000000000E+01 0. -1.
         -5    1    3    3    0  503 -0.84119440361E+02  0.23777041781E+02 -0.73146389929E+02  0.11407853576E+03  0.47000000000E+01 0.  1.
<mgrwt>
<rscale>  0 0.12053462E+03</rscale>
<asrwt>0</asrwt>
<pdfrwt beam="1">  1        1 0.48990604E-01 0.12081804E+03</pdfrwt>
<pdfrwt beam="2">  1       -1 0.70271610E-02 0.12081804E+03</pdfrwt>
<totfact> 0.80388911E+03</totfact>
</mgrwt>
</event>
<event>
 8    1  0.2964543E-004  0.9374347E+02  0.7546771E-02  0.1298939E+00
          1   -1    0    0  501    0  0.00000000000E+00  0.00000000000E+00  0.11197563318E+03  0.11197563318E+03  0.00000000000E+00 0. -1.
         -1   -1    0    0    0  501 -0.00000000000E+00 -0.00000000000E+00 -0.13847596873E+03  0.13847596873E+03  0.00000000000E+00 0.  1.
         23    2    1    2    0    0 -0.28834509327E+01 -0.11776686375E+02 -0.10040764677E+03  0.13736642152E+03  0.92956084265E+02 0.  0.
         23    2    1    2    0    0  0.28834509327E+01  0.11776686375E+02  0.73907311224E+02  0.11308518038E+03  0.84728759807E+02 0.  0.
          5    1    4    4  502    0  0.42956312533E+02  0.23709133715E+01  0.45850729444E+02  0.63049547240E+02  0.47000000000E+01 0. -1.
         -5    1    3    3    0  503  0.27384746401E+02 -0.14706182383E+02 -0.10182067815E+03  0.10656329872E+03  0.47000000000E+01 0.  1.
          5    1    3    3  503    0 -0.30268197333E+02  0.29294960073E+01  0.14130313828E+01  0.30803122802E+02  0.47000000000E+01 0. -1.
         -5    1    4    4    0  502 -0.40072861601E+02  0.94057730038E+01  0.28056581780E+02  0.50035633141E+02  0.47000000000E+01 0.  1.
<mgrwt>
<rscale>  0 0.91635529E+02</rscale>
<asrwt>0</asrwt>
<pdfrwt beam="1">  1        1 0.17227020E-01 0.93743470E+02</pdfrwt>
<pdfrwt beam="2">  1       -1 0.21303995E-01 0.93743470E+02</pdfrwt>
<totfact> 0.52394325E+03</totfact>
</mgrwt>
</event>
<event>
 8    1  0.2964543E-004  0.9777938E+02  0.7546771E-02  0.1285634E+00
         -3   -1    0    0    0  501 -0.00000000000E+00  0.00000000000E+00  0.25766409974E+03  0.25766409974E+03  0.00000000000E+00 0.  1.
          3   -1    0    0  501    0  0.00000000000E+00 -0.00000000000E+00 -0.58696091377E+02  0.58696091377E+02  0.00000000000E+00 0. -1.
         23    2    1    2    0    0  0.31535795561E+02 -0.86592684230E+01  0.19668624179E+03  0.21965037120E+03  0.92148350643E+02 0.  0.
         23    2    1    2    0    0 -0.31535795561E+02  0.86592684230E+01  0.22817665751E+01  0.96709819923E+02  0.90984028706E+02 0.  0.
          5    1    3    3  502    0  0.52093014210E+02  0.61740131532E+01  0.18306625269E+03  0.19049184613E+03  0.47000000000E+01 0. -1.
         -5    1    4    4    0  503 -0.28290528834E+02 -0.38717197990E+02  0.72831317522E+01  0.48728938527E+02  0.47000000000E+01 0.  1.
          5    1    4    4  503    0 -0.32452667263E+01  0.47376466413E+02 -0.50013651771E+01  0.47980881396E+02  0.47000000000E+01 0. -1.
         -5    1    3    3    0  502 -0.20557218649E+02 -0.14833281576E+02  0.13619989096E+02  0.29158525064E+02  0.47000000000E+01 0.  1.
<mgrwt>
<rscale>  0 0.97504102E+02</rscale>
<asrwt>0</asrwt>
<pdfrwt beam="1">  1        3 0.90301680E-02 0.97779384E+02</pdfrwt>
<pdfrwt beam="2">  1       -3 0.39640630E-01 0.97779384E+02</pdfrwt>
<totfact> 0.12007129E+03</totfact>
</mgrwt>
</event>
<event>
 8    1  0.2964543E-004  0.9190254E+02  0.7546771E-02  0.1301092E+00
          3   -1    0    0  501    0  0.00000000000E+00  0.00000000000E+00  0.94005631261E+02  0.94005631261E+02  0.00000000000E+00 0. -1.
         -3   -1    0    0    0  501 -0.00000000000E+00 -0.00000000000E+00 -0.11200485764E+03  0.11200485764E+03  0.00000000000E+00 0.  1.
         23    2    1    2    0    0  0.54659829775E+01  0.18242788523E+02  0.41007321929E+02  0.10063636545E+03  0.89907737692E+02 0.  0.
         23    2    1    2    0    0 -0.54659829775E+01 -0.18242788523E+02 -0.59006548310E+02  0.10537412345E+03  0.85201272563E+02 0.  0.
          5    1    4    4  502    0  0.39320328387E+02 -0.10827035540E+02 -0.21749463128E+02  0.46459036467E+02  0.47000000000E+01 0. -1.
         -5    1    3    3    0  503 -0.40090147215E+02  0.20253665757E+02  0.13330869530E+02  0.47087503255E+02  0.47000000000E+01 0.  1.
          5    1    3    3  503    0  0.45556130193E+02 -0.20108772332E+01  0.27676452399E+02  0.53548862199E+02  0.47000000000E+01 0. -1.
         -5    1    4    4    0  502 -0.44786311365E+02 -0.74157529833E+01 -0.37257085182E+02  0.58915086983E+02  0.47000000000E+01 0.  1.
<mgrwt>
<rscale>  0 0.90730602E+02</rscale>
<asrwt>0</asrwt>
<pdfrwt beam="1">  1        3 0.14462405E-01 0.91902544E+02</pdfrwt>
<pdfrwt beam="2">  1       -3 0.17231517E-01 0.91902544E+02</pdfrwt>
<totfact> 0.24471733E+03</totfact>
</mgrwt>
</event>
<event>
 8    1  0.2964543E-004  0.9319173E+02  0.7546771E-02  0.1296614E+00
          1   -1    0    0  501    0  0.00000000000E+00  0.00000000000E+00  0.73426826472E+03  0.73426826472E+03  0.00000000000E+00 0. -1.
         -1   -1    0    0    0  501 -0.00000000000E+00 -0.00000000000E+00 -0.16175275428E+02  0.16175275428E+02  0.00000000000E+00 0.  1.
         23    2    1    2    0    0 -0.60145782081E+01 -0.12999616451E+02  0.15518156009E+03  0.17987016526E+03  0.89815336001E+02 0.  0.
         23    2    1    2    0    0  0.60145782081E+01  0.12999616451E+02  0.56291142920E+03  0.57057337488E+03  0.92084384238E+02 0.  0.
          5    1    3    3  502    0 -0.22106851037E+01  0.32766152466E+02  0.11144513614E+03  0.11627818474E+03  0.47000000000E+01 0. -1.
         -5    1    3    3    0  502 -0.38038931043E+01 -0.45765768917E+02  0.43736423943E+02  0.63591980522E+02  0.47000000000E+01 0.  1.
          5    1    4    4  503    0  0.33053927402E+02  0.36823901817E+02  0.42712610691E+03  0.43000856162E+03  0.47000000000E+01 0. -1.
         -5    1    4    4    0  503 -0.27039349194E+02 -0.23824285366E+02  0.13578532230E+03  0.14056481327E+03  0.47000000000E+01 0.  1.
<mgrwt>
<rscale>  0 0.92626252E+02</rscale>
<asrwt>0</asrwt>
<pdfrwt beam="1">  1        1 0.11296432E+00 0.93191732E+02</pdfrwt>
<pdfrwt beam="2">  1       -1 0.24885045E-02 0.93191732E+02</pdfrwt>
<totfact> 0.12125910E+04</totfact>
</mgrwt>
</event>
<event>
 8    1  0.2964543E-004  0.1169351E+03  0.7546771E-02  0.1249465E+00
         -4   -1    0    0    0  501 -0.00000000000E+00  0.00000000000E+00  0.38177618172E+03  0.38177618172E+03  0.00000000000E+00 0.  1.
          4   -1    0    0  501    0  0.00000000000E+00 -0.00000000000E+00 -0.41372237285E+02  0.41372237285E+02  0.00000000000E+00 0. -1.
         23    2    1    2    0    0  0.32939605530E+02  0.64487226664E+02  0.25176530195E+03  0.27641523636E+03  0.88181605854E+02 0.  0.
         23    2    1    2    0    0 -0.32939605530E+02 -0.64487226664E+02  0.88638642481E+02  0.14673318264E+03  0.91816109327E+02 0.  0.
          5    1    3    3  502    0 -0.11136905923E+02  0.67249690425E+02  0.17278163236E+03  0.18580132943E+03  0.47000000000E+01 0. -1.
         -5    1    4    4    0  503 -0.32472061614E+02 -0.45601829660E+01  0.79246012171E+02  0.85890922100E+02  0.47000000000E+01 0.  1.
          5    1    4    4  503    0 -0.46754391593E+00 -0.59927043698E+02  0.93926303101E+01  0.60842260541E+02  0.47000000000E+01 0. -1.
         -5    1    3    3    0  502  0.44076511453E+02 -0.27624637612E+01  0.78983669591E+02  0.90613906935E+02  0.47000000000E+01 0.  1.
<mgrwt>
<rscale>  0 0.11622069E+03</rscale>
<asrwt>0</asrwt>
<pdfrwt beam="1">  1        4 0.63649598E-02 0.11693510E+03</pdfrwt>
<pdfrwt beam="2">  1       -4 0.58734795E-01 0.11693510E+03</pdfrwt>
<totfact> 0.71788848E+02</totfact>
</mgrwt>
</event>
<event>
 8    1  0.2964543E-004  0.1173186E+03  0.7546771E-02  0.1248936E+00
          1   -1    0    0  501    0  0.00000000000E+00  0.00000000000E+00  0.27748370547E+02  0.27748370547E+02  0.00000000000E+00 0. -1.
         -1   -1    0    0    0  501 -0.00000000000E+00 -0.00000000000E+00 -0.63429834910E+03  0.63429834910E+03  0.00000000000E+00 0.  1.
         23    2    1    2    0    0  0.70190467489E+02 -0.10909013063E+02 -0.13843548420E+03  0.17945492157E+03  0.89409044838E+02 0.  0.
         23    2    1    2    0    0 -0.70190467489E+02  0.10909013063E+02 -0.46811449436E+03  0.48259179808E+03  0.93369992243E+02 0.  0.
          5    1    3    3  502    0 -0.19943778612E+02  0.71666958353E+01 -0.20576853707E+02  0.29910077616E+02  0.47000000000E+01 0.  1.
         -5    1    4    4    0  503 -0.23599991768E+02 -0.35814874550E+02 -0.10532139855E+03  0.11381718606E+03  0.47000000000E+01 0.  1.
          5    1    4    4  503    0 -0.46590475721E+02  0.46723887613E+02 -0.36279309581E+03  0.36877461202E+03  0.47000000000E+01 0. -1.
         -5    1    3    3    0  502  0.90134246102E+02 -0.18075708898E+02 -0.11785863049E+03  0.14954484396E+03  0.47000000000E+01 0. -1.
<mgrwt>
<rscale>  0 0.11652890E+03</rscale>
<asrwt>0</asrwt>
<pdfrwt beam="1">  1        1 0.42689799E-02 0.11731864E+03</pdfrwt>
<pdfrwt beam="2">  1       -1 0.97584365E-01 0.11731864E+03</pdfrwt>
<totfact> 0.21264750E+03</totfact>
</mgrwt>
</event>
<event>
 8    1  0.2964543E-004  0.1391626E+03  0.7546771E-02  0.1221398E+00
         -2   -1    0    0    0  501 -0.00000000000E+00  0.00000000000E+00  0.16802071386E+03  0.16802071386E+03  0.00000000000E+00 0.  1.
          2   -1    0    0  501    0  0.00000000000E+00 -0.00000000000E+00 -0.11146845731E+03  0.11146845731E+03  0.00000000000E+00 0. -1.
         23    2    1    2    0    0  0.81885064230E+02 -0.34857813045E+02  0.74615135158E+02  0.15790394005E+03  0.10698600382E+03 0.  0.
         23    2    1    2    0    0 -0.81885064230E+02  0.34857813045E+02 -0.18062878614E+02  0.12158523112E+03  0.80848438259E+02 0.  0.
          5    1    4    4  502    0 -0.28441281842E+02 -0.43241197907E+01  0.28256700763E+02  0.40597237133E+02  0.47000000000E+01 0. -1.
         -5    1    4    4    0  502 -0.53443782388E+02  0.39181932836E+02 -0.46319579378E+02  0.80987993990E+02  0.47000000000E+01 0.  1.
          5    1    3    3  503    0  0.72776799595E+02  0.14853356475E+02  0.77002085614E+02  0.10709106381E+03  0.47000000000E+01 0. -1.
         -5    1    3    3    0  503  0.91082646347E+01 -0.49711169520E+02 -0.23869504563E+01  0.50812876244E+02  0.47000000000E+01 0.  1.
<mgrwt>
<rscale>  0 0.13416851E+03</rscale>
<asrwt>0</asrwt>
<pdfrwt beam="1">  1        2 0.17148993E-01 0.13916262E+03</pdfrwt>
<pdfrwt beam="2">  1       -2 0.25849341E-01 0.13916262E+03</pdfrwt>
<totfact> 0.42628535E+03</totfact>
</mgrwt>
</event>
<event>
 8    1  0.2964543E-004  0.9157193E+02  0.7546771E-02  0.1300493E+00
         -1   -1    0    0    0  501 -0.00000000000E+00  0.00000000000E+00  0.24162601190E+03  0.24162601190E+03  0.00000000000E+00 0.  1.
          1   -1    0    0  501    0  0.00000000000E+00 -0.00000000000E+00 -0.14642411732E+03  0.14642411732E+03  0.00000000000E+00 0. -1.
         23    2    1    2    0    0  0.44671707094E+01  0.49631156853E+00  0.21760194270E+03  0.23518682106E+03  0.89118086797E+02 0.  0.
         23    2    1    2    0    0 -0.44671707094E+01 -0.49631156853E+00 -0.12240004812E+03  0.15286330816E+03  0.91461561672E+02 0.  0.
          5    1    4    4  502    0  0.36822742445E+01  0.42821153443E+02 -0.38135542292E+02  0.57650844848E+02  0.47000000000E+01 0. -1.
         -5    1    3    3    0  503 -0.22984473535E+02 -0.23873407648E+02  0.17745949932E+03  0.18058845344E+03  0.47000000000E+01 0.  1.
          5    1    3    3  503    0  0.27451644244E+02  0.24369719217E+02  0.40142443378E+02  0.54598367620E+02  0.47000000000E+01 0. -1.
         -5    1    4    4    0  502 -0.81494449540E+01 -0.43317465012E+02 -0.84264505825E+02  0.95212463313E+02  0.47000000000E+01 0.  1.
<mgrwt>
<rscale>  0 0.90981097E+02</rscale>
<asrwt>0</asrwt>
<pdfrwt beam="1">  1        1 0.22526787E-01 0.91571935E+02</pdfrwt>
<pdfrwt beam="2">  1       -1 0.37173233E-01 0.91571935E+02</pdfrwt>
<totfact> 0.14890073E+03</totfact>
</mgrwt>
</event>
<event>
 8    1  0.2964543E-004  0.1055126E+03  0.7546771E-02  0.1269139E+00
          2   -1    0    0  501    0  0.00000000000E+00  0.00000000000E+00  0.25855040804E+03  0.25855040804E+03  0.00000000000E+00 0. -1.
         -2   -1    0    0    0  501 -0.00000000000E+00 -0.00000000000E+00 -0.72875210653E+02  0.72875210653E+02  0.00000000000E+00 0.  1.
         23    2    1    2    0    0  0.41411990157E+02 -0.34019927328E+02 -0.13183524929E+02  0.10633303685E+03  0.90887848540E+02 0.  0.
         23    2    1    2    0    0 -0.41411990157E+02  0.34019927328E+02  0.19885872232E+03  0.22509258184E+03  0.90827146687E+02 0.  0.
          5    1    4    4  502    0 -0.34480393266E+01  0.39135154384E+02  0.17566344255E+03  0.18006438941E+03  0.47000000000E+01 0. -1.
         -5    1    4    4    0  502 -0.37963950831E+02 -0.51152270559E+01  0.23195279763E+02  0.45028192433E+02  0.47000000000E+01 0.  1.
          5    1    3    3  503    0  0.14526773039E+02 -0.14111576768E+02  0.38984533049E+02  0.44181982197E+02  0.47000000000E+01 0. -1.
         -5    1    3    3    0  503  0.26885217118E+02 -0.19908350560E+02 -0.52168057977E+02  0.62151054655E+02  0.47000000000E+01 0.  1.
<mgrwt>
<rscale>  0 0.10549953E+03</rscale>
<asrwt>0</asrwt>
<pdfrwt beam="1">  1        2 0.39776985E-01 0.10551260E+03</pdfrwt>
<pdfrwt beam="2">  1       -2 0.11211571E-01 0.10551260E+03</pdfrwt>
<totfact> 0.66399035E+03</totfact>
</mgrwt>
</event>
<event>
 8    1  0.2964543E-004  0.9913261E+02  0.7546771E-02  0.1284972E+00
          1   -1    0    0  501    0  0.00000000000E+00  0.00000000000E+00  0.39813377915E+03  0.39813377915E+03  0.00000000000E+00 0. -1.
         -1   -1    0    0    0  501 -0.00000000000E+00 -0.00000000000E+00 -0.31358546724E+02  0.31358546724E+02  0.00000000000E+00 0.  1.
         23    2    1    2    0    0 -0.54979176498E+01 -0.24706714252E+02  0.78967781136E+02  0.12674062006E+03  0.95846885653E+02 0.  0.
         23    2    1    2    0    0  0.54979176498E+01  0.24706714252E+02  0.28780745129E+03  0.30275170581E+03  0.90469981344E+02 0.  0.
          5    1    3    3  502    0  0.43463004787E+02 -0.13711474318E+02  0.52953636836E+02  0.70022960286E+02  0.47000000000E+01 0. -1.
         -5    1    4    4    0  503  0.14598576046E+02 -0.30738987910E+02  0.73183662359E+02  0.80845174479E+02  0.47000000000E+01 0.  1.
          5    1    4    4  503    0 -0.91006583967E+01  0.55445702162E+02  0.21462378893E+03  0.22190653133E+03  0.47000000000E+01 0. -1.
         -5    1    3    3    0  502 -0.48960922437E+02 -0.10995239933E+02  0.26014144300E+02  0.56717659779E+02  0.47000000000E+01 0.  1.
<mgrwt>
<rscale>  0 0.97809179E+02</rscale>
<asrwt>0</asrwt>
<pdfrwt beam="1">  1        1 0.61251347E-01 0.99132610E+02</pdfrwt>
<pdfrwt beam="2">  1       -1 0.48243921E-02 0.99132610E+02</pdfrwt>
<totfact> 0.10469372E+04</totfact>
</mgrwt>
</event>
<event>
 8    1  0.2964543E-004  0.1153244E+03  0.7546771E-02  0.1253229E+00
          1   -1    0    0  501    0  0.00000000000E+00  0.00000000000E+00  0.12309590500E+03  0.12309590500E+03  0.00000000000E+00 0. -1.
         -1   -1    0    0    0  501 -0.00000000000E+00 -0.00000000000E+00 -0.13891258032E+03  0.13891258032E+03  0.00000000000E+00 0.  1.
         23    2    1    2    0    0 -0.32550662189E+02  0.51889556670E+02 -0.73970213193E+02  0.13285144279E+03  0.91792383739E+02 0.  0.
         23    2    1    2    0    0  0.32550662189E+02 -0.51889556670E+02  0.58153537874E+02  0.12915704253E+03  0.97712005233E+02 0.  0.
          5    1    4    4  502    0  0.30896205504E+01 -0.50832764594E+02 -0.12333500427E+02  0.52609133657E+02  0.47000000000E+01 0. -1.
         -5    1    4    4    0  502  0.29461041639E+02 -0.10567920765E+01  0.70487038300E+02  0.76547908869E+02  0.47000000000E+01 0.  1.
          5    1    3    3  503    0  0.98500240248E+01  0.33389571913E+02  0.10297224804E+02  0.36606137798E+02  0.47000000000E+01 0. -1.
         -5    1    3    3    0  503 -0.42400686214E+02  0.18499984757E+02 -0.84267437996E+02  0.96245304997E+02  0.47000000000E+01 0.  1.
<mgrwt>
<rscale>  0 0.11406106E+03</rscale>
<asrwt>0</asrwt>
<pdfrwt beam="1">  1        1 0.18937832E-01 0.11532436E+03</pdfrwt>
<pdfrwt beam="2">  1       -1 0.21371166E-01 0.11532436E+03</pdfrwt>
<totfact> 0.46899303E+03</totfact>
</mgrwt>
</event>
<event>
 8    1  0.2964543E-004  0.1167737E+03  0.7546771E-02  0.1253277E+00
         -1   -1    0    0    0  501 -0.00000000000E+00  0.00000000000E+00  0.36759892661E+03  0.36759892661E+03  0.00000000000E+00 0.  1.
          1   -1    0    0  501    0  0.00000000000E+00 -0.00000000000E+00 -0.33831574358E+02  0.33831574358E+02  0.00000000000E+00 0. -1.
         23    2    1    2    0    0 -0.49243516162E+02 -0.23548379449E+02  0.16977762148E+03  0.20605953659E+03  0.10323101185E+03 0.  0.
         23    2    1    2    0    0  0.49243516162E+02  0.23548379449E+02  0.16398973078E+03  0.19537096438E+03  0.91091886921E+02 0.  0.
          5    1    3    3  502    0 -0.49290488384E+02 -0.56772242131E+02  0.78445387773E+02  0.10875848741E+03  0.47000000000E+01 0. -1.
         -5    1    3    3    0  502  0.46972221993E-01  0.33223862682E+02  0.91332233704E+02  0.97301049179E+02  0.47000000000E+01 0.  1.
          5    1    4    4  503    0  0.35142323326E+02 -0.20854999945E+02  0.13301013888E+03  0.13922536032E+03  0.47000000000E+01 0. -1.
         -5    1    4    4    0  503  0.14101192836E+02  0.44403379394E+02  0.30979591901E+02  0.56145604061E+02  0.47000000000E+01 0.  1.
<mgrwt>
<rscale>  0 0.11403385E+03</rscale>
<asrwt>0</asrwt>
<pdfrwt beam="1">  1        1 0.52048578E-02 0.11677368E+03</pdfrwt>
<pdfrwt beam="2">  1       -1 0.56553678E-01 0.11677368E+03</pdfrwt>
<totfact> 0.48420590E+03</totfact>
</mgrwt>
</event>
<event>
 8    1  0.2964543E-004  0.9288755E+02  0.7546771E-02  0.1297916E+00
         -2   -1    0    0    0  501 -0.00000000000E+00  0.00000000000E+00  0.22849690406E+03  0.22849690406E+03  0.00000000000E+00 0.  1.
          2   -1    0    0  501    0  0.00000000000E+00 -0.00000000000E+00 -0.37999748174E+02  0.37999748174E+02  0.00000000000E+00 0. -1.
         23    2    1    2    0    0  0.37975323800E+01  0.53996803687E+01  0.66807067182E+02  0.11181201867E+03  0.89415689303E+02 0.  0.
         23    2    1    2    0    0 -0.37975323800E+01 -0.53996803687E+01  0.12369008870E+03  0.15468463356E+03  0.92652684889E+02 0.  0.
          5    1    3    3  502    0  0.16893975056E+02 -0.26763336066E+02 -0.45460480571E+01  0.32317783085E+02  0.47000000000E+01 0. -1.
         -5    1    3    3    0  502 -0.13096442676E+02  0.32163016435E+02  0.71353115239E+02  0.79494235585E+02  0.47000000000E+01 0.  1.
          5    1    4    4  503    0  0.31978201907E+02 -0.33792557715E+02  0.67624089877E+02  0.82217089986E+02  0.47000000000E+01 0. -1.
         -5    1    4    4    0  503 -0.35775734287E+02  0.28392877347E+02  0.56065998827E+02  0.72467543578E+02  0.47000000000E+01 0.  1.
<mgrwt>
<rscale>  0 0.92069687E+02</rscale>
<asrwt>0</asrwt>
<pdfrwt beam="1">  1        2 0.58461152E-02 0.92887555E+02</pdfrwt>
<pdfrwt beam="2">  1       -2 0.35153369E-01 0.92887555E+02</pdfrwt>
<totfact> 0.88225033E+03</totfact>
</mgrwt>
</event>
<event>
 8    1  0.2964543E-004  0.9431855E+02  0.7546771E-02  0.1293016E+00
         -2   -1    0    0    0  501 -0.00000000000E+00  0.00000000000E+00  0.18411261142E+03  0.18411261142E+03  0.00000000000E+00 0.  1.
          2   -1    0    0  501    0  0.00000000000E+00 -0.00000000000E+00 -0.81307480529E+02  0.81307480529E+02  0.00000000000E+00 0. -1.
         23    2    1    2    0    0 -0.21443550335E+02 -0.86756752469E+01 -0.33555722213E+02  0.99618189331E+02  0.90899416722E+02 0.  0.
         23    2    1    2    0    0  0.21443550335E+02  0.86756752469E+01  0.13636085310E+03  0.16580190262E+03  0.91437932285E+02 0.  0.
          5    1    4    4  502    0 -0.22154739405E+01  0.26923960185E+02  0.13602173861E+01  0.27454474101E+02  0.47000000000E+01 0. -1.
         -5    1    4    4    0  502  0.23659024276E+02 -0.18248284939E+02  0.13500063572E+03  0.13834742852E+03  0.47000000000E+01 0.  1.
          5    1    3    3  503    0  0.17340869960E+02 -0.33675901425E+02  0.60269851612E+01  0.38641773483E+02  0.47000000000E+01 0. -1.
         -5    1    3    3    0  503 -0.38784420295E+02  0.25000226178E+02 -0.39582707375E+02  0.60976415848E+02  0.47000000000E+01 0.  1.
<mgrwt>
<rscale>  0 0.94187783E+02</rscale>
<asrwt>0</asrwt>
<pdfrwt beam="1">  1        2 0.12508843E-01 0.94318549E+02</pdfrwt>
<pdfrwt beam="2">  1       -2 0.28325017E-01 0.94318549E+02</pdfrwt>
<totfact> 0.51051887E+03</totfact>
</mgrwt>
</event>
<event>
 8    1  0.2964543E-004  0.1169783E+03  0.7546771E-02  0.1248515E+00
          1   -1    0    0  501    0  0.00000000000E+00  0.00000000000E+00  0.69517397426E+03  0.69517397426E+03  0.00000000000E+00 0. -1.
         -1   -1    0    0    0  501 -0.00000000000E+00 -0.00000000000E+00 -0.40329993710E+02  0.40329993710E+02  0.00000000000E+00 0.  1.
         23    2    1    2    0    0  0.19529512879E+02 -0.69258973068E+02  0.63984982879E+02  0.13333413513E+03  0.92226386315E+02 0.  0.
         23    2    1    2    0    0 -0.19529512879E+02  0.69258973068E+02  0.59085899767E+03  0.60216983284E+03  0.91191804636E+02 0.  0.
          5    1    4    4  502    0 -0.36955878584E+02  0.82696163523E+02  0.40975226134E+03  0.41967058284E+03  0.47000000000E+01 0. -1.
         -5    1    4    4    0  502  0.17426365705E+02 -0.13437190455E+02  0.18110673632E+03  0.18249925000E+03  0.47000000000E+01 0.  1.
          5    1    3    3  503    0  0.10029889012E+02 -0.23238087165E+02  0.79548455764E+02  0.83610132061E+02  0.47000000000E+01 0. -1.
         -5    1    3    3    0  503  0.94996238666E+01 -0.46020885903E+02 -0.15563472885E+02  0.49724003068E+02  0.47000000000E+01 0.  1.
<mgrwt>
<rscale>  0 0.11677425E+03</rscale>
<asrwt>0</asrwt>
<pdfrwt beam="1">  1        1 0.10694983E+00 0.11697826E+03</pdfrwt>
<pdfrwt beam="2">  1       -1 0.62046149E-02 0.11697826E+03</pdfrwt>
<totfact> 0.35068670E+03</totfact>
</mgrwt>
</event>
<event>
 8    1  0.2964543E-004  0.2502750E+03  0.7546771E-02  0.1116141E+00
         -1   -1    0    0    0  501 -0.00000000000E+00  0.00000000000E+00  0.44981328181E+02  0.44981328181E+02  0.00000000000E+00 0.  1.
          1   -1    0    0  501    0  0.00000000000E+00 -0.00000000000E+00 -0.16871514999E+04  0.16871514999E+04  0.00000000000E+00 0. -1.
         23    2    1    2    0    0 -0.10540256363E+03  0.18847880323E+03 -0.42632227534E+03  0.49435642423E+03  0.12650546248E+03 0.  0.
         23    2    1    2    0    0  0.10540256363E+03 -0.18847880323E+03 -0.12158478963E+04  0.12377764038E+04  0.84677973004E+02 0.  0.
          5    1    3    3  502    0 -0.50758142135E+02  0.20596742409E+02 -0.19919194914E+03  0.20664011564E+03  0.47000000000E+01 0. -1.
         -5    1    3    3    0  502 -0.54644421497E+02  0.16788206082E+03 -0.22713032620E+03  0.28771630859E+03  0.47000000000E+01 0.  1.
          5    1    4    4  503    0  0.98100822422E+02 -0.14620213619E+03 -0.11026861646E+04  0.11166636484E+04  0.47000000000E+01 0. -1.
         -5    1    4    4    0  503  0.73017412103E+01 -0.42276667044E+02 -0.11316173175E+03  0.12111275545E+03  0.47000000000E+01 0.  1.
<mgrwt>
<rscale>  0 0.24556433E+03</rscale>
<asrwt>0</asrwt>
<pdfrwt beam="1">  1        1 0.25956173E+00 0.25027503E+03</pdfrwt>
<pdfrwt beam="2">  1       -1 0.69202053E-02 0.25027503E+03</pdfrwt>
<totfact> 0.58150744E+02</totfact>
</mgrwt>
</event>
<event>
 8    1  0.2964543E-004  0.1041151E+03  0.7546771E-02  0.1277815E+00
          1   -1    0    0  501    0  0.00000000000E+00  0.00000000000E+00  0.13291961654E+04  0.13291961654E+04  0.00000000000E+00 0. -1.
         -1   -1    0    0    0  501 -0.00000000000E+00 -0.00000000000E+00 -0.83264393087E+01  0.83264393087E+01  0.00000000000E+00 0.  1.
         23    2    1    2    0    0 -0.17877915009E+02  0.93788833810E+01  0.92787406995E+03  0.93369708171E+03  0.10213896121E+03 0.  0.
         23    2    1    2    0    0  0.17877915009E+02 -0.93788833810E+01  0.39299565617E+03  0.40382552303E+03  0.90674604970E+02 0.  0.
          5    1    4    4  502    0  0.44236497778E+02 -0.34152291184E+02  0.25455245293E+03  0.26065741505E+03  0.47000000000E+01 0. -1.
         -5    1    3    3    0  503  0.31470677963E+02  0.35450243648E+02  0.38266981875E+03  0.38562339598E+03  0.47000000000E+01 0.  1.
          5    1    3    3  503    0 -0.49348592972E+02 -0.26071360267E+02  0.54520425121E+03  0.54807368573E+03  0.47000000000E+01 0. -1.
         -5    1    4    4    0  502 -0.26358582770E+02  0.24773407803E+02  0.13844320324E+03  0.14316810798E+03  0.47000000000E+01 0.  1.
<mgrwt>
<rscale>  0 0.10118898E+03</rscale>
<asrwt>0</asrwt>
<pdfrwt beam="1">  1        1 0.20449155E+00 0.10411508E+03</pdfrwt>
<pdfrwt beam="2">  1       -1 0.12809917E-02 0.10411508E+03</pdfrwt>
<totfact> 0.11666318E+04</totfact>
</mgrwt>
</event>
<event>
 8    1  0.2964543E-004  0.9722406E+02  0.7546771E-02  0.1287279E+00
         -2   -1    0    0    0  501 -0.00000000000E+00  0.00000000000E+00  0.15652646634E+03  0.15652646634E+03  0.00000000000E+00 0.  1.
          2   -1    0    0  501    0  0.00000000000E+00 -0.00000000000E+00 -0.12331251552E+03  0.12331251552E+03  0.00000000000E+00 0. -1.
         23    2    1    2    0    0  0.17966708331E+02  0.24626776474E+02  0.11754900672E+03  0.15254601491E+03  0.92321378651E+02 0.  0.
         23    2    1    2    0    0 -0.17966708331E+02 -0.24626776474E+02 -0.84335055910E+02  0.12729296695E+03  0.90342775313E+02 0.  0.
          5    1    3    3  502    0 -0.10183305607E+02 -0.31122488032E+02  0.28422091561E+02  0.43614381379E+02  0.47000000000E+01 0. -1.
         -5    1    3    3    0  502  0.28150013937E+02  0.55749264506E+02  0.89126915163E+02  0.10893163353E+03  0.47000000000E+01 0.  1.
          5    1    4    4  503    0 -0.19497574160E+02  0.25174577432E+02 -0.66998742123E+02  0.74329241844E+02  0.47000000000E+01 0. -1.
         -5    1    4    4    0  503  0.15308658292E+01 -0.49801353907E+02 -0.17336313787E+02  0.52963725103E+02  0.47000000000E+01 0.  1.
<mgrwt>
<rscale>  0 0.96751421E+02</rscale>
<asrwt>0</asrwt>
<pdfrwt beam="1">  1        2 0.18971156E-01 0.97224059E+02</pdfrwt>
<pdfrwt beam="2">  1       -2 0.24080995E-01 0.97224059E+02</pdfrwt>
<totfact> 0.41984243E+03</totfact>
</mgrwt>
</event>
<event>
 8    1  0.2964543E-004  0.1806351E+03  0.7546771E-02  0.1167284E+00
         -1   -1    0    0    0  501 -0.00000000000E+00  0.00000000000E+00  0.44960562774E+02  0.44960562774E+02  0.00000000000E+00 0.  1.
          1   -1    0    0  501    0  0.00000000000E+00 -0.00000000000E+00 -0.77302165585E+03  0.77302165585E+03  0.00000000000E+00 0. -1.
         23    2    1    2    0    0 -0.39530072744E+01  0.15678217337E+03 -0.26157256116E+03  0.31788240924E+03  0.89625583398E+02 0.  0.
         23    2    1    2    0    0  0.39530072744E+01 -0.15678217337E+03 -0.46648853191E+03  0.50009980938E+03  0.88836888640E+02 0.  0.
          5    1    4    4  502    0 -0.31394831630E+02 -0.13303572657E+03 -0.37222284111E+03  0.39655525900E+03  0.47000000000E+01 0. -1.
         -5    1    3    3    0  503 -0.30196766778E+02  0.12583236606E+03 -0.14522210290E+03  0.19456921196E+03  0.47000000000E+01 0.  1.
          5    1    3    3  503    0  0.26243759503E+02  0.30949807304E+02 -0.11635045826E+03  0.12331319728E+03  0.47000000000E+01 0. -1.
         -5    1    4    4    0  502  0.35347838905E+02 -0.23746446799E+02 -0.94265690808E+02  0.10354455038E+03  0.47000000000E+01 0.  1.
<mgrwt>
<rscale>  0 0.18053746E+03</rscale>
<asrwt>0</asrwt>
<pdfrwt beam="1">  1        1 0.11892640E+00 0.18063505E+03</pdfrwt>
<pdfrwt beam="2">  1       -1 0.69170099E-02 0.18063505E+03</pdfrwt>
<totfact> 0.25882833E+03</totfact>
</mgrwt>
</event>
<event>
 8    1  0.2964543E-004  0.1261669E+03  0.7546771E-02  0.1234013E+00
          1   -1    0    0  501    0  0.00000000000E+00  0.00000000000E+00  0.98583542820E+02  0.98583542820E+02  0.00000000000E+00 0. -1.
         -1   -1    0    0    0  501 -0.00000000000E+00 -0.00000000000E+00 -0.50724325621E+03  0.50724325621E+03  0.00000000000E+00 0.  1.
         23    2    1    2    0    0  0.63386100935E+02 -0.54101890008E+02 -0.45581520523E+03  0.47295409944E+03  0.94727327456E+02 0.  0.
         23    2    1    2    0    0 -0.63386100935E+02  0.54101890008E+02  0.47155491831E+02  0.13287269960E+03  0.92123295609E+02 0.  0.
          5    1    4    4  502    0 -0.30110501554E+02  0.66901817313E+02  0.59786792572E+02  0.94757828329E+02  0.47000000000E+01 0. -1.
         -5    1    4    4    0  502 -0.33275599382E+02 -0.12799927305E+02 -0.12631300742E+02  0.38114871266E+02  0.47000000000E+01 0.  1.
          5    1    3    3  503    0  0.28345854452E+02  0.25444803165E+02 -0.11694727959E+03  0.12308404314E+03  0.47000000000E+01 0. -1.
         -5    1    3    3    0  503  0.35040246484E+02 -0.79546693173E+02 -0.33886792564E+03  0.34987005630E+03  0.47000000000E+01 0.  1.
<mgrwt>
<rscale>  0 0.12567823E+03</rscale>
<asrwt>0</asrwt>
<pdfrwt beam="1">  1        1 0.15166699E-01 0.12616687E+03</pdfrwt>
<pdfrwt beam="2">  1       -1 0.78037425E-01 0.12616687E+03</pdfrwt>
<totfact> 0.62781642E+02</totfact>
</mgrwt>
</event>
<event>
 8    1  0.2964543E-004  0.1616486E+03  0.7546771E-02  0.1187097E+00
         -1   -1    0    0    0  501 -0.00000000000E+00  0.00000000000E+00  0.13484680188E+03  0.13484680188E+03  0.00000000000E+00 0.  1.
          1   -1    0    0  501    0  0.00000000000E+00 -0.00000000000E+00 -0.19977913145E+03  0.19977913145E+03  0.00000000000E+00 0. -1.
         23    2    1    2    0    0 -0.11351168175E+03 -0.67435543846E+02 -0.10764755989E+01  0.16165222192E+03  0.93262144435E+02 0.  0.
         23    2    1    2    0    0  0.11351168175E+03  0.67435543846E+02 -0.63855853966E+02  0.17297371141E+03  0.91705399440E+02 0.  0.
          5    1    3    3  502    0  0.10242944698E+02 -0.29993745621E+02  0.32079327679E+01  0.32201296947E+02  0.47000000000E+01 0. -1.
         -5    1    3    3    0  502 -0.12375462644E+03 -0.37441798225E+02 -0.42844083668E+01  0.12945092497E+03  0.47000000000E+01 0.  1.
          5    1    4    4  503    0  0.93062464357E+02  0.34985608350E+01 -0.41508172812E+02  0.10206801953E+03  0.47000000000E+01 0. -1.
         -5    1    4    4    0  503  0.20449217390E+02  0.63936983011E+02 -0.22347681154E+02  0.70905691883E+02  0.47000000000E+01 0.  1.
<mgrwt>
<rscale>  0 0.16142489E+03</rscale>
<asrwt>0</asrwt>
<pdfrwt beam="1">  1        1 0.30735251E-01 0.16164864E+03</pdfrwt>
<pdfrwt beam="2">  1       -1 0.20745662E-01 0.16164864E+03</pdfrwt>
<totfact> 0.27239165E+03</totfact>
</mgrwt>
</event>
<event>
 8    1  0.2964543E-004  0.9300400E+02  0.7546771E-02  0.1297941E+00
          1   -1    0    0  501    0  0.00000000000E+00  0.00000000000E+00  0.66769913968E+02  0.66769913968E+02  0.00000000000E+00 0. -1.
         -1   -1    0    0    0  501 -0.00000000000E+00 -0.00000000000E+00 -0.24462203048E+03  0.24462203048E+03  0.00000000000E+00 0.  1.
         23    2    1    2    0    0 -0.66730929834E+01  0.11659082882E+02 -0.19713524693E+03  0.21640992799E+03  0.88263735301E+02 0.  0.
         23    2    1    2    0    0  0.66730929834E+01 -0.11659082882E+02  0.19283130413E+02  0.94982016457E+02  0.92028690897E+02 0.  0.
          5    1    3    3  502    0 -0.48335308443E+01 -0.37385582627E+02 -0.63830276435E+02  0.74279465525E+02  0.47000000000E+01 0. -1.
         -5    1    4    4    0  503 -0.36763060825E+02  0.84016885354E+01 -0.92029148122E+01  0.39101082498E+02  0.47000000000E+01 0.  1.
          5    1    4    4  503    0  0.43436153809E+02 -0.20060771417E+02  0.28486045225E+02  0.55880933959E+02  0.47000000000E+01 0. -1.
         -5    1    3    3    0  502 -0.18395621391E+01  0.49044665509E+02 -0.13330497049E+03  0.14213046247E+03  0.47000000000E+01 0.  1.
<mgrwt>
<rscale>  0 0.92058734E+02</rscale>
<asrwt>0</asrwt>
<pdfrwt beam="1">  1        1 0.10272294E-01 0.93004002E+02</pdfrwt>
<pdfrwt beam="2">  1       -1 0.37634158E-01 0.93004002E+02</pdfrwt>
<totfact> 0.39801946E+03</totfact>
</mgrwt>
</event>
<event>
 8    1  0.2964543E-004  0.9543918E+02  0.7546771E-02  0.1290895E+00
          3   -1    0    0  501    0  0.00000000000E+00  0.00000000000E+00  0.21678682644E+03  0.21678682644E+03  0.00000000000E+00 0. -1.
         -3   -1    0    0    0  501 -0.00000000000E+00 -0.00000000000E+00 -0.66456831306E+02  0.66456831306E+02  0.00000000000E+00 0.  1.
         23    2    1    2    0    0  0.24754957166E+02  0.15832398418E+01 -0.11367411189E+02  0.96113756745E+02  0.92159218995E+02 0.  0.
         23    2    1    2    0    0 -0.24754957166E+02 -0.15832398418E+01  0.16169740632E+03  0.18712990100E+03  0.90863821647E+02 0.  0.
          5    1    3    3  502    0 -0.14377209686E+02 -0.37174872813E+02 -0.59165701066E+01  0.40568104822E+02  0.47000000000E+01 0. -1.
         -5    1    3    3    0  502  0.39132166852E+02  0.38758112655E+02 -0.54508410827E+01  0.55545651923E+02  0.47000000000E+01 0.  1.
          5    1    4    4  503    0 -0.22609994562E+02 -0.24503489970E+02  0.16007583880E+03  0.16357871819E+03  0.47000000000E+01 0. -1.
         -5    1    4    4    0  503 -0.21449626039E+01  0.22920250128E+02  0.16215675138E+01  0.23551182809E+02  0.47000000000E+01 0.  1.
<mgrwt>
<rscale>  0 0.95125059E+02</rscale>
<asrwt>0</asrwt>
<pdfrwt beam="1">  1        3 0.33351819E-01 0.95439175E+02</pdfrwt>
<pdfrwt beam="2">  1       -3 0.10224128E-01 0.95439175E+02</pdfrwt>
<totfact> 0.13514749E+03</totfact>
</mgrwt>
</event>
<event>
 8    1  0.2964543E-004  0.9993654E+02  0.7546771E-02  0.1281168E+00
          2   -1    0    0  501    0  0.00000000000E+00  0.00000000000E+00  0.10727806615E+02  0.10727806615E+02  0.00000000000E+00 0. -1.
         -2   -1    0    0    0  501 -0.00000000000E+00 -0.00000000000E+00 -0.10411462217E+04  0.10411462217E+04  0.00000000000E+00 0.  1.
         23    2    1    2    0    0 -0.34163311961E+02  0.85460759195E+00 -0.33755487004E+03  0.35203778475E+03  0.93911923446E+02 0.  0.
         23    2    1    2    0    0  0.34163311961E+02 -0.85460759195E+00 -0.69286354499E+03  0.69983624351E+03  0.92428423743E+02 0.  0.
          5    1    4    4  502    0  0.30676495115E+02  0.40955849497E+02 -0.48596937491E+03  0.48867857770E+03  0.47000000000E+01 0. -1.
         -5    1    3    3    0  503  0.19924109743E+02 -0.19000344191E+02 -0.39188312122E+02  0.48122728886E+02  0.47000000000E+01 0.  1.
          5    1    3    3  503    0 -0.54087421704E+02  0.19854951783E+02 -0.29836655792E+03  0.30391505587E+03  0.47000000000E+01 0. -1.
         -5    1    4    4    0  502  0.34868168453E+01 -0.41810457089E+02 -0.20689417009E+03  0.21115766581E+03  0.47000000000E+01 0.  1.
<mgrwt>
<rscale>  0 0.99586513E+02</rscale>
<asrwt>0</asrwt>
<pdfrwt beam="1">  1        2 0.16504319E-02 0.99936538E+02</pdfrwt>
<pdfrwt beam="2">  1       -2 0.16017633E+00 0.99936538E+02</pdfrwt>
<totfact> 0.17866957E+03</totfact>
</mgrwt>
</event>
<event>
 8    1  0.2964543E-004  0.1245186E+03  0.7546771E-02  0.1236358E+00
          3   -1    0    0  501    0  0.00000000000E+00  0.00000000000E+00  0.10061390449E+04  0.10061390449E+04  0.00000000000E+00 0. -1.
         -3   -1    0    0    0  501 -0.00000000000E+00 -0.00000000000E+00 -0.17686611496E+02  0.17686611496E+02  0.00000000000E+00 0.  1.
         23    2    1    2    0    0 -0.66524764247E+02 -0.48320424798E+02  0.68681575054E+03  0.69801200231E+03  0.93511884118E+02 0.  0.
         23    2    1    2    0    0  0.66524764247E+02  0.48320424798E+02  0.30163668284E+03  0.32581365405E+03  0.91703004454E+02 0.  0.
          5    1    4    4  502    0  0.29329508423E+02 -0.25589097173E+02  0.77639494994E+02  0.86977026515E+02  0.47000000000E+01 0. -1.
         -5    1    4    4    0  502  0.37195255824E+02  0.73909521971E+02  0.22399718784E+03  0.23883662754E+03  0.47000000000E+01 0.  1.
          5    1    3    3  503    0 -0.73502685510E+02 -0.67830872263E+02  0.49517575565E+03  0.50519777413E+03  0.47000000000E+01 0. -1.
         -5    1    3    3    0  503  0.69779212635E+01  0.19510447465E+02  0.19163999490E+03  0.19281422818E+03  0.47000000000E+01 0.  1.
<mgrwt>
<rscale>  0 0.12417904E+03</rscale>
<asrwt>0</asrwt>
<pdfrwt beam="1">  1        3 0.15479058E+00 0.12451859E+03</pdfrwt>
<pdfrwt beam="2">  1       -3 0.27210179E-02 0.12451859E+03</pdfrwt>
<totfact> 0.43346431E+02</totfact>
</mgrwt>
</event>
<event>
 8    1  0.2964543E-004  0.1203504E+03  0.7546771E-02  0.1246213E+00
         -4   -1    0    0    0  501 -0.00000000000E+00  0.00000000000E+00  0.25224398159E+03  0.25224398159E+03  0.00000000000E+00 0.  1.
          4   -1    0    0  501    0  0.00000000000E+00 -0.00000000000E+00 -0.55866598894E+02  0.55866598894E+02  0.00000000000E+00 0. -1.
         23    2    1    2    0    0 -0.19268034357E+02 -0.63153174166E+02  0.69166878041E+02  0.13881021605E+03  0.10062126270E+03 0.  0.
         23    2    1    2    0    0  0.19268034357E+02  0.63153174166E+02  0.12721050465E+03  0.16930036443E+03  0.90113929820E+02 0.  0.
          5    1    3    3  502    0 -0.57060031298E+02 -0.35259871135E+02  0.18884187452E+02  0.69841307404E+02  0.47000000000E+01 0. -1.
         -5    1    4    4    0  503 -0.13972625152E+02 -0.17596669660E+02  0.16768031010E+02  0.28427696015E+02  0.47000000000E+01 0.  1.
          5    1    4    4  503    0  0.33240659509E+02  0.80749843827E+02  0.11044247364E+03  0.14087266842E+03  0.47000000000E+01 0. -1.
         -5    1    3    3    0  502  0.37791996941E+02 -0.27893303031E+02  0.50282690589E+02  0.68968908645E+02  0.47000000000E+01 0.  1.
<mgrwt>
<rscale>  0 0.11813074E+03</rscale>
<asrwt>0</asrwt>
<pdfrwt beam="1">  1        4 0.85948615E-02 0.12035040E+03</pdfrwt>
<pdfrwt beam="2">  1       -4 0.38806766E-01 0.12035040E+03</pdfrwt>
<totfact> 0.10174923E+03</totfact>
</mgrwt>
</event>
<event>
 8    1  0.2964543E-004  0.9561402E+02  0.7546771E-02  0.1289901E+00
          2   -1    0    0  501    0  0.00000000000E+00  0.00000000000E+00  0.29546621380E+02  0.29546621380E+02  0.00000000000E+00 0. -1.
         -2   -1    0    0    0  501 -0.00000000000E+00 -0.00000000000E+00 -0.33647666225E+03  0.33647666225E+03  0.00000000000E+00 0.  1.
         23    2    1    2    0    0 -0.22665172280E+02 -0.23908854044E+02 -0.20579815888E+03  0.22684822249E+03  0.89565007199E+02 0.  0.
         23    2    1    2    0    0  0.22665172280E+02  0.23908854044E+02 -0.10113188199E+03  0.13917506114E+03  0.89759104001E+02 0.  0.
          5    1    3    3  502    0  0.21845260720E+00  0.21275260381E+02 -0.14907308534E+03  0.15065709144E+03  0.47000000000E+01 0. -1.
         -5    1    4    4    0  503 -0.12031397303E+02  0.36785502905E+02 -0.93382689097E+01  0.40090161029E+02  0.47000000000E+01 0. -1.
          5    1    4    4  503    0  0.34696569584E+02 -0.12876648861E+02 -0.91793613083E+02  0.99084900109E+02  0.47000000000E+01 0.  1.
         -5    1    3    3    0  502 -0.22883624888E+02 -0.45184114426E+02 -0.56725073533E+02  0.76191131057E+02  0.47000000000E+01 0.  1.
<mgrwt>
<rscale>  0 0.95568437E+02</rscale>
<asrwt>0</asrwt>
<pdfrwt beam="1">  1        2 0.45456341E-02 0.95614016E+02</pdfrwt>
<pdfrwt beam="2">  1       -2 0.51765640E-01 0.95614016E+02</pdfrwt>
<totfact> 0.58577212E+03</totfact>
</mgrwt>
</event>
<event>
 8    1  0.2964543E-004  0.1005909E+03  0.7546771E-02  0.1279362E+00
          2   -1    0    0  501    0  0.00000000000E+00  0.00000000000E+00  0.12533055961E+03  0.12533055961E+03  0.00000000000E+00 0. -1.
         -2   -1    0    0    0  501 -0.00000000000E+00 -0.00000000000E+00 -0.80278633362E+02  0.80278633362E+02  0.00000000000E+00 0.  1.
         23    2    1    2    0    0  0.34875383802E+02  0.32326217416E+02  0.23550467190E+02  0.10274594204E+03  0.87981971867E+02 0.  0.
         23    2    1    2    0    0 -0.34875383802E+02 -0.32326217416E+02  0.21501459053E+02  0.10286325092E+03  0.88641180732E+02 0.  0.
          5    1    4    4  502    0 -0.20348253120E+02 -0.16906569914E+02  0.55997011421E+02  0.62109892927E+02  0.47000000000E+01 0. -1.
         -5    1    3    3    0  503  0.55655920255E+02  0.17900552517E+02 -0.10992396193E+02  0.59673562102E+02  0.47000000000E+01 0.  1.
          5    1    3    3  503    0 -0.20780536453E+02  0.14425664899E+02  0.34542863383E+02  0.43072379941E+02  0.47000000000E+01 0. -1.
         -5    1    4    4    0  502 -0.14527130682E+02 -0.15419647502E+02 -0.34495552368E+02  0.40753357998E+02  0.47000000000E+01 0.  1.
<mgrwt>
<rscale>  0 0.10044551E+03</rscale>
<asrwt>0</asrwt>
<pdfrwt beam="1">  1        2 0.19281624E-01 0.10059093E+03</pdfrwt>
<pdfrwt beam="2">  1       -2 0.12350559E-01 0.10059093E+03</pdfrwt>
<totfact> 0.12446264E+04</totfact>
</mgrwt>
</event>
<event>
 8    1  0.2964543E-004  0.1272898E+03  0.7546771E-02  0.1231696E+00
         -2   -1    0    0    0  501 -0.00000000000E+00  0.00000000000E+00  0.14606398420E+02  0.14606398420E+02  0.00000000000E+00 0.  1.
          2   -1    0    0  501    0  0.00000000000E+00 -0.00000000000E+00 -0.13555200090E+04  0.13555200090E+04  0.00000000000E+00 0. -1.
         23    2    1    2    0    0 -0.70327985753E+02  0.52944474490E+02 -0.37720916816E+03  0.39810732413E+03  0.91943145610E+02 0.  0.
         23    2    1    2    0    0  0.70327985753E+02 -0.52944474490E+02 -0.96370444239E+03  0.97201908326E+03  0.91354819120E+02 0.  0.
          5    1    4    4  502    0  0.22560838653E+02  0.25512241219E+02 -0.30283759075E+03  0.30478281162E+03  0.47000000000E+01 0. -1.
         -5    1    4    4    0  502  0.47767147100E+02 -0.78456715709E+02 -0.66086685164E+03  0.66723627163E+03  0.47000000000E+01 0.  1.
          5    1    3    3  503    0 -0.30579859964E+02  0.50972752430E+02 -0.33357943586E+03  0.33886675752E+03  0.47000000000E+01 0. -1.
         -5    1    3    3    0  503 -0.39748125790E+02  0.19717220606E+01 -0.43629732303E+02  0.59240566612E+02  0.47000000000E+01 0.  1.
<mgrwt>
<rscale>  0 0.12718356E+03</rscale>
<asrwt>0</asrwt>
<pdfrwt beam="1">  1        2 0.20854163E+00 0.12728977E+03</pdfrwt>
<pdfrwt beam="2">  1       -2 0.22471373E-02 0.12728977E+03</pdfrwt>
<totfact> 0.10306987E+04</totfact>
</mgrwt>
</event>
<event>
 8    1  0.2964543E-004  0.1073562E+03  0.7546771E-02  0.1268131E+00
          4   -1    0    0  501    0  0.00000000000E+00  0.00000000000E+00  0.43053656484E+02  0.43053656484E+02  0.00000000000E+00 0. -1.
         -4   -1    0    0    0  501 -0.00000000000E+00 -0.00000000000E+00 -0.25700388382E+03  0.25700388382E+03  0.00000000000E+00 0.  1.
         23    2    1    2    0    0  0.50037754072E+02 -0.22678946206E+02 -0.90227237177E+02  0.13625051892E+03  0.86053112335E+02 0.  0.
         23    2    1    2    0    0 -0.50037754072E+02  0.22678946206E+02 -0.12372299016E+03  0.16380702139E+03  0.92234757706E+02 0.  0.
          5    1    3    3  502    0 -0.35887177565E+01  0.25493360765E+02 -0.93047718230E+01  0.27775152870E+02  0.47000000000E+01 0. -1.
         -5    1    3    3    0  502  0.53626471829E+02 -0.48172306972E+02 -0.80922465354E+02  0.10847536605E+03  0.47000000000E+01 0.  1.
          5    1    4    4  503    0 -0.43034183716E+02  0.56947412705E+02 -0.74979327969E+02  0.10362884929E+03  0.47000000000E+01 0. -1.
         -5    1    4    4    0  503 -0.70035703562E+01 -0.34268466499E+02 -0.48743662194E+02  0.60178172106E+02  0.47000000000E+01 0.  1.
<mgrwt>
<rscale>  0 0.10601586E+03</rscale>
<asrwt>0</asrwt>
<pdfrwt beam="1">  1        4 0.66236394E-02 0.10735624E+03</pdfrwt>
<pdfrwt beam="2">  1       -4 0.39539059E-01 0.10735624E+03</pdfrwt>
<totfact> 0.14666444E+03</totfact>
</mgrwt>
</event>
<event>
 8    1  0.3543324E-004  0.1225403E+03  0.7546771E-02  0.1246341E+00
          2   -1    0    0  501    0  0.00000000000E+00  0.00000000000E+00  0.56732431747E+03  0.56732431747E+03  0.00000000000E+00 0. -1.
         -2   -1    0    0    0  501 -0.00000000000E+00 -0.00000000000E+00 -0.23709066866E+02  0.23709066866E+02  0.00000000000E+00 0.  1.
         23    2    1    2    0    0 -0.71682767299E+02  0.51885831067E+02  0.34488118046E+03  0.36600430137E+03  0.84767690734E+02 0.  0.
         23    2    1    2    0    0  0.71682767299E+02 -0.51885831067E+02  0.19873407014E+03  0.22502908296E+03  0.57552575537E+02 0.  0.
          5    1    4    4  502    0  0.28212250613E+02 -0.24353598824E+02  0.14771029641E+03  0.15241210754E+03  0.47000000000E+01 0. -1.
         -5    1    3    3    0  503 -0.14562562318E+02  0.43040471596E+02  0.60708680304E+02  0.75974892436E+02  0.47000000000E+01 0.  1.
          5    1    3    3  503    0 -0.57120204981E+02  0.88453594716E+01  0.28417250016E+03  0.29002940893E+03  0.47000000000E+01 0. -1.
         -5    1    4    4    0  502  0.43470516686E+02 -0.27532232243E+02  0.51023773731E+02  0.72616975419E+02  0.47000000000E+01 0.  1.
<mgrwt>
<rscale>  0 0.11805482E+03</rscale>
<asrwt>0</asrwt>
<pdfrwt beam="1">  1        2 0.87280654E-01 0.12254028E+03</pdfrwt>
<pdfrwt beam="2">  1       -2 0.36475492E-02 0.12254028E+03</pdfrwt>
<totfact> 0.15968467E+04</totfact>
</mgrwt>
</event>
<event>
 8    1  0.2964543E-004  0.1714776E+03  0.7546771E-02  0.1176413E+00
          1   -1    0    0  501    0  0.00000000000E+00  0.00000000000E+00  0.13057546556E+03  0.13057546556E+03  0.00000000000E+00 0. -1.
         -1   -1    0    0    0  501 -0.00000000000E+00 -0.00000000000E+00 -0.22601973474E+03  0.22601973474E+03  0.00000000000E+00 0.  1.
         23    2    1    2    0    0  0.38216715360E+02  0.13879512417E+03 -0.34138158818E+02  0.17484277868E+03  0.93166407812E+02 0.  0.
         23    2    1    2    0    0 -0.38216715360E+02 -0.13879512417E+03 -0.61306110361E+02  0.18175242162E+03  0.92471075326E+02 0.  0.
          5    1    4    4  502    0 -0.13588611993E+02 -0.11964320214E+03 -0.92205746896E+01  0.12085634113E+03  0.47000000000E+01 0. -1.
         -5    1    3    3    0  503 -0.21856475791E+02  0.13761444929E+02  0.11605795216E+02  0.28703090133E+02  0.47000000000E+01 0.  1.
          5    1    3    3  503    0  0.60073191151E+02  0.12503367924E+03 -0.45743954035E+02  0.14613968855E+03  0.47000000000E+01 0. -1.
         -5    1    4    4    0  502 -0.24628103367E+02 -0.19151922028E+02 -0.52085535672E+02  0.60896080490E+02  0.47000000000E+01 0.  1.
<mgrwt>
<rscale>  0 0.17138337E+03</rscale>
<asrwt>0</asrwt>
<pdfrwt beam="1">  1        1 0.20088533E-01 0.17147765E+03</pdfrwt>
<pdfrwt beam="2">  1       -1 0.34772267E-01 0.17147765E+03</pdfrwt>
<totfact> 0.19747505E+03</totfact>
</mgrwt>
</event>
<event>
 8    1  0.2964543E-004  0.9768078E+02  0.7546771E-02  0.1288237E+00
          2   -1    0    0  501    0  0.00000000000E+00  0.00000000000E+00  0.10024054650E+04  0.10024054650E+04  0.00000000000E+00 0. -1.
         -2   -1    0    0    0  501 -0.00000000000E+00 -0.00000000000E+00 -0.91953197625E+01  0.91953197625E+01  0.00000000000E+00 0.  1.
         23    2    1    2    0    0 -0.95780307905E+01  0.25905982225E+02  0.43757307667E+03  0.44834331899E+03  0.93694587186E+02 0.  0.
         23    2    1    2    0    0  0.95780307905E+01 -0.25905982225E+02  0.55563706857E+03  0.56325746577E+03  0.88111078718E+02 0.  0.
          5    1    3    3  502    0  0.30364102832E+02 -0.17863159552E+02  0.21747715168E+03  0.22036213992E+03  0.47000000000E+01 0. -1.
         -5    1    4    4    0  503 -0.25759979816E+02 -0.43054023294E+02  0.24637357291E+03  0.25147415953E+03  0.47000000000E+01 0.  1.
          5    1    4    4  503    0  0.35338010607E+02  0.17148041069E+02  0.30926349566E+03  0.31178330624E+03  0.47000000000E+01 0. -1.
         -5    1    3    3    0  502 -0.39942133623E+02  0.43769141778E+02  0.22009592499E+03  0.22798117906E+03  0.47000000000E+01 0.  1.
<mgrwt>
<rscale>  0 0.96316940E+02</rscale>
<asrwt>0</asrwt>
<pdfrwt beam="1">  1        2 0.15421614E+00 0.97680777E+02</pdfrwt>
<pdfrwt beam="2">  1       -2 0.14146654E-02 0.97680777E+02</pdfrwt>
<totfact> 0.30919394E+04</totfact>
</mgrwt>
</event>
<event>
 8    1  0.2964543E-004  0.9866122E+02  0.7546771E-02  0.1286344E+00
          3   -1    0    0  501    0  0.00000000000E+00  0.00000000000E+00  0.52809520662E+02  0.52809520662E+02  0.00000000000E+00 0. -1.
         -3   -1    0    0    0  501 -0.00000000000E+00 -0.00000000000E+00 -0.20739752430E+03  0.20739752430E+03  0.00000000000E+00 0.  1.
         23    2    1    2    0    0  0.20415498747E+02 -0.83478985365E+01 -0.13171670807E+03  0.16457012834E+03  0.96164213497E+02 0.  0.
         23    2    1    2    0    0 -0.20415498747E+02  0.83478985365E+01 -0.22871295567E+02  0.95636916623E+02  0.90204454774E+02 0.  0.
          5    1    3    3  502    0  0.51545029581E+02  0.18337450616E+02 -0.92890887681E+02  0.10790717855E+03  0.47000000000E+01 0. -1.
         -5    1    3    3    0  502 -0.31129530833E+02 -0.26685349152E+02 -0.38825820389E+02  0.56662949784E+02  0.47000000000E+01 0.  1.
          5    1    4    4  503    0  0.30861298168E+02  0.22473059542E+02 -0.26992063667E+01  0.38559484498E+02  0.47000000000E+01 0. -1.
         -5    1    4    4    0  503 -0.51276796915E+02 -0.14125161005E+02 -0.20172089200E+02  0.57077432125E+02  0.47000000000E+01 0.  1.
<mgrwt>
<rscale>  0 0.97178276E+02</rscale>
<asrwt>0</asrwt>
<pdfrwt beam="1">  1        3 0.81245418E-02 0.98661218E+02</pdfrwt>
<pdfrwt beam="2">  1       -3 0.31907311E-01 0.98661218E+02</pdfrwt>
<totfact> 0.21466861E+03</totfact>
</mgrwt>
</event>
<event>
 8    1  0.2964543E-004  0.1335496E+03  0.7546771E-02  0.1222446E+00
          2   -1    0    0  501    0  0.00000000000E+00  0.00000000000E+00  0.38355742078E+03  0.38355742078E+03  0.00000000000E+00 0.  1.
         -2   -1    0    0    0  501 -0.00000000000E+00 -0.00000000000E+00 -0.53757096492E+02  0.53757096492E+02  0.00000000000E+00 0. -1.
         23    2    1    2    0    0  0.92590725511E+02 -0.27908008798E+02  0.83930630662E+02  0.15773349659E+03  0.92106491498E+02 0.  0.
         23    2    1    2    0    0 -0.92590725511E+02  0.27908008798E+02  0.24586969362E+03  0.27958102069E+03  0.91442558358E+02 0.  0.
          5    1    3    3  502    0  0.78951157537E+02  0.21543025696E+02  0.49140937910E+02  0.95573579044E+02  0.47000000000E+01 0. -1.
         -5    1    3    3    0  502  0.13639567973E+02 -0.49451034493E+02  0.34789692753E+02  0.62159917542E+02  0.47000000000E+01 0.  1.
          5    1    4    4  503    0 -0.60318075417E+02  0.58657080772E+02  0.19076667593E+03  0.20854960559E+03  0.47000000000E+01 0. -1.
         -5    1    4    4    0  503 -0.32272650093E+02 -0.30749071974E+02  0.55103017695E+02  0.71031415095E+02  0.47000000000E+01 0.  1.
<mgrwt>
<rscale>  0 0.13343523E+03</rscale>
<asrwt>0</asrwt>
<pdfrwt beam="1">  1        2 0.59008832E-01 0.13354964E+03</pdfrwt>
<pdfrwt beam="2">  1       -2 0.82703228E-02 0.13354964E+03</pdfrwt>
<totfact> 0.71540089E+03</totfact>
</mgrwt>
</event>
<event>
 7    1  0.2964543E-004  0.1795603E+03  0.7546771E-02  0.1175773E+00
         -2   -1    0    0    0  501 -0.00000000000E+00  0.00000000000E+00  0.21620823854E+02  0.21620823854E+02  0.00000000000E+00 0.  1.
          2   -1    0    0  501    0  0.00000000000E+00 -0.00000000000E+00 -0.12676494531E+04  0.12676494531E+04  0.00000000000E+00 0. -1.
         23    2    1    2    0    0 -0.11461956675E+03 -0.35122197308E+02 -0.59931985024E+03  0.61809656193E+03  0.92129599781E+02 0.  0.
          5    1    3    3  502    0 -0.20458013932E+02  0.73097655686E+01 -0.20901622690E+02  0.30511159234E+02  0.47000000000E+01 0. -1.
         -5    1    1    2    0  503 -0.28423629676E+02  0.19582698722E+02 -0.15222919653E+03  0.15616402623E+03  0.47000000000E+01 0.  1.
          5    1    1    2  503    0  0.14304319642E+03  0.15539498586E+02 -0.49447958247E+03  0.51500968878E+03  0.47000000000E+01 0. -1.
         -5    1    3    3    0  502 -0.94161552816E+02 -0.42431962876E+02 -0.57841822755E+03  0.58758540270E+03  0.47000000000E+01 0.  1.
<mgrwt>
<rscale>  0 0.17200463E+03</rscale>
<asrwt>0</asrwt>
<pdfrwt beam="1">  1        2 0.19502303E+00 0.17956033E+03</pdfrwt>
<pdfrwt beam="2">  1       -2 0.33262799E-02 0.17956033E+03</pdfrwt>
<totfact> 0.65512237E+03</totfact>
</mgrwt>
</event>
<event>
 8    1  0.3215333E-004  0.9073914E+02  0.7546771E-02  0.1301859E+00
          2   -1    0    0  501    0  0.00000000000E+00  0.00000000000E+00  0.44210667995E+03  0.44210667995E+03  0.00000000000E+00 0. -1.
         -2   -1    0    0    0  501 -0.00000000000E+00 -0.00000000000E+00 -0.41161862345E+02  0.41161862345E+02  0.00000000000E+00 0.  1.
         23    2    1    2    0    0  0.40411072949E+01  0.12934458451E+02  0.38097519328E+03  0.39163208525E+03  0.89721577876E+02 0.  0.
         23    2    1    2    0    0 -0.40411072949E+01 -0.12934458451E+02  0.19969624319E+02  0.91636457043E+02  0.88401490940E+02 0.  0.
          5    1    3    3  502    0 -0.39834220394E+02 -0.94118723522E+01  0.18119636508E+03  0.18582131517E+03  0.47000000000E+01 0. -1.
         -5    1    4    4    0  503  0.38746109687E+02 -0.19652839433E+02 -0.31508202059E-01  0.43698811270E+02  0.47000000000E+01 0.  1.
          5    1    4    4  503    0 -0.42787216982E+02  0.67183809821E+01  0.20001132521E+02  0.47937645773E+02  0.47000000000E+01 0. -1.
         -5    1    3    3    0  502  0.43875327689E+02  0.22346330803E+02  0.19977882821E+03  0.20581077008E+03  0.47000000000E+01 0.  1.
<mgrwt>
<rscale>  0 0.90411103E+02</rscale>
<asrwt>0</asrwt>
<pdfrwt beam="1">  1        2 0.68016409E-01 0.90739144E+02</pdfrwt>
<pdfrwt beam="2">  1       -2 0.63325945E-02 0.90739144E+02</pdfrwt>
<totfact> 0.89924588E+03</totfact>
</mgrwt>
</event>
<event>
 8    1  0.2964543E-004  0.9725021E+02  0.7546771E-02  0.1290067E+00
         -1   -1    0    0    0  501 -0.00000000000E+00  0.00000000000E+00  0.17430729202E+02  0.17430729202E+02  0.00000000000E+00 0.  1.
          1   -1    0    0  501    0  0.00000000000E+00 -0.00000000000E+00 -0.81952722359E+03  0.81952722359E+03  0.00000000000E+00 0. -1.
         23    2    1    2    0    0  0.15480629155E+02 -0.87378058946E+01 -0.66915291769E+03  0.67618283883E+03  0.95611741660E+02 0.  0.
         23    2    1    2    0    0 -0.15480629155E+02  0.87378058946E+01 -0.13294357670E+03  0.16077511397E+03  0.88648990710E+02 0.  0.
          5    1    3    3  502    0  0.49620794749E+02  0.17943920697E+02 -0.40672146720E+03  0.41015685956E+03  0.47000000000E+01 0. -1.
         -5    1    3    3    0  502 -0.34140165594E+02 -0.26681726591E+02 -0.26243145049E+03  0.26602597927E+03  0.47000000000E+01 0.  1.
          5    1    4    4  503    0  0.22022543815E+02  0.34096971257E+02 -0.39483629129E+02  0.56821147949E+02  0.47000000000E+01 0. -1.
         -5    1    4    4    0  503 -0.37503172970E+02 -0.25359165362E+02 -0.93459947572E+02  0.10395396602E+03  0.47000000000E+01 0.  1.
<mgrwt>
<rscale>  0 0.95494097E+02</rscale>
<asrwt>0</asrwt>
<pdfrwt beam="1">  1        1 0.12608111E+00 0.97250215E+02</pdfrwt>
<pdfrwt beam="2">  1       -1 0.26816506E-02 0.97250215E+02</pdfrwt>
<totfact> 0.92998374E+03</totfact>
</mgrwt>
</event>
<event>
 8    1  0.2964543E-004  0.9734678E+02  0.7546771E-02  0.1287499E+00
          1   -1    0    0  501    0  0.00000000000E+00  0.00000000000E+00  0.19248882902E+03  0.19248882902E+03  0.00000000000E+00 0. -1.
         -1   -1    0    0    0  501 -0.00000000000E+00 -0.00000000000E+00 -0.14338265544E+03  0.14338265544E+03  0.00000000000E+00 0.  1.
         23    2    1    2    0    0 -0.80036576198E+01  0.24045224487E+02 -0.11240399335E+03  0.14869785957E+03  0.93990235462E+02 0.  0.
         23    2    1    2    0    0  0.80036576198E+01 -0.24045224487E+02  0.16151016693E+03  0.18717362490E+03  0.91138358998E+02 0.  0.
          5    1    3    3  502    0  0.12097106428E+01 -0.22764990310E+02  0.32496083868E+01  0.23502300703E+02  0.47000000000E+01 0. -1.
         -5    1    3    3    0  502 -0.92133682627E+01  0.46810214797E+02 -0.11565360174E+03  0.12519555886E+03  0.47000000000E+01 0.  1.
          5    1    4    4  503    0 -0.78341435433E+01 -0.40188910871E+02  0.15862951284E+03  0.16389610949E+03  0.47000000000E+01 0. -1.
         -5    1    4    4    0  503  0.15837801163E+02  0.16143686384E+02  0.28806540906E+01  0.23277515412E+02  0.47000000000E+01 0.  1.
<mgrwt>
<rscale>  0 0.96651714E+02</rscale>
<asrwt>0</asrwt>
<pdfrwt beam="1">  1        1 0.29613666E-01 0.97346781E+02</pdfrwt>
<pdfrwt beam="2">  1       -1 0.22058870E-01 0.97346781E+02</pdfrwt>
<totfact> 0.25245055E+03</totfact>
</mgrwt>
</event>
<event>
 8    1  0.2964543E-004  0.9750033E+02  0.7546771E-02  0.1286933E+00
          1   -1    0    0  501    0  0.00000000000E+00  0.00000000000E+00  0.16622553399E+03  0.16622553399E+03  0.00000000000E+00 0. -1.
         -1   -1    0    0    0  501 -0.00000000000E+00 -0.00000000000E+00 -0.63460315141E+02  0.63460315141E+02  0.00000000000E+00 0.  1.
         23    2    1    2    0    0 -0.29300692648E+02 -0.10998313001E+02  0.91768360717E+02  0.13389453813E+03  0.92340791818E+02 0.  0.
         23    2    1    2    0    0  0.29300692648E+02  0.10998313001E+02  0.10996858133E+02  0.95791311002E+02  0.89864068994E+02 0.  0.
          5    1    3    3  502    0  0.12489669510E+02  0.28129582016E+02  0.61580409098E+02  0.69003637683E+02  0.47000000000E+01 0. -1.
         -5    1    3    3    0  502 -0.41790362158E+02 -0.39127895017E+02  0.30187951619E+02  0.64890900446E+02  0.47000000000E+01 0.  1.
          5    1    4    4  503    0  0.49756641541E+01  0.47076773192E+02  0.19133789164E+02  0.51275449250E+02  0.47000000000E+01 0. -1.
         -5    1    4    4    0  503  0.24325028494E+02 -0.36078460191E+02 -0.81369310313E+01  0.44515861753E+02  0.47000000000E+01 0.  1.
<mgrwt>
<rscale>  0 0.96909400E+02</rscale>
<asrwt>0</asrwt>
<pdfrwt beam="1">  1        1 0.25573159E-01 0.97500335E+02</pdfrwt>
<pdfrwt beam="2">  1       -1 0.97631255E-02 0.97500335E+02</pdfrwt>
<totfact> 0.10736051E+04</totfact>
</mgrwt>
</event>
<event>
 8    1  0.2964543E-004  0.9937432E+02  0.7546771E-02  0.1283458E+00
          2   -1    0    0  501    0  0.00000000000E+00  0.00000000000E+00  0.48375228181E+02  0.48375228181E+02  0.00000000000E+00 0. -1.
         -2   -1    0    0    0  501 -0.00000000000E+00 -0.00000000000E+00 -0.21122503954E+03  0.21122503954E+03  0.00000000000E+00 0.  1.
         23    2    1    2    0    0 -0.12336634269E+02  0.28710565288E+02 -0.11619312486E+03  0.15289243793E+03  0.94333272014E+02 0.  0.
         23    2    1    2    0    0  0.12336634269E+02 -0.28710565288E+02 -0.46656686506E+02  0.10670782979E+03  0.90737122717E+02 0.  0.
          5    1    4    4  502    0  0.47621993583E+02 -0.21724984557E+02 -0.70925425682E+01  0.53030400591E+02  0.47000000000E+01 0. -1.
         -5    1    4    4    0  502 -0.35285359314E+02 -0.69855807313E+01 -0.39564143937E+02  0.53677429201E+02  0.47000000000E+01 0.  1.
          5    1    3    3  503    0  0.35000567391E+02  0.70599901388E+01 -0.15026589959E+02  0.39022706009E+02  0.47000000000E+01 0. -1.
         -5    1    3    3    0  503 -0.47337201660E+02  0.21650575149E+02 -0.10116653490E+03  0.11386973193E+03  0.47000000000E+01 0.  1.
<mgrwt>
<rscale>  0 0.98511378E+02</rscale>
<asrwt>0</asrwt>
<pdfrwt beam="1">  1        2 0.74423427E-02 0.99374319E+02</pdfrwt>
<pdfrwt beam="2">  1       -2 0.32496160E-01 0.99374319E+02</pdfrwt>
<totfact> 0.75511940E+03</totfact>
</mgrwt>
</event>
<event>
 8    1  0.2964543E-004  0.1265000E+03  0.7546771E-02  0.1233890E+00
         -1   -1    0    0    0  501 -0.00000000000E+00  0.00000000000E+00  0.21448471728E+02  0.21448471728E+02  0.00000000000E+00 0.  1.
          1   -1    0    0  501    0  0.00000000000E+00 -0.00000000000E+00 -0.82302295635E+03  0.82302295635E+03  0.00000000000E+00 0. -1.
         23    2    1    2    0    0  0.58627892744E+02 -0.62191910518E+02 -0.26212458374E+03  0.29105248764E+03  0.93258724083E+02 0.  0.
         23    2    1    2    0    0 -0.58627892744E+02  0.62191910518E+02 -0.53944990088E+03  0.55341894044E+03  0.89225918521E+02 0.  0.
          5    1    3    3  502    0 -0.23160550757E+02 -0.68330658666E-01 -0.52344100838E+02  0.57431791483E+02  0.47000000000E+01 0. -1.
         -5    1    4    4    0  503  0.99838121862E+01  0.24886731413E+02 -0.43362529123E+02  0.51199851935E+02  0.47000000000E+01 0.  1.
          5    1    4    4  503    0 -0.68611704930E+02  0.37305179105E+02 -0.49608737176E+03  0.50221908851E+03  0.47000000000E+01 0. -1.
         -5    1    3    3    0  502  0.81788443501E+02 -0.62123579859E+02 -0.20978048290E+03  0.23362069615E+03  0.47000000000E+01 0.  1.
<mgrwt>
<rscale>  0 0.12575775E+03</rscale>
<asrwt>0</asrwt>
<pdfrwt beam="1">  1        1 0.12661891E+00 0.12650001E+03</pdfrwt>
<pdfrwt beam="2">  1       -1 0.32997651E-02 0.12650001E+03</pdfrwt>
<totfact> 0.69540671E+03</totfact>
</mgrwt>
</event>
<event>
 8    1  0.2964543E-004  0.9933146E+02  0.7546771E-02  0.1285788E+00
          1   -1    0    0  501    0  0.00000000000E+00  0.00000000000E+00  0.37365276381E+03  0.37365276381E+03  0.00000000000E+00 0. -1.
         -1   -1    0    0    0  501 -0.00000000000E+00 -0.00000000000E+00 -0.26459622930E+02  0.26459622930E+02  0.00000000000E+00 0.  1.
         23    2    1    2    0    0  0.14039199528E+02 -0.95118028002E+00  0.23445847628E+03  0.25463211790E+03  0.98329723378E+02 0.  0.
         23    2    1    2    0    0 -0.14039199528E+02  0.95118028002E+00  0.11273466460E+03  0.14548026884E+03  0.90870237986E+02 0.  0.
          5    1    3    3  502    0  0.49407667729E+02 -0.54881543931E+01  0.68186849130E+02  0.84514932783E+02  0.47000000000E+01 0. -1.
         -5    1    3    3    0  502 -0.35368468201E+02  0.45369741131E+01  0.16627162715E+03  0.17011718512E+03  0.47000000000E+01 0.  1.
          5    1    4    4  503    0  0.30147303739E+02  0.26390375494E+02  0.42927580030E+02  0.58908224966E+02  0.47000000000E+01 0. -1.
         -5    1    4    4    0  503 -0.44186503267E+02 -0.25439195214E+02  0.69807084570E+02  0.86572043873E+02  0.47000000000E+01 0.  1.
<mgrwt>
<rscale>  0 0.97433185E+02</rscale>
<asrwt>0</asrwt>
<pdfrwt beam="1">  1        1 0.57485037E-01 0.99331457E+02</pdfrwt>
<pdfrwt beam="2">  1       -1 0.40707115E-02 0.99331457E+02</pdfrwt>
<totfact> 0.14521149E+04</totfact>
</mgrwt>
</event>
<event>
 8    1  0.2964543E-004  0.1110227E+03  0.7546771E-02  0.1260933E+00
         -2   -1    0    0    0  501 -0.00000000000E+00  0.00000000000E+00  0.89954908812E+02  0.89954908812E+02  0.00000000000E+00 0.  1.
          2   -1    0    0  501    0  0.00000000000E+00 -0.00000000000E+00 -0.13120996347E+03  0.13120996347E+03  0.00000000000E+00 0. -1.
         23    2    1    2    0    0 -0.53783213745E+02  0.80677427514E+01 -0.18244100085E+02  0.10778262392E+03  0.91249790558E+02 0.  0.
         23    2    1    2    0    0  0.53783213745E+02 -0.80677427514E+01 -0.23010954570E+02  0.11338224836E+03  0.96790018388E+02 0.  0.
          5    1    3    3  502    0 -0.63697047328E+02  0.30470317823E+02 -0.33759345212E+02  0.78406233781E+02  0.47000000000E+01 0. -1.
         -5    1    3    3    0  502  0.99138335829E+01 -0.22402575072E+02  0.15515245127E+02  0.29376390137E+02  0.47000000000E+01 0.  1.
          5    1    4    4  503    0  0.12074867983E+02  0.42993218076E+02 -0.82096679903E+01  0.45647649291E+02  0.47000000000E+01 0. -1.
         -5    1    4    4    0  503  0.41708345762E+02 -0.51060960827E+02 -0.14801286580E+02  0.67734599071E+02  0.47000000000E+01 0.  1.
<mgrwt>
<rscale>  0 0.10980390E+03</rscale>
<asrwt>0</asrwt>
<pdfrwt beam="1">  1        2 0.20186148E-01 0.11102266E+03</pdfrwt>
<pdfrwt beam="2">  1       -2 0.13839217E-01 0.11102266E+03</pdfrwt>
<totfact> 0.99421263E+03</totfact>
</mgrwt>
</event>
<event>
 8    1  0.2964543E-004  0.9728967E+02  0.7546771E-02  0.1287004E+00
         -1   -1    0    0    0  501 -0.00000000000E+00  0.00000000000E+00  0.22383246262E+02  0.22383246262E+02  0.00000000000E+00 0.  1.
          1   -1    0    0  501    0  0.00000000000E+00 -0.00000000000E+00 -0.41647297221E+03  0.41647297221E+03  0.00000000000E+00 0. -1.
         23    2    1    2    0    0 -0.27841101585E+02 -0.16092794891E+02 -0.18634917863E+03  0.20946263699E+03  0.90080380405E+02 0.  0.
         23    2    1    2    0    0  0.27841101585E+02  0.16092794891E+02 -0.20774054731E+03  0.22939358148E+03  0.91821431269E+02 0.  0.
          5    1    4    4  502    0  0.11928093605E+02  0.52136233804E+02 -0.15012294114E+03  0.15943479466E+03  0.47000000000E+01 0. -1.
         -5    1    4    4    0  502  0.15913007980E+02 -0.36043438913E+02 -0.57617606173E+02  0.69958786816E+02  0.47000000000E+01 0.  1.
          5    1    3    3  503    0 -0.32302615688E+02  0.31293067248E+02 -0.66451469169E+02  0.80377875021E+02  0.47000000000E+01 0. -1.
         -5    1    3    3    0  503  0.44615141029E+01 -0.47385862139E+02 -0.11989770947E+03  0.12908476197E+03  0.47000000000E+01 0.  1.
<mgrwt>
<rscale>  0 0.96876684E+02</rscale>
<asrwt>0</asrwt>
<pdfrwt beam="1">  1        1 0.64072767E-01 0.97289672E+02</pdfrwt>
<pdfrwt beam="2">  1       -1 0.34435763E-02 0.97289672E+02</pdfrwt>
<totfact> 0.16145668E+04</totfact>
</mgrwt>
</event>
<event>
 8    1  0.2964543E-004  0.1162323E+03  0.7546771E-02  0.1250035E+00
          2   -1    0    0  501    0  0.00000000000E+00  0.00000000000E+00  0.20692465118E+02  0.20692465118E+02  0.00000000000E+00 0. -1.
         -2   -1    0    0    0  501 -0.00000000000E+00 -0.00000000000E+00 -0.72209831090E+03  0.72209831090E+03  0.00000000000E+00 0.  1.
         23    2    1    2    0    0 -0.48802146189E+02  0.52768272921E+02 -0.22770479554E+03  0.25503815193E+03  0.89603822064E+02 0.  0.
         23    2    1    2    0    0  0.48802146189E+02 -0.52768272921E+02 -0.47370105024E+03  0.48775262409E+03  0.91344387914E+02 0.  0.
          5    1    4    4  502    0  0.23698084850E+02 -0.76323913037E+02 -0.36318506174E+03  0.37190377518E+03  0.47000000000E+01 0. -1.
         -5    1    3    3    0  503 -0.42344249105E+02 -0.11852102683E+02 -0.13260023903E+03  0.13977990256E+03  0.47000000000E+01 0.  1.
          5    1    3    3  503    0 -0.64578970839E+01  0.64620375603E+02 -0.95104556510E+02  0.11525824937E+03  0.47000000000E+01 0. -1.
         -5    1    4    4    0  502  0.25104061339E+02  0.23555640116E+02 -0.11051598851E+03  0.11584884891E+03  0.47000000000E+01 0.  1.
<mgrwt>
<rscale>  0 0.11589004E+03</rscale>
<asrwt>0</asrwt>
<pdfrwt beam="1">  1        2 0.31834558E-02 0.11623226E+03</pdfrwt>
<pdfrwt beam="2">  1       -2 0.11109206E+00 0.11623226E+03</pdfrwt>
<totfact> 0.18346311E+03</totfact>
</mgrwt>
</event>
<event>
 8    1  0.2964543E-004  0.1019945E+03  0.7546771E-02  0.1277657E+00
         -1   -1    0    0    0  501 -0.00000000000E+00  0.00000000000E+00  0.36733398683E+03  0.36733398683E+03  0.00000000000E+00 0.  1.
          1   -1    0    0  501    0  0.00000000000E+00 -0.00000000000E+00 -0.30460297410E+02  0.30460297410E+02  0.00000000000E+00 0. -1.
         23    2    1    2    0    0  0.40460442035E+02 -0.17703979292E+02  0.10887879897E+03  0.14918938359E+03  0.91936940661E+02 0.  0.
         23    2    1    2    0    0 -0.40460442035E+02  0.17703979292E+02  0.22799489045E+03  0.24860490065E+03  0.88725691339E+02 0.  0.
          5    1    3    3  502    0  0.66627885254E+02  0.45608404634E+01  0.77605708334E+02  0.10249298671E+03  0.47000000000E+01 0. -1.
         -5    1    4    4    0  503 -0.54540889169E+02  0.38046005990E+02  0.20063223999E+03  0.21141805241E+03  0.47000000000E+01 0.  1.
          5    1    4    4  503    0  0.14080447134E+02 -0.20342026698E+02  0.27362650468E+02  0.37186848244E+02  0.47000000000E+01 0. -1.
         -5    1    3    3    0  502 -0.26167443219E+02 -0.22264819755E+02  0.31273090635E+02  0.46696396876E+02  0.47000000000E+01 0.  1.
<mgrwt>
<rscale>  0 0.10126552E+03</rscale>
<asrwt>0</asrwt>
<pdfrwt beam="1">  1        1 0.46861999E-02 0.10199451E+03</pdfrwt>
<pdfrwt beam="2">  1       -1 0.56512918E-01 0.10199451E+03</pdfrwt>
<totfact> 0.55344113E+03</totfact>
</mgrwt>
</event>
<event>
 8    1  0.2964543E-004  0.1083020E+03  0.7546771E-02  0.1264412E+00
          2   -1    0    0  501    0  0.00000000000E+00  0.00000000000E+00  0.10147667939E+03  0.10147667939E+03  0.00000000000E+00 0. -1.
         -2   -1    0    0    0  501 -0.00000000000E+00 -0.00000000000E+00 -0.13742187489E+03  0.13742187489E+03  0.00000000000E+00 0.  1.
         23    2    1    2    0    0 -0.25689945871E+02  0.49864517871E+02  0.31136897877E+02  0.11268912854E+03  0.92643887116E+02 0.  0.
         23    2    1    2    0    0  0.25689945871E+02 -0.49864517871E+02 -0.67082093375E+02  0.12620942574E+03  0.91007518557E+02 0.  0.
          5    1    3    3  502    0  0.11165896187E+02  0.33649787670E+02 -0.24862221283E+02  0.43556922469E+02  0.47000000000E+01 0. -1.
         -5    1    3    3    0  502 -0.36855842057E+02  0.16214730202E+02  0.55999119160E+02  0.69132206069E+02  0.47000000000E+01 0.  1.
          5    1    4    4  503    0 -0.11472462364E+02 -0.58610162881E+02 -0.63933731068E+02  0.87614956223E+02  0.47000000000E+01 0. -1.
         -5    1    4    4    0  503  0.37162408235E+02  0.87456450102E+01 -0.31483623070E+01  0.38594469522E+02  0.47000000000E+01 0.  1.
<mgrwt>
<rscale>  0 0.10795124E+03</rscale>
<asrwt>0</asrwt>
<pdfrwt beam="1">  1        2 0.15611797E-01 0.10830205E+03</pdfrwt>
<pdfrwt beam="2">  1       -2 0.21141827E-01 0.10830205E+03</pdfrwt>
<totfact> 0.66048990E+03</totfact>
</mgrwt>
</event>
<event>
 8    1  0.2964543E-004  0.9215600E+02  0.7546771E-02  0.1297877E+00
         -3   -1    0    0    0  501 -0.00000000000E+00  0.00000000000E+00  0.30113231258E+02  0.30113231258E+02  0.00000000000E+00 0.  1.
          3   -1    0    0  501    0  0.00000000000E+00 -0.00000000000E+00 -0.28871248300E+03  0.28871248300E+03  0.00000000000E+00 0. -1.
         23    2    1    2    0    0 -0.20874994506E+02 -0.23402888327E+02 -0.10335112943E+03  0.13828567161E+03  0.86359773277E+02 0.  0.
         23    2    1    2    0    0  0.20874994506E+02  0.23402888327E+02 -0.15524812231E+03  0.18054004265E+03  0.86656026568E+02 0.  0.
          5    1    4    4  502    0  0.36256821759E+02  0.37798826843E+02 -0.14909125746E+03  0.15809364783E+03  0.47000000000E+01 0. -1.
         -5    1    3    3    0  503  0.29150733198E+02  0.10056232396E+01 -0.62340430682E+02  0.68986925005E+02  0.47000000000E+01 0. -1.
          5    1    3    3  503    0 -0.50025727704E+02 -0.24408511566E+02 -0.41010698748E+02  0.69298746604E+02  0.47000000000E+01 0.  1.
         -5    1    4    4    0  502 -0.15381827253E+02 -0.14395938516E+02 -0.61568648540E+01  0.22446394816E+02  0.47000000000E+01 0.  1.
<mgrwt>
<rscale>  0 0.92086287E+02</rscale>
<asrwt>0</asrwt>
<pdfrwt beam="1">  1        3 0.44417303E-01 0.92155996E+02</pdfrwt>
<pdfrwt beam="2">  1       -3 0.46328050E-02 0.92155996E+02</pdfrwt>
<totfact> 0.27611232E+03</totfact>
</mgrwt>
</event>
<event>
 8    1  0.2964543E-004  0.1090496E+03  0.7546771E-02  0.1262891E+00
         -1   -1    0    0    0  501 -0.00000000000E+00  0.00000000000E+00  0.11782039472E+02  0.11782039472E+02  0.00000000000E+00 0.  1.
          1   -1    0    0  501    0  0.00000000000E+00 -0.00000000000E+00 -0.10020684430E+04  0.10020684430E+04  0.00000000000E+00 0. -1.
         23    2    1    2    0    0  0.54392153944E+02  0.22519286855E+02 -0.52267049895E+03  0.53368754467E+03  0.90400885917E+02 0.  0.
         23    2    1    2    0    0 -0.54392153944E+02 -0.22519286855E+02 -0.46761590459E+03  0.48016293781E+03  0.91794269598E+02 0.  0.
          5    1    3    3  502    0  0.20098404916E+02 -0.35059319465E+02 -0.20117751987E+03  0.20525005788E+03  0.47000000000E+01 0. -1.
         -5    1    4    4    0  503  0.84306984281E+01  0.24833487339E+02 -0.71953997660E+02  0.76728394670E+02  0.47000000000E+01 0.  1.
          5    1    4    4  503    0 -0.62822852372E+02 -0.47352774195E+02 -0.39566190693E+03  0.40343454314E+03  0.47000000000E+01 0. -1.
         -5    1    3    3    0  502  0.34293749027E+02  0.57578606320E+02 -0.32149297908E+03  0.32843748679E+03  0.47000000000E+01 0.  1.
<mgrwt>
<rscale>  0 0.10875583E+03</rscale>
<asrwt>0</asrwt>
<pdfrwt beam="1">  1        1 0.15416439E+00 0.10904959E+03</pdfrwt>
<pdfrwt beam="2">  1       -1 0.18126213E-02 0.10904959E+03</pdfrwt>
<totfact> 0.11960560E+04</totfact>
</mgrwt>
</event>
<event>
 8    1  0.2964543E-004  0.1065844E+03  0.7546771E-02  0.1268733E+00
          3   -1    0    0  501    0  0.00000000000E+00  0.00000000000E+00  0.25835164536E+03  0.25835164536E+03  0.00000000000E+00 0. -1.
         -3   -1    0    0    0  501 -0.00000000000E+00 -0.00000000000E+00 -0.60461730811E+02  0.60461730811E+02  0.00000000000E+00 0.  1.
         23    2    1    2    0    0 -0.40342824136E+02 -0.21529417969E+02  0.13349716278E+02  0.10741715058E+03  0.96276528897E+02 0.  0.
         23    2    1    2    0    0  0.40342824136E+02  0.21529417969E+02  0.18454019827E+03  0.21139622559E+03  0.92424131693E+02 0.  0.
          5    1    4    4  502    0  0.62631203465E+02 -0.92219885693E+01  0.13117026273E+03  0.14572385029E+03  0.47000000000E+01 0. -1.
         -5    1    4    4    0  502 -0.22288379330E+02  0.30751406538E+02  0.53369935544E+02  0.65672375298E+02  0.47000000000E+01 0.  1.
          5    1    3    3  503    0  0.14233820394E+02  0.21713333577E+02  0.25365798578E+02  0.36600331085E+02  0.47000000000E+01 0. -1.
         -5    1    3    3    0  503 -0.54576644530E+02 -0.43242751546E+02 -0.12016082300E+02  0.70816819494E+02  0.47000000000E+01 0.  1.
<mgrwt>
<rscale>  0 0.10570696E+03</rscale>
<asrwt>0</asrwt>
<pdfrwt beam="1">  1        3 0.39746406E-01 0.10658438E+03</pdfrwt>
<pdfrwt beam="2">  1       -3 0.93018049E-02 0.10658438E+03</pdfrwt>
<totfact> 0.11565762E+03</totfact>
</mgrwt>
</event>
<event>
 8    1  0.2964543E-004  0.1009691E+03  0.7546771E-02  0.1278758E+00
          3   -1    0    0  501    0  0.00000000000E+00  0.00000000000E+00  0.39010434738E+03  0.39010434738E+03  0.00000000000E+00 0. -1.
         -3   -1    0    0    0  501 -0.00000000000E+00 -0.00000000000E+00 -0.26108788310E+02  0.26108788310E+02  0.00000000000E+00 0.  1.
         23    2    1    2    0    0 -0.17614283746E+02  0.38734271419E+02  0.16388332897E+03  0.19249028687E+03  0.91565049298E+02 0.  0.
         23    2    1    2    0    0  0.17614283746E+02 -0.38734271419E+02  0.20011223010E+03  0.22372284881E+03  0.90533980758E+02 0.  0.
          5    1    3    3  502    0 -0.42572238398E+02 -0.31714512318E+01  0.37776497866E+02  0.57197966538E+02  0.47000000000E+01 0. -1.
         -5    1    4    4    0  503 -0.27270811713E+02  0.11798021561E+02  0.41591989839E+02  0.51331024761E+02  0.47000000000E+01 0.  1.
          5    1    4    4  503    0  0.44885095459E+02 -0.50532292980E+02  0.15852024026E+03  0.17239182405E+03  0.47000000000E+01 0. -1.
         -5    1    3    3    0  502  0.24957954651E+02  0.41905722650E+02  0.12610683110E+03  0.13529232034E+03  0.47000000000E+01 0.  1.
<mgrwt>
<rscale>  0 0.10073479E+03</rscale>
<asrwt>0</asrwt>
<pdfrwt beam="1">  1        3 0.60016049E-01 0.10096913E+03</pdfrwt>
<pdfrwt beam="2">  1       -3 0.40167369E-02 0.10096913E+03</pdfrwt>
<totfact> 0.19292349E+03</totfact>
</mgrwt>
</event>
<event>
 8    1  0.2964543E-004  0.1023991E+03  0.7546771E-02  0.1282286E+00
         -2   -1    0    0    0  501 -0.00000000000E+00  0.00000000000E+00  0.40840241468E+02  0.40840241468E+02  0.00000000000E+00 0.  1.
          2   -1    0    0  501    0  0.00000000000E+00 -0.00000000000E+00 -0.33507224627E+03  0.33507224627E+03  0.00000000000E+00 0. -1.
         23    2    1    2    0    0 -0.14544977797E+02  0.55136821427E+01 -0.46527935116E+02  0.11247406352E+03  0.10121071657E+03 0.  0.
         23    2    1    2    0    0  0.14544977797E+02 -0.55136821427E+01 -0.24770406968E+03  0.26343842422E+03  0.88320666579E+02 0.  0.
          5    1    3    3  502    0 -0.56075524787E+02 -0.66599008937E+01 -0.14680018852E+02  0.58535559394E+02  0.47000000000E+01 0. -1.
         -5    1    3    3    0  502  0.41530546990E+02  0.12173583036E+02 -0.31847916265E+02  0.53938504129E+02  0.47000000000E+01 0.  1.
          5    1    4    4  503    0  0.25937204102E+01 -0.41052736186E+02 -0.19002632756E+03  0.19448431736E+03  0.47000000000E+01 0. -1.
         -5    1    4    4    0  503  0.11951257387E+02  0.35539054043E+02 -0.57677742128E+02  0.68954106857E+02  0.47000000000E+01 0.  1.
<mgrwt>
<rscale>  0 0.99059430E+02</rscale>
<asrwt>0</asrwt>
<pdfrwt beam="1">  1        2 0.51549575E-01 0.10239905E+03</pdfrwt>
<pdfrwt beam="2">  1       -2 0.62831142E-02 0.10239905E+03</pdfrwt>
<totfact> 0.12309962E+04</totfact>
</mgrwt>
</event>
<event>
 8    1  0.2964543E-004  0.1174537E+03  0.7546771E-02  0.1250330E+00
          1   -1    0    0  501    0  0.00000000000E+00  0.00000000000E+00  0.75624995835E+02  0.75624995835E+02  0.00000000000E+00 0. -1.
         -1   -1    0    0    0  501 -0.00000000000E+00 -0.00000000000E+00 -0.17644025740E+03  0.17644025740E+03  0.00000000000E+00 0.  1.
         23    2    1    2    0    0 -0.68757530483E+02  0.99108572860E+01 -0.71776872266E+02  0.13764917461E+03  0.94707722953E+02 0.  0.
         23    2    1    2    0    0  0.68757530483E+02 -0.99108572860E+01 -0.29038389298E+02  0.11441607863E+03  0.86150959979E+02 0.  0.
          5    1    3    3  502    0 -0.69453696147E+02  0.31024219641E+02 -0.16073373398E+02  0.77889418057E+02  0.47000000000E+01 0. -1.
         -5    1    3    3    0  502  0.69616566446E+00 -0.21113362355E+02 -0.55703498868E+02  0.59759756549E+02  0.47000000000E+01 0.  1.
          5    1    4    4  503    0  0.24716324789E+02  0.37850199962E+02 -0.97500833719E+01  0.46483206365E+02  0.47000000000E+01 0. -1.
         -5    1    4    4    0  503  0.44041205694E+02 -0.47761057248E+02 -0.19288305926E+02  0.67932872263E+02  0.47000000000E+01 0.  1.
<mgrwt>
<rscale>  0 0.11571972E+03</rscale>
<asrwt>0</asrwt>
<pdfrwt beam="1">  1        1 0.11634615E-01 0.11745372E+03</pdfrwt>
<pdfrwt beam="2">  1       -1 0.27144655E-01 0.11745372E+03</pdfrwt>
<totfact> 0.59597299E+03</totfact>
</mgrwt>
</event>
<event>
 8    1  0.2964543E-004  0.1039160E+03  0.7546771E-02  0.1276298E+00
         -1   -1    0    0    0  501 -0.00000000000E+00  0.00000000000E+00  0.33372511559E+03  0.33372511559E+03  0.00000000000E+00 0.  1.
          1   -1    0    0  501    0  0.00000000000E+00 -0.00000000000E+00 -0.29994060298E+02  0.29994060298E+02  0.00000000000E+00 0. -1.
         23    2    1    2    0    0  0.26590273883E+02 -0.11972953918E+02  0.15854402172E+03  0.18956459385E+03  0.99740333516E+02 0.  0.
         23    2    1    2    0    0 -0.26590273883E+02  0.11972953918E+02  0.14518703358E+03  0.17415458204E+03  0.91652329130E+02 0.  0.
          5    1    4    4  502    0 -0.56649616046E+02 -0.84475453189E+01  0.10551265082E+03  0.12014803162E+03  0.47000000000E+01 0. -1.
         -5    1    4    4    0  502  0.30059342163E+02  0.20420499237E+02  0.39674382758E+02  0.54006550414E+02  0.47000000000E+01 0.  1.
          5    1    3    3  503    0  0.43328784970E+02 -0.47345156971E+02  0.10322776662E+03  0.12164295827E+03  0.47000000000E+01 0. -1.
         -5    1    3    3    0  503 -0.16738511087E+02  0.35372203053E+02  0.55316255095E+02  0.67921635580E+02  0.47000000000E+01 0.  1.
<mgrwt>
<rscale>  0 0.10192545E+03</rscale>
<asrwt>0</asrwt>
<pdfrwt beam="1">  1        1 0.46144710E-02 0.10391597E+03</pdfrwt>
<pdfrwt beam="2">  1       -1 0.51342323E-01 0.10391597E+03</pdfrwt>
<totfact> 0.67536193E+03</totfact>
</mgrwt>
</event>
<event>
 8    1  0.2964543E-004  0.9534382E+02  0.7546771E-02  0.1293865E+00
         -2   -1    0    0    0  501 -0.00000000000E+00  0.00000000000E+00  0.38643505532E+02  0.38643505532E+02  0.00000000000E+00 0.  1.
          2   -1    0    0  501    0  0.00000000000E+00 -0.00000000000E+00 -0.22255882098E+03  0.22255882098E+03  0.00000000000E+00 0. -1.
         23    2    1    2    0    0 -0.29971932595E+02 -0.16687267530E+01 -0.10667625038E+03  0.14307433722E+03  0.90494984297E+02 0.  0.
         23    2    1    2    0    0  0.29971932595E+02  0.16687267530E+01 -0.77239065066E+02  0.11812798929E+03  0.84185790306E+02 0.  0.
          5    1    3    3  502    0 -0.51798315052E+02 -0.14863440503E+02 -0.10371216726E+03  0.11697132531E+03  0.47000000000E+01 0. -1.
         -5    1    4    4    0  503  0.52742036899E+02  0.18781146056E+02 -0.67134643085E+02  0.87542013945E+02  0.47000000000E+01 0.  1.
          5    1    4    4  503    0 -0.22770104303E+02 -0.17112419303E+02 -0.10104421981E+02  0.30585975347E+02  0.47000000000E+01 0. -1.
         -5    1    3    3    0  502  0.21826382457E+02  0.13194713750E+02 -0.29640831173E+01  0.26103011911E+02  0.47000000000E+01 0.  1.
<mgrwt>
<rscale>  0 0.93815917E+02</rscale>
<asrwt>0</asrwt>
<pdfrwt beam="1">  1        2 0.34239819E-01 0.95343818E+02</pdfrwt>
<pdfrwt beam="2">  1       -2 0.59451546E-02 0.95343818E+02</pdfrwt>
<totfact> 0.20431353E+04</totfact>
</mgrwt>
</event>
<event>
 8    1  0.2964543E-004  0.2209972E+03  0.7546771E-02  0.1133540E+00
         -2   -1    0    0    0  501 -0.00000000000E+00  0.00000000000E+00  0.98411243601E+02  0.98411243601E+02  0.00000000000E+00 0. -1.
          2   -1    0    0  501    0  0.00000000000E+00 -0.00000000000E+00 -0.50685007680E+03  0.50685007680E+03  0.00000000000E+00 0.  1.
         23    2    1    2    0    0  0.19087171041E+03 -0.65518139471E+02 -0.15057062085E+03  0.26565012175E+03  0.84698517631E+02 0.  0.
         23    2    1    2    0    0 -0.19087171041E+03  0.65518139471E+02 -0.25786821235E+03  0.33961119865E+03  0.90083932391E+02 0.  0.
          5    1    4    4  502    0 -0.52470114004E+02  0.39480314735E+02 -0.31525527088E+02  0.72991485623E+02  0.47000000000E+01 0. -1.
         -5    1    4    4    0  502 -0.13840159640E+03  0.26037824736E+02 -0.22634268526E+03  0.26661971303E+03  0.47000000000E+01 0.  1.
          5    1    3    3  503    0  0.62656281798E+02 -0.45212301448E+02 -0.99519251974E+02  0.12607986899E+03  0.47000000000E+01 0. -1.
         -5    1    3    3    0  503  0.12821542861E+03 -0.20305838023E+02 -0.51051368875E+02  0.13957025276E+03  0.47000000000E+01 0.  1.
<mgrwt>
<rscale>  0 0.22046023E+03</rscale>
<asrwt>0</asrwt>
<pdfrwt beam="1">  1        2 0.77976934E-01 0.22099717E+03</pdfrwt>
<pdfrwt beam="2">  1       -2 0.15140191E-01 0.22099717E+03</pdfrwt>
<totfact> 0.20535589E+03</totfact>
</mgrwt>
</event>
<event>
 8    1  0.2964543E-004  0.9463031E+02  0.7546771E-02  0.1294120E+00
          2   -1    0    0  501    0  0.00000000000E+00  0.00000000000E+00  0.41690843280E+03  0.41690843280E+03  0.00000000000E+00 0. -1.
         -2   -1    0    0    0  501 -0.00000000000E+00 -0.00000000000E+00 -0.23550458261E+02  0.23550458261E+02  0.00000000000E+00 0.  1.
         23    2    1    2    0    0 -0.50451013113E+01  0.40176432063E+01  0.12291740383E+03  0.15512441238E+03  0.94410278296E+02 0.  0.
         23    2    1    2    0    0  0.50451013113E+01 -0.40176432063E+01  0.27044057071E+03  0.28533447868E+03  0.90752784719E+02 0.  0.
          5    1    3    3  502    0 -0.15460254867E+02  0.35316993167E+02  0.11428563044E+03  0.12070461803E+03  0.47000000000E+01 0. -1.
         -5    1    4    4    0  503  0.85692850521E+01 -0.44036278231E+02  0.93263813733E+02  0.10359949517E+03  0.47000000000E+01 0.  1.
          5    1    4    4  503    0 -0.35241837408E+01  0.40018635025E+02  0.17717675698E+03  0.18173498352E+03  0.47000000000E+01 0. -1.
         -5    1    3    3    0  502  0.10415153555E+02 -0.31299349961E+02  0.86317733840E+01  0.34419794353E+02  0.47000000000E+01 0.  1.
<mgrwt>
<rscale>  0 0.93704652E+02</rscale>
<asrwt>0</asrwt>
<pdfrwt beam="1">  1        2 0.64139754E-01 0.94630308E+02</pdfrwt>
<pdfrwt beam="2">  1       -2 0.36231477E-02 0.94630308E+02</pdfrwt>
<totfact> 0.21998604E+04</totfact>
</mgrwt>
</event>
<event>
 8    1  0.2964543E-004  0.1053701E+03  0.7546771E-02  0.1273178E+00
         -1   -1    0    0    0  501 -0.00000000000E+00  0.00000000000E+00  0.23984188062E+03  0.23984188062E+03  0.00000000000E+00 0.  1.
          1   -1    0    0  501    0  0.00000000000E+00 -0.00000000000E+00 -0.55196323202E+02  0.55196323202E+02  0.00000000000E+00 0. -1.
         23    2    1    2    0    0 -0.15355870685E+02 -0.33291844399E+02  0.15874717872E+03  0.18653205618E+03  0.90826161224E+02 0.  0.
         23    2    1    2    0    0  0.15355870685E+02  0.33291844399E+02  0.25898378702E+02  0.10850614765E+03  0.98786175095E+02 0.  0.
          5    1    3    3  502    0 -0.39887870279E+02  0.15202024834E+02  0.61113421636E+02  0.74693266488E+02  0.47000000000E+01 0. -1.
         -5    1    3    3    0  502  0.24531999595E+02 -0.48493869233E+02  0.97633757082E+02  0.11183878969E+03  0.47000000000E+01 0.  1.
          5    1    4    4  503    0  0.38192627703E+02  0.56231950379E+02  0.23065403122E+01  0.68177116267E+02  0.47000000000E+01 0. -1.
         -5    1    4    4    0  503 -0.22836757018E+02 -0.22940105980E+02  0.23591838390E+02  0.40329031381E+02  0.47000000000E+01 0.  1.
<mgrwt>
<rscale>  0 0.10346308E+03</rscale>
<asrwt>0</asrwt>
<pdfrwt beam="1">  1        1 0.84917422E-02 0.10537010E+03</pdfrwt>
<pdfrwt beam="2">  1       -1 0.36898750E-01 0.10537010E+03</pdfrwt>
<totfact> 0.53395942E+03</totfact>
</mgrwt>
</event>
<event>
 8    1  0.2964543E-004  0.1184386E+03  0.7546771E-02  0.1247089E+00
          4   -1    0    0  501    0  0.00000000000E+00  0.00000000000E+00  0.51707540654E+03  0.51707540654E+03  0.00000000000E+00 0. -1.
         -4   -1    0    0    0  501 -0.00000000000E+00 -0.00000000000E+00 -0.26392754461E+02  0.26392754461E+02  0.00000000000E+00 0.  1.
         23    2    1    2    0    0  0.69815356730E+02 -0.30044101768E+02  0.25341853175E+03  0.27972959315E+03  0.90834249942E+02 0.  0.
         23    2    1    2    0    0 -0.69815356730E+02  0.30044101768E+02  0.23726412033E+03  0.26373856785E+03  0.86527089928E+02 0.  0.
          5    1    3    3  502    0 -0.13767921826E+02 -0.31237209825E+02  0.82475110744E+02  0.89384298629E+02  0.47000000000E+01 0. -1.
         -5    1    3    3    0  502  0.83583278555E+02  0.11931080565E+01  0.17094342101E+03  0.19034529452E+03  0.47000000000E+01 0.  1.
          5    1    4    4  503    0 -0.42895137610E+02 -0.26845016660E+02  0.86952546915E+02  0.10071486070E+03  0.47000000000E+01 0. -1.
         -5    1    4    4    0  503 -0.26920219119E+02  0.56889118428E+02  0.15031157341E+03  0.16302370716E+03  0.47000000000E+01 0.  1.
<mgrwt>
<rscale>  0 0.11761243E+03</rscale>
<asrwt>0</asrwt>
<pdfrwt beam="1">  1        4 0.79550055E-01 0.11843856E+03</pdfrwt>
<pdfrwt beam="2">  1       -4 0.40604241E-02 0.11843856E+03</pdfrwt>
<totfact> 0.77319361E+02</totfact>
</mgrwt>
</event>
<event>
 8    1  0.2964543E-004  0.1095363E+03  0.7546771E-02  0.1265895E+00
          1   -1    0    0  501    0  0.00000000000E+00  0.00000000000E+00  0.11855490566E+04  0.11855490566E+04  0.00000000000E+00 0. -1.
         -1   -1    0    0    0  501 -0.00000000000E+00 -0.00000000000E+00 -0.10955905079E+02  0.10955905079E+02  0.00000000000E+00 0.  1.
         23    2    1    2    0    0  0.21524692369E+02  0.57856924545E+02  0.33267708416E+03  0.34749326065E+03  0.79163045466E+02 0.  0.
         23    2    1    2    0    0 -0.21524692369E+02 -0.57856924545E+02  0.84191606738E+03  0.84901170106E+03  0.90484628073E+02 0.  0.
          5    1    4    4  502    0 -0.41860622153E+02 -0.67389983401E+02  0.75301657275E+03  0.75719863338E+03  0.47000000000E+01 0. -1.
         -5    1    3    3    0  503  0.44733354480E+02  0.48779697119E+02  0.16389866161E+03  0.17682022829E+03  0.47000000000E+01 0.  1.
          5    1    3    3  503    0 -0.23208662112E+02  0.90772274260E+01  0.16877842255E+03  0.17067303236E+03  0.47000000000E+01 0. -1.
         -5    1    4    4    0  502  0.20335929785E+02  0.95330588552E+01  0.88899494628E+02  0.91813067679E+02  0.47000000000E+01 0.  1.
<mgrwt>
<rscale>  0 0.10717360E+03</rscale>
<asrwt>0</asrwt>
<pdfrwt beam="1">  1        1 0.18239206E+00 0.10953631E+03</pdfrwt>
<pdfrwt beam="2">  1       -1 0.16855248E-02 0.10953631E+03</pdfrwt>
<totfact> 0.98724827E+03</totfact>
</mgrwt>
</event>
<event>
 8    1  0.2964543E-004  0.1017342E+03  0.7546771E-02  0.1277386E+00
         -1   -1    0    0    0  501 -0.00000000000E+00  0.00000000000E+00  0.85640172546E+01  0.85640172546E+01  0.00000000000E+00 0.  1.
          1   -1    0    0  501    0  0.00000000000E+00 -0.00000000000E+00 -0.12294769077E+04  0.12294769077E+04  0.00000000000E+00 0. -1.
         23    2    1    2    0    0  0.16941808535E+02  0.41866397760E+02 -0.71369938524E+03  0.72072536660E+03  0.89657244118E+02 0.  0.
         23    2    1    2    0    0 -0.16941808535E+02 -0.41866397760E+02 -0.50721350516E+03  0.51731555832E+03  0.91159349055E+02 0.  0.
          5    1    3    3  502    0  0.23296063786E+02  0.68532597224E+02 -0.52501678152E+03  0.53000390032E+03  0.47000000000E+01 0. -1.
         -5    1    4    4    0  503 -0.44046022412E+02 -0.51402423238E+02 -0.41799128390E+03  0.42346317977E+03  0.47000000000E+01 0.  1.
          5    1    4    4  503    0  0.27104213878E+02  0.95360254785E+01 -0.89222221264E+02  0.93852378549E+02  0.47000000000E+01 0. -1.
         -5    1    3    3    0  502 -0.63542552515E+01 -0.26666199464E+02 -0.18868260372E+03  0.19072146628E+03  0.47000000000E+01 0.  1.
<mgrwt>
<rscale>  0 0.10139658E+03</rscale>
<asrwt>0</asrwt>
<pdfrwt beam="1">  1        1 0.18915008E+00 0.10173420E+03</pdfrwt>
<pdfrwt beam="2">  1       -1 0.13175426E-02 0.10173420E+03</pdfrwt>
<totfact> 0.13036109E+04</totfact>
</mgrwt>
</event>
<event>
 8    1  0.2964543E-004  0.1440458E+03  0.7546771E-02  0.1207991E+00
         -1   -1    0    0    0  501 -0.00000000000E+00  0.00000000000E+00  0.31275270031E+03  0.31275270031E+03  0.00000000000E+00 0.  1.
          1   -1    0    0  501    0  0.00000000000E+00 -0.00000000000E+00 -0.79678938653E+02  0.79678938653E+02  0.00000000000E+00 0. -1.
         23    2    1    2    0    0 -0.73453491013E+02 -0.83817521508E+02  0.19683096144E+03  0.24390905024E+03  0.91260096166E+02 0.  0.
         23    2    1    2    0    0  0.73453491013E+02  0.83817521508E+02  0.36242800217E+02  0.14852258873E+03  0.91239391386E+02 0.  0.
          5    1    3    3  502    0 -0.54115273975E+02 -0.42296524288E+02  0.38203197207E+02  0.78733938813E+02  0.47000000000E+01 0. -1.
         -5    1    4    4    0  503  0.23402408316E+02  0.63775126955E+02  0.58724044200E+02  0.89919646909E+02  0.47000000000E+01 0.  1.
          5    1    4    4  503    0  0.50051082697E+02  0.20042394554E+02 -0.22481243983E+02  0.58602941817E+02  0.47000000000E+01 0. -1.
         -5    1    3    3    0  502 -0.19338217038E+02 -0.41520997220E+02  0.15862776423E+03  0.16517511142E+03  0.47000000000E+01 0.  1.
<mgrwt>
<rscale>  0 0.14404254E+03</rscale>
<asrwt>0</asrwt>
<pdfrwt beam="1">  1        1 0.12258298E-01 0.14404582E+03</pdfrwt>
<pdfrwt beam="2">  1       -1 0.48115800E-01 0.14404582E+03</pdfrwt>
<totfact> 0.20961892E+03</totfact>
</mgrwt>
</event>
<event>
 8    1  0.2964543E-004  0.1062056E+03  0.7546771E-02  0.1269766E+00
          3   -1    0    0  501    0  0.00000000000E+00  0.00000000000E+00  0.72538904388E+02  0.72538904388E+02  0.00000000000E+00 0. -1.
         -3   -1    0    0    0  501 -0.00000000000E+00 -0.00000000000E+00 -0.21943710545E+03  0.21943710545E+03  0.00000000000E+00 0.  1.
         23    2    1    2    0    0 -0.25427508487E+02  0.44939903794E+02 -0.15480494048E+03  0.18547645758E+03  0.88152104775E+02 0.  0.
         23    2    1    2    0    0  0.25427508487E+02 -0.44939903794E+02  0.79067394247E+01  0.10649955226E+03  0.92808862518E+02 0.  0.
          5    1    3    3  502    0 -0.46088766199E+02  0.19694364951E+02 -0.35232780540E+02  0.61444944504E+02  0.47000000000E+01 0. -1.
         -5    1    3    3    0  502  0.20661257711E+02  0.25245538843E+02 -0.11957215994E+03  0.12403151307E+03  0.47000000000E+01 0.  1.
          5    1    4    4  503    0  0.77278826527E+00 -0.22702065704E+02  0.48551038188E+02  0.53807753141E+02  0.47000000000E+01 0. -1.
         -5    1    4    4    0  503  0.24654720222E+02 -0.22237838090E+02 -0.40644298764E+02  0.52691799116E+02  0.47000000000E+01 0.  1.
<mgrwt>
<rscale>  0 0.10517981E+03</rscale>
<asrwt>0</asrwt>
<pdfrwt beam="1">  1        3 0.11159831E-01 0.10620564E+03</pdfrwt>
<pdfrwt beam="2">  1       -3 0.33759555E-01 0.10620564E+03</pdfrwt>
<totfact> 0.11659221E+03</totfact>
</mgrwt>
</event>
<event>
 8    1  0.2964543E-004  0.1009724E+03  0.7546771E-02  0.1286523E+00
          1   -1    0    0  501    0  0.00000000000E+00  0.00000000000E+00  0.25326802658E+03  0.25326802658E+03  0.00000000000E+00 0. -1.
         -1   -1    0    0    0  501 -0.00000000000E+00 -0.00000000000E+00 -0.86072029929E+02  0.86072029929E+02  0.00000000000E+00 0.  1.
         23    2    1    2    0    0 -0.40127206826E+02  0.11782766979E+02 -0.44779175542E+02  0.11045633725E+03  0.91904306493E+02 0.  0.
         23    2    1    2    0    0  0.40127206826E+02 -0.11782766979E+02  0.21197517219E+03  0.22888371926E+03  0.75533151586E+02 0.  0.
          5    1    3    3  502    0 -0.24881779639E+01  0.25722348292E+02  0.20746329455E+02  0.33471337247E+02  0.47000000000E+01 0. -1.
         -5    1    3    3    0  502 -0.37639028862E+02 -0.13939581313E+02 -0.65525504997E+02  0.76985000007E+02  0.47000000000E+01 0.  1.
          5    1    4    4  503    0  0.32623561838E+02  0.28860981800E+02  0.12542991837E+03  0.13286085759E+03  0.47000000000E+01 0. -1.
         -5    1    4    4    0  503  0.75036449880E+01 -0.40643748779E+02  0.86545253827E+02  0.96022861668E+02  0.47000000000E+01 0.  1.
<mgrwt>
<rscale>  0 0.97096323E+02</rscale>
<asrwt>0</asrwt>
<pdfrwt beam="1">  1        1 0.38964311E-01 0.10097241E+03</pdfrwt>
<pdfrwt beam="2">  1       -1 0.13241851E-01 0.10097241E+03</pdfrwt>
<totfact> 0.40278241E+03</totfact>
</mgrwt>
</event>
<event>
 8    1  0.2964543E-004  0.1219246E+03  0.7546771E-02  0.1240015E+00
          1   -1    0    0  501    0  0.00000000000E+00  0.00000000000E+00  0.42624743836E+03  0.42624743836E+03  0.00000000000E+00 0. -1.
         -1   -1    0    0    0  501 -0.00000000000E+00 -0.00000000000E+00 -0.35069036820E+02  0.35069036820E+02  0.00000000000E+00 0.  1.
         23    2    1    2    0    0 -0.42182384052E+01 -0.81215975128E+02  0.17655078073E+03  0.21447519727E+03  0.90639968646E+02 0.  0.
         23    2    1    2    0    0  0.42182384052E+01  0.81215975128E+02  0.21462762081E+03  0.24684127792E+03  0.90839268575E+02 0.  0.
          5    1    3    3  502    0 -0.20865992336E+02  0.11526229690E+02  0.58593029982E+02  0.63430881828E+02  0.47000000000E+01 0. -1.
         -5    1    3    3    0  502  0.16647753931E+02 -0.92742204818E+02  0.11795775074E+03  0.15104431544E+03  0.47000000000E+01 0.  1.
          5    1    4    4  503    0 -0.40053357420E+02  0.60542782253E+02  0.12337340724E+03  0.14322285969E+03  0.47000000000E+01 0. -1.
         -5    1    4    4    0  503  0.44271595826E+02  0.20673192875E+02  0.91254213576E+02  0.10361841823E+03  0.47000000000E+01 0.  1.
<mgrwt>
<rscale>  0 0.12188745E+03</rscale>
<asrwt>0</asrwt>
<pdfrwt beam="1">  1        1 0.65576525E-01 0.12192457E+03</pdfrwt>
<pdfrwt beam="2">  1       -1 0.53952367E-02 0.12192457E+03</pdfrwt>
<totfact> 0.82807588E+03</totfact>
</mgrwt>
</event>
<event>
 8    1  0.2964543E-004  0.1562418E+03  0.7546771E-02  0.1193281E+00
          1   -1    0    0  501    0  0.00000000000E+00  0.00000000000E+00  0.37158206227E+03  0.37158206227E+03  0.00000000000E+00 0. -1.
         -1   -1    0    0    0  501 -0.00000000000E+00 -0.00000000000E+00 -0.17902887531E+03  0.17902887531E+03  0.00000000000E+00 0.  1.
         23    2    1    2    0    0 -0.31915377518E+02  0.12077485907E+03 -0.12325410640E+03  0.19826771712E+03  0.92267843797E+02 0.  0.
         23    2    1    2    0    0  0.31915377518E+02 -0.12077485907E+03  0.31580729336E+03  0.35234322046E+03  0.93842104403E+02 0.  0.
          5    1    3    3  502    0 -0.51930003589E+02  0.34572905394E+02 -0.29202981341E+02  0.69042850313E+02  0.47000000000E+01 0. -1.
         -5    1    4    4    0  503 -0.23089491521E+02 -0.17831623043E+01  0.32921275796E+02  0.40524124747E+02  0.47000000000E+01 0.  1.
          5    1    4    4  503    0  0.55004869039E+02 -0.11899169677E+03  0.28288601757E+03  0.31181909572E+03  0.47000000000E+01 0. -1.
         -5    1    3    3    0  502  0.20014626071E+02  0.86201953678E+02 -0.94051125062E+02  0.12922486680E+03  0.47000000000E+01 0.  1.
<mgrwt>
<rscale>  0 0.15600615E+03</rscale>
<asrwt>0</asrwt>
<pdfrwt beam="1">  1        1 0.57166471E-01 0.15624179E+03</pdfrwt>
<pdfrwt beam="2">  1       -1 0.27542904E-01 0.15624179E+03</pdfrwt>
<totfact> 0.78872834E+02</totfact>
</mgrwt>
</event>
<event>
 8    1  0.2964543E-004  0.2366928E+03  0.7546771E-02  0.1122172E+00
         -1   -1    0    0    0  501 -0.00000000000E+00  0.00000000000E+00  0.53335456822E+02  0.53335456822E+02  0.00000000000E+00 0.  1.
          1   -1    0    0  501    0  0.00000000000E+00 -0.00000000000E+00 -0.11665852133E+04  0.11665852133E+04  0.00000000000E+00 0. -1.
         23    2    1    2    0    0 -0.20284231184E+03  0.80236443399E+02 -0.75343110181E+03  0.78973532718E+03  0.91872582983E+02 0.  0.
         23    2    1    2    0    0  0.20284231184E+03 -0.80236443399E+02 -0.35981865472E+03  0.43018534299E+03  0.89482259245E+02 0.  0.
          5    1    3    3  502    0 -0.18294546539E+03  0.93145375301E+02 -0.71838791485E+03  0.74716021739E+03  0.47000000000E+01 0. -1.
         -5    1    3    3    0  502 -0.19896846451E+02 -0.12908931902E+02 -0.35043186954E+02  0.42575109788E+02  0.47000000000E+01 0.  1.
          5    1    4    4  503    0  0.45475129075E+02 -0.44147152040E+02 -0.50275354850E+02  0.81034928907E+02  0.47000000000E+01 0. -1.
         -5    1    4    4    0  503  0.15736718276E+03 -0.36089291358E+02 -0.30954329987E+03  0.34915041408E+03  0.47000000000E+01 0.  1.
<mgrwt>
<rscale>  0 0.23646305E+03</rscale>
<asrwt>0</asrwt>
<pdfrwt beam="1">  1        1 0.17947466E+00 0.23669276E+03</pdfrwt>
<pdfrwt beam="2">  1       -1 0.82054543E-02 0.23669276E+03</pdfrwt>
<totfact> 0.10038431E+03</totfact>
</mgrwt>
</event>
<event>
 8    1  0.5486420E-004  0.1228711E+03  0.7546771E-02  0.1253304E+00
          1   -1    0    0  501    0  0.00000000000E+00  0.00000000000E+00  0.19335131832E+03  0.19335131832E+03  0.00000000000E+00 0. -1.
         -1   -1    0    0    0  501 -0.00000000000E+00 -0.00000000000E+00 -0.14601849657E+03  0.14601849657E+03  0.00000000000E+00 0.  1.
         23    2    1    2    0    0 -0.18366783221E+01 -0.40706714109E+01  0.15534545342E+03  0.19806441626E+03  0.12278989917E+03 0.  0.
         23    2    1    2    0    0  0.18366783221E+01  0.40706714109E+01 -0.10801263166E+03  0.14130539863E+03  0.90997490790E+02 0.  0.
          5    1    4    4  502    0  0.39346457946E+02 -0.17378512286E+02 -0.32269406700E+02  0.53977412414E+02  0.47000000000E+01 0. -1.
         -5    1    3    3    0  503 -0.59142818467E+02  0.92460912315E+01  0.10275450865E+03  0.11901236166E+03  0.47000000000E+01 0.  1.
          5    1    3    3  503    0  0.57306140145E+02 -0.13316762642E+02  0.52590944769E+02  0.79052054605E+02  0.47000000000E+01 0. -1.
         -5    1    4    4    0  502 -0.37509779624E+02  0.21449183697E+02 -0.75743224960E+02  0.87327986213E+02  0.47000000000E+01 0.  1.
<mgrwt>
<rscale>  0 0.11401847E+03</rscale>
<asrwt>0</asrwt>
<pdfrwt beam="1">  1        1 0.29746357E-01 0.12287108E+03</pdfrwt>
<pdfrwt beam="2">  1       -1 0.22464384E-01 0.12287108E+03</pdfrwt>
<totfact> 0.24648406E+03</totfact>
</mgrwt>
</event>
<event>
 8    1  0.2964543E-004  0.1239251E+03  0.7546771E-02  0.1236799E+00
         -1   -1    0    0    0  501 -0.00000000000E+00  0.00000000000E+00  0.47332295799E+03  0.47332295799E+03  0.00000000000E+00 0.  1.
          1   -1    0    0  501    0  0.00000000000E+00 -0.00000000000E+00 -0.35140786447E+02  0.35140786447E+02  0.00000000000E+00 0. -1.
         23    2    1    2    0    0  0.36529443043E+02  0.71282137177E+02  0.14842639182E+03  0.19335931710E+03  0.94561558943E+02 0.  0.
         23    2    1    2    0    0 -0.36529443043E+02 -0.71282137177E+02  0.28975577972E+03  0.31510442734E+03  0.94429047211E+02 0.  0.
          5    1    4    4  502    0 -0.63432617049E+02 -0.62029457442E+02  0.25447782301E+03  0.26954109687E+03  0.47000000000E+01 0. -1.
         -5    1    3    3    0  503  0.48021374621E+02  0.19641516814E+02  0.12478535842E+03  0.13522321280E+03  0.47000000000E+01 0.  1.
          5    1    3    3  503    0 -0.11491931579E+02  0.51640620363E+02  0.23641033401E+02  0.58136104300E+02  0.47000000000E+01 0. -1.
         -5    1    4    4    0  502  0.26903174007E+02 -0.92526797351E+01  0.35277956706E+02  0.45563330467E+02  0.47000000000E+01 0.  1.
<mgrwt>
<rscale>  0 0.12389983E+03</rscale>
<asrwt>0</asrwt>
<pdfrwt beam="1">  1        1 0.54062752E-02 0.12392511E+03</pdfrwt>
<pdfrwt beam="2">  1       -1 0.72818912E-01 0.12392511E+03</pdfrwt>
<totfact> 0.28371533E+03</totfact>
</mgrwt>
</event>
<event>
 8    1  0.2964543E-004  0.1035672E+03  0.7546771E-02  0.1273334E+00
          4   -1    0    0  501    0  0.00000000000E+00  0.00000000000E+00  0.42843367591E+03  0.42843367591E+03  0.00000000000E+00 0. -1.
         -4   -1    0    0    0  501 -0.00000000000E+00 -0.00000000000E+00 -0.32658468072E+02  0.32658468072E+02  0.00000000000E+00 0.  1.
         23    2    1    2    0    0 -0.77804065223E+01 -0.47673540494E+02  0.31107232487E+03  0.32785997207E+03  0.91612601719E+02 0.  0.
         23    2    1    2    0    0  0.77804065223E+01  0.47673540494E+02  0.84702882965E+02  0.13323217191E+03  0.90790594566E+02 0.  0.
          5    1    3    3  502    0  0.29595510691E+02  0.12161273719E+02  0.82945012919E+02  0.89026715090E+02  0.47000000000E+01 0.  1.
         -5    1    4    4    0  503  0.16128197052E+02 -0.16699395822E+02 -0.31534228473E+01  0.23896079943E+02  0.47000000000E+01 0.  1.
          5    1    4    4  503    0 -0.83477905293E+01  0.64372936317E+02  0.87856305812E+02  0.10933609197E+03  0.47000000000E+01 0. -1.
         -5    1    3    3    0  502 -0.37375917214E+02 -0.59834814213E+02  0.22812731196E+03  0.23883325698E+03  0.47000000000E+01 0. -1.
<mgrwt>
<rscale>  0 0.10338514E+03</rscale>
<asrwt>0</asrwt>
<pdfrwt beam="1">  1        4 0.65912869E-01 0.10356722E+03</pdfrwt>
<pdfrwt beam="2">  1       -4 0.50243800E-02 0.10356722E+03</pdfrwt>
<totfact> 0.80281547E+02</totfact>
</mgrwt>
</event>
<event>
 8    1  0.2964543E-004  0.1133670E+03  0.7546771E-02  0.1254748E+00
         -3   -1    0    0    0  501 -0.00000000000E+00  0.00000000000E+00  0.74739158846E+03  0.74739158846E+03  0.00000000000E+00 0.  1.
          3   -1    0    0  501    0  0.00000000000E+00 -0.00000000000E+00 -0.17140765102E+02  0.17140765102E+02  0.00000000000E+00 0. -1.
         23    2    1    2    0    0 -0.54411528962E+02 -0.43048481197E+02  0.34495623322E+03  0.36290567160E+03  0.88836577085E+02 0.  0.
         23    2    1    2    0    0  0.54411528962E+02  0.43048481197E+02  0.38529459014E+03  0.40162668196E+03  0.89656479143E+02 0.  0.
          5    1    3    3  502    0 -0.45743922053E+01  0.23344253961E+02  0.39628556519E+02  0.46458494905E+02  0.47000000000E+01 0. -1.
         -5    1    3    3    0  502 -0.49837136757E+02 -0.66392735157E+02  0.30532767670E+03  0.31644717670E+03  0.47000000000E+01 0.  1.
          5    1    4    4  503    0  0.60687117316E+02 -0.72806214598E+01  0.23822864291E+03  0.24598965417E+03  0.47000000000E+01 0. -1.
         -5    1    4    4    0  503 -0.62755883542E+01  0.50329102656E+02  0.14706594723E+03  0.15563702778E+03  0.47000000000E+01 0.  1.
<mgrwt>
<rscale>  0 0.11320480E+03</rscale>
<asrwt>0</asrwt>
<pdfrwt beam="1">  1        3 0.26370414E-02 0.11336697E+03</pdfrwt>
<pdfrwt beam="2">  1       -3 0.11498330E+00 0.11336697E+03</pdfrwt>
<totfact> 0.91407630E+02</totfact>
</mgrwt>
</event>
<event>
 8    1  0.2964543E-004  0.9180995E+02  0.7546771E-02  0.1298703E+00
         -1   -1    0    0    0  501 -0.00000000000E+00  0.00000000000E+00  0.75909506715E+02  0.75909506715E+02  0.00000000000E+00 0.  1.
          1   -1    0    0  501    0  0.00000000000E+00 -0.00000000000E+00 -0.11131139815E+03  0.11131139815E+03  0.00000000000E+00 0. -1.
         23    2    1    2    0    0  0.83998511909E+00  0.19837082956E+01 -0.24778086004E+02  0.95094797778E+02  0.91784673801E+02 0.  0.
         23    2    1    2    0    0 -0.83998511909E+00 -0.19837082956E+01 -0.10623805429E+02  0.92126107084E+02  0.91486139339E+02 0.  0.
          5    1    4    4  502    0  0.20842711880E+02  0.26588030394E+02 -0.34711892621E+02  0.48665670530E+02  0.47000000000E+01 0. -1.
         -5    1    4    4    0  502 -0.21682696999E+02 -0.28571738690E+02  0.24088087193E+02  0.43460436555E+02  0.47000000000E+01 0.  1.
          5    1    3    3  503    0  0.16636064678E+02 -0.33280751784E+02  0.14112860676E+02  0.40070312249E+02  0.47000000000E+01 0. -1.
         -5    1    3    3    0  503 -0.15796079559E+02  0.35264460079E+02 -0.38890946680E+02  0.55024485529E+02  0.47000000000E+01 0.  1.
<mgrwt>
<rscale>  0 0.91735246E+02</rscale>
<asrwt>0</asrwt>
<pdfrwt beam="1">  1        1 0.17124830E-01 0.91809951E+02</pdfrwt>
<pdfrwt beam="2">  1       -1 0.11678386E-01 0.91809951E+02</pdfrwt>
<totfact> 0.13450322E+04</totfact>
</mgrwt>
</event>
<event>
 8    1  0.2964543E-004  0.1246640E+03  0.7546771E-02  0.1236710E+00
         -1   -1    0    0    0  501 -0.00000000000E+00  0.00000000000E+00  0.50742056515E+02  0.50742056515E+02  0.00000000000E+00 0.  1.
          1   -1    0    0  501    0  0.00000000000E+00 -0.00000000000E+00 -0.34239585191E+03  0.34239585191E+03  0.00000000000E+00 0. -1.
         23    2    1    2    0    0  0.58781577360E+01 -0.79952128124E+02 -0.21401214095E+03  0.24627286433E+03  0.91772717639E+02 0.  0.
         23    2    1    2    0    0 -0.58781577360E+01  0.79952128124E+02 -0.77641654442E+02  0.14686504409E+03  0.95468419599E+02 0.  0.
          5    1    3    3  502    0  0.22282553528E+02 -0.32205410205E+02 -0.18218765211E+03  0.18640850629E+03  0.47000000000E+01 0. -1.
         -5    1    4    4    0  503 -0.48753358713E+02  0.57181368546E+02 -0.40010015835E+02  0.85261305770E+02  0.47000000000E+01 0.  1.
          5    1    4    4  503    0  0.42875200977E+02  0.22770759578E+02 -0.37631638607E+02  0.61603738318E+02  0.47000000000E+01 0. -1.
         -5    1    3    3    0  502 -0.16404395792E+02 -0.47746717919E+02 -0.31824488842E+02  0.59864358039E+02  0.47000000000E+01 0.  1.
<mgrwt>
<rscale>  0 0.12395625E+03</rscale>
<asrwt>0</asrwt>
<pdfrwt beam="1">  1        1 0.52676285E-01 0.12466401E+03</pdfrwt>
<pdfrwt beam="2">  1       -1 0.78064702E-02 0.12466401E+03</pdfrwt>
<totfact> 0.62897003E+03</totfact>
</mgrwt>
</event>
<event>
 8    1  0.2964543E-004  0.8679515E+02  0.7546771E-02  0.1312356E+00
         -2   -1    0    0    0  501 -0.00000000000E+00  0.00000000000E+00  0.51573792556E+02  0.51573792556E+02  0.00000000000E+00 0.  1.
          2   -1    0    0  501    0  0.00000000000E+00 -0.00000000000E+00 -0.14276791032E+03  0.14276791032E+03  0.00000000000E+00 0. -1.
         23    2    1    2    0    0  0.42601497409E+01 -0.10440804476E+02 -0.53116025454E+02  0.10175809463E+03  0.86059504933E+02 0.  0.
         23    2    1    2    0    0 -0.42601497409E+01  0.10440804476E+02 -0.38078092305E+02  0.92583608239E+02  0.83633869497E+02 0.  0.
          5    1    4    4  502    0  0.32700005651E+02  0.13125009177E+02  0.46259392123E+01  0.35847531980E+02  0.47000000000E+01 0. -1.
         -5    1    3    3    0  503 -0.34972328161E+01 -0.46344933620E+02 -0.42700799767E+02  0.63289270894E+02  0.47000000000E+01 0.  1.
          5    1    3    3  503    0  0.77573825570E+01  0.35904129144E+02 -0.10415225687E+02  0.38468823738E+02  0.47000000000E+01 0. -1.
         -5    1    4    4    0  502 -0.36960155391E+02 -0.26842047016E+01 -0.42704031518E+02  0.56736076259E+02  0.47000000000E+01 0.  1.
<mgrwt>
<rscale>  0 0.86187678E+02</rscale>
<asrwt>0</asrwt>
<pdfrwt beam="1">  1        2 0.21964294E-01 0.86795148E+02</pdfrwt>
<pdfrwt beam="2">  1       -2 0.79344296E-02 0.86795148E+02</pdfrwt>
<totfact> 0.21101789E+04</totfact>
</mgrwt>
</event>
<event>
 8    1  0.2964543E-004  0.1139639E+03  0.7546771E-02  0.1254170E+00
         -1   -1    0    0    0  501 -0.00000000000E+00  0.00000000000E+00  0.52525431716E+02  0.52525431716E+02  0.00000000000E+00 0.  1.
          1   -1    0    0  501    0  0.00000000000E+00 -0.00000000000E+00 -0.24663067268E+03  0.24663067268E+03  0.00000000000E+00 0. -1.
         23    2    1    2    0    0 -0.59641894120E+02  0.33764470650E+02 -0.81019493216E+02  0.13982818826E+03  0.91052561402E+02 0.  0.
         23    2    1    2    0    0  0.59641894120E+02 -0.33764470650E+02 -0.11308574775E+03  0.15932791614E+03  0.88880838795E+02 0.  0.
          5    1    3    3  502    0 -0.51326748117E+02 -0.13966451864E+02 -0.73074657525E+02  0.90506863952E+02  0.47000000000E+01 0. -1.
         -5    1    4    4    0  503  0.17298418638E+02  0.29826678603E+02 -0.26364429450E+02  0.43658208668E+02  0.47000000000E+01 0.  1.
          5    1    4    4  503    0  0.42343475482E+02 -0.63591149253E+02 -0.86721318298E+02  0.11566970747E+03  0.47000000000E+01 0. -1.
         -5    1    3    3    0  502 -0.83151460037E+01  0.47730922514E+02 -0.79448356909E+01  0.49321324306E+02  0.47000000000E+01 0.  1.
<mgrwt>
<rscale>  0 0.11352951E+03</rscale>
<asrwt>0</asrwt>
<pdfrwt beam="1">  1        1 0.37943180E-01 0.11396387E+03</pdfrwt>
<pdfrwt beam="2">  1       -1 0.80808356E-02 0.11396387E+03</pdfrwt>
<totfact> 0.88916477E+03</totfact>
</mgrwt>
</event>
<event>
 8    1  0.2964543E-004  0.1003992E+03  0.7546771E-02  0.1285940E+00
          1   -1    0    0  501    0  0.00000000000E+00  0.00000000000E+00  0.14794227848E+03  0.14794227848E+03  0.00000000000E+00 0. -1.
         -1   -1    0    0    0  501 -0.00000000000E+00 -0.00000000000E+00 -0.11625696430E+03  0.11625696430E+03  0.00000000000E+00 0.  1.
         23    2    1    2    0    0  0.24737839280E+02 -0.72451319426E+01 -0.76066475540E+02  0.11692250004E+03  0.84972405440E+02 0.  0.
         23    2    1    2    0    0 -0.24737839280E+02  0.72451319426E+01  0.10775178972E+03  0.14727674273E+03  0.97033695866E+02 0.  0.
          5    1    3    3  502    0 -0.31606184418E+02 -0.20942391256E+01 -0.27376121090E+02  0.42129309713E+02  0.47000000000E+01 0. -1.
         -5    1    3    3    0  502  0.56344023698E+02 -0.51508928170E+01 -0.48690354451E+02  0.74793190330E+02  0.47000000000E+01 0.  1.
          5    1    4    4  503    0 -0.30666617724E+02 -0.18028356014E+02  0.11454562989E+03  0.12003438836E+03  0.47000000000E+01 0. -1.
         -5    1    4    4    0  503  0.59287784446E+01  0.25273487956E+02 -0.67938401705E+01  0.27242354369E+02  0.47000000000E+01 0.  1.
<mgrwt>
<rscale>  0 0.97363488E+02</rscale>
<asrwt>0</asrwt>
<pdfrwt beam="1">  1        1 0.22760351E-01 0.10039916E+03</pdfrwt>
<pdfrwt beam="2">  1       -1 0.17885687E-01 0.10039916E+03</pdfrwt>
<totfact> 0.48944136E+03</totfact>
</mgrwt>
</event>
<event>
 8    1  0.2964543E-004  0.1060276E+03  0.7546771E-02  0.1274972E+00
          2   -1    0    0  501    0  0.00000000000E+00  0.00000000000E+00  0.34109493282E+03  0.34109493282E+03  0.00000000000E+00 0. -1.
         -2   -1    0    0    0  501 -0.00000000000E+00 -0.00000000000E+00 -0.29889419146E+02  0.29889419146E+02  0.00000000000E+00 0.  1.
         23    2    1    2    0    0  0.19820262572E+02  0.70685068376E+01  0.17759868181E+03  0.20041870626E+03  0.90463028027E+02 0.  0.
         23    2    1    2    0    0 -0.19820262572E+02 -0.70685068376E+01  0.13360683185E+03  0.17056564570E+03  0.10391846505E+03 0.  0.
          5    1    4    4  502    0  0.30994402155E+02 -0.14306703471E+02  0.10730116864E+03  0.11269856042E+03  0.47000000000E+01 0. -1.
         -5    1    3    3    0  503 -0.24895720832E+02 -0.26265319662E+02  0.61018742329E+02  0.71098810455E+02  0.47000000000E+01 0.  1.
          5    1    3    3  503    0  0.44715983404E+02  0.33333826499E+02  0.11657993949E+03  0.12931989581E+03  0.47000000000E+01 0. -1.
         -5    1    4    4    0  502 -0.50814664727E+02  0.72381966336E+01  0.26305663214E+02  0.57867085281E+02  0.47000000000E+01 0.  1.
<mgrwt>
<rscale>  0 0.10257528E+03</rscale>
<asrwt>0</asrwt>
<pdfrwt beam="1">  1        2 0.52476141E-01 0.10602761E+03</pdfrwt>
<pdfrwt beam="2">  1       -2 0.45983724E-02 0.10602761E+03</pdfrwt>
<totfact> 0.19340877E+04</totfact>
</mgrwt>
</event>
<event>
 8    1  0.2964543E-004  0.1073424E+03  0.7546771E-02  0.1266542E+00
          1   -1    0    0  501    0  0.00000000000E+00  0.00000000000E+00  0.26804137309E+03  0.26804137309E+03  0.00000000000E+00 0. -1.
         -1   -1    0    0    0  501 -0.00000000000E+00 -0.00000000000E+00 -0.10899492517E+03  0.10899492517E+03  0.00000000000E+00 0.  1.
         23    2    1    2    0    0 -0.54808628397E+02  0.16775096860E+01 -0.68356677365E+02  0.12557145427E+03  0.89937506087E+02 0.  0.
         23    2    1    2    0    0  0.54808628397E+02 -0.16775096860E+01  0.22740312529E+03  0.25146484399E+03  0.92279935993E+02 0.  0.
          5    1    3    3  502    0  0.19844185098E+02  0.11969770976E+02  0.10923440583E+00  0.23646755202E+02  0.47000000000E+01 0. -1.
         -5    1    4    4    0  503 -0.25961384128E+02  0.33093573985E-01  0.53212525377E+02  0.59394085716E+02  0.47000000000E+01 0.  1.
          5    1    4    4  503    0  0.80770012525E+02 -0.17106032600E+01  0.17419059991E+03  0.19207075827E+03  0.47000000000E+01 0. -1.
         -5    1    3    3    0  502 -0.74652813495E+02 -0.10292261290E+02 -0.68465911770E+02  0.10192469907E+03  0.47000000000E+01 0.  1.
<mgrwt>
<rscale>  0 0.10683709E+03</rscale>
<asrwt>0</asrwt>
<pdfrwt beam="1">  1        1 0.41237134E-01 0.10734238E+03</pdfrwt>
<pdfrwt beam="2">  1       -1 0.16768450E-01 0.10734238E+03</pdfrwt>
<totfact> 0.26111917E+03</totfact>
</mgrwt>
</event>
<event>
 8    1  0.2964543E-004  0.9301666E+02  0.7546771E-02  0.1296251E+00
          2   -1    0    0  501    0  0.00000000000E+00  0.00000000000E+00  0.23309857513E+02  0.23309857513E+02  0.00000000000E+00 0. -1.
         -2   -1    0    0    0  501 -0.00000000000E+00 -0.00000000000E+00 -0.47333485230E+03  0.47333485230E+03  0.00000000000E+00 0.  1.
         23    2    1    2    0    0 -0.10201746568E+02 -0.10023044111E+02 -0.10845095697E+03  0.14287655331E+03  0.91910621645E+02 0.  0.
         23    2    1    2    0    0  0.10201746568E+02  0.10023044111E+02 -0.34157403781E+03  0.35376815650E+03  0.90964543646E+02 0.  0.
          5    1    4    4  502    0 -0.14616686516E+02  0.27358813597E+02 -0.40945898284E+02  0.51583028143E+02  0.47000000000E+01 0. -1.
         -5    1    3    3    0  503 -0.47151282211E+02 -0.15275969954E+02 -0.36658942356E+02  0.61826909407E+02  0.47000000000E+01 0.  1.
          5    1    3    3  503    0  0.36949535643E+02  0.52529258426E+01 -0.71792014616E+02  0.81049643903E+02  0.47000000000E+01 0. -1.
         -5    1    4    4    0  502  0.24818433084E+02 -0.17335769486E+02 -0.30062813953E+03  0.30218512836E+03  0.47000000000E+01 0.  1.
<mgrwt>
<rscale>  0 0.92782098E+02</rscale>
<asrwt>0</asrwt>
<pdfrwt beam="1">  1        2 0.35861319E-02 0.93016662E+02</pdfrwt>
<pdfrwt beam="2">  1       -2 0.72820747E-01 0.93016662E+02</pdfrwt>
<totfact> 0.39577066E+03</totfact>
</mgrwt>
</event>
<event>
 8    1  0.2964543E-004  0.9317586E+02  0.7546771E-02  0.1296881E+00
          1   -1    0    0  501    0  0.00000000000E+00  0.00000000000E+00  0.58267044439E+03  0.58267044439E+03  0.00000000000E+00 0. -1.
         -1   -1    0    0    0  501 -0.00000000000E+00 -0.00000000000E+00 -0.14870939491E+02  0.14870939491E+02  0.00000000000E+00 0.  1.
         23    2    1    2    0    0 -0.85885946087E+01  0.48492869142E+00  0.33614577025E+03  0.34882046944E+03  0.92777917248E+02 0.  0.
         23    2    1    2    0    0  0.85885946087E+01 -0.48492869142E+00  0.23165373464E+03  0.24872091444E+03  0.90136792664E+02 0.  0.
          5    1    4    4  502    0  0.46554389112E+02  0.13218123791E+02  0.10507516949E+03  0.11577958018E+03  0.47000000000E+01 0. -1.
         -5    1    4    4    0  502 -0.37965794503E+02 -0.13703052482E+02  0.12657856515E+03  0.13294133426E+03  0.47000000000E+01 0.  1.
          5    1    3    3  503    0  0.15933402239E+02 -0.26782425725E+02  0.27889025471E+03  0.28066534486E+03  0.47000000000E+01 0. -1.
         -5    1    3    3    0  503 -0.24521996848E+02  0.27267354416E+02  0.57255515546E+02  0.68155124581E+02  0.47000000000E+01 0.  1.
<mgrwt>
<rscale>  0 0.92511408E+02</rscale>
<asrwt>0</asrwt>
<pdfrwt beam="1">  1        1 0.89641589E-01 0.93175861E+02</pdfrwt>
<pdfrwt beam="2">  1       -1 0.22878373E-02 0.93175861E+02</pdfrwt>
<totfact> 0.18812569E+04</totfact>
</mgrwt>
</event>
<event>
 8    1  0.2964543E-004  0.1089606E+03  0.7546771E-02  0.1262906E+00
         -1   -1    0    0    0  501 -0.00000000000E+00  0.00000000000E+00  0.21551916677E+03  0.21551916677E+03  0.00000000000E+00 0.  1.
          1   -1    0    0  501    0  0.00000000000E+00 -0.00000000000E+00 -0.54824037965E+02  0.54824037965E+02  0.00000000000E+00 0. -1.
         23    2    1    2    0    0  0.57218850887E+02 -0.71295051843E+01  0.87434127350E+02  0.13904362001E+03  0.91452582792E+02 0.  0.
         23    2    1    2    0    0 -0.57218850887E+02  0.71295051843E+01  0.73261001456E+02  0.13129958473E+03  0.92453122573E+02 0.  0.
          5    1    4    4  502    0 -0.54003936562E+02 -0.35667137006E+02  0.52109404986E+02  0.83222892970E+02  0.47000000000E+01 0. -1.
         -5    1    3    3    0  503  0.33582830329E+02  0.27579466072E+02  0.86341337566E+02  0.96774738514E+02  0.47000000000E+01 0.  1.
          5    1    3    3  503    0  0.23636020558E+02 -0.34708971257E+02  0.10927897840E+01  0.42268881497E+02  0.47000000000E+01 0. -1.
         -5    1    4    4    0  502 -0.32149143255E+01  0.42796642190E+02  0.21151596470E+02  0.48076691755E+02  0.47000000000E+01 0.  1.
<mgrwt>
<rscale>  0 0.10874804E+03</rscale>
<asrwt>0</asrwt>
<pdfrwt beam="1">  1        1 0.84344675E-02 0.10896057E+03</pdfrwt>
<pdfrwt beam="2">  1       -1 0.33156794E-01 0.10896057E+03</pdfrwt>
<totfact> 0.64826939E+03</totfact>
</mgrwt>
</event>
<event>
 8    1  0.2964543E-004  0.9760241E+02  0.7546771E-02  0.1289592E+00
         -2   -1    0    0    0  501 -0.00000000000E+00  0.00000000000E+00  0.24112572754E+02  0.24112572754E+02  0.00000000000E+00 0.  1.
          2   -1    0    0  501    0  0.00000000000E+00 -0.00000000000E+00 -0.37418822082E+03  0.37418822082E+03  0.00000000000E+00 0. -1.
         23    2    1    2    0    0 -0.17488339815E+02  0.34117849786E+02 -0.21148884913E+03  0.23292437401E+03  0.89757233675E+02 0.  0.
         23    2    1    2    0    0  0.17488339815E+02 -0.34117849786E+02 -0.13858679893E+03  0.16537641956E+03  0.81689593006E+02 0.  0.
          5    1    3    3  502    0 -0.50091598028E+02  0.69852158612E+01 -0.80755175736E+02  0.95401519075E+02  0.47000000000E+01 0. -1.
         -5    1    3    3    0  502  0.32603258213E+02  0.27132633925E+02 -0.13073367339E+03  0.13752285493E+03  0.47000000000E+01 0.  1.
          5    1    4    4  503    0  0.59312846549E+01 -0.50908246881E+02 -0.13456949147E+03  0.14407590976E+03  0.47000000000E+01 0. -1.
         -5    1    4    4    0  503  0.11557055160E+02  0.16790397096E+02 -0.40173074604E+01  0.21300509802E+02  0.47000000000E+01 0.  1.
<mgrwt>
<rscale>  0 0.95707035E+02</rscale>
<asrwt>0</asrwt>
<pdfrwt beam="1">  1        2 0.57567419E-01 0.97602411E+02</pdfrwt>
<pdfrwt beam="2">  1       -2 0.37096266E-02 0.97602411E+02</pdfrwt>
<totfact> 0.23891921E+04</totfact>
</mgrwt>
</event>
<event>
 8    1  0.2964543E-004  0.1211309E+03  0.7546771E-02  0.1248816E+00
          1   -1    0    0  501    0  0.00000000000E+00  0.00000000000E+00  0.11308183740E+04  0.11308183740E+04  0.00000000000E+00 0. -1.
         -1   -1    0    0    0  501 -0.00000000000E+00 -0.00000000000E+00 -0.11419080859E+02  0.11419080859E+02  0.00000000000E+00 0.  1.
         23    2    1    2    0    0  0.44574952400E+02 -0.23182412133E+02  0.43985532977E+03  0.45198192217E+03  0.91052711278E+02 0.  0.
         23    2    1    2    0    0 -0.44574952400E+02  0.23182412133E+02  0.67954396338E+03  0.69025553269E+03  0.11021956103E+03 0.  0.
          5    1    4    4  502    0  0.32016007115E+02 -0.70592778557E+00  0.98541305525E+02  0.10372078837E+03  0.47000000000E+01 0. -1.
         -5    1    3    3    0  503 -0.13550284409E+02 -0.38385925952E+02  0.12946287440E+03  0.13579328174E+03  0.47000000000E+01 0.  1.
          5    1    3    3  503    0  0.58125236809E+02  0.15203513819E+02  0.31039245537E+03  0.31618864043E+03  0.47000000000E+01 0. -1.
         -5    1    4    4    0  502 -0.76590959515E+02  0.23888339918E+02  0.58100265785E+03  0.58653474432E+03  0.47000000000E+01 0.  1.
<mgrwt>
<rscale>  0 0.11659887E+03</rscale>
<asrwt>0</asrwt>
<pdfrwt beam="1">  1        1 0.17397197E+00 0.12113093E+03</pdfrwt>
<pdfrwt beam="2">  1       -1 0.17567826E-02 0.12113093E+03</pdfrwt>
<totfact> 0.10205999E+04</totfact>
</mgrwt>
</event>
<event>
 8    1  0.2964543E-004  0.9202945E+02  0.7546771E-02  0.1301464E+00
          4   -1    0    0  501    0  0.00000000000E+00  0.00000000000E+00  0.12972528799E+02  0.12972528799E+02  0.00000000000E+00 0.  1.
         -4   -1    0    0    0  501 -0.00000000000E+00 -0.00000000000E+00 -0.61747867297E+03  0.61747867297E+03  0.00000000000E+00 0. -1.
         23    2    1    2    0    0  0.82605703238E+00 -0.25029663081E+01 -0.26648859386E+03  0.28012951491E+03  0.86310064623E+02 0.  0.
         23    2    1    2    0    0 -0.82605703238E+00  0.25029663081E+01 -0.33801755031E+03  0.35032168686E+03  0.91991699382E+02 0.  0.
          5    1    4    4  502    0 -0.74206270420E+01  0.45808477141E+02 -0.20335341936E+03  0.20863409465E+03  0.47000000000E+01 0. -1.
         -5    1    3    3    0  503  0.24195379291E+02 -0.30970057378E+02 -0.20088887077E+03  0.20475104208E+03  0.47000000000E+01 0.  1.
          5    1    3    3  503    0 -0.23369322259E+02  0.28467091070E+02 -0.65599723092E+02  0.75378472832E+02  0.47000000000E+01 0. -1.
         -5    1    4    4    0  502  0.65945700096E+01 -0.43305510833E+02 -0.13466413095E+03  0.14168759221E+03  0.47000000000E+01 0.  1.
<mgrwt>
<rscale>  0 0.90575573E+02</rscale>
<asrwt>0</asrwt>
<pdfrwt beam="1">  1        4 0.19957737E-02 0.92029452E+02</pdfrwt>
<pdfrwt beam="2">  1       -4 0.94996717E-01 0.92029452E+02</pdfrwt>
<totfact> 0.14804399E+03</totfact>
</mgrwt>
</event>
<event>
 8    1  0.2964543E-004  0.9683220E+02  0.7546771E-02  0.1287335E+00
          1   -1    0    0  501    0  0.00000000000E+00  0.00000000000E+00  0.90078968403E+03  0.90078968403E+03  0.00000000000E+00 0. -1.
         -1   -1    0    0    0  501 -0.00000000000E+00 -0.00000000000E+00 -0.10520193076E+02  0.10520193076E+02  0.00000000000E+00 0.  1.
         23    2    1    2    0    0 -0.18145203192E+02  0.25532143957E+02  0.50165549240E+03  0.51091555896E+03  0.91626069187E+02 0.  0.
         23    2    1    2    0    0  0.18145203192E+02 -0.25532143957E+02  0.38861399855E+03  0.40039431815E+03  0.91179116914E+02 0.  0.
          5    1    3    3  502    0 -0.24799643966E+02 -0.28657341525E+02  0.27972901309E+03  0.28232370841E+03  0.47000000000E+01 0. -1.
         -5    1    3    3    0  502  0.66544407740E+01  0.54189485482E+02  0.22192647931E+03  0.22859185055E+03  0.47000000000E+01 0.  1.
          5    1    4    4  503    0  0.31973239584E+02 -0.40856092275E+02  0.36492752464E+03  0.36862677136E+03  0.47000000000E+01 0. -1.
         -5    1    4    4    0  503 -0.13828036392E+02  0.15323948317E+02  0.23686473918E+02  0.31767546791E+02  0.47000000000E+01 0.  1.
<mgrwt>
<rscale>  0 0.96726325E+02</rscale>
<asrwt>0</asrwt>
<pdfrwt beam="1">  1        1 0.13858297E+00 0.96832202E+02</pdfrwt>
<pdfrwt beam="2">  1       -1 0.16184919E-02 0.96832202E+02</pdfrwt>
<totfact> 0.16559752E+04</totfact>
</mgrwt>
</event>
<event>
 8    1  0.2964543E-004  0.1735094E+03  0.7546771E-02  0.1175006E+00
          1   -1    0    0  501    0  0.00000000000E+00  0.00000000000E+00  0.90375688378E+03  0.90375688378E+03  0.00000000000E+00 0. -1.
         -1   -1    0    0    0  501 -0.00000000000E+00 -0.00000000000E+00 -0.13233019982E+03  0.13233019982E+03  0.00000000000E+00 0.  1.
         23    2    1    2    0    0 -0.31029447671E+02  0.14150069798E+03  0.83429423810E+03  0.85153941388E+03  0.89928991534E+02 0.  0.
         23    2    1    2    0    0  0.31029447671E+02 -0.14150069798E+03 -0.62867554145E+02  0.18454766972E+03  0.95499941798E+02 0.  0.
          5    1    3    3  502    0 -0.70181276685E+01  0.14480576509E+03  0.68175029507E+03  0.69701041495E+03  0.47000000000E+01 0. -1.
         -5    1    3    3    0  502 -0.24011320002E+02 -0.33050671050E+01  0.15254394303E+03  0.15452899893E+03  0.47000000000E+01 0.  1.
          5    1    4    4  503    0  0.43698375737E+02 -0.92070993122E+02 -0.80919270920E+02  0.13021764175E+03  0.47000000000E+01 0.  1.
         -5    1    4    4    0  503 -0.12668928066E+02 -0.49429704860E+02  0.18051716776E+02  0.54330027972E+02  0.47000000000E+01 0. -1.
<mgrwt>
<rscale>  0 0.17275378E+03</rscale>
<asrwt>0</asrwt>
<pdfrwt beam="1">  1        1 0.13903952E+00 0.17350940E+03</pdfrwt>
<pdfrwt beam="2">  1       -1 0.20358493E-01 0.17350940E+03</pdfrwt>
<totfact> 0.37859069E+02</totfact>
</mgrwt>
</event>
<event>
 8    1  0.2964543E-004  0.1005589E+03  0.7546771E-02  0.1282927E+00
          1   -1    0    0  501    0  0.00000000000E+00  0.00000000000E+00  0.25465499162E+03  0.25465499162E+03  0.00000000000E+00 0. -1.
         -1   -1    0    0    0  501 -0.00000000000E+00 -0.00000000000E+00 -0.17180495652E+03  0.17180495652E+03  0.00000000000E+00 0.  1.
         23    2    1    2    0    0  0.74930135490E+01 -0.24252626269E+02 -0.14775626922E+03  0.17488219558E+03  0.90041835298E+02 0.  0.
         23    2    1    2    0    0 -0.74930135490E+01  0.24252626269E+02  0.23060630432E+03  0.25157775256E+03  0.97302429861E+02 0.  0.
          5    1    4    4  502    0 -0.26375413412E+02  0.48093841327E+01  0.22065172066E+03  0.22232423268E+03  0.47000000000E+01 0. -1.
         -5    1    4    4    0  502  0.18882399863E+02  0.19443242136E+02  0.99545836659E+01  0.29253519879E+02  0.47000000000E+01 0.  1.
          5    1    3    3  503    0 -0.78954394885E-01  0.26465431837E+02 -0.10365490922E+03  0.10708340451E+03  0.47000000000E+01 0. -1.
         -5    1    3    3    0  503  0.75719679439E+01 -0.50718058106E+02 -0.44101360000E+02  0.67798791069E+02  0.47000000000E+01 0.  1.
<mgrwt>
<rscale>  0 0.98759314E+02</rscale>
<asrwt>0</asrwt>
<pdfrwt beam="1">  1        1 0.39177691E-01 0.10055893E+03</pdfrwt>
<pdfrwt beam="2">  1       -1 0.26431532E-01 0.10055893E+03</pdfrwt>
<totfact> 0.13369678E+03</totfact>
</mgrwt>
</event>
<event>
 8    1  0.2964543E-004  0.1049150E+03  0.7546771E-02  0.1274259E+00
          3   -1    0    0  501    0  0.00000000000E+00  0.00000000000E+00  0.15407745141E+03  0.15407745141E+03  0.00000000000E+00 0. -1.
         -3   -1    0    0    0  501 -0.00000000000E+00 -0.00000000000E+00 -0.17166134364E+03  0.17166134364E+03  0.00000000000E+00 0.  1.
         23    2    1    2    0    0  0.47386021605E+02  0.20632741580E+02  0.11891648605E+03  0.15357748567E+03  0.82302906266E+02 0.  0.
         23    2    1    2    0    0 -0.47386021605E+02 -0.20632741580E+02 -0.13650037829E+03  0.17216130938E+03  0.91301796844E+02 0.  0.
          5    1    3    3  502    0  0.25014456149E+02 -0.16922749778E+02  0.10198092711E+03  0.10646267877E+03  0.47000000000E+01 0. -1.
         -5    1    3    3    0  502  0.22371565456E+02  0.37555491358E+02  0.16935558940E+02  0.47114806895E+02  0.47000000000E+01 0.  1.
          5    1    4    4  503    0  0.14914456534E+01 -0.47972743851E+02 -0.54814061812E+02  0.73008766152E+02  0.47000000000E+01 0. -1.
         -5    1    4    4    0  503 -0.48877467259E+02  0.27340002270E+02 -0.81686316478E+02  0.99152543233E+02  0.47000000000E+01 0.  1.
<mgrwt>
<rscale>  0 0.10292669E+03</rscale>
<asrwt>0</asrwt>
<pdfrwt beam="1">  1        3 0.23704223E-01 0.10491503E+03</pdfrwt>
<pdfrwt beam="2">  1       -3 0.26409438E-01 0.10491503E+03</pdfrwt>
<totfact> 0.50161393E+02</totfact>
</mgrwt>
</event>
<event>
 8    1  0.2964543E-004  0.1758930E+03  0.7546771E-02  0.1171904E+00
          2   -1    0    0  501    0  0.00000000000E+00  0.00000000000E+00  0.60013103561E+03  0.60013103561E+03  0.00000000000E+00 0. -1.
         -2   -1    0    0    0  501 -0.00000000000E+00 -0.00000000000E+00 -0.51599908941E+02  0.51599908941E+02  0.00000000000E+00 0.  1.
         23    2    1    2    0    0 -0.59358129724E+01 -0.14972361523E+03  0.29049726863E+03  0.33959832881E+03  0.92119308609E+02 0.  0.
         23    2    1    2    0    0  0.59358129724E+01  0.14972361523E+03  0.25803385804E+03  0.31213261574E+03  0.91612788852E+02 0.  0.
          5    1    4    4  502    0 -0.62367407890E+01  0.10884109654E+03  0.24348544181E+03  0.26681928641E+03  0.47000000000E+01 0. -1.
         -5    1    4    4    0  502  0.12172553761E+02  0.40882518691E+02  0.14548416232E+02  0.45313329325E+02  0.47000000000E+01 0.  1.
          5    1    3    3  503    0 -0.36743687617E+02 -0.22031091495E+02  0.91037745755E+02  0.10072451898E+03  0.47000000000E+01 0. -1.
         -5    1    3    3    0  503  0.30807874644E+02 -0.12769252373E+03  0.19945952288E+03  0.23887380983E+03  0.47000000000E+01 0.  1.
<mgrwt>
<rscale>  0 0.17582682E+03</rscale>
<asrwt>0</asrwt>
<pdfrwt beam="1">  1        2 0.92327846E-01 0.17589304E+03</pdfrwt>
<pdfrwt beam="2">  1       -2 0.79384480E-02 0.17589304E+03</pdfrwt>
<totfact> 0.47279310E+03</totfact>
</mgrwt>
</event>
<event>
 8    1  0.2964543E-004  0.9516578E+02  0.7546771E-02  0.1292310E+00
          1   -1    0    0  501    0  0.00000000000E+00  0.00000000000E+00  0.55302822640E+03  0.55302822640E+03  0.00000000000E+00 0. -1.
         -1   -1    0    0    0  501 -0.00000000000E+00 -0.00000000000E+00 -0.18295441608E+02  0.18295441608E+02  0.00000000000E+00 0.  1.
         23    2    1    2    0    0 -0.13518676615E+02  0.27991926588E+02  0.16126945267E+03  0.18592596953E+03  0.87145437121E+02 0.  0.
         23    2    1    2    0    0  0.13518676615E+02 -0.27991926588E+02  0.37346333212E+03  0.38539769848E+03  0.89945666811E+02 0.  0.
          5    1    3    3  502    0 -0.30904185006E+01 -0.21225563349E+02  0.11607624909E+03  0.11813492637E+03  0.47000000000E+01 0. -1.
         -5    1    3    3    0  502 -0.10428258115E+02  0.49217489938E+02  0.45193203576E+02  0.67791043159E+02  0.47000000000E+01 0.  1.
          5    1    4    4  503    0 -0.35640126311E+02 -0.24817008321E+02  0.21479181510E+03  0.21918876874E+03  0.47000000000E+01 0. -1.
         -5    1    4    4    0  503  0.49158802926E+02 -0.31749182673E+01  0.15867151702E+03  0.16620892974E+03  0.47000000000E+01 0.  1.
<mgrwt>
<rscale>  0 0.94498262E+02</rscale>
<asrwt>0</asrwt>
<pdfrwt beam="1">  1        1 0.85081253E-01 0.95165779E+02</pdfrwt>
<pdfrwt beam="2">  1       -1 0.28146837E-02 0.95165779E+02</pdfrwt>
<totfact> 0.14999038E+04</totfact>
</mgrwt>
</event>
<event>
 8    1  0.2964543E-004  0.1093477E+03  0.7546771E-02  0.1261917E+00
          2   -1    0    0  501    0  0.00000000000E+00  0.00000000000E+00  0.72486575977E+03  0.72486575977E+03  0.00000000000E+00 0. -1.
         -2   -1    0    0    0  501 -0.00000000000E+00 -0.00000000000E+00 -0.62264048364E+02  0.62264048364E+02  0.00000000000E+00 0.  1.
         23    2    1    2    0    0  0.11475554494E+02 -0.58237503111E+02 -0.61722010016E+01  0.10952179833E+03  0.91834814335E+02 0.  0.
         23    2    1    2    0    0 -0.11475554494E+02  0.58237503111E+02  0.66877391241E+03  0.67760800981E+03  0.91491933623E+02 0.  0.
          5    1    4    4  502    0 -0.10363437648E+01  0.75467697028E+02  0.62046325688E+03  0.62505454998E+03  0.47000000000E+01 0. -1.
         -5    1    3    3    0  503  0.30936577169E+02 -0.74198754345E+02 -0.15990680352E+02  0.82099444647E+02  0.47000000000E+01 0.  1.
          5    1    3    3  503    0 -0.19461022676E+02  0.15961251234E+02  0.98184793507E+01  0.27422353679E+02  0.47000000000E+01 0. -1.
         -5    1    4    4    0  502 -0.10439210729E+02 -0.17230193917E+02  0.48310655525E+02  0.52553459832E+02  0.47000000000E+01 0.  1.
<mgrwt>
<rscale>  0 0.10927572E+03</rscale>
<asrwt>0</asrwt>
<pdfrwt beam="1">  1        2 0.11151780E+00 0.10934774E+03</pdfrwt>
<pdfrwt beam="2">  1       -2 0.95790849E-02 0.10934774E+03</pdfrwt>
<totfact> 0.27803804E+03</totfact>
</mgrwt>
</event>
<event>
 8    1  0.2964543E-004  0.1095706E+03  0.7546771E-02  0.1263782E+00
         -1   -1    0    0    0  501 -0.00000000000E+00  0.00000000000E+00  0.62196792709E+02  0.62196792709E+02  0.00000000000E+00 0.  1.
          1   -1    0    0  501    0  0.00000000000E+00 -0.00000000000E+00 -0.20156286285E+03  0.20156286285E+03  0.00000000000E+00 0. -1.
         23    2    1    2    0    0  0.43888360358E+01  0.50529456219E+02 -0.10685419675E+03  0.14946734178E+03  0.91379314213E+02 0.  0.
         23    2    1    2    0    0 -0.43888360358E+01 -0.50529456219E+02 -0.32511873383E+02  0.11429231378E+03  0.97124781856E+02 0.  0.
          5    1    3    3  502    0  0.44164193891E+01  0.74290614636E+02 -0.56388230879E+02  0.93489693362E+02  0.47000000000E+01 0. -1.
         -5    1    4    4    0  503  0.45470788883E+02 -0.26810377575E+02 -0.76028447236E+01  0.53537671179E+02  0.47000000000E+01 0.  1.
          5    1    4    4  503    0 -0.49859624919E+02 -0.23719078643E+02 -0.24909028659E+02  0.60754642600E+02  0.47000000000E+01 0. -1.
         -5    1    3    3    0  502 -0.27583353266E-01 -0.23761158418E+02 -0.50465965875E+02  0.55977648414E+02  0.47000000000E+01 0.  1.
<mgrwt>
<rscale>  0 0.10828332E+03</rscale>
<asrwt>0</asrwt>
<pdfrwt beam="1">  1        1 0.31009672E-01 0.10957058E+03</pdfrwt>
<pdfrwt beam="2">  1       -1 0.95687372E-02 0.10957058E+03</pdfrwt>
<totfact> 0.88083157E+03</totfact>
</mgrwt>
</event>
<event>
 8    1  0.2964543E-004  0.9600635E+02  0.7546771E-02  0.1289580E+00
         -1   -1    0    0    0  501 -0.00000000000E+00  0.00000000000E+00  0.41901289480E+02  0.41901289480E+02  0.00000000000E+00 0.  1.
          1   -1    0    0  501    0  0.00000000000E+00 -0.00000000000E+00 -0.35428805989E+03  0.35428805989E+03  0.00000000000E+00 0. -1.
         23    2    1    2    0    0  0.23992999357E+02  0.20272162396E+02 -0.27995995981E+03  0.29596418564E+03  0.90722629477E+02 0.  0.
         23    2    1    2    0    0 -0.23992999357E+02 -0.20272162396E+02 -0.32426810601E+02  0.10022516373E+03  0.89481622765E+02 0.  0.
          5    1    3    3  502    0  0.25942930817E+02 -0.29198000711E+02 -0.18082132071E+03  0.18505134133E+03  0.47000000000E+01 0. -1.
         -5    1    3    3    0  502 -0.19499314594E+01  0.49470163107E+02 -0.99138639103E+02  0.11091284431E+03  0.47000000000E+01 0.  1.
          5    1    4    4  503    0  0.25531157103E+02 -0.33177826894E+02 -0.22924166813E+02  0.47960563013E+02  0.47000000000E+01 0. -1.
         -5    1    4    4    0  503 -0.49524156460E+02  0.12905664498E+02 -0.95026437873E+01  0.52264600718E+02  0.47000000000E+01 0.  1.
<mgrwt>
<rscale>  0 0.95712044E+02</rscale>
<asrwt>0</asrwt>
<pdfrwt beam="1">  1        1 0.54505855E-01 0.96006354E+02</pdfrwt>
<pdfrwt beam="2">  1       -1 0.64463522E-02 0.96006354E+02</pdfrwt>
<totfact> 0.78756920E+03</totfact>
</mgrwt>
</event>
<event>
 7    1  0.2964543E-004  0.1850513E+03  0.7546771E-02  0.1179822E+00
         -1   -1    0    0    0  501 -0.00000000000E+00  0.00000000000E+00  0.39744612840E+02  0.39744612840E+02  0.00000000000E+00 0.  1.
          1   -1    0    0  501    0  0.00000000000E+00 -0.00000000000E+00 -0.12053965111E+04  0.12053965111E+04  0.00000000000E+00 0. -1.
         23    2    1    2    0    0 -0.62742103375E+02  0.62430599022E+02 -0.93040325253E+02  0.15668368959E+03  0.89772630740E+02 0.  0.
          5    1    1    2  502    0  0.11034887445E+03 -0.67247958592E+02 -0.90121627187E+03  0.91044605591E+03  0.47000000000E+01 0. -1.
         -5    1    1    2    0  502 -0.47606771075E+02  0.48173595703E+01 -0.17139530117E+03  0.17801137848E+03  0.47000000000E+01 0.  1.
          5    1    3    3  503    0 -0.31177648309E+02 -0.19727893117E+02 -0.35566969764E+02  0.51461974885E+02  0.47000000000E+01 0.  1.
         -5    1    3    3    0  503 -0.31564455066E+02  0.82158492138E+02 -0.57473355489E+02  0.10522171470E+03  0.47000000000E+01 0.  1.
<mgrwt>
<rscale>  0 0.16812057E+03</rscale>
<asrwt>0</asrwt>
<pdfrwt beam="1">  1        1 0.18544563E+00 0.18505134E+03</pdfrwt>
<pdfrwt beam="2">  1       -1 0.61145555E-02 0.18505134E+03</pdfrwt>
<totfact> 0.14754123E+03</totfact>
</mgrwt>
</event>
<event>
 8    1  0.2964543E-004  0.9915325E+02  0.7546771E-02  0.1282742E+00
          3   -1    0    0  501    0  0.00000000000E+00  0.00000000000E+00  0.30198165924E+03  0.30198165924E+03  0.00000000000E+00 0. -1.
         -3   -1    0    0    0  501 -0.00000000000E+00 -0.00000000000E+00 -0.34928661020E+02  0.34928661020E+02  0.00000000000E+00 0.  1.
         23    2    1    2    0    0  0.15360805378E+02 -0.34086934776E+02  0.85295157471E+02  0.12986617176E+03  0.90510138736E+02 0.  0.
         23    2    1    2    0    0 -0.15360805378E+02  0.34086934776E+02  0.18175784075E+03  0.20704414851E+03  0.91834053012E+02 0.  0.
          5    1    3    3  502    0  0.37399710215E+02  0.99662558123E+01  0.66198103970E+02  0.76826711164E+02  0.47000000000E+01 0. -1.
         -5    1    3    3    0  502 -0.22038904837E+02 -0.44053190588E+02  0.19097053501E+02  0.53039460591E+02  0.47000000000E+01 0.  1.
          5    1    4    4  503    0 -0.42850575244E+02 -0.10964301451E+02  0.10216906267E+03  0.11143157126E+03  0.47000000000E+01 0. -1.
         -5    1    4    4    0  503  0.27489769866E+02  0.45051236226E+02  0.79588778077E+02  0.95612577251E+02  0.47000000000E+01 0.  1.
<mgrwt>
<rscale>  0 0.98845591E+02</rscale>
<asrwt>0</asrwt>
<pdfrwt beam="1">  1        3 0.46458715E-01 0.99153249E+02</pdfrwt>
<pdfrwt beam="2">  1       -3 0.53736404E-02 0.99153249E+02</pdfrwt>
<totfact> 0.20340089E+03</totfact>
</mgrwt>
</event>
<event>
 8    1  0.2964543E-004  0.3007317E+03  0.7546771E-02  0.1085158E+00
          1   -1    0    0  501    0  0.00000000000E+00  0.00000000000E+00  0.29017662010E+03  0.29017662010E+03  0.00000000000E+00 0. -1.
         -1   -1    0    0    0  501 -0.00000000000E+00 -0.00000000000E+00 -0.61244891479E+03  0.61244891479E+03  0.00000000000E+00 0.  1.
         23    2    1    2    0    0 -0.41863193608E+02 -0.28360858645E+03  0.15605774594E+03  0.33881198851E+03  0.90847048387E+02 0.  0.
         23    2    1    2    0    0  0.41863193608E+02  0.28360858645E+03 -0.47833004064E+03  0.56381354638E+03  0.83064613486E+02 0.  0.
          5    1    3    3  502    0 -0.61539231722E+02 -0.26658902060E+03  0.14839262178E+03  0.31128643264E+03  0.47000000000E+01 0. -1.
         -5    1    4    4    0  503  0.60153982628E+02  0.22824689569E+03 -0.34314647392E+03  0.41651739410E+03  0.47000000000E+01 0.  1.
          5    1    4    4  503    0 -0.18290789020E+02  0.55361690755E+02 -0.13518356672E+03  0.14729615228E+03  0.47000000000E+01 0. -1.
         -5    1    3    3    0  502  0.19676038114E+02 -0.17019565849E+02  0.76651241690E+01  0.27525555872E+02  0.47000000000E+01 0.  1.
<mgrwt>
<rscale>  0 0.30016539E+03</rscale>
<asrwt>0</asrwt>
<pdfrwt beam="1">  1        1 0.44642557E-01 0.30073168E+03</pdfrwt>
<pdfrwt beam="2">  1       -1 0.94222909E-01 0.30073168E+03</pdfrwt>
<totfact> 0.10567229E+02</totfact>
</mgrwt>
</event>
<event>
 8    1  0.2964543E-004  0.9197547E+02  0.7546771E-02  0.1302444E+00
          1   -1    0    0  501    0  0.00000000000E+00  0.00000000000E+00  0.61685896414E+03  0.61685896414E+03  0.00000000000E+00 0. -1.
         -1   -1    0    0    0  501 -0.00000000000E+00 -0.00000000000E+00 -0.19134717873E+02  0.19134717873E+02  0.00000000000E+00 0.  1.
         23    2    1    2    0    0  0.77561897851E+01  0.12551513058E+02  0.47549330673E+03  0.48302345460E+03  0.83666444817E+02 0.  0.
         23    2    1    2    0    0 -0.77561897851E+01 -0.12551513058E+02  0.12223093954E+03  0.15297022742E+03  0.90784298945E+02 0.  0.
          5    1    4    4  502    0  0.23452726722E+02 -0.61501183215E+01  0.11792115212E+03  0.12047963506E+03  0.47000000000E+01 0. -1.
         -5    1    3    3    0  503 -0.13387895240E+02 -0.32069243236E+02  0.21684082107E+03  0.21965815209E+03  0.47000000000E+01 0.  1.
          5    1    3    3  503    0  0.21144085025E+02  0.44620756294E+02  0.25865248566E+03  0.26336530250E+03  0.47000000000E+01 0. -1.
         -5    1    4    4    0  502 -0.31208916507E+02 -0.64013947365E+01  0.43097874164E+01  0.32490592356E+02  0.47000000000E+01 0.  1.
<mgrwt>
<rscale>  0 0.90168414E+02</rscale>
<asrwt>0</asrwt>
<pdfrwt beam="1">  1        1 0.94901364E-01 0.91975474E+02</pdfrwt>
<pdfrwt beam="2">  1       -1 0.29438032E-02 0.91975474E+02</pdfrwt>
<totfact> 0.12121161E+04</totfact>
</mgrwt>
</event>
<event>
 8    1  0.2964543E-004  0.1743474E+03  0.7546771E-02  0.1173690E+00
         -1   -1    0    0    0  501 -0.00000000000E+00  0.00000000000E+00  0.15434555247E+03  0.15434555247E+03  0.00000000000E+00 0.  1.
          1   -1    0    0  501    0  0.00000000000E+00 -0.00000000000E+00 -0.72582832014E+03  0.72582832014E+03  0.00000000000E+00 0. -1.
         23    2    1    2    0    0 -0.12835483414E+03 -0.70301828677E+02 -0.66214770328E+03  0.68471642859E+03  0.94761258252E+02 0.  0.
         23    2    1    2    0    0  0.12835483414E+03  0.70301828677E+02  0.90664935618E+02  0.19545744401E+03  0.92553613155E+02 0.  0.
          5    1    4    4  502    0  0.28274526913E+02 -0.18290874927E+02  0.21600732976E+00  0.34002082832E+02  0.47000000000E+01 0. -1.
         -5    1    4    4    0  502  0.10008030723E+03  0.88592703604E+02  0.90448928289E+02  0.16145536118E+03  0.47000000000E+01 0.  1.
          5    1    3    3  503    0 -0.14449390815E+02 -0.53741112389E+02 -0.28284452995E+03  0.28830541129E+03  0.47000000000E+01 0. -1.
         -5    1    3    3    0  503 -0.11390544332E+03 -0.16560716288E+02 -0.37930317333E+03  0.39641101730E+03  0.47000000000E+01 0.  1.
<mgrwt>
<rscale>  0 0.17404911E+03</rscale>
<asrwt>0</asrwt>
<pdfrwt beam="1">  1        1 0.11166590E+00 0.17434737E+03</pdfrwt>
<pdfrwt beam="2">  1       -1 0.23745469E-01 0.17434737E+03</pdfrwt>
<totfact> 0.41205502E+02</totfact>
</mgrwt>
</event>
<event>
 8    1  0.2964543E-004  0.1148382E+03  0.7546771E-02  0.1253446E+00
         -2   -1    0    0    0  501 -0.00000000000E+00  0.00000000000E+00  0.57611358312E+02  0.57611358312E+02  0.00000000000E+00 0.  1.
          2   -1    0    0  501    0  0.00000000000E+00 -0.00000000000E+00 -0.44132624691E+03  0.44132624691E+03  0.00000000000E+00 0. -1.
         23    2    1    2    0    0  0.14884785042E+02  0.63587177889E+02 -0.14432785944E+02  0.11221148367E+03  0.90101197213E+02 0.  0.
         23    2    1    2    0    0 -0.14884785042E+02 -0.63587177889E+02 -0.36928210265E+03  0.38672612155E+03  0.94461292256E+02 0.  0.
          5    1    3    3  502    0 -0.32172914912E+02  0.53430760597E+02 -0.36411984116E+01  0.62652142483E+02  0.47000000000E+01 0. -1.
         -5    1    4    4    0  503  0.30222462725E+02 -0.12183692492E+02 -0.47957761942E+02  0.58171097174E+02  0.47000000000E+01 0.  1.
          5    1    4    4  503    0 -0.45107247767E+02 -0.51403485397E+02 -0.32132434071E+03  0.32855502438E+03  0.47000000000E+01 0. -1.
         -5    1    3    3    0  502  0.47057699954E+02  0.10156417292E+02 -0.10791587532E+02  0.49559341184E+02  0.47000000000E+01 0.  1.
<mgrwt>
<rscale>  0 0.11393801E+03</rscale>
<asrwt>0</asrwt>
<pdfrwt beam="1">  1        2 0.67896346E-01 0.11483824E+03</pdfrwt>
<pdfrwt beam="2">  1       -2 0.88632858E-02 0.11483824E+03</pdfrwt>
<totfact> 0.54807585E+03</totfact>
</mgrwt>
</event>
<event>
 8    1  0.2964543E-004  0.1020107E+03  0.7546771E-02  0.1279368E+00
         -1   -1    0    0    0  501 -0.00000000000E+00  0.00000000000E+00  0.14851132785E+02  0.14851132785E+02  0.00000000000E+00 0.  1.
          1   -1    0    0  501    0  0.00000000000E+00 -0.00000000000E+00 -0.67551429290E+03  0.67551429290E+03  0.00000000000E+00 0. -1.
         23    2    1    2    0    0 -0.10043251779E+02  0.23929626726E+02 -0.39388343382E+03  0.40687878345E+03  0.98654402047E+02 0.  0.
         23    2    1    2    0    0  0.10043251779E+02 -0.23929626726E+02 -0.26677972629E+03  0.28348664223E+03  0.92302546125E+02 0.  0.
          5    1    4    4  502    0  0.48472883289E+02 -0.15659808413E+02 -0.10318475070E+03  0.11516958275E+03  0.47000000000E+01 0. -1.
         -5    1    3    3    0  503  0.39948995687E+02 -0.11282747112E+01 -0.23395337525E+03  0.23738885199E+03  0.47000000000E+01 0.  1.
          5    1    3    3  503    0 -0.49992247466E+02  0.25057901437E+02 -0.15993005858E+03  0.16948993146E+03  0.47000000000E+01 0. -1.
         -5    1    4    4    0  502 -0.38429631510E+02 -0.82698183131E+01 -0.16359497560E+03  0.16831705949E+03  0.47000000000E+01 0.  1.
<mgrwt>
<rscale>  0 0.10044261E+03</rscale>
<asrwt>0</asrwt>
<pdfrwt beam="1">  1        1 0.10392526E+00 0.10201071E+03</pdfrwt>
<pdfrwt beam="2">  1       -1 0.22847900E-02 0.10201071E+03</pdfrwt>
<totfact> 0.15537711E+04</totfact>
</mgrwt>
</event>
<event>
 8    1  0.2964543E-004  0.1137613E+03  0.7546771E-02  0.1254470E+00
          1   -1    0    0  501    0  0.00000000000E+00  0.00000000000E+00  0.15856946135E+03  0.15856946135E+03  0.00000000000E+00 0. -1.
         -1   -1    0    0    0  501 -0.00000000000E+00 -0.00000000000E+00 -0.11974544529E+03  0.11974544529E+03  0.00000000000E+00 0.  1.
         23    2    1    2    0    0 -0.50742805014E+02 -0.42754016339E+02 -0.60368974626E+02  0.12738153314E+03  0.90437291604E+02 0.  0.
         23    2    1    2    0    0  0.50742805014E+02  0.42754016339E+02  0.99192990687E+02  0.15093337350E+03  0.92406145155E+02 0.  0.
          5    1    3    3  502    0 -0.62006626046E+02 -0.13144757961E+02 -0.54309770278E+01  0.63790217486E+02  0.47000000000E+01 0. -1.
         -5    1    3    3    0  502  0.11263821032E+02 -0.29609258378E+02 -0.54937997598E+02  0.63591315649E+02  0.47000000000E+01 0.  1.
          5    1    4    4  503    0  0.42707483123E+02  0.71502281671E+02  0.69635430241E+02  0.10866318854E+03  0.47000000000E+01 0. -1.
         -5    1    4    4    0  503  0.80353218911E+01 -0.28748265332E+02  0.29557560446E+02  0.42270184965E+02  0.47000000000E+01 0.  1.
<mgrwt>
<rscale>  0 0.11336085E+03</rscale>
<asrwt>0</asrwt>
<pdfrwt beam="1">  1        1 0.24395302E-01 0.11376130E+03</pdfrwt>
<pdfrwt beam="2">  1       -1 0.18422376E-01 0.11376130E+03</pdfrwt>
<totfact> 0.43183031E+03</totfact>
</mgrwt>
</event>
<event>
 8    1  0.2964543E-004  0.2143717E+03  0.7546771E-02  0.1138518E+00
          2   -1    0    0  501    0  0.00000000000E+00  0.00000000000E+00  0.73510453968E+03  0.73510453968E+03  0.00000000000E+00 0. -1.
         -2   -1    0    0    0  501 -0.00000000000E+00 -0.00000000000E+00 -0.18397379042E+03  0.18397379042E+03  0.00000000000E+00 0.  1.
         23    2    1    2    0    0  0.19079506756E+03  0.19824423617E+02 -0.99082584399E+02  0.23443783751E+03  0.91367256433E+02 0.  0.
         23    2    1    2    0    0 -0.19079506756E+03 -0.19824423617E+02  0.65021333367E+03  0.68464049259E+03  0.95705063837E+02 0.  0.
          5    1    3    3  502    0  0.23996939750E+02  0.34836771849E+02 -0.66063804671E+01  0.43071894004E+02  0.47000000000E+01 0. -1.
         -5    1    3    3    0  502  0.16679812781E+03 -0.15012348231E+02 -0.92476203932E+02  0.19136594350E+03  0.47000000000E+01 0.  1.
          5    1    4    4  503    0 -0.91900412776E+02  0.18704499566E+02  0.43007930373E+03  0.44021113306E+03  0.47000000000E+01 0. -1.
         -5    1    4    4    0  503 -0.98894654780E+02 -0.38528923183E+02  0.22013402994E+03  0.24442935953E+03  0.47000000000E+01 0.  1.
<mgrwt>
<rscale>  0 0.21389483E+03</rscale>
<asrwt>0</asrwt>
<pdfrwt beam="1">  1        2 0.11309300E+00 0.21437170E+03</pdfrwt>
<pdfrwt beam="2">  1       -2 0.28303661E-01 0.21437170E+03</pdfrwt>
<totfact> 0.45353965E+02</totfact>
</mgrwt>
</event>
<event>
 8    1  0.2964543E-004  0.1083963E+03  0.7546771E-02  0.1264732E+00
         -1   -1    0    0    0  501 -0.00000000000E+00  0.00000000000E+00  0.51421843955E+03  0.51421843955E+03  0.00000000000E+00 0.  1.
          1   -1    0    0  501    0  0.00000000000E+00 -0.00000000000E+00 -0.44852873311E+02  0.44852873311E+02  0.00000000000E+00 0. -1.
         23    2    1    2    0    0 -0.22735712794E+02 -0.50552403894E+02  0.43404706723E+03  0.44737747788E+03  0.93151988498E+02 0.  0.
         23    2    1    2    0    0  0.22735712794E+02  0.50552403894E+02  0.35318499002E+02  0.11169383498E+03  0.90308683002E+02 0.  0.
          5    1    4    4  502    0 -0.24908160033E+02  0.51879561737E+02  0.23670450641E+02  0.62404211363E+02  0.47000000000E+01 0. -1.
         -5    1    3    3    0  503 -0.55940832518E+02 -0.49313852310E+02  0.30890590998E+03  0.31781470072E+03  0.47000000000E+01 0.  1.
          5    1    3    3  503    0  0.33205119725E+02 -0.12385515843E+01  0.12514115725E+03  0.12956277715E+03  0.47000000000E+01 0. -1.
         -5    1    4    4    0  502  0.47643872827E+02 -0.13271578432E+01  0.11648048361E+02  0.49289623619E+02  0.47000000000E+01 0.  1.
<mgrwt>
<rscale>  0 0.10778271E+03</rscale>
<asrwt>0</asrwt>
<pdfrwt beam="1">  1        1 0.69004424E-02 0.10839627E+03</pdfrwt>
<pdfrwt beam="2">  1       -1 0.79110525E-01 0.10839627E+03</pdfrwt>
<totfact> 0.17159380E+03</totfact>
</mgrwt>
</event>
<event>
 8    1  0.2964543E-004  0.9850905E+02  0.7546771E-02  0.1284162E+00
          4   -1    0    0  501    0  0.00000000000E+00  0.00000000000E+00  0.13040470277E+03  0.13040470277E+03  0.00000000000E+00 0. -1.
         -4   -1    0    0    0  501 -0.00000000000E+00 -0.00000000000E+00 -0.79562301318E+02  0.79562301318E+02  0.00000000000E+00 0.  1.
         23    2    1    2    0    0 -0.11229864135E+02 -0.33649711335E+02 -0.38562863210E+01  0.97290571120E+02  0.90510614643E+02 0.  0.
         23    2    1    2    0    0  0.11229864135E+02  0.33649711335E+02  0.54698687775E+02  0.11267643297E+03  0.91900049953E+02 0.  0.
          5    1    3    3  502    0 -0.18881973066E+02 -0.12186320032E+02  0.40868501673E+02  0.46876003795E+02  0.47000000000E+01 0. -1.
         -5    1    3    3    0  502  0.76521089310E+01 -0.21463391303E+02 -0.44724787995E+02  0.50414567324E+02  0.47000000000E+01 0.  1.
          5    1    4    4  503    0 -0.17211189082E+02  0.57580031639E+02  0.40442797884E+02  0.72590598385E+02  0.47000000000E+01 0. -1.
         -5    1    4    4    0  503  0.28441053217E+02 -0.23930320303E+02  0.14255889891E+02  0.40085834587E+02  0.47000000000E+01 0.  1.
<mgrwt>
<rscale>  0 0.98183705E+02</rscale>
<asrwt>0</asrwt>
<pdfrwt beam="1">  1        4 0.20062262E-01 0.98509046E+02</pdfrwt>
<pdfrwt beam="2">  1       -4 0.12240354E-01 0.98509046E+02</pdfrwt>
<totfact> 0.18342257E+03</totfact>
</mgrwt>
</event>
<event>
 8    1  0.2964543E-004  0.1273873E+03  0.7546771E-02  0.1231638E+00
         -2   -1    0    0    0  501 -0.00000000000E+00  0.00000000000E+00  0.24745707604E+02  0.24745707604E+02  0.00000000000E+00 0.  1.
          2   -1    0    0  501    0  0.00000000000E+00 -0.00000000000E+00 -0.65748618674E+03  0.65748618674E+03  0.00000000000E+00 0. -1.
         23    2    1    2    0    0  0.96387167703E+01  0.87128293524E+02 -0.34731450045E+03  0.36993903921E+03  0.92429898378E+02 0.  0.
         23    2    1    2    0    0 -0.96387167703E+01 -0.87128293524E+02 -0.28542597869E+03  0.31229285513E+03  0.91512806021E+02 0.  0.
          5    1    4    4  502    0  0.14597346055E+02 -0.97832538651E+02 -0.20913045306E+03  0.23139128014E+03  0.47000000000E+01 0. -1.
         -5    1    4    4    0  502 -0.24236062825E+02  0.10704245127E+02 -0.76295525629E+02  0.80901574990E+02  0.47000000000E+01 0.  1.
          5    1    3    3  503    0 -0.14107378523E+02  0.52604491661E+02 -0.30621969823E+03  0.31106083691E+03  0.47000000000E+01 0. -1.
         -5    1    3    3    0  503  0.23746095294E+02  0.34523801863E+02 -0.41094802213E+02  0.58878202297E+02  0.47000000000E+01 0.  1.
<mgrwt>
<rscale>  0 0.12722104E+03</rscale>
<asrwt>0</asrwt>
<pdfrwt beam="1">  1        2 0.10115173E+00 0.12738732E+03</pdfrwt>
<pdfrwt beam="2">  1       -2 0.38070317E-02 0.12738732E+03</pdfrwt>
<totfact> 0.12708657E+04</totfact>
</mgrwt>
</event>
<event>
 8    1  0.2964543E-004  0.9361995E+02  0.7546771E-02  0.1294900E+00
          2   -1    0    0  501    0  0.00000000000E+00  0.00000000000E+00  0.85696719153E+03  0.85696719153E+03  0.00000000000E+00 0. -1.
         -2   -1    0    0    0  501 -0.00000000000E+00 -0.00000000000E+00 -0.11094595124E+02  0.11094595124E+02  0.00000000000E+00 0.  1.
         23    2    1    2    0    0  0.16093030420E+02  0.79467875721E+01  0.29621003679E+03  0.31065267064E+03  0.91883397928E+02 0.  0.
         23    2    1    2    0    0 -0.16093030420E+02 -0.79467875721E+01  0.54966255961E+03  0.55740911602E+03  0.90850735387E+02 0.  0.
          5    1    3    3  502    0  0.25156528075E+02  0.40497451307E+02  0.93149069842E+02  0.10474604374E+03  0.47000000000E+01 0. -1.
         -5    1    4    4    0  503  0.14631786626E+02 -0.36533596797E+02  0.13778035921E+03  0.14336774484E+03  0.47000000000E+01 0. -1.
          5    1    4    4  503    0 -0.30724817046E+02  0.28586809224E+02  0.41188220040E+03  0.41404137118E+03  0.47000000000E+01 0. -1.
         -5    1    3    3    0  502 -0.90634976547E+01 -0.32550663735E+02  0.20306096695E+03  0.20590662689E+03  0.47000000000E+01 0.  1.
<mgrwt>
<rscale>  0 0.93365596E+02</rscale>
<asrwt>0</asrwt>
<pdfrwt beam="1">  1        2 0.13184105E+00 0.93619954E+02</pdfrwt>
<pdfrwt beam="2">  1       -2 0.17068615E-02 0.93619954E+02</pdfrwt>
<totfact> 0.28886291E+04</totfact>
</mgrwt>
</event>
<event>
 8    1  0.2964543E-004  0.9410271E+02  0.7546771E-02  0.1294600E+00
         -1   -1    0    0    0  501 -0.00000000000E+00  0.00000000000E+00  0.34596250868E+02  0.34596250868E+02  0.00000000000E+00 0.  1.
          1   -1    0    0  501    0  0.00000000000E+00 -0.00000000000E+00 -0.30243962426E+03  0.30243962426E+03  0.00000000000E+00 0. -1.
         23    2    1    2    0    0  0.85427395520E+00 -0.66240220045E+01 -0.61970689638E+02  0.11067580303E+03  0.91455779206E+02 0.  0.
         23    2    1    2    0    0 -0.85427395520E+00  0.66240220045E+01 -0.20587268375E+03  0.22636007210E+03  0.93865397636E+02 0.  0.
          5    1    4    4  502    0 -0.12888026337E+02 -0.18485429298E+02 -0.50567288925E+01  0.23568471021E+02  0.47000000000E+01 0. -1.
         -5    1    4    4    0  502  0.12033752382E+02  0.25109451302E+02 -0.20081595486E+03  0.20279160108E+03  0.47000000000E+01 0.  1.
          5    1    3    3  503    0 -0.15875537370E+02 -0.27237678751E+02 -0.74435176821E+02  0.80972892865E+02  0.47000000000E+01 0. -1.
         -5    1    3    3    0  503  0.16729811325E+02  0.20613656746E+02  0.12464487183E+02  0.29702910163E+02  0.47000000000E+01 0.  1.
<mgrwt>
<rscale>  0 0.93496024E+02</rscale>
<asrwt>0</asrwt>
<pdfrwt beam="1">  1        1 0.46529173E-01 0.94102712E+02</pdfrwt>
<pdfrwt beam="2">  1       -1 0.53225002E-02 0.94102712E+02</pdfrwt>
<totfact> 0.12663411E+04</totfact>
</mgrwt>
</event>
<event>
 8    1  0.2964543E-004  0.1163598E+03  0.7546771E-02  0.1257612E+00
          3   -1    0    0  501    0  0.00000000000E+00  0.00000000000E+00  0.24031523706E+03  0.24031523706E+03  0.00000000000E+00 0. -1.
         -3   -1    0    0    0  501 -0.00000000000E+00 -0.00000000000E+00 -0.90913677469E+02  0.90913677469E+02  0.00000000000E+00 0.  1.
         23    2    1    2    0    0 -0.69447680610E+01 -0.37886661173E+02 -0.35561196343E+02  0.12167253963E+03  0.10979972366E+03 0.  0.
         23    2    1    2    0    0  0.69447680610E+01  0.37886661173E+02  0.18496275594E+03  0.20955637490E+03  0.90658834545E+02 0.  0.
          5    1    4    4  502    0  0.36803203979E+01 -0.28956469839E+02  0.39231012592E+02  0.49124171777E+02  0.47000000000E+01 0.  1.
         -5    1    4    4    0  502  0.32644476631E+01  0.66843131012E+02  0.14573174335E+03  0.16043220313E+03  0.47000000000E+01 0. -1.
          5    1    3    3  503    0 -0.88756060475E+01  0.28737061198E+02  0.18588630107E+02  0.35668224490E+02  0.47000000000E+01 0. -1.
         -5    1    3    3    0  503  0.19308379865E+01 -0.66623722370E+02 -0.54149826450E+02  0.86004315138E+02  0.47000000000E+01 0.  1.
<mgrwt>
<rscale>  0 0.11161270E+03</rscale>
<asrwt>0</asrwt>
<pdfrwt beam="1">  1        3 0.36971575E-01 0.11635982E+03</pdfrwt>
<pdfrwt beam="2">  1       -3 0.13986720E-01 0.11635982E+03</pdfrwt>
<totfact> 0.68372040E+02</totfact>
</mgrwt>
</event>
<event>
 8    1  0.2964543E-004  0.2373803E+03  0.7546771E-02  0.1121845E+00
         -1   -1    0    0    0  501 -0.00000000000E+00  0.00000000000E+00  0.25178733780E+03  0.25178733780E+03  0.00000000000E+00 0.  1.
          1   -1    0    0  501    0  0.00000000000E+00 -0.00000000000E+00 -0.26772921667E+03  0.26772921667E+03  0.00000000000E+00 0. -1.
         23    2    1    2    0    0 -0.20152190395E+03  0.83561803542E+02 -0.11510867074E+03  0.26225511640E+03  0.89073493330E+02 0.  0.
         23    2    1    2    0    0  0.20152190395E+03 -0.83561803542E+02  0.99166791872E+02  0.25726143807E+03  0.93572122579E+02 0.  0.
          5    1    3    3  502    0 -0.18864240112E+03  0.44101016808E+02 -0.92014289259E+02  0.21452173459E+03  0.47000000000E+01 0. -1.
         -5    1    4    4    0  503  0.17173154839E+03 -0.30131221136E+02  0.59899516378E+02  0.18441707421E+03  0.47000000000E+01 0.  1.
          5    1    4    4  503    0  0.29790355561E+02 -0.53430582406E+02  0.39267275494E+02  0.72844363855E+02  0.47000000000E+01 0. -1.
         -5    1    3    3    0  502 -0.12879502831E+02  0.39460786734E+02 -0.23094381480E+02  0.47733381807E+02  0.47000000000E+01 0.  1.
<mgrwt>
<rscale>  0 0.23694482E+03</rscale>
<asrwt>0</asrwt>
<pdfrwt beam="1">  1        1 0.41189110E-01 0.23738027E+03</pdfrwt>
<pdfrwt beam="2">  1       -1 0.38736513E-01 0.23738027E+03</pdfrwt>
<totfact> 0.66409482E+02</totfact>
</mgrwt>
</event>
<event>
 8    1  0.2964543E-004  0.1039876E+03  0.7546771E-02  0.1272190E+00
         -2   -1    0    0    0  501 -0.00000000000E+00  0.00000000000E+00  0.19221144792E+02  0.19221144792E+02  0.00000000000E+00 0.  1.
          2   -1    0    0  501    0  0.00000000000E+00 -0.00000000000E+00 -0.58271750434E+03  0.58271750434E+03  0.00000000000E+00 0. -1.
         23    2    1    2    0    0  0.35140568566E+02 -0.36668894704E+02 -0.22502481221E+03  0.24789025337E+03  0.90741083351E+02 0.  0.
         23    2    1    2    0    0 -0.35140568566E+02  0.36668894704E+02 -0.33847154734E+03  0.35404839577E+03  0.90596968966E+02 0.  0.
          5    1    4    4  502    0 -0.12380076671E+02  0.63204020675E+02 -0.16839300941E+03  0.18035052023E+03  0.47000000000E+01 0. -1.
         -5    1    3    3    0  503  0.50102047643E+02 -0.57781650157E+02 -0.18188698102E+03  0.19736741914E+03  0.47000000000E+01 0.  1.
          5    1    3    3  503    0 -0.14961479077E+02  0.21112755453E+02 -0.43137831187E+02  0.50522834229E+02  0.47000000000E+01 0. -1.
         -5    1    4    4    0  502 -0.22760491894E+02 -0.26535125971E+02 -0.17007853793E+03  0.17369787554E+03  0.47000000000E+01 0.  1.
<mgrwt>
<rscale>  0 0.10395611E+03</rscale>
<asrwt>0</asrwt>
<pdfrwt beam="1">  1        2 0.89648854E-01 0.10398756E+03</pdfrwt>
<pdfrwt beam="2">  1       -2 0.29570990E-02 0.10398756E+03</pdfrwt>
<totfact> 0.20785916E+04</totfact>
</mgrwt>
</event>
<event>
 8    1  0.2964543E-004  0.1041248E+03  0.7546771E-02  0.1272007E+00
         -1   -1    0    0    0  501 -0.00000000000E+00  0.00000000000E+00  0.22803193059E+02  0.22803193059E+02  0.00000000000E+00 0.  1.
          1   -1    0    0  501    0  0.00000000000E+00 -0.00000000000E+00 -0.52195888205E+03  0.52195888205E+03  0.00000000000E+00 0. -1.
         23    2    1    2    0    0 -0.44837361329E+02 -0.20711260122E+02 -0.33242767164E+03  0.34835346100E+03  0.91665869637E+02 0.  0.
         23    2    1    2    0    0  0.44837361329E+02  0.20711260122E+02 -0.16672801735E+03  0.19640861411E+03  0.91316847610E+02 0.  0.
          5    1    4    4  502    0 -0.24437634774E+02 -0.96992293568E+01 -0.30752037422E+02  0.40731447913E+02  0.47000000000E+01 0. -1.
         -5    1    4    4    0  502  0.69274996103E+02  0.30410489479E+02 -0.13597597993E+03  0.15567716619E+03  0.47000000000E+01 0.  1.
          5    1    3    3  503    0 -0.28559660925E+02 -0.52898302473E+02 -0.13869687649E+03  0.15123755547E+03  0.47000000000E+01 0. -1.
         -5    1    3    3    0  503 -0.16277700404E+02  0.32187042351E+02 -0.19373079514E+03  0.19711590553E+03  0.47000000000E+01 0.  1.
<mgrwt>
<rscale>  0 0.10404795E+03</rscale>
<asrwt>0</asrwt>
<pdfrwt beam="1">  1        1 0.80301370E-01 0.10412481E+03</pdfrwt>
<pdfrwt beam="2">  1       -1 0.35081834E-02 0.10412481E+03</pdfrwt>
<totfact> 0.11856708E+04</totfact>
</mgrwt>
</event>
<event>
 8    1  0.2964543E-004  0.1200817E+03  0.7546771E-02  0.1243109E+00
         -2   -1    0    0    0  501 -0.00000000000E+00  0.00000000000E+00  0.12068015663E+03  0.12068015663E+03  0.00000000000E+00 0.  1.
          2   -1    0    0  501    0  0.00000000000E+00 -0.00000000000E+00 -0.12084928147E+03  0.12084928147E+03  0.00000000000E+00 0. -1.
         23    2    1    2    0    0  0.48473880404E+02 -0.63893267720E+02  0.14304697853E+02  0.12057864307E+03  0.88896108142E+02 0.  0.
         23    2    1    2    0    0 -0.48473880404E+02  0.63893267720E+02 -0.14473822693E+02  0.12095079502E+03  0.89373019040E+02 0.  0.
          5    1    3    3  502    0  0.22882211475E+02 -0.83403680118E+02  0.50262834128E+01  0.86758993679E+02  0.47000000000E+01 0. -1.
         -5    1    4    4    0  503 -0.13230215169E+02  0.65986853801E+02  0.21024757822E+02  0.70664233594E+02  0.47000000000E+01 0.  1.
          5    1    4    4  503    0 -0.35243665235E+02 -0.20935860808E+01 -0.35498580516E+02  0.50286561430E+02  0.47000000000E+01 0. -1.
         -5    1    3    3    0  502  0.25591668928E+02  0.19510412398E+02  0.92784144402E+01  0.33819649392E+02  0.47000000000E+01 0.  1.
<mgrwt>
<rscale>  0 0.11999292E+03</rscale>
<asrwt>0</asrwt>
<pdfrwt beam="1">  1        2 0.18592197E-01 0.12008165E+03</pdfrwt>
<pdfrwt beam="2">  1       -2 0.18566178E-01 0.12008165E+03</pdfrwt>
<totfact> 0.67799047E+03</totfact>
</mgrwt>
</event>
<event>
 8    1  0.2964543E-004  0.9101516E+02  0.7546771E-02  0.1300943E+00
          1   -1    0    0  501    0  0.00000000000E+00  0.00000000000E+00  0.48291519456E+02  0.48291519456E+02  0.00000000000E+00 0. -1.
         -1   -1    0    0    0  501 -0.00000000000E+00 -0.00000000000E+00 -0.21791166237E+03  0.21791166237E+03  0.00000000000E+00 0.  1.
         23    2    1    2    0    0  0.31057682365E+01  0.56373245172E+01 -0.14762779532E+03  0.17342930840E+03  0.90787299984E+02 0.  0.
         23    2    1    2    0    0 -0.31057682365E+01 -0.56373245172E+01 -0.21992347596E+02  0.92773873425E+02  0.89899404967E+02 0.  0.
          5    1    4    4  502    0 -0.78488844998E+01 -0.46720341509E+02 -0.51954242493E+01  0.47890267610E+02  0.47000000000E+01 0. -1.
         -5    1    4    4    0  502  0.47431162633E+01  0.41083016992E+02 -0.16796923347E+02  0.44883605815E+02  0.47000000000E+01 0.  1.
          5    1    3    3  503    0  0.23516567861E+02 -0.24287639450E+02 -0.17667920211E+02  0.38433888674E+02  0.47000000000E+01 0. -1.
         -5    1    3    3    0  503 -0.20410799624E+02  0.29924963968E+02 -0.12995987511E+03  0.13499541973E+03  0.47000000000E+01 0.  1.
<mgrwt>
<rscale>  0 0.90792933E+02</rscale>
<asrwt>0</asrwt>
<pdfrwt beam="1">  1        1 0.74294647E-02 0.91015158E+02</pdfrwt>
<pdfrwt beam="2">  1       -1 0.33524871E-01 0.91015158E+02</pdfrwt>
<totfact> 0.74185280E+03</totfact>
</mgrwt>
</event>
<event>
 8    1  0.2964543E-004  0.1189134E+03  0.7546771E-02  0.1245723E+00
          2   -1    0    0  501    0  0.00000000000E+00  0.00000000000E+00  0.43610427868E+03  0.43610427868E+03  0.00000000000E+00 0. -1.
         -2   -1    0    0    0  501 -0.00000000000E+00 -0.00000000000E+00 -0.91895856789E+02  0.91895856789E+02  0.00000000000E+00 0.  1.
         23    2    1    2    0    0 -0.64803619399E+02 -0.36841562699E+02 -0.41710692257E+02  0.12417596969E+03  0.90128129739E+02 0.  0.
         23    2    1    2    0    0  0.64803619399E+02  0.36841562699E+02  0.38591911414E+03  0.40382416578E+03  0.92647635560E+02 0.  0.
          5    1    4    4  502    0  0.66183350263E+02  0.60011097498E+02  0.34627769361E+03  0.35764772999E+03  0.47000000000E+01 0. -1.
         -5    1    3    3    0  503  0.21883341594E+02 -0.74405473906E+01 -0.27719449227E+00  0.23588328080E+02  0.47000000000E+01 0. -1.
          5    1    3    3  503    0 -0.86686960993E+02 -0.29401015308E+02 -0.41433497764E+02  0.10058764161E+03  0.47000000000E+01 0.  1.
         -5    1    4    4    0  502 -0.13797308641E+01 -0.23169534799E+02  0.39641420532E+02  0.46176435786E+02  0.47000000000E+01 0.  1.
<mgrwt>
<rscale>  0 0.11842227E+03</rscale>
<asrwt>0</asrwt>
<pdfrwt beam="1">  1        2 0.67092965E-01 0.11891339E+03</pdfrwt>
<pdfrwt beam="2">  1       -2 0.14137824E-01 0.11891339E+03</pdfrwt>
<totfact> 0.26568227E+03</totfact>
</mgrwt>
</event>
<event>
 8    1  0.2964543E-004  0.2523938E+03  0.7546771E-02  0.1112200E+00
          2   -1    0    0  501    0  0.00000000000E+00  0.00000000000E+00  0.22391963956E+04  0.22391963956E+04  0.00000000000E+00 0. -1.
         -2   -1    0    0    0  501 -0.00000000000E+00 -0.00000000000E+00 -0.38161144931E+02  0.38161144931E+02  0.00000000000E+00 0.  1.
         23    2    1    2    0    0 -0.21857310920E+03  0.78443254120E+02  0.51357624881E+03  0.57112763178E+03  0.92188178520E+02 0.  0.
         23    2    1    2    0    0  0.21857310920E+03 -0.78443254120E+02  0.16874590018E+04  0.17062299087E+04  0.98868955540E+02 0.  0.
          5    1    4    4  502    0  0.13551797123E+03 -0.51690021266E+02  0.13446812356E+04  0.13524890736E+04  0.47000000000E+01 0. -1.
         -5    1    4    4    0  502  0.83055137976E+02 -0.26753232854E+02  0.34277776625E+03  0.35374083515E+03  0.47000000000E+01 0.  1.
          5    1    3    3  503    0 -0.72243913960E+02  0.37079821797E+02  0.28631348842E+03  0.29764341071E+03  0.47000000000E+01 0. -1.
         -5    1    3    3    0  503 -0.14632919524E+03  0.41363432323E+02  0.22726276039E+03  0.27348422107E+03  0.47000000000E+01 0.  1.
<mgrwt>
<rscale>  0 0.25175601E+03</rscale>
<asrwt>0</asrwt>
<pdfrwt beam="1">  1        2 0.34449165E+00 0.25239378E+03</pdfrwt>
<pdfrwt beam="2">  1       -2 0.58709471E-02 0.25239378E+03</pdfrwt>
<totfact> 0.85191655E+02</totfact>
</mgrwt>
</event>
<event>
 8    1  0.2964543E-004  0.1043801E+03  0.7546771E-02  0.1273877E+00
          1   -1    0    0  501    0  0.00000000000E+00  0.00000000000E+00  0.56238878765E+03  0.56238878765E+03  0.00000000000E+00 0. -1.
         -1   -1    0    0    0  501 -0.00000000000E+00 -0.00000000000E+00 -0.24013128686E+02  0.24013128686E+02  0.00000000000E+00 0.  1.
         23    2    1    2    0    0 -0.23219049348E+02  0.35895420330E+02  0.12320811912E+03  0.15831397079E+03  0.89752255001E+02 0.  0.
         23    2    1    2    0    0  0.23219049348E+02 -0.35895420330E+02  0.41516753984E+03  0.42808794554E+03  0.95223933578E+02 0.  0.
          5    1    4    4  502    0  0.55452068215E+02 -0.42608746001E+02  0.25201057363E+03  0.26157571816E+03  0.47000000000E+01 0. -1.
         -5    1    4    4    0  502 -0.32233018867E+02  0.67133256713E+01  0.16315696621E+03  0.16651222739E+03  0.47000000000E+01 0.  1.
          5    1    3    3  503    0  0.18137000023E+02  0.14539053076E+02  0.10575716167E+03  0.10838358768E+03  0.47000000000E+01 0. -1.
         -5    1    3    3    0  503 -0.41356049372E+02  0.21356367254E+02  0.17450957453E+02  0.49930383114E+02  0.47000000000E+01 0.  1.
<mgrwt>
<rscale>  0 0.10311569E+03</rscale>
<asrwt>0</asrwt>
<pdfrwt beam="1">  1        1 0.86521341E-01 0.10438009E+03</pdfrwt>
<pdfrwt beam="2">  1       -1 0.36943279E-02 0.10438009E+03</pdfrwt>
<totfact> 0.99738010E+03</totfact>
</mgrwt>
</event>
<event>
 8    1  0.2964543E-004  0.1013975E+03  0.7546771E-02  0.1280016E+00
          1   -1    0    0  501    0  0.00000000000E+00  0.00000000000E+00  0.26545089284E+03  0.26545089284E+03  0.00000000000E+00 0. -1.
         -1   -1    0    0    0  501 -0.00000000000E+00 -0.00000000000E+00 -0.46900145620E+02  0.46900145620E+02  0.00000000000E+00 0.  1.
         23    2    1    2    0    0  0.29038860988E+02 -0.15099883165E+02  0.39186717511E+02  0.10870628458E+03  0.95969763769E+02 0.  0.
         23    2    1    2    0    0 -0.29038860988E+02  0.15099883165E+02  0.17936402971E+03  0.20364475389E+03  0.90710907350E+02 0.  0.
          5    1    3    3  502    0 -0.17548962772E+02  0.29157639751E+02  0.25639444552E+02  0.42867297175E+02  0.47000000000E+01 0. -1.
         -5    1    4    4    0  503  0.13571149091E+02  0.39538748219E+02  0.50923219378E+02  0.66051139053E+02  0.47000000000E+01 0.  1.
          5    1    4    4  503    0 -0.42610010078E+02 -0.24438865054E+02  0.12844081033E+03  0.13759361483E+03  0.47000000000E+01 0. -1.
         -5    1    3    3    0  502  0.46587823759E+02 -0.44257522916E+02  0.13547272959E+02  0.65838987400E+02  0.47000000000E+01 0.  1.
<mgrwt>
<rscale>  0 0.10013348E+03</rscale>
<asrwt>0</asrwt>
<pdfrwt beam="1">  1        1 0.40838598E-01 0.10139752E+03</pdfrwt>
<pdfrwt beam="2">  1       -1 0.72154072E-02 0.10139752E+03</pdfrwt>
<totfact> 0.95340098E+03</totfact>
</mgrwt>
</event>
<event>
 8    1  0.2964543E-004  0.1033541E+03  0.7546771E-02  0.1273445E+00
          4   -1    0    0  501    0  0.00000000000E+00  0.00000000000E+00  0.80732037607E+02  0.80732037607E+02  0.00000000000E+00 0. -1.
         -4   -1    0    0    0  501 -0.00000000000E+00 -0.00000000000E+00 -0.20820342539E+03  0.20820342539E+03  0.00000000000E+00 0.  1.
         23    2    1    2    0    0 -0.91693806442E+01  0.46271826209E+02  0.23573472177E+02  0.10591466086E+03  0.91853401420E+02 0.  0.
         23    2    1    2    0    0  0.91693806442E+01 -0.46271826209E+02 -0.15104485996E+03  0.18302080214E+03  0.91961431329E+02 0.  0.
          5    1    3    3  502    0 -0.35778104108E+02  0.83562446707E+01  0.41858794130E+02  0.55894080229E+02  0.47000000000E+01 0. -1.
         -5    1    3    3    0  502  0.26608723464E+02  0.37915581539E+02 -0.18285321953E+02  0.50020580632E+02  0.47000000000E+01 0.  1.
          5    1    4    4  503    0  0.40562387238E+02 -0.42697213080E+02 -0.13481180900E+03  0.14718924251E+03  0.47000000000E+01 0. -1.
         -5    1    4    4    0  503 -0.31393006594E+02 -0.35746131292E+01 -0.16233050956E+02  0.35831559628E+02  0.47000000000E+01 0.  1.
<mgrwt>
<rscale>  0 0.10333004E+03</rscale>
<asrwt>0</asrwt>
<pdfrwt beam="1">  1        4 0.12420314E-01 0.10335407E+03</pdfrwt>
<pdfrwt beam="2">  1       -4 0.32031296E-01 0.10335407E+03</pdfrwt>
<totfact> 0.76567718E+02</totfact>
</mgrwt>
</event>
<event>
 8    1  0.2964543E-004  0.9959323E+02  0.7546771E-02  0.1281690E+00
         -2   -1    0    0    0  501 -0.00000000000E+00  0.00000000000E+00  0.16913241732E+02  0.16913241732E+02  0.00000000000E+00 0.  1.
          2   -1    0    0  501    0  0.00000000000E+00 -0.00000000000E+00 -0.74963388820E+03  0.74963388820E+03  0.00000000000E+00 0. -1.
         23    2    1    2    0    0  0.16468160109E+02  0.32562568091E+02 -0.18576521254E+03  0.21077838160E+03  0.92667636318E+02 0.  0.
         23    2    1    2    0    0 -0.16468160109E+02 -0.32562568091E+02 -0.54695543393E+03  0.55576874833E+03  0.91581296036E+02 0.  0.
          5    1    3    3  502    0  0.31053049410E+02 -0.15045517848E+02 -0.13537245458E+03  0.13978000910E+03  0.47000000000E+01 0. -1.
         -5    1    4    4    0  503 -0.15257334026E+02  0.29742718462E+02 -0.13816179369E+03  0.14222583021E+03  0.47000000000E+01 0.  1.
          5    1    4    4  503    0 -0.12108260834E+01 -0.62305286553E+02 -0.40879364023E+03  0.41354291812E+03  0.47000000000E+01 0. -1.
         -5    1    3    3    0  502 -0.14584889301E+02  0.47608085939E+02 -0.50392757965E+02  0.70998372503E+02  0.47000000000E+01 0.  1.
<mgrwt>
<rscale>  0 0.99339768E+02</rscale>
<asrwt>0</asrwt>
<pdfrwt beam="1">  1        2 0.11532826E+00 0.99593232E+02</pdfrwt>
<pdfrwt beam="2">  1       -2 0.26020380E-02 0.99593232E+02</pdfrwt>
<totfact> 0.18645910E+04</totfact>
</mgrwt>
</event>
<event>
 8    1  0.2964543E-004  0.2650884E+03  0.7546771E-02  0.1104429E+00
         -1   -1    0    0    0  501 -0.00000000000E+00  0.00000000000E+00  0.11581864828E+03  0.11581864828E+03  0.00000000000E+00 0.  1.
          1   -1    0    0  501    0  0.00000000000E+00 -0.00000000000E+00 -0.60934088373E+03  0.60934088373E+03  0.00000000000E+00 0. -1.
         23    2    1    2    0    0  0.24572489687E+03 -0.22445057860E+02 -0.20791960725E+03  0.33690120159E+03  0.96888342886E+02 0.  0.
         23    2    1    2    0    0 -0.24572489687E+03  0.22445057860E+02 -0.28560262820E+03  0.38825833042E+03  0.91055830913E+02 0.  0.
          5    1    3    3  502    0  0.21767453055E+02 -0.33538577340E+02 -0.39737364259E+02  0.56566830393E+02  0.47000000000E+01 0. -1.
         -5    1    3    3    0  502  0.22395744381E+03  0.11093519481E+02 -0.16818224299E+03  0.28033437119E+03  0.47000000000E+01 0.  1.
          5    1    4    4  503    0 -0.19257749154E+03  0.17365003970E+02 -0.27057244872E+03  0.33259460851E+03  0.47000000000E+01 0. -1.
         -5    1    4    4    0  503 -0.53147405334E+02  0.50800538897E+01 -0.15030179485E+02  0.55663721907E+02  0.47000000000E+01 0.  1.
<mgrwt>
<rscale>  0 0.26456793E+03</rscale>
<asrwt>0</asrwt>
<pdfrwt beam="1">  1        1 0.93744750E-01 0.26508839E+03</pdfrwt>
<pdfrwt beam="2">  1       -1 0.17818254E-01 0.26508839E+03</pdfrwt>
<totfact> 0.84035291E+02</totfact>
</mgrwt>
</event>
<event>
 8    1  0.2964543E-004  0.1497181E+03  0.7546771E-02  0.1201225E+00
          1   -1    0    0  501    0  0.00000000000E+00  0.00000000000E+00  0.71087615029E+03  0.71087615029E+03  0.00000000000E+00 0. -1.
         -1   -1    0    0    0  501 -0.00000000000E+00 -0.00000000000E+00 -0.57776514162E+02  0.57776514162E+02  0.00000000000E+00 0.  1.
         23    2    1    2    0    0  0.66951982405E+02  0.97237396421E+02  0.66946983866E+02  0.16400428106E+03  0.92075112524E+02 0.  0.
         23    2    1    2    0    0 -0.66951982405E+02 -0.97237396421E+02  0.58615265226E+03  0.60464838339E+03  0.89928063330E+02 0.  0.
          5    1    3    3  502    0  0.93487161754E+01 -0.17977596491E+02  0.10211543789E+02  0.23172356295E+02  0.47000000000E+01 0. -1.
         -5    1    3    3    0  502  0.57603266229E+02  0.11521499291E+03  0.56735440077E+02  0.14083192476E+03  0.47000000000E+01 0.  1.
          5    1    4    4  503    0 -0.53443463096E+02 -0.62780692668E+02  0.53500106657E+03  0.54133709494E+03  0.47000000000E+01 0. -1.
         -5    1    4    4    0  503 -0.13508519309E+02 -0.34456703752E+02  0.51151585686E+02  0.63311288453E+02  0.47000000000E+01 0.  1.
<mgrwt>
<rscale>  0 0.14938932E+03</rscale>
<asrwt>0</asrwt>
<pdfrwt beam="1">  1        1 0.10936556E+00 0.14971809E+03</pdfrwt>
<pdfrwt beam="2">  1       -1 0.88886950E-02 0.14971809E+03</pdfrwt>
<totfact> 0.19941987E+03</totfact>
</mgrwt>
</event>
<event>
 8    1  0.2964543E-004  0.1187377E+03  0.7546771E-02  0.1247696E+00
          1   -1    0    0  501    0  0.00000000000E+00  0.00000000000E+00  0.15429025509E+03  0.15429025509E+03  0.00000000000E+00 0. -1.
         -1   -1    0    0    0  501 -0.00000000000E+00 -0.00000000000E+00 -0.13939944058E+03  0.13939944058E+03  0.00000000000E+00 0.  1.
         23    2    1    2    0    0 -0.14460199224E+02 -0.55891327977E+02 -0.82725489949E+02  0.13997702831E+03  0.97041866543E+02 0.  0.
         23    2    1    2    0    0  0.14460199224E+02  0.55891327977E+02  0.97616304461E+02  0.15371266736E+03  0.10375790720E+03 0.  0.
          5    1    4    4  502    0 -0.58334294379E+01  0.19641764017E+02  0.10849433163E+03  0.11051216127E+03  0.47000000000E+01 0. -1.
         -5    1    4    4    0  502  0.20293628662E+02  0.36249563960E+02 -0.10878027171E+02  0.43200506093E+02  0.47000000000E+01 0.  1.
          5    1    3    3  503    0  0.27313139701E+02 -0.98307118513E+01  0.74541070687E+01  0.30336516083E+02  0.47000000000E+01 0. -1.
         -5    1    3    3    0  503 -0.41773338925E+02 -0.46060616126E+02 -0.90179597018E+02  0.10964051223E+03  0.47000000000E+01 0.  1.
<mgrwt>
<rscale>  0 0.11725477E+03</rscale>
<asrwt>0</asrwt>
<pdfrwt beam="1">  1        1 0.23736962E-01 0.11873770E+03</pdfrwt>
<pdfrwt beam="2">  1       -1 0.21446068E-01 0.11873770E+03</pdfrwt>
<totfact> 0.35137721E+03</totfact>
</mgrwt>
</event>
<event>
 8    1  0.2964543E-004  0.9310573E+02  0.7546771E-02  0.1298226E+00
          1   -1    0    0  501    0  0.00000000000E+00  0.00000000000E+00  0.16580719830E+03  0.16580719830E+03  0.00000000000E+00 0. -1.
         -1   -1    0    0    0  501 -0.00000000000E+00 -0.00000000000E+00 -0.68481648421E+02  0.68481648421E+02  0.00000000000E+00 0.  1.
         23    2    1    2    0    0  0.10819047457E+02 -0.20059677012E+02 -0.11715922132E+02  0.93839969477E+02  0.90273111226E+02 0.  0.
         23    2    1    2    0    0 -0.10819047457E+02  0.20059677012E+02  0.10904147201E+03  0.14044887724E+03  0.85535969458E+02 0.  0.
          5    1    3    3  502    0 -0.29130038138E+02  0.72208139641E+01  0.19479954555E+02  0.36086810689E+02  0.47000000000E+01 0. -1.
         -5    1    3    3    0  502  0.39949085595E+02 -0.27280490976E+02 -0.31195876687E+02  0.57753158788E+02  0.47000000000E+01 0.  1.
          5    1    4    4  503    0  0.65323339666E+01  0.46461791792E+02  0.93955949717E+02  0.10512459261E+03  0.47000000000E+01 0. -1.
         -5    1    4    4    0  503 -0.17351381423E+02 -0.26402114780E+02  0.15085522292E+02  0.35324284635E+02  0.47000000000E+01 0.  1.
<mgrwt>
<rscale>  0 0.91937573E+02</rscale>
<asrwt>0</asrwt>
<pdfrwt beam="1">  1        1 0.25508800E-01 0.93105730E+02</pdfrwt>
<pdfrwt beam="2">  1       -1 0.10535638E-01 0.93105730E+02</pdfrwt>
<totfact> 0.95583665E+03</totfact>
</mgrwt>
</event>
<event>
 8    1  0.2964543E-004  0.1014812E+03  0.7546771E-02  0.1277765E+00
         -2   -1    0    0    0  501 -0.00000000000E+00  0.00000000000E+00  0.24325692927E+02  0.24325692927E+02  0.00000000000E+00 0.  1.
          2   -1    0    0  501    0  0.00000000000E+00 -0.00000000000E+00 -0.45737282799E+03  0.45737282799E+03  0.00000000000E+00 0. -1.
         23    2    1    2    0    0 -0.41897548470E+02 -0.48713972519E+01 -0.28531194580E+03  0.30246650177E+03  0.91125974331E+02 0.  0.
         23    2    1    2    0    0  0.41897548470E+02  0.48713972519E+01 -0.14773518926E+03  0.17923201915E+03  0.92300029589E+02 0.  0.
          5    1    3    3  502    0 -0.21353185450E+02 -0.22851479261E+02 -0.24029915495E+02  0.39719963142E+02  0.47000000000E+01 0. -1.
         -5    1    4    4    0  503 -0.11767734654E+02 -0.20219277165E+02 -0.46692173870E+01  0.24314405997E+02  0.47000000000E+01 0.  1.
          5    1    4    4  503    0  0.53665283124E+02  0.25090674417E+02 -0.14306597187E+03  0.15491761315E+03  0.47000000000E+01 0. -1.
         -5    1    3    3    0  502 -0.20544363020E+02  0.17980082009E+02 -0.26128203030E+03  0.26274653863E+03  0.47000000000E+01 0.  1.
<mgrwt>
<rscale>  0 0.10121346E+03</rscale>
<asrwt>0</asrwt>
<pdfrwt beam="1">  1        2 0.70365045E-01 0.10148118E+03</pdfrwt>
<pdfrwt beam="2">  1       -2 0.37424146E-02 0.10148118E+03</pdfrwt>
<totfact> 0.19138371E+04</totfact>
</mgrwt>
</event>
<event>
 8    1  0.2964543E-004  0.2137683E+03  0.7546771E-02  0.1138820E+00
          2   -1    0    0  501    0  0.00000000000E+00  0.00000000000E+00  0.79802893253E+03  0.79802893253E+03  0.00000000000E+00 0. -1.
         -2   -1    0    0    0  501 -0.00000000000E+00 -0.00000000000E+00 -0.56992904575E+02  0.56992904575E+02  0.00000000000E+00 0.  1.
         23    2    1    2    0    0 -0.12214277377E+03  0.14872449842E+03  0.36331159290E+03  0.42100267553E+03  0.90609633347E+02 0.  0.
         23    2    1    2    0    0  0.12214277377E+03 -0.14872449842E+03  0.37772443506E+03  0.43401916158E+03  0.93054017433E+02 0.  0.
          5    1    3    3  502    0 -0.54909144474E+02  0.15186593934E+02  0.60346589507E+02  0.83123087330E+02  0.47000000000E+01 0. -1.
         -5    1    3    3    0  502 -0.67233629299E+02  0.13353790448E+03  0.30296500339E+03  0.33787958820E+03  0.47000000000E+01 0.  1.
          5    1    4    4  503    0  0.81051259419E+02 -0.81017447960E+02  0.30702561858E+03  0.32774983446E+03  0.47000000000E+01 0. -1.
         -5    1    4    4    0  503  0.41091514355E+02 -0.67707050456E+02  0.70698816483E+02  0.10626932712E+03  0.47000000000E+01 0.  1.
<mgrwt>
<rscale>  0 0.21350464E+03</rscale>
<asrwt>0</asrwt>
<pdfrwt beam="1">  1        2 0.12277367E+00 0.21376829E+03</pdfrwt>
<pdfrwt beam="2">  1       -2 0.87681397E-02 0.21376829E+03</pdfrwt>
<totfact> 0.28912592E+03</totfact>
</mgrwt>
</event>
<event>
 8    1  0.2964543E-004  0.1196838E+03  0.7546771E-02  0.1245124E+00
         -2   -1    0    0    0  501 -0.00000000000E+00  0.00000000000E+00  0.77729265882E+02  0.77729265882E+02  0.00000000000E+00 0.  1.
          2   -1    0    0  501    0  0.00000000000E+00 -0.00000000000E+00 -0.20710027098E+03  0.20710027098E+03  0.00000000000E+00 0. -1.
         23    2    1    2    0    0 -0.66535242103E+00  0.72439148947E+02 -0.11646097284E+03  0.16445147690E+03  0.90737296985E+02 0.  0.
         23    2    1    2    0    0  0.66535242103E+00 -0.72439148947E+02 -0.12910032257E+02  0.12037805997E+03  0.95269803160E+02 0.  0.
          5    1    3    3  502    0  0.23261550978E+02  0.75617211160E+02 -0.11519952520E+03  0.13982876308E+03  0.47000000000E+01 0. -1.
         -5    1    4    4    0  503 -0.26950813560E+02 -0.83906376125E+02 -0.22369862652E+01  0.88282050348E+02  0.47000000000E+01 0.  1.
          5    1    4    4  503    0  0.27616165981E+02  0.11467227178E+02 -0.10673045992E+02  0.32096009618E+02  0.47000000000E+01 0. -1.
         -5    1    3    3    0  502 -0.23926903399E+02 -0.31780622124E+01 -0.12614476427E+01  0.24622713820E+02  0.47000000000E+01 0.  1.
<mgrwt>
<rscale>  0 0.11877971E+03</rscale>
<asrwt>0</asrwt>
<pdfrwt beam="1">  1        2 0.31861580E-01 0.11968378E+03</pdfrwt>
<pdfrwt beam="2">  1       -2 0.11958349E-01 0.11968378E+03</pdfrwt>
<totfact> 0.76615959E+03</totfact>
</mgrwt>
</event>
<event>
 8    1  0.2964543E-004  0.1096852E+03  0.7546771E-02  0.1261176E+00
          3   -1    0    0  501    0  0.00000000000E+00  0.00000000000E+00  0.11232029423E+03  0.11232029423E+03  0.00000000000E+00 0. -1.
         -3   -1    0    0    0  501 -0.00000000000E+00 -0.00000000000E+00 -0.11431413206E+03  0.11431413206E+03  0.00000000000E+00 0.  1.
         23    2    1    2    0    0 -0.43559307993E+02 -0.42115106415E+02  0.27538420591E+02  0.11304305557E+03  0.91374352540E+02 0.  0.
         23    2    1    2    0    0  0.43559307993E+02  0.42115106415E+02 -0.29532258427E+02  0.11359137073E+03  0.91431666915E+02 0.  0.
          5    1    3    3  502    0 -0.24701152138E+02 -0.66501198147E+02 -0.51500158807E+00  0.71097900803E+02  0.47000000000E+01 0. -1.
         -5    1    3    3    0  502 -0.18858155855E+02  0.24386091732E+02  0.28053422179E+02  0.41945154764E+02  0.47000000000E+01 0.  1.
          5    1    4    4  503    0  0.14181969279E+02  0.22762691798E+02  0.32331908497E+02  0.42269500796E+02  0.47000000000E+01 0. -1.
         -5    1    4    4    0  503  0.29377338713E+02  0.19352414617E+02 -0.61864166923E+02  0.71321869931E+02  0.47000000000E+01 0.  1.
<mgrwt>
<rscale>  0 0.10967326E+03</rscale>
<asrwt>0</asrwt>
<pdfrwt beam="1">  1        3 0.17280045E-01 0.10968521E+03</pdfrwt>
<pdfrwt beam="2">  1       -3 0.17586789E-01 0.10968521E+03</pdfrwt>
<totfact> 0.18050485E+03</totfact>
</mgrwt>
</event>
<event>
 8    1  0.2964543E-004  0.1000867E+03  0.7546771E-02  0.1280774E+00
          1   -1    0    0  501    0  0.00000000000E+00  0.00000000000E+00  0.15438407253E+03  0.15438407253E+03  0.00000000000E+00 0. -1.
         -1   -1    0    0    0  501 -0.00000000000E+00 -0.00000000000E+00 -0.92421390869E+02  0.92421390869E+02  0.00000000000E+00 0.  1.
         23    2    1    2    0    0  0.37836201181E+02 -0.86674762349E+01  0.99183084791E+02  0.14002201093E+03  0.90896512434E+02 0.  0.
         23    2    1    2    0    0 -0.37836201181E+02  0.86674762349E+01 -0.37220403126E+02  0.10678345247E+03  0.92253151972E+02 0.  0.
          5    1    4    4  502    0  0.22129678516E+02 -0.19724097501E+02 -0.25203870528E+02  0.39192955783E+02  0.47000000000E+01 0. -1.
         -5    1    3    3    0  503  0.52603590309E+02  0.18906989555E+02  0.91733717113E+02  0.10752570308E+03  0.47000000000E+01 0.  1.
          5    1    3    3  503    0 -0.14767389128E+02 -0.27574465789E+02  0.74493676779E+01  0.32496307852E+02  0.47000000000E+01 0. -1.
         -5    1    4    4    0  502 -0.59965879697E+02  0.28391573736E+02 -0.12016532599E+02  0.67590496689E+02  0.47000000000E+01 0.  1.
<mgrwt>
<rscale>  0 0.99772962E+02</rscale>
<asrwt>0</asrwt>
<pdfrwt beam="1">  1        1 0.23751396E-01 0.10008670E+03</pdfrwt>
<pdfrwt beam="2">  1       -1 0.14218676E-01 0.10008670E+03</pdfrwt>
<totfact> 0.66396445E+03</totfact>
</mgrwt>
</event>
<event>
 8    1  0.2964543E-004  0.1090353E+03  0.7546771E-02  0.1266082E+00
         -3   -1    0    0    0  501 -0.00000000000E+00  0.00000000000E+00  0.43610376378E+03  0.43610376378E+03  0.00000000000E+00 0.  1.
          3   -1    0    0  501    0  0.00000000000E+00 -0.00000000000E+00 -0.25441271159E+02  0.25441271159E+02  0.00000000000E+00 0. -1.
         23    2    1    2    0    0  0.23056299654E+02 -0.41317650456E+02  0.22335128679E+03  0.24854476159E+03  0.98234209977E+02 0.  0.
         23    2    1    2    0    0 -0.23056299654E+02  0.41317650456E+02  0.18731120584E+03  0.21300027336E+03  0.89693296429E+02 0.  0.
          5    1    3    3  502    0  0.52497479106E+02 -0.20088533232E+02  0.19276169679E+03  0.20084495570E+03  0.47000000000E+01 0. -1.
         -5    1    3    3    0  502 -0.29441179451E+02 -0.21229117224E+02  0.30589589995E+02  0.47699805887E+02  0.47000000000E+01 0.  1.
          5    1    4    4  503    0  0.30731489912E+02  0.15042587016E+02  0.34507148135E+02  0.48821482657E+02  0.47000000000E+01 0. -1.
         -5    1    4    4    0  503 -0.53787789566E+02  0.26275063440E+02  0.15280405770E+03  0.16417879070E+03  0.47000000000E+01 0.  1.
<mgrwt>
<rscale>  0 0.10707639E+03</rscale>
<asrwt>0</asrwt>
<pdfrwt beam="1">  1        3 0.39140420E-02 0.10903532E+03</pdfrwt>
<pdfrwt beam="2">  1       -3 0.67092881E-01 0.10903532E+03</pdfrwt>
<totfact> 0.16174226E+03</totfact>
</mgrwt>
</event>
<event>
 8    1  0.2964543E-004  0.1069178E+03  0.7546771E-02  0.1266925E+00
         -2   -1    0    0    0  501 -0.00000000000E+00  0.00000000000E+00  0.30985661597E+03  0.30985661597E+03  0.00000000000E+00 0.  1.
          2   -1    0    0  501    0  0.00000000000E+00 -0.00000000000E+00 -0.53766462887E+02  0.53766462887E+02  0.00000000000E+00 0. -1.
         23    2    1    2    0    0 -0.17908550764E+02  0.49945041997E+02  0.23150267308E+03  0.25499979094E+03  0.92823393200E+02 0.  0.
         23    2    1    2    0    0  0.17908550764E+02 -0.49945041997E+02  0.24587480008E+02  0.10862328792E+03  0.91538249356E+02 0.  0.
          5    1    4    4  502    0  0.47552219568E+02 -0.42882171262E+02 -0.68745957151E+01  0.64571234031E+02  0.47000000000E+01 0.  1.
         -5    1    3    3    0  503  0.12864425793E+02  0.28694802826E+02  0.20835682647E+03  0.21076893105E+03  0.47000000000E+01 0.  1.
          5    1    3    3  503    0 -0.30772976557E+02  0.21250239171E+02  0.23145846609E+02  0.44230859886E+02  0.47000000000E+01 0. -1.
         -5    1    4    4    0  502 -0.29643668804E+02 -0.70628707356E+01  0.31462075723E+02  0.44052053891E+02  0.47000000000E+01 0. -1.
<mgrwt>
<rscale>  0 0.10663821E+03</rscale>
<asrwt>0</asrwt>
<pdfrwt beam="1">  1        2 0.82717637E-02 0.10691775E+03</pdfrwt>
<pdfrwt beam="2">  1       -2 0.47670248E-01 0.10691775E+03</pdfrwt>
<totfact> 0.32433189E+03</totfact>
</mgrwt>
</event>
<event>
 8    1  0.2964543E-004  0.1152669E+03  0.7546771E-02  0.1252599E+00
          1   -1    0    0  501    0  0.00000000000E+00  0.00000000000E+00  0.11558969930E+03  0.11558969930E+03  0.00000000000E+00 0. -1.
         -1   -1    0    0    0  501 -0.00000000000E+00 -0.00000000000E+00 -0.11969248194E+03  0.11969248194E+03  0.00000000000E+00 0.  1.
         23    2    1    2    0    0 -0.10833612616E+02 -0.69690267306E+02 -0.32563263077E+02  0.11655369249E+03  0.86892442771E+02 0.  0.
         23    2    1    2    0    0  0.10833612616E+02  0.69690267306E+02  0.28460480431E+02  0.11872848875E+03  0.91172115120E+02 0.  0.
          5    1    3    3  502    0 -0.87386642234E+01  0.19739841749E+02 -0.34348801567E+01  0.22358756817E+02  0.47000000000E+01 0. -1.
         -5    1    3    3    0  502 -0.20949483927E+01 -0.89430109055E+02 -0.29128382920E+02  0.94194935670E+02  0.47000000000E+01 0.  1.
          5    1    4    4  503    0 -0.89661724398E+01  0.87563895131E+02  0.23005613125E+02  0.91099814567E+02  0.47000000000E+01 0. -1.
         -5    1    4    4    0  503  0.19799785056E+02 -0.17873627826E+02  0.54548673058E+01  0.27628674185E+02  0.47000000000E+01 0.  1.
<mgrwt>
<rscale>  0 0.11441897E+03</rscale>
<asrwt>0</asrwt>
<pdfrwt beam="1">  1        1 0.17783031E-01 0.11526689E+03</pdfrwt>
<pdfrwt beam="2">  1       -1 0.18414228E-01 0.11526689E+03</pdfrwt>
<totfact> 0.64451914E+03</totfact>
</mgrwt>
</event>
<event>
 8    1  0.2964543E-004  0.1231905E+03  0.7546771E-02  0.1239683E+00
         -1   -1    0    0    0  501 -0.00000000000E+00  0.00000000000E+00  0.70037362100E+03  0.70037362100E+03  0.00000000000E+00 0.  1.
          1   -1    0    0  501    0  0.00000000000E+00 -0.00000000000E+00 -0.14110305704E+03  0.14110305704E+03  0.00000000000E+00 0. -1.
         23    2    1    2    0    0  0.57645437681E+01 -0.75756726562E+02  0.66867696417E+03  0.67992998412E+03  0.96972105812E+02 0.  0.
         23    2    1    2    0    0 -0.57645437681E+01  0.75756726562E+02 -0.10940640021E+03  0.16154669391E+03  0.91407124028E+02 0.  0.
          5    1    3    3  502    0 -0.17839145195E+02  0.15529522095E+02  0.74651190737E+02  0.78449292133E+02  0.47000000000E+01 0. -1.
         -5    1    3    3    0  502  0.23603688963E+02 -0.91286248657E+02  0.59402577343E+03  0.60148069199E+03  0.47000000000E+01 0.  1.
          5    1    4    4  503    0 -0.40610253835E+02  0.32982663043E+02 -0.19645042804E+02  0.56080892331E+02  0.47000000000E+01 0. -1.
         -5    1    4    4    0  503  0.34845710067E+02  0.42774063520E+02 -0.89761357406E+02  0.10546580158E+03  0.47000000000E+01 0.  1.
<mgrwt>
<rscale>  0 0.12209317E+03</rscale>
<asrwt>0</asrwt>
<pdfrwt beam="1">  1        1 0.21708163E-01 0.12319051E+03</pdfrwt>
<pdfrwt beam="2">  1       -1 0.10774979E+00 0.12319051E+03</pdfrwt>
<totfact> 0.19960676E+02</totfact>
</mgrwt>
</event>
<event>
 8    1  0.2964543E-004  0.9389778E+02  0.7546771E-02  0.1295014E+00
         -1   -1    0    0    0  501 -0.00000000000E+00  0.00000000000E+00  0.24636047707E+02  0.24636047707E+02  0.00000000000E+00 0.  1.
          1   -1    0    0  501    0  0.00000000000E+00 -0.00000000000E+00 -0.48071225691E+03  0.48071225691E+03  0.00000000000E+00 0. -1.
         23    2    1    2    0    0  0.15226650797E+02 -0.20583766744E+02 -0.97918831960E+02  0.13566462546E+03  0.90339640259E+02 0.  0.
         23    2    1    2    0    0 -0.15226650797E+02  0.20583766744E+02 -0.35815737725E+03  0.36968367915E+03  0.87941875177E+02 0.  0.
          5    1    3    3  502    0 -0.36941253474E+02  0.88185199519E+00 -0.36902353354E+02  0.52433839781E+02  0.47000000000E+01 0. -1.
         -5    1    4    4    0  503  0.16997774841E+02 -0.27951606980E+02 -0.12138676041E+03  0.12580561309E+03  0.47000000000E+01 0.  1.
          5    1    4    4  503    0 -0.32224425638E+02  0.48535373724E+02 -0.23677061684E+03  0.24387806606E+03  0.47000000000E+01 0. -1.
         -5    1    3    3    0  502  0.52167904271E+02 -0.21465618739E+02 -0.61016478607E+02  0.83230785683E+02  0.47000000000E+01 0.  1.
<mgrwt>
<rscale>  0 0.93316257E+02</rscale>
<asrwt>0</asrwt>
<pdfrwt beam="1">  1        1 0.73955731E-01 0.93897779E+02</pdfrwt>
<pdfrwt beam="2">  1       -1 0.37901612E-02 0.93897779E+02</pdfrwt>
<totfact> 0.11683876E+04</totfact>
</mgrwt>
</event>
<event>
 8    1  0.2964543E-004  0.2114876E+03  0.7546771E-02  0.1140828E+00
         -1   -1    0    0    0  501 -0.00000000000E+00  0.00000000000E+00  0.11812526829E+03  0.11812526829E+03  0.00000000000E+00 0.  1.
          1   -1    0    0  501    0  0.00000000000E+00 -0.00000000000E+00 -0.44733879869E+03  0.44733879869E+03  0.00000000000E+00 0. -1.
         23    2    1    2    0    0 -0.19002107746E+03 -0.17227966032E+02 -0.51403151566E+02  0.21764485178E+03  0.91226009579E+02 0.  0.
         23    2    1    2    0    0  0.19002107746E+03  0.17227966032E+02 -0.27781037883E+03  0.34781921520E+03  0.85992948435E+02 0.  0.
          5    1    3    3  502    0 -0.74480187417E+02 -0.48753099047E+02 -0.38483273140E+02  0.97093847879E+02  0.47000000000E+01 0. -1.
         -5    1    4    4    0  503  0.91371664908E+02  0.45135575585E+02 -0.10211282264E+03  0.14434375594E+03  0.47000000000E+01 0.  1.
          5    1    4    4  503    0  0.98649412552E+02 -0.27907609553E+02 -0.17569755619E+03  0.20347545925E+03  0.47000000000E+01 0. -1.
         -5    1    3    3    0  502 -0.11554089004E+03  0.31525133015E+02 -0.12919878426E+02  0.12055100390E+03  0.47000000000E+01 0.  1.
<mgrwt>
<rscale>  0 0.21093441E+03</rscale>
<asrwt>0</asrwt>
<pdfrwt beam="1">  1        1 0.68821355E-01 0.21148758E+03</pdfrwt>
<pdfrwt beam="2">  1       -1 0.18173118E-01 0.21148758E+03</pdfrwt>
<totfact> 0.12321791E+03</totfact>
</mgrwt>
</event>
<event>
 8    1  0.2964543E-004  0.1743640E+03  0.7546771E-02  0.1173889E+00
         -1   -1    0    0    0  501 -0.00000000000E+00  0.00000000000E+00  0.33013599741E+03  0.33013599741E+03  0.00000000000E+00 0.  1.
          1   -1    0    0  501    0  0.00000000000E+00 -0.00000000000E+00 -0.91364732860E+02  0.91364732860E+02  0.00000000000E+00 0. -1.
         23    2    1    2    0    0 -0.14466348597E+03 -0.29750225379E+02  0.13305006314E+03  0.21932876730E+03  0.92683271320E+02 0.  0.
         23    2    1    2    0    0  0.14466348597E+03  0.29750225379E+02  0.10572120141E+03  0.20217196296E+03  0.88791497900E+02 0.  0.
          5    1    3    3  502    0 -0.55383534147E+02 -0.57620857883E+02  0.51878705990E+02  0.95399105096E+02  0.47000000000E+01 0. -1.
         -5    1    3    3    0  502 -0.89279951820E+02  0.27870632504E+02  0.81171357148E+02  0.12392966221E+03  0.47000000000E+01 0.  1.
          5    1    4    4  503    0  0.11900283116E+03  0.37570149426E+02  0.40160864103E+02  0.13117993352E+03  0.47000000000E+01 0. -1.
         -5    1    4    4    0  503  0.25660654805E+02 -0.78199240471E+01  0.65560337305E+02  0.70992029445E+02  0.47000000000E+01 0.  1.
<mgrwt>
<rscale>  0 0.17385242E+03</rscale>
<asrwt>0</asrwt>
<pdfrwt beam="1">  1        1 0.14056113E-01 0.17436396E+03</pdfrwt>
<pdfrwt beam="2">  1       -1 0.50790153E-01 0.17436396E+03</pdfrwt>
<totfact> 0.15979739E+03</totfact>
</mgrwt>
</event>
<event>
 8    1  0.2964543E-004  0.9546440E+02  0.7546771E-02  0.1290653E+00
          1   -1    0    0  501    0  0.00000000000E+00  0.00000000000E+00  0.79104271726E+02  0.79104271726E+02  0.00000000000E+00 0. -1.
         -1   -1    0    0    0  501 -0.00000000000E+00 -0.00000000000E+00 -0.11447551692E+03  0.11447551692E+03  0.00000000000E+00 0.  1.
         23    2    1    2    0    0 -0.90269346733E+01 -0.27469063340E+02 -0.12024242203E+02  0.95301949946E+02  0.90010245376E+02 0.  0.
         23    2    1    2    0    0  0.90269346733E+01  0.27469063340E+02 -0.23347002991E+02  0.98277838698E+02  0.90980305782E+02 0.  0.
          5    1    3    3  502    0  0.10661408426E+02 -0.56196917370E+02 -0.16885771882E+02  0.59824563882E+02  0.47000000000E+01 0. -1.
         -5    1    4    4    0  503  0.26858507807E+02  0.55454844605E+02 -0.12464512257E+02  0.63040251408E+02  0.47000000000E+01 0.  1.
          5    1    4    4  503    0 -0.17831573134E+02 -0.27985781265E+02 -0.10882490734E+02  0.35237587290E+02  0.47000000000E+01 0. -1.
         -5    1    3    3    0  502 -0.19688343100E+02  0.28727854030E+02  0.48615296790E+01  0.35477386065E+02  0.47000000000E+01 0.  1.
<mgrwt>
<rscale>  0 0.95232544E+02</rscale>
<asrwt>0</asrwt>
<pdfrwt beam="1">  1        1 0.12169888E-01 0.95464397E+02</pdfrwt>
<pdfrwt beam="2">  1       -1 0.17611618E-01 0.95464397E+02</pdfrwt>
<totfact> 0.11083069E+04</totfact>
</mgrwt>
</event>
<event>
 8    1  0.2964543E-004  0.1553182E+03  0.7546771E-02  0.1194478E+00
          3   -1    0    0  501    0  0.00000000000E+00  0.00000000000E+00  0.27221030324E+03  0.27221030324E+03  0.00000000000E+00 0. -1.
         -3   -1    0    0    0  501 -0.00000000000E+00 -0.00000000000E+00 -0.20304429931E+03  0.20304429931E+03  0.00000000000E+00 0.  1.
         23    2    1    2    0    0  0.12351968277E+03  0.22450275980E+02 -0.14432470942E+03  0.21202211124E+03  0.91447400084E+02 0.  0.
         23    2    1    2    0    0 -0.12351968277E+03 -0.22450275980E+02  0.21349071335E+03  0.26323249131E+03  0.89173610847E+02 0.  0.
          5    1    4    4  502    0 -0.12249977296E+03 -0.44432161131E+02  0.19218265392E+03  0.23224270448E+03  0.47000000000E+01 0. -1.
         -5    1    3    3    0  503  0.78519446913E+02  0.67055439719E+00 -0.14129549980E+03  0.16171660846E+03  0.47000000000E+01 0.  1.
          5    1    3    3  503    0  0.45000235854E+02  0.21779721583E+02 -0.30292096199E+01  0.50305502781E+02  0.47000000000E+01 0. -1.
         -5    1    4    4    0  502 -0.10199098057E+01  0.21981885151E+02  0.21308059434E+02  0.30989786828E+02  0.47000000000E+01 0.  1.
<mgrwt>
<rscale>  0 0.15498522E+03</rscale>
<asrwt>0</asrwt>
<pdfrwt beam="1">  1        3 0.41878508E-01 0.15531823E+03</pdfrwt>
<pdfrwt beam="2">  1       -3 0.31237584E-01 0.15531823E+03</pdfrwt>
<totfact> 0.13461898E+02</totfact>
</mgrwt>
</event>
<event>
 8    1  0.2964543E-004  0.1385274E+03  0.7546771E-02  0.1228788E+00
         -1   -1    0    0    0  501 -0.00000000000E+00  0.00000000000E+00  0.13140313830E+03  0.13140313830E+03  0.00000000000E+00 0.  1.
          1   -1    0    0  501    0  0.00000000000E+00 -0.00000000000E+00 -0.11473937543E+03  0.11473937543E+03  0.00000000000E+00 0. -1.
         23    2    1    2    0    0 -0.36105335683E+02 -0.40534810260E+02 -0.10278615137E+02  0.10501943775E+03  0.89312744152E+02 0.  0.
         23    2    1    2    0    0  0.36105335683E+02  0.40534810260E+02  0.26942378006E+02  0.14112307598E+03  0.12744867490E+03 0.  0.
          5    1    4    4  502    0  0.52839765669E+01  0.71482522520E+02 -0.22223383799E+02  0.75190692387E+02  0.47000000000E+01 0. -1.
         -5    1    3    3    0  503  0.14853877830E+02 -0.24978573951E+02 -0.35303361659E+02  0.45967207743E+02  0.47000000000E+01 0.  1.
          5    1    3    3  503    0 -0.50959213514E+02 -0.15556236309E+02  0.25024746522E+02  0.59052230005E+02  0.47000000000E+01 0. -1.
         -5    1    4    4    0  502  0.30821359117E+02 -0.30947712260E+02  0.49165761805E+02  0.65932383589E+02  0.47000000000E+01 0.  1.
<mgrwt>
<rscale>  0 0.12910604E+03</rscale>
<asrwt>0</asrwt>
<pdfrwt beam="1">  1        1 0.17652212E-01 0.13852736E+03</pdfrwt>
<pdfrwt beam="2">  1       -1 0.20215867E-01 0.13852736E+03</pdfrwt>
<totfact> 0.56775494E+03</totfact>
</mgrwt>
</event>
<event>
 8    1  0.2964543E-004  0.1357219E+03  0.7546771E-02  0.1222304E+00
          1   -1    0    0  501    0  0.00000000000E+00  0.00000000000E+00  0.15843018631E+03  0.15843018631E+03  0.00000000000E+00 0. -1.
         -1   -1    0    0    0  501 -0.00000000000E+00 -0.00000000000E+00 -0.49932956268E+03  0.49932956268E+03  0.00000000000E+00 0.  1.
         23    2    1    2    0    0  0.84788466716E+02 -0.23967348435E+02  0.11905903483E+03  0.18054217409E+03  0.10323228648E+03 0.  0.
         23    2    1    2    0    0 -0.84788466716E+02  0.23967348435E+02 -0.45995841120E+03  0.47721757489E+03  0.91713444352E+02 0.  0.
          5    1    3    3  502    0  0.10614644358E+03 -0.81647520801E+01  0.10692066072E+03  0.15095644521E+03  0.47000000000E+01 0. -1.
         -5    1    4    4    0  503 -0.44770478754E+02 -0.29445695790E+02 -0.13266733445E+03  0.14315780243E+03  0.47000000000E+01 0.  1.
          5    1    4    4  503    0 -0.40017987962E+02  0.53413044225E+02 -0.32729107675E+03  0.33405977246E+03  0.47000000000E+01 0. -1.
         -5    1    3    3    0  502 -0.21357976866E+02 -0.15802596354E+02  0.12138374109E+02  0.29585728880E+02  0.47000000000E+01 0.  1.
<mgrwt>
<rscale>  0 0.13353419E+03</rscale>
<asrwt>0</asrwt>
<pdfrwt beam="1">  1        1 0.24373875E-01 0.13572186E+03</pdfrwt>
<pdfrwt beam="2">  1       -1 0.76819931E-01 0.13572186E+03</pdfrwt>
<totfact> 0.35438211E+02</totfact>
</mgrwt>
</event>
<event>
 8    1  0.2964543E-004  0.1048347E+03  0.7546771E-02  0.1274655E+00
          1   -1    0    0  501    0  0.00000000000E+00  0.00000000000E+00  0.12553666242E+02  0.12553666242E+02  0.00000000000E+00 0. -1.
         -1   -1    0    0    0  501 -0.00000000000E+00 -0.00000000000E+00 -0.92886328336E+03  0.92886328336E+03  0.00000000000E+00 0.  1.
         23    2    1    2    0    0  0.26664534077E+02  0.47030390429E+02 -0.27276133132E+03  0.28938573583E+03  0.80140534323E+02 0.  0.
         23    2    1    2    0    0 -0.26664534077E+02 -0.47030390429E+02 -0.64354828580E+03  0.65203121377E+03  0.89818998928E+02 0.  0.
          5    1    4    4  502    0 -0.11555322314E+02 -0.73193408980E+02 -0.45990018795E+03  0.46585520655E+03  0.47000000000E+01 0. -1.
         -5    1    3    3    0  503  0.10640327993E+02  0.68149508713E+02 -0.18092185095E+03  0.19368112523E+03  0.47000000000E+01 0.  1.
          5    1    3    3  503    0  0.16024206084E+02 -0.21119118284E+02 -0.91839480366E+02  0.95704610608E+02  0.47000000000E+01 0. -1.
         -5    1    4    4    0  502 -0.15109211763E+02  0.26163018551E+02 -0.18364809785E+03  0.18617600722E+03  0.47000000000E+01 0.  1.
<mgrwt>
<rscale>  0 0.10273140E+03</rscale>
<asrwt>0</asrwt>
<pdfrwt beam="1">  1        1 0.19313331E-02 0.10483467E+03</pdfrwt>
<pdfrwt beam="2">  1       -1 0.14290205E+00 0.10483467E+03</pdfrwt>
<totfact> 0.25895754E+03</totfact>
</mgrwt>
</event>
<event>
 8    1  0.2964543E-004  0.1157545E+03  0.7546771E-02  0.1252597E+00
          1   -1    0    0  501    0  0.00000000000E+00  0.00000000000E+00  0.34896089328E+03  0.34896089328E+03  0.00000000000E+00 0. -1.
         -1   -1    0    0    0  501 -0.00000000000E+00 -0.00000000000E+00 -0.36727666438E+02  0.36727666438E+02  0.00000000000E+00 0.  1.
         23    2    1    2    0    0 -0.68594540145E+02 -0.97698452999E+01  0.15970369136E+03  0.19420915377E+03  0.86088707512E+02 0.  0.
         23    2    1    2    0    0  0.68594540145E+02  0.97698452999E+01  0.15252953549E+03  0.19147940595E+03  0.92727789205E+02 0.  0.
          5    1    3    3  502    0 -0.59707747156E+02  0.27529486913E+02  0.12899192588E+03  0.14485818811E+03  0.47000000000E+01 0. -1.
         -5    1    4    4    0  503  0.60690877220E+02 -0.32221621918E+02  0.11674556163E+03  0.13554789433E+03  0.47000000000E+01 0.  1.
          5    1    4    4  503    0  0.79036629252E+01  0.41991467218E+02  0.35783973855E+02  0.55931511616E+02  0.47000000000E+01 0. -1.
         -5    1    3    3    0  502 -0.88867929892E+01 -0.37299332212E+02  0.30711765474E+02  0.49350965661E+02  0.47000000000E+01 0.  1.
<mgrwt>
<rscale>  0 0.11441986E+03</rscale>
<asrwt>0</asrwt>
<pdfrwt beam="1">  1        1 0.53686289E-01 0.11575450E+03</pdfrwt>
<pdfrwt beam="2">  1       -1 0.56504105E-02 0.11575450E+03</pdfrwt>
<totfact> 0.98955101E+03</totfact>
</mgrwt>
</event>
<event>
 8    1  0.2964543E-004  0.9891394E+02  0.7546771E-02  0.1283147E+00
          1   -1    0    0  501    0  0.00000000000E+00  0.00000000000E+00  0.18603925789E+02  0.18603925789E+02  0.00000000000E+00 0. -1.
         -1   -1    0    0    0  501 -0.00000000000E+00 -0.00000000000E+00 -0.67443569051E+03  0.67443569051E+03  0.00000000000E+00 0.  1.
         23    2    1    2    0    0 -0.37447650834E+02 -0.76759699827E+01 -0.16366997947E+03  0.19123762813E+03  0.91228949157E+02 0.  0.
         23    2    1    2    0    0  0.37447650834E+02  0.76759699827E+01 -0.49216178525E+03  0.50180198817E+03  0.90115289497E+02 0.  0.
          5    1    3    3  502    0  0.10620031882E+02 -0.28188977384E+02 -0.15810404702E+02  0.34343302404E+02  0.47000000000E+01 0. -1.
         -5    1    4    4    0  503 -0.23489271822E+02  0.24695910814E+02 -0.16635001322E+03  0.16987068847E+03  0.47000000000E+01 0.  1.
          5    1    4    4  503    0  0.60936922657E+02 -0.17019940831E+02 -0.32581177203E+03  0.33193129971E+03  0.47000000000E+01 0. -1.
         -5    1    3    3    0  502 -0.48067682716E+02  0.20513007402E+02 -0.14785957476E+03  0.15689432572E+03  0.47000000000E+01 0.  1.
<mgrwt>
<rscale>  0 0.98656392E+02</rscale>
<asrwt>0</asrwt>
<pdfrwt beam="1">  1        1 0.28621426E-02 0.98913944E+02</pdfrwt>
<pdfrwt beam="2">  1       -1 0.10375933E+00 0.98913944E+02</pdfrwt>
<totfact> 0.31829072E+03</totfact>
</mgrwt>
</event>
<event>
 8    1  0.2964543E-004  0.1151479E+03  0.7546771E-02  0.1257637E+00
         -3   -1    0    0    0  501 -0.00000000000E+00  0.00000000000E+00  0.22572595731E+02  0.22572595731E+02  0.00000000000E+00 0.  1.
          3   -1    0    0  501    0  0.00000000000E+00 -0.00000000000E+00 -0.71063890014E+03  0.71063890014E+03  0.00000000000E+00 0. -1.
         23    2    1    2    0    0 -0.29761782641E+02  0.23147707523E+02 -0.17032095216E+03  0.20559245414E+03  0.10880004773E+03 0.  0.
         23    2    1    2    0    0  0.29761782641E+02 -0.23147707523E+02 -0.51774535225E+03  0.52761904173E+03  0.94339935075E+02 0.  0.
          5    1    4    4  502    0  0.37092700905E+01 -0.57295627532E+02 -0.26298541805E+03  0.26922103879E+03  0.47000000000E+01 0. -1.
         -5    1    4    4    0  502  0.26052512550E+02  0.34147920009E+02 -0.25475993420E+03  0.25839800294E+03  0.47000000000E+01 0.  1.
          5    1    3    3  503    0 -0.27786532814E+02  0.56712688418E+02 -0.15669815747E+03  0.16901131023E+03  0.47000000000E+01 0. -1.
         -5    1    3    3    0  503 -0.19752498272E+01 -0.33564980895E+02 -0.13622794692E+02  0.36581143908E+02  0.47000000000E+01 0.  1.
<mgrwt>
<rscale>  0 0.11159900E+03</rscale>
<asrwt>0</asrwt>
<pdfrwt beam="1">  1        3 0.10932905E+00 0.11514786E+03</pdfrwt>
<pdfrwt beam="2">  1       -3 0.34727074E-02 0.11514786E+03</pdfrwt>
<totfact> 0.67541678E+02</totfact>
</mgrwt>
</event>
<event>
 8    1  0.2964543E-004  0.1050907E+03  0.7546771E-02  0.1270771E+00
          1   -1    0    0  501    0  0.00000000000E+00  0.00000000000E+00  0.33092661203E+03  0.33092661203E+03  0.00000000000E+00 0. -1.
         -1   -1    0    0    0  501 -0.00000000000E+00 -0.00000000000E+00 -0.37520411323E+02  0.37520411323E+02  0.00000000000E+00 0.  1.
         23    2    1    2    0    0 -0.21117297923E+02 -0.45063987804E+02  0.82697726161E+02  0.13372720993E+03  0.92559977832E+02 0.  0.
         23    2    1    2    0    0  0.21117297923E+02  0.45063987804E+02  0.21070847454E+03  0.23471981341E+03  0.90656639564E+02 0.  0.
          5    1    4    4  502    0 -0.25468391323E+02  0.50027506349E+02  0.11466802669E+03  0.12775850928E+03  0.47000000000E+01 0. -1.
         -5    1    4    4    0  502  0.46585689246E+02 -0.49635185451E+01  0.96040447852E+02  0.10696130414E+03  0.47000000000E+01 0.  1.
          5    1    3    3  503    0 -0.25113420592E+02  0.24217495909E+02  0.32893721890E+02  0.48179434842E+02  0.47000000000E+01 0. -1.
         -5    1    3    3    0  503  0.39961226681E+01 -0.69281483713E+02  0.49804004270E+02  0.85547775092E+02  0.47000000000E+01 0.  1.
<mgrwt>
<rscale>  0 0.10467005E+03</rscale>
<asrwt>0</asrwt>
<pdfrwt beam="1">  1        1 0.50911784E-01 0.10509069E+03</pdfrwt>
<pdfrwt beam="2">  1       -1 0.57723712E-02 0.10509069E+03</pdfrwt>
<totfact> 0.10159143E+04</totfact>
</mgrwt>
</event>
<event>
 8    1  0.2964543E-004  0.1303828E+03  0.7546771E-02  0.1236762E+00
          1   -1    0    0  501    0  0.00000000000E+00  0.00000000000E+00  0.47548931047E+02  0.47548931047E+02  0.00000000000E+00 0. -1.
         -1   -1    0    0    0  501 -0.00000000000E+00 -0.00000000000E+00 -0.60082239841E+03  0.60082239841E+03  0.00000000000E+00 0.  1.
         23    2    1    2    0    0  0.24182714658E+02 -0.48528462011E+02 -0.52117103126E+03  0.53723264177E+03  0.11857424782E+03 0.  0.
         23    2    1    2    0    0 -0.24182714658E+02  0.48528462011E+02 -0.32102436101E+02  0.11113868768E+03  0.91550129346E+02 0.  0.
          5    1    4    4  502    0 -0.50052236374E+02  0.51213705900E+02 -0.30017978279E+01  0.71827368240E+02  0.47000000000E+01 0. -1.
         -5    1    4    4    0  502  0.25869521716E+02 -0.26852438887E+01 -0.29100638273E+02  0.39311319445E+02  0.47000000000E+01 0.  1.
          5    1    3    3  503    0  0.62196039313E+02 -0.85637754080E+01 -0.16169775032E+03  0.17352215424E+03  0.47000000000E+01 0. -1.
         -5    1    3    3    0  503 -0.38013324655E+02 -0.39964686603E+02 -0.35947328094E+03  0.36371048753E+03  0.47000000000E+01 0.  1.
<mgrwt>
<rscale>  0 0.12392300E+03</rscale>
<asrwt>0</asrwt>
<pdfrwt beam="1">  1        1 0.73152197E-02 0.13038277E+03</pdfrwt>
<pdfrwt beam="2">  1       -1 0.92434220E-01 0.13038277E+03</pdfrwt>
<totfact> 0.11556694E+03</totfact>
</mgrwt>
</event>
<event>
 8    1  0.2964543E-004  0.9168126E+02  0.7546771E-02  0.1298844E+00
         -2   -1    0    0    0  501 -0.00000000000E+00  0.00000000000E+00  0.36099815255E+03  0.36099815255E+03  0.00000000000E+00 0.  1.
          2   -1    0    0  501    0  0.00000000000E+00 -0.00000000000E+00 -0.24037830909E+02  0.24037830909E+02  0.00000000000E+00 0. -1.
         23    2    1    2    0    0 -0.20238720491E+02 -0.33129926113E+01  0.13427390640E+03  0.16258823745E+03  0.89358107008E+02 0.  0.
         23    2    1    2    0    0  0.20238720491E+02  0.33129926113E+01  0.20268641524E+03  0.22244774601E+03  0.89334400189E+02 0.  0.
          5    1    3    3  502    0 -0.32199661950E+02  0.16410476721E+02  0.12452758426E+02  0.38513415433E+02  0.47000000000E+01 0. -1.
         -5    1    3    3    0  502  0.11960941460E+02 -0.19723469332E+02  0.12182114798E+03  0.12407482201E+03  0.47000000000E+01 0.  1.
          5    1    4    4  503    0 -0.31976192753E+02  0.60825124017E+01  0.12064217303E+03  0.12504438322E+03  0.47000000000E+01 0. -1.
         -5    1    4    4    0  503  0.52214913243E+02 -0.27695197903E+01  0.82044242203E+02  0.97403362794E+02  0.47000000000E+01 0.  1.
<mgrwt>
<rscale>  0 0.91675481E+02</rscale>
<asrwt>0</asrwt>
<pdfrwt beam="1">  1        2 0.36981281E-02 0.91681258E+02</pdfrwt>
<pdfrwt beam="2">  1       -2 0.55538173E-01 0.91681258E+02</pdfrwt>
<totfact> 0.66418556E+03</totfact>
</mgrwt>
</event>
<event>
 8    1  0.2964543E-004  0.2022797E+03  0.7546771E-02  0.1147937E+00
         -2   -1    0    0    0  501 -0.00000000000E+00  0.00000000000E+00  0.13391476852E+03  0.13391476852E+03  0.00000000000E+00 0.  1.
          2   -1    0    0  501    0  0.00000000000E+00 -0.00000000000E+00 -0.37910191393E+03  0.37910191393E+03  0.00000000000E+00 0. -1.
         23    2    1    2    0    0  0.10344918889E+03  0.14745977692E+03 -0.23605219626E+03  0.31053084862E+03  0.90899109435E+02 0.  0.
         23    2    1    2    0    0 -0.10344918889E+03 -0.14745977692E+03 -0.91349491500E+01  0.20248583383E+03  0.92037737457E+02 0.  0.
          5    1    4    4  502    0 -0.13265361374E+02 -0.77729180908E+02  0.25904549973E+02  0.83132009998E+02  0.47000000000E+01 0. -1.
         -5    1    4    4    0  502 -0.90183827512E+02 -0.69730596011E+02 -0.35039499123E+02  0.11935382383E+03  0.47000000000E+01 0.  1.
          5    1    3    3  503    0  0.92501920462E+02  0.95234596997E+02 -0.21549892808E+03  0.25315629906E+03  0.47000000000E+01 0. -1.
         -5    1    3    3    0  503  0.10947268424E+02  0.52225179922E+02 -0.20553268186E+02  0.57374549558E+02  0.47000000000E+01 0.  1.
<mgrwt>
<rscale>  0 0.20215067E+03</rscale>
<asrwt>0</asrwt>
<pdfrwt beam="1">  1        2 0.58323371E-01 0.20227967E+03</pdfrwt>
<pdfrwt beam="2">  1       -2 0.20602272E-01 0.20227967E+03</pdfrwt>
<totfact> 0.16784255E+03</totfact>
</mgrwt>
</event>
<event>
 8    1  0.2964543E-004  0.1090774E+03  0.7546771E-02  0.1264917E+00
         -4   -1    0    0    0  501 -0.00000000000E+00  0.00000000000E+00  0.21072875188E+03  0.21072875188E+03  0.00000000000E+00 0.  1.
          4   -1    0    0  501    0  0.00000000000E+00 -0.00000000000E+00 -0.55562114891E+02  0.55562114891E+02  0.00000000000E+00 0. -1.
         23    2    1    2    0    0  0.46350370451E+02  0.16590232885E+02  0.54939974428E+02  0.12213220269E+03  0.97335920791E+02 0.  0.
         23    2    1    2    0    0 -0.46350370451E+02 -0.16590232885E+02  0.10022666256E+03  0.14415866407E+03  0.91174250051E+02 0.  0.
          5    1    3    3  502    0  0.73169764616E+02  0.30583342370E+01  0.20505998437E+02  0.76195497467E+02  0.47000000000E+01 0. -1.
         -5    1    4    4    0  503 -0.66043433637E+02 -0.29633352165E+02  0.48957544326E+02  0.87514580691E+02  0.47000000000E+01 0.  1.
          5    1    4    4  503    0  0.19693063186E+02  0.13043119280E+02  0.51269118230E+02  0.56644083383E+02  0.47000000000E+01 0. -1.
         -5    1    3    3    0  502 -0.26819394165E+02  0.13531898648E+02  0.34433975991E+02  0.45936705225E+02  0.47000000000E+01 0.  1.
<mgrwt>
<rscale>  0 0.10768570E+03</rscale>
<asrwt>0</asrwt>
<pdfrwt beam="1">  1        4 0.85480178E-02 0.10907738E+03</pdfrwt>
<pdfrwt beam="2">  1       -4 0.32419808E-01 0.10907738E+03</pdfrwt>
<totfact> 0.14200178E+03</totfact>
</mgrwt>
</event>
<event>
 8    1  0.2964543E-004  0.1528861E+03  0.7546771E-02  0.1197082E+00
          1   -1    0    0  501    0  0.00000000000E+00  0.00000000000E+00  0.40671741564E+03  0.40671741564E+03  0.00000000000E+00 0. -1.
         -1   -1    0    0    0  501 -0.00000000000E+00 -0.00000000000E+00 -0.57384381930E+02  0.57384381930E+02  0.00000000000E+00 0.  1.
         23    2    1    2    0    0 -0.83010518362E+02 -0.88772304057E+02  0.18192048560E+03  0.23763252578E+03  0.92751744457E+02 0.  0.
         23    2    1    2    0    0  0.83010518362E+02  0.88772304057E+02  0.16741254811E+03  0.22646927179E+03  0.92141747734E+02 0.  0.
          5    1    3    3  502    0 -0.26615432094E+00 -0.59807165217E+02  0.10489801166E+03  0.12084142792E+03  0.47000000000E+01 0. -1.
         -5    1    3    3    0  502 -0.82744364041E+02 -0.28965138840E+02  0.77022473937E+02  0.11679109786E+03  0.47000000000E+01 0.  1.
          5    1    4    4  503    0  0.19161868292E+02  0.77164835015E+02  0.12689442753E+03  0.14981947369E+03  0.47000000000E+01 0.  1.
         -5    1    4    4    0  503  0.63848650069E+02  0.11607469042E+02  0.40518120573E+02  0.76649798095E+02  0.47000000000E+01 0. -1.
<mgrwt>
<rscale>  0 0.15279367E+03</rscale>
<asrwt>0</asrwt>
<pdfrwt beam="1">  1        1 0.62571908E-01 0.15288608E+03</pdfrwt>
<pdfrwt beam="2">  1       -1 0.88283667E-02 0.15288608E+03</pdfrwt>
<totfact> 0.42566093E+03</totfact>
</mgrwt>
</event>
<event>
 8    1  0.2964543E-004  0.1326906E+03  0.7546771E-02  0.1225146E+00
          1   -1    0    0  501    0  0.00000000000E+00  0.00000000000E+00  0.70342217728E+02  0.70342217728E+02  0.00000000000E+00 0. -1.
         -1   -1    0    0    0  501 -0.00000000000E+00 -0.00000000000E+00 -0.24341045480E+03  0.24341045480E+03  0.00000000000E+00 0.  1.
         23    2    1    2    0    0 -0.57447771712E+02 -0.72287934440E+02 -0.73199933591E+02  0.14767898444E+03  0.89022807348E+02 0.  0.
         23    2    1    2    0    0  0.57447771712E+02  0.72287934440E+02 -0.99868303480E+02  0.16607368808E+03  0.95294280485E+02 0.  0.
          5    1    4    4  502    0  0.44206857772E+02  0.94758444719E+02 -0.89141518333E+02  0.13748348777E+03  0.47000000000E+01 0. -1.
         -5    1    3    3    0  503 -0.39150072148E+02 -0.58872105470E+02 -0.93195595485E+02  0.11707331878E+03  0.47000000000E+01 0.  1.
          5    1    3    3  503    0 -0.18297699564E+02 -0.13415828970E+02  0.19995661894E+02  0.30605665666E+02  0.47000000000E+01 0. -1.
         -5    1    4    4    0  502  0.13240913940E+02 -0.22470510279E+02 -0.10726785147E+02  0.28590200310E+02  0.47000000000E+01 0.  1.
<mgrwt>
<rscale>  0 0.13156902E+03</rscale>
<asrwt>0</asrwt>
<pdfrwt beam="1">  1        1 0.10821880E-01 0.13269059E+03</pdfrwt>
<pdfrwt beam="2">  1       -1 0.37447762E-01 0.13269059E+03</pdfrwt>
<totfact> 0.38355709E+03</totfact>
</mgrwt>
</event>
<event>
 8    1  0.2964543E-004  0.1248780E+03  0.7546771E-02  0.1236523E+00
         -2   -1    0    0    0  501 -0.00000000000E+00  0.00000000000E+00  0.17058162769E+03  0.17058162769E+03  0.00000000000E+00 0.  1.
          2   -1    0    0  501    0  0.00000000000E+00 -0.00000000000E+00 -0.18961378191E+03  0.18961378191E+03  0.00000000000E+00 0. -1.
         23    2    1    2    0    0  0.23204840019E+02 -0.76220198668E+02  0.12154410032E+03  0.17426269168E+03  0.96158900283E+02 0.  0.
         23    2    1    2    0    0 -0.23204840019E+02  0.76220198668E+02 -0.14057625454E+03  0.18593271792E+03  0.91985373653E+02 0.  0.
          5    1    3    3  502    0 -0.26982728439E+02  0.39162206698E+00  0.84642557563E+01  0.28669751087E+02  0.47000000000E+01 0. -1.
         -5    1    4    4    0  503 -0.48361687474E+02  0.18182757775E+02 -0.34386677419E+02  0.62241457884E+02  0.47000000000E+01 0.  1.
          5    1    4    4  503    0  0.25156847455E+02  0.58037440893E+02 -0.10618957712E+03  0.12369126004E+03  0.47000000000E+01 0. -1.
         -5    1    3    3    0  502  0.50187568458E+02 -0.76611820735E+02  0.11307984456E+03  0.14559294059E+03  0.47000000000E+01 0.  1.
<mgrwt>
<rscale>  0 0.12407414E+03</rscale>
<asrwt>0</asrwt>
<pdfrwt beam="1">  1        2 0.29171351E-01 0.12487801E+03</pdfrwt>
<pdfrwt beam="2">  1       -2 0.26243327E-01 0.12487801E+03</pdfrwt>
<totfact> 0.22809765E+03</totfact>
</mgrwt>
</event>
<event>
 8    1  0.2964543E-004  0.1014820E+03  0.7546771E-02  0.1279621E+00
          2   -1    0    0  501    0  0.00000000000E+00  0.00000000000E+00  0.54374267400E+03  0.54374267400E+03  0.00000000000E+00 0. -1.
         -2   -1    0    0    0  501 -0.00000000000E+00 -0.00000000000E+00 -0.18342603685E+02  0.18342603685E+02  0.00000000000E+00 0.  1.
         23    2    1    2    0    0  0.21483499514E+02  0.21274718575E+02  0.30108896096E+03  0.31773128211E+03  0.96873375157E+02 0.  0.
         23    2    1    2    0    0 -0.21483499514E+02 -0.21274718575E+02  0.22431110936E+03  0.24435399558E+03  0.92082826704E+02 0.  0.
          5    1    4    4  502    0  0.33549794192E+02  0.67332363894E+01  0.69321289703E+02  0.77449702186E+02  0.47000000000E+01 0. -1.
         -5    1    4    4    0  502 -0.55033293706E+02 -0.28007954965E+02  0.15498981965E+03  0.16690429339E+03  0.47000000000E+01 0.  1.
          5    1    3    3  503    0  0.39329662477E+02  0.32147528783E+01  0.28400085946E+03  0.28676773731E+03  0.47000000000E+01 0. -1.
         -5    1    3    3    0  503 -0.17846162963E+02  0.18059965697E+02  0.17088101498E+02  0.30963544795E+02  0.47000000000E+01 0.  1.
<mgrwt>
<rscale>  0 0.10032167E+03</rscale>
<asrwt>0</asrwt>
<pdfrwt beam="1">  1        2 0.83652707E-01 0.10148204E+03</pdfrwt>
<pdfrwt beam="2">  1       -2 0.28219394E-02 0.10148204E+03</pdfrwt>
<totfact> 0.23971239E+04</totfact>
</mgrwt>
</event>
<event>
 8    1  0.2964543E-004  0.1260660E+03  0.7546771E-02  0.1233939E+00
          1   -1    0    0  501    0  0.00000000000E+00  0.00000000000E+00  0.14328244038E+03  0.14328244038E+03  0.00000000000E+00 0. -1.
         -1   -1    0    0    0  501 -0.00000000000E+00 -0.00000000000E+00 -0.40877886126E+03  0.40877886126E+03  0.00000000000E+00 0.  1.
         23    2    1    2    0    0  0.83755175624E+02 -0.12090331396E+02 -0.36864858155E+03  0.38917178779E+03  0.91606758379E+02 0.  0.
         23    2    1    2    0    0 -0.83755175624E+02  0.12090331396E+02  0.10315216067E+03  0.16288951384E+03  0.93442602232E+02 0.  0.
          5    1    3    3  502    0  0.65101595164E+02 -0.38932513845E+02 -0.15116057681E+03  0.16919092265E+03  0.47000000000E+01 0. -1.
         -5    1    4    4    0  503 -0.39056145310E+02 -0.83171924483E+01 -0.82464250961E+01  0.41044508812E+02  0.47000000000E+01 0.  1.
          5    1    4    4  503    0 -0.44699030313E+02  0.20407523844E+02  0.11139858576E+03  0.12184500503E+03  0.47000000000E+01 0. -1.
         -5    1    3    3    0  502  0.18653580459E+02  0.26842182449E+02 -0.21748800474E+03  0.21998086514E+03  0.47000000000E+01 0.  1.
<mgrwt>
<rscale>  0 0.12572591E+03</rscale>
<asrwt>0</asrwt>
<pdfrwt beam="1">  1        1 0.22043452E-01 0.12606596E+03</pdfrwt>
<pdfrwt beam="2">  1       -1 0.62889055E-01 0.12606596E+03</pdfrwt>
<totfact> 0.59620225E+02</totfact>
</mgrwt>
</event>
<event>
 8    1  0.2964543E-004  0.1029690E+03  0.7546771E-02  0.1275226E+00
         -1   -1    0    0    0  501 -0.00000000000E+00  0.00000000000E+00  0.11378600696E+03  0.11378600696E+03  0.00000000000E+00 0.  1.
          1   -1    0    0  501    0  0.00000000000E+00 -0.00000000000E+00 -0.56484695925E+03  0.56484695925E+03  0.00000000000E+00 0. -1.
         23    2    1    2    0    0 -0.10441194201E+02 -0.43629437697E+02 -0.53657318280E+03  0.54636379006E+03  0.92682599343E+02 0.  0.
         23    2    1    2    0    0  0.10441194201E+02  0.43629437697E+02  0.85512230503E+02  0.13226917615E+03  0.90389418761E+02 0.  0.
          5    1    4    4  502    0  0.33121257874E+02 -0.11915805805E+02  0.12491569510E+02  0.37644833111E+02  0.47000000000E+01 0. -1.
         -5    1    3    3    0  503 -0.40424681507E+02 -0.56524848666E+02 -0.34273826428E+03  0.34974393661E+03  0.47000000000E+01 0. -1.
          5    1    3    3  503    0  0.29983487307E+02  0.12895410969E+02 -0.19383491852E+03  0.19661985345E+03  0.47000000000E+01 0.  1.
         -5    1    4    4    0  502 -0.22680063673E+02  0.55545243502E+02  0.73020660993E+02  0.94624343040E+02  0.47000000000E+01 0.  1.
<mgrwt>
<rscale>  0 0.10245028E+03</rscale>
<asrwt>0</asrwt>
<pdfrwt beam="1">  1        1 0.86899533E-01 0.10296898E+03</pdfrwt>
<pdfrwt beam="2">  1       -1 0.17505539E-01 0.10296898E+03</pdfrwt>
<totfact> 0.95552673E+02</totfact>
</mgrwt>
</event>
<event>
 7    1  0.2964543E-004  0.2213303E+03  0.7546771E-02  0.1145584E+00
         -1   -1    0    0    0  501 -0.00000000000E+00  0.00000000000E+00  0.15933988333E+03  0.15933988333E+03  0.00000000000E+00 0.  1.
          1   -1    0    0  501    0  0.00000000000E+00 -0.00000000000E+00 -0.46571024656E+03  0.46571024656E+03  0.00000000000E+00 0. -1.
         23    2    1    2    0    0  0.12297230756E+03 -0.56191106983E+02  0.78689520142E+02  0.18091251634E+03  0.90871717595E+02 0.  0.
          5    1    1    2  502    0 -0.26875765168E+02 -0.33334599785E+02 -0.25719543679E+03  0.26077784607E+03  0.47000000000E+01 0. -1.
         -5    1    1    2    0  502 -0.96096542392E+02  0.89525706768E+02 -0.12786444657E+03  0.18335976748E+03  0.47000000000E+01 0.  1.
          5    1    3    3  503    0  0.44841858743E+02 -0.68510410353E+02  0.52856812947E+02  0.97572543767E+02  0.47000000000E+01 0. -1.
         -5    1    3    3    0  503  0.78130448817E+02  0.12319303370E+02  0.25832707195E+02  0.83339972575E+02  0.47000000000E+01 0.  1.
<mgrwt>
<rscale>  0 0.20500420E+03</rscale>
<asrwt>0</asrwt>
<pdfrwt beam="1">  1        1 0.71647730E-01 0.22133031E+03</pdfrwt>
<pdfrwt beam="2">  1       -1 0.24513828E-01 0.22133031E+03</pdfrwt>
<totfact> 0.71736134E+02</totfact>
</mgrwt>
</event>
<event>
 8    1  0.2964543E-004  0.1018520E+03  0.7546771E-02  0.1279492E+00
          2   -1    0    0  501    0  0.00000000000E+00  0.00000000000E+00  0.65899806859E+03  0.65899806859E+03  0.00000000000E+00 0. -1.
         -2   -1    0    0    0  501 -0.00000000000E+00 -0.00000000000E+00 -0.68689611898E+02  0.68689611898E+02  0.00000000000E+00 0.  1.
         23    2    1    2    0    0 -0.24259014088E+02 -0.20711619442E+02 -0.25035981501E+02  0.10488393718E+03  0.96728325556E+02 0.  0.
         23    2    1    2    0    0  0.24259014088E+02  0.20711619442E+02  0.61534443819E+03  0.62280374330E+03  0.90654586844E+02 0.  0.
          5    1    4    4  502    0  0.44345100000E+02  0.45344415141E+02  0.43399567564E+03  0.43863075628E+03  0.47000000000E+01 0. -1.
         -5    1    3    3    0  503 -0.50553083695E+02  0.14219771141E+02 -0.29948651987E+02  0.60636852806E+02  0.47000000000E+01 0.  1.
          5    1    3    3  503    0  0.26294069607E+02 -0.34931390583E+02  0.49126704858E+01  0.44247084377E+02  0.47000000000E+01 0. -1.
         -5    1    4    4    0  502 -0.20086085912E+02 -0.24632795699E+02  0.18134876255E+03  0.18417298702E+03  0.47000000000E+01 0.  1.
<mgrwt>
<rscale>  0 0.10038324E+03</rscale>
<asrwt>0</asrwt>
<pdfrwt beam="1">  1        2 0.10138431E+00 0.10185205E+03</pdfrwt>
<pdfrwt beam="2">  1       -2 0.10567633E-01 0.10185205E+03</pdfrwt>
<totfact> 0.26592842E+03</totfact>
</mgrwt>
</event>
<event>
 8    1  0.2964543E-004  0.9243255E+02  0.7546771E-02  0.1297198E+00
         -2   -1    0    0    0  501 -0.00000000000E+00  0.00000000000E+00  0.24312973133E+03  0.24312973133E+03  0.00000000000E+00 0.  1.
          2   -1    0    0  501    0  0.00000000000E+00 -0.00000000000E+00 -0.35895815881E+02  0.35895815881E+02  0.00000000000E+00 0. -1.
         23    2    1    2    0    0  0.45335075819E+01 -0.95783212994E+01  0.12509769080E+03  0.15554166134E+03  0.91823086633E+02 0.  0.
         23    2    1    2    0    0 -0.45335075819E+01  0.95783212994E+01  0.82136224643E+02  0.12348388587E+03  0.91594834680E+02 0.  0.
          5    1    4    4  502    0 -0.12805806978E+01 -0.26938364283E+02 -0.58996367083E+01  0.28003768862E+02  0.47000000000E+01 0. -1.
         -5    1    4    4    0  502 -0.32529268841E+01  0.36516685583E+02  0.88035861351E+02  0.95480117004E+02  0.47000000000E+01 0.  1.
          5    1    3    3  503    0  0.25034127883E+02 -0.40960380355E+02  0.97428187367E+02  0.10871431374E+03  0.47000000000E+01 0. -1.
         -5    1    3    3    0  503 -0.20500620301E+02  0.31382059055E+02  0.27669503436E+02  0.46827347604E+02  0.47000000000E+01 0.  1.
<mgrwt>
<rscale>  0 0.92375811E+02</rscale>
<asrwt>0</asrwt>
<pdfrwt beam="1">  1        2 0.55224334E-02 0.92432549E+02</pdfrwt>
<pdfrwt beam="2">  1       -2 0.37404573E-01 0.92432549E+02</pdfrwt>
<totfact> 0.84589618E+03</totfact>
</mgrwt>
</event>
<event>
 8    1  0.2964543E-004  0.1491076E+03  0.7546771E-02  0.1201888E+00
         -3   -1    0    0    0  501 -0.00000000000E+00  0.00000000000E+00  0.70005417646E+03  0.70005417646E+03  0.00000000000E+00 0.  1.
          3   -1    0    0  501    0  0.00000000000E+00 -0.00000000000E+00 -0.76682967614E+02  0.76682967614E+02  0.00000000000E+00 0. -1.
         23    2    1    2    0    0  0.34293676874E+02 -0.11243148769E+03  0.61008753064E+03  0.62804447471E+03  0.91739694043E+02 0.  0.
         23    2    1    2    0    0 -0.34293676874E+02  0.11243148769E+03  0.13283678205E+02  0.14869266937E+03  0.90089722606E+02 0.  0.
          5    1    3    3  502    0  0.42753597215E+02 -0.40355811906E+02  0.13360078121E+03  0.14604013273E+03  0.47000000000E+01 0. -1.
         -5    1    4    4    0  503 -0.24440602800E+02 -0.53768387341E+01  0.16490608975E+02  0.30336177155E+02  0.47000000000E+01 0.  1.
          5    1    4    4  503    0 -0.98530740734E+01  0.11780832643E+03 -0.32069307701E+01  0.11835649222E+03  0.47000000000E+01 0. -1.
         -5    1    3    3    0  502 -0.84599203413E+01 -0.72075675789E+02  0.47648674944E+03  0.48200434197E+03  0.47000000000E+01 0.  1.
<mgrwt>
<rscale>  0 0.14885456E+03</rscale>
<asrwt>0</asrwt>
<pdfrwt beam="1">  1        3 0.11797380E-01 0.14910757E+03</pdfrwt>
<pdfrwt beam="2">  1       -3 0.10770064E+00 0.14910757E+03</pdfrwt>
<totfact> 0.10120784E+02</totfact>
</mgrwt>
</event>
<event>
 8    1  0.2964543E-004  0.1048884E+03  0.7546771E-02  0.1270722E+00
          2   -1    0    0  501    0  0.00000000000E+00  0.00000000000E+00  0.90095431069E+02  0.90095431069E+02  0.00000000000E+00 0. -1.
         -2   -1    0    0    0  501 -0.00000000000E+00 -0.00000000000E+00 -0.16060487211E+03  0.16060487211E+03  0.00000000000E+00 0.  1.
         23    2    1    2    0    0  0.23594428194E+02  0.45588156236E+02 -0.97235544551E+02  0.14246043640E+03  0.90582822783E+02 0.  0.
         23    2    1    2    0    0 -0.23594428194E+02 -0.45588156236E+02  0.26726103508E+02  0.10823986678E+03  0.91469159404E+02 0.  0.
          5    1    3    3  502    0  0.43374303058E+02 -0.36080350344E+01 -0.18744417561E+02  0.47621332113E+02  0.47000000000E+01 0. -1.
         -5    1    3    3    0  502 -0.19779874863E+02  0.49196191270E+02 -0.78491126990E+02  0.94839104283E+02  0.47000000000E+01 0.  1.
          5    1    4    4  503    0 -0.51491893932E+02 -0.15474609843E+02 -0.76243251473E+01  0.54507788658E+02  0.47000000000E+01 0. -1.
         -5    1    4    4    0  503  0.27897465738E+02 -0.30113546393E+02  0.34350428655E+02  0.53732078126E+02  0.47000000000E+01 0.  1.
<mgrwt>
<rscale>  0 0.10469489E+03</rscale>
<asrwt>0</asrwt>
<pdfrwt beam="1">  1        2 0.13860836E-01 0.10488844E+03</pdfrwt>
<pdfrwt beam="2">  1       -2 0.24708441E-01 0.10488844E+03</pdfrwt>
<totfact> 0.57928217E+03</totfact>
</mgrwt>
</event>
<event>
 7    1  0.2964543E-004  0.1612315E+03  0.7546771E-02  0.1206624E+00
         -1   -1    0    0    0  501 -0.00000000000E+00  0.00000000000E+00  0.72122852217E+02  0.72122852217E+02  0.00000000000E+00 0.  1.
          1   -1    0    0  501    0  0.00000000000E+00 -0.00000000000E+00 -0.27426321491E+03  0.27426321491E+03  0.00000000000E+00 0. -1.
         23    2    1    2    0    0 -0.14511712497E+02 -0.52659579080E+02 -0.28724458354E+02  0.10959779851E+03  0.90570204056E+02 0.  0.
          5    1    1    2  502    0 -0.36136753804E+02 -0.40638079136E+02 -0.66724063502E+02  0.86206201062E+02  0.47000000000E+01 0. -1.
         -5    1    3    3    0  503 -0.33356943938E+02  0.13715262850E+02 -0.13405864498E+02  0.38763402158E+02  0.47000000000E+01 0.  1.
          5    1    3    3  503    0  0.18845231441E+02 -0.66374841930E+02 -0.15318593856E+02  0.70834396355E+02  0.47000000000E+01 0. -1.
         -5    1    1    2    0  502  0.50648466300E+02  0.93297658216E+02 -0.10669184084E+03  0.15058206755E+03  0.47000000000E+01 0.  1.
<mgrwt>
<rscale>  0 0.14510243E+03</rscale>
<asrwt>0</asrwt>
<pdfrwt beam="1">  1        1 0.42194342E-01 0.16123154E+03</pdfrwt>
<pdfrwt beam="2">  1       -1 0.11095823E-01 0.16123154E+03</pdfrwt>
<totfact> 0.49248326E+03</totfact>
</mgrwt>
</event>
<event>
 8    1  0.2964543E-004  0.1160172E+03  0.7546771E-02  0.1250006E+00
          1   -1    0    0  501    0  0.00000000000E+00  0.00000000000E+00  0.62055446347E+02  0.62055446347E+02  0.00000000000E+00 0. -1.
         -1   -1    0    0    0  501 -0.00000000000E+00 -0.00000000000E+00 -0.46801731836E+03  0.46801731836E+03  0.00000000000E+00 0.  1.
         23    2    1    2    0    0 -0.27981846659E+02 -0.65413694128E+02 -0.39725829837E+03  0.41372952687E+03  0.91082548583E+02 0.  0.
         23    2    1    2    0    0  0.27981846659E+02  0.65413694128E+02 -0.87035736438E+01  0.11634323784E+03  0.91640938859E+02 0.  0.
          5    1    4    4  502    0  0.21369485066E+02  0.44603275636E+02  0.39333999155E+02  0.63366872883E+02  0.47000000000E+01 0. -1.
         -5    1    4    4    0  502  0.66123615932E+01  0.20810418492E+02 -0.48037572799E+02  0.52976364957E+02  0.47000000000E+01 0.  1.
          5    1    3    3  503    0  0.25444409925E+02 -0.53125232329E+02 -0.23832204325E+03  0.24553858068E+03  0.47000000000E+01 0. -1.
         -5    1    3    3    0  503 -0.53426256584E+02 -0.12288461799E+02 -0.15893625512E+03  0.16819094619E+03  0.47000000000E+01 0.  1.
<mgrwt>
<rscale>  0 0.11590693E+03</rscale>
<asrwt>0</asrwt>
<pdfrwt beam="1">  1        1 0.95469922E-02 0.11601723E+03</pdfrwt>
<pdfrwt beam="2">  1       -1 0.72002661E-01 0.11601723E+03</pdfrwt>
<totfact> 0.13482389E+03</totfact>
</mgrwt>
</event>
<event>
 8    1  0.2964543E-004  0.1226845E+03  0.7546771E-02  0.1242905E+00
          2   -1    0    0  501    0  0.00000000000E+00  0.00000000000E+00  0.56786137296E+03  0.56786137296E+03  0.00000000000E+00 0. -1.
         -2   -1    0    0    0  501 -0.00000000000E+00 -0.00000000000E+00 -0.36630297243E+02  0.36630297243E+02  0.00000000000E+00 0.  1.
         23    2    1    2    0    0  0.46102589327E+02 -0.46875247194E+02  0.98545302785E+02  0.15736156512E+03  0.10357966951E+03 0.  0.
         23    2    1    2    0    0 -0.46102589327E+02  0.46875247194E+02  0.43268577294E+03  0.44713010508E+03  0.91573004899E+02 0.  0.
          5    1    3    3  502    0  0.33491953828E+02 -0.26151001582E+02  0.11825998973E+03  0.12575015318E+03  0.47000000000E+01 0. -1.
         -5    1    4    4    0  503  0.20895235321E+02 -0.35899679053E+01  0.39561553962E+02  0.45129871267E+02  0.47000000000E+01 0.  1.
          5    1    4    4  503    0 -0.66997824648E+02  0.50465215099E+02  0.39312421897E+03  0.40200023381E+03  0.47000000000E+01 0. -1.
         -5    1    3    3    0  502  0.12610635499E+02 -0.20724245612E+02 -0.19714686942E+02  0.31611411944E+02  0.47000000000E+01 0.  1.
<mgrwt>
<rscale>  0 0.12011671E+03</rscale>
<asrwt>0</asrwt>
<pdfrwt beam="1">  1        2 0.87363282E-01 0.12268450E+03</pdfrwt>
<pdfrwt beam="2">  1       -2 0.56354308E-02 0.12268450E+03</pdfrwt>
<totfact> 0.83401248E+03</totfact>
</mgrwt>
</event>
<event>
 8    1  0.2964543E-004  0.1337250E+03  0.7546771E-02  0.1227288E+00
         -2   -1    0    0    0  501 -0.00000000000E+00  0.00000000000E+00  0.55680893818E+03  0.55680893818E+03  0.00000000000E+00 0.  1.
          2   -1    0    0  501    0  0.00000000000E+00 -0.00000000000E+00 -0.55027782579E+02  0.55027782579E+02  0.00000000000E+00 0. -1.
         23    2    1    2    0    0  0.66441312241E+02  0.43642202450E+02  0.45444016718E+03  0.46997924946E+03  0.89696931771E+02 0.  0.
         23    2    1    2    0    0 -0.66441312241E+02 -0.43642202450E+02  0.47340988414E+02  0.14185747129E+03  0.10753270745E+03 0.  0.
          5    1    4    4  502    0 -0.61461149065E+02 -0.74176156102E+02  0.53013676862E+02  0.11005505401E+03  0.47000000000E+01 0. -1.
         -5    1    4    4    0  502 -0.49801631761E+01  0.30533953653E+02 -0.56726884482E+01  0.31802417285E+02  0.47000000000E+01 0.  1.
          5    1    3    3  503    0 -0.99288740259E+00  0.43728163429E+02  0.10148737589E+03  0.11061155259E+03  0.47000000000E+01 0. -1.
         -5    1    3    3    0  503  0.67434199643E+02 -0.85960979896E-01  0.35295279129E+03  0.35936769687E+03  0.47000000000E+01 0.  1.
<mgrwt>
<rscale>  0 0.13011316E+03</rscale>
<asrwt>0</asrwt>
<pdfrwt beam="1">  1        2 0.84658131E-02 0.13372499E+03</pdfrwt>
<pdfrwt beam="2">  1       -2 0.85662910E-01 0.13372499E+03</pdfrwt>
<totfact> 0.94284094E+02</totfact>
</mgrwt>
</event>
<event>
 8    1  0.2964543E-004  0.1094219E+03  0.7546771E-02  0.1261718E+00
         -3   -1    0    0    0  501 -0.00000000000E+00  0.00000000000E+00  0.64706184784E+02  0.64706184784E+02  0.00000000000E+00 0.  1.
          3   -1    0    0  501    0  0.00000000000E+00 -0.00000000000E+00 -0.18525976448E+03  0.18525976448E+03  0.00000000000E+00 0. -1.
         23    2    1    2    0    0 -0.50702519735E+02  0.27012569346E+02 -0.66731406127E+02  0.12816489904E+03  0.93127527464E+02 0.  0.
         23    2    1    2    0    0  0.50702519735E+02 -0.27012569346E+02 -0.53822173567E+02  0.12180105022E+03  0.92942159746E+02 0.  0.
          5    1    3    3  502    0 -0.99066068928E+01 -0.33553057224E+02 -0.14021270412E+02  0.37982029082E+02  0.47000000000E+01 0. -1.
         -5    1    4    4    0  503  0.11043242672E+02  0.30912603933E+02 -0.36555329929E+02  0.49355085217E+02  0.47000000000E+01 0.  1.
          5    1    4    4  503    0  0.39659277064E+02 -0.57925173279E+02 -0.17266843638E+02  0.72445965007E+02  0.47000000000E+01 0. -1.
         -5    1    3    3    0  502 -0.40795912842E+02  0.60565626570E+02 -0.52710135714E+02  0.90182869956E+02  0.47000000000E+01 0.  1.
<mgrwt>
<rscale>  0 0.10938249E+03</rscale>
<asrwt>0</asrwt>
<pdfrwt beam="1">  1        3 0.28501502E-01 0.10942194E+03</pdfrwt>
<pdfrwt beam="2">  1       -3 0.99547978E-02 0.10942194E+03</pdfrwt>
<totfact> 0.19361333E+03</totfact>
</mgrwt>
</event>
<event>
 8    1  0.2964543E-004  0.1047360E+03  0.7546771E-02  0.1270716E+00
          1   -1    0    0  501    0  0.00000000000E+00  0.00000000000E+00  0.14932023035E+02  0.14932023035E+02  0.00000000000E+00 0. -1.
         -1   -1    0    0    0  501 -0.00000000000E+00 -0.00000000000E+00 -0.11272488756E+04  0.11272488756E+04  0.00000000000E+00 0.  1.
         23    2    1    2    0    0  0.43521930310E+02  0.26305097895E+02 -0.89391821536E+03  0.90003300507E+03  0.91561552307E+02 0.  0.
         23    2    1    2    0    0 -0.43521930310E+02 -0.26305097895E+02 -0.21839863718E+03  0.24214789355E+03  0.91386656758E+02 0.  0.
          5    1    4    4  502    0 -0.29320163856E+02  0.35957334853E+01 -0.10687952154E+02  0.31763558193E+02  0.47000000000E+01 0. -1.
         -5    1    3    3    0  503  0.44478121587E+02  0.57619667343E+02 -0.64223155893E+03  0.64636042163E+03  0.47000000000E+01 0.  1.
          5    1    3    3  503    0 -0.95619127686E+00 -0.31314569448E+02 -0.25168665643E+03  0.25367258343E+03  0.47000000000E+01 0. -1.
         -5    1    4    4    0  502 -0.14201766454E+02 -0.29900831380E+02 -0.20771068503E+03  0.21038433536E+03  0.47000000000E+01 0.  1.
<mgrwt>
<rscale>  0 0.10469779E+03</rscale>
<asrwt>0</asrwt>
<pdfrwt beam="1">  1        1 0.22972344E-02 0.10473602E+03</pdfrwt>
<pdfrwt beam="2">  1       -1 0.17342289E+00 0.10473602E+03</pdfrwt>
<totfact> 0.12228574E+03</totfact>
</mgrwt>
</event>
<event>
 8    1  0.2964543E-004  0.9938159E+02  0.7546771E-02  0.1281628E+00
         -2   -1    0    0    0  501 -0.00000000000E+00  0.00000000000E+00  0.26713068407E+03  0.26713068407E+03  0.00000000000E+00 0.  1.
          2   -1    0    0  501    0  0.00000000000E+00 -0.00000000000E+00 -0.45654242979E+02  0.45654242979E+02  0.00000000000E+00 0. -1.
         23    2    1    2    0    0  0.10878332231E+02  0.40542077977E+02  0.17898473379E+03  0.20470049277E+03  0.90026432848E+02 0.  0.
         23    2    1    2    0    0 -0.10878332231E+02 -0.40542077977E+02  0.42491707302E+02  0.10808443428E+03  0.90081638227E+02 0.  0.
          5    1    4    4  502    0  0.15752881954E+02 -0.16863156418E+02  0.62610150767E+02  0.66892752323E+02  0.47000000000E+01 0. -1.
         -5    1    4    4    0  502 -0.26631214185E+02 -0.23678921559E+02 -0.20118443465E+02  0.41191681959E+02  0.47000000000E+01 0.  1.
          5    1    3    3  503    0 -0.24718534850E+02 -0.14586335211E+02  0.29734887973E+02  0.41593517557E+02  0.47000000000E+01 0. -1.
         -5    1    3    3    0  503  0.35596867081E+02  0.55128413188E+02  0.14924984582E+03  0.16310697521E+03  0.47000000000E+01 0.  1.
<mgrwt>
<rscale>  0 0.99369075E+02</rscale>
<asrwt>0</asrwt>
<pdfrwt beam="1">  1        2 0.70237299E-02 0.99381587E+02</pdfrwt>
<pdfrwt beam="2">  1       -2 0.41097027E-01 0.99381587E+02</pdfrwt>
<totfact> 0.52604096E+03</totfact>
</mgrwt>
</event>
<event>
 8    1  0.2964543E-004  0.1337938E+03  0.7546771E-02  0.1222079E+00
          1   -1    0    0  501    0  0.00000000000E+00  0.00000000000E+00  0.84291873350E+02  0.84291873350E+02  0.00000000000E+00 0. -1.
         -1   -1    0    0    0  501 -0.00000000000E+00 -0.00000000000E+00 -0.22305747790E+03  0.22305747790E+03  0.00000000000E+00 0.  1.
         23    2    1    2    0    0 -0.57087496087E+01  0.93952735021E+02 -0.34831287014E+02  0.13825334213E+03  0.95084498297E+02 0.  0.
         23    2    1    2    0    0  0.57087496087E+01 -0.93952735021E+02 -0.10393431753E+03  0.16909600911E+03  0.94506146342E+02 0.  0.
          5    1    4    4  502    0 -0.31023779275E+02 -0.49698901483E+00 -0.14599144337E+02  0.34611369432E+02  0.47000000000E+01 0. -1.
         -5    1    3    3    0  503 -0.24475338693E+02  0.35529911788E+02 -0.58047101503E+02  0.72477395294E+02  0.47000000000E+01 0.  1.
          5    1    3    3  503    0  0.18766589084E+02  0.58422823233E+02  0.23215814489E+02  0.65775946840E+02  0.47000000000E+01 0. -1.
         -5    1    4    4    0  502  0.36732528884E+02 -0.93455746006E+02 -0.89335173195E+02  0.13448463968E+03  0.47000000000E+01 0.  1.
<mgrwt>
<rscale>  0 0.13369103E+03</rscale>
<asrwt>0</asrwt>
<pdfrwt beam="1">  1        1 0.12967981E-01 0.13379375E+03</pdfrwt>
<pdfrwt beam="2">  1       -1 0.34316534E-01 0.13379375E+03</pdfrwt>
<totfact> 0.35171641E+03</totfact>
</mgrwt>
</event>
<event>
 8    1  0.2964543E-004  0.1124610E+03  0.7546771E-02  0.1256600E+00
          2   -1    0    0  501    0  0.00000000000E+00  0.00000000000E+00  0.38381707491E+03  0.38381707491E+03  0.00000000000E+00 0. -1.
         -2   -1    0    0    0  501 -0.00000000000E+00 -0.00000000000E+00 -0.32661209712E+02  0.32661209712E+02  0.00000000000E+00 0.  1.
         23    2    1    2    0    0  0.36659041012E+02 -0.54235678252E+02  0.16685717499E+03  0.20057670901E+03  0.90023914977E+02 0.  0.
         23    2    1    2    0    0 -0.36659041012E+02  0.54235678252E+02  0.18429869021E+03  0.21590157561E+03  0.91444458863E+02 0.  0.
          5    1    3    3  502    0  0.50659379495E+02 -0.23138369996E+02  0.15399922237E+03  0.16382798109E+03  0.47000000000E+01 0. -1.
         -5    1    4    4    0  503 -0.49686435540E+02 -0.41358165150E+01  0.62149821256E+02  0.79815644689E+02  0.47000000000E+01 0.  1.
          5    1    4    4  503    0  0.13027394528E+02  0.58371494767E+02  0.12214886895E+03  0.13608593093E+03  0.47000000000E+01 0. -1.
         -5    1    3    3    0  502 -0.14000338483E+02 -0.31097308255E+02  0.12857952624E+02  0.36748727924E+02  0.47000000000E+01 0.  1.
<mgrwt>
<rscale>  0 0.11217192E+03</rscale>
<asrwt>0</asrwt>
<pdfrwt beam="1">  1        2 0.59048777E-01 0.11246103E+03</pdfrwt>
<pdfrwt beam="2">  1       -2 0.50248018E-02 0.11246103E+03</pdfrwt>
<totfact> 0.15044382E+04</totfact>
</mgrwt>
</event>
<event>
 8    1  0.2964543E-004  0.1063338E+03  0.7546771E-02  0.1268336E+00
         -2   -1    0    0    0  501 -0.00000000000E+00  0.00000000000E+00  0.61160210321E+02  0.61160210321E+02  0.00000000000E+00 0.  1.
          2   -1    0    0  501    0  0.00000000000E+00 -0.00000000000E+00 -0.18512585371E+03  0.18512585371E+03  0.00000000000E+00 0. -1.
         23    2    1    2    0    0  0.47255030248E+01  0.52915658960E+02 -0.46362657964E+02  0.11600161438E+03  0.92111243308E+02 0.  0.
         23    2    1    2    0    0 -0.47255030248E+01 -0.52915658960E+02 -0.77602985423E+02  0.13028444965E+03  0.90163280393E+02 0.  0.
          5    1    4    4  502    0 -0.16427333341E+02  0.19325726261E+02 -0.40706669718E+02  0.48191948869E+02  0.47000000000E+01 0. -1.
         -5    1    4    4    0  502  0.11701830316E+02 -0.72241385221E+02 -0.36896315705E+02  0.82092500778E+02  0.47000000000E+01 0.  1.
          5    1    3    3  503    0 -0.35482742312E+02  0.39577040754E+02 -0.50126486337E+02  0.73212852624E+02  0.47000000000E+01 0. -1.
         -5    1    3    3    0  503  0.40208245337E+02  0.13338618206E+02  0.37638283731E+01  0.42788761758E+02  0.47000000000E+01 0.  1.
<mgrwt>
<rscale>  0 0.10591056E+03</rscale>
<asrwt>0</asrwt>
<pdfrwt beam="1">  1        2 0.28480900E-01 0.10633381E+03</pdfrwt>
<pdfrwt beam="2">  1       -2 0.94092635E-02 0.10633381E+03</pdfrwt>
<totfact> 0.12479953E+04</totfact>
</mgrwt>
</event>
<event>
 8    1  0.2964543E-004  0.9238349E+02  0.7546771E-02  0.1298814E+00
          1   -1    0    0  501    0  0.00000000000E+00  0.00000000000E+00  0.27352036719E+03  0.27352036719E+03  0.00000000000E+00 0. -1.
         -1   -1    0    0    0  501 -0.00000000000E+00 -0.00000000000E+00 -0.32641241796E+02  0.32641241796E+02  0.00000000000E+00 0.  1.
         23    2    1    2    0    0  0.40906009315E+01  0.17357985501E+01  0.77593833923E+02  0.11855351804E+03  0.89523111897E+02 0.  0.
         23    2    1    2    0    0 -0.40906009315E+01 -0.17357985501E+01  0.16328529147E+03  0.18760809095E+03  0.92276559136E+02 0.  0.
          5    1    3    3  502    0  0.39490554081E+02  0.22187856160E+02  0.25592580620E+02  0.52238635179E+02  0.47000000000E+01 0. -1.
         -5    1    4    4    0  503 -0.28893172417E+02  0.36349627049E+02  0.80541075748E+02  0.93086334559E+02  0.47000000000E+01 0.  1.
          5    1    4    4  503    0  0.24802571485E+02 -0.38085425600E+02  0.82744215725E+02  0.94521756391E+02  0.47000000000E+01 0. -1.
         -5    1    3    3    0  502 -0.35399953149E+02 -0.20452057610E+02  0.52001253303E+02  0.66314882859E+02  0.47000000000E+01 0.  1.
<mgrwt>
<rscale>  0 0.91688139E+02</rscale>
<asrwt>0</asrwt>
<pdfrwt beam="1">  1        1 0.42080055E-01 0.92383491E+02</pdfrwt>
<pdfrwt beam="2">  1       -1 0.50217297E-02 0.92383491E+02</pdfrwt>
<totfact> 0.15564320E+04</totfact>
</mgrwt>
</event>
<event>
 8    1  0.2964543E-004  0.1271783E+03  0.7546771E-02  0.1232443E+00
         -1   -1    0    0    0  501 -0.00000000000E+00  0.00000000000E+00  0.42854084168E+02  0.42854084168E+02  0.00000000000E+00 0.  1.
          1   -1    0    0  501    0  0.00000000000E+00 -0.00000000000E+00 -0.43506021045E+03  0.43506021045E+03  0.00000000000E+00 0. -1.
         23    2    1    2    0    0  0.85250920168E+02  0.87670227930E+01 -0.10622419624E+03  0.16570425651E+03  0.93966699846E+02 0.  0.
         23    2    1    2    0    0 -0.85250920168E+02 -0.87670227930E+01 -0.28598193004E+03  0.31221003811E+03  0.91350224450E+02 0.  0.
          5    1    3    3  502    0 -0.92113317959E+01 -0.18101611509E+02 -0.45743703325E+02  0.50270203566E+02  0.47000000000E+01 0. -1.
         -5    1    4    4    0  503 -0.35841803934E+02 -0.23464856681E+02 -0.33798841511E+02  0.54769390135E+02  0.47000000000E+01 0.  1.
          5    1    4    4  503    0 -0.49409116235E+02  0.14697833888E+02 -0.25218308853E+03  0.25744064797E+03  0.47000000000E+01 0. -1.
         -5    1    3    3    0  502  0.94462251964E+02  0.26868634302E+02 -0.60480492913E+02  0.11543405294E+03  0.47000000000E+01 0.  1.
<mgrwt>
<rscale>  0 0.12669536E+03</rscale>
<asrwt>0</asrwt>
<pdfrwt beam="1">  1        1 0.66932343E-01 0.12717830E+03</pdfrwt>
<pdfrwt beam="2">  1       -1 0.65929358E-02 0.12717830E+03</pdfrwt>
<totfact> 0.60064987E+03</totfact>
</mgrwt>
</event>
<event>
 8    1  0.2964543E-004  0.9836240E+02  0.7546771E-02  0.1284216E+00
         -1   -1    0    0    0  501 -0.00000000000E+00  0.00000000000E+00  0.93619943194E+02  0.93619943194E+02  0.00000000000E+00 0.  1.
          1   -1    0    0  501    0  0.00000000000E+00 -0.00000000000E+00 -0.14227315545E+03  0.14227315545E+03  0.00000000000E+00 0. -1.
         23    2    1    2    0    0 -0.29508025788E+02 -0.19103477213E+02  0.37966611998E+02  0.10543540861E+03  0.91866725941E+02 0.  0.
         23    2    1    2    0    0  0.29508025788E+02  0.19103477213E+02 -0.86619824253E+02  0.13045769003E+03  0.90997519236E+02 0.  0.
          5    1    4    4  502    0 -0.13130662999E+01  0.48909914707E+02 -0.66938303169E+02  0.83046555202E+02  0.47000000000E+01 0. -1.
         -5    1    4    4    0  502  0.30821092088E+02 -0.29806437494E+02 -0.19681521083E+02  0.47411134829E+02  0.47000000000E+01 0.  1.
          5    1    3    3  503    0 -0.11383167104E+02 -0.29357703921E+02 -0.24016444172E+02  0.39878952638E+02  0.47000000000E+01 0. -1.
         -5    1    3    3    0  503 -0.18124858685E+02  0.10254226708E+02  0.61983056170E+02  0.65556455975E+02  0.47000000000E+01 0.  1.
<mgrwt>
<rscale>  0 0.98158942E+02</rscale>
<asrwt>0</asrwt>
<pdfrwt beam="1">  1        1 0.21888178E-01 0.98362400E+02</pdfrwt>
<pdfrwt beam="2">  1       -1 0.14403068E-01 0.98362400E+02</pdfrwt>
<totfact> 0.71979573E+03</totfact>
</mgrwt>
</event>
<event>
 8    1  0.2964543E-004  0.9391983E+02  0.7546771E-02  0.1294318E+00
         -1   -1    0    0    0  501 -0.00000000000E+00  0.00000000000E+00  0.23952897450E+02  0.23952897450E+02  0.00000000000E+00 0.  1.
          1   -1    0    0  501    0  0.00000000000E+00 -0.00000000000E+00 -0.38449528780E+03  0.38449528780E+03  0.00000000000E+00 0. -1.
         23    2    1    2    0    0 -0.20471969996E+02 -0.72233589850E+01 -0.13153871982E+03  0.16093330702E+03  0.90143308274E+02 0.  0.
         23    2    1    2    0    0  0.20471969996E+02  0.72233589850E+01 -0.22900367053E+03  0.24751487823E+03  0.91376448596E+02 0.  0.
          5    1    3    3  502    0 -0.54513093175E+02  0.76802703878E+01 -0.77116498596E+02  0.94866792063E+02  0.47000000000E+01 0. -1.
         -5    1    4    4    0  503  0.43566910014E+02 -0.59386542609E+01 -0.20974215205E+03  0.21435298834E+03  0.47000000000E+01 0.  1.
          5    1    4    4  503    0 -0.23094940019E+02  0.13162013246E+02 -0.19261518485E+02  0.33161889896E+02  0.47000000000E+01 0. -1.
         -5    1    3    3    0  502  0.34041123179E+02 -0.14903629373E+02 -0.54422221226E+02  0.66066514960E+02  0.47000000000E+01 0.  1.
<mgrwt>
<rscale>  0 0.93618553E+02</rscale>
<asrwt>0</asrwt>
<pdfrwt beam="1">  1        1 0.59153124E-01 0.93919827E+02</pdfrwt>
<pdfrwt beam="2">  1       -1 0.36850610E-02 0.93919827E+02</pdfrwt>
<totfact> 0.16111641E+04</totfact>
</mgrwt>
</event>
<event>
 8    1  0.2964543E-004  0.9519652E+02  0.7546771E-02  0.1290823E+00
         -1   -1    0    0    0  501 -0.00000000000E+00  0.00000000000E+00  0.33073939773E+03  0.33073939773E+03  0.00000000000E+00 0.  1.
          1   -1    0    0  501    0  0.00000000000E+00 -0.00000000000E+00 -0.41488110430E+02  0.41488110430E+02  0.00000000000E+00 0. -1.
         23    2    1    2    0    0  0.13402535980E+02  0.26374355580E+02  0.25333319170E+03  0.27062905210E+03  0.90482833854E+02 0.  0.
         23    2    1    2    0    0 -0.13402535980E+02 -0.26374355580E+02  0.35918095603E+02  0.10159845606E+03  0.90315569417E+02 0.  0.
          5    1    4    4  502    0 -0.34688496068E+02  0.14633081409E+02 -0.67447529426E+01  0.38535704525E+02  0.47000000000E+01 0. -1.
         -5    1    3    3    0  503 -0.62157978323E+01  0.57459132408E+02  0.14695710149E+03  0.15798312479E+03  0.47000000000E+01 0.  1.
          5    1    3    3  503    0  0.19618333812E+02 -0.31084776828E+02  0.10637609020E+03  0.11264592731E+03  0.47000000000E+01 0. -1.
         -5    1    4    4    0  502  0.21285960088E+02 -0.41007436989E+02  0.42662848546E+02  0.63062751536E+02  0.47000000000E+01 0.  1.
<mgrwt>
<rscale>  0 0.95156755E+02</rscale>
<asrwt>0</asrwt>
<pdfrwt beam="1">  1        1 0.63827864E-02 0.95196522E+02</pdfrwt>
<pdfrwt beam="2">  1       -1 0.50882983E-01 0.95196522E+02</pdfrwt>
<totfact> 0.43991556E+03</totfact>
</mgrwt>
</event>
<event>
 8    1  0.2964543E-004  0.1068924E+03  0.7546771E-02  0.1266765E+00
         -1   -1    0    0    0  501 -0.00000000000E+00  0.00000000000E+00  0.97196218230E+02  0.97196218230E+02  0.00000000000E+00 0.  1.
          1   -1    0    0  501    0  0.00000000000E+00 -0.00000000000E+00 -0.17766000886E+03  0.17766000886E+03  0.00000000000E+00 0. -1.
         23    2    1    2    0    0 -0.38782238990E+02 -0.39344393343E+02 -0.12074711854E+03  0.16126329388E+03  0.91509234333E+02 0.  0.
         23    2    1    2    0    0  0.38782238990E+02  0.39344393343E+02  0.40283327917E+02  0.11359293320E+03  0.90711435979E+02 0.  0.
          5    1    4    4  502    0 -0.25384876518E+02  0.32098786092E+02  0.19648154575E+02  0.45638404909E+02  0.47000000000E+01 0. -1.
         -5    1    4    4    0  502  0.64167115507E+02  0.72456072504E+01  0.20635173342E+02  0.67954528295E+02  0.47000000000E+01 0.  1.
          5    1    3    3  503    0 -0.60593885846E+02 -0.51980341457E+02 -0.79989272475E+02  0.11311033821E+03  0.47000000000E+01 0. -1.
         -5    1    3    3    0  503  0.21811646856E+02  0.12635948114E+02 -0.40757846067E+02  0.48152955666E+02  0.47000000000E+01 0.  1.
<mgrwt>
<rscale>  0 0.10672144E+03</rscale>
<asrwt>0</asrwt>
<pdfrwt beam="1">  1        1 0.27332309E-01 0.10689239E+03</pdfrwt>
<pdfrwt beam="2">  1       -1 0.14953264E-01 0.10689239E+03</pdfrwt>
<totfact> 0.51812642E+03</totfact>
</mgrwt>
</event>
<event>
 8    1  0.2964543E-004  0.2064824E+03  0.7546771E-02  0.1146849E+00
         -3   -1    0    0    0  501 -0.00000000000E+00  0.00000000000E+00  0.30447969809E+03  0.30447969809E+03  0.00000000000E+00 0.  1.
          3   -1    0    0  501    0  0.00000000000E+00 -0.00000000000E+00 -0.31446979109E+03  0.31446979109E+03  0.00000000000E+00 0. -1.
         23    2    1    2    0    0  0.16007453408E+03 -0.91426727109E+02  0.23067786029E+03  0.30184373469E+03  0.62567260206E+02 0.  0.
         23    2    1    2    0    0 -0.16007453408E+03  0.91426727109E+02 -0.24066795329E+03  0.31710575450E+03  0.93017702102E+02 0.  0.
          5    1    3    3  502    0  0.66102085002E+02 -0.25442894073E+02  0.13410465974E+03  0.15173324048E+03  0.47000000000E+01 0. -1.
         -5    1    4    4    0  503 -0.10391042170E+03  0.65597982258E+01 -0.11205597928E+03  0.15303280427E+03  0.47000000000E+01 0.  1.
          5    1    4    4  503    0 -0.56164112381E+02  0.84866928883E+02 -0.12861197401E+03  0.16407295023E+03  0.47000000000E+01 0. -1.
         -5    1    3    3    0  502  0.93972449080E+02 -0.65983833035E+02  0.96573200547E+02  0.15011049421E+03  0.47000000000E+01 0.  1.
<mgrwt>
<rscale>  0 0.20346441E+03</rscale>
<asrwt>0</asrwt>
<pdfrwt beam="1">  1        3 0.48379968E-01 0.20648243E+03</pdfrwt>
<pdfrwt beam="2">  1       -3 0.46843030E-01 0.20648243E+03</pdfrwt>
<totfact> 0.47596022E+01</totfact>
</mgrwt>
</event>
<event>
 8    1  0.2964543E-004  0.1188249E+03  0.7546771E-02  0.1250315E+00
         -1   -1    0    0    0  501 -0.00000000000E+00  0.00000000000E+00  0.15135115639E+03  0.15135115639E+03  0.00000000000E+00 0.  1.
          1   -1    0    0  501    0  0.00000000000E+00 -0.00000000000E+00 -0.84246765563E+02  0.84246765563E+02  0.00000000000E+00 0. -1.
         23    2    1    2    0    0 -0.99218748522E+01 -0.55515587225E+02  0.35287819148E+02  0.11258711480E+03  0.90830634769E+02 0.  0.
         23    2    1    2    0    0  0.99218748522E+01  0.55515587225E+02  0.31816571681E+02  0.12301080716E+03  0.10458938961E+03 0.  0.
          5    1    3    3  502    0 -0.41289779239E+02 -0.13091170024E+02 -0.78529801125E+01  0.44271705398E+02  0.47000000000E+01 0. -1.
         -5    1    3    3    0  502  0.31367904387E+02 -0.42424417201E+02  0.43140799261E+02  0.68315409399E+02  0.47000000000E+01 0.  1.
          5    1    4    4  503    0 -0.24044473438E+02  0.73005532436E+02  0.72514030987E+01  0.77347380797E+02  0.47000000000E+01 0. -1.
         -5    1    4    4    0  503  0.33966348290E+02 -0.17489945211E+02  0.24565168582E+02  0.45663426362E+02  0.47000000000E+01 0.  1.
<mgrwt>
<rscale>  0 0.11572827E+03</rscale>
<asrwt>0</asrwt>
<pdfrwt beam="1">  1        1 0.12961041E-01 0.11882493E+03</pdfrwt>
<pdfrwt beam="2">  1       -1 0.23284793E-01 0.11882493E+03</pdfrwt>
<totfact> 0.66606649E+03</totfact>
</mgrwt>
</event>
<event>
 8    1  0.2964543E-004  0.9794923E+02  0.7546771E-02  0.1284943E+00
         -2   -1    0    0    0  501 -0.00000000000E+00  0.00000000000E+00  0.16817227028E+02  0.16817227028E+02  0.00000000000E+00 0.  1.
          2   -1    0    0  501    0  0.00000000000E+00 -0.00000000000E+00 -0.75886424949E+03  0.75886424949E+03  0.00000000000E+00 0. -1.
         23    2    1    2    0    0  0.32866885686E+02  0.91724591651E+01 -0.17556768292E+03  0.20079636322E+03  0.91273227243E+02 0.  0.
         23    2    1    2    0    0 -0.32866885686E+02 -0.91724591651E+01 -0.56647933953E+03  0.57488511330E+03  0.91813317077E+02 0.  0.
          5    1    4    4  502    0 -0.55893883174E+02  0.23443562270E+01 -0.50439709095E+03  0.50751171173E+03  0.47000000000E+01 0. -1.
         -5    1    3    3    0  503  0.64463137536E+02  0.52750780764E+01 -0.12579077519E+03  0.14152290158E+03  0.47000000000E+01 0.  1.
          5    1    3    3  503    0 -0.31596251850E+02  0.38973810887E+01 -0.49776907739E+02  0.59273461636E+02  0.47000000000E+01 0. -1.
         -5    1    4    4    0  502  0.23026997487E+02 -0.11516815392E+02 -0.62082248583E+02  0.67373401571E+02  0.47000000000E+01 0.  1.
<mgrwt>
<rscale>  0 0.97822464E+02</rscale>
<asrwt>0</asrwt>
<pdfrwt beam="1">  1        2 0.11674836E+00 0.97949229E+02</pdfrwt>
<pdfrwt beam="2">  1       -2 0.25872653E-02 0.97949229E+02</pdfrwt>
<totfact> 0.18499651E+04</totfact>
</mgrwt>
</event>
<event>
 8    1  0.2964543E-004  0.1030559E+03  0.7546771E-02  0.1274744E+00
         -1   -1    0    0    0  501 -0.00000000000E+00  0.00000000000E+00  0.34561821085E+02  0.34561821085E+02  0.00000000000E+00 0.  1.
          1   -1    0    0  501    0  0.00000000000E+00 -0.00000000000E+00 -0.42853445584E+03  0.42853445584E+03  0.00000000000E+00 0. -1.
         23    2    1    2    0    0 -0.47581366324E+02 -0.50435314916E+01 -0.32134115226E+03  0.33701752811E+03  0.89617266683E+02 0.  0.
         23    2    1    2    0    0  0.47581366324E+02  0.50435314916E+01 -0.72631482497E+02  0.12607874881E+03  0.91274832357E+02 0.  0.
          5    1    4    4  502    0 -0.23944930193E+01  0.39411346962E+02 -0.15668657016E+02  0.42738561965E+02  0.47000000000E+01 0. -1.
         -5    1    3    3    0  503  0.93972663761E+01 -0.23864410012E+02 -0.31023996807E+02  0.40526498226E+02  0.47000000000E+01 0.  1.
          5    1    3    3  503    0 -0.56978632700E+02  0.18820878521E+02 -0.29031715545E+03  0.29649102988E+03  0.47000000000E+01 0. -1.
         -5    1    4    4    0  502  0.49975859344E+02 -0.34367815470E+02 -0.56962825481E+02  0.83340186850E+02  0.47000000000E+01 0.  1.
<mgrwt>
<rscale>  0 0.10268764E+03</rscale>
<asrwt>0</asrwt>
<pdfrwt beam="1">  1        1 0.65928378E-01 0.10305590E+03</pdfrwt>
<pdfrwt beam="2">  1       -1 0.53172033E-02 0.10305590E+03</pdfrwt>
<totfact> 0.83025003E+03</totfact>
</mgrwt>
</event>
<event>
 8    1  0.2964543E-004  0.1777139E+03  0.7546771E-02  0.1173572E+00
         -1   -1    0    0    0  501 -0.00000000000E+00  0.00000000000E+00  0.59943027857E+02  0.59943027857E+02  0.00000000000E+00 0.  1.
          1   -1    0    0  501    0  0.00000000000E+00 -0.00000000000E+00 -0.71752389466E+03  0.71752389466E+03  0.00000000000E+00 0. -1.
         23    2    1    2    0    0  0.13510574351E+03 -0.32550034421E+02 -0.55808049045E+03  0.58569282017E+03  0.11076632660E+03 0.  0.
         23    2    1    2    0    0 -0.13510574351E+03  0.32550034421E+02 -0.99500376355E+02  0.19177410235E+03  0.86970769608E+02 0.  0.
          5    1    4    4  502    0 -0.49089143218E+02  0.12797210230E+02 -0.89294589485E+02  0.10280625605E+03  0.47000000000E+01 0. -1.
         -5    1    3    3    0  503  0.26791148296E+02  0.32067019892E+02 -0.70922311689E+02  0.82450734910E+02  0.47000000000E+01 0.  1.
          5    1    3    3  503    0  0.10831459522E+03 -0.64617054313E+02 -0.48715817876E+03  0.50324208526E+03  0.47000000000E+01 0. -1.
         -5    1    4    4    0  502 -0.86016600293E+02  0.19752824190E+02 -0.10205786870E+02  0.88967846299E+02  0.47000000000E+01 0.  1.
<mgrwt>
<rscale>  0 0.17416613E+03</rscale>
<asrwt>0</asrwt>
<pdfrwt beam="1">  1        1 0.11038829E+00 0.17771394E+03</pdfrwt>
<pdfrwt beam="2">  1       -1 0.92220042E-02 0.17771394E+03</pdfrwt>
<totfact> 0.18661021E+03</totfact>
</mgrwt>
</event>
<event>
 8    1  0.2964543E-004  0.9906726E+02  0.7546771E-02  0.1284575E+00
          1   -1    0    0  501    0  0.00000000000E+00  0.00000000000E+00  0.56137034756E+03  0.56137034756E+03  0.00000000000E+00 0. -1.
         -1   -1    0    0    0  501 -0.00000000000E+00 -0.00000000000E+00 -0.16842095479E+02  0.16842095479E+02  0.00000000000E+00 0.  1.
         23    2    1    2    0    0  0.15245445458E+02  0.19447561333E+01  0.24434810464E+03  0.26210733017E+03  0.93584457076E+02 0.  0.
         23    2    1    2    0    0 -0.15245445458E+02 -0.19447561333E+01  0.30018014744E+03  0.31610511287E+03  0.97867848540E+02 0.  0.
          5    1    4    4  502    0  0.32572449697E+02 -0.45654177433E+01  0.22074811087E+03  0.22323446412E+03  0.47000000000E+01 0. -1.
         -5    1    4    4    0  502 -0.47817895155E+02  0.26206616100E+01  0.79432036571E+02  0.92870648744E+02  0.47000000000E+01 0.  1.
          5    1    3    3  503    0  0.75178684089E+01  0.47519918325E+02  0.12107511442E+03  0.13036845598E+03  0.47000000000E+01 0. -1.
         -5    1    3    3    0  503  0.77275770488E+01 -0.45575162192E+02  0.12327299022E+03  0.13173887419E+03  0.47000000000E+01 0.  1.
<mgrwt>
<rscale>  0 0.97992596E+02</rscale>
<asrwt>0</asrwt>
<pdfrwt beam="1">  1        1 0.86364655E-01 0.99067257E+02</pdfrwt>
<pdfrwt beam="2">  1       -1 0.25910920E-02 0.99067257E+02</pdfrwt>
<totfact> 0.16626321E+04</totfact>
</mgrwt>
</event>
<event>
 8    1  0.2964543E-004  0.1355437E+03  0.7546771E-02  0.1221072E+00
         -1   -1    0    0    0  501 -0.00000000000E+00  0.00000000000E+00  0.20565570099E+02  0.20565570099E+02  0.00000000000E+00 0.  1.
          1   -1    0    0  501    0  0.00000000000E+00 -0.00000000000E+00 -0.92114117632E+03  0.92114117632E+03  0.00000000000E+00 0. -1.
         23    2    1    2    0    0  0.78956397121E+02  0.60751438472E+02 -0.32563374630E+03  0.35100357855E+03  0.85095978180E+02 0.  0.
         23    2    1    2    0    0 -0.78956397121E+02 -0.60751438472E+02 -0.57494185992E+03  0.59070316787E+03  0.91908869644E+02 0.  0.
          5    1    4    4  502    0  0.15907461816E+02 -0.24103135632E+02 -0.20230042684E+03  0.20440538444E+03  0.47000000000E+01 0. -1.
         -5    1    4    4    0  502 -0.94863858937E+02 -0.36648302841E+02 -0.37264143308E+03  0.38629778343E+03  0.47000000000E+01 0.  1.
          5    1    3    3  503    0  0.45047232985E+02  0.63861949970E+01 -0.23792807033E+03  0.24228473608E+03  0.47000000000E+01 0. -1.
         -5    1    3    3    0  503  0.33909164136E+02  0.54365243475E+02 -0.87705675966E+02  0.10871884247E+03  0.47000000000E+01 0.  1.
<mgrwt>
<rscale>  0 0.13439826E+03</rscale>
<asrwt>0</asrwt>
<pdfrwt beam="1">  1        1 0.14171403E+00 0.13554368E+03</pdfrwt>
<pdfrwt beam="2">  1       -1 0.31639338E-02 0.13554368E+03</pdfrwt>
<totfact> 0.62205146E+03</totfact>
</mgrwt>
</event>
<event>
 8    1  0.2964543E-004  0.9928901E+02  0.7546771E-02  0.1281807E+00
          1   -1    0    0  501    0  0.00000000000E+00  0.00000000000E+00  0.15462769944E+03  0.15462769944E+03  0.00000000000E+00 0. -1.
         -1   -1    0    0    0  501 -0.00000000000E+00 -0.00000000000E+00 -0.83156629728E+02  0.83156629728E+02  0.00000000000E+00 0.  1.
         23    2    1    2    0    0 -0.41403070249E+01  0.41275608708E+02 -0.21706237583E+02  0.10163399211E+03  0.90208035038E+02 0.  0.
         23    2    1    2    0    0  0.41403070249E+01 -0.41275608708E+02  0.93177307296E+02  0.13615033706E+03  0.90189166035E+02 0.  0.
          5    1    3    3  502    0 -0.41128314111E+02  0.66877907114E+01 -0.27950437581E+02  0.50394262840E+02  0.47000000000E+01 0. -1.
         -5    1    3    3    0  502  0.36988007086E+02  0.34587817997E+02  0.62441999980E+01  0.51239729269E+02  0.47000000000E+01 0.  1.
          5    1    4    4  503    0 -0.25282172066E+02 -0.38415805869E+01  0.83344556839E+02  0.87306077225E+02  0.47000000000E+01 0. -1.
         -5    1    4    4    0  503  0.29422479090E+02 -0.37434028122E+02  0.98327504566E+01  0.48844259834E+02  0.47000000000E+01 0.  1.
<mgrwt>
<rscale>  0 0.99284724E+02</rscale>
<asrwt>0</asrwt>
<pdfrwt beam="1">  1        1 0.23788877E-01 0.99289010E+02</pdfrwt>
<pdfrwt beam="2">  1       -1 0.12793328E-01 0.99289010E+02</pdfrwt>
<totfact> 0.77942427E+03</totfact>
</mgrwt>
</event>
<event>
 8    1  0.2964543E-004  0.1292011E+03  0.7546771E-02  0.1237677E+00
         -1   -1    0    0    0  501 -0.00000000000E+00  0.00000000000E+00  0.19305177846E+02  0.19305177846E+02  0.00000000000E+00 0.  1.
          1   -1    0    0  501    0  0.00000000000E+00 -0.00000000000E+00 -0.73102521452E+03  0.73102521452E+03  0.00000000000E+00 0. -1.
         23    2    1    2    0    0  0.12202117090E+02 -0.54130175199E+02 -0.35313848229E+03  0.37603154155E+03  0.11667889713E+03 0.  0.
         23    2    1    2    0    0 -0.12202117090E+02  0.54130175199E+02 -0.35858155438E+03  0.37429885082E+03  0.91869097372E+02 0.  0.
          5    1    4    4  502    0  0.29045204381E+02  0.54151294798E+02 -0.26240721418E+03  0.26954706951E+03  0.47000000000E+01 0. -1.
         -5    1    4    4    0  502 -0.41247321471E+02 -0.21119598468E-01 -0.96174340196E+02  0.10475178131E+03  0.47000000000E+01 0.  1.
          5    1    3    3  503    0 -0.85142163656E+01  0.28298742595E+02 -0.32033136203E+02  0.43835174549E+02  0.47000000000E+01 0. -1.
         -5    1    3    3    0  503  0.20716333456E+02 -0.82428917794E+02 -0.32110534609E+03  0.33219636700E+03  0.47000000000E+01 0.  1.
<mgrwt>
<rscale>  0 0.12334629E+03</rscale>
<asrwt>0</asrwt>
<pdfrwt beam="1">  1        1 0.11246542E+00 0.12920113E+03</pdfrwt>
<pdfrwt beam="2">  1       -1 0.29700273E-02 0.12920113E+03</pdfrwt>
<totfact> 0.96769960E+03</totfact>
</mgrwt>
</event>
<event>
 8    1  0.2964543E-004  0.1344545E+03  0.7546771E-02  0.1221194E+00
          2   -1    0    0  501    0  0.00000000000E+00  0.00000000000E+00  0.67018628396E+03  0.67018628396E+03  0.00000000000E+00 0. -1.
         -2   -1    0    0    0  501 -0.00000000000E+00 -0.00000000000E+00 -0.33982028682E+02  0.33982028682E+02  0.00000000000E+00 0.  1.
         23    2    1    2    0    0  0.85567559507E+02 -0.52598133619E+02  0.47874665142E+03  0.49711541751E+03  0.88526895230E+02 0.  0.
         23    2    1    2    0    0 -0.85567559507E+02  0.52598133619E+02  0.15745760386E+03  0.20705289513E+03  0.89384749647E+02 0.  0.
          5    1    3    3  502    0  0.10040330571E+03 -0.37581875607E+02  0.33544682129E+03  0.35219296002E+03  0.47000000000E+01 0. -1.
         -5    1    3    3    0  502 -0.14835746205E+02 -0.15016258012E+02  0.14329983013E+03  0.14492245749E+03  0.47000000000E+01 0.  1.
          5    1    4    4  503    0 -0.95929341297E+01  0.19110122251E+02  0.10821317632E+03  0.11040562797E+03  0.47000000000E+01 0. -1.
         -5    1    4    4    0  503 -0.75974625377E+02  0.33488011368E+02  0.49244427536E+02  0.96647267162E+02  0.47000000000E+01 0.  1.
<mgrwt>
<rscale>  0 0.13431205E+03</rscale>
<asrwt>0</asrwt>
<pdfrwt beam="1">  1        2 0.10310557E+00 0.13445447E+03</pdfrwt>
<pdfrwt beam="2">  1       -2 0.52280049E-02 0.13445447E+03</pdfrwt>
<totfact> 0.77697080E+03</totfact>
</mgrwt>
</event>
<event>
 8    1  0.2964543E-004  0.9634546E+02  0.7546771E-02  0.1288686E+00
         -1   -1    0    0    0  501 -0.00000000000E+00  0.00000000000E+00  0.41275725700E+03  0.41275725700E+03  0.00000000000E+00 0.  1.
          1   -1    0    0  501    0  0.00000000000E+00 -0.00000000000E+00 -0.22563126819E+02  0.22563126819E+02  0.00000000000E+00 0. -1.
         23    2    1    2    0    0  0.25417646783E+02  0.16518583262E+02  0.16954203048E+03  0.19455120645E+03  0.90480669039E+02 0.  0.
         23    2    1    2    0    0 -0.25417646783E+02 -0.16518583262E+02  0.22065209970E+03  0.24076917737E+03  0.91452322599E+02 0.  0.
          5    1    4    4  502    0  0.93190510824E+01  0.33160904227E+02  0.66037080251E+02  0.74628923685E+02  0.47000000000E+01 0. -1.
         -5    1    3    3    0  503  0.35867306169E+02 -0.25554517789E+02  0.47461280494E+02  0.64916563197E+02  0.47000000000E+01 0.  1.
          5    1    3    3  503    0 -0.10449659385E+02  0.42073101051E+02  0.12208074999E+03  0.12963464325E+03  0.47000000000E+01 0. -1.
         -5    1    4    4    0  502 -0.34736697866E+02 -0.49679487489E+02  0.15461501945E+03  0.16614025368E+03  0.47000000000E+01 0.  1.
<mgrwt>
<rscale>  0 0.96114175E+02</rscale>
<asrwt>0</asrwt>
<pdfrwt beam="1">  1        1 0.34712506E-02 0.96345460E+02</pdfrwt>
<pdfrwt beam="2">  1       -1 0.63501111E-01 0.96345460E+02</pdfrwt>
<totfact> 0.66564004E+03</totfact>
</mgrwt>
</event>
<event>
 8    1  0.2964543E-004  0.1234058E+03  0.7546771E-02  0.1239085E+00
          1   -1    0    0  501    0  0.00000000000E+00  0.00000000000E+00  0.44275977266E+02  0.44275977266E+02  0.00000000000E+00 0. -1.
         -1   -1    0    0    0  501 -0.00000000000E+00 -0.00000000000E+00 -0.38579230816E+03  0.38579230816E+03  0.00000000000E+00 0.  1.
         23    2    1    2    0    0  0.81236477659E+02  0.18742877902E+02 -0.25205127484E+03  0.28064003848E+03  0.90985302539E+02 0.  0.
         23    2    1    2    0    0 -0.81236477659E+02 -0.18742877902E+02 -0.89465056057E+02  0.14942824694E+03  0.85872835954E+02 0.  0.
          5    1    3    3  502    0  0.73791572489E+02  0.45876507382E+02 -0.13855432083E+03  0.16361307992E+03  0.47000000000E+01 0. -1.
         -5    1    4    4    0  503 -0.49260708308E+02  0.93148036370E+01 -0.93748227128E+02  0.10641523876E+03  0.47000000000E+01 0.  1.
          5    1    4    4  503    0 -0.31975769351E+02 -0.28057681539E+02  0.42831710709E+01  0.43013008187E+02  0.47000000000E+01 0.  1.
         -5    1    3    3    0  502  0.74449051696E+01 -0.27133629481E+02 -0.11349695401E+03  0.11702695856E+03  0.47000000000E+01 0.  1.
<mgrwt>
<rscale>  0 0.12246520E+03</rscale>
<asrwt>0</asrwt>
<pdfrwt beam="1">  1        1 0.68116886E-02 0.12340578E+03</pdfrwt>
<pdfrwt beam="2">  1       -1 0.59352665E-01 0.12340578E+03</pdfrwt>
<totfact> 0.30835779E+03</totfact>
</mgrwt>
</event>
<event>
 8    1  0.2964543E-004  0.9895239E+02  0.7546771E-02  0.1282621E+00
         -1   -1    0    0    0  501 -0.00000000000E+00  0.00000000000E+00  0.16439067629E+02  0.16439067629E+02  0.00000000000E+00 0.  1.
          1   -1    0    0  501    0  0.00000000000E+00 -0.00000000000E+00 -0.68664664469E+03  0.68664664469E+03  0.00000000000E+00 0. -1.
         23    2    1    2    0    0 -0.30613258330E+02  0.24423038083E+02 -0.46364325155E+03  0.47404336544E+03  0.90655343142E+02 0.  0.
         23    2    1    2    0    0  0.30613258330E+02 -0.24423038083E+02 -0.20656432551E+03  0.22904234687E+03  0.90873096748E+02 0.  0.
          5    1    4    4  502    0  0.52838093096E+02  0.13492063184E+02 -0.11214563069E+03  0.12479035353E+03  0.47000000000E+01 0. -1.
         -5    1    3    3    0  503  0.16162142333E+02 -0.25113307552E+02 -0.12783652300E+03  0.13136270275E+03  0.47000000000E+01 0.  1.
          5    1    3    3  503    0 -0.46775400663E+02  0.49536345635E+02 -0.33580672855E+03  0.34268066269E+03  0.47000000000E+01 0. -1.
         -5    1    4    4    0  502 -0.22224834766E+02 -0.37915101267E+02 -0.94418694818E+02  0.10425199334E+03  0.47000000000E+01 0.  1.
<mgrwt>
<rscale>  0 0.98902371E+02</rscale>
<asrwt>0</asrwt>
<pdfrwt beam="1">  1        1 0.10563792E+00 0.98952393E+02</pdfrwt>
<pdfrwt beam="2">  1       -1 0.25290878E-02 0.98952393E+02</pdfrwt>
<totfact> 0.13091044E+04</totfact>
</mgrwt>
</event>
<event>
 8    1  0.2964543E-004  0.9162360E+02  0.7546771E-02  0.1299078E+00
         -2   -1    0    0    0  501 -0.00000000000E+00  0.00000000000E+00  0.13586969119E+02  0.13586969119E+02  0.00000000000E+00 0.  1.
          2   -1    0    0  501    0  0.00000000000E+00 -0.00000000000E+00 -0.74724967648E+03  0.74724967648E+03  0.00000000000E+00 0. -1.
         23    2    1    2    0    0  0.20149429917E+01  0.17106446755E+00 -0.52559126856E+03  0.53348535699E+03  0.91413102354E+02 0.  0.
         23    2    1    2    0    0 -0.20149429917E+01 -0.17106446755E+00 -0.20807143881E+03  0.22735128861E+03  0.91601285621E+02 0.  0.
          5    1    3    3  502    0  0.26604661990E+02  0.30840716449E+02 -0.39235846719E+03  0.39449488540E+03  0.47000000000E+01 0. -1.
         -5    1    4    4    0  503 -0.34219132731E+02  0.30233193111E+02 -0.12377015760E+03  0.13200809415E+03  0.47000000000E+01 0.  1.
          5    1    4    4  503    0  0.32204189739E+02 -0.30404257578E+02 -0.84301281210E+02  0.95343194457E+02  0.47000000000E+01 0. -1.
         -5    1    3    3    0  502 -0.24589718999E+02 -0.30669651981E+02 -0.13323280137E+03  0.13899047159E+03  0.47000000000E+01 0.  1.
<mgrwt>
<rscale>  0 0.91576533E+02</rscale>
<asrwt>0</asrwt>
<pdfrwt beam="1">  1        2 0.11496152E+00 0.91623604E+02</pdfrwt>
<pdfrwt beam="2">  1       -2 0.20903024E-02 0.91623604E+02</pdfrwt>
<totfact> 0.25484660E+04</totfact>
</mgrwt>
</event>
<event>
 7    1  0.2964543E-004  0.1819201E+03  0.7546771E-02  0.1173004E+00
          2   -1    0    0  501    0  0.00000000000E+00  0.00000000000E+00  0.40149207667E+03  0.40149207667E+03  0.00000000000E+00 0. -1.
         -2   -1    0    0    0  501 -0.00000000000E+00 -0.00000000000E+00 -0.14888628268E+03  0.14888628268E+03  0.00000000000E+00 0.  1.
         23    2    1    2    0    0 -0.68827243477E+02  0.10529831020E+03  0.32071517397E+03  0.35612640660E+03  0.90237858377E+02 0.  0.
          5    1    1    2  502    0 -0.21538111553E+02 -0.61823496991E+02 -0.67090000000E+02  0.93857301951E+02  0.47000000000E+01 0. -1.
         -5    1    3    3    0  503  0.93159927125E+01  0.27434374467E+02  0.19310834754E+02  0.35134469706E+02  0.47000000000E+01 0.  1.
          5    1    3    3  503    0 -0.78143236190E+02  0.77863935737E+02  0.30140433922E+03  0.32099193689E+03  0.47000000000E+01 0. -1.
         -5    1    1    2    0  502  0.90365355030E+02 -0.43474813214E+02 -0.10193799748E+01  0.10039465080E+03  0.47000000000E+01 0.  1.
<mgrwt>
<rscale>  0 0.17472863E+03</rscale>
<asrwt>0</asrwt>
<pdfrwt beam="1">  1        2 0.61768011E-01 0.18192013E+03</pdfrwt>
<pdfrwt beam="2">  1       -2 0.22905582E-01 0.18192013E+03</pdfrwt>
<totfact> 0.13112244E+03</totfact>
</mgrwt>
</event>
<event>
 8    1  0.2964543E-004  0.1893016E+03  0.7546771E-02  0.1159123E+00
          2   -1    0    0  501    0  0.00000000000E+00  0.00000000000E+00  0.69976300965E+03  0.69976300965E+03  0.00000000000E+00 0. -1.
         -2   -1    0    0    0  501 -0.00000000000E+00 -0.00000000000E+00 -0.93682164047E+02  0.93682164047E+02  0.00000000000E+00 0.  1.
         23    2    1    2    0    0  0.76658819251E+02 -0.14659438564E+03  0.57033356468E+03  0.60092882514E+03  0.92024939087E+02 0.  0.
         23    2    1    2    0    0 -0.76658819251E+02  0.14659438564E+03  0.35747280921E+02  0.19251634855E+03  0.91750683360E+02 0.  0.
          5    1    4    4  502    0 -0.70962940057E+02  0.10210305601E+03  0.63361775309E+02  0.13963372615E+03  0.47000000000E+01 0. -1.
         -5    1    3    3    0  503  0.19900208143E+02 -0.62386001299E+02  0.99233616860E+02  0.11898500812E+03  0.47000000000E+01 0.  1.
          5    1    3    3  503    0  0.56758611108E+02 -0.84208384342E+02  0.47109994782E+03  0.48194381702E+03  0.47000000000E+01 0. -1.
         -5    1    4    4    0  502 -0.56958791942E+01  0.44491329635E+02 -0.27614494388E+02  0.52882622408E+02  0.47000000000E+01 0.  1.
<mgrwt>
<rscale>  0 0.18926825E+03</rscale>
<asrwt>0</asrwt>
<pdfrwt beam="1">  1        2 0.10765584E+00 0.18930155E+03</pdfrwt>
<pdfrwt beam="2">  1       -2 0.14412641E-01 0.18930155E+03</pdfrwt>
<totfact> 0.15295944E+03</totfact>
</mgrwt>
</event>
<event>
 8    1  0.2964543E-004  0.1360559E+03  0.7546771E-02  0.1222063E+00
          1   -1    0    0  501    0  0.00000000000E+00  0.00000000000E+00  0.17757705968E+03  0.17757705968E+03  0.00000000000E+00 0. -1.
         -1   -1    0    0    0  501 -0.00000000000E+00 -0.00000000000E+00 -0.16223324259E+03  0.16223324259E+03  0.00000000000E+00 0.  1.
         23    2    1    2    0    0  0.40538981308E+02 -0.74462804631E+02 -0.99590950966E+02  0.16861067678E+03  0.10640998323E+03 0.  0.
         23    2    1    2    0    0 -0.40538981308E+02  0.74462804631E+02  0.11493476805E+03  0.17119962549E+03  0.94399113252E+02 0.  0.
          5    1    3    3  502    0 -0.86815635539E+01  0.21226269576E+02 -0.23971291012E+01  0.23532111970E+02  0.47000000000E+01 0. -1.
         -5    1    4    4    0  503  0.13479829139E+02  0.37390540397E+02  0.14172522967E+01  0.40048182341E+02  0.47000000000E+01 0.  1.
          5    1    4    4  503    0 -0.54018810448E+02  0.37072264234E+02  0.11351751575E+03  0.13115144315E+03  0.47000000000E+01 0. -1.
         -5    1    3    3    0  502  0.49220544862E+02 -0.95689074206E+02 -0.97193821865E+02  0.14507856481E+03  0.47000000000E+01 0.  1.
<mgrwt>
<rscale>  0 0.13370231E+03</rscale>
<asrwt>0</asrwt>
<pdfrwt beam="1">  1        1 0.27319548E-01 0.13605588E+03</pdfrwt>
<pdfrwt beam="2">  1       -1 0.24958960E-01 0.13605588E+03</pdfrwt>
<totfact> 0.23179760E+03</totfact>
</mgrwt>
</event>
<event>
 8    1  0.2964543E-004  0.1129797E+03  0.7546771E-02  0.1255934E+00
         -2   -1    0    0    0  501 -0.00000000000E+00  0.00000000000E+00  0.13648516393E+03  0.13648516393E+03  0.00000000000E+00 0.  1.
          2   -1    0    0  501    0  0.00000000000E+00 -0.00000000000E+00 -0.95367282252E+02  0.95367282252E+02  0.00000000000E+00 0. -1.
         23    2    1    2    0    0  0.20366155011E+02  0.64209745559E+02 -0.78608630367E+00  0.11298239694E+03  0.90701336225E+02 0.  0.
         23    2    1    2    0    0 -0.20366155011E+02 -0.64209745559E+02  0.41903967981E+02  0.11887004924E+03  0.88523863327E+02 0.  0.
          5    1    3    3  502    0  0.30329665033E+02 -0.11312894535E+02 -0.13901707537E+02  0.35541773116E+02  0.47000000000E+01 0. -1.
         -5    1    4    4    0  503 -0.46332203635E+02 -0.13025342101E+02  0.37354044411E+02  0.61104396440E+02  0.47000000000E+01 0.  1.
          5    1    4    4  503    0  0.25966048624E+02 -0.51184403458E+02  0.45499235702E+01  0.57765652796E+02  0.47000000000E+01 0. -1.
         -5    1    3    3    0  502 -0.99635100226E+01  0.75522640093E+02  0.13115621233E+02  0.77440623829E+02  0.47000000000E+01 0.  1.
<mgrwt>
<rscale>  0 0.11254199E+03</rscale>
<asrwt>0</asrwt>
<pdfrwt beam="1">  1        2 0.14671890E-01 0.11297966E+03</pdfrwt>
<pdfrwt beam="2">  1       -2 0.20997718E-01 0.11297966E+03</pdfrwt>
<totfact> 0.72059940E+03</totfact>
</mgrwt>
</event>
<event>
 8    1  0.2964543E-004  0.9677397E+02  0.7546771E-02  0.1287558E+00
          1   -1    0    0  501    0  0.00000000000E+00  0.00000000000E+00  0.51779719749E+03  0.51779719749E+03  0.00000000000E+00 0. -1.
         -1   -1    0    0    0  501 -0.00000000000E+00 -0.00000000000E+00 -0.19403479479E+02  0.19403479479E+02  0.00000000000E+00 0.  1.
         23    2    1    2    0    0 -0.13794729784E+02  0.27957895913E+02  0.32277579943E+03  0.33697094487E+03  0.91614750321E+02 0.  0.
         23    2    1    2    0    0  0.13794729784E+02 -0.27957895913E+02  0.17561791858E+03  0.20022973209E+03  0.90985459143E+02 0.  0.
          5    1    4    4  502    0  0.14503383724E+02  0.31184944614E+02  0.45561248159E+02  0.57277973461E+02  0.47000000000E+01 0. -1.
         -5    1    3    3    0  503 -0.33804654249E+00 -0.26078653112E+02  0.20389204975E+03  0.20560707277E+03  0.47000000000E+01 0.  1.
          5    1    3    3  503    0 -0.13456683241E+02  0.54036549025E+02  0.11888374968E+03  0.13136387210E+03  0.47000000000E+01 0. -1.
         -5    1    4    4    0  502 -0.70865394012E+00 -0.59142840527E+02  0.13005667042E+03  0.14295175863E+03  0.47000000000E+01 0.  1.
<mgrwt>
<rscale>  0 0.96624742E+02</rscale>
<asrwt>0</asrwt>
<pdfrwt beam="1">  1        1 0.79661097E-01 0.96773969E+02</pdfrwt>
<pdfrwt beam="2">  1       -1 0.29851511E-02 0.96773969E+02</pdfrwt>
<totfact> 0.15039540E+04</totfact>
</mgrwt>
</event>
<event>
 8    1  0.2964543E-004  0.1596335E+03  0.7546771E-02  0.1189168E+00
          2   -1    0    0  501    0  0.00000000000E+00  0.00000000000E+00  0.12969886404E+04  0.12969886404E+04  0.00000000000E+00 0. -1.
         -2   -1    0    0    0  501 -0.00000000000E+00 -0.00000000000E+00 -0.29777172227E+02  0.29777172227E+02  0.00000000000E+00 0.  1.
         23    2    1    2    0    0 -0.88974882689E+02 -0.95772287090E+02  0.24595874011E+03  0.29311209654E+03  0.91269592863E+02 0.  0.
         23    2    1    2    0    0  0.88974882689E+02  0.95772287090E+02  0.10212527281E+04  0.10336537161E+04  0.91618827029E+02 0.  0.
          5    1    3    3  502    0 -0.74498385069E+02 -0.60204681492E+02  0.23356778156E+03  0.25248883467E+03  0.47000000000E+01 0. -1.
         -5    1    4    4    0  503  0.33599560686E+02 -0.11274092472E+02  0.33288260920E+03  0.33479688939E+03  0.47000000000E+01 0.  1.
          5    1    4    4  503    0  0.55375322003E+02  0.10704637956E+03  0.68837011892E+03  0.69885682674E+03  0.47000000000E+01 0. -1.
         -5    1    3    3    0  502 -0.14476497620E+02 -0.35567605598E+02  0.12390958546E+02  0.40623261871E+02  0.47000000000E+01 0.  1.
<mgrwt>
<rscale>  0 0.15958348E+03</rscale>
<asrwt>0</asrwt>
<pdfrwt beam="1">  1        2 0.19953667E+00 0.15963355E+03</pdfrwt>
<pdfrwt beam="2">  1       -2 0.45811044E-02 0.15963355E+03</pdfrwt>
<totfact> 0.39031035E+03</totfact>
</mgrwt>
</event>
<event>
 8    1  0.2964543E-004  0.1081733E+03  0.7546771E-02  0.1265981E+00
         -1   -1    0    0    0  501 -0.00000000000E+00  0.00000000000E+00  0.70263000139E+03  0.70263000139E+03  0.00000000000E+00 0.  1.
          1   -1    0    0  501    0  0.00000000000E+00 -0.00000000000E+00 -0.19269938928E+02  0.19269938928E+02  0.00000000000E+00 0. -1.
         23    2    1    2    0    0 -0.44627374118E+02  0.25741054883E+02  0.19912067456E+03  0.22660649756E+03  0.95117071386E+02 0.  0.
         23    2    1    2    0    0  0.44627374118E+02 -0.25741054883E+02  0.48423938790E+03  0.49529344277E+03  0.90407993134E+02 0.  0.
          5    1    4    4  502    0  0.57187091975E+02  0.15523121407E+02  0.31647744178E+03  0.32201147796E+03  0.47000000000E+01 0. -1.
         -5    1    4    4    0  502 -0.12559717856E+02 -0.41264176290E+02  0.16776194613E+03  0.17328196480E+03  0.47000000000E+01 0.  1.
          5    1    3    3  503    0 -0.50122197925E+02  0.56320682570E+02  0.15514145227E+03  0.17255496000E+03  0.47000000000E+01 0. -1.
         -5    1    3    3    0  503  0.54948238066E+01 -0.30579627687E+02  0.43979222296E+02  0.54051537554E+02  0.47000000000E+01 0.  1.
<mgrwt>
<rscale>  0 0.10712914E+03</rscale>
<asrwt>0</asrwt>
<pdfrwt beam="1">  1        1 0.29646065E-02 0.10817329E+03</pdfrwt>
<pdfrwt beam="2">  1       -1 0.10809690E+00 0.10817329E+03</pdfrwt>
<totfact> 0.27845752E+03</totfact>
</mgrwt>
</event>
<event>
 8    1  0.2964543E-004  0.9388683E+02  0.7546771E-02  0.1294680E+00
         -2   -1    0    0    0  501 -0.00000000000E+00  0.00000000000E+00  0.46496020201E+03  0.46496020201E+03  0.00000000000E+00 0.  1.
          2   -1    0    0  501    0  0.00000000000E+00 -0.00000000000E+00 -0.49589720323E+02  0.49589720323E+02  0.00000000000E+00 0. -1.
         23    2    1    2    0    0  0.14717273527E+02 -0.10321152648E+02  0.50755795634E+01  0.94023926330E+02  0.92149947817E+02 0.  0.
         23    2    1    2    0    0 -0.14717273527E+02  0.10321152648E+02  0.41029490213E+03  0.42052599601E+03  0.90427220867E+02 0.  0.
          5    1    3    3  502    0 -0.17621034244E+02 -0.35065118031E+02  0.26683280995E+02  0.47688057572E+02  0.47000000000E+01 0. -1.
         -5    1    4    4    0  503  0.69862524475E+01  0.47701861014E+02  0.23244195732E+03  0.23743552554E+03  0.47000000000E+01 0.  1.
          5    1    4    4  503    0 -0.21703525974E+02 -0.37380708367E+02  0.17785294481E+03  0.18309047046E+03  0.47000000000E+01 0. -1.
         -5    1    3    3    0  502  0.32338307771E+02  0.24743965384E+02 -0.21607701431E+02  0.46335868758E+02  0.47000000000E+01 0.  1.
<mgrwt>
<rscale>  0 0.93461382E+02</rscale>
<asrwt>0</asrwt>
<pdfrwt beam="1">  1        2 0.76291881E-02 0.93886832E+02</pdfrwt>
<pdfrwt beam="2">  1       -2 0.71532336E-01 0.93886832E+02</pdfrwt>
<totfact> 0.15592360E+03</totfact>
</mgrwt>
</event>
<event>
 8    1  0.2964543E-004  0.1166615E+03  0.7546771E-02  0.1254957E+00
         -1   -1    0    0    0  501 -0.00000000000E+00  0.00000000000E+00  0.32817087328E+03  0.32817087328E+03  0.00000000000E+00 0.  1.
          1   -1    0    0  501    0  0.00000000000E+00 -0.00000000000E+00 -0.37252418101E+02  0.37252418101E+02  0.00000000000E+00 0. -1.
         23    2    1    2    0    0  0.31087899781E+02 -0.64973015907E+02  0.13342434239E+03  0.17723419220E+03  0.91771201556E+02 0.  0.
         23    2    1    2    0    0 -0.31087899781E+02  0.64973015907E+02  0.15749411279E+03  0.18818909918E+03  0.73639603317E+02 0.  0.
          5    1    4    4  502    0 -0.37762032138E+02  0.22438713417E+01  0.76006942920E+02  0.85030296964E+02  0.47000000000E+01 0. -1.
         -5    1    3    3    0  503 -0.30010867632E+02 -0.30021505387E+02  0.71903070338E+02  0.83630643222E+02  0.47000000000E+01 0.  1.
          5    1    3    3  503    0  0.61098767413E+02 -0.34951510520E+02  0.61521272050E+02  0.93603548980E+02  0.47000000000E+01 0. -1.
         -5    1    4    4    0  502  0.66741323565E+01  0.62729144565E+02  0.81487169870E+02  0.10315880221E+03  0.47000000000E+01 0.  1.
<mgrwt>
<rscale>  0 0.11308731E+03</rscale>
<asrwt>0</asrwt>
<pdfrwt beam="1">  1        1 0.57311415E-02 0.11666149E+03</pdfrwt>
<pdfrwt beam="2">  1       -1 0.50487825E-01 0.11666149E+03</pdfrwt>
<totfact> 0.52369035E+03</totfact>
</mgrwt>
</event>
<event>
 8    1  0.2964543E-004  0.1136768E+03  0.7546771E-02  0.1254186E+00
          1   -1    0    0  501    0  0.00000000000E+00  0.00000000000E+00  0.14264569438E+02  0.14264569438E+02  0.00000000000E+00 0. -1.
         -1   -1    0    0    0  501 -0.00000000000E+00 -0.00000000000E+00 -0.93127854109E+03  0.93127854109E+03  0.00000000000E+00 0.  1.
         23    2    1    2    0    0  0.62094986507E+02 -0.26852218139E+02 -0.54260331462E+03  0.55425581396E+03  0.90577708619E+02 0.  0.
         23    2    1    2    0    0 -0.62094986507E+02  0.26852218139E+02 -0.37441065703E+03  0.39128729657E+03  0.91354142714E+02 0.  0.
          5    1    4    4  502    0 -0.25301052852E+02 -0.33750126654E+02 -0.15087345813E+03  0.15672939958E+03  0.47000000000E+01 0. -1.
         -5    1    3    3    0  503  0.27515950268E+02  0.26220029353E+02 -0.99372924273E+02  0.10649734991E+03  0.47000000000E+01 0.  1.
          5    1    3    3  503    0  0.34579036239E+02 -0.53072247492E+02 -0.44323039035E+03  0.44775846405E+03  0.47000000000E+01 0. -1.
         -5    1    4    4    0  502 -0.36793933655E+02  0.60602344793E+02 -0.22353719890E+03  0.23455789699E+03  0.47000000000E+01 0.  1.
<mgrwt>
<rscale>  0 0.11352069E+03</rscale>
<asrwt>0</asrwt>
<pdfrwt beam="1">  1        1 0.21945497E-02 0.11367677E+03</pdfrwt>
<pdfrwt beam="2">  1       -1 0.14327359E+00 0.11367677E+03</pdfrwt>
<totfact> 0.21661688E+03</totfact>
</mgrwt>
</event>
<event>
 8    1  0.2964543E-004  0.9576461E+02  0.7546771E-02  0.1291684E+00
         -2   -1    0    0    0  501 -0.00000000000E+00  0.00000000000E+00  0.42785245166E+03  0.42785245166E+03  0.00000000000E+00 0.  1.
          2   -1    0    0  501    0  0.00000000000E+00 -0.00000000000E+00 -0.34957654256E+02  0.34957654256E+02  0.00000000000E+00 0. -1.
         23    2    1    2    0    0  0.47199992799E+01  0.14308994675E+02  0.34247724308E+03  0.35458446123E+03  0.90622582149E+02 0.  0.
         23    2    1    2    0    0 -0.47199992799E+01 -0.14308994675E+02  0.50417554328E+02  0.10822564469E+03  0.94571849209E+02 0.  0.
          5    1    4    4  502    0 -0.46901493085E+02  0.70388285264E+01  0.19217065104E+02  0.51387554445E+02  0.47000000000E+01 0. -1.
         -5    1    3    3    0  503  0.16755228543E+02  0.50480538133E+02  0.19278238940E+03  0.20004040111E+03  0.47000000000E+01 0.  1.
          5    1    3    3  503    0 -0.12035229263E+02 -0.36171543458E+02  0.14969485368E+03  0.15454406012E+03  0.47000000000E+01 0. -1.
         -5    1    4    4    0  502  0.42181493805E+02 -0.21347823202E+02  0.31200489224E+02  0.56838090247E+02  0.47000000000E+01 0.  1.
<mgrwt>
<rscale>  0 0.94774877E+02</rscale>
<asrwt>0</asrwt>
<pdfrwt beam="1">  1        2 0.53781009E-02 0.95764609E+02</pdfrwt>
<pdfrwt beam="2">  1       -2 0.65823451E-01 0.95764609E+02</pdfrwt>
<totfact> 0.28952824E+03</totfact>
</mgrwt>
</event>
<event>
 8    1  0.2964543E-004  0.1010026E+03  0.7546771E-02  0.1278714E+00
         -2   -1    0    0    0  501 -0.00000000000E+00  0.00000000000E+00  0.17914544129E+02  0.17914544129E+02  0.00000000000E+00 0.  1.
          2   -1    0    0  501    0  0.00000000000E+00 -0.00000000000E+00 -0.65323947652E+03  0.65323947652E+03  0.00000000000E+00 0. -1.
         23    2    1    2    0    0  0.37863581834E+02  0.22148958517E+02 -0.44040130088E+03  0.45161642344E+03  0.89888046519E+02 0.  0.
         23    2    1    2    0    0 -0.37863581834E+02 -0.22148958517E+02 -0.19492363151E+03  0.21953759721E+03  0.90979708044E+02 0.  0.
          5    1    4    4  502    0 -0.51348569843E+02  0.10627555512E+02 -0.16407996039E+03  0.17231930815E+03  0.47000000000E+01 0. -1.
         -5    1    3    3    0  503  0.20410408773E+02 -0.14547329923E+02 -0.30840847348E+02  0.40018214094E+02  0.47000000000E+01 0.  1.
          5    1    3    3  503    0  0.17453173061E+02  0.36696288440E+02 -0.40956045353E+03  0.41159820934E+03  0.47000000000E+01 0. -1.
         -5    1    4    4    0  502  0.13484988009E+02 -0.32776514029E+02 -0.30843671124E+02  0.47218289062E+02  0.47000000000E+01 0.  1.
<mgrwt>
<rscale>  0 0.10075619E+03</rscale>
<asrwt>0</asrwt>
<pdfrwt beam="1">  1        2 0.10049841E+00 0.10100265E+03</pdfrwt>
<pdfrwt beam="2">  1       -2 0.27560830E-02 0.10100265E+03</pdfrwt>
<totfact> 0.20180020E+04</totfact>
</mgrwt>
</event>
<event>
 8    1  0.2964543E-004  0.9714267E+02  0.7546771E-02  0.1286559E+00
          1   -1    0    0  501    0  0.00000000000E+00  0.00000000000E+00  0.41763052393E+02  0.41763052393E+02  0.00000000000E+00 0. -1.
         -1   -1    0    0    0  501 -0.00000000000E+00 -0.00000000000E+00 -0.22556694781E+03  0.22556694781E+03  0.00000000000E+00 0.  1.
         23    2    1    2    0    0  0.63166633083E+00  0.32405259875E+02 -0.87905267256E+02  0.13082635554E+03  0.91311003842E+02 0.  0.
         23    2    1    2    0    0 -0.63166633083E+00 -0.32405259875E+02 -0.95898628164E+02  0.13650364467E+03  0.91576188245E+02 0.  0.
          5    1    4    4  502    0  0.44353783781E+02 -0.15808764222E+02 -0.35034777191E+02  0.58878695423E+02  0.47000000000E+01 0. -1.
         -5    1    4    4    0  502 -0.44985450112E+02 -0.16596495652E+02 -0.60863850973E+02  0.77624949243E+02  0.47000000000E+01 0.  1.
          5    1    3    3  503    0  0.27052061639E+02  0.55090233706E+02 -0.59955633757E+02  0.85927387415E+02  0.47000000000E+01 0. -1.
         -5    1    3    3    0  503 -0.26420395308E+02 -0.22684973832E+02 -0.27949633499E+02  0.44898968125E+02  0.47000000000E+01 0.  1.
<mgrwt>
<rscale>  0 0.97080121E+02</rscale>
<asrwt>0</asrwt>
<pdfrwt beam="1">  1        1 0.64250850E-02 0.97142669E+02</pdfrwt>
<pdfrwt beam="2">  1       -1 0.34702607E-01 0.97142669E+02</pdfrwt>
<totfact> 0.85442217E+03</totfact>
</mgrwt>
</event>
<event>
 8    1  0.2964543E-004  0.9272936E+02  0.7546771E-02  0.1296808E+00
         -3   -1    0    0    0  501 -0.00000000000E+00  0.00000000000E+00  0.10905608358E+03  0.10905608358E+03  0.00000000000E+00 0.  1.
          3   -1    0    0  501    0  0.00000000000E+00 -0.00000000000E+00 -0.89524825757E+02  0.89524825757E+02  0.00000000000E+00 0. -1.
         23    2    1    2    0    0  0.86267187794E+00 -0.16452012863E+02  0.45089524972E+02  0.10311061446E+03  0.91254153996E+02 0.  0.
         23    2    1    2    0    0 -0.86267187794E+00  0.16452012863E+02 -0.25558267150E+02  0.95470294880E+02  0.90498283160E+02 0.  0.
          5    1    4    4  502    0  0.31156513821E+02  0.12381480697E+02 -0.45896489027E+02  0.57031632650E+02  0.47000000000E+01 0. -1.
         -5    1    4    4    0  502 -0.32019185699E+02  0.40705321663E+01  0.20338221877E+02  0.38438662230E+02  0.47000000000E+01 0.  1.
          5    1    3    3  503    0  0.30814551349E+02  0.23808092876E+02  0.33055936146E+02  0.51294705143E+02  0.47000000000E+01 0. -1.
         -5    1    3    3    0  503 -0.29951879471E+02 -0.40260105739E+02  0.12033588826E+02  0.51815909314E+02  0.47000000000E+01 0.  1.
<mgrwt>
<rscale>  0 0.92542858E+02</rscale>
<asrwt>0</asrwt>
<pdfrwt beam="1">  1        3 0.13773050E-01 0.92729356E+02</pdfrwt>
<pdfrwt beam="2">  1       -3 0.16777859E-01 0.92729356E+02</pdfrwt>
<totfact> 0.27866213E+03</totfact>
</mgrwt>
</event>
<event>
 8    1  0.2964543E-004  0.1847015E+03  0.7546771E-02  0.1163382E+00
          2   -1    0    0  501    0  0.00000000000E+00  0.00000000000E+00  0.49839217190E+02  0.49839217190E+02  0.00000000000E+00 0. -1.
         -2   -1    0    0    0  501 -0.00000000000E+00 -0.00000000000E+00 -0.81169817967E+03  0.81169817967E+03  0.00000000000E+00 0.  1.
         23    2    1    2    0    0 -0.15223352575E+03 -0.53180862832E+02 -0.55182443978E+03  0.58184266242E+03  0.89595875696E+02 0.  0.
         23    2    1    2    0    0  0.15223352575E+03  0.53180862832E+02 -0.21003452270E+03  0.27969473444E+03  0.90063273383E+02 0.  0.
          5    1    4    4  502    0  0.11849643994E+03 -0.33748194502E+01 -0.13205229536E+03  0.17751815229E+03  0.47000000000E+01 0. -1.
         -5    1    4    4    0  502  0.33737085813E+02  0.56555682282E+02 -0.77982227347E+02  0.10217658215E+03  0.47000000000E+01 0.  1.
          5    1    3    3  503    0 -0.14956163900E+02 -0.42342609959E+02 -0.17093390122E+03  0.17679669692E+03  0.47000000000E+01 0. -1.
         -5    1    3    3    0  503 -0.13727736185E+03 -0.10838252872E+02 -0.38089053856E+03  0.40504596550E+03  0.47000000000E+01 0.  1.
<mgrwt>
<rscale>  0 0.18464461E+03</rscale>
<asrwt>0</asrwt>
<pdfrwt beam="1">  1        2 0.76675718E-02 0.18470150E+03</pdfrwt>
<pdfrwt beam="2">  1       -2 0.12487664E+00 0.18470150E+03</pdfrwt>
<totfact> 0.44885881E+02</totfact>
</mgrwt>
</event>
<event>
 8    1  0.2964543E-004  0.9569477E+02  0.7546771E-02  0.1289959E+00
         -1   -1    0    0    0  501 -0.00000000000E+00  0.00000000000E+00  0.44323423110E+02  0.44323423110E+02  0.00000000000E+00 0.  1.
          1   -1    0    0  501    0  0.00000000000E+00 -0.00000000000E+00 -0.24797278362E+03  0.24797278362E+03  0.00000000000E+00 0. -1.
         23    2    1    2    0    0 -0.24217751837E+02 -0.17828204888E+02 -0.41463109434E+02  0.10429131573E+03  0.90846819977E+02 0.  0.
         23    2    1    2    0    0  0.24217751837E+02  0.17828204888E+02 -0.16218625107E+03  0.18800489099E+03  0.90205956604E+02 0.  0.
          5    1    3    3  502    0 -0.21912605432E+02  0.23441391467E+02 -0.52085061442E+02  0.61356374861E+02  0.47000000000E+01 0. -1.
         -5    1    3    3    0  502 -0.23051464045E+01 -0.41269596355E+02  0.10621952008E+02  0.42934940872E+02  0.47000000000E+01 0.  1.
          5    1    4    4  503    0  0.46756483394E+01 -0.21720481363E+02 -0.13294737229E+03  0.13487303214E+03  0.47000000000E+01 0. -1.
         -5    1    4    4    0  503  0.19542103497E+02  0.39548686251E+02 -0.29238878779E+02  0.53131858857E+02  0.47000000000E+01 0.  1.
<mgrwt>
<rscale>  0 0.95542361E+02</rscale>
<asrwt>0</asrwt>
<pdfrwt beam="1">  1        1 0.38149659E-01 0.95694770E+02</pdfrwt>
<pdfrwt beam="2">  1       -1 0.68189882E-02 0.95694770E+02</pdfrwt>
<totfact> 0.11214139E+04</totfact>
</mgrwt>
</event>
<event>
 8    1  0.2964543E-004  0.1289614E+03  0.7546771E-02  0.1230378E+00
         -1   -1    0    0    0  501 -0.00000000000E+00  0.00000000000E+00  0.81315114021E+02  0.81315114021E+02  0.00000000000E+00 0.  1.
          1   -1    0    0  501    0  0.00000000000E+00 -0.00000000000E+00 -0.25759584815E+03  0.25759584815E+03  0.00000000000E+00 0. -1.
         23    2    1    2    0    0 -0.41736865089E+01  0.86304084209E+02 -0.62563938843E+01  0.12551152331E+03  0.90819521081E+02 0.  0.
         23    2    1    2    0    0  0.41736865089E+01 -0.86304084209E+02 -0.17002434025E+03  0.21339943886E+03  0.95735205750E+02 0.  0.
          5    1    3    3  502    0  0.38934459100E+02  0.25231698678E+02  0.12536184135E+02  0.48288473120E+02  0.47000000000E+01 0. -1.
         -5    1    3    3    0  502 -0.43108145609E+02  0.61072385532E+02 -0.18792578019E+02  0.77223050192E+02  0.47000000000E+01 0.  1.
          5    1    4    4  503    0 -0.37680185118E+02 -0.64466869199E+02 -0.13529495604E+03  0.15460462058E+03  0.47000000000E+01 0. -1.
         -5    1    4    4    0  503  0.41853871627E+02 -0.21837215011E+02 -0.34729384211E+02  0.58794818286E+02  0.47000000000E+01 0.  1.
<mgrwt>
<rscale>  0 0.12805032E+03</rscale>
<asrwt>0</asrwt>
<pdfrwt beam="1">  1        1 0.39630130E-01 0.12896141E+03</pdfrwt>
<pdfrwt beam="2">  1       -1 0.12510018E-01 0.12896141E+03</pdfrwt>
<totfact> 0.43684306E+03</totfact>
</mgrwt>
</event>
<event>
 8    1  0.2964543E-004  0.1146214E+03  0.7546771E-02  0.1252573E+00
         -1   -1    0    0    0  501 -0.00000000000E+00  0.00000000000E+00  0.17066090933E+02  0.17066090933E+02  0.00000000000E+00 0.  1.
          1   -1    0    0  501    0  0.00000000000E+00 -0.00000000000E+00 -0.10205047615E+04  0.10205047615E+04  0.00000000000E+00 0. -1.
         23    2    1    2    0    0  0.68172084106E+02 -0.10860881127E+02 -0.76016645116E+03  0.76864809890E+03  0.90561993563E+02 0.  0.
         23    2    1    2    0    0 -0.68172084106E+02  0.10860881127E+02 -0.24327221945E+03  0.26892275358E+03  0.91502365248E+02 0.  0.
          5    1    4    4  502    0 -0.18984805282E+02  0.44038969573E+02 -0.15611876660E+03  0.16338608557E+03  0.47000000000E+01 0. -1.
         -5    1    4    4    0  502 -0.49187278824E+02 -0.33178088447E+02 -0.87153452852E+02  0.10553666801E+03  0.47000000000E+01 0.  1.
          5    1    3    3  503    0  0.77266127568E+02 -0.36215975035E+02 -0.52712431643E+03  0.53400729048E+03  0.47000000000E+01 0. -1.
         -5    1    3    3    0  503 -0.90940434617E+01  0.25355093908E+02 -0.23304213473E+03  0.23464080842E+03  0.47000000000E+01 0.  1.
<mgrwt>
<rscale>  0 0.11443366E+03</rscale>
<asrwt>0</asrwt>
<pdfrwt beam="1">  1        1 0.15700070E+00 0.11462144E+03</pdfrwt>
<pdfrwt beam="2">  1       -1 0.26255530E-02 0.11462144E+03</pdfrwt>
<totfact> 0.68288980E+03</totfact>
</mgrwt>
</event>
<event>
 8    1  0.2964543E-004  0.1249256E+03  0.7546771E-02  0.1245395E+00
         -1   -1    0    0    0  501 -0.00000000000E+00  0.00000000000E+00  0.24454267343E+02  0.24454267343E+02  0.00000000000E+00 0.  1.
          1   -1    0    0  501    0  0.00000000000E+00 -0.00000000000E+00 -0.52432907380E+03  0.52432907380E+03  0.00000000000E+00 0. -1.
         23    2    1    2    0    0  0.18792347529E+02 -0.30912657630E+02 -0.22269080345E+03  0.24474817942E+03  0.94877461279E+02 0.  0.
         23    2    1    2    0    0 -0.18792347529E+02  0.30912657630E+02 -0.27718400300E+03  0.30403516172E+03  0.11957283687E+03 0.  0.
          5    1    4    4  502    0  0.43936190218E+02  0.15809155005E+02 -0.18855469310E+03  0.19430718073E+03  0.47000000000E+01 0. -1.
         -5    1    3    3    0  503 -0.16585421536E+02  0.15403013737E+02 -0.11904785546E+02  0.26002749059E+02  0.47000000000E+01 0.  1.
          5    1    3    3  503    0  0.35377769065E+02 -0.46315671367E+02 -0.21078601791E+03  0.21874543036E+03  0.47000000000E+01 0. -1.
         -5    1    4    4    0  502 -0.62728537747E+02  0.15103502625E+02 -0.88629309902E+02  0.10972798099E+03  0.47000000000E+01 0.  1.
<mgrwt>
<rscale>  0 0.11861742E+03</rscale>
<asrwt>0</asrwt>
<pdfrwt beam="1">  1        1 0.80666000E-01 0.12492561E+03</pdfrwt>
<pdfrwt beam="2">  1       -1 0.37621955E-02 0.12492561E+03</pdfrwt>
<totfact> 0.10796404E+04</totfact>
</mgrwt>
</event>
<event>
 8    1  0.2964543E-004  0.9313599E+02  0.7546771E-02  0.1295434E+00
         -2   -1    0    0    0  501 -0.00000000000E+00  0.00000000000E+00  0.23991163263E+02  0.23991163263E+02  0.00000000000E+00 0.  1.
          2   -1    0    0  501    0  0.00000000000E+00 -0.00000000000E+00 -0.87246957099E+03  0.87246957099E+03  0.00000000000E+00 0. -1.
         23    2    1    2    0    0  0.16831031045E+01 -0.22423251208E+02 -0.81222101067E+02  0.12357228675E+03  0.90373919464E+02 0.  0.
         23    2    1    2    0    0 -0.16831031045E+01  0.22423251208E+02 -0.76725630666E+03  0.77288844751E+03  0.90380734392E+02 0.  0.
          5    1    4    4  502    0 -0.41941792858E+02 -0.61420123960E+01 -0.40878870648E+03  0.41100746325E+03  0.47000000000E+01 0. -1.
         -5    1    3    3    0  503  0.43121082663E+02 -0.50437880129E+01 -0.21468013626E+02  0.48660386112E+02  0.47000000000E+01 0.  1.
          5    1    3    3  503    0 -0.41437979558E+02 -0.17379463195E+02 -0.59754087441E+02  0.74911900635E+02  0.47000000000E+01 0. -1.
         -5    1    4    4    0  502  0.40258689753E+02  0.28565263604E+02 -0.35846760018E+03  0.36188098426E+03  0.47000000000E+01 0.  1.
<mgrwt>
<rscale>  0 0.93134334E+02</rscale>
<asrwt>0</asrwt>
<pdfrwt beam="1">  1        2 0.13422609E+00 0.93135988E+02</pdfrwt>
<pdfrwt beam="2">  1       -2 0.36909480E-02 0.93135988E+02</pdfrwt>
<totfact> 0.92439878E+03</totfact>
</mgrwt>
</event>
<event>
 8    1  0.2964543E-004  0.1219649E+03  0.7546771E-02  0.1239998E+00
         -2   -1    0    0    0  501 -0.00000000000E+00  0.00000000000E+00  0.22939940947E+02  0.22939940947E+02  0.00000000000E+00 0.  1.
          2   -1    0    0  501    0  0.00000000000E+00 -0.00000000000E+00 -0.88037760721E+03  0.88037760721E+03  0.00000000000E+00 0. -1.
         23    2    1    2    0    0 -0.47943885051E+02  0.64166575598E+02 -0.19653862623E+03  0.23130684820E+03  0.91975327604E+02 0.  0.
         23    2    1    2    0    0  0.47943885051E+02 -0.64166575598E+02 -0.66089904003E+03  0.67201069995E+03  0.91623546082E+02 0.  0.
          5    1    4    4  502    0  0.53883738013E+02 -0.83879186911E+02 -0.57164669015E+03  0.58029406647E+03  0.47000000000E+01 0. -1.
         -5    1    3    3    0  503 -0.70872063314E+02  0.59803839753E+02 -0.12366721484E+03  0.15464481444E+03  0.47000000000E+01 0.  1.
          5    1    3    3  503    0  0.22928178263E+02  0.43627358449E+01 -0.72871411388E+02  0.76662033760E+02  0.47000000000E+01 0. -1.
         -5    1    4    4    0  502 -0.59398529618E+01  0.19712611314E+02 -0.89252349881E+02  0.91716633482E+02  0.47000000000E+01 0.  1.
<mgrwt>
<rscale>  0 0.12189854E+03</rscale>
<asrwt>0</asrwt>
<pdfrwt beam="1">  1        2 0.13544268E+00 0.12196486E+03</pdfrwt>
<pdfrwt beam="2">  1       -2 0.35292224E-02 0.12196486E+03</pdfrwt>
<totfact> 0.99285172E+03</totfact>
</mgrwt>
</event>
<event>
 8    1  0.2964543E-004  0.1201425E+03  0.7546771E-02  0.1246538E+00
         -2   -1    0    0    0  501 -0.00000000000E+00  0.00000000000E+00  0.47442312099E+02  0.47442312099E+02  0.00000000000E+00 0.  1.
          2   -1    0    0  501    0  0.00000000000E+00 -0.00000000000E+00 -0.28366216648E+03  0.28366216648E+03  0.00000000000E+00 0. -1.
         23    2    1    2    0    0 -0.56792900893E+02  0.33666932832E+02 -0.10523028463E+03  0.15336174026E+03  0.89930609996E+02 0.  0.
         23    2    1    2    0    0  0.56792900893E+02 -0.33666932832E+02 -0.13098956975E+03  0.17774273831E+03  0.10037588198E+03 0.  0.
          5    1    3    3  502    0 -0.13017246116E+02 -0.27719020112E+02 -0.53438325571E+02  0.61770036525E+02  0.47000000000E+01 0. -1.
         -5    1    3    3    0  502 -0.43775654777E+02  0.61385952945E+02 -0.51791959059E+02  0.91591703736E+02  0.47000000000E+01 0.  1.
          5    1    4    4  503    0  0.23939536244E+02 -0.64728810673E+02 -0.10391821074E+03  0.12483591170E+03  0.47000000000E+01 0. -1.
         -5    1    4    4    0  503  0.32853364649E+02  0.31061877841E+02 -0.27071359009E+02  0.52906826614E+02  0.47000000000E+01 0.  1.
<mgrwt>
<rscale>  0 0.11793778E+03</rscale>
<asrwt>0</asrwt>
<pdfrwt beam="1">  1        2 0.43640334E-01 0.12014247E+03</pdfrwt>
<pdfrwt beam="2">  1       -2 0.72988172E-02 0.12014247E+03</pdfrwt>
<totfact> 0.11840688E+04</totfact>
</mgrwt>
</event>
<event>
 8    1  0.2964543E-004  0.1017255E+03  0.7546771E-02  0.1277140E+00
          1   -1    0    0  501    0  0.00000000000E+00  0.00000000000E+00  0.40246189538E+02  0.40246189538E+02  0.00000000000E+00 0. -1.
         -1   -1    0    0    0  501 -0.00000000000E+00 -0.00000000000E+00 -0.26172240503E+03  0.26172240503E+03  0.00000000000E+00 0.  1.
         23    2    1    2    0    0  0.31062466922E+02 -0.32070092676E+02 -0.87004200866E+02  0.13385739667E+03  0.91404069824E+02 0.  0.
         23    2    1    2    0    0 -0.31062466922E+02  0.32070092676E+02 -0.13447201463E+03  0.16811119790E+03  0.90472561832E+02 0.  0.
          5    1    4    4  502    0  0.26305710098E+02  0.32672022429E+02 -0.44785610832E+02  0.61540981232E+02  0.47000000000E+01 0. -1.
         -5    1    4    4    0  502 -0.57368177021E+02 -0.60192975322E+00 -0.89686403795E+02  0.10657021666E+03  0.47000000000E+01 0.  1.
          5    1    3    3  503    0 -0.25999890929E+02  0.10516311582E+02 -0.37264342782E+02  0.46875456057E+02  0.47000000000E+01 0.  1.
         -5    1    3    3    0  503  0.57062357851E+02 -0.42586404258E+02 -0.49739858085E+02  0.86981940617E+02  0.47000000000E+01 0. -1.
<mgrwt>
<rscale>  0 0.10151578E+03</rscale>
<asrwt>0</asrwt>
<pdfrwt beam="1">  1        1 0.61917213E-02 0.10172547E+03</pdfrwt>
<pdfrwt beam="2">  1       -1 0.40264986E-01 0.10172547E+03</pdfrwt>
<totfact> 0.69822696E+03</totfact>
</mgrwt>
</event>
<event>
 8    1  0.2964543E-004  0.1209436E+03  0.7546771E-02  0.1244011E+00
          1   -1    0    0  501    0  0.00000000000E+00  0.00000000000E+00  0.62364292563E+02  0.62364292563E+02  0.00000000000E+00 0. -1.
         -1   -1    0    0    0  501 -0.00000000000E+00 -0.00000000000E+00 -0.26979204359E+03  0.26979204359E+03  0.00000000000E+00 0.  1.
         23    2    1    2    0    0  0.21987434382E+02 -0.66544759285E+02 -0.17050616821E+03  0.20570259784E+03  0.91266385371E+02 0.  0.
         23    2    1    2    0    0 -0.21987434382E+02  0.66544759285E+02 -0.36921582808E+02  0.12645373831E+03  0.98568211899E+02 0.  0.
          5    1    3    3  502    0  0.30437446617E+02  0.80351476633E+01 -0.90340433670E+02  0.95783535694E+02  0.47000000000E+01 0. -1.
         -5    1    4    4    0  503 -0.32984307861E+02 -0.16402769075E+02 -0.10998704482E+02  0.38730826207E+02  0.47000000000E+01 0.  1.
          5    1    4    4  503    0  0.10996873478E+02  0.82947528361E+02 -0.25922878326E+02  0.87722912105E+02  0.47000000000E+01 0. -1.
         -5    1    3    3    0  502 -0.84500122341E+01 -0.74579906949E+02 -0.80165734545E+02  0.10991906214E+03  0.47000000000E+01 0.  1.
<mgrwt>
<rscale>  0 0.11944776E+03</rscale>
<asrwt>0</asrwt>
<pdfrwt beam="1">  1        1 0.95945068E-02 0.12094356E+03</pdfrwt>
<pdfrwt beam="2">  1       -1 0.41506467E-01 0.12094356E+03</pdfrwt>
<totfact> 0.37364451E+03</totfact>
</mgrwt>
</event>
<event>
 8    1  0.2964543E-004  0.9187279E+02  0.7546771E-02  0.1298650E+00
         -2   -1    0    0    0  501 -0.00000000000E+00  0.00000000000E+00  0.32721289405E+03  0.32721289405E+03  0.00000000000E+00 0.  1.
          2   -1    0    0  501    0  0.00000000000E+00 -0.00000000000E+00 -0.28296679114E+02  0.28296679114E+02  0.00000000000E+00 0. -1.
         23    2    1    2    0    0  0.45868684465E+01  0.10536459603E+01  0.94924226001E+02  0.13178353421E+03  0.91291520281E+02 0.  0.
         23    2    1    2    0    0 -0.45868684465E+01 -0.10536459603E+01  0.20399198893E+03  0.22372603895E+03  0.91752163047E+02 0.  0.
          5    1    3    3  502    0  0.15869415759E+02  0.40930253611E+02  0.26041216321E+02  0.51257769798E+02  0.47000000000E+01 0. -1.
         -5    1    3    3    0  502 -0.11282547313E+02 -0.39876607651E+02  0.68883009680E+02  0.80525764413E+02  0.47000000000E+01 0.  1.
          5    1    4    4  503    0  0.40918544579E+02 -0.31487405600E+01  0.61740596787E+02  0.74284811026E+02  0.47000000000E+01 0. -1.
         -5    1    4    4    0  503 -0.45505413026E+02  0.20950945998E+01  0.14225139215E+03  0.14944122792E+03  0.47000000000E+01 0.  1.
<mgrwt>
<rscale>  0 0.91757561E+02</rscale>
<asrwt>0</asrwt>
<pdfrwt beam="1">  1        2 0.43533355E-02 0.91872787E+02</pdfrwt>
<pdfrwt beam="2">  1       -2 0.50340443E-01 0.91872787E+02</pdfrwt>
<totfact> 0.65226179E+03</totfact>
</mgrwt>
</event>
<event>
 8    1  0.2964543E-004  0.1048207E+03  0.7546771E-02  0.1276305E+00
         -1   -1    0    0    0  501 -0.00000000000E+00  0.00000000000E+00  0.24111342795E+02  0.24111342795E+02  0.00000000000E+00 0.  1.
          1   -1    0    0  501    0  0.00000000000E+00 -0.00000000000E+00 -0.56487870235E+03  0.56487870235E+03  0.00000000000E+00 0. -1.
         23    2    1    2    0    0 -0.24163371370E+02 -0.76369817189E+01 -0.43605071198E+03  0.44847251386E+03  0.10171125928E+03 0.  0.
         23    2    1    2    0    0  0.24163371370E+02  0.76369817189E+01 -0.10471664757E+03  0.14051753128E+03  0.90207584565E+02 0.  0.
          5    1    4    4  502    0  0.38713394377E+02 -0.30135823432E+02 -0.76316756305E+02  0.90847300736E+02  0.47000000000E+01 0. -1.
         -5    1    4    4    0  502 -0.14550023006E+02  0.37772805151E+02 -0.28399891266E+02  0.49670230545E+02  0.47000000000E+01 0.  1.
          5    1    3    3  503    0 -0.37697632561E+02 -0.47564783889E+02 -0.21831532148E+03  0.22664330954E+03  0.47000000000E+01 0. -1.
         -5    1    3    3    0  503  0.13534261191E+02  0.39927802170E+02 -0.21773539050E+03  0.22182920432E+03  0.47000000000E+01 0.  1.
<mgrwt>
<rscale>  0 0.10192237E+03</rscale>
<asrwt>0</asrwt>
<pdfrwt beam="1">  1        1 0.86904417E-01 0.10482067E+03</pdfrwt>
<pdfrwt beam="2">  1       -1 0.37094373E-02 0.10482067E+03</pdfrwt>
<totfact> 0.98600122E+03</totfact>
</mgrwt>
</event>
<event>
 8    1  0.2964543E-004  0.1104612E+03  0.7546771E-02  0.1260014E+00
          2   -1    0    0  501    0  0.00000000000E+00  0.00000000000E+00  0.34296803041E+03  0.34296803041E+03  0.00000000000E+00 0. -1.
         -2   -1    0    0    0  501 -0.00000000000E+00 -0.00000000000E+00 -0.11575440824E+03  0.11575440824E+03  0.00000000000E+00 0.  1.
         23    2    1    2    0    0 -0.55626668422E+02 -0.31863877185E+02 -0.77626935201E+02  0.13448573458E+03  0.89167476294E+02 0.  0.
         23    2    1    2    0    0  0.55626668422E+02  0.31863877185E+02  0.30484055737E+03  0.32423670406E+03  0.89955777685E+02 0.  0.
          5    1    3    3  502    0 -0.50703828725E+02 -0.12261027982E+02  0.17854692140E+01  0.52406955215E+02  0.47000000000E+01 0. -1.
         -5    1    3    3    0  502 -0.49228396969E+01 -0.19602849203E+02 -0.79412404415E+02  0.82078779368E+02  0.47000000000E+01 0.  1.
          5    1    4    4  503    0  0.40305461882E+02 -0.95198263406E+01  0.47915175623E+02  0.63506782362E+02  0.47000000000E+01 0. -1.
         -5    1    4    4    0  503  0.15321206540E+02  0.41383703526E+02  0.25692538174E+03  0.26072992170E+03  0.47000000000E+01 0.  1.
<mgrwt>
<rscale>  0 0.11030059E+03</rscale>
<asrwt>0</asrwt>
<pdfrwt beam="1">  1        2 0.52764312E-01 0.11046119E+03</pdfrwt>
<pdfrwt beam="2">  1       -2 0.17808371E-01 0.11046119E+03</pdfrwt>
<totfact> 0.23421069E+03</totfact>
</mgrwt>
</event>
<event>
 8    1  0.2964543E-004  0.9657781E+02  0.7546771E-02  0.1288212E+00
         -2   -1    0    0    0  501 -0.00000000000E+00  0.00000000000E+00  0.18965513160E+02  0.18965513160E+02  0.00000000000E+00 0.  1.
          2   -1    0    0  501    0  0.00000000000E+00 -0.00000000000E+00 -0.68669806163E+03  0.68669806163E+03  0.00000000000E+00 0. -1.
         23    2    1    2    0    0 -0.20862940330E+02 -0.26889043490E+02 -0.14225633446E+03  0.17138600239E+03  0.89319730087E+02 0.  0.
         23    2    1    2    0    0  0.20862940330E+02  0.26889043490E+02 -0.52547621401E+03  0.53427757240E+03  0.90382464767E+02 0.  0.
          5    1    4    4  502    0 -0.28508628697E+02  0.35385322131E+02 -0.22107373176E+03  0.22574443029E+03  0.47000000000E+01 0. -1.
         -5    1    3    3    0  503 -0.11083793782E+01  0.29474761441E+02 -0.22209328949E+02  0.37220080053E+02  0.47000000000E+01 0.  1.
          5    1    3    3  503    0 -0.19754560952E+02 -0.56363804931E+02 -0.12004700551E+03  0.13416592234E+03  0.47000000000E+01 0. -1.
         -5    1    4    4    0  502  0.49371569027E+02 -0.84962786406E+01 -0.30440248225E+03  0.30853314211E+03  0.47000000000E+01 0.  1.
<mgrwt>
<rscale>  0 0.96328386E+02</rscale>
<asrwt>0</asrwt>
<pdfrwt beam="1">  1        2 0.10564584E+00 0.96577807E+02</pdfrwt>
<pdfrwt beam="2">  1       -2 0.29177717E-02 0.96577807E+02</pdfrwt>
<totfact> 0.17462007E+04</totfact>
</mgrwt>
</event>
<event>
 8    1  0.2964543E-004  0.9637794E+02  0.7546771E-02  0.1290739E+00
          1   -1    0    0  501    0  0.00000000000E+00  0.00000000000E+00  0.62698928342E+03  0.62698928342E+03  0.00000000000E+00 0. -1.
         -1   -1    0    0    0  501 -0.00000000000E+00 -0.00000000000E+00 -0.15789643005E+02  0.15789643005E+02  0.00000000000E+00 0.  1.
         23    2    1    2    0    0 -0.19810897215E+02  0.24395074901E+01  0.40367694419E+03  0.41396813959E+03  0.89532801145E+02 0.  0.
         23    2    1    2    0    0  0.19810897215E+02 -0.24395074901E+01  0.20752269623E+03  0.22881078684E+03  0.94288301915E+02 0.  0.
          5    1    3    3  502    0 -0.50839264382E+02  0.20926734528E+02  0.25381478923E+03  0.25974332763E+03  0.47000000000E+01 0. -1.
         -5    1    4    4    0  503  0.55486252717E+02  0.50197345107E+01  0.15443958754E+03  0.16424858652E+03  0.47000000000E+01 0.  1.
          5    1    4    4  503    0 -0.35675355503E+02 -0.74592420008E+01  0.53083108688E+02  0.64562200315E+02  0.47000000000E+01 0. -1.
         -5    1    3    3    0  502  0.31028367167E+02 -0.18487227038E+02  0.14986215497E+03  0.15422481196E+03  0.47000000000E+01 0.  1.
<mgrwt>
<rscale>  0 0.95194542E+02</rscale>
<asrwt>0</asrwt>
<pdfrwt beam="1">  1        1 0.96459871E-01 0.96377937E+02</pdfrwt>
<pdfrwt beam="2">  1       -1 0.24291763E-02 0.96377937E+02</pdfrwt>
<totfact> 0.15690860E+04</totfact>
</mgrwt>
</event>
<event>
 8    1  0.2964543E-004  0.1082462E+03  0.7546771E-02  0.1264177E+00
         -3   -1    0    0    0  501 -0.00000000000E+00  0.00000000000E+00  0.14103849036E+03  0.14103849036E+03  0.00000000000E+00 0.  1.
          3   -1    0    0  501    0  0.00000000000E+00 -0.00000000000E+00 -0.12568525766E+03  0.12568525766E+03  0.00000000000E+00 0. -1.
         23    2    1    2    0    0 -0.40002729042E+02  0.45131944463E+02  0.85816029008E+02  0.13813629453E+03  0.89889567192E+02 0.  0.
         23    2    1    2    0    0  0.40002729042E+02 -0.45131944463E+02 -0.70462796302E+02  0.12858745349E+03  0.89065238955E+02 0.  0.
          5    1    3    3  502    0  0.18711572233E+02  0.24318191145E+02 -0.11441104958E+01  0.31062780700E+02  0.47000000000E+01 0. -1.
         -5    1    4    4    0  503 -0.24524193652E+02 -0.17942646422E+01 -0.23754147728E+01  0.25147326999E+02  0.47000000000E+01 0.  1.
          5    1    4    4  503    0  0.64526922693E+02 -0.43337679821E+02 -0.68087381529E+02  0.10344012649E+03  0.47000000000E+01 0. -1.
         -5    1    3    3    0  502 -0.58714301274E+02  0.20813753317E+02  0.86960139503E+02  0.10707351383E+03  0.47000000000E+01 0.  1.
<mgrwt>
<rscale>  0 0.10807493E+03</rscale>
<asrwt>0</asrwt>
<pdfrwt beam="1">  1        3 0.19336193E-01 0.10824622E+03</pdfrwt>
<pdfrwt beam="2">  1       -3 0.21698229E-01 0.10824622E+03</pdfrwt>
<totfact> 0.10262803E+03</totfact>
</mgrwt>
</event>
<event>
 8    1  0.2964543E-004  0.1498491E+03  0.7546771E-02  0.1201011E+00
          1   -1    0    0  501    0  0.00000000000E+00  0.00000000000E+00  0.86239388073E+02  0.86239388073E+02  0.00000000000E+00 0. -1.
         -1   -1    0    0    0  501 -0.00000000000E+00 -0.00000000000E+00 -0.26404940541E+03  0.26404940541E+03  0.00000000000E+00 0.  1.
         23    2    1    2    0    0  0.11576046782E+03  0.24763718586E+02 -0.62951805034E+02  0.16148426067E+03  0.90002827851E+02 0.  0.
         23    2    1    2    0    0 -0.11576046782E+03 -0.24763718586E+02 -0.11485821231E+03  0.18880453281E+03  0.91874996651E+02 0.  0.
          5    1    4    4  502    0 -0.48110096532E+02  0.25483843921E+02 -0.12353972947E+02  0.56024265608E+02  0.47000000000E+01 0. -1.
         -5    1    3    3    0  503  0.23522369320E+01 -0.22383574969E+02  0.83990298230E+00  0.23007670113E+02  0.47000000000E+01 0.  1.
          5    1    3    3  503    0  0.11340823088E+03  0.47147293555E+02 -0.63791708017E+02  0.13847659056E+03  0.47000000000E+01 0. -1.
         -5    1    4    4    0  502 -0.67650371283E+02 -0.50247562506E+02 -0.10250423936E+03  0.13278026721E+03  0.47000000000E+01 0.  1.
<mgrwt>
<rscale>  0 0.14956312E+03</rscale>
<asrwt>0</asrwt>
<pdfrwt beam="1">  1        1 0.13267598E-01 0.14984907E+03</pdfrwt>
<pdfrwt beam="2">  1       -1 0.40622985E-01 0.14984907E+03</pdfrwt>
<totfact> 0.25619109E+03</totfact>
</mgrwt>
</event>
<event>
 8    1  0.2964543E-004  0.9767456E+02  0.7546771E-02  0.1287002E+00
          1   -1    0    0  501    0  0.00000000000E+00  0.00000000000E+00  0.20366448838E+03  0.20366448838E+03  0.00000000000E+00 0. -1.
         -1   -1    0    0    0  501 -0.00000000000E+00 -0.00000000000E+00 -0.48170225734E+02  0.48170225734E+02  0.00000000000E+00 0.  1.
         23    2    1    2    0    0 -0.19398270818E+02 -0.23819667321E+02  0.10703641136E+03  0.14280039792E+03  0.89395138731E+02 0.  0.
         23    2    1    2    0    0  0.19398270818E+02  0.23819667321E+02  0.48457851292E+02  0.10903431619E+03  0.92718117400E+02 0.  0.
          5    1    3    3  502    0  0.19757684590E+02  0.24714770314E+02  0.36041701395E+02  0.48190042659E+02  0.47000000000E+01 0. -1.
         -5    1    3    3    0  502 -0.39155955408E+02 -0.48534437635E+02  0.70994709962E+02  0.94610355263E+02  0.47000000000E+01 0.  1.
          5    1    4    4  503    0  0.39770958968E+02 -0.19484589803E+02  0.61005033012E+01  0.44952025066E+02  0.47000000000E+01 0. -1.
         -5    1    4    4    0  503 -0.20372688150E+02  0.43304257123E+02  0.42357347991E+02  0.64082291129E+02  0.47000000000E+01 0.  1.
<mgrwt>
<rscale>  0 0.96877712E+02</rscale>
<asrwt>0</asrwt>
<pdfrwt beam="1">  1        1 0.31332998E-01 0.97674555E+02</pdfrwt>
<pdfrwt beam="2">  1       -1 0.74108040E-02 0.97674555E+02</pdfrwt>
<totfact> 0.12635882E+04</totfact>
</mgrwt>
</event>
<event>
 8    1  0.2964543E-004  0.9554649E+02  0.7546771E-02  0.1290176E+00
          1   -1    0    0  501    0  0.00000000000E+00  0.00000000000E+00  0.74218740482E+03  0.74218740482E+03  0.00000000000E+00 0. -1.
         -1   -1    0    0    0  501 -0.00000000000E+00 -0.00000000000E+00 -0.17057564597E+02  0.17057564597E+02  0.00000000000E+00 0.  1.
         23    2    1    2    0    0 -0.20673136061E+02  0.16608947409E+02  0.16044432835E+03  0.18653312221E+03  0.91372794061E+02 0.  0.
         23    2    1    2    0    0  0.20673136061E+02 -0.16608947409E+02  0.56468551187E+03  0.57271184720E+03  0.91792684454E+02 0.  0.
          5    1    4    4  502    0  0.45415343189E+02  0.17301834994E+02  0.38734717212E+03  0.39041238280E+03  0.47000000000E+01 0. -1.
         -5    1    4    4    0  502 -0.24742207129E+02 -0.33910782403E+02  0.17733833975E+03  0.18229946440E+03  0.47000000000E+01 0.  1.
          5    1    3    3  503    0  0.90067381803E+01 -0.32990542464E+02  0.39867259616E+02  0.52735051095E+02  0.47000000000E+01 0. -1.
         -5    1    3    3    0  503 -0.29679874241E+02  0.49599489873E+02  0.12057706873E+03  0.13379807112E+03  0.47000000000E+01 0.  1.
<mgrwt>
<rscale>  0 0.95445504E+02</rscale>
<asrwt>0</asrwt>
<pdfrwt beam="1">  1        1 0.11418265E+00 0.95546494E+02</pdfrwt>
<pdfrwt beam="2">  1       -1 0.26242413E-02 0.95546494E+02</pdfrwt>
<totfact> 0.11085075E+04</totfact>
</mgrwt>
</event>
<event>
 8    1  0.2964543E-004  0.1053570E+03  0.7546771E-02  0.1274115E+00
          1   -1    0    0  501    0  0.00000000000E+00  0.00000000000E+00  0.57549064322E+03  0.57549064322E+03  0.00000000000E+00 0. -1.
         -1   -1    0    0    0  501 -0.00000000000E+00 -0.00000000000E+00 -0.17697040940E+02  0.17697040940E+02  0.00000000000E+00 0.  1.
         23    2    1    2    0    0 -0.46978782940E+02 -0.12777257756E+02  0.28092166299E+03  0.29694762898E+03  0.83009934684E+02 0.  0.
         23    2    1    2    0    0  0.46978782940E+02  0.12777257756E+02  0.27687193929E+03  0.29624005518E+03  0.93433586923E+02 0.  0.
          5    1    3    3  502    0 -0.18621622338E+02 -0.35568331211E+02  0.56060717606E+02  0.69114145166E+02  0.47000000000E+01 0. -1.
         -5    1    3    3    0  502 -0.28357160602E+02  0.22791073454E+02  0.22486094538E+03  0.22783348381E+03  0.47000000000E+01 0.  1.
          5    1    4    4  503    0  0.14893114690E+02  0.35856960935E+02  0.23589140498E+03  0.23911162970E+03  0.47000000000E+01 0. -1.
         -5    1    4    4    0  503  0.32085668250E+02 -0.23079703179E+02  0.40980534304E+02  0.57128425479E+02  0.47000000000E+01 0.  1.
<mgrwt>
<rscale>  0 0.10299812E+03</rscale>
<asrwt>0</asrwt>
<pdfrwt beam="1">  1        1 0.88537008E-01 0.10535701E+03</pdfrwt>
<pdfrwt beam="2">  1       -1 0.27226221E-02 0.10535701E+03</pdfrwt>
<totfact> 0.15061836E+04</totfact>
</mgrwt>
</event>
<event>
 8    1  0.2964543E-004  0.9298487E+02  0.7546771E-02  0.1302814E+00
          1   -1    0    0  501    0  0.00000000000E+00  0.00000000000E+00  0.40381666611E+02  0.40381666611E+02  0.00000000000E+00 0. -1.
         -1   -1    0    0    0  501 -0.00000000000E+00 -0.00000000000E+00 -0.19127114997E+03  0.19127114997E+03  0.00000000000E+00 0.  1.
         23    2    1    2    0    0  0.12619367907E+02  0.20291080900E+01 -0.67237134185E+02  0.11474762492E+03  0.92102223015E+02 0.  0.
         23    2    1    2    0    0 -0.12619367907E+02 -0.20291080900E+01 -0.83652349171E+02  0.11690519166E+03  0.80658183650E+02 0.  0.
          5    1    3    3  502    0 -0.39732215637E+02 -0.25139282427E+01 -0.25942093273E+02  0.47749879560E+02  0.47000000000E+01 0. -1.
         -5    1    4    4    0  503  0.16222568967E+02 -0.32535171798E+02 -0.54101513302E+02  0.65351150635E+02  0.47000000000E+01 0.  1.
          5    1    4    4  503    0 -0.28841936875E+02  0.30506063708E+02 -0.29550835870E+02  0.51554041027E+02  0.47000000000E+01 0. -1.
         -5    1    3    3    0  502  0.52351583545E+02  0.45430363328E+01 -0.41295040912E+02  0.66997745355E+02  0.47000000000E+01 0.  1.
<mgrwt>
<rscale>  0 0.90015577E+02</rscale>
<asrwt>0</asrwt>
<pdfrwt beam="1">  1        1 0.62125642E-02 0.92984865E+02</pdfrwt>
<pdfrwt beam="2">  1       -1 0.29426330E-01 0.92984865E+02</pdfrwt>
<totfact> 0.11739623E+04</totfact>
</mgrwt>
</event>
<event>
 8    1  0.2964543E-004  0.1423427E+03  0.7546771E-02  0.1210712E+00
         -2   -1    0    0    0  501 -0.00000000000E+00  0.00000000000E+00  0.31167229557E+02  0.31167229557E+02  0.00000000000E+00 0.  1.
          2   -1    0    0  501    0  0.00000000000E+00 -0.00000000000E+00 -0.64696684453E+03  0.64696684453E+03  0.00000000000E+00 0. -1.
         23    2    1    2    0    0  0.27600959980E+02  0.10420825755E+03 -0.33217015719E+03  0.36079022493E+03  0.90616770759E+02 0.  0.
         23    2    1    2    0    0 -0.27600959980E+02 -0.10420825755E+03 -0.28362945778E+03  0.31734384916E+03  0.92953081407E+02 0.  0.
          5    1    3    3  502    0  0.47570727665E+02  0.33364891939E+02 -0.21130823730E+03  0.21920185057E+03  0.47000000000E+01 0. -1.
         -5    1    4    4    0  503 -0.57577449205E+00 -0.10170715545E+03 -0.26553816905E+03  0.28438932154E+03  0.47000000000E+01 0.  1.
          5    1    4    4  503    0 -0.27025185488E+02 -0.25011020994E+01 -0.18091288739E+02  0.32954527619E+02  0.47000000000E+01 0. -1.
         -5    1    3    3    0  502 -0.19969767685E+02  0.70843365612E+02 -0.12086191989E+03  0.14158837435E+03  0.47000000000E+01 0.  1.
<mgrwt>
<rscale>  0 0.14196256E+03</rscale>
<asrwt>0</asrwt>
<pdfrwt beam="1">  1        2 0.99533350E-01 0.14234272E+03</pdfrwt>
<pdfrwt beam="2">  1       -2 0.47949589E-02 0.14234272E+03</pdfrwt>
<totfact> 0.92501140E+03</totfact>
</mgrwt>
</event>
<event>
 8    1  0.2964543E-004  0.1018297E+03  0.7546771E-02  0.1276975E+00
         -3   -1    0    0    0  501 -0.00000000000E+00  0.00000000000E+00  0.17612827008E+02  0.17612827008E+02  0.00000000000E+00 0.  1.
          3   -1    0    0  501    0  0.00000000000E+00 -0.00000000000E+00 -0.58583421628E+03  0.58583421628E+03  0.00000000000E+00 0. -1.
         23    2    1    2    0    0 -0.47615721914E+02 -0.47917120669E+01 -0.30501550091E+03  0.32156453290E+03  0.89883677843E+02 0.  0.
         23    2    1    2    0    0  0.47615721914E+02  0.47917120669E+01 -0.26320588836E+03  0.28188251039E+03  0.88826755650E+02 0.  0.
          5    1    4    4  502    0 -0.21612725772E+02  0.14113773179E+02 -0.11524299474E+03  0.11819198934E+03  0.47000000000E+01 0. -1.
         -5    1    3    3    0  503 -0.65970192390E+02 -0.21221155667E+02 -0.26799390839E+03  0.27684874691E+03  0.47000000000E+01 0.  1.
          5    1    3    3  503    0  0.18354470476E+02  0.16429443600E+02 -0.37021592518E+02  0.44715785982E+02  0.47000000000E+01 0. -1.
         -5    1    4    4    0  502  0.69228447686E+02 -0.93220611117E+01 -0.14796289363E+03  0.16369052105E+03  0.47000000000E+01 0.  1.
<mgrwt>
<rscale>  0 0.10159600E+03</rscale>
<asrwt>0</asrwt>
<pdfrwt beam="1">  1        3 0.90128343E-01 0.10182973E+03</pdfrwt>
<pdfrwt beam="2">  1       -3 0.27096656E-02 0.10182973E+03</pdfrwt>
<totfact> 0.14962873E+03</totfact>
</mgrwt>
</event>
<event>
 8    1  0.2964543E-004  0.1077940E+03  0.7546771E-02  0.1266331E+00
         -3   -1    0    0    0  501 -0.00000000000E+00  0.00000000000E+00  0.54049204076E+02  0.54049204076E+02  0.00000000000E+00 0.  1.
          3   -1    0    0  501    0  0.00000000000E+00 -0.00000000000E+00 -0.23820278072E+03  0.23820278072E+03  0.00000000000E+00 0. -1.
         23    2    1    2    0    0 -0.15217926468E+02  0.52962859232E+02 -0.14507080550E+03  0.18073482236E+03  0.92643875453E+02 0.  0.
         23    2    1    2    0    0  0.15217926468E+02 -0.52962859232E+02 -0.39082771141E+02  0.11151716244E+03  0.88724093540E+02 0.  0.
          5    1    4    4  502    0 -0.33989617842E+02 -0.28699330416E+02 -0.34058821876E+02  0.56223118332E+02  0.47000000000E+01 0. -1.
         -5    1    3    3    0  503  0.29798971984E+02  0.10202691405E+01 -0.15373191223E+02  0.33873952955E+02  0.47000000000E+01 0.  1.
          5    1    3    3  503    0 -0.45016898451E+02  0.51942590092E+02 -0.12969761428E+03  0.14686086940E+03  0.47000000000E+01 0. -1.
         -5    1    4    4    0  502  0.49207544310E+02 -0.24263528816E+02 -0.50239492648E+01  0.55294044108E+02  0.47000000000E+01 0.  1.
<mgrwt>
<rscale>  0 0.10694661E+03</rscale>
<asrwt>0</asrwt>
<pdfrwt beam="1">  1        3 0.36646581E-01 0.10779396E+03</pdfrwt>
<pdfrwt beam="2">  1       -3 0.83152623E-02 0.10779396E+03</pdfrwt>
<totfact> 0.16234076E+03</totfact>
</mgrwt>
</event>
<event>
 8    1  0.2964543E-004  0.1034249E+03  0.7546771E-02  0.1273651E+00
          1   -1    0    0  501    0  0.00000000000E+00  0.00000000000E+00  0.60644793386E+03  0.60644793386E+03  0.00000000000E+00 0. -1.
         -1   -1    0    0    0  501 -0.00000000000E+00 -0.00000000000E+00 -0.21111694603E+02  0.21111694603E+02  0.00000000000E+00 0.  1.
         23    2    1    2    0    0  0.45207500484E+02 -0.76706337506E+01  0.16204567292E+03  0.19181704026E+03  0.91828209728E+02 0.  0.
         23    2    1    2    0    0 -0.45207500484E+02  0.76706337506E+01  0.42329056634E+03  0.43574258820E+03  0.92704600196E+02 0.  0.
          5    1    3    3  502    0  0.14588100401E+02  0.39145259780E+02  0.98090594521E+02  0.10671934581E+03  0.47000000000E+01 0. -1.
         -5    1    4    4    0  503 -0.20580047800E+02 -0.36278612914E+02  0.29267009104E+03  0.29566458751E+03  0.47000000000E+01 0.  1.
          5    1    4    4  503    0 -0.24627452683E+02  0.43949246664E+02  0.13062047531E+03  0.14007800069E+03  0.47000000000E+01 0. -1.
         -5    1    3    3    0  502  0.30619400083E+02 -0.46815893531E+02  0.63955078397E+02  0.85097694453E+02  0.47000000000E+01 0.  1.
<mgrwt>
<rscale>  0 0.10322809E+03</rscale>
<asrwt>0</asrwt>
<pdfrwt beam="1">  1        1 0.93299669E-01 0.10342485E+03</pdfrwt>
<pdfrwt beam="2">  1       -1 0.32479535E-02 0.10342485E+03</pdfrwt>
<totfact> 0.10862095E+04</totfact>
</mgrwt>
</event>
<event>
 8    1  0.2964543E-004  0.9885968E+02  0.7546771E-02  0.1283322E+00
         -2   -1    0    0    0  501 -0.00000000000E+00  0.00000000000E+00  0.16638314324E+03  0.16638314324E+03  0.00000000000E+00 0.  1.
          2   -1    0    0  501    0  0.00000000000E+00 -0.00000000000E+00 -0.59617802920E+02  0.59617802920E+02  0.00000000000E+00 0. -1.
         23    2    1    2    0    0  0.97331556488E+01  0.35508121532E+02  0.71905217209E+02  0.12224400347E+03  0.91747888848E+02 0.  0.
         23    2    1    2    0    0 -0.97331556488E+01 -0.35508121532E+02  0.34860123112E+02  0.10375694269E+03  0.90524659405E+02 0.  0.
          5    1    4    4  502    0 -0.23044565188E+02 -0.59120019122E+02  0.40838284730E+02  0.75604789170E+02  0.47000000000E+01 0. -1.
         -5    1    3    3    0  503 -0.19380969976E+01  0.64931657013E+02  0.58511906571E+02  0.87553466596E+02  0.47000000000E+01 0.  1.
          5    1    3    3  503    0  0.11671252646E+02 -0.29423535481E+02  0.13393310638E+02  0.34690536870E+02  0.47000000000E+01 0. -1.
         -5    1    4    4    0  502  0.13311409539E+02  0.23611897591E+02 -0.59781616178E+01  0.28152153525E+02  0.47000000000E+01 0.  1.
<mgrwt>
<rscale>  0 0.98574908E+02</rscale>
<asrwt>0</asrwt>
<pdfrwt beam="1">  1        2 0.91719697E-02 0.98859679E+02</pdfrwt>
<pdfrwt beam="2">  1       -2 0.25597406E-01 0.98859679E+02</pdfrwt>
<totfact> 0.88964760E+03</totfact>
</mgrwt>
</event>
<event>
 8    1  0.2964543E-004  0.1004841E+03  0.7546771E-02  0.1294481E+00
          2   -1    0    0  501    0  0.00000000000E+00  0.00000000000E+00  0.51491355194E+03  0.51491355194E+03  0.00000000000E+00 0. -1.
         -2   -1    0    0    0  501 -0.00000000000E+00 -0.00000000000E+00 -0.15510613157E+02  0.15510613157E+02  0.00000000000E+00 0.  1.
         23    2    1    2    0    0 -0.12380203348E+02 -0.37383051038E+02  0.33014872640E+03  0.34510177280E+03  0.92446147060E+02 0.  0.
         23    2    1    2    0    0  0.12380203348E+02  0.37383051038E+02  0.16925421238E+03  0.18532239229E+03  0.64394399889E+02 0.  0.
          5    1    4    4  502    0  0.31659627785E+02  0.13342759959E+01  0.52198970894E+02  0.61244876409E+02  0.47000000000E+01 0. -1.
         -5    1    4    4    0  502 -0.19279424438E+02  0.36048775042E+02  0.11705524149E+03  0.12407751589E+03  0.47000000000E+01 0.  1.
          5    1    3    3  503    0  0.80642067415E+01  0.20726979526E+02  0.19712760086E+03  0.19843391881E+03  0.47000000000E+01 0. -1.
         -5    1    3    3    0  503 -0.20444410089E+02 -0.58110030564E+02  0.13302112554E+03  0.14666785399E+03  0.47000000000E+01 0.  1.
<mgrwt>
<rscale>  0 0.93547582E+02</rscale>
<asrwt>0</asrwt>
<pdfrwt beam="1">  1        2 0.79217456E-01 0.10048409E+03</pdfrwt>
<pdfrwt beam="2">  1       -2 0.23862486E-02 0.10048409E+03</pdfrwt>
<totfact> 0.32424248E+04</totfact>
</mgrwt>
</event>
<event>
 8    1  0.2964543E-004  0.1155404E+03  0.7546771E-02  0.1251420E+00
          1   -1    0    0  501    0  0.00000000000E+00  0.00000000000E+00  0.16104709397E+03  0.16104709397E+03  0.00000000000E+00 0. -1.
         -1   -1    0    0    0  501 -0.00000000000E+00 -0.00000000000E+00 -0.83580099158E+02  0.83580099158E+02  0.00000000000E+00 0.  1.
         23    2    1    2    0    0  0.20538896691E+02 -0.67816513348E+02  0.20293237813E+02  0.11730898566E+03  0.91261475200E+02 0.  0.
         23    2    1    2    0    0 -0.20538896691E+02  0.67816513348E+02  0.57173756996E+02  0.12731820747E+03  0.88995290343E+02 0.  0.
          5    1    3    3  502    0 -0.25540404039E+02 -0.30070276550E+02  0.38011538165E+02  0.54986369256E+02  0.47000000000E+01 0. -1.
         -5    1    4    4    0  503 -0.93201526629E+01  0.86039292240E+02  0.59732283724E+02  0.10525996757E+03  0.47000000000E+01 0.  1.
          5    1    4    4  503    0 -0.11218744028E+02 -0.18222778892E+02 -0.25585267273E+01  0.22058239892E+02  0.47000000000E+01 0. -1.
         -5    1    3    3    0  502  0.46079300729E+02 -0.37746236798E+02 -0.17718300352E+02  0.62322616405E+02  0.47000000000E+01 0.  1.
<mgrwt>
<rscale>  0 0.11509242E+03</rscale>
<asrwt>0</asrwt>
<pdfrwt beam="1">  1        1 0.24776476E-01 0.11554039E+03</pdfrwt>
<pdfrwt beam="2">  1       -1 0.12858477E-01 0.11554039E+03</pdfrwt>
<totfact> 0.74393653E+03</totfact>
</mgrwt>
</event>
<event>
 8    1  0.2964543E-004  0.1585067E+03  0.7546771E-02  0.1190616E+00
         -2   -1    0    0    0  501 -0.00000000000E+00  0.00000000000E+00  0.28280492164E+02  0.28280492164E+02  0.00000000000E+00 0.  1.
          2   -1    0    0  501    0  0.00000000000E+00 -0.00000000000E+00 -0.12026185005E+04  0.12026185005E+04  0.00000000000E+00 0. -1.
         23    2    1    2    0    0  0.12539197320E+03  0.30710732266E+02 -0.90286975317E+03  0.91654346609E+03  0.90619192303E+02 0.  0.
         23    2    1    2    0    0 -0.12539197320E+03 -0.30710732266E+02 -0.27146825514E+03  0.31435552655E+03  0.91967861265E+02 0.  0.
          5    1    3    3  502    0  0.56194556599E+02  0.48135632988E+02 -0.63420878171E+03  0.63852778808E+03  0.47000000000E+01 0. -1.
         -5    1    4    4    0  503 -0.82569666878E+02  0.44499971482E-01 -0.77663197378E+02  0.11345225470E+03  0.47000000000E+01 0.  1.
          5    1    4    4  503    0 -0.42822306324E+02 -0.30755232237E+02 -0.19380505776E+03  0.20090327185E+03  0.47000000000E+01 0. -1.
         -5    1    3    3    0  502  0.69197416603E+02 -0.17424900722E+02 -0.26866097147E+03  0.27801567801E+03  0.47000000000E+01 0.  1.
<mgrwt>
<rscale>  0 0.15831170E+03</rscale>
<asrwt>0</asrwt>
<pdfrwt beam="1">  1        2 0.18501820E+00 0.15850673E+03</pdfrwt>
<pdfrwt beam="2">  1       -2 0.43508456E-02 0.15850673E+03</pdfrwt>
<totfact> 0.47512024E+03</totfact>
</mgrwt>
</event>
<event>
 8    1  0.2964543E-004  0.1552052E+03  0.7546771E-02  0.1194426E+00
          1   -1    0    0  501    0  0.00000000000E+00  0.00000000000E+00  0.88424954534E+03  0.88424954534E+03  0.00000000000E+00 0. -1.
         -1   -1    0    0    0  501 -0.00000000000E+00 -0.00000000000E+00 -0.27929024610E+02  0.27929024610E+02  0.00000000000E+00 0.  1.
         23    2    1    2    0    0  0.98575791779E+02 -0.76537629790E+02  0.50489649021E+03  0.52800737333E+03  0.91083066283E+02 0.  0.
         23    2    1    2    0    0 -0.98575791779E+02  0.76537629790E+02  0.35142403052E+03  0.38417119662E+03  0.92268432245E+02 0.  0.
          5    1    4    4  502    0 -0.59822514824E+02  0.28363104174E+01  0.78874884735E+02  0.99146938322E+02  0.47000000000E+01 0. -1.
         -5    1    4    4    0  502 -0.38753276956E+02  0.73701319372E+02  0.27254914578E+03  0.28502425830E+03  0.47000000000E+01 0.  1.
          5    1    3    3  503    0  0.30228319969E+02  0.14805263474E+02  0.62823072429E+02  0.71426714779E+02  0.47000000000E+01 0. -1.
         -5    1    3    3    0  503  0.68347471811E+02 -0.91342893264E+02  0.44207341778E+03  0.45658065855E+03  0.47000000000E+01 0.  1.
<mgrwt>
<rscale>  0 0.15502948E+03</rscale>
<asrwt>0</asrwt>
<pdfrwt beam="1">  1        1 0.13603837E+00 0.15520522E+03</pdfrwt>
<pdfrwt beam="2">  1       -1 0.42967737E-02 0.15520522E+03</pdfrwt>
<totfact> 0.42621215E+03</totfact>
</mgrwt>
</event>
<event>
 8    1  0.2964543E-004  0.1053393E+03  0.7546771E-02  0.1270533E+00
          2   -1    0    0  501    0  0.00000000000E+00  0.00000000000E+00  0.15284614503E+02  0.15284614503E+02  0.00000000000E+00 0. -1.
         -2   -1    0    0    0  501 -0.00000000000E+00 -0.00000000000E+00 -0.85723152780E+03  0.85723152780E+03  0.00000000000E+00 0.  1.
         23    2    1    2    0    0 -0.49042020539E+02  0.32268936650E+01 -0.59747323719E+03  0.60631368662E+03  0.90699971328E+02 0.  0.
         23    2    1    2    0    0  0.49042020539E+02 -0.32268936650E+01 -0.24447367611E+03  0.26620245569E+03  0.93171006667E+02 0.  0.
          5    1    4    4  502    0  0.20362083452E+02 -0.76723194015E+01 -0.24457292589E+01  0.22395323599E+02  0.47000000000E+01 0. -1.
         -5    1    4    4    0  502  0.28679937087E+02  0.44454257365E+01 -0.24202794685E+03  0.24380713209E+03  0.47000000000E+01 0.  1.
          5    1    3    3  503    0 -0.16253364965E+02 -0.42003825288E+02 -0.21177477772E+03  0.21656209200E+03  0.47000000000E+01 0. -1.
         -5    1    3    3    0  503 -0.32788655575E+02  0.45230718953E+02 -0.38569845947E+03  0.38975159462E+03  0.47000000000E+01 0.  1.
<mgrwt>
<rscale>  0 0.10479024E+03</rscale>
<asrwt>0</asrwt>
<pdfrwt beam="1">  1        2 0.23514789E-02 0.10533930E+03</pdfrwt>
<pdfrwt beam="2">  1       -2 0.13188179E+00 0.10533930E+03</pdfrwt>
<totfact> 0.18119311E+03</totfact>
</mgrwt>
</event>
<event>
 8    1  0.2964543E-004  0.9229934E+02  0.7546771E-02  0.1297997E+00
          1   -1    0    0  501    0  0.00000000000E+00  0.00000000000E+00  0.57971568053E+03  0.57971568053E+03  0.00000000000E+00 0. -1.
         -1   -1    0    0    0  501 -0.00000000000E+00 -0.00000000000E+00 -0.22666739809E+02  0.22666739809E+02  0.00000000000E+00 0.  1.
         23    2    1    2    0    0  0.10739023868E+02  0.22459078738E+02  0.99074690099E+02  0.13540665380E+03  0.88878742252E+02 0.  0.
         23    2    1    2    0    0 -0.10739023868E+02 -0.22459078738E+02  0.45797425062E+03  0.46697576653E+03  0.87785052535E+02 0.  0.
          5    1    4    4  502    0 -0.41356877954E+02 -0.38133896329E+02  0.27402386663E+03  0.27977804575E+03  0.47000000000E+01 0. -1.
         -5    1    3    3    0  503 -0.12248800458E+02  0.51326119451E+02  0.43584763700E+02  0.68601204635E+02  0.47000000000E+01 0.  1.
          5    1    3    3  503    0  0.22987824326E+02 -0.28867040713E+02  0.55489926400E+02  0.66805449168E+02  0.47000000000E+01 0. -1.
         -5    1    4    4    0  502  0.30617854086E+02  0.15674817591E+02  0.18395038399E+03  0.18719772078E+03  0.47000000000E+01 0.  1.
<mgrwt>
<rscale>  0 0.92035034E+02</rscale>
<asrwt>0</asrwt>
<pdfrwt beam="1">  1        1 0.89187016E-01 0.92299337E+02</pdfrwt>
<pdfrwt beam="2">  1       -1 0.34871912E-02 0.92299337E+02</pdfrwt>
<totfact> 0.10318161E+04</totfact>
</mgrwt>
</event>
<event>
 8    1  0.2964543E-004  0.1064712E+03  0.7546771E-02  0.1268673E+00
         -2   -1    0    0    0  501 -0.00000000000E+00  0.00000000000E+00  0.39939786019E+03  0.39939786019E+03  0.00000000000E+00 0.  1.
          2   -1    0    0  501    0  0.00000000000E+00 -0.00000000000E+00 -0.27628811839E+02  0.27628811839E+02  0.00000000000E+00 0. -1.
         23    2    1    2    0    0 -0.44638296549E+02 -0.29133760686E+02  0.18356678860E+03  0.21220950037E+03  0.92166982380E+02 0.  0.
         23    2    1    2    0    0  0.44638296549E+02  0.29133760686E+02  0.18820225975E+03  0.21481717165E+03  0.88797371202E+02 0.  0.
          5    1    4    4  502    0 -0.28012134868E+01 -0.24452323896E+02  0.20335775791E+02  0.32270678920E+02  0.47000000000E+01 0. -1.
         -5    1    4    4    0  502  0.47439510036E+02  0.53586084582E+02  0.16786648396E+03  0.18254649273E+03  0.47000000000E+01 0.  1.
          5    1    3    3  503    0 -0.22181980204E+02  0.31227316413E+02  0.44638853851E+02  0.59007650430E+02  0.47000000000E+01 0. -1.
         -5    1    3    3    0  503 -0.22456316345E+02 -0.60361077099E+02  0.13892793475E+03  0.15320184994E+03  0.47000000000E+01 0.  1.
<mgrwt>
<rscale>  0 0.10573782E+03</rscale>
<asrwt>0</asrwt>
<pdfrwt beam="1">  1        2 0.42505867E-02 0.10647115E+03</pdfrwt>
<pdfrwt beam="2">  1       -2 0.61445821E-01 0.10647115E+03</pdfrwt>
<totfact> 0.45695923E+03</totfact>
</mgrwt>
</event>
<event>
 8    1  0.2964543E-004  0.1122830E+03  0.7546771E-02  0.1257753E+00
          3   -1    0    0  501    0  0.00000000000E+00  0.00000000000E+00  0.31853371985E+02  0.31853371985E+02  0.00000000000E+00 0. -1.
         -3   -1    0    0    0  501 -0.00000000000E+00 -0.00000000000E+00 -0.38623931504E+03  0.38623931504E+03  0.00000000000E+00 0.  1.
         23    2    1    2    0    0 -0.33459036436E+02  0.53374767460E+02 -0.16522789752E+03  0.19811943811E+03  0.89345848927E+02 0.  0.
         23    2    1    2    0    0  0.33459036436E+02 -0.53374767460E+02 -0.18915804554E+03  0.21997324891E+03  0.92946711205E+02 0.  0.
          5    1    4    4  502    0 -0.20669189847E+02 -0.12338023466E+01 -0.10464916762E+03  0.10678144015E+03  0.47000000000E+01 0. -1.
         -5    1    3    3    0  503 -0.55424400551E+02  0.49186642188E+02 -0.15728151827E+03  0.17392744446E+03  0.47000000000E+01 0.  1.
          5    1    3    3  503    0  0.21965364115E+02  0.41881252724E+01 -0.79463792464E+01  0.24191993657E+02  0.47000000000E+01 0. -1.
         -5    1    4    4    0  502  0.54128226283E+02 -0.52140965113E+02 -0.84508877921E+02  0.11319180876E+03  0.47000000000E+01 0.  1.
<mgrwt>
<rscale>  0 0.11153500E+03</rscale>
<asrwt>0</asrwt>
<pdfrwt beam="1">  1        3 0.49005188E-02 0.11228296E+03</pdfrwt>
<pdfrwt beam="2">  1       -3 0.59421433E-01 0.11228296E+03</pdfrwt>
<totfact> 0.14706249E+03</totfact>
</mgrwt>
</event>
<event>
 8    1  0.2964543E-004  0.1094252E+03  0.7546771E-02  0.1262140E+00
          1   -1    0    0  501    0  0.00000000000E+00  0.00000000000E+00  0.17198891779E+03  0.17198891779E+03  0.00000000000E+00 0. -1.
         -1   -1    0    0    0  501 -0.00000000000E+00 -0.00000000000E+00 -0.73136918115E+02  0.73136918115E+02  0.00000000000E+00 0.  1.
         23    2    1    2    0    0  0.55305251234E+02  0.18701906833E+02  0.20294434928E+02  0.11129126829E+03  0.92549717319E+02 0.  0.
         23    2    1    2    0    0 -0.55305251234E+02 -0.18701906833E+02  0.78557564747E+02  0.13383456761E+03  0.91279616431E+02 0.  0.
          5    1    4    4  502    0 -0.26413501418E+02  0.10144755451E+02  0.87236951982E+02  0.91831176141E+02  0.47000000000E+01 0. -1.
         -5    1    3    3    0  503  0.46890151810E+02 -0.32545747040E+02  0.11283423602E+02  0.58372233428E+02  0.47000000000E+01 0.  1.
          5    1    3    3  503    0  0.84150994238E+01  0.51247653873E+02  0.90110113256E+01  0.52919034864E+02  0.47000000000E+01 0. -1.
         -5    1    4    4    0  502 -0.28891749817E+02 -0.28846662284E+02 -0.86793872349E+01  0.42003391472E+02  0.47000000000E+01 0.  1.
<mgrwt>
<rscale>  0 0.10915622E+03</rscale>
<asrwt>0</asrwt>
<pdfrwt beam="1">  1        1 0.26459834E-01 0.10942524E+03</pdfrwt>
<pdfrwt beam="2">  1       -1 0.11251834E-01 0.10942524E+03</pdfrwt>
<totfact> 0.83780766E+03</totfact>
</mgrwt>
</event>
<event>
 8    1  0.2964543E-004  0.1160632E+03  0.7546771E-02  0.1250652E+00
         -2   -1    0    0    0  501 -0.00000000000E+00  0.00000000000E+00  0.44217328612E+02  0.44217328612E+02  0.00000000000E+00 0.  1.
          2   -1    0    0  501    0  0.00000000000E+00 -0.00000000000E+00 -0.43816891930E+03  0.43816891930E+03  0.00000000000E+00 0. -1.
         23    2    1    2    0    0  0.21768337847E+02 -0.66675218260E+02 -0.33159862158E+03  0.35063436723E+03  0.89818530299E+02 0.  0.
         23    2    1    2    0    0 -0.21768337847E+02  0.66675218260E+02 -0.62352969102E+02  0.13175188068E+03  0.92472807049E+02 0.  0.
          5    1    3    3  502    0  0.51137855063E+02 -0.61484536841E+02 -0.27570043815E+03  0.28710320460E+03  0.47000000000E+01 0. -1.
         -5    1    4    4    0  503 -0.54478351232E+02  0.22560489199E+02 -0.43766923134E+02  0.73583286054E+02  0.47000000000E+01 0.  1.
          5    1    4    4  503    0  0.32710013385E+02  0.44114729061E+02 -0.18586045968E+02  0.58168594624E+02  0.47000000000E+01 0. -1.
         -5    1    3    3    0  502 -0.29369517216E+02 -0.51906814192E+01 -0.55898183431E+02  0.63531162637E+02  0.47000000000E+01 0.  1.
<mgrwt>
<rscale>  0 0.11553371E+03</rscale>
<asrwt>0</asrwt>
<pdfrwt beam="1">  1        2 0.67410600E-01 0.11606320E+03</pdfrwt>
<pdfrwt beam="2">  1       -2 0.68026662E-02 0.11606320E+03</pdfrwt>
<totfact> 0.82961090E+03</totfact>
</mgrwt>
</event>
<event>
 7    1  0.2964543E-004  0.1396403E+03  0.7546771E-02  0.1224936E+00
          1   -1    0    0  501    0  0.00000000000E+00  0.00000000000E+00  0.88635505637E+02  0.88635505637E+02  0.00000000000E+00 0. -1.
         -1   -1    0    0    0  501 -0.00000000000E+00 -0.00000000000E+00 -0.18681463525E+03  0.18681463525E+03  0.00000000000E+00 0.  1.
         23    2    1    2    0    0 -0.50580967251E+02 -0.92501617814E+02 -0.86602432289E+02  0.16431496369E+03  0.91566601265E+02 0.  0.
          5    1    1    2  502    0  0.31868073261E+02  0.81943815691E+02 -0.50472131778E+01  0.88192558554E+02  0.47000000000E+01 0. -1.
         -5    1    3    3    0  503 -0.39866937526E+02  0.31184341216E+01 -0.10670445628E+02  0.41653880359E+02  0.47000000000E+01 0.  1.
          5    1    3    3  503    0 -0.10714029725E+02 -0.95620051936E+02 -0.75931986661E+02  0.12266108333E+03  0.47000000000E+01 0.  1.
         -5    1    1    2    0  502  0.18712893990E+02  0.10557802123E+02 -0.65294841464E+01  0.22942618647E+02  0.47000000000E+01 0. -1.
<mgrwt>
<rscale>  0 0.13171305E+03</rscale>
<asrwt>0</asrwt>
<pdfrwt beam="1">  1        1 0.13636232E-01 0.13964035E+03</pdfrwt>
<pdfrwt beam="2">  1       -1 0.28740713E-01 0.13964035E+03</pdfrwt>
<totfact> 0.44563309E+03</totfact>
</mgrwt>
</event>
<event>
 8    1  0.2964543E-004  0.1053800E+03  0.7546771E-02  0.1270146E+00
         -1   -1    0    0    0  501 -0.00000000000E+00  0.00000000000E+00  0.19626927558E+03  0.19626927558E+03  0.00000000000E+00 0.  1.
          1   -1    0    0  501    0  0.00000000000E+00 -0.00000000000E+00 -0.26588537594E+03  0.26588537594E+03  0.00000000000E+00 0. -1.
         23    2    1    2    0    0  0.34634638805E+02 -0.37436073370E+02  0.17056744039E+03  0.20049487459E+03  0.92216729627E+02 0.  0.
         23    2    1    2    0    0 -0.34634638805E+02  0.37436073370E+02 -0.24018354075E+03  0.26165977693E+03  0.90425039797E+02 0.  0.
          5    1    3    3  502    0  0.23658998182E+02  0.24203452664E+02  0.26178579542E+02  0.43046060710E+02  0.47000000000E+01 0. -1.
         -5    1    3    3    0  502  0.10975640623E+02 -0.61639526034E+02  0.14438886084E+03  0.15744881388E+03  0.47000000000E+01 0.  1.
          5    1    4    4  503    0 -0.37178305690E+02  0.60212996509E+02 -0.21864369188E+03  0.22985862038E+03  0.47000000000E+01 0. -1.
         -5    1    4    4    0  503  0.25436668846E+01 -0.22776923139E+02 -0.21539848869E+02  0.31801156555E+02  0.47000000000E+01 0.  1.
<mgrwt>
<rscale>  0 0.10498673E+03</rscale>
<asrwt>0</asrwt>
<pdfrwt beam="1">  1        1 0.40905443E-01 0.10537999E+03</pdfrwt>
<pdfrwt beam="2">  1       -1 0.30195273E-01 0.10537999E+03</pdfrwt>
<totfact> 0.10186485E+03</totfact>
</mgrwt>
</event>
<event>
 8    1  0.2964543E-004  0.1531916E+03  0.7546771E-02  0.1197817E+00
          1   -1    0    0  501    0  0.00000000000E+00  0.00000000000E+00  0.86207477268E+03  0.86207477268E+03  0.00000000000E+00 0. -1.
         -1   -1    0    0    0  501 -0.00000000000E+00 -0.00000000000E+00 -0.27012814173E+02  0.27012814173E+02  0.00000000000E+00 0.  1.
         23    2    1    2    0    0 -0.32404153615E+02  0.11120234618E+03  0.47237484174E+03  0.49537498746E+03  0.94034015789E+02 0.  0.
         23    2    1    2    0    0  0.32404153615E+02 -0.11120234618E+03  0.36268711676E+03  0.39371259939E+03  0.10025804349E+03 0.  0.
          5    1    3    3  502    0 -0.31254123379E+02  0.33714587895E+01  0.19794518524E+03  0.20048085525E+03  0.47000000000E+01 0. -1.
         -5    1    3    3    0  502 -0.11500302359E+01  0.10783088739E+03  0.27442965650E+03  0.29489413221E+03  0.47000000000E+01 0.  1.
          5    1    4    4  503    0  0.27834219045E+00 -0.44963377248E+02  0.27691706198E+03  0.28058319975E+03  0.47000000000E+01 0. -1.
         -5    1    4    4    0  503  0.32125811425E+02 -0.66238968931E+02  0.85770054786E+02  0.11312939964E+03  0.47000000000E+01 0.  1.
<mgrwt>
<rscale>  0 0.15218187E+03</rscale>
<asrwt>0</asrwt>
<pdfrwt beam="1">  1        1 0.13262687E+00 0.15319160E+03</pdfrwt>
<pdfrwt beam="2">  1       -1 0.41558182E-02 0.15319160E+03</pdfrwt>
<totfact> 0.46577134E+03</totfact>
</mgrwt>
</event>
<event>
 8    1  0.2964543E-004  0.1178229E+03  0.7546771E-02  0.1247162E+00
          2   -1    0    0  501    0  0.00000000000E+00  0.00000000000E+00  0.13719701504E+03  0.13719701504E+03  0.00000000000E+00 0. -1.
         -2   -1    0    0    0  501 -0.00000000000E+00 -0.00000000000E+00 -0.10155947507E+03  0.10155947507E+03  0.00000000000E+00 0.  1.
         23    2    1    2    0    0  0.57477846685E+02  0.47256251044E+02  0.31100331665E+02  0.12185835072E+03  0.91353001533E+02 0.  0.
         23    2    1    2    0    0 -0.57477846685E+02 -0.47256251044E+02  0.45372083014E+01  0.11689813939E+03  0.90042948700E+02 0.  0.
          5    1    3    3  502    0 -0.20599472671E+02  0.25790470011E+02  0.22655198796E+02  0.40309237777E+02  0.47000000000E+01 0. -1.
         -5    1    3    3    0  502  0.78077319355E+02  0.21465781033E+02  0.84451328690E+01  0.81549112946E+02  0.47000000000E+01 0.  1.
          5    1    4    4  503    0 -0.31199266323E+02  0.15897712063E+02  0.27305615049E+02  0.44652190104E+02  0.47000000000E+01 0. -1.
         -5    1    4    4    0  503 -0.26278580361E+02 -0.63153963107E+02 -0.22768406747E+02  0.72245949282E+02  0.47000000000E+01 0.  1.
<mgrwt>
<rscale>  0 0.11756884E+03</rscale>
<asrwt>0</asrwt>
<pdfrwt beam="1">  1        2 0.21107233E-01 0.11782286E+03</pdfrwt>
<pdfrwt beam="2">  1       -2 0.15624535E-01 0.11782286E+03</pdfrwt>
<totfact> 0.78034566E+03</totfact>
</mgrwt>
</event>
<event>
 8    1  0.2964543E-004  0.1025811E+03  0.7546771E-02  0.1275338E+00
         -2   -1    0    0    0  501 -0.00000000000E+00  0.00000000000E+00  0.12666400895E+03  0.12666400895E+03  0.00000000000E+00 0.  1.
          2   -1    0    0  501    0  0.00000000000E+00 -0.00000000000E+00 -0.10919796397E+03  0.10919796397E+03  0.00000000000E+00 0. -1.
         23    2    1    2    0    0  0.34925950567E+02  0.30982633342E+02  0.67044279939E+02  0.12192826057E+03  0.90508671748E+02 0.  0.
         23    2    1    2    0    0 -0.34925950567E+02 -0.30982633342E+02 -0.49578234962E+02  0.11393371235E+03  0.91340811443E+02 0.  0.
          5    1    4    4  502    0 -0.19214190201E+02 -0.61272627702E+02 -0.17162524287E+02  0.66634542472E+02  0.47000000000E+01 0. -1.
         -5    1    3    3    0  503 -0.38770866072E+01  0.55208244174E+02  0.41407378190E+02  0.69279455785E+02  0.47000000000E+01 0.  1.
          5    1    3    3  503    0  0.38803037174E+02 -0.24225610832E+02  0.25636901749E+02  0.52648804786E+02  0.47000000000E+01 0. -1.
         -5    1    4    4    0  502 -0.15711760366E+02  0.30289994360E+02 -0.32415710675E+02  0.47299169873E+02  0.47000000000E+01 0.  1.
<mgrwt>
<rscale>  0 0.10239557E+03</rscale>
<asrwt>0</asrwt>
<pdfrwt beam="1">  1        2 0.16799687E-01 0.10258114E+03</pdfrwt>
<pdfrwt beam="2">  1       -2 0.19486771E-01 0.10258114E+03</pdfrwt>
<totfact> 0.69337539E+03</totfact>
</mgrwt>
</event>
<event>
 8    1  0.2964543E-004  0.1047859E+03  0.7546771E-02  0.1270813E+00
         -3   -1    0    0    0  501 -0.00000000000E+00  0.00000000000E+00  0.64759343699E+02  0.64759343699E+02  0.00000000000E+00 0.  1.
          3   -1    0    0  501    0  0.00000000000E+00 -0.00000000000E+00 -0.17739419687E+03  0.17739419687E+03  0.00000000000E+00 0. -1.
         23    2    1    2    0    0  0.94349179175E+01 -0.50108722115E+02 -0.29604250200E+02  0.10888753383E+03  0.91543332285E+02 0.  0.
         23    2    1    2    0    0 -0.94349179175E+01  0.50108722115E+02 -0.83030602973E+02  0.13326600674E+03  0.90916697115E+02 0.  0.
          5    1    3    3  502    0 -0.27395163894E+02  0.12680337150E+02 -0.16673952030E+02  0.34805123636E+02  0.47000000000E+01 0. -1.
         -5    1    4    4    0  503  0.33969060093E+02  0.26002132868E+02 -0.89403834443E+01  0.43954845164E+02  0.47000000000E+01 0.  1.
          5    1    4    4  503    0 -0.43403978010E+02  0.24106589246E+02 -0.74090219529E+02  0.89311161576E+02  0.47000000000E+01 0. -1.
         -5    1    3    3    0  502  0.36830081811E+02 -0.62789059265E+02 -0.12930298170E+02  0.74082410195E+02  0.47000000000E+01 0.  1.
<mgrwt>
<rscale>  0 0.10464888E+03</rscale>
<asrwt>0</asrwt>
<pdfrwt beam="1">  1        3 0.27291414E-01 0.10478589E+03</pdfrwt>
<pdfrwt beam="2">  1       -3 0.99629761E-02 0.10478589E+03</pdfrwt>
<totfact> 0.20751080E+03</totfact>
</mgrwt>
</event>
<event>
 8    1  0.2964543E-004  0.1001399E+03  0.7546771E-02  0.1291099E+00
         -3   -1    0    0    0  501 -0.00000000000E+00  0.00000000000E+00  0.63472089799E+02  0.63472089799E+02  0.00000000000E+00 0.  1.
          3   -1    0    0  501    0  0.00000000000E+00 -0.00000000000E+00 -0.14085972848E+03  0.14085972848E+03  0.00000000000E+00 0. -1.
         23    2    1    2    0    0  0.18639015758E+02 -0.43823652735E+02 -0.13613301096E+02  0.10106095893E+03  0.88091259525E+02 0.  0.
         23    2    1    2    0    0 -0.18639015758E+02  0.43823652735E+02 -0.63774337583E+02  0.10327085935E+03  0.65801054776E+02 0.  0.
          5    1    4    4  502    0 -0.21419923799E+02 -0.93498688613E+01 -0.35605890843E+02  0.42849768330E+02  0.47000000000E+01 0. -1.
         -5    1    4    4    0  502  0.27809080411E+01  0.53173521596E+02 -0.28168446740E+02  0.60421091021E+02  0.47000000000E+01 0.  1.
          5    1    3    3  503    0 -0.10086818582E+02 -0.41243474254E+02 -0.42295616132E+02  0.60114700545E+02  0.47000000000E+01 0. -1.
         -5    1    3    3    0  503  0.28725834340E+02 -0.25801784808E+01  0.28682315036E+02  0.40946258380E+02  0.47000000000E+01 0.  1.
<mgrwt>
<rscale>  0 0.95034086E+02</rscale>
<asrwt>0</asrwt>
<pdfrwt beam="1">  1        3 0.21670727E-01 0.10013988E+03</pdfrwt>
<pdfrwt beam="2">  1       -3 0.97649370E-02 0.10013988E+03</pdfrwt>
<totfact> 0.32104829E+03</totfact>
</mgrwt>
</event>
<event>
 8    1  0.2964543E-004  0.9726375E+02  0.7546771E-02  0.1294886E+00
          2   -1    0    0  501    0  0.00000000000E+00  0.00000000000E+00  0.34111131266E+03  0.34111131266E+03  0.00000000000E+00 0. -1.
         -2   -1    0    0    0  501 -0.00000000000E+00 -0.00000000000E+00 -0.26887547303E+02  0.26887547303E+02  0.00000000000E+00 0.  1.
         23    2    1    2    0    0 -0.18741912890E+02  0.82867440889E+01  0.20887414310E+03  0.22461552771E+03  0.80023735249E+02 0.  0.
         23    2    1    2    0    0  0.18741912890E+02 -0.82867440889E+01  0.10534962225E+03  0.14338333226E+03  0.95080532359E+02 0.  0.
          5    1    3    3  502    0  0.17363290740E+02  0.17817393442E+02  0.16446817822E+03  0.16640557389E+03  0.47000000000E+01 0. -1.
         -5    1    4    4    0  503 -0.22325966374E+02 -0.37888189072E+02  0.64281238583E+02  0.78026478067E+02  0.47000000000E+01 0.  1.
          5    1    4    4  503    0  0.41067879264E+02  0.29601444983E+02  0.41068383670E+02  0.65356854190E+02  0.47000000000E+01 0. -1.
         -5    1    3    3    0  502 -0.36105203630E+02 -0.95306493531E+01  0.44405964887E+02  0.58209953821E+02  0.47000000000E+01 0.  1.
<mgrwt>
<rscale>  0 0.93371851E+02</rscale>
<asrwt>0</asrwt>
<pdfrwt beam="1">  1        2 0.52478661E-01 0.97263750E+02</pdfrwt>
<pdfrwt beam="2">  1       -2 0.41365460E-02 0.97263750E+02</pdfrwt>
<totfact> 0.22423543E+04</totfact>
</mgrwt>
</event>
<event>
 8    1  0.2964543E-004  0.1068826E+03  0.7546771E-02  0.1267844E+00
         -2   -1    0    0    0  501 -0.00000000000E+00  0.00000000000E+00  0.23028275100E+02  0.23028275100E+02  0.00000000000E+00 0.  1.
          2   -1    0    0  501    0  0.00000000000E+00 -0.00000000000E+00 -0.49921871267E+03  0.49921871267E+03  0.00000000000E+00 0. -1.
         23    2    1    2    0    0 -0.46597109365E+02  0.27378721834E+01 -0.18784856057E+03  0.21473288302E+03  0.92974957905E+02 0.  0.
         23    2    1    2    0    0  0.46597109365E+02 -0.27378721834E+01 -0.28834187700E+03  0.30751410475E+03  0.96151443262E+02 0.  0.
          5    1    3    3  502    0 -0.57641237152E+02 -0.23920235786E+02 -0.16831088803E+03  0.17956986086E+03  0.47000000000E+01 0. -1.
         -5    1    4    4    0  503 -0.26651122755E+02  0.92128349432E+01 -0.12202088388E+03  0.12532495671E+03  0.47000000000E+01 0.  1.
          5    1    4    4  503    0  0.73248232120E+02 -0.11950707127E+02 -0.16632099312E+03  0.18218914804E+03  0.47000000000E+01 0. -1.
         -5    1    3    3    0  502  0.11044127787E+02  0.26658107969E+02 -0.19537672536E+02  0.35163022156E+02  0.47000000000E+01 0.  1.
<mgrwt>
<rscale>  0 0.10616328E+03</rscale>
<asrwt>0</asrwt>
<pdfrwt beam="1">  1        2 0.76802876E-01 0.10688258E+03</pdfrwt>
<pdfrwt beam="2">  1       -2 0.35428117E-02 0.10688258E+03</pdfrwt>
<totfact> 0.18966440E+04</totfact>
</mgrwt>
</event>
<event>
 8    1  0.2964543E-004  0.9302398E+02  0.7546771E-02  0.1296002E+00
         -4   -1    0    0    0  501 -0.00000000000E+00  0.00000000000E+00  0.59032223146E+02  0.59032223146E+02  0.00000000000E+00 0.  1.
          4   -1    0    0  501    0  0.00000000000E+00 -0.00000000000E+00 -0.18376159749E+03  0.18376159749E+03  0.00000000000E+00 0. -1.
         23    2    1    2    0    0 -0.10486658060E+02  0.96510319987E+01 -0.70041300575E+01  0.92751510261E+02  0.91382013558E+02 0.  0.
         23    2    1    2    0    0  0.10486658060E+02 -0.96510319987E+01 -0.11772524428E+03  0.15004231037E+03  0.91925781718E+02 0.  0.
          5    1    4    4  502    0 -0.12540632834E+02 -0.46864684411E+02 -0.67545466143E+02  0.83294934500E+02  0.47000000000E+01 0.  1.
         -5    1    3    3    0  503 -0.35048573719E+02  0.26003202358E+02  0.23721179832E+02  0.49893420661E+02  0.47000000000E+01 0.  1.
          5    1    3    3  503    0  0.24561915659E+02 -0.16352170360E+02 -0.30725309890E+02  0.42858089600E+02  0.47000000000E+01 0. -1.
         -5    1    4    4    0  502  0.23027290894E+02  0.37213652412E+02 -0.50179778141E+02  0.66747375874E+02  0.47000000000E+01 0. -1.
<mgrwt>
<rscale>  0 0.92889365E+02</rscale>
<asrwt>0</asrwt>
<pdfrwt beam="1">  1        4 0.28271015E-01 0.93023985E+02</pdfrwt>
<pdfrwt beam="2">  1       -4 0.90818806E-02 0.93023985E+02</pdfrwt>
<totfact> 0.15976266E+03</totfact>
</mgrwt>
</event>
<event>
 8    1  0.2964543E-004  0.1180161E+03  0.7546771E-02  0.1246578E+00
          1   -1    0    0  501    0  0.00000000000E+00  0.00000000000E+00  0.52433478919E+03  0.52433478919E+03  0.00000000000E+00 0. -1.
         -1   -1    0    0    0  501 -0.00000000000E+00 -0.00000000000E+00 -0.28245116923E+02  0.28245116923E+02  0.00000000000E+00 0.  1.
         23    2    1    2    0    0 -0.31189884576E+02  0.66905738179E+02  0.17920667530E+03  0.21457595431E+03  0.92079427642E+02 0.  0.
         23    2    1    2    0    0  0.31189884576E+02 -0.66905738179E+02  0.31688299697E+03  0.33800395180E+03  0.91556818240E+02 0.  0.
          5    1    3    3  502    0 -0.21628637207E+02 -0.18170765644E+02  0.70717919801E+02  0.76296060531E+02  0.47000000000E+01 0. -1.
         -5    1    4    4    0  503  0.10318371066E+01 -0.51826514476E+02  0.28997734775E+03  0.29461161637E+03  0.47000000000E+01 0.  1.
          5    1    4    4  503    0  0.30158047469E+02 -0.15079223703E+02  0.26905649214E+02  0.43392335432E+02  0.47000000000E+01 0. -1.
         -5    1    3    3    0  502 -0.95612473683E+01  0.85076503822E+02  0.10848875550E+03  0.13827989378E+03  0.47000000000E+01 0.  1.
<mgrwt>
<rscale>  0 0.11791418E+03</rscale>
<asrwt>0</asrwt>
<pdfrwt beam="1">  1        1 0.80666883E-01 0.11801613E+03</pdfrwt>
<pdfrwt beam="2">  1       -1 0.43454030E-02 0.11801613E+03</pdfrwt>
<totfact> 0.87065885E+03</totfact>
</mgrwt>
</event>
<event>
 8    1  0.2964543E-004  0.1048526E+03  0.7546771E-02  0.1272414E+00
         -3   -1    0    0    0  501 -0.00000000000E+00  0.00000000000E+00  0.55056223022E+02  0.55056223022E+02  0.00000000000E+00 0.  1.
          3   -1    0    0  501    0  0.00000000000E+00 -0.00000000000E+00 -0.27756560736E+03  0.27756560736E+03  0.00000000000E+00 0. -1.
         23    2    1    2    0    0  0.26949951234E+01 -0.42423098608E+02 -0.20497060464E+03  0.23023250719E+03  0.95849237381E+02 0.  0.
         23    2    1    2    0    0 -0.26949951234E+01  0.42423098608E+02 -0.17538779702E+02  0.10238932320E+03  0.91482142611E+02 0.  0.
          5    1    3    3  502    0 -0.35867747849E+02  0.71412731837E+01 -0.44153983877E+02  0.57525276276E+02  0.47000000000E+01 0. -1.
         -5    1    4    4    0  503  0.17662067409E+02  0.16291476976E+02  0.33420119337E+02  0.41428917723E+02  0.47000000000E+01 0.  1.
          5    1    4    4  503    0 -0.20357062533E+02  0.26131621632E+02 -0.50958899039E+02  0.60960405472E+02  0.47000000000E+01 0. -1.
         -5    1    3    3    0  502  0.38562742972E+02 -0.49564371792E+02 -0.16081662076E+03  0.17270723091E+03  0.47000000000E+01 0.  1.
<mgrwt>
<rscale>  0 0.10384395E+03</rscale>
<asrwt>0</asrwt>
<pdfrwt beam="1">  1        3 0.42702402E-01 0.10485256E+03</pdfrwt>
<pdfrwt beam="2">  1       -3 0.84701880E-02 0.10485256E+03</pdfrwt>
<totfact> 0.11700602E+03</totfact>
</mgrwt>
</event>
<event>
 8    1  0.2964543E-004  0.9258470E+02  0.7546771E-02  0.1308341E+00
          2   -1    0    0  501    0  0.00000000000E+00  0.00000000000E+00  0.72904293716E+03  0.72904293716E+03  0.00000000000E+00 0.  1.
         -2   -1    0    0    0  501 -0.00000000000E+00 -0.00000000000E+00 -0.11397618186E+02  0.11397618186E+02  0.00000000000E+00 0. -1.
         23    2    1    2    0    0 -0.51224176069E+01  0.13105875691E+02  0.18054527582E+03  0.19541910349E+03  0.73444034788E+02 0.  0.
         23    2    1    2    0    0  0.51224176069E+01 -0.13105875691E+02  0.53710004315E+03  0.54502145186E+03  0.91509144322E+02 0.  0.
          5    1    4    4  502    0 -0.42371908293E+02 -0.13617481282E+02  0.24715899398E+03  0.25117816926E+03  0.47000000000E+01 0. -1.
         -5    1    4    4    0  502  0.47494325900E+02  0.51160559117E+00  0.28994104917E+03  0.29384328260E+03  0.47000000000E+01 0.  1.
          5    1    3    3  503    0 -0.10032112013E+02 -0.24800118099E+02  0.32051115404E+02  0.42012535365E+02  0.47000000000E+01 0. -1.
         -5    1    3    3    0  503  0.49096944057E+01  0.37905993790E+02  0.14849416042E+03  0.15340656812E+03  0.47000000000E+01 0.  1.
<mgrwt>
<rscale>  0 0.87770909E+02</rscale>
<asrwt>0</asrwt>
<pdfrwt beam="1">  1        2 0.11216042E+00 0.92584700E+02</pdfrwt>
<pdfrwt beam="2">  1       -2 0.17534803E-02 0.92584700E+02</pdfrwt>
<totfact> 0.33804949E+04</totfact>
</mgrwt>
</event>
<event>
 8    1  0.2964543E-004  0.9487672E+02  0.7546771E-02  0.1291692E+00
         -3   -1    0    0    0  501 -0.00000000000E+00  0.00000000000E+00  0.17307533464E+03  0.17307533464E+03  0.00000000000E+00 0.  1.
          3   -1    0    0  501    0  0.00000000000E+00 -0.00000000000E+00 -0.52165692766E+02  0.52165692766E+02  0.00000000000E+00 0. -1.
         23    2    1    2    0    0 -0.13089041163E+02 -0.19110054457E+02  0.50626440973E+02  0.10716765893E+03  0.91571575362E+02 0.  0.
         23    2    1    2    0    0  0.13089041163E+02  0.19110054457E+02  0.70283200901E+02  0.11807336848E+03  0.92005841311E+02 0.  0.
          5    1    4    4  502    0 -0.17289316493E+02 -0.13740097817E+02 -0.11041341561E+02  0.25133881043E+02  0.47000000000E+01 0. -1.
         -5    1    4    4    0  502  0.30378357656E+02  0.32850152274E+02  0.81324542462E+02  0.92939487436E+02  0.47000000000E+01 0.  1.
          5    1    3    3  503    0  0.34291129579E+02 -0.15993309228E+02  0.73878820586E+00  0.38135328973E+02  0.47000000000E+01 0. -1.
         -5    1    3    3    0  503 -0.47380170741E+02 -0.31167452294E+01  0.49887652768E+02  0.69032329955E+02  0.47000000000E+01 0.  1.
<mgrwt>
<rscale>  0 0.94771278E+02</rscale>
<asrwt>0</asrwt>
<pdfrwt beam="1">  1        3 0.80254913E-02 0.94876720E+02</pdfrwt>
<pdfrwt beam="2">  1       -3 0.26626974E-01 0.94876720E+02</pdfrwt>
<totfact> 0.30240399E+03</totfact>
</mgrwt>
</event>
<event>
 8    1  0.2964543E-004  0.1140236E+03  0.7546771E-02  0.1255285E+00
          1   -1    0    0  501    0  0.00000000000E+00  0.00000000000E+00  0.57951365807E+03  0.57951365807E+03  0.00000000000E+00 0. -1.
         -1   -1    0    0    0  501 -0.00000000000E+00 -0.00000000000E+00 -0.24439361515E+02  0.24439361515E+02  0.00000000000E+00 0.  1.
         23    2    1    2    0    0 -0.42055815655E+02 -0.40072526011E+02  0.37606449134E+03  0.39171285490E+03  0.92951385552E+02 0.  0.
         23    2    1    2    0    0  0.42055815655E+02  0.40072526011E+02  0.17900980522E+03  0.21224016469E+03  0.98116655932E+02 0.  0.
          5    1    3    3  502    0 -0.55062307177E+02 -0.56204847618E+02  0.21019785081E+03  0.22449068812E+03  0.47000000000E+01 0. -1.
         -5    1    3    3    0  502  0.13006491521E+02  0.16132321607E+02  0.16586664052E+03  0.16722216677E+03  0.47000000000E+01 0.  1.
          5    1    4    4  503    0  0.45211551960E+02  0.10397513547E+02  0.17577800793E+03  0.18185761131E+03  0.47000000000E+01 0. -1.
         -5    1    4    4    0  503 -0.31557363051E+01  0.29675012464E+02  0.32317972912E+01  0.30382553383E+02  0.47000000000E+01 0.  1.
<mgrwt>
<rscale>  0 0.11290392E+03</rscale>
<asrwt>0</asrwt>
<pdfrwt beam="1">  1        1 0.89155937E-01 0.11402358E+03</pdfrwt>
<pdfrwt beam="2">  1       -1 0.37599022E-02 0.11402358E+03</pdfrwt>
<totfact> 0.94013260E+03</totfact>
</mgrwt>
</event>
<event>
 8    1  0.2964543E-004  0.1710916E+03  0.7546771E-02  0.1176791E+00
         -1   -1    0    0    0  501 -0.00000000000E+00  0.00000000000E+00  0.21702346425E+03  0.21702346425E+03  0.00000000000E+00 0.  1.
          1   -1    0    0  501    0  0.00000000000E+00 -0.00000000000E+00 -0.16912336521E+03  0.16912336521E+03  0.00000000000E+00 0. -1.
         23    2    1    2    0    0  0.68449063867E+02  0.12706857775E+03  0.11110744171E+03  0.20375299810E+03  0.91316607671E+02 0.  0.
         23    2    1    2    0    0 -0.68449063867E+02 -0.12706857775E+03 -0.63207342669E+02  0.18239383136E+03  0.91872976196E+02 0.  0.
          5    1    4    4  502    0 -0.52664685858E+02 -0.14031748888E+03 -0.54901220396E+02  0.15968343941E+03  0.47000000000E+01 0. -1.
         -5    1    3    3    0  503  0.58382832505E+02  0.65667227782E+02  0.11062458813E+03  0.14135285436E+03  0.47000000000E+01 0.  1.
          5    1    3    3  503    0  0.10066231362E+02  0.61401349965E+02  0.48285357689E+00  0.62400143741E+02  0.47000000000E+01 0. -1.
         -5    1    4    4    0  502 -0.15784378008E+02  0.13248911128E+02 -0.83061222734E+01  0.22710391948E+02  0.47000000000E+01 0.  1.
<mgrwt>
<rscale>  0 0.17101704E+03</rscale>
<asrwt>0</asrwt>
<pdfrwt beam="1">  1        1 0.26018979E-01 0.17109162E+03</pdfrwt>
<pdfrwt beam="2">  1       -1 0.33388225E-01 0.17109162E+03</pdfrwt>
<totfact> 0.15245878E+03</totfact>
</mgrwt>
</event>
<event>
 8    1  0.2964543E-004  0.1036718E+03  0.7546771E-02  0.1278694E+00
         -3   -1    0    0    0  501 -0.00000000000E+00  0.00000000000E+00  0.72183982428E+02  0.72183982428E+02  0.00000000000E+00 0.  1.
          3   -1    0    0  501    0  0.00000000000E+00 -0.00000000000E+00 -0.13343461666E+03  0.13343461666E+03  0.00000000000E+00 0. -1.
         23    2    1    2    0    0 -0.47889705546E+02 -0.19822389940E+02 -0.31906544656E+02  0.97873949093E+02  0.76648100296E+02 0.  0.
         23    2    1    2    0    0  0.47889705546E+02  0.19822389940E+02 -0.29344089581E+02  0.10774465000E+03  0.89785761510E+02 0.  0.
          5    1    4    4  502    0  0.26810035020E+02  0.41621928043E+02 -0.50183047338E+02  0.70651193280E+02  0.47000000000E+01 0.  1.
         -5    1    3    3    0  503 -0.38312952958E+02  0.18394520551E+02  0.57836766470E+01  0.43148368059E+02  0.47000000000E+01 0.  1.
          5    1    3    3  503    0 -0.95767525888E+01 -0.38216910491E+02 -0.37690221303E+02  0.54725581034E+02  0.47000000000E+01 0. -1.
         -5    1    4    4    0  502  0.21079670526E+02 -0.21799538103E+02  0.20838957757E+02  0.37093456719E+02  0.47000000000E+01 0. -1.
<mgrwt>
<rscale>  0 0.10076570E+03</rscale>
<asrwt>0</asrwt>
<pdfrwt beam="1">  1        3 0.20528402E-01 0.10367176E+03</pdfrwt>
<pdfrwt beam="2">  1       -3 0.11105228E-01 0.10367176E+03</pdfrwt>
<totfact> 0.28776413E+03</totfact>
</mgrwt>
</event>
<event>
 8    1  0.2964543E-004  0.9961662E+02  0.7546771E-02  0.1281424E+00
         -2   -1    0    0    0  501 -0.00000000000E+00  0.00000000000E+00  0.86884081452E+01  0.86884081452E+01  0.00000000000E+00 0.  1.
          2   -1    0    0  501    0  0.00000000000E+00 -0.00000000000E+00 -0.11396545064E+04  0.11396545064E+04  0.00000000000E+00 0. -1.
         23    2    1    2    0    0  0.40003687660E+02 -0.75966931079E-01 -0.60295143134E+03  0.61112510974E+03  0.91231411321E+02 0.  0.
         23    2    1    2    0    0 -0.40003687660E+02  0.75966931079E-01 -0.52801466687E+03  0.53721780475E+03  0.90571411143E+02 0.  0.
          5    1    4    4  502    0  0.23909350612E+02 -0.11464072502E+02 -0.78028731424E+02  0.82544866180E+02  0.47000000000E+01 0. -1.
         -5    1    3    3    0  503 -0.18069708375E+02 -0.86513612461E+01 -0.38898288705E+02  0.44005991369E+02  0.47000000000E+01 0.  1.
          5    1    3    3  503    0  0.58073396034E+02  0.85753943150E+01 -0.56405314263E+03  0.56711911837E+03  0.47000000000E+01 0. -1.
         -5    1    4    4    0  502 -0.63913038272E+02  0.11540039433E+02 -0.44998593545E+03  0.45467293857E+03  0.47000000000E+01 0.  1.
<mgrwt>
<rscale>  0 0.99465254E+02</rscale>
<asrwt>0</asrwt>
<pdfrwt beam="1">  1        2 0.17533148E+00 0.99616621E+02</pdfrwt>
<pdfrwt beam="2">  1       -2 0.13366781E-02 0.99616621E+02</pdfrwt>
<totfact> 0.28041660E+04</totfact>
</mgrwt>
</event>
<event>
 8    1  0.2964543E-004  0.1043339E+03  0.7546771E-02  0.1272065E+00
          1   -1    0    0  501    0  0.00000000000E+00  0.00000000000E+00  0.85089489116E+03  0.85089489116E+03  0.00000000000E+00 0. -1.
         -1   -1    0    0    0  501 -0.00000000000E+00 -0.00000000000E+00 -0.12643388884E+02  0.12643388884E+02  0.00000000000E+00 0.  1.
         23    2    1    2    0    0  0.31467052218E+02  0.35649585911E+02  0.42408627301E+03  0.43643360817E+03  0.91455229696E+02 0.  0.
         23    2    1    2    0    0 -0.31467052218E+02 -0.35649585911E+02  0.41416522927E+03  0.42710467187E+03  0.92868160571E+02 0.  0.
          5    1    4    4  502    0 -0.32593856302E+02  0.21852611616E+02  0.97168412301E+02  0.10489845782E+03  0.47000000000E+01 0. -1.
         -5    1    4    4    0  502  0.11268040842E+01 -0.57502197527E+02  0.31699681697E+03  0.32220621405E+03  0.47000000000E+01 0.  1.
          5    1    3    3  503    0  0.17139357583E+02 -0.25483602260E+02  0.23718286966E+03  0.23920906175E+03  0.47000000000E+01 0. -1.
         -5    1    3    3    0  503  0.14327694635E+02  0.61133188171E+02  0.18690340335E+03  0.19722454642E+03  0.47000000000E+01 0.  1.
<mgrwt>
<rscale>  0 0.10401857E+03</rscale>
<asrwt>0</asrwt>
<pdfrwt beam="1">  1        1 0.13090686E+00 0.10433390E+03</pdfrwt>
<pdfrwt beam="2">  1       -1 0.19451374E-02 0.10433390E+03</pdfrwt>
<totfact> 0.13998552E+04</totfact>
</mgrwt>
</event>
<event>
 8    1  0.2964543E-004  0.9709870E+02  0.7546771E-02  0.1286860E+00
         -3   -1    0    0    0  501 -0.00000000000E+00  0.00000000000E+00  0.14746536975E+03  0.14746536975E+03  0.00000000000E+00 0.  1.
          3   -1    0    0  501    0  0.00000000000E+00 -0.00000000000E+00 -0.68848066387E+02  0.68848066387E+02  0.00000000000E+00 0. -1.
         23    2    1    2    0    0  0.30061075200E+02 -0.10331087959E+02  0.93515973320E+01  0.97547991264E+02  0.91748343889E+02 0.  0.
         23    2    1    2    0    0 -0.30061075200E+02  0.10331087959E+02  0.69265706028E+02  0.11876544487E+03  0.91088381494E+02 0.  0.
          5    1    4    4  502    0 -0.19125051925E+02  0.29392188436E+02 -0.96824737503E+01  0.36681175691E+02  0.47000000000E+01 0. -1.
         -5    1    3    3    0  503  0.50804935649E+02 -0.15010698889E+02  0.35177486643E+02  0.63765258048E+02  0.47000000000E+01 0.  1.
          5    1    3    3  503    0 -0.20743860449E+02  0.46796109298E+01 -0.25825889311E+02  0.33782733216E+02  0.47000000000E+01 0. -1.
         -5    1    4    4    0  502 -0.10936023275E+02 -0.19061100477E+02  0.78948179778E+02  0.82084269179E+02  0.47000000000E+01 0.  1.
<mgrwt>
<rscale>  0 0.96942488E+02</rscale>
<asrwt>0</asrwt>
<pdfrwt beam="1">  1        3 0.10592010E-01 0.97098704E+02</pdfrwt>
<pdfrwt beam="2">  1       -3 0.22686980E-01 0.97098704E+02</pdfrwt>
<totfact> 0.25741570E+03</totfact>
</mgrwt>
</event>
<event>
 8    1  0.2964543E-004  0.1287884E+03  0.7546771E-02  0.1230044E+00
         -2   -1    0    0    0  501 -0.00000000000E+00  0.00000000000E+00  0.41981735828E+02  0.41981735828E+02  0.00000000000E+00 0.  1.
          2   -1    0    0  501    0  0.00000000000E+00 -0.00000000000E+00 -0.39453868292E+03  0.39453868292E+03  0.00000000000E+00 0. -1.
         23    2    1    2    0    0  0.74941866204E+02  0.48909398493E+02 -0.15135702378E+03  0.19873447349E+03  0.92617653473E+02 0.  0.
         23    2    1    2    0    0 -0.74941866204E+02 -0.48909398493E+02 -0.20119992331E+03  0.23778594526E+03  0.89734798435E+02 0.  0.
          5    1    4    4  502    0  0.12035869035E+02 -0.35771182635E+02 -0.50370340633E+02  0.63116565702E+02  0.47000000000E+01 0. -1.
         -5    1    4    4    0  502 -0.86977735239E+02 -0.13138215859E+02 -0.15082958268E+03  0.17466937955E+03  0.47000000000E+01 0.  1.
          5    1    3    3  503    0  0.87617980381E+02  0.18558984748E+02 -0.13401421079E+03  0.16125521726E+03  0.47000000000E+01 0. -1.
         -5    1    3    3    0  503 -0.12676114176E+02  0.30350413745E+02 -0.17342812997E+02  0.37479256233E+02  0.47000000000E+01 0.  1.
<mgrwt>
<rscale>  0 0.12827091E+03</rscale>
<asrwt>0</asrwt>
<pdfrwt beam="1">  1        2 0.60698262E-01 0.12878836E+03</pdfrwt>
<pdfrwt beam="2">  1       -2 0.64587283E-02 0.12878836E+03</pdfrwt>
<totfact> 0.10117542E+04</totfact>
</mgrwt>
</event>
<event>
 8    1  0.2964543E-004  0.1022460E+03  0.7546771E-02  0.1276430E+00
         -1   -1    0    0    0  501 -0.00000000000E+00  0.00000000000E+00  0.15169086800E+03  0.15169086800E+03  0.00000000000E+00 0.  1.
          1   -1    0    0  501    0  0.00000000000E+00 -0.00000000000E+00 -0.80351748496E+02  0.80351748496E+02  0.00000000000E+00 0. -1.
         23    2    1    2    0    0 -0.23609808389E+02  0.35620490702E+02  0.81131195099E+02  0.12932878809E+03  0.91199902412E+02 0.  0.
         23    2    1    2    0    0  0.23609808389E+02 -0.35620490702E+02 -0.97920755913E+01  0.10271382841E+03  0.92887046421E+02 0.  0.
          5    1    4    4  502    0  0.12465808520E+02 -0.61767982927E+02  0.14728560723E+02  0.64882205556E+02  0.47000000000E+01 0. -1.
         -5    1    3    3    0  503  0.67664899607E+01  0.47889641911E+02  0.83001825540E+02  0.96180019919E+02  0.47000000000E+01 0.  1.
          5    1    3    3  503    0 -0.30376298349E+02 -0.12269151209E+02 -0.18706304412E+01  0.33148768168E+02  0.47000000000E+01 0. -1.
         -5    1    4    4    0  502  0.11143999868E+02  0.26147492225E+02 -0.24520636314E+02  0.37831622856E+02  0.47000000000E+01 0.  1.
<mgrwt>
<rscale>  0 0.10186128E+03</rscale>
<asrwt>0</asrwt>
<pdfrwt beam="1">  1        1 0.12361807E-01 0.10224601E+03</pdfrwt>
<pdfrwt beam="2">  1       -1 0.23337057E-01 0.10224601E+03</pdfrwt>
<totfact> 0.69750304E+03</totfact>
</mgrwt>
</event>
<event>
 8    1  0.2964543E-004  0.9612037E+02  0.7546771E-02  0.1289314E+00
         -1   -1    0    0    0  501 -0.00000000000E+00  0.00000000000E+00  0.46143348835E+03  0.46143348835E+03  0.00000000000E+00 0.  1.
          1   -1    0    0  501    0  0.00000000000E+00 -0.00000000000E+00 -0.31844541336E+02  0.31844541336E+02  0.00000000000E+00 0. -1.
         23    2    1    2    0    0 -0.25398465498E+02  0.14250529624E+02  0.36577510332E+03  0.37790328658E+03  0.90395288333E+02 0.  0.
         23    2    1    2    0    0  0.25398465498E+02 -0.14250529624E+02  0.63813843695E+02  0.11537474311E+03  0.91602210980E+02 0.  0.
          5    1    4    4  502    0  0.18445852507E+02 -0.53044001235E+02  0.39655619294E+02  0.68909895395E+02  0.47000000000E+01 0. -1.
         -5    1    4    4    0  502  0.69526129905E+01  0.38793471611E+02  0.24158224400E+02  0.46464847715E+02  0.47000000000E+01 0.  1.
          5    1    3    3  503    0  0.88421378147E+01 -0.33400347992E+02  0.16668475812E+03  0.17029288076E+03  0.47000000000E+01 0. -1.
         -5    1    3    3    0  503 -0.34240603313E+02  0.47650877616E+02  0.19909034520E+03  0.20761040582E+03  0.47000000000E+01 0.  1.
<mgrwt>
<rscale>  0 0.95831696E+02</rscale>
<asrwt>0</asrwt>
<pdfrwt beam="1">  1        1 0.48991605E-02 0.96120366E+02</pdfrwt>
<pdfrwt beam="2">  1       -1 0.70989763E-01 0.96120366E+02</pdfrwt>
<totfact> 0.33561876E+03</totfact>
</mgrwt>
</event>
<event>
 8    1  0.2964543E-004  0.9640112E+02  0.7546771E-02  0.1288581E+00
          2   -1    0    0  501    0  0.00000000000E+00  0.00000000000E+00  0.43825291796E+03  0.43825291796E+03  0.00000000000E+00 0. -1.
         -2   -1    0    0    0  501 -0.00000000000E+00 -0.00000000000E+00 -0.28595154631E+02  0.28595154631E+02  0.00000000000E+00 0.  1.
         23    2    1    2    0    0  0.40923532565E+01 -0.27319715068E+02  0.85243288333E+02  0.12868408429E+03  0.92358330199E+02 0.  0.
         23    2    1    2    0    0 -0.40923532565E+01  0.27319715068E+02  0.32441447499E+03  0.33816398830E+03  0.91362011852E+02 0.  0.
          5    1    3    3  502    0  0.28059219847E+02 -0.14094803761E+02  0.94275428817E+02  0.99478288034E+02  0.47000000000E+01 0. -1.
         -5    1    4    4    0  503 -0.37918943655E+02 -0.31251667375E+01  0.71350452764E+02  0.80997469496E+02  0.47000000000E+01 0.  1.
          5    1    4    4  503    0  0.33826590398E+02  0.30444881806E+02  0.25306402223E+03  0.25716651880E+03  0.47000000000E+01 0. -1.
         -5    1    3    3    0  502 -0.23966866590E+02 -0.13224911307E+02 -0.90321404839E+01  0.29205796256E+02  0.47000000000E+01 0.  1.
<mgrwt>
<rscale>  0 0.96161699E+02</rscale>
<asrwt>0</asrwt>
<pdfrwt beam="1">  1        2 0.67423521E-01 0.96401117E+02</pdfrwt>
<pdfrwt beam="2">  1       -2 0.43992549E-02 0.96401117E+02</pdfrwt>
<totfact> 0.15705979E+04</totfact>
</mgrwt>
</event>
<event>
 8    1  0.2964543E-004  0.2722842E+03  0.7546771E-02  0.1100156E+00
         -2   -1    0    0    0  501 -0.00000000000E+00  0.00000000000E+00  0.18298391586E+03  0.18298391586E+03  0.00000000000E+00 0.  1.
          2   -1    0    0  501    0  0.00000000000E+00 -0.00000000000E+00 -0.41049155806E+03  0.41049155806E+03  0.00000000000E+00 0. -1.
         23    2    1    2    0    0 -0.22990390607E+03  0.11014093560E+03 -0.74262790218E+02  0.28102923364E+03  0.92063219766E+02 0.  0.
         23    2    1    2    0    0  0.22990390607E+03 -0.11014093560E+03 -0.15324485198E+03  0.31244624027E+03  0.95665232358E+02 0.  0.
          5    1    3    3  502    0 -0.21782050724E+02  0.18758685499E+01 -0.37301938330E+02  0.43491392479E+02  0.47000000000E+01 0. -1.
         -5    1    4    4    0  503  0.67242469355E+02  0.58666177874E+01 -0.14607463535E+02  0.69220191275E+02  0.47000000000E+01 0.  1.
          5    1    4    4  503    0  0.16266143671E+03 -0.11600755338E+03 -0.13863738845E+03  0.24322604900E+03  0.47000000000E+01 0. -1.
         -5    1    3    3    0  502 -0.20812185534E+03  0.10826506705E+03 -0.36960851888E+02  0.23753784117E+03  0.47000000000E+01 0.  1.
<mgrwt>
<rscale>  0 0.27197249E+03</rscale>
<asrwt>0</asrwt>
<pdfrwt beam="1">  1        2 0.63152547E-01 0.27228417E+03</pdfrwt>
<pdfrwt beam="2">  1       -2 0.28151372E-01 0.27228417E+03</pdfrwt>
<totfact> 0.89291607E+02</totfact>
</mgrwt>
</event>
<event>
 8    1  0.2964543E-004  0.1094550E+03  0.7546771E-02  0.1261666E+00
          2   -1    0    0  501    0  0.00000000000E+00  0.00000000000E+00  0.11492986430E+04  0.11492986430E+04  0.00000000000E+00 0. -1.
         -2   -1    0    0    0  501 -0.00000000000E+00 -0.00000000000E+00 -0.12108691048E+02  0.12108691048E+02  0.00000000000E+00 0.  1.
         23    2    1    2    0    0 -0.40362050595E+02  0.39333761286E+02  0.35130523563E+03  0.36796164538E+03  0.93830506692E+02 0.  0.
         23    2    1    2    0    0  0.40362050595E+02 -0.39333761286E+02  0.78588471631E+03  0.79344568866E+03  0.93621758206E+02 0.  0.
          5    1    3    3  502    0 -0.16599888443E+02  0.68465167830E+02  0.25094009969E+03  0.26068382983E+03  0.47000000000E+01 0. -1.
         -5    1    3    3    0  502 -0.23762162151E+02 -0.29131406544E+02  0.10036513594E+03  0.10727781555E+03  0.47000000000E+01 0.  1.
          5    1    4    4  503    0  0.54768378211E+02  0.11460663049E+02  0.42264671021E+03  0.42636047389E+03  0.47000000000E+01 0. -1.
         -5    1    4    4    0  503 -0.14406327616E+02 -0.50794424335E+02  0.36323800611E+03  0.36708521477E+03  0.47000000000E+01 0.  1.
<mgrwt>
<rscale>  0 0.10941028E+03</rscale>
<asrwt>0</asrwt>
<pdfrwt beam="1">  1        2 0.17681509E+00 0.10945503E+03</pdfrwt>
<pdfrwt beam="2">  1       -2 0.18628765E-02 0.10945503E+03</pdfrwt>
<totfact> 0.17338702E+04</totfact>
</mgrwt>
</event>
<event>
 8    1  0.2964543E-004  0.1265168E+03  0.7546771E-02  0.1233382E+00
          1   -1    0    0  501    0  0.00000000000E+00  0.00000000000E+00  0.38789669526E+03  0.38789669526E+03  0.00000000000E+00 0. -1.
         -1   -1    0    0    0  501 -0.00000000000E+00 -0.00000000000E+00 -0.51573595610E+02  0.51573595610E+02  0.00000000000E+00 0.  1.
         23    2    1    2    0    0  0.71623704040E+02  0.52118462957E+02  0.68206773950E+02  0.14373120554E+03  0.90333860060E+02 0.  0.
         23    2    1    2    0    0 -0.71623704040E+02 -0.52118462957E+02  0.26811632570E+03  0.29573908533E+03  0.87914465937E+02 0.  0.
          5    1    3    3  502    0  0.50687692718E+02 -0.14149383680E+02  0.47540767045E+02  0.71075043319E+02  0.47000000000E+01 0. -1.
         -5    1    3    3    0  502  0.20936011321E+02  0.66267846637E+02  0.20666006905E+02  0.72656162225E+02  0.47000000000E+01 0.  1.
          5    1    4    4  503    0 -0.65829767622E+02 -0.73251296855E+02  0.24206203731E+03  0.26137220721E+03  0.47000000000E+01 0. -1.
         -5    1    4    4    0  503 -0.57939364182E+01  0.21132833899E+02  0.26054288392E+02  0.34366878116E+02  0.47000000000E+01 0.  1.
<mgrwt>
<rscale>  0 0.12608559E+03</rscale>
<asrwt>0</asrwt>
<pdfrwt beam="1">  1        1 0.59676413E-01 0.12651678E+03</pdfrwt>
<pdfrwt beam="2">  1       -1 0.79343996E-02 0.12651678E+03</pdfrwt>
<totfact> 0.52577814E+03</totfact>
</mgrwt>
</event>
<event>
 8    1  0.2964543E-004  0.9918705E+02  0.7546771E-02  0.1283161E+00
          1   -1    0    0  501    0  0.00000000000E+00  0.00000000000E+00  0.22069495661E+03  0.22069495661E+03  0.00000000000E+00 0. -1.
         -1   -1    0    0    0  501 -0.00000000000E+00 -0.00000000000E+00 -0.44093303684E+02  0.44093303684E+02  0.00000000000E+00 0.  1.
         23    2    1    2    0    0 -0.56713010738E+01 -0.28023936375E+02  0.10099364408E+03  0.14007000752E+03  0.92749049570E+02 0.  0.
         23    2    1    2    0    0  0.56713010738E+01  0.28023936375E+02  0.75608008845E+02  0.12471825278E+03  0.94976665070E+02 0.  0.
          5    1    3    3  502    0  0.26053793104E+02 -0.61384440424E+01  0.97350075430E+02  0.10107229005E+03  0.47000000000E+01 0. -1.
         -5    1    3    3    0  502 -0.31725094177E+02 -0.21885492333E+02  0.36435686531E+01  0.38997717469E+02  0.47000000000E+01 0.  1.
          5    1    4    4  503    0 -0.10190162441E+02  0.61054983890E+02  0.43867277367E+02  0.76013015280E+02  0.47000000000E+01 0. -1.
         -5    1    4    4    0  503  0.15861463514E+02 -0.33031047514E+02  0.31740731478E+02  0.48705237495E+02  0.47000000000E+01 0.  1.
<mgrwt>
<rscale>  0 0.98649974E+02</rscale>
<asrwt>0</asrwt>
<pdfrwt beam="1">  1        1 0.33953070E-01 0.99187053E+02</pdfrwt>
<pdfrwt beam="2">  1       -1 0.67835853E-02 0.99187053E+02</pdfrwt>
<totfact> 0.13077665E+04</totfact>
</mgrwt>
</event>
<event>
 8    1  0.2964543E-004  0.1907523E+03  0.7546771E-02  0.1158315E+00
         -1   -1    0    0    0  501 -0.00000000000E+00  0.00000000000E+00  0.67016005625E+03  0.67016005625E+03  0.00000000000E+00 0.  1.
          1   -1    0    0  501    0  0.00000000000E+00 -0.00000000000E+00 -0.22369839391E+03  0.22369839391E+03  0.00000000000E+00 0. -1.
         23    2    1    2    0    0  0.88042051458E+02 -0.14214366813E+03 -0.16679112204E+03  0.25162374867E+03  0.86827456992E+02 0.  0.
         23    2    1    2    0    0 -0.88042051458E+02  0.14214366813E+03  0.61325278438E+03  0.64223470149E+03  0.91816169773E+02 0.  0.
          5    1    3    3  502    0  0.16525890961E+02 -0.94711131406E+02 -0.11977248912E+03  0.15365820067E+03  0.47000000000E+01 0. -1.
         -5    1    4    4    0  503 -0.10582861380E+02  0.10073090683E+03  0.36676666888E+03  0.38052410167E+03  0.47000000000E+01 0.  1.
          5    1    4    4  503    0 -0.77459190078E+02  0.41412761297E+02  0.24648611549E+03  0.26171059982E+03  0.47000000000E+01 0. -1.
         -5    1    3    3    0  502  0.71516160497E+02 -0.47432536724E+02 -0.47018632924E+02  0.97965547997E+02  0.47000000000E+01 0.  1.
<mgrwt>
<rscale>  0 0.19016192E+03</rscale>
<asrwt>0</asrwt>
<pdfrwt beam="1">  1        1 0.34415138E-01 0.19075229E+03</pdfrwt>
<pdfrwt beam="2">  1       -1 0.10310155E+00 0.19075229E+03</pdfrwt>
<totfact> 0.12220697E+02</totfact>
</mgrwt>
</event>
<event>
 8    1  0.2964543E-004  0.1031756E+03  0.7546771E-02  0.1278741E+00
          1   -1    0    0  501    0  0.00000000000E+00  0.00000000000E+00  0.73967272555E+03  0.73967272555E+03  0.00000000000E+00 0. -1.
         -1   -1    0    0    0  501 -0.00000000000E+00 -0.00000000000E+00 -0.14332260226E+02  0.14332260226E+02  0.00000000000E+00 0.  1.
         23    2    1    2    0    0  0.22172952930E+02  0.28922772228E+01  0.48839268796E+03  0.49917193051E+03  0.10072335105E+03 0.  0.
         23    2    1    2    0    0 -0.22172952930E+02 -0.28922772228E+01  0.23694777737E+03  0.25483305527E+03  0.91080358747E+02 0.  0.
          5    1    3    3  502    0  0.52321966785E+02  0.18224406401E+02  0.40878151624E+03  0.41254591892E+03  0.47000000000E+01 0. -1.
         -5    1    3    3    0  502 -0.30149013855E+02 -0.15332129178E+02  0.79611171715E+02  0.86626011587E+02  0.47000000000E+01 0.  1.
          5    1    4    4  503    0 -0.14872761694E+02 -0.44745934069E+02  0.88933821663E+02  0.10077059240E+03  0.47000000000E+01 0. -1.
         -5    1    4    4    0  503 -0.73001912362E+01  0.41853656847E+02  0.14801395571E+03  0.15406246288E+03  0.47000000000E+01 0.  1.
<mgrwt>
<rscale>  0 0.10074328E+03</rscale>
<asrwt>0</asrwt>
<pdfrwt beam="1">  1        1 0.11379577E+00 0.10317557E+03</pdfrwt>
<pdfrwt beam="2">  1       -1 0.22049637E-02 0.10317557E+03</pdfrwt>
<totfact> 0.14390073E+04</totfact>
</mgrwt>
</event>
<event>
 8    1  0.2964543E-004  0.1124525E+03  0.7546771E-02  0.1256295E+00
         -4   -1    0    0    0  501 -0.00000000000E+00  0.00000000000E+00  0.34589555466E+02  0.34589555466E+02  0.00000000000E+00 0.  1.
          4   -1    0    0  501    0  0.00000000000E+00 -0.00000000000E+00 -0.40091178324E+03  0.40091178324E+03  0.00000000000E+00 0. -1.
         23    2    1    2    0    0 -0.23689523397E+02  0.61448083721E+02 -0.24943146291E+03  0.27360850983E+03  0.91150981599E+02 0.  0.
         23    2    1    2    0    0  0.23689523397E+02 -0.61448083721E+02 -0.11689076486E+03  0.16189282888E+03  0.90602299204E+02 0.  0.
          5    1    4    4  502    0  0.29853898069E+02  0.15381872891E+02 -0.45348825897E+02  0.56625641310E+02  0.47000000000E+01 0. -1.
         -5    1    4    4    0  502 -0.61643746721E+01 -0.76829956611E+02 -0.71541938964E+02  0.10526718757E+03  0.47000000000E+01 0.  1.
          5    1    3    3  503    0 -0.51656084264E+02  0.64227525710E+02 -0.16504921352E+03  0.18454500531E+03  0.47000000000E+01 0. -1.
         -5    1    3    3    0  503  0.27966560867E+02 -0.27794419898E+01 -0.84382249393E+02  0.89063504519E+02  0.47000000000E+01 0.  1.
<mgrwt>
<rscale>  0 0.11234125E+03</rscale>
<asrwt>0</asrwt>
<pdfrwt beam="1">  1        4 0.61678735E-01 0.11245249E+03</pdfrwt>
<pdfrwt beam="2">  1       -4 0.53214702E-02 0.11245249E+03</pdfrwt>
<totfact> 0.85826751E+02</totfact>
</mgrwt>
</event>
<event>
 8    1  0.2964543E-004  0.1246577E+03  0.7546771E-02  0.1236339E+00
          1   -1    0    0  501    0  0.00000000000E+00  0.00000000000E+00  0.26526487265E+03  0.26526487265E+03  0.00000000000E+00 0. -1.
         -1   -1    0    0    0  501 -0.00000000000E+00 -0.00000000000E+00 -0.85683116646E+02  0.85683116646E+02  0.00000000000E+00 0.  1.
         23    2    1    2    0    0 -0.69627657639E+02  0.50674361595E+02  0.18959380637E+03  0.22588889833E+03  0.87544739104E+02 0.  0.
         23    2    1    2    0    0  0.69627657639E+02 -0.50674361595E+02 -0.10012050366E+02  0.12505909096E+03  0.90131201305E+02 0.  0.
          5    1    4    4  502    0 -0.21073101158E+02 -0.13668848069E+02 -0.86478761608E+01  0.26977560342E+02  0.47000000000E+01 0. -1.
         -5    1    4    4    0  502  0.90700758797E+02 -0.37005513526E+02 -0.13641742054E+01  0.98081530621E+02  0.47000000000E+01 0.  1.
          5    1    3    3  503    0 -0.25485744359E+02  0.70461938208E+01  0.14940606425E+03  0.15180063915E+03  0.47000000000E+01 0. -1.
         -5    1    3    3    0  503 -0.44141913280E+02  0.43628167774E+02  0.40187742118E+02  0.74088259177E+02  0.47000000000E+01 0.  1.
<mgrwt>
<rscale>  0 0.12419078E+03</rscale>
<asrwt>0</asrwt>
<pdfrwt beam="1">  1        1 0.40809980E-01 0.12465767E+03</pdfrwt>
<pdfrwt beam="2">  1       -1 0.13182018E-01 0.12465767E+03</pdfrwt>
<totfact> 0.38783185E+03</totfact>
</mgrwt>
</event>
<event>
 8    1  0.2964543E-004  0.1055139E+03  0.7546771E-02  0.1269357E+00
         -1   -1    0    0    0  501 -0.00000000000E+00  0.00000000000E+00  0.82635230150E+01  0.82635230150E+01  0.00000000000E+00 0.  1.
          1   -1    0    0  501    0  0.00000000000E+00 -0.00000000000E+00 -0.13445090584E+04  0.13445090584E+04  0.00000000000E+00 0. -1.
         23    2    1    2    0    0 -0.16838455141E+02  0.49429753727E+02 -0.63132226736E+03  0.63999632090E+03  0.91107910672E+02 0.  0.
         23    2    1    2    0    0  0.16838455141E+02 -0.49429753727E+02 -0.70492326808E+03  0.71277626056E+03  0.91686147341E+02 0.  0.
          5    1    3    3  502    0 -0.17089941439E+02  0.74055321694E+02 -0.38917269724E+03  0.39655231061E+03  0.47000000000E+01 0. -1.
         -5    1    4    4    0  503  0.49831713226E+02 -0.43347232046E+02 -0.56228834842E+03  0.56617352369E+03  0.47000000000E+01 0.  1.
          5    1    4    4  503    0 -0.32993258085E+02 -0.60825216810E+01 -0.14263491966E+03  0.14660273686E+03  0.47000000000E+01 0. -1.
         -5    1    3    3    0  502  0.25148629772E+00 -0.24625567968E+02 -0.24214957012E+03  0.24344401030E+03  0.47000000000E+01 0.  1.
<mgrwt>
<rscale>  0 0.10538816E+03</rscale>
<asrwt>0</asrwt>
<pdfrwt beam="1">  1        1 0.20684760E+00 0.10551390E+03</pdfrwt>
<pdfrwt beam="2">  1       -1 0.12713109E-02 0.10551390E+03</pdfrwt>
<totfact> 0.11532116E+04</totfact>
</mgrwt>
</event>
<event>
 8    1  0.2964543E-004  0.1017483E+03  0.7546771E-02  0.1279136E+00
          1   -1    0    0  501    0  0.00000000000E+00  0.00000000000E+00  0.74256895175E+03  0.74256895175E+03  0.00000000000E+00 0. -1.
         -1   -1    0    0    0  501 -0.00000000000E+00 -0.00000000000E+00 -0.13478602254E+02  0.13478602254E+02  0.00000000000E+00 0.  1.
         23    2    1    2    0    0  0.42799160639E+02  0.36340015013E+01  0.33025301133E+03  0.34557165439E+03  0.92237425754E+02 0.  0.
         23    2    1    2    0    0 -0.42799160639E+02 -0.36340015013E+01  0.39883733817E+03  0.41047589961E+03  0.87030269027E+02 0.  0.
          5    1    3    3  502    0 -0.29034551774E+01  0.29602450970E+02  0.37473801066E+02  0.48074015037E+02  0.47000000000E+01 0. -1.
         -5    1    4    4    0  503 -0.31581567072E+02 -0.40102436928E+02  0.14610658691E+03  0.15483806239E+03  0.47000000000E+01 0.  1.
          5    1    4    4  503    0 -0.11217593567E+02  0.36468435427E+02  0.25273075126E+03  0.25563783722E+03  0.47000000000E+01 0. -1.
         -5    1    3    3    0  502  0.45702615816E+02 -0.25968449469E+02  0.29277921026E+03  0.29749763935E+03  0.47000000000E+01 0.  1.
<mgrwt>
<rscale>  0 0.10055354E+03</rscale>
<asrwt>0</asrwt>
<pdfrwt beam="1">  1        1 0.11424135E+00 0.10174830E+03</pdfrwt>
<pdfrwt beam="2">  1       -1 0.20736317E-02 0.10174830E+03</pdfrwt>
<totfact> 0.15608084E+04</totfact>
</mgrwt>
</event>
<event>
 8    1  0.2964543E-004  0.9255395E+02  0.7546771E-02  0.1300082E+00
         -1   -1    0    0    0  501 -0.00000000000E+00  0.00000000000E+00  0.70245310815E+03  0.70245310815E+03  0.00000000000E+00 0.  1.
          1   -1    0    0  501    0  0.00000000000E+00 -0.00000000000E+00 -0.12337218976E+02  0.12337218976E+02  0.00000000000E+00 0. -1.
         23    2    1    2    0    0  0.43891970618E+00 -0.81636694274E+01  0.44880530235E+03  0.45824931226E+03  0.92192161364E+02 0.  0.
         23    2    1    2    0    0 -0.43891970618E+00  0.81636694274E+01  0.24131058683E+03  0.25654101487E+03  0.86692876572E+02 0.  0.
          5    1    3    3  502    0  0.33063686877E+02 -0.36195564921E+02  0.24526074966E+03  0.25015645431E+03  0.47000000000E+01 0. -1.
         -5    1    4    4    0  503 -0.23460636106E+02  0.39844825634E+01  0.22785763877E+03  0.22914508744E+03  0.47000000000E+01 0.  1.
          5    1    4    4  503    0  0.23021716400E+02  0.41791868640E+01  0.13452948050E+02  0.27395927436E+02  0.47000000000E+01 0. -1.
         -5    1    3    3    0  502 -0.32624767171E+02  0.28031895494E+02  0.20354455269E+03  0.20809285795E+03  0.47000000000E+01 0.  1.
<mgrwt>
<rscale>  0 0.91153365E+02</rscale>
<asrwt>0</asrwt>
<pdfrwt beam="1">  1        1 0.18980342E-02 0.92553945E+02</pdfrwt>
<pdfrwt beam="2">  1       -1 0.10806968E+00 0.92553945E+02</pdfrwt>
<totfact> 0.50924415E+03</totfact>
</mgrwt>
</event>
<event>
 8    1  0.2964543E-004  0.1071343E+03  0.7546771E-02  0.1276432E+00
          1   -1    0    0  501    0  0.00000000000E+00  0.00000000000E+00  0.10937372116E+03  0.10937372116E+03  0.00000000000E+00 0. -1.
         -1   -1    0    0    0  501 -0.00000000000E+00 -0.00000000000E+00 -0.86772140197E+02  0.86772140197E+02  0.00000000000E+00 0.  1.
         23    2    1    2    0    0  0.19058950344E+01 -0.16950831837E+02  0.14107674882E+02  0.88675415354E+02  0.85868152780E+02 0.  0.
         23    2    1    2    0    0 -0.19058950344E+01  0.16950831837E+02  0.84939060793E+01  0.10747044600E+03  0.10576760935E+03 0.  0.
          5    1    4    4  502    0  0.23090950281E+02  0.37502814177E+02  0.41723827073E+02  0.60849164347E+02  0.47000000000E+01 0. -1.
         -5    1    4    4    0  502 -0.24996845315E+02 -0.20551982340E+02 -0.33229920994E+02  0.46621281654E+02  0.47000000000E+01 0.  1.
          5    1    3    3  503    0  0.37868475356E+02  0.12141843153E+02 -0.14682073335E+00  0.40044442027E+02  0.47000000000E+01 0. -1.
         -5    1    3    3    0  503 -0.35962580322E+02 -0.29092674990E+02  0.14254495615E+02  0.48630973327E+02  0.47000000000E+01 0.  1.
<mgrwt>
<rscale>  0 0.10186040E+03</rscale>
<asrwt>0</asrwt>
<pdfrwt beam="1">  1        1 0.16826726E-01 0.10713426E+03</pdfrwt>
<pdfrwt beam="2">  1       -1 0.13349560E-01 0.10713426E+03</pdfrwt>
<totfact> 0.11370464E+04</totfact>
</mgrwt>
</event>
<event>
 8    1  0.2964543E-004  0.1298036E+03  0.7546771E-02  0.1228037E+00
          1   -1    0    0  501    0  0.00000000000E+00  0.00000000000E+00  0.31542183542E+03  0.31542183542E+03  0.00000000000E+00 0. -1.
         -1   -1    0    0    0  501 -0.00000000000E+00 -0.00000000000E+00 -0.61413861075E+02  0.61413861075E+02  0.00000000000E+00 0.  1.
         23    2    1    2    0    0  0.89032493450E+02  0.22338266240E+02  0.57341471163E+02  0.14119466681E+03  0.90675832463E+02 0.  0.
         23    2    1    2    0    0 -0.89032493450E+02 -0.22338266240E+02  0.19666650318E+03  0.23564102968E+03  0.91777984109E+02 0.  0.
          5    1    4    4  502    0 -0.41767668212E+02  0.33508591344E+02  0.60038977088E+02  0.80586181020E+02  0.47000000000E+01 0. -1.
         -5    1    4    4    0  502 -0.47264825238E+02 -0.55846857584E+02  0.13662752609E+03  0.15505484866E+03  0.47000000000E+01 0.  1.
          5    1    3    3  503    0  0.73819805154E+02  0.44836943896E+02  0.10888603776E+02  0.87180082950E+02  0.47000000000E+01 0. -1.
         -5    1    3    3    0  503  0.15212688295E+02 -0.22498677656E+02  0.46452867388E+02  0.54014583864E+02  0.47000000000E+01 0.  1.
<mgrwt>
<rscale>  0 0.12960896E+03</rscale>
<asrwt>0</asrwt>
<pdfrwt beam="1">  1        1 0.48526435E-01 0.12980363E+03</pdfrwt>
<pdfrwt beam="2">  1       -1 0.94482865E-02 0.12980363E+03</pdfrwt>
<totfact> 0.52315676E+03</totfact>
</mgrwt>
</event>
<event>
 8    1  0.2964543E-004  0.1067715E+03  0.7546771E-02  0.1269303E+00
          2   -1    0    0  501    0  0.00000000000E+00  0.00000000000E+00  0.39674833374E+03  0.39674833374E+03  0.00000000000E+00 0. -1.
         -2   -1    0    0    0  501 -0.00000000000E+00 -0.00000000000E+00 -0.27809881815E+02  0.27809881815E+02  0.00000000000E+00 0.  1.
         23    2    1    2    0    0  0.27996049975E+02 -0.36545490607E+02  0.21727315291E+03  0.24209045159E+03  0.96336971509E+02 0.  0.
         23    2    1    2    0    0 -0.27996049975E+02  0.36545490607E+02  0.15166529902E+03  0.18246776396E+03  0.90403375280E+02 0.  0.
          5    1    4    4  502    0 -0.57528166409E+02  0.27451114087E+02  0.12864988576E+03  0.14365213782E+03  0.47000000000E+01 0. -1.
         -5    1    3    3    0  503  0.46616765103E+02 -0.50824861719E+02  0.94944767101E+02  0.11744312733E+03  0.47000000000E+01 0.  1.
          5    1    3    3  503    0 -0.18620715128E+02  0.14279371112E+02  0.12232838581E+03  0.12464732426E+03  0.47000000000E+01 0. -1.
         -5    1    4    4    0  502  0.29532116433E+02  0.90943765206E+01  0.23015413258E+02  0.38815626142E+02  0.47000000000E+01 0.  1.
<mgrwt>
<rscale>  0 0.10541557E+03</rscale>
<asrwt>0</asrwt>
<pdfrwt beam="1">  1        2 0.61038201E-01 0.10677155E+03</pdfrwt>
<pdfrwt beam="2">  1       -2 0.42784437E-02 0.10677155E+03</pdfrwt>
<totfact> 0.18364508E+04</totfact>
</mgrwt>
</event>
<event>
 8    1  0.2964543E-004  0.1343926E+03  0.7546771E-02  0.1221535E+00
         -1   -1    0    0    0  501 -0.00000000000E+00  0.00000000000E+00  0.38757874948E+02  0.38757874948E+02  0.00000000000E+00 0.  1.
          1   -1    0    0  501    0  0.00000000000E+00 -0.00000000000E+00 -0.52626765989E+03  0.52626765989E+03  0.00000000000E+00 0. -1.
         23    2    1    2    0    0 -0.36062544892E+02  0.91518726448E+02 -0.34381194273E+03  0.36914497469E+03  0.91570606292E+02 0.  0.
         23    2    1    2    0    0  0.36062544892E+02 -0.91518726448E+02 -0.14369784221E+03  0.19588056015E+03  0.89688012321E+02 0.  0.
          5    1    3    3  502    0 -0.55797033949E+02  0.87089012280E+02 -0.21455079749E+03  0.23822665628E+03  0.47000000000E+01 0. -1.
         -5    1    4    4    0  503 -0.47926452030E+01 -0.68442343642E+02 -0.34508179062E+02  0.76943019653E+02  0.47000000000E+01 0.  1.
          5    1    4    4  503    0  0.40855190095E+02 -0.23076382806E+02 -0.10918966314E+03  0.11893754049E+03  0.47000000000E+01 0. -1.
         -5    1    3    3    0  502  0.19734489057E+02  0.44297141678E+01 -0.12926114525E+03  0.13091831841E+03  0.47000000000E+01 0. -1.
<mgrwt>
<rscale>  0 0.13407252E+03</rscale>
<asrwt>0</asrwt>
<pdfrwt beam="1">  1        1 0.80964247E-01 0.13439256E+03</pdfrwt>
<pdfrwt beam="2">  1       -1 0.59627506E-02 0.13439256E+03</pdfrwt>
<totfact> 0.54728117E+03</totfact>
</mgrwt>
</event>
<event>
 8    1  0.2964543E-004  0.3064073E+03  0.7546771E-02  0.1082127E+00
          1   -1    0    0  501    0  0.00000000000E+00  0.00000000000E+00  0.38860569877E+03  0.38860569877E+03  0.00000000000E+00 0. -1.
         -1   -1    0    0    0  501 -0.00000000000E+00 -0.00000000000E+00 -0.24202097426E+03  0.24202097426E+03  0.00000000000E+00 0.  1.
         23    2    1    2    0    0  0.29215999688E+02  0.29092107438E+03  0.90518940486E+02  0.31913219350E+03  0.90349500197E+02 0.  0.
         23    2    1    2    0    0 -0.29215999688E+02 -0.29092107438E+03  0.56065784032E+02  0.31149447953E+03  0.91634013756E+02 0.  0.
          5    1    3    3  502    0  0.16688715883E+02  0.23345055122E+03  0.32428557244E+02  0.23632895385E+03  0.47000000000E+01 0. -1.
         -5    1    3    3    0  502  0.12527283805E+02  0.57470523165E+02  0.58090383241E+02  0.82803239656E+02  0.47000000000E+01 0.  1.
          5    1    4    4  503    0  0.47373516331E+01 -0.12409613666E+03  0.66342401908E+02  0.14087475972E+03  0.47000000000E+01 0. -1.
         -5    1    4    4    0  503 -0.33953351321E+02 -0.16682493772E+03 -0.10276617876E+02  0.17061971981E+03  0.47000000000E+01 0.  1.
<mgrwt>
<rscale>  0 0.30631184E+03</rscale>
<asrwt>0</asrwt>
<pdfrwt beam="1">  1        1 0.59785492E-01 0.30640731E+03</pdfrwt>
<pdfrwt beam="2">  1       -1 0.37233996E-01 0.30640731E+03</pdfrwt>
<totfact> 0.44294640E+02</totfact>
</mgrwt>
</event>
<event>
 8    1  0.2964543E-004  0.9470865E+02  0.7546771E-02  0.1294185E+00
          2   -1    0    0  501    0  0.00000000000E+00  0.00000000000E+00  0.38847485273E+03  0.38847485273E+03  0.00000000000E+00 0.  1.
         -2   -1    0    0    0  501 -0.00000000000E+00 -0.00000000000E+00 -0.28793731270E+02  0.28793731270E+02  0.00000000000E+00 0. -1.
         23    2    1    2    0    0 -0.24163638166E+02 -0.20738168386E+01  0.82366554644E+02  0.12551484747E+03  0.91550780916E+02 0.  0.
         23    2    1    2    0    0  0.24163638166E+02  0.20738168386E+01  0.27731456681E+03  0.29175373652E+03  0.87342381943E+02 0.  0.
          5    1    3    3  502    0  0.19262774171E+02 -0.23608954286E+02  0.11937576330E+01  0.30853723414E+02  0.47000000000E+01 0. -1.
         -5    1    3    3    0  502 -0.43426412337E+02  0.21535137448E+02  0.81172797011E+02  0.94661124058E+02  0.47000000000E+01 0.  1.
          5    1    4    4  503    0  0.11616225719E+01 -0.23453544096E+02  0.17565194310E+02  0.29699228084E+02  0.47000000000E+01 0. -1.
         -5    1    4    4    0  503  0.23002015594E+02  0.25527360935E+02  0.25974937250E+03  0.26205450844E+03  0.47000000000E+01 0.  1.
<mgrwt>
<rscale>  0 0.93676477E+02</rscale>
<asrwt>0</asrwt>
<pdfrwt beam="1">  1        2 0.59765358E-01 0.94708646E+02</pdfrwt>
<pdfrwt beam="2">  1       -2 0.44298051E-02 0.94708646E+02</pdfrwt>
<totfact> 0.17631469E+04</totfact>
</mgrwt>
</event>
<event>
 8    1  0.2964543E-004  0.1068405E+03  0.7546771E-02  0.1267590E+00
          2   -1    0    0  501    0  0.00000000000E+00  0.00000000000E+00  0.96943028933E+03  0.96943028933E+03  0.00000000000E+00 0.  1.
         -2   -1    0    0    0  501 -0.00000000000E+00 -0.00000000000E+00 -0.11538433649E+02  0.11538433649E+02  0.00000000000E+00 0. -1.
         23    2    1    2    0    0  0.49170365360E+02  0.27586449861E+02  0.47860737080E+03  0.49038750253E+03  0.90753237964E+02 0.  0.
         23    2    1    2    0    0 -0.49170365360E+02 -0.27586449861E+02  0.47928448488E+03  0.49058122045E+03  0.88190585500E+02 0.  0.
          5    1    4    4  502    0  0.24523647991E+02  0.13664372305E+01  0.98626971341E+02  0.10174795299E+03  0.47000000000E+01 0. -1.
         -5    1    3    3    0  503  0.32499180068E+02 -0.18952021733E+02  0.35735811484E+03  0.35936372671E+03  0.47000000000E+01 0.  1.
          5    1    3    3  503    0  0.16671185292E+02  0.46538471594E+02  0.12124925596E+03  0.13102377581E+03  0.47000000000E+01 0. -1.
         -5    1    4    4    0  502 -0.73694013351E+02 -0.28952887092E+02  0.38065751353E+03  0.38883326746E+03  0.47000000000E+01 0.  1.
<mgrwt>
<rscale>  0 0.10629429E+03</rscale>
<asrwt>0</asrwt>
<pdfrwt beam="1">  1        2 0.14914306E+00 0.10684048E+03</pdfrwt>
<pdfrwt beam="2">  1       -2 0.17751444E-02 0.10684048E+03</pdfrwt>
<totfact> 0.23553217E+04</totfact>
</mgrwt>
</event>
<event>
 8    1  0.2964543E-004  0.2522022E+03  0.7546771E-02  0.1111993E+00
         -2   -1    0    0    0  501 -0.00000000000E+00  0.00000000000E+00  0.52626574000E+02  0.52626574000E+02  0.00000000000E+00 0.  1.
          2   -1    0    0  501    0  0.00000000000E+00 -0.00000000000E+00 -0.13278643109E+04  0.13278643109E+04  0.00000000000E+00 0. -1.
         23    2    1    2    0    0  0.71134697739E+02 -0.22430785295E+03 -0.84583687173E+03  0.88250390157E+03  0.89436930804E+02 0.  0.
         23    2    1    2    0    0 -0.71134697739E+02  0.22430785295E+03 -0.42940086516E+03  0.49798698332E+03  0.90729126756E+02 0.  0.
          5    1    3    3  502    0 -0.16198929057E+02 -0.78035407145E+02 -0.22709186807E+03  0.24071712987E+03  0.47000000000E+01 0. -1.
         -5    1    4    4    0  503 -0.77311010426E+02  0.11100415178E+03 -0.19314175755E+03  0.23584898252E+03  0.47000000000E+01 0.  1.
          5    1    4    4  503    0  0.61763126867E+01  0.11330370117E+03 -0.23625910761E+03  0.26213800081E+03  0.47000000000E+01 0. -1.
         -5    1    3    3    0  502  0.87333626796E+02 -0.14627244580E+03 -0.61874500367E+03  0.64178677170E+03  0.47000000000E+01 0.  1.
<mgrwt>
<rscale>  0 0.25208659E+03</rscale>
<asrwt>0</asrwt>
<pdfrwt beam="1">  1        2 0.20428681E+00 0.25220217E+03</pdfrwt>
<pdfrwt beam="2">  1       -2 0.80963963E-02 0.25220217E+03</pdfrwt>
<totfact> 0.15728047E+03</totfact>
</mgrwt>
</event>
<event>
 8    1  0.2964543E-004  0.1327449E+03  0.7546771E-02  0.1227079E+00
          1   -1    0    0  501    0  0.00000000000E+00  0.00000000000E+00  0.50148179065E+03  0.50148179065E+03  0.00000000000E+00 0. -1.
         -1   -1    0    0    0  501 -0.00000000000E+00 -0.00000000000E+00 -0.49953995499E+02  0.49953995499E+02  0.00000000000E+00 0.  1.
         23    2    1    2    0    0 -0.35473625788E+02  0.88301082316E+02  0.57847895625E+02  0.13597813611E+03  0.78027015884E+02 0.  0.
         23    2    1    2    0    0  0.35473625788E+02 -0.88301082316E+02  0.39367989953E+03  0.41545765004E+03  0.92551263733E+02 0.  0.
          5    1    4    4  502    0  0.50611352767E+02 -0.59357255024E+02  0.35969924965E+03  0.36809025110E+03  0.47000000000E+01 0. -1.
         -5    1    4    4    0  502 -0.15137726979E+02 -0.28943827291E+02  0.33980649873E+02  0.47367398938E+02  0.47000000000E+01 0.  1.
          5    1    3    3  503    0 -0.17339575139E+02  0.65989942352E+02  0.75534795945E+02  0.10189665724E+03  0.47000000000E+01 0. -1.
         -5    1    3    3    0  503 -0.18134050649E+02  0.22311139963E+02 -0.17686900320E+02  0.34081478875E+02  0.47000000000E+01 0.  1.
<mgrwt>
<rscale>  0 0.13025433E+03</rscale>
<asrwt>0</asrwt>
<pdfrwt beam="1">  1        1 0.77151041E-01 0.13274485E+03</pdfrwt>
<pdfrwt beam="2">  1       -1 0.76852304E-02 0.13274485E+03</pdfrwt>
<totfact> 0.39853220E+03</totfact>
</mgrwt>
</event>
<event>
 8    1  0.2964543E-004  0.2101488E+03  0.7546771E-02  0.1141721E+00
         -1   -1    0    0    0  501 -0.00000000000E+00  0.00000000000E+00  0.41294801113E+02  0.41294801113E+02  0.00000000000E+00 0.  1.
          1   -1    0    0  501    0  0.00000000000E+00 -0.00000000000E+00 -0.12803184362E+04  0.12803184362E+04  0.00000000000E+00 0. -1.
         23    2    1    2    0    0 -0.12095042968E+03 -0.14418751358E+03 -0.34861450842E+03  0.40705600057E+03  0.93506505661E+02 0.  0.
         23    2    1    2    0    0  0.12095042968E+03  0.14418751358E+03 -0.89040912670E+03  0.91455723678E+03  0.90374116474E+02 0.  0.
          5    1    3    3  502    0 -0.35187148447E+02 -0.10175043024E+03 -0.23436697420E+03  0.25795591496E+03  0.47000000000E+01 0. -1.
         -5    1    4    4    0  503  0.44954867269E+02  0.14767918258E+00 -0.22466042338E+03  0.22916229562E+03  0.47000000000E+01 0.  1.
          5    1    4    4  503    0  0.75995562410E+02  0.14403983440E+03 -0.66574870331E+03  0.68539494116E+03  0.47000000000E+01 0. -1.
         -5    1    3    3    0  502 -0.85763281231E+02 -0.42437083345E+02 -0.11424753423E+03  0.14910008560E+03  0.47000000000E+01 0.  1.
<mgrwt>
<rscale>  0 0.20980421E+03</rscale>
<asrwt>0</asrwt>
<pdfrwt beam="1">  1        1 0.19697201E+00 0.21014879E+03</pdfrwt>
<pdfrwt beam="2">  1       -1 0.63530481E-02 0.21014879E+03</pdfrwt>
<totfact> 0.12366955E+03</totfact>
</mgrwt>
</event>
<event>
 8    1  0.2964543E-004  0.1093932E+03  0.7546771E-02  0.1262838E+00
         -1   -1    0    0    0  501 -0.00000000000E+00  0.00000000000E+00  0.31897237257E+03  0.31897237257E+03  0.00000000000E+00 0.  1.
          1   -1    0    0  501    0  0.00000000000E+00 -0.00000000000E+00 -0.62188081616E+02  0.62188081616E+02  0.00000000000E+00 0. -1.
         23    2    1    2    0    0  0.56389870544E+02 -0.58464732000E+01  0.25125867968E+03  0.27403975409E+03  0.93556741915E+02 0.  0.
         23    2    1    2    0    0 -0.56389870544E+02  0.58464732000E+01  0.55256112701E+01  0.10712070009E+03  0.90721073956E+02 0.  0.
          5    1    4    4  502    0 -0.43904948450E+02  0.40414672184E+02 -0.18864198252E+02  0.62760960810E+02  0.47000000000E+01 0. -1.
         -5    1    4    4    0  502 -0.12484922094E+02 -0.34568198984E+02  0.24389809523E+02  0.44359739283E+02  0.47000000000E+01 0.  1.
          5    1    3    3  503    0 -0.20545990408E+02 -0.11263592980E+02  0.23441539841E+02  0.33475394528E+02  0.47000000000E+01 0. -1.
         -5    1    3    3    0  503  0.76935860951E+02  0.54171197797E+01  0.22781713984E+03  0.24056435956E+03  0.47000000000E+01 0.  1.
<mgrwt>
<rscale>  0 0.10878433E+03</rscale>
<asrwt>0</asrwt>
<pdfrwt beam="1">  1        1 0.95673973E-02 0.10939316E+03</pdfrwt>
<pdfrwt beam="2">  1       -1 0.49072672E-01 0.10939316E+03</pdfrwt>
<totfact> 0.27662164E+03</totfact>
</mgrwt>
</event>
<event>
 8    1  0.2964543E-004  0.1235943E+03  0.7546771E-02  0.1237577E+00
         -2   -1    0    0    0  501 -0.00000000000E+00  0.00000000000E+00  0.28854260848E+02  0.28854260848E+02  0.00000000000E+00 0.  1.
          2   -1    0    0  501    0  0.00000000000E+00 -0.00000000000E+00 -0.61669441166E+03  0.61669441166E+03  0.00000000000E+00 0. -1.
         23    2    1    2    0    0  0.26110217484E+02  0.77236294691E+02 -0.17105480949E+03  0.21103385618E+03  0.92888922531E+02 0.  0.
         23    2    1    2    0    0 -0.26110217484E+02 -0.77236294691E+02 -0.41678534133E+03  0.43451481633E+03  0.91901665899E+02 0.  0.
          5    1    4    4  502    0 -0.52512797266E+02 -0.70483857886E+02 -0.24107252291E+03  0.25663908393E+03  0.47000000000E+01 0. -1.
         -5    1    3    3    0  503  0.26322378194E+02  0.42472190766E+02 -0.16929534375E+02  0.52966533928E+02  0.47000000000E+01 0.  1.
          5    1    3    3  503    0 -0.21216071035E+00  0.34764103925E+02 -0.15412527511E+03  0.15806732225E+03  0.47000000000E+01 0. -1.
         -5    1    4    4    0  502  0.26402579782E+02 -0.67524368052E+01 -0.17571281842E+03  0.17787573240E+03  0.47000000000E+01 0.  1.
<mgrwt>
<rscale>  0 0.12340878E+03</rscale>
<asrwt>0</asrwt>
<pdfrwt beam="1">  1        2 0.94876057E-01 0.12359426E+03</pdfrwt>
<pdfrwt beam="2">  1       -2 0.44391173E-02 0.12359426E+03</pdfrwt>
<totfact> 0.10867717E+04</totfact>
</mgrwt>
</event>
<event>
 8    1  0.2964543E-004  0.1011466E+03  0.7546771E-02  0.1279405E+00
          1   -1    0    0  501    0  0.00000000000E+00  0.00000000000E+00  0.12971153532E+02  0.12971153532E+02  0.00000000000E+00 0. -1.
         -1   -1    0    0    0  501 -0.00000000000E+00 -0.00000000000E+00 -0.77369070542E+03  0.77369070542E+03  0.00000000000E+00 0.  1.
         23    2    1    2    0    0  0.47430640537E+01  0.27704745645E+02 -0.42338827250E+03  0.43530250655E+03  0.97162715747E+02 0.  0.
         23    2    1    2    0    0 -0.47430640537E+01 -0.27704745645E+02 -0.33733127938E+03  0.35135935240E+03  0.94185736062E+02 0.  0.
          5    1    3    3  502    0  0.37026603648E+02 -0.19843501671E+02 -0.14666582874E+03  0.15263580595E+03  0.47000000000E+01 0. -1.
         -5    1    4    4    0  503  0.24169361119E+02  0.67233449103E+01 -0.24840258107E+02  0.35615864534E+02  0.47000000000E+01 0.  1.
          5    1    4    4  503    0 -0.28912425173E+02 -0.34428090556E+02 -0.31249102128E+03  0.31574348786E+03  0.47000000000E+01 0. -1.
         -5    1    3    3    0  502 -0.32283539594E+02  0.47548247317E+02 -0.27672244376E+03  0.28266670060E+03  0.47000000000E+01 0.  1.
<mgrwt>
<rscale>  0 0.10042489E+03</rscale>
<asrwt>0</asrwt>
<pdfrwt beam="1">  1        1 0.19955613E-02 0.10114664E+03</pdfrwt>
<pdfrwt beam="2">  1       -1 0.11902939E+00 0.10114664E+03</pdfrwt>
<totfact> 0.38405035E+03</totfact>
</mgrwt>
</event>
<event>
 8    1  0.2964543E-004  0.9379442E+02  0.7546771E-02  0.1294214E+00
         -2   -1    0    0    0  501 -0.00000000000E+00  0.00000000000E+00  0.13749200864E+02  0.13749200864E+02  0.00000000000E+00 0.  1.
          2   -1    0    0  501    0  0.00000000000E+00 -0.00000000000E+00 -0.10282162283E+04  0.10282162283E+04  0.00000000000E+00 0. -1.
         23    2    1    2    0    0 -0.13894445212E+02  0.15863205337E+02 -0.18646246904E+03  0.20872385162E+03  0.91393090454E+02 0.  0.
         23    2    1    2    0    0  0.13894445212E+02 -0.15863205337E+02 -0.82800455844E+03  0.83324157759E+03  0.90858576556E+02 0.  0.
          5    1    3    3  502    0 -0.35527523324E+01 -0.34561150560E+02 -0.11700254207E+03  0.12214245792E+03  0.47000000000E+01 0. -1.
         -5    1    3    3    0  502 -0.10341692879E+02  0.50424355897E+02 -0.69459926972E+02  0.86581393695E+02  0.47000000000E+01 0.  1.
          5    1    4    4  503    0  0.33304892221E+02 -0.45714428824E+02 -0.55199793727E+03  0.55490795417E+03  0.47000000000E+01 0. -1.
         -5    1    4    4    0  503 -0.19410447010E+02  0.29851223487E+02 -0.27600662118E+03  0.27833362343E+03  0.47000000000E+01 0.  1.
<mgrwt>
<rscale>  0 0.93663964E+02</rscale>
<asrwt>0</asrwt>
<pdfrwt beam="1">  1        2 0.15818711E+00 0.93794423E+02</pdfrwt>
<pdfrwt beam="2">  1       -2 0.21152617E-02 0.93794423E+02</pdfrwt>
<totfact> 0.16719800E+04</totfact>
</mgrwt>
</event>
<event>
 8    1  0.2964543E-004  0.9586455E+02  0.7546771E-02  0.1289963E+00
         -1   -1    0    0    0  501 -0.00000000000E+00  0.00000000000E+00  0.33875914206E+02  0.33875914206E+02  0.00000000000E+00 0.  1.
          1   -1    0    0  501    0  0.00000000000E+00 -0.00000000000E+00 -0.30003996757E+03  0.30003996757E+03  0.00000000000E+00 0. -1.
         23    2    1    2    0    0 -0.29803470155E+02  0.95116220068E+00 -0.18713514910E+03  0.20967587167E+03  0.89751075690E+02 0.  0.
         23    2    1    2    0    0  0.29803470155E+02 -0.95116220068E+00 -0.79028904259E+02  0.12424001011E+03  0.91109060250E+02 0.  0.
          5    1    4    4  502    0 -0.23742729083E+02  0.13869598954E+02 -0.46342806047E+00  0.27899600804E+02  0.47000000000E+01 0. -1.
         -5    1    4    4    0  502  0.53546199238E+02 -0.14820761155E+02 -0.78565476199E+02  0.96340409302E+02  0.47000000000E+01 0.  1.
          5    1    3    3  503    0  0.87349234546E+01 -0.23546038108E+02 -0.11282981370E+02  0.27930457693E+02  0.47000000000E+01 0.  1.
         -5    1    3    3    0  503 -0.38538393610E+02  0.24497200308E+02 -0.17585216773E+03  0.18174541398E+03  0.47000000000E+01 0. -1.
<mgrwt>
<rscale>  0 0.95540494E+02</rscale>
<asrwt>0</asrwt>
<pdfrwt beam="1">  1        1 0.46159994E-01 0.95864552E+02</pdfrwt>
<pdfrwt beam="2">  1       -1 0.52116792E-02 0.95864552E+02</pdfrwt>
<totfact> 0.13210975E+04</totfact>
</mgrwt>
</event>
<event>
 8    1  0.2964543E-004  0.1290081E+03  0.7546771E-02  0.1229969E+00
         -4   -1    0    0    0  501 -0.00000000000E+00  0.00000000000E+00  0.34482041676E+03  0.34482041676E+03  0.00000000000E+00 0.  1.
          4   -1    0    0  501    0  0.00000000000E+00 -0.00000000000E+00 -0.47274417781E+02  0.47274417781E+02  0.00000000000E+00 0. -1.
         23    2    1    2    0    0 -0.87923745193E+02 -0.49060198897E+01  0.15470270514E+03  0.20143491376E+03  0.94278542115E+02 0.  0.
         23    2    1    2    0    0  0.87923745193E+02  0.49060198897E+01  0.14284329384E+03  0.19065992078E+03  0.90511572731E+02 0.  0.
          5    1    3    3  502    0 -0.64975728096E+02  0.31035339894E+02  0.48635974269E+02  0.87020604209E+02  0.47000000000E+01 0. -1.
         -5    1    3    3    0  502 -0.22948017097E+02 -0.35941359784E+02  0.10606673087E+03  0.11441430955E+03  0.47000000000E+01 0.  1.
          5    1    4    4  503    0  0.28485449220E+02 -0.16224856335E+02 -0.14089777849E+01  0.33147277396E+02  0.47000000000E+01 0. -1.
         -5    1    4    4    0  503  0.59438295973E+02  0.21130876224E+02  0.14425227162E+03  0.15751264339E+03  0.47000000000E+01 0.  1.
<mgrwt>
<rscale>  0 0.12832098E+03</rscale>
<asrwt>0</asrwt>
<pdfrwt beam="1">  1        4 0.72729876E-02 0.12900813E+03</pdfrwt>
<pdfrwt beam="2">  1       -4 0.53049293E-01 0.12900813E+03</pdfrwt>
<totfact> 0.72765580E+02</totfact>
</mgrwt>
</event>
<event>
 8    1  0.2964543E-004  0.1151184E+03  0.7546771E-02  0.1253982E+00
          1   -1    0    0  501    0  0.00000000000E+00  0.00000000000E+00  0.27010414776E+03  0.27010414776E+03  0.00000000000E+00 0. -1.
         -1   -1    0    0    0  501 -0.00000000000E+00 -0.00000000000E+00 -0.13939061869E+03  0.13939061869E+03  0.00000000000E+00 0.  1.
         23    2    1    2    0    0  0.58968963212E+02 -0.17852528876E+01 -0.10222996044E+03  0.14965843532E+03  0.92011720446E+02 0.  0.
         23    2    1    2    0    0 -0.58968963212E+02  0.17852528876E+01  0.23294348950E+03  0.25983633114E+03  0.98852030462E+02 0.  0.
          5    1    3    3  502    0  0.25771105622E+02  0.24215229278E+02  0.33904552891E+01  0.35834514103E+02  0.47000000000E+01 0. -1.
         -5    1    3    3    0  502  0.33197857591E+02 -0.26000482165E+02 -0.10562041573E+03  0.11382392121E+03  0.47000000000E+01 0.  1.
          5    1    4    4  503    0 -0.51198065963E+02 -0.17996582144E+02  0.23171846491E+03  0.23803498883E+03  0.47000000000E+01 0. -1.
         -5    1    4    4    0  503 -0.77708972490E+01  0.19781835031E+02  0.12250245971E+01  0.21801342310E+02  0.47000000000E+01 0.  1.
<mgrwt>
<rscale>  0 0.11363563E+03</rscale>
<asrwt>0</asrwt>
<pdfrwt beam="1">  1        1 0.41554484E-01 0.11511842E+03</pdfrwt>
<pdfrwt beam="2">  1       -1 0.21444710E-01 0.11511842E+03</pdfrwt>
<totfact> 0.17545090E+03</totfact>
</mgrwt>
</event>
<event>
 7    1  0.2964543E-004  0.1740112E+03  0.7546771E-02  0.1197427E+00
          1   -1    0    0  501    0  0.00000000000E+00  0.00000000000E+00  0.52029401738E+02  0.52029401738E+02  0.00000000000E+00 0. -1.
         -1   -1    0    0    0  501 -0.00000000000E+00 -0.00000000000E+00 -0.37242474423E+03  0.37242474423E+03  0.00000000000E+00 0.  1.
         23    2    1    2    0    0 -0.56311165737E+01 -0.48000625942E+02 -0.14222039414E+03  0.17540353082E+03  0.90575871784E+02 0.  0.
          5    1    1    2  502    0  0.71961998220E+02 -0.10929848374E+02 -0.12716256782E+03  0.14659604165E+03  0.47000000000E+01 0. -1.
         -5    1    3    3    0  503 -0.14714347790E+02  0.22946537839E+02 -0.61597372364E+02  0.67523195362E+02  0.47000000000E+01 0.  1.
          5    1    3    3  503    0  0.90832312162E+01 -0.70947163781E+02 -0.80623021775E+02  0.10788033546E+03  0.47000000000E+01 0. -1.
         -5    1    1    2    0  502 -0.66330881646E+02  0.58930474316E+02 -0.51012380532E+02  0.10245457350E+03  0.47000000000E+01 0.  1.
<mgrwt>
<rscale>  0 0.15250593E+03</rscale>
<asrwt>0</asrwt>
<pdfrwt beam="1">  1        1 0.80045233E-02 0.17401120E+03</pdfrwt>
<pdfrwt beam="2">  1       -1 0.57296115E-01 0.17401120E+03</pdfrwt>
<totfact> 0.26990053E+03</totfact>
</mgrwt>
</event>
<event>
 8    1  0.2964543E-004  0.1283445E+03  0.7546771E-02  0.1230706E+00
         -2   -1    0    0    0  501 -0.00000000000E+00  0.00000000000E+00  0.15981896740E+03  0.15981896740E+03  0.00000000000E+00 0.  1.
          2   -1    0    0  501    0  0.00000000000E+00 -0.00000000000E+00 -0.21441842267E+03  0.21441842267E+03  0.00000000000E+00 0. -1.
         23    2    1    2    0    0  0.87904222417E+02 -0.22616755173E+01 -0.16301874482E+03  0.20622827302E+03  0.90679225490E+02 0.  0.
         23    2    1    2    0    0 -0.87904222417E+02  0.22616755173E+01  0.10841928955E+03  0.16800911705E+03  0.93488253651E+02 0.  0.
          5    1    4    4  502    0 -0.21519280091E+02  0.32830231295E+02  0.30012185117E+01  0.39648465482E+02  0.47000000000E+01 0. -1.
         -5    1    4    4    0  502 -0.66384942326E+02 -0.30568555778E+02  0.10541807103E+03  0.12836065157E+03  0.47000000000E+01 0.  1.
          5    1    3    3  503    0  0.65326128409E+02  0.39959032477E+02 -0.84417286637E+02  0.11407276455E+03  0.47000000000E+01 0. -1.
         -5    1    3    3    0  503  0.22578094008E+02 -0.42220707995E+02 -0.78601458181E+02  0.92155508467E+02  0.47000000000E+01 0.  1.
<mgrwt>
<rscale>  0 0.12783363E+03</rscale>
<asrwt>0</asrwt>
<pdfrwt beam="1">  1        2 0.32987450E-01 0.12834454E+03</pdfrwt>
<pdfrwt beam="2">  1       -2 0.24587534E-01 0.12834454E+03</pdfrwt>
<totfact> 0.22416840E+03</totfact>
</mgrwt>
</event>
<event>
 8    1  0.2964543E-004  0.1110504E+03  0.7546771E-02  0.1267028E+00
         -1   -1    0    0    0  501 -0.00000000000E+00  0.00000000000E+00  0.17781928689E+02  0.17781928689E+02  0.00000000000E+00 0.  1.
          1   -1    0    0  501    0  0.00000000000E+00 -0.00000000000E+00 -0.79605103402E+03  0.79605103402E+03  0.00000000000E+00 0. -1.
         23    2    1    2    0    0 -0.51524116365E+01  0.20064002390E+02 -0.20760276034E+03  0.23543810570E+03  0.10910125561E+03 0.  0.
         23    2    1    2    0    0  0.51524116365E+01 -0.20064002390E+02 -0.57066634499E+03  0.57839485701E+03  0.91931614667E+02 0.  0.
          5    1    4    4  502    0 -0.41665863850E+01 -0.56130413327E+02 -0.36142119106E+03  0.36580780622E+03  0.47000000000E+01 0. -1.
         -5    1    4    4    0  502  0.93189980215E+01  0.36066410937E+02 -0.20924515393E+03  0.21258705079E+03  0.47000000000E+01 0.  1.
          5    1    3    3  503    0 -0.24058282053E+02  0.46605029674E+02 -0.19183989590E+03  0.19893583233E+03  0.47000000000E+01 0. -1.
         -5    1    3    3    0  503  0.18905870416E+02 -0.26541027285E+02 -0.15762864439E+02  0.36502273365E+02  0.47000000000E+01 0.  1.
<mgrwt>
<rscale>  0 0.10658474E+03</rscale>
<asrwt>0</asrwt>
<pdfrwt beam="1">  1        1 0.12246937E+00 0.11105042E+03</pdfrwt>
<pdfrwt beam="2">  1       -1 0.27356817E-02 0.11105042E+03</pdfrwt>
<totfact> 0.95233325E+03</totfact>
</mgrwt>
</event>
<event>
 8    1  0.2964543E-004  0.9863808E+02  0.7546771E-02  0.1285608E+00
          1   -1    0    0  501    0  0.00000000000E+00  0.00000000000E+00  0.84690859765E+02  0.84690859765E+02  0.00000000000E+00 0. -1.
         -1   -1    0    0    0  501 -0.00000000000E+00 -0.00000000000E+00 -0.47362481697E+03  0.47362481697E+03  0.00000000000E+00 0.  1.
         23    2    1    2    0    0 -0.10320329856E+02 -0.50105325990E+02 -0.43808950399E+03  0.44810797446E+03  0.79128315818E+02 0.  0.
         23    2    1    2    0    0  0.10320329856E+02  0.50105325990E+02  0.49155546783E+02  0.11020770228E+03  0.84335146656E+02 0.  0.
          5    1    4    4  502    0  0.42414952396E+02  0.30796136665E+02  0.49798844393E+02  0.72453054616E+02  0.47000000000E+01 0. -1.
         -5    1    3    3    0  503 -0.31103372275E+02 -0.53990189592E+02 -0.39467280536E+03  0.39958863051E+03  0.47000000000E+01 0.  1.
          5    1    3    3  503    0  0.20783042419E+02  0.38848636017E+01 -0.43416698627E+02  0.48519343947E+02  0.47000000000E+01 0. -1.
         -5    1    4    4    0  502 -0.32094622541E+02  0.19309189325E+02 -0.64329760996E+00  0.37754647664E+02  0.47000000000E+01 0.  1.
<mgrwt>
<rscale>  0 0.97515788E+02</rscale>
<asrwt>0</asrwt>
<pdfrwt beam="1">  1        1 0.13029363E-01 0.98638075E+02</pdfrwt>
<pdfrwt beam="2">  1       -1 0.72865356E-01 0.98638075E+02</pdfrwt>
<totfact> 0.87221971E+02</totfact>
</mgrwt>
</event>
<event>
 8    1  0.2964543E-004  0.9802193E+02  0.7546771E-02  0.1287719E+00
         -2   -1    0    0    0  501 -0.00000000000E+00  0.00000000000E+00  0.83797062396E+02  0.83797062396E+02  0.00000000000E+00 0.  1.
          2   -1    0    0  501    0  0.00000000000E+00 -0.00000000000E+00 -0.36228402562E+03  0.36228402562E+03  0.00000000000E+00 0. -1.
         23    2    1    2    0    0 -0.72017122894E+01  0.13823957561E+02  0.48833778041E+02  0.10439824268E+03  0.90946625740E+02 0.  0.
         23    2    1    2    0    0  0.72017122894E+01 -0.13823957561E+02 -0.32732074126E+03  0.34168284534E+03  0.96774648926E+02 0.  0.
          5    1    4    4  502    0  0.31974721737E+02  0.25023441172E+02 -0.77626110751E+02  0.87729462033E+02  0.47000000000E+01 0. -1.
         -5    1    4    4    0  502 -0.24773009448E+02 -0.38847398734E+02 -0.24969463051E+03  0.25395338330E+03  0.47000000000E+01 0.  1.
          5    1    3    3  503    0  0.28079102085E+02  0.37968655274E+02  0.35837852026E+02  0.59468448735E+02  0.47000000000E+01 0. -1.
         -5    1    3    3    0  503 -0.35280814374E+02 -0.24144697712E+02  0.12995926015E+02  0.44929793940E+02  0.47000000000E+01 0.  1.
<mgrwt>
<rscale>  0 0.96551889E+02</rscale>
<asrwt>0</asrwt>
<pdfrwt beam="1">  1        2 0.55736003E-01 0.98021932E+02</pdfrwt>
<pdfrwt beam="2">  1       -2 0.12891856E-01 0.98021932E+02</pdfrwt>
<totfact> 0.37161201E+03</totfact>
</mgrwt>
</event>
<event>
 8    1  0.2964543E-004  0.9274490E+02  0.7546771E-02  0.1297100E+00
         -1   -1    0    0    0  501 -0.00000000000E+00  0.00000000000E+00  0.80901342767E+02  0.80901342767E+02  0.00000000000E+00 0.  1.
          1   -1    0    0  501    0  0.00000000000E+00 -0.00000000000E+00 -0.12199557825E+03  0.12199557825E+03  0.00000000000E+00 0. -1.
         23    2    1    2    0    0  0.33687543530E+01  0.10429474270E+02  0.17625803511E+02  0.93125983964E+02  0.90783575059E+02 0.  0.
         23    2    1    2    0    0 -0.33687543530E+01 -0.10429474270E+02 -0.58720038996E+02  0.10977093706E+03  0.92095022682E+02 0.  0.
          5    1    3    3  502    0  0.21191605828E+01 -0.27388802606E+02 -0.23925655637E+02  0.36730972591E+02  0.47000000000E+01 0. -1.
         -5    1    3    3    0  502  0.12495937702E+01  0.37818276877E+02  0.41551459148E+02  0.56395011374E+02  0.47000000000E+01 0.  1.
          5    1    4    4  503    0  0.20984793640E+02 -0.40084642783E+02 -0.54335156313E+02  0.70862820736E+02  0.47000000000E+01 0. -1.
         -5    1    4    4    0  503 -0.24353547993E+02  0.29655168513E+02 -0.43848826832E+01  0.38908116319E+02  0.47000000000E+01 0.  1.
<mgrwt>
<rscale>  0 0.92417636E+02</rscale>
<asrwt>0</asrwt>
<pdfrwt beam="1">  1        1 0.18768550E-01 0.92744896E+02</pdfrwt>
<pdfrwt beam="2">  1       -1 0.12446360E-01 0.92744896E+02</pdfrwt>
<totfact> 0.10878019E+04</totfact>
</mgrwt>
</event>
<event>
 8    1  0.2964543E-004  0.1097851E+03  0.7546771E-02  0.1265718E+00
          1   -1    0    0  501    0  0.00000000000E+00  0.00000000000E+00  0.38077487544E+03  0.38077487544E+03  0.00000000000E+00 0. -1.
         -1   -1    0    0    0  501 -0.00000000000E+00 -0.00000000000E+00 -0.35921755998E+02  0.35921755998E+02  0.00000000000E+00 0.  1.
         23    2    1    2    0    0  0.34134554126E+02  0.23342764605E+02  0.25796663372E+03  0.27668938236E+03  0.91105311311E+02 0.  0.
         23    2    1    2    0    0 -0.34134554126E+02 -0.23342764605E+02  0.86886485712E+02  0.14000724908E+03  0.10169914429E+03 0.  0.
          5    1    3    3  502    0  0.59985232693E+02  0.69432229072E+01  0.21722791730E+03  0.22551384556E+03  0.47000000000E+01 0. -1.
         -5    1    4    4    0  503 -0.66128985085E+02 -0.30631780285E+02  0.42128657938E+02  0.84310512106E+02  0.47000000000E+01 0.  1.
          5    1    4    4  503    0  0.31994430960E+02  0.72890156800E+01  0.44757827775E+02  0.55696736970E+02  0.47000000000E+01 0. -1.
         -5    1    3    3    0  502 -0.25850678568E+02  0.16399541698E+02  0.40738716424E+02  0.51175536794E+02  0.47000000000E+01 0.  1.
<mgrwt>
<rscale>  0 0.10726624E+03</rscale>
<asrwt>0</asrwt>
<pdfrwt beam="1">  1        1 0.58580747E-01 0.10978510E+03</pdfrwt>
<pdfrwt beam="2">  1       -1 0.55264243E-02 0.10978510E+03</pdfrwt>
<totfact> 0.91375924E+03</totfact>
</mgrwt>
</event>
<event>
 8    1  0.2964543E-004  0.1332040E+03  0.7546771E-02  0.1222884E+00
          2   -1    0    0  501    0  0.00000000000E+00  0.00000000000E+00  0.36029934760E+03  0.36029934760E+03  0.00000000000E+00 0. -1.
         -2   -1    0    0    0  501 -0.00000000000E+00 -0.00000000000E+00 -0.49723635797E+02  0.49723635797E+02  0.00000000000E+00 0.  1.
         23    2    1    2    0    0  0.96225570957E+02  0.99160154904E+01  0.17773615870E+03  0.22211136222E+03  0.91573070559E+02 0.  0.
         23    2    1    2    0    0 -0.96225570957E+02 -0.99160154904E+01  0.13283955311E+03  0.18791162117E+03  0.91141333286E+02 0.  0.
          5    1    4    4  502    0 -0.46190236609E+02  0.65247340018E+01  0.12619031072E+03  0.13461870090E+03  0.47000000000E+01 0. -1.
         -5    1    4    4    0  502 -0.50035334347E+02 -0.16440749492E+02  0.66492423866E+01  0.53292920275E+02  0.47000000000E+01 0.  1.
          5    1    3    3  503    0  0.39818961307E+02  0.49128185842E+02  0.72149308847E+02  0.96055926891E+02  0.47000000000E+01 0. -1.
         -5    1    3    3    0  503  0.56406609649E+02 -0.39212170352E+02  0.10558684985E+03  0.12605543533E+03  0.47000000000E+01 0.  1.
<mgrwt>
<rscale>  0 0.13312987E+03</rscale>
<asrwt>0</asrwt>
<pdfrwt beam="1">  1        2 0.55430667E-01 0.13320404E+03</pdfrwt>
<pdfrwt beam="2">  1       -2 0.76497903E-02 0.13320404E+03</pdfrwt>
<totfact> 0.86227167E+03</totfact>
</mgrwt>
</event>
<event>
 8    1  0.2964543E-004  0.1254457E+03  0.7546771E-02  0.1234622E+00
          2   -1    0    0  501    0  0.00000000000E+00  0.00000000000E+00  0.20080194837E+03  0.20080194837E+03  0.00000000000E+00 0. -1.
         -2   -1    0    0    0  501 -0.00000000000E+00 -0.00000000000E+00 -0.96224823696E+02  0.96224823696E+02  0.00000000000E+00 0.  1.
         23    2    1    2    0    0  0.59906904432E+02  0.63767444809E+02 -0.12283929878E+02  0.12604565107E+03  0.89897091186E+02 0.  0.
         23    2    1    2    0    0 -0.59906904432E+02 -0.63767444809E+02  0.11686105455E+03  0.17098112100E+03  0.89010749075E+02 0.  0.
          5    1    3    3  502    0  0.39363356158E+02 -0.95250001792E+01  0.17242336221E+02  0.44267229355E+02  0.47000000000E+01 0. -1.
         -5    1    4    4    0  503 -0.13320110797E+02 -0.47679545735E+02  0.66633001111E+01  0.50172243338E+02  0.47000000000E+01 0.  1.
          5    1    4    4  503    0 -0.46586793635E+02 -0.16087899074E+02  0.11019775444E+03  0.12080887766E+03  0.47000000000E+01 0. -1.
         -5    1    3    3    0  502  0.20543548274E+02  0.73292444988E+02 -0.29526266099E+02  0.81778421713E+02  0.47000000000E+01 0.  1.
<mgrwt>
<rscale>  0 0.12528694E+03</rscale>
<asrwt>0</asrwt>
<pdfrwt beam="1">  1        2 0.30892607E-01 0.12544565E+03</pdfrwt>
<pdfrwt beam="2">  1       -2 0.14803819E-01 0.12544565E+03</pdfrwt>
<totfact> 0.56361774E+03</totfact>
</mgrwt>
</event>
<event>
 8    1  0.2964543E-004  0.1239653E+03  0.7546771E-02  0.1239140E+00
         -2   -1    0    0    0  501 -0.00000000000E+00  0.00000000000E+00  0.55409018905E+02  0.55409018905E+02  0.00000000000E+00 0.  1.
          2   -1    0    0  501    0  0.00000000000E+00 -0.00000000000E+00 -0.33012637936E+03  0.33012637936E+03  0.00000000000E+00 0. -1.
         23    2    1    2    0    0 -0.63942644507E+02 -0.40473768823E+02 -0.53860252670E+02  0.13516040087E+03  0.98186655892E+02 0.  0.
         23    2    1    2    0    0  0.63942644507E+02  0.40473768823E+02 -0.22085710778E+03  0.25037499740E+03  0.90459877926E+02 0.  0.
          5    1    4    4  502    0  0.73386304764E+02  0.60536636293E+02 -0.18036471608E+03  0.20396998521E+03  0.47000000000E+01 0. -1.
         -5    1    4    4    0  502 -0.94436602564E+01 -0.20062867471E+02 -0.40492391701E+02  0.46405012185E+02  0.47000000000E+01 0.  1.
          5    1    3    3  503    0 -0.90269204997E+02 -0.32546684997E+02 -0.41744731878E+02  0.10474983873E+03  0.47000000000E+01 0.  1.
         -5    1    3    3    0  503  0.26326560489E+02 -0.79270838251E+01 -0.12115520791E+02  0.30410562133E+02  0.47000000000E+01 0. -1.
<mgrwt>
<rscale>  0 0.12243068E+03</rscale>
<asrwt>0</asrwt>
<pdfrwt beam="1">  1        2 0.50788674E-01 0.12396535E+03</pdfrwt>
<pdfrwt beam="2">  1       -2 0.85244644E-02 0.12396535E+03</pdfrwt>
<totfact> 0.79640527E+03</totfact>
</mgrwt>
</event>
<event>
 8    1  0.2964543E-004  0.1002438E+03  0.7546771E-02  0.1280245E+00
          1   -1    0    0  501    0  0.00000000000E+00  0.00000000000E+00  0.42541300290E+03  0.42541300290E+03  0.00000000000E+00 0. -1.
         -1   -1    0    0    0  501 -0.00000000000E+00 -0.00000000000E+00 -0.29504493643E+02  0.29504493643E+02  0.00000000000E+00 0.  1.
         23    2    1    2    0    0 -0.27147354183E+02 -0.31056270167E+02  0.93933549158E+02  0.13673876409E+03  0.90401920285E+02 0.  0.
         23    2    1    2    0    0  0.27147354183E+02  0.31056270167E+02  0.30197496010E+03  0.31817873245E+03  0.91363879647E+02 0.  0.
          5    1    3    3  502    0 -0.41133759073E+02 -0.18102625262E+01  0.95334026408E+02  0.10395157419E+03  0.47000000000E+01 0. -1.
         -5    1    3    3    0  502  0.13986404891E+02 -0.29246007641E+02 -0.14004772504E+01  0.32787189896E+02  0.47000000000E+01 0.  1.
          5    1    4    4  503    0  0.33503909269E+02  0.56231046139E+02  0.14713193292E+03  0.16110350143E+03  0.47000000000E+01 0. -1.
         -5    1    4    4    0  503 -0.63565550862E+01 -0.25174775971E+02  0.15484302717E+03  0.15707523103E+03  0.47000000000E+01 0.  1.
<mgrwt>
<rscale>  0 0.10002414E+03</rscale>
<asrwt>0</asrwt>
<pdfrwt beam="1">  1        1 0.65448150E-01 0.10024385E+03</pdfrwt>
<pdfrwt beam="2">  1       -1 0.45391532E-02 0.10024385E+03</pdfrwt>
<totfact> 0.10545213E+04</totfact>
</mgrwt>
</event>
<event>
 8    1  0.2964543E-004  0.1032701E+03  0.7546771E-02  0.1277665E+00
          3   -1    0    0  501    0  0.00000000000E+00  0.00000000000E+00  0.10231927606E+04  0.10231927606E+04  0.00000000000E+00 0. -1.
         -3   -1    0    0    0  501 -0.00000000000E+00 -0.00000000000E+00 -0.99879028140E+01  0.99879028140E+01  0.00000000000E+00 0.  1.
         23    2    1    2    0    0 -0.32769860560E+02  0.10917991031E+02  0.58227290081E+03  0.59004742062E+03  0.89000906032E+02 0.  0.
         23    2    1    2    0    0  0.32769860560E+02 -0.10917991031E+02  0.43093195696E+03  0.44313324277E+03  0.97322417948E+02 0.  0.
          5    1    3    3  502    0 -0.40452921995E+02 -0.30507970002E+02  0.37901485968E+03  0.38241538801E+03  0.47000000000E+01 0. -1.
         -5    1    4    4    0  503  0.22916879179E+02 -0.49010506514E+02  0.33445647435E+03  0.33883688751E+03  0.47000000000E+01 0.  1.
          5    1    4    4  503    0  0.98529813803E+01  0.38092515483E+02  0.96475482607E+02  0.10429635527E+03  0.47000000000E+01 0. -1.
         -5    1    3    3    0  502  0.76830614357E+01  0.41425961033E+02  0.20325804113E+03  0.20763203260E+03  0.47000000000E+01 0.  1.
<mgrwt>
<rscale>  0 0.10126189E+03</rscale>
<asrwt>0</asrwt>
<pdfrwt beam="1">  1        3 0.15741419E+00 0.10327013E+03</pdfrwt>
<pdfrwt beam="2">  1       -3 0.15366012E-02 0.10327013E+03</pdfrwt>
<totfact> 0.96122551E+02</totfact>
</mgrwt>
</event>
<event>
 8    1  0.2964543E-004  0.1032880E+03  0.7546771E-02  0.1276644E+00
         -1   -1    0    0    0  501 -0.00000000000E+00  0.00000000000E+00  0.14228480264E+03  0.14228480264E+03  0.00000000000E+00 0.  1.
          1   -1    0    0  501    0  0.00000000000E+00 -0.00000000000E+00 -0.73156920628E+02  0.73156920628E+02  0.00000000000E+00 0. -1.
         23    2    1    2    0    0 -0.35087824401E+02  0.18088628671E+02  0.55314666059E+02  0.11716706144E+03  0.95446603384E+02 0.  0.
         23    2    1    2    0    0  0.35087824401E+02 -0.18088628671E+02  0.13813215949E+02  0.98274661822E+02  0.88931154906E+02 0.  0.
          5    1    4    4  502    0 -0.88820810144E+01 -0.29318496197E+02 -0.23854817875E+02  0.39110202228E+02  0.47000000000E+01 0. -1.
         -5    1    4    4    0  502  0.43969905415E+02  0.11229867526E+02  0.37668033824E+02  0.59164459594E+02  0.47000000000E+01 0.  1.
          5    1    3    3  503    0 -0.51832377485E+02 -0.24188661979E+02  0.34230453691E+02  0.66824401860E+02  0.47000000000E+01 0. -1.
         -5    1    3    3    0  503  0.16744553084E+02  0.42277290650E+02  0.21084212368E+02  0.50342659583E+02  0.47000000000E+01 0.  1.
<mgrwt>
<rscale>  0 0.10175705E+03</rscale>
<asrwt>0</asrwt>
<pdfrwt beam="1">  1        1 0.11254911E-01 0.10328799E+03</pdfrwt>
<pdfrwt beam="2">  1       -1 0.21889970E-01 0.10328799E+03</pdfrwt>
<totfact> 0.87465257E+03</totfact>
</mgrwt>
</event>
<event>
 8    1  0.2964543E-004  0.9519432E+02  0.7546771E-02  0.1291243E+00
          1   -1    0    0  501    0  0.00000000000E+00  0.00000000000E+00  0.77343655870E+03  0.77343655870E+03  0.00000000000E+00 0. -1.
         -1   -1    0    0    0  501 -0.00000000000E+00 -0.00000000000E+00 -0.11630901293E+02  0.11630901293E+02  0.00000000000E+00 0.  1.
         23    2    1    2    0    0 -0.12235498275E+02 -0.14744963629E+01  0.40058320950E+03  0.41173883369E+03  0.94393208851E+02 0.  0.
         23    2    1    2    0    0  0.12235498275E+02  0.14744963629E+01  0.36122244791E+03  0.37332862630E+03  0.93491843429E+02 0.  0.
          5    1    4    4  502    0 -0.38580600596E+02  0.13828519643E+02  0.13935724447E+03  0.14533486259E+03  0.47000000000E+01 0. -1.
         -5    1    3    3    0  503 -0.37824805420E+02  0.13178766082E+02  0.35476155124E+03  0.35704655721E+03  0.47000000000E+01 0. -1.
          5    1    3    3  503    0  0.25589307144E+02 -0.14653262445E+02  0.45821658264E+02  0.54692276479E+02  0.47000000000E+01 0.  1.
         -5    1    4    4    0  502  0.50816098871E+02 -0.12354023280E+02  0.22186520344E+03  0.22799376371E+03  0.47000000000E+01 0.  1.
<mgrwt>
<rscale>  0 0.94970107E+02</rscale>
<asrwt>0</asrwt>
<pdfrwt beam="1">  1        1 0.11899020E+00 0.95194325E+02</pdfrwt>
<pdfrwt beam="2">  1       -1 0.17893700E-02 0.95194325E+02</pdfrwt>
<totfact> 0.18056652E+04</totfact>
</mgrwt>
</event>
<event>
 8    1  0.2964543E-004  0.1918111E+03  0.7546771E-02  0.1157156E+00
         -3   -1    0    0    0  501 -0.00000000000E+00  0.00000000000E+00  0.39310179952E+03  0.39310179952E+03  0.00000000000E+00 0.  1.
          3   -1    0    0  501    0  0.00000000000E+00 -0.00000000000E+00 -0.14601800136E+03  0.14601800136E+03  0.00000000000E+00 0. -1.
         23    2    1    2    0    0 -0.71134698228E+02  0.15274662933E+03 -0.39332627301E+02  0.19440850929E+03  0.88633711700E+02 0.  0.
         23    2    1    2    0    0  0.71134698228E+02 -0.15274662933E+03  0.28641642546E+03  0.34471129158E+03  0.91650573955E+02 0.  0.
          5    1    3    3  502    0 -0.66779230105E+02  0.11767907965E+03 -0.65292380508E+02  0.15030973459E+03  0.47000000000E+01 0. -1.
         -5    1    3    3    0  502 -0.43554681231E+01  0.35067549682E+02  0.25959753208E+02  0.44098774698E+02  0.47000000000E+01 0.  1.
          5    1    4    4  503    0 -0.18233682018E+02 -0.54792028947E+02  0.70067264040E+02  0.90918342957E+02  0.47000000000E+01 0. -1.
         -5    1    4    4    0  503  0.89368380246E+02 -0.97954600387E+02  0.21634916142E+03  0.25379294863E+03  0.47000000000E+01 0.  1.
<mgrwt>
<rscale>  0 0.19145436E+03</rscale>
<asrwt>0</asrwt>
<pdfrwt beam="1">  1        3 0.22464308E-01 0.19181112E+03</pdfrwt>
<pdfrwt beam="2">  1       -3 0.60477200E-01 0.19181112E+03</pdfrwt>
<totfact> 0.12010315E+02</totfact>
</mgrwt>
</event>
<event>
 8    1  0.2964543E-004  0.9597010E+02  0.7546771E-02  0.1290436E+00
          2   -1    0    0  501    0  0.00000000000E+00  0.00000000000E+00  0.24026602256E+03  0.24026602256E+03  0.00000000000E+00 0. -1.
         -2   -1    0    0    0  501 -0.00000000000E+00 -0.00000000000E+00 -0.45535847799E+02  0.45535847799E+02  0.00000000000E+00 0.  1.
         23    2    1    2    0    0  0.67838296324E+01 -0.29445667879E+02  0.15910477022E+03  0.18580793354E+03  0.91088926654E+02 0.  0.
         23    2    1    2    0    0 -0.67838296324E+01  0.29445667879E+02  0.35625404541E+02  0.99993936818E+02  0.88411256356E+02 0.  0.
          5    1    3    3  502    0 -0.29259181479E+02 -0.46999243990E+02  0.89383594793E+02  0.10524516927E+03  0.47000000000E+01 0. -1.
         -5    1    4    4    0  503  0.30074198633E+02 -0.16077828995E+02  0.16683961332E+02  0.38254392876E+02  0.47000000000E+01 0. -1.
          5    1    4    4  503    0 -0.36858028266E+02  0.45523496874E+02  0.18941443209E+02  0.61739543942E+02  0.47000000000E+01 0.  1.
         -5    1    3    3    0  502  0.36043011112E+02  0.17553576111E+02  0.69721175430E+02  0.80562764275E+02  0.47000000000E+01 0.  1.
<mgrwt>
<rscale>  0 0.95329292E+02</rscale>
<asrwt>0</asrwt>
<pdfrwt beam="1">  1        2 0.36964003E-01 0.95970101E+02</pdfrwt>
<pdfrwt beam="2">  1       -2 0.70055152E-02 0.95970101E+02</pdfrwt>
<totfact> 0.14717927E+04</totfact>
</mgrwt>
</event>
<event>
 8    1  0.2964543E-004  0.1201752E+03  0.7546771E-02  0.1251641E+00
         -2   -1    0    0    0  501 -0.00000000000E+00  0.00000000000E+00  0.99218534085E+02  0.99218534085E+02  0.00000000000E+00 0.  1.
          2   -1    0    0  501    0  0.00000000000E+00 -0.00000000000E+00 -0.16956259950E+03  0.16956259950E+03  0.00000000000E+00 0. -1.
         23    2    1    2    0    0 -0.41504605859E+02  0.12675995985E+02  0.37400890425E+02  0.10737776862E+03  0.90817649213E+02 0.  0.
         23    2    1    2    0    0  0.41504605859E+02 -0.12675995985E+02 -0.10774495584E+03  0.16140336496E+03  0.11206586246E+03 0.  0.
          5    1    4    4  502    0  0.36189381019E+02 -0.39551644821E+02 -0.11962658909E+03  0.13117398646E+03  0.47000000000E+01 0. -1.
         -5    1    4    4    0  502  0.53152248396E+01  0.26875648836E+02  0.11881633254E+02  0.30229378496E+02  0.47000000000E+01 0.  1.
          5    1    3    3  503    0  0.24627281906E+02 -0.26077362151E+01 -0.69669266506E+01  0.26152081546E+02  0.47000000000E+01 0. -1.
         -5    1    3    3    0  503 -0.66131887765E+02  0.15283732200E+02  0.44367817075E+02  0.81225687078E+02  0.47000000000E+01 0.  1.
<mgrwt>
<rscale>  0 0.11496574E+03</rscale>
<asrwt>0</asrwt>
<pdfrwt beam="1">  1        2 0.26086553E-01 0.12017517E+03</pdfrwt>
<pdfrwt beam="2">  1       -2 0.15264390E-01 0.12017517E+03</pdfrwt>
<totfact> 0.64226752E+03</totfact>
</mgrwt>
</event>
<event>
 8    1  0.2964543E-004  0.9400369E+02  0.7546771E-02  0.1293729E+00
          1   -1    0    0  501    0  0.00000000000E+00  0.00000000000E+00  0.58054245172E+02  0.58054245172E+02  0.00000000000E+00 0. -1.
         -1   -1    0    0    0  501 -0.00000000000E+00 -0.00000000000E+00 -0.28555893527E+03  0.28555893527E+03  0.00000000000E+00 0.  1.
         23    2    1    2    0    0 -0.18712713718E+02 -0.44871041328E+01  0.38495933621E+01  0.94082479097E+02  0.92013008568E+02 0.  0.
         23    2    1    2    0    0  0.18712713718E+02  0.44871041328E+01 -0.23135428346E+03  0.24953070134E+03  0.91490254564E+02 0.  0.
          5    1    3    3  502    0  0.30137142797E+02  0.12206974713E+02 -0.18419184892E+02  0.37664492293E+02  0.47000000000E+01 0. -1.
         -5    1    3    3    0  502 -0.48849856515E+02 -0.16694078846E+02  0.22268778254E+02  0.56417986804E+02  0.47000000000E+01 0.  1.
          5    1    4    4  503    0  0.15218078597E+02  0.26565093517E+02 -0.19832596904E+02  0.36779287781E+02  0.47000000000E+01 0. -1.
         -5    1    4    4    0  503  0.34946351220E+01 -0.22077989384E+02 -0.21152168656E+03  0.21275141356E+03  0.47000000000E+01 0.  1.
<mgrwt>
<rscale>  0 0.93875521E+02</rscale>
<asrwt>0</asrwt>
<pdfrwt beam="1">  1        1 0.89314225E-02 0.94003689E+02</pdfrwt>
<pdfrwt beam="2">  1       -1 0.43932143E-01 0.94003689E+02</pdfrwt>
<totfact> 0.36564050E+03</totfact>
</mgrwt>
</event>
<event>
 8    1  0.2964543E-004  0.1079876E+03  0.7546771E-02  0.1267521E+00
          1   -1    0    0  501    0  0.00000000000E+00  0.00000000000E+00  0.64542134183E+02  0.64542134183E+02  0.00000000000E+00 0. -1.
         -1   -1    0    0    0  501 -0.00000000000E+00 -0.00000000000E+00 -0.28482113342E+03  0.28482113342E+03  0.00000000000E+00 0.  1.
         23    2    1    2    0    0  0.85136949046E+01  0.50343698576E+02 -0.22305179989E+03  0.24781733746E+03  0.95154381529E+02 0.  0.
         23    2    1    2    0    0 -0.85136949046E+01 -0.50343698576E+02  0.27728006532E+01  0.10154593014E+03  0.87732072345E+02 0.  0.
          5    1    3    3  502    0  0.72670204960E+01 -0.19925537079E+02 -0.12622530036E+03  0.12808104101E+03  0.47000000000E+01 0. -1.
         -5    1    3    3    0  502  0.12466744086E+01  0.70269235655E+02 -0.96826499526E+02  0.11973629645E+03  0.47000000000E+01 0.  1.
          5    1    4    4  503    0  0.21751285558E+02 -0.62263090522E+02  0.12456850501E+02  0.67283534310E+02  0.47000000000E+01 0. -1.
         -5    1    4    4    0  503 -0.30264980463E+02  0.11919391946E+02 -0.96840498474E+01  0.34262395833E+02  0.47000000000E+01 0.  1.
<mgrwt>
<rscale>  0 0.10632996E+03</rscale>
<asrwt>0</asrwt>
<pdfrwt beam="1">  1        1 0.99295591E-02 0.10798763E+03</pdfrwt>
<pdfrwt beam="2">  1       -1 0.43818636E-01 0.10798763E+03</pdfrwt>
<totfact> 0.32229861E+03</totfact>
</mgrwt>
</event>
<event>
 8    1  0.2964543E-004  0.1808086E+03  0.7546771E-02  0.1167182E+00
          2   -1    0    0  501    0  0.00000000000E+00  0.00000000000E+00  0.10767832550E+04  0.10767832550E+04  0.00000000000E+00 0. -1.
         -2   -1    0    0    0  501 -0.00000000000E+00 -0.00000000000E+00 -0.77523335741E+02  0.77523335741E+02  0.00000000000E+00 0.  1.
         23    2    1    2    0    0  0.36037702218E+02 -0.15327874104E+03  0.49290724868E+02  0.18740687806E+03  0.88874484253E+02 0.  0.
         23    2    1    2    0    0 -0.36037702218E+02  0.15327874104E+03  0.94996919442E+03  0.96689971271E+03  0.87524257482E+02 0.  0.
          5    1    3    3  502    0  0.34261267248E+02 -0.43431309967E+02  0.53858892644E+02  0.77349747484E+02  0.47000000000E+01 0. -1.
         -5    1    4    4    0  503 -0.58935600101E+02  0.13695231592E+03  0.72954244426E+03  0.74463656220E+03  0.47000000000E+01 0.  1.
          5    1    4    4  503    0  0.22897897883E+02  0.16326425121E+02  0.22042675016E+03  0.22226315050E+03  0.47000000000E+01 0. -1.
         -5    1    3    3    0  502  0.17764349693E+01 -0.10984743107E+03 -0.45681677756E+01  0.11005713058E+03  0.47000000000E+01 0.  1.
<mgrwt>
<rscale>  0 0.18064345E+03</rscale>
<asrwt>0</asrwt>
<pdfrwt beam="1">  1        2 0.16565895E+00 0.18080863E+03</pdfrwt>
<pdfrwt beam="2">  1       -2 0.11926668E-01 0.18080863E+03</pdfrwt>
<totfact> 0.11818380E+03</totfact>
</mgrwt>
</event>
<event>
 8    1  0.2964543E-004  0.1040846E+03  0.7546771E-02  0.1273016E+00
          2   -1    0    0  501    0  0.00000000000E+00  0.00000000000E+00  0.42929095496E+02  0.42929095496E+02  0.00000000000E+00 0. -1.
         -2   -1    0    0    0  501 -0.00000000000E+00 -0.00000000000E+00 -0.30543144675E+03  0.30543144675E+03  0.00000000000E+00 0.  1.
         23    2    1    2    0    0 -0.50424876001E+02 -0.49675540162E+01 -0.54081070939E+02  0.11539479763E+03  0.88452543056E+02 0.  0.
         23    2    1    2    0    0  0.50424876001E+02  0.49675540162E+01 -0.20842128031E+03  0.23296574462E+03  0.90918993421E+02 0.  0.
          5    1    4    4  502    0  0.57060258066E+02 -0.31610303532E+02 -0.14893416740E+03  0.16266087594E+03  0.47000000000E+01 0. -1.
         -5    1    4    4    0  502 -0.66353820650E+01  0.36577857548E+02 -0.59487112909E+02  0.70304868680E+02  0.47000000000E+01 0.  1.
          5    1    3    3  503    0 -0.71976250543E+02  0.11665310509E+02 -0.46992468035E+02  0.86873713881E+02  0.47000000000E+01 0. -1.
         -5    1    3    3    0  503  0.21551374542E+02 -0.16632864525E+02 -0.70886029036E+01  0.28521083747E+02  0.47000000000E+01 0.  1.
<mgrwt>
<rscale>  0 0.10354357E+03</rscale>
<asrwt>0</asrwt>
<pdfrwt beam="1">  1        2 0.66044762E-02 0.10408462E+03</pdfrwt>
<pdfrwt beam="2">  1       -2 0.46989453E-01 0.10408462E+03</pdfrwt>
<totfact> 0.44151558E+03</totfact>
</mgrwt>
</event>
<event>
 8    1  0.2964543E-004  0.9653100E+02  0.7546771E-02  0.1288175E+00
          2   -1    0    0  501    0  0.00000000000E+00  0.00000000000E+00  0.39645689615E+03  0.39645689615E+03  0.00000000000E+00 0.  1.
         -2   -1    0    0    0  501 -0.00000000000E+00 -0.00000000000E+00 -0.28917449342E+02  0.28917449342E+02  0.00000000000E+00 0. -1.
         23    2    1    2    0    0  0.54814380387E+01  0.28817808444E+02  0.90796894880E+02  0.13252286323E+03  0.91965868190E+02 0.  0.
         23    2    1    2    0    0 -0.54814380387E+01 -0.28817808444E+02  0.27674255193E+03  0.29285148226E+03  0.91186832216E+02 0.  0.
          5    1    3    3  502    0 -0.96776667124E+01 -0.20320308469E+02 -0.51505940069E+01  0.23562486878E+02  0.47000000000E+01 0. -1.
         -5    1    3    3    0  502  0.15159104751E+02  0.49138116913E+02  0.95947488887E+02  0.10896037635E+03  0.47000000000E+01 0.  1.
          5    1    4    4  503    0 -0.10059510989E+02  0.30873901864E+02  0.13466644758E+03  0.13860567695E+03  0.47000000000E+01 0. -1.
         -5    1    4    4    0  503  0.45780729503E+01 -0.59691710308E+02  0.14207610434E+03  0.15424580531E+03  0.47000000000E+01 0.  1.
<mgrwt>
<rscale>  0 0.96344984E+02</rscale>
<asrwt>0</asrwt>
<pdfrwt beam="1">  1        2 0.60993364E-01 0.96530996E+02</pdfrwt>
<pdfrwt beam="2">  1       -2 0.44488387E-02 0.96530996E+02</pdfrwt>
<totfact> 0.17179978E+04</totfact>
</mgrwt>
</event>
<event>
 8    1  0.2964543E-004  0.9657257E+02  0.7546771E-02  0.1290086E+00
         -2   -1    0    0    0  501 -0.00000000000E+00  0.00000000000E+00  0.25147848884E+02  0.25147848884E+02  0.00000000000E+00 0.  1.
          2   -1    0    0  501    0  0.00000000000E+00 -0.00000000000E+00 -0.53437268194E+03  0.53437268194E+03  0.00000000000E+00 0. -1.
         23    2    1    2    0    0  0.12126748678E+02 -0.25024579613E+02 -0.88560503494E+02  0.12791337137E+03  0.88008977825E+02 0.  0.
         23    2    1    2    0    0 -0.12126748678E+02  0.25024579613E+02 -0.42066432956E+03  0.43160715945E+03  0.92482291864E+02 0.  0.
          5    1    4    4  502    0 -0.34478685085E+02  0.39091021391E+02 -0.37509724707E+03  0.37873067270E+03  0.47000000000E+01 0. -1.
         -5    1    4    4    0  502  0.22351936407E+02 -0.14066441778E+02 -0.45567082489E+02  0.52876486759E+02  0.47000000000E+01 0.  1.
          5    1    3    3  503    0  0.31089364314E+02 -0.67996337918E+01 -0.95111514995E+02  0.10040455108E+03  0.47000000000E+01 0. -1.
         -5    1    3    3    0  503 -0.18962615636E+02 -0.18224945821E+02  0.65510115015E+01  0.27508820288E+02  0.47000000000E+01 0.  1.
<mgrwt>
<rscale>  0 0.95485645E+02</rscale>
<asrwt>0</asrwt>
<pdfrwt beam="1">  1        2 0.82211182E-01 0.96572573E+02</pdfrwt>
<pdfrwt beam="2">  1       -2 0.38688998E-02 0.96572573E+02</pdfrwt>
<totfact> 0.15328805E+04</totfact>
</mgrwt>
</event>
<event>
 8    1  0.2964543E-004  0.1261732E+03  0.7546771E-02  0.1237931E+00
          1   -1    0    0  501    0  0.00000000000E+00  0.00000000000E+00  0.74511247443E+03  0.74511247443E+03  0.00000000000E+00 0. -1.
         -1   -1    0    0    0  501 -0.00000000000E+00 -0.00000000000E+00 -0.22055661078E+02  0.22055661078E+02  0.00000000000E+00 0.  1.
         23    2    1    2    0    0  0.57605200621E+02 -0.36724760519E+02  0.50831669319E+03  0.52374185833E+03  0.10607830323E+03 0.  0.
         23    2    1    2    0    0 -0.57605200621E+02  0.36724760519E+02  0.21474012017E+03  0.24342627719E+03  0.92065009862E+02 0.  0.
          5    1    4    4  502    0 -0.89935079580E+00 -0.27991220790E+02  0.49551476567E+02  0.57111786027E+02  0.47000000000E+01 0. -1.
         -5    1    3    3    0  503 -0.26316148385E+02 -0.13506645365E+00  0.20896932641E+03  0.21067232208E+03  0.47000000000E+01 0.  1.
          5    1    3    3  503    0  0.83921349006E+02 -0.36589694066E+02  0.29934736678E+03  0.31306953625E+03  0.47000000000E+01 0. -1.
         -5    1    4    4    0  502 -0.56705849825E+02  0.64715981309E+02  0.16518864360E+03  0.18631449116E+03  0.47000000000E+01 0.  1.
<mgrwt>
<rscale>  0 0.12318626E+03</rscale>
<asrwt>0</asrwt>
<pdfrwt beam="1">  1        1 0.11463267E+00 0.12617319E+03</pdfrwt>
<pdfrwt beam="2">  1       -1 0.33931792E-02 0.12617319E+03</pdfrwt>
<totfact> 0.77413974E+03</totfact>
</mgrwt>
</event>
<event>
 8    1  0.2964543E-004  0.1209890E+03  0.7546771E-02  0.1242574E+00
          3   -1    0    0  501    0  0.00000000000E+00  0.00000000000E+00  0.12167903338E+03  0.12167903338E+03  0.00000000000E+00 0. -1.
         -3   -1    0    0    0  501 -0.00000000000E+00 -0.00000000000E+00 -0.12233038522E+03  0.12233038522E+03  0.00000000000E+00 0.  1.
         23    2    1    2    0    0 -0.63556027931E+02 -0.39987046661E+02 -0.24140990626E+02  0.12337394402E+03  0.94868382756E+02 0.  0.
         23    2    1    2    0    0  0.63556027931E+02  0.39987046661E+02  0.23489638785E+02  0.12063547459E+03  0.91448466424E+02 0.  0.
          5    1    3    3  502    0 -0.41056146408E+02 -0.67339495136E+01  0.33047967474E+02  0.53340522945E+02  0.47000000000E+01 0. -1.
         -5    1    3    3    0  502 -0.22499881523E+02 -0.33253097148E+02 -0.57188958100E+02  0.70033421072E+02  0.47000000000E+01 0.  1.
          5    1    4    4  503    0  0.45561555634E+02  0.66063864163E+02  0.33482862288E+02  0.87083187625E+02  0.47000000000E+01 0. -1.
         -5    1    4    4    0  503  0.17994472297E+02 -0.26076817502E+02 -0.99932235033E+01  0.33552286961E+02  0.47000000000E+01 0.  1.
<mgrwt>
<rscale>  0 0.12031782E+03</rscale>
<asrwt>0</asrwt>
<pdfrwt beam="1">  1        3 0.18719851E-01 0.12098902E+03</pdfrwt>
<pdfrwt beam="2">  1       -3 0.18820059E-01 0.12098902E+03</pdfrwt>
<totfact> 0.14211659E+03</totfact>
</mgrwt>
</event>
<event>
 8    1  0.2964543E-004  0.1044328E+03  0.7546771E-02  0.1274135E+00
          1   -1    0    0  501    0  0.00000000000E+00  0.00000000000E+00  0.57431148023E+03  0.57431148023E+03  0.00000000000E+00 0. -1.
         -1   -1    0    0    0  501 -0.00000000000E+00 -0.00000000000E+00 -0.18317961619E+02  0.18317961619E+02  0.00000000000E+00 0.  1.
         23    2    1    2    0    0  0.14977357797E+02 -0.51880622378E+02  0.32614937955E+03  0.34246114778E+03  0.89388476496E+02 0.  0.
         23    2    1    2    0    0 -0.14977357797E+02  0.51880622378E+02  0.22984413906E+03  0.25016829407E+03  0.82703850417E+02 0.  0.
          5    1    3    3  502    0 -0.56151450709E+01 -0.67696497077E+02  0.28887871007E+03  0.29679512243E+03  0.47000000000E+01 0. -1.
         -5    1    4    4    0  503  0.20713798208E+02  0.33205806610E+02  0.40446495063E+02  0.56477393634E+02  0.47000000000E+01 0.  1.
          5    1    4    4  503    0 -0.35691156005E+02  0.18674815768E+02  0.18939764400E+03  0.19369090044E+03  0.47000000000E+01 0. -1.
         -5    1    3    3    0  502  0.20592502867E+02  0.15815874699E+02  0.37270669484E+02  0.45666025343E+02  0.47000000000E+01 0.  1.
<mgrwt>
<rscale>  0 0.10298784E+03</rscale>
<asrwt>0</asrwt>
<pdfrwt beam="1">  1        1 0.88355599E-01 0.10443285E+03</pdfrwt>
<pdfrwt beam="2">  1       -1 0.28181484E-02 0.10443285E+03</pdfrwt>
<totfact> 0.14358937E+04</totfact>
</mgrwt>
</event>
<event>
 8    1  0.2964543E-004  0.1146419E+03  0.7546771E-02  0.1252974E+00
          1   -1    0    0  501    0  0.00000000000E+00  0.00000000000E+00  0.37834586896E+03  0.37834586896E+03  0.00000000000E+00 0. -1.
         -1   -1    0    0    0  501 -0.00000000000E+00 -0.00000000000E+00 -0.38033766496E+02  0.38033766496E+02  0.00000000000E+00 0.  1.
         23    2    1    2    0    0  0.20594100669E+02  0.65523472669E+02  0.23496700227E+03  0.26068651864E+03  0.89613204320E+02 0.  0.
         23    2    1    2    0    0 -0.20594100669E+02 -0.65523472669E+02  0.10534510019E+03  0.15569311682E+03  0.91789509413E+02 0.  0.
          5    1    3    3  502    0  0.55281756841E+02  0.46724367530E+02  0.16466865431E+03  0.17993636340E+03  0.47000000000E+01 0. -1.
         -5    1    4    4    0  503 -0.51290371949E+02 -0.63215051998E+02  0.62555812104E+02  0.10277239260E+03  0.47000000000E+01 0.  1.
          5    1    4    4  503    0  0.30696271280E+02 -0.23084206705E+01  0.42789288091E+02  0.52920724219E+02  0.47000000000E+01 0. -1.
         -5    1    3    3    0  502 -0.34687656172E+02  0.18799105139E+02  0.70298347965E+02  0.80750155240E+02  0.47000000000E+01 0.  1.
<mgrwt>
<rscale>  0 0.11420564E+03</rscale>
<asrwt>0</asrwt>
<pdfrwt beam="1">  1        1 0.58207054E-01 0.11464186E+03</pdfrwt>
<pdfrwt beam="2">  1       -1 0.58513490E-02 0.11464186E+03</pdfrwt>
<totfact> 0.84915474E+03</totfact>
</mgrwt>
</event>
<event>
 8    1  0.2964543E-004  0.1062363E+03  0.7546771E-02  0.1273626E+00
         -2   -1    0    0    0  501 -0.00000000000E+00  0.00000000000E+00  0.11139491809E+03  0.11139491809E+03  0.00000000000E+00 0.  1.
          2   -1    0    0  501    0  0.00000000000E+00 -0.00000000000E+00 -0.93985591912E+02  0.93985591912E+02  0.00000000000E+00 0. -1.
         23    2    1    2    0    0 -0.47512978244E+02 -0.12741348049E+02  0.27514647797E+02  0.98664671205E+02  0.80980469552E+02 0.  0.
         23    2    1    2    0    0  0.47512978244E+02  0.12741348049E+02 -0.10105321619E+02  0.10671583880E+03  0.94161179228E+02 0.  0.
          5    1    4    4  502    0  0.19732996590E+01  0.44712100269E+02 -0.21263055255E+02  0.49772214546E+02  0.47000000000E+01 0. -1.
         -5    1    4    4    0  502  0.45539678585E+02 -0.31970752220E+02  0.11157733636E+02  0.56943624253E+02  0.47000000000E+01 0.  1.
          5    1    3    3  503    0 -0.24856255246E+02  0.27820205639E+02 -0.98364621643E+01  0.38866994411E+02  0.47000000000E+01 0. -1.
         -5    1    3    3    0  503 -0.22656722998E+02 -0.40561553688E+02  0.37351109961E+02  0.59797676794E+02  0.47000000000E+01 0.  1.
<mgrwt>
<rscale>  0 0.10324051E+03</rscale>
<asrwt>0</asrwt>
<pdfrwt beam="1">  1        2 0.14459322E-01 0.10623631E+03</pdfrwt>
<pdfrwt beam="2">  1       -2 0.17137680E-01 0.10623631E+03</pdfrwt>
<totfact> 0.10240614E+04</totfact>
</mgrwt>
</event>
<event>
 8    1  0.2964543E-004  0.9282369E+02  0.7546771E-02  0.1296472E+00
         -2   -1    0    0    0  501 -0.00000000000E+00  0.00000000000E+00  0.38075944757E+03  0.38075944757E+03  0.00000000000E+00 0.  1.
          2   -1    0    0  501    0  0.00000000000E+00 -0.00000000000E+00 -0.36201431939E+02  0.36201431939E+02  0.00000000000E+00 0. -1.
         23    2    1    2    0    0  0.45523977331E+01 -0.24383802136E+02  0.43687267223E+02  0.10209671018E+03  0.88881194751E+02 0.  0.
         23    2    1    2    0    0 -0.45523977331E+01  0.24383802136E+02  0.30087074841E+03  0.31486416933E+03  0.89447994655E+02 0.  0.
          5    1    4    4  502    0 -0.56701722658E+00 -0.31366441606E+02  0.16231863891E+03  0.16538925510E+03  0.47000000000E+01 0. -1.
         -5    1    3    3    0  503 -0.22876788591E+02 -0.40494387007E+02  0.50934415308E+02  0.69134271516E+02  0.47000000000E+01 0.  1.
          5    1    3    3  503    0  0.27429186324E+02  0.16110584871E+02 -0.72471480848E+01  0.32962438664E+02  0.47000000000E+01 0. -1.
         -5    1    4    4    0  502 -0.39853805065E+01  0.55750243742E+02  0.13855210950E+03  0.14947491422E+03  0.47000000000E+01 0.  1.
<mgrwt>
<rscale>  0 0.92686875E+02</rscale>
<asrwt>0</asrwt>
<pdfrwt beam="1">  1        2 0.55694513E-02 0.92823692E+02</pdfrwt>
<pdfrwt beam="2">  1       -2 0.58578374E-01 0.92823692E+02</pdfrwt>
<totfact> 0.35093043E+03</totfact>
</mgrwt>
</event>
<event>
 8    1  0.2964543E-004  0.1210040E+03  0.7546771E-02  0.1242271E+00
         -4   -1    0    0    0  501 -0.00000000000E+00  0.00000000000E+00  0.18092874399E+02  0.18092874399E+02  0.00000000000E+00 0. -1.
          4   -1    0    0  501    0  0.00000000000E+00 -0.00000000000E+00 -0.11107912796E+04  0.11107912796E+04  0.00000000000E+00 0.  1.
         23    2    1    2    0    0 -0.25213699886E+02  0.73177579087E+02 -0.24260820110E+03  0.27022512914E+03  0.90400179387E+02 0.  0.
         23    2    1    2    0    0  0.25213699886E+02 -0.73177579087E+02 -0.85009020415E+03  0.85865902491E+03  0.93012241804E+02 0.  0.
          5    1    4    4  502    0 -0.26804365192E+02  0.30257953936E+01 -0.14737252911E+03  0.14989456883E+03  0.47000000000E+01 0. -1.
         -5    1    4    4    0  502  0.52018065078E+02 -0.76203374480E+02 -0.70271767504E+03  0.70876445607E+03  0.47000000000E+01 0.  1.
          5    1    3    3  503    0 -0.27402860830E+02  0.48167651685E+02 -0.46595445587E+02  0.72555254806E+02  0.47000000000E+01 0. -1.
         -5    1    3    3    0  503  0.21891609442E+01  0.25009927402E+02 -0.19601275551E+03  0.19766987433E+03  0.47000000000E+01 0.  1.
<mgrwt>
<rscale>  0 0.12050185E+03</rscale>
<asrwt>0</asrwt>
<pdfrwt beam="1">  1        4 0.17089106E+00 0.12100399E+03</pdfrwt>
<pdfrwt beam="2">  1       -4 0.27835175E-02 0.12100399E+03</pdfrwt>
<totfact> 0.22522770E+02</totfact>
</mgrwt>
</event>
<event>
 8    1  0.2964543E-004  0.9214910E+02  0.7546771E-02  0.1301649E+00
         -1   -1    0    0    0  501 -0.00000000000E+00  0.00000000000E+00  0.58450941211E+03  0.58450941211E+03  0.00000000000E+00 0.  1.
          1   -1    0    0  501    0  0.00000000000E+00 -0.00000000000E+00 -0.20392439351E+02  0.20392439351E+02  0.00000000000E+00 0. -1.
         23    2    1    2    0    0 -0.79774552938E+01  0.59191318346E+01  0.45064705357E+03  0.45872770867E+03  0.85144981584E+02 0.  0.
         23    2    1    2    0    0  0.79774552938E+01 -0.59191318346E+01  0.11346991918E+03  0.14617414279E+03  0.91612125546E+02 0.  0.
          5    1    4    4  502    0  0.34929353536E+02  0.22973414945E+02  0.24433524510E+02  0.48651049862E+02  0.47000000000E+01 0. -1.
         -5    1    3    3    0  503 -0.41404186264E+02  0.21267637116E+02  0.20308817764E+03  0.20840709423E+03  0.47000000000E+01 0.  1.
          5    1    3    3  503    0  0.33426730970E+02 -0.15348505282E+02  0.24755887594E+03  0.25032061444E+03  0.47000000000E+01 0. -1.
         -5    1    4    4    0  502 -0.26951898242E+02 -0.28892546779E+02  0.89036394674E+02  0.97523092931E+02  0.47000000000E+01 0.  1.
<mgrwt>
<rscale>  0 0.90498634E+02</rscale>
<asrwt>0</asrwt>
<pdfrwt beam="1">  1        1 0.31372988E-02 0.92149105E+02</pdfrwt>
<pdfrwt beam="2">  1       -1 0.89924512E-01 0.92149105E+02</pdfrwt>
<totfact> 0.38002930E+03</totfact>
</mgrwt>
</event>
<event>
 8    1  0.2964543E-004  0.9618393E+02  0.7546771E-02  0.1289907E+00
         -1   -1    0    0    0  501 -0.00000000000E+00  0.00000000000E+00  0.30739583279E+03  0.30739583279E+03  0.00000000000E+00 0.  1.
          1   -1    0    0  501    0  0.00000000000E+00 -0.00000000000E+00 -0.31750423418E+02  0.31750423418E+02  0.00000000000E+00 0. -1.
         23    2    1    2    0    0 -0.27051921145E+02  0.14585320045E+02  0.18623893478E+03  0.20960984872E+03  0.91141702054E+02 0.  0.
         23    2    1    2    0    0  0.27051921145E+02 -0.14585320045E+02  0.89406474596E+02  0.12953640749E+03  0.88552951209E+02 0.  0.
          5    1    4    4  502    0  0.19732494928E+02 -0.48155784132E+02  0.28683871727E+02  0.59608769478E+02  0.47000000000E+01 0. -1.
         -5    1    4    4    0  502  0.73194262165E+01  0.33570464086E+02  0.60722602869E+02  0.69927638014E+02  0.47000000000E+01 0.  1.
          5    1    3    3  503    0 -0.53696671213E+02 -0.98693893669E+01  0.14242725283E+03  0.15260520861E+03  0.47000000000E+01 0. -1.
         -5    1    3    3    0  503  0.26644750069E+02  0.24454709412E+02  0.43811681947E+02  0.57004640106E+02  0.47000000000E+01 0.  1.
<mgrwt>
<rscale>  0 0.95565643E+02</rscale>
<asrwt>0</asrwt>
<pdfrwt beam="1">  1        1 0.48846807E-02 0.96183927E+02</pdfrwt>
<pdfrwt beam="2">  1       -1 0.47291664E-01 0.96183927E+02</pdfrwt>
<totfact> 0.72033844E+03</totfact>
</mgrwt>
</event>
<event>
 8    1  0.2964543E-004  0.1097538E+03  0.7546771E-02  0.1261606E+00
          1   -1    0    0  501    0  0.00000000000E+00  0.00000000000E+00  0.10986371933E+02  0.10986371933E+02  0.00000000000E+00 0. -1.
         -1   -1    0    0    0  501 -0.00000000000E+00 -0.00000000000E+00 -0.11366766499E+04  0.11366766499E+04  0.00000000000E+00 0.  1.
         23    2    1    2    0    0  0.52034082028E+02  0.26875273805E+02 -0.43636064241E+03  0.44965066919E+03  0.91352548015E+02 0.  0.
         23    2    1    2    0    0 -0.52034082028E+02 -0.26875273805E+02 -0.68932963558E+03  0.69801235266E+03  0.92822798621E+02 0.  0.
          5    1    4    4  502    0 -0.39772007642E+00 -0.51929536387E+02 -0.33497726690E+03  0.33901134829E+03  0.47000000000E+01 0. -1.
         -5    1    3    3    0  503  0.17402412552E+02  0.51994310886E+02 -0.33561347051E+03  0.34009519831E+03  0.47000000000E+01 0.  1.
          5    1    3    3  503    0  0.34631669476E+02 -0.25119037081E+02 -0.10074717190E+03  0.10955547088E+03  0.47000000000E+01 0. -1.
         -5    1    4    4    0  502 -0.51636361951E+02  0.25054262582E+02 -0.35435236868E+03  0.35900100437E+03  0.47000000000E+01 0.  1.
<mgrwt>
<rscale>  0 0.10944233E+03</rscale>
<asrwt>0</asrwt>
<pdfrwt beam="1">  1        1 0.16902103E-02 0.10975381E+03</pdfrwt>
<pdfrwt beam="2">  1       -1 0.17487341E+00 0.10975381E+03</pdfrwt>
<totfact> 0.18320806E+03</totfact>
</mgrwt>
</event>
<event>
 8    1  0.2964543E-004  0.9642729E+02  0.7546771E-02  0.1288601E+00
         -2   -1    0    0    0  501 -0.00000000000E+00  0.00000000000E+00  0.16641319773E+02  0.16641319773E+02  0.00000000000E+00 0. -1.
          2   -1    0    0  501    0  0.00000000000E+00 -0.00000000000E+00 -0.55274665787E+03  0.55274665787E+03  0.00000000000E+00 0.  1.
         23    2    1    2    0    0 -0.25518127466E+02 -0.18402102561E+02 -0.25960619865E+03  0.27655697515E+03  0.89992054772E+02 0.  0.
         23    2    1    2    0    0  0.25518127466E+02  0.18402102561E+02 -0.27649913945E+03  0.29283100249E+03  0.91150478303E+02 0.  0.
          5    1    3    3  502    0  0.74421321966E+01 -0.38255825893E+02 -0.50887567031E+02  0.64269184099E+02  0.47000000000E+01 0. -1.
         -5    1    3    3    0  502 -0.32960259663E+02  0.19853723332E+02 -0.20871863162E+03  0.21228779105E+03  0.47000000000E+01 0.  1.
          5    1    4    4  503    0  0.16676972876E+02 -0.35557200507E+02 -0.87493994252E+02  0.96019398886E+02  0.47000000000E+01 0. -1.
         -5    1    4    4    0  503  0.88411545902E+01  0.53959303068E+02 -0.18900514520E+03  0.19681160361E+03  0.47000000000E+01 0.  1.
<mgrwt>
<rscale>  0 0.96152546E+02</rscale>
<asrwt>0</asrwt>
<pdfrwt beam="1">  1        2 0.85037944E-01 0.96427288E+02</pdfrwt>
<pdfrwt beam="2">  1       -2 0.25602031E-02 0.96427288E+02</pdfrwt>
<totfact> 0.26975529E+04</totfact>
</mgrwt>
</event>
<event>
 8    1  0.2964543E-004  0.9202824E+02  0.7546771E-02  0.1299052E+00
          1   -1    0    0  501    0  0.00000000000E+00  0.00000000000E+00  0.18184531812E+03  0.18184531812E+03  0.00000000000E+00 0. -1.
         -1   -1    0    0    0  501 -0.00000000000E+00 -0.00000000000E+00 -0.54251808966E+02  0.54251808966E+02  0.00000000000E+00 0.  1.
         23    2    1    2    0    0 -0.13314665936E+02 -0.26819922248E+01  0.11016839768E+03  0.14243373430E+03  0.89251439237E+02 0.  0.
         23    2    1    2    0    0  0.13314665936E+02  0.26819922248E+01  0.17425111473E+02  0.93663392794E+02  0.91020455001E+02 0.  0.
          5    1    4    4  502    0 -0.20092587078E+02 -0.20590869658E+02  0.37927877758E+02  0.47836282046E+02  0.47000000000E+01 0. -1.
         -5    1    4    4    0  502  0.33407253014E+02  0.23272861883E+02 -0.20502766285E+02  0.45827110748E+02  0.47000000000E+01 0.  1.
          5    1    3    3  503    0  0.11057201681E+02 -0.39641530060E+02  0.31491352781E+02  0.52033719015E+02  0.47000000000E+01 0. -1.
         -5    1    3    3    0  503 -0.24371867617E+02  0.36959537836E+02  0.78677044904E+02  0.90400015282E+02  0.47000000000E+01 0.  1.
<mgrwt>
<rscale>  0 0.91587770E+02</rscale>
<asrwt>0</asrwt>
<pdfrwt beam="1">  1        1 0.27976203E-01 0.92028238E+02</pdfrwt>
<pdfrwt beam="2">  1       -1 0.83464322E-02 0.92028238E+02</pdfrwt>
<totfact> 0.12096377E+04</totfact>
</mgrwt>
</event>
<event>
 8    1  0.2964543E-004  0.1103445E+03  0.7546771E-02  0.1259964E+00
         -1   -1    0    0    0  501 -0.00000000000E+00  0.00000000000E+00  0.28645799935E+03  0.28645799935E+03  0.00000000000E+00 0.  1.
          1   -1    0    0  501    0  0.00000000000E+00 -0.00000000000E+00 -0.43802433771E+02  0.43802433771E+02  0.00000000000E+00 0. -1.
         23    2    1    2    0    0  0.15080293057E+01  0.61462499032E+02  0.92663108652E+02  0.14409148886E+03  0.91629648684E+02 0.  0.
         23    2    1    2    0    0 -0.15080293057E+01 -0.61462499032E+02  0.14999245693E+03  0.18616894426E+03  0.91549034575E+02 0.  0.
          5    1    4    4  502    0 -0.69358626307E+01 -0.81400061418E+02  0.14125845286E+03  0.16324863459E+03  0.47000000000E+01 0. -1.
         -5    1    4    4    0  502  0.54278333250E+01  0.19937562386E+02  0.87340040659E+01  0.22920309673E+02  0.47000000000E+01 0.  1.
          5    1    3    3  503    0  0.33113096936E+02  0.20297035286E+01  0.56490399328E+01  0.33979384004E+02  0.47000000000E+01 0. -1.
         -5    1    3    3    0  503 -0.31605067631E+02  0.59432795504E+02  0.87014068719E+02  0.11011210486E+03  0.47000000000E+01 0.  1.
<mgrwt>
<rscale>  0 0.11032775E+03</rscale>
<asrwt>0</asrwt>
<pdfrwt beam="1">  1        1 0.67388362E-02 0.11034449E+03</pdfrwt>
<pdfrwt beam="2">  1       -1 0.44070460E-01 0.11034449E+03</pdfrwt>
<totfact> 0.53519903E+03</totfact>
</mgrwt>
</event>
<event>
 8    1  0.2964543E-004  0.1623608E+03  0.7546771E-02  0.1188321E+00
         -1   -1    0    0    0  501 -0.00000000000E+00  0.00000000000E+00  0.49675416342E+03  0.49675416342E+03  0.00000000000E+00 0.  1.
          1   -1    0    0  501    0  0.00000000000E+00 -0.00000000000E+00 -0.50706631450E+02  0.50706631450E+02  0.00000000000E+00 0. -1.
         23    2    1    2    0    0  0.56584781214E+02  0.11052815136E+03  0.24619620226E+03  0.29491286482E+03  0.10460744774E+03 0.  0.
         23    2    1    2    0    0 -0.56584781214E+02 -0.11052815136E+03  0.19985132972E+03  0.25254793005E+03  0.91769239267E+02 0.  0.
          5    1    3    3  502    0  0.75930896857E+02  0.91868968713E+02  0.23833571240E+03  0.26651718578E+03  0.47000000000E+01 0. -1.
         -5    1    4    4    0  503 -0.79868692564E+02 -0.96562994067E+02  0.17599327773E+03  0.21609984656E+03  0.47000000000E+01 0.  1.
          5    1    4    4  503    0  0.23283911349E+02 -0.13965157295E+02  0.23858051985E+02  0.36448083496E+02  0.47000000000E+01 0. -1.
         -5    1    3    3    0  502 -0.19346115643E+02  0.18659182650E+02  0.78604898592E+01  0.28395679046E+02  0.47000000000E+01 0.  1.
<mgrwt>
<rscale>  0 0.16033338E+03</rscale>
<asrwt>0</asrwt>
<pdfrwt beam="1">  1        1 0.78010206E-02 0.16236080E+03</pdfrwt>
<pdfrwt beam="2">  1       -1 0.76423714E-01 0.16236080E+03</pdfrwt>
<totfact> 0.15860376E+03</totfact>
</mgrwt>
</event>
<event>
 8    1  0.2964543E-004  0.9402683E+02  0.7546771E-02  0.1294130E+00
          2   -1    0    0  501    0  0.00000000000E+00  0.00000000000E+00  0.45610357931E+03  0.45610357931E+03  0.00000000000E+00 0. -1.
         -2   -1    0    0    0  501 -0.00000000000E+00 -0.00000000000E+00 -0.10816357674E+03  0.10816357674E+03  0.00000000000E+00 0.  1.
         23    2    1    2    0    0 -0.21008012567E+02 -0.51749620043E+01 -0.82232728737E+02  0.12393816115E+03  0.90168338629E+02 0.  0.
         23    2    1    2    0    0  0.21008012567E+02  0.51749620043E+01  0.43017273131E+03  0.44032899490E+03  0.91503705771E+02 0.  0.
          5    1    3    3  502    0 -0.21521734902E+02 -0.30214328463E+02  0.47368471550E+00  0.37395254978E+02  0.47000000000E+01 0. -1.
         -5    1    3    3    0  502  0.51372233427E+00  0.25039366459E+02 -0.82706413452E+02  0.86542906176E+02  0.47000000000E+01 0.  1.
          5    1    4    4  503    0  0.32324841603E+02  0.42977168566E+02  0.26511549730E+03  0.27055544591E+03  0.47000000000E+01 0. -1.
         -5    1    4    4    0  503 -0.11316829035E+02 -0.37802206562E+02  0.16505723401E+03  0.16977354899E+03  0.47000000000E+01 0.  1.
<mgrwt>
<rscale>  0 0.93700379E+02</rscale>
<asrwt>0</asrwt>
<pdfrwt beam="1">  1        2 0.70169780E-01 0.94026831E+02</pdfrwt>
<pdfrwt beam="2">  1       -2 0.16640551E-01 0.94026831E+02</pdfrwt>
<totfact> 0.19245991E+03</totfact>
</mgrwt>
</event>
<event>
 8    1  0.2964543E-004  0.1072738E+03  0.7546771E-02  0.1265779E+00
         -2   -1    0    0    0  501 -0.00000000000E+00  0.00000000000E+00  0.47882113109E+03  0.47882113109E+03  0.00000000000E+00 0.  1.
          2   -1    0    0  501    0  0.00000000000E+00 -0.00000000000E+00 -0.26569670071E+02  0.26569670071E+02  0.00000000000E+00 0. -1.
         23    2    1    2    0    0 -0.49691666659E+02 -0.29541374426E+02  0.14766050621E+03  0.18251383827E+03  0.90364381956E+02 0.  0.
         23    2    1    2    0    0  0.49691666659E+02  0.29541374426E+02  0.30459095481E+03  0.32287696289E+03  0.90177208200E+02 0.  0.
          5    1    3    3  502    0 -0.59950784499E+02 -0.53225792593E+02  0.11998103253E+03  0.14437665922E+03  0.47000000000E+01 0. -1.
         -5    1    3    3    0  502  0.10259117840E+02  0.23684418167E+02  0.27679473679E+02  0.38137179050E+02  0.47000000000E+01 0.  1.
          5    1    4    4  503    0  0.38995607584E+02 -0.27959800645E+02  0.12699428854E+03  0.13583831265E+03  0.47000000000E+01 0. -1.
         -5    1    4    4    0  503  0.10696059075E+02  0.57501175070E+02  0.17759666627E+03  0.18703865024E+03  0.47000000000E+01 0.  1.
<mgrwt>
<rscale>  0 0.10723441E+03</rscale>
<asrwt>0</asrwt>
<pdfrwt beam="1">  1        2 0.40876419E-02 0.10727384E+03</pdfrwt>
<pdfrwt beam="2">  1       -2 0.73664783E-01 0.10727384E+03</pdfrwt>
<totfact> 0.32907132E+03</totfact>
</mgrwt>
</event>
<event>
 8    1  0.2964543E-004  0.1180636E+03  0.7546771E-02  0.1254395E+00
         -2   -1    0    0    0  501 -0.00000000000E+00  0.00000000000E+00  0.15925728906E+02  0.15925728906E+02  0.00000000000E+00 0.  1.
          2   -1    0    0  501    0  0.00000000000E+00 -0.00000000000E+00 -0.76804192715E+03  0.76804192715E+03  0.00000000000E+00 0. -1.
         23    2    1    2    0    0 -0.11303948308E+02  0.38694354303E+02 -0.40666872740E+03  0.41890194835E+03  0.92056266418E+02 0.  0.
         23    2    1    2    0    0  0.11303948308E+02 -0.38694354303E+02 -0.34544747084E+03  0.36506570770E+03  0.11096838976E+03 0.  0.
          5    1    3    3  502    0  0.35706505522E+02  0.35293588898E+02 -0.25758947274E+03  0.26247860564E+03  0.47000000000E+01 0. -1.
         -5    1    4    4    0  503  0.19395815553E+02  0.36786597168E+02 -0.13164659794E+03  0.13813894506E+03  0.47000000000E+01 0.  1.
          5    1    4    4  503    0 -0.80918672456E+01 -0.75480951471E+02 -0.21380087290E+03  0.22692676264E+03  0.47000000000E+01 0. -1.
         -5    1    3    3    0  502 -0.47010453830E+02  0.34007654051E+01 -0.14907925466E+03  0.15642334271E+03  0.47000000000E+01 0.  1.
<mgrwt>
<rscale>  0 0.11340284E+03</rscale>
<asrwt>0</asrwt>
<pdfrwt beam="1">  1        2 0.11816030E+00 0.11806361E+03</pdfrwt>
<pdfrwt beam="2">  1       -2 0.24501122E-02 0.11806361E+03</pdfrwt>
<totfact> 0.20049764E+04</totfact>
</mgrwt>
</event>
<event>
 8    1  0.2964543E-004  0.9157772E+02  0.7546771E-02  0.1299684E+00
          2   -1    0    0  501    0  0.00000000000E+00  0.00000000000E+00  0.36758588778E+03  0.36758588778E+03  0.00000000000E+00 0. -1.
         -2   -1    0    0    0  501 -0.00000000000E+00 -0.00000000000E+00 -0.28227568837E+02  0.28227568837E+02  0.00000000000E+00 0.  1.
         23    2    1    2    0    0 -0.26013469554E+01 -0.40668180553E+01  0.25758803848E+03  0.27304188928E+03  0.90426598520E+02 0.  0.
         23    2    1    2    0    0  0.26013469554E+01  0.40668180553E+01  0.81770280462E+02  0.12277156733E+03  0.91450385258E+02 0.  0.
          5    1    4    4  502    0 -0.22740804482E+02 -0.33831621328E+02  0.58261714004E+02  0.71261771721E+02  0.47000000000E+01 0. -1.
         -5    1    3    3    0  503  0.26913351963E+02  0.27488420062E+02  0.65575797846E+02  0.76172285081E+02  0.47000000000E+01 0.  1.
          5    1    3    3  503    0 -0.29514698919E+02 -0.31555238117E+02  0.19201224064E+03  0.19686960420E+03  0.47000000000E+01 0. -1.
         -5    1    4    4    0  502  0.25342151438E+02  0.37898439383E+02  0.23508566458E+02  0.51509795613E+02  0.47000000000E+01 0.  1.
<mgrwt>
<rscale>  0 0.91321057E+02</rscale>
<asrwt>0</asrwt>
<pdfrwt beam="1">  1        2 0.56551672E-01 0.91577721E+02</pdfrwt>
<pdfrwt beam="2">  1       -2 0.43427032E-02 0.91577721E+02</pdfrwt>
<totfact> 0.19178255E+04</totfact>
</mgrwt>
</event>
<event>
 8    1  0.2964543E-004  0.9861989E+02  0.7546771E-02  0.1285546E+00
          2   -1    0    0  501    0  0.00000000000E+00  0.00000000000E+00  0.96854829832E+03  0.96854829832E+03  0.00000000000E+00 0. -1.
         -2   -1    0    0    0  501 -0.00000000000E+00 -0.00000000000E+00 -0.96154817167E+01  0.96154817167E+01  0.00000000000E+00 0.  1.
         23    2    1    2    0    0 -0.15349413473E+02 -0.24257431982E+02  0.49130110585E+03  0.50110144536E+03  0.94349639287E+02 0.  0.
         23    2    1    2    0    0  0.15349413473E+02  0.24257431982E+02  0.46763171075E+03  0.47706233468E+03  0.89916776873E+02 0.  0.
          5    1    4    4  502    0  0.33629043280E+02 -0.15577840708E+02  0.33972560460E+03  0.34177354797E+03  0.47000000000E+01 0. -1.
         -5    1    4    4    0  502 -0.18279629806E+02  0.39835272690E+02  0.12790610616E+03  0.13528878671E+03  0.47000000000E+01 0.  1.
          5    1    3    3  503    0 -0.31191960599E+02 -0.55067916543E+02  0.30142603214E+03  0.30803434336E+03  0.47000000000E+01 0. -1.
         -5    1    3    3    0  503  0.15842547126E+02  0.30810484561E+02  0.18987507371E+03  0.19306710200E+03  0.47000000000E+01 0.  1.
<mgrwt>
<rscale>  0 0.97544396E+02</rscale>
<asrwt>0</asrwt>
<pdfrwt beam="1">  1        2 0.14900735E+00 0.98619886E+02</pdfrwt>
<pdfrwt beam="2">  1       -2 0.14793056E-02 0.98619886E+02</pdfrwt>
<totfact> 0.30406800E+04</totfact>
</mgrwt>
</event>
<event>
 8    1  0.2964543E-004  0.1258027E+03  0.7546771E-02  0.1233970E+00
         -1   -1    0    0    0  501 -0.00000000000E+00  0.00000000000E+00  0.20086872488E+02  0.20086872488E+02  0.00000000000E+00 0.  1.
          1   -1    0    0  501    0  0.00000000000E+00 -0.00000000000E+00 -0.78623459142E+03  0.78623459142E+03  0.00000000000E+00 0. -1.
         23    2    1    2    0    0  0.43087340905E+02  0.76247039357E+02 -0.36991427339E+03  0.39059649084E+03  0.89771482349E+02 0.  0.
         23    2    1    2    0    0 -0.43087340905E+02 -0.76247039357E+02 -0.39623344554E+03  0.41572497307E+03  0.90311571281E+02 0.  0.
          5    1    4    4  502    0 -0.62593221732E+02 -0.69235325120E+02 -0.37168749830E+03  0.38325595630E+03  0.47000000000E+01 0. -1.
         -5    1    4    4    0  502  0.19505880827E+02 -0.70117142375E+01 -0.24545947245E+02  0.32469016763E+02  0.47000000000E+01 0.  1.
          5    1    3    3  503    0  0.38951234048E+02 -0.53995007415E+01 -0.17019500004E+03  0.17474204211E+03  0.47000000000E+01 0. -1.
         -5    1    3    3    0  503  0.41361068578E+01  0.81646540098E+02 -0.19971927336E+03  0.21585444874E+03  0.47000000000E+01 0.  1.
<mgrwt>
<rscale>  0 0.12570576E+03</rscale>
<asrwt>0</asrwt>
<pdfrwt beam="1">  1        1 0.12095916E+00 0.12580266E+03</pdfrwt>
<pdfrwt beam="2">  1       -1 0.30902883E-02 0.12580266E+03</pdfrwt>
<totfact> 0.81937910E+03</totfact>
</mgrwt>
</event>
<event>
 8    1  0.2964543E-004  0.1498751E+03  0.7546771E-02  0.1200958E+00
         -1   -1    0    0    0  501 -0.00000000000E+00  0.00000000000E+00  0.25768895261E+02  0.25768895261E+02  0.00000000000E+00 0.  1.
          1   -1    0    0  501    0  0.00000000000E+00 -0.00000000000E+00 -0.87101385439E+03  0.87101385439E+03  0.00000000000E+00 0. -1.
         23    2    1    2    0    0 -0.10366132320E+03 -0.58244581830E+02 -0.45692110980E+03  0.48054006718E+03  0.89463704039E+02 0.  0.
         23    2    1    2    0    0  0.10366132320E+03  0.58244581830E+02 -0.38832384933E+03  0.41624268248E+03  0.91238465110E+02 0.  0.
          5    1    4    4  502    0  0.42904252551E+02  0.74959660430E+02 -0.23461943558E+03  0.25005618395E+03  0.47000000000E+01 0. -1.
         -5    1    4    4    0  502  0.60757070652E+02 -0.16715078600E+02 -0.15370441375E+03  0.16618649853E+03  0.47000000000E+01 0.  1.
          5    1    3    3  503    0 -0.10231472113E+03 -0.18731498023E+02 -0.37892013538E+03  0.39296530404E+03  0.47000000000E+01 0. -1.
         -5    1    3    3    0  503 -0.13466020762E+01 -0.39513083807E+02 -0.78000974415E+02  0.87574763138E+02  0.47000000000E+01 0.  1.
<mgrwt>
<rscale>  0 0.14960598E+03</rscale>
<asrwt>0</asrwt>
<pdfrwt beam="1">  1        1 0.13400212E+00 0.14987514E+03</pdfrwt>
<pdfrwt beam="2">  1       -1 0.39644458E-02 0.14987514E+03</pdfrwt>
<totfact> 0.49082135E+03</totfact>
</mgrwt>
</event>
<event>
 7    1  0.2964543E-004  0.2216196E+03  0.7546771E-02  0.1138918E+00
         -1   -1    0    0    0  501 -0.00000000000E+00  0.00000000000E+00  0.11178700961E+03  0.11178700961E+03  0.00000000000E+00 0.  1.
          1   -1    0    0  501    0  0.00000000000E+00 -0.00000000000E+00 -0.37982640149E+03  0.37982640149E+03  0.00000000000E+00 0. -1.
         23    2    1    2    0    0 -0.49447908179E+02 -0.13483491627E+03 -0.12748472476E+03  0.22918084102E+03  0.12508378222E+03 0.  0.
          5    1    1    2  502    0 -0.28493829924E+02  0.69181997044E+02  0.14957418951E+02  0.76445153152E+02  0.47000000000E+01 0.  1.
         -5    1    1    2    0  502  0.77941738102E+02  0.65652919226E+02 -0.15551208607E+03  0.18598741693E+03  0.47000000000E+01 0. -1.
          5    1    3    3  503    0  0.35055487091E+02 -0.94858196575E+01 -0.40927209914E+02  0.54918070442E+02  0.47000000000E+01 0.  1.
         -5    1    3    3    0  503 -0.84503395270E+02 -0.12534909661E+03 -0.86557514844E+02  0.17426277058E+03  0.47000000000E+01 0.  1.
<mgrwt>
<rscale>  0 0.21337906E+03</rscale>
<asrwt>0</asrwt>
<pdfrwt beam="1">  1        1 0.58434832E-01 0.22161958E+03</pdfrwt>
<pdfrwt beam="2">  1       -1 0.17198001E-01 0.22161958E+03</pdfrwt>
<totfact> 0.16625603E+03</totfact>
</mgrwt>
</event>
<event>
 8    1  0.2964543E-004  0.1017739E+03  0.7546771E-02  0.1277806E+00
          1   -1    0    0  501    0  0.00000000000E+00  0.00000000000E+00  0.46035262831E+03  0.46035262831E+03  0.00000000000E+00 0. -1.
         -1   -1    0    0    0  501 -0.00000000000E+00 -0.00000000000E+00 -0.22456822970E+02  0.22456822970E+02  0.00000000000E+00 0.  1.
         23    2    1    2    0    0 -0.34327673363E+02 -0.31080831238E+02  0.18675107034E+03  0.21268259393E+03  0.90628451716E+02 0.  0.
         23    2    1    2    0    0  0.34327673363E+02  0.31080831238E+02  0.25114473500E+03  0.27012685734E+03  0.88036548731E+02 0.  0.
          5    1    4    4  502    0  0.53548969742E+02  0.48177553019E+02  0.20107544375E+03  0.21363986719E+03  0.47000000000E+01 0. -1.
         -5    1    3    3    0  503  0.30499728792E+02 -0.11004934911E+02  0.75166570993E+02  0.81996618489E+02  0.47000000000E+01 0.  1.
          5    1    3    3  503    0 -0.64827402155E+02 -0.20075896327E+02  0.11158449935E+03  0.13068597544E+03  0.47000000000E+01 0. -1.
         -5    1    4    4    0  502 -0.19221296379E+02 -0.17096721782E+02  0.50069291254E+02  0.56486990156E+02  0.47000000000E+01 0.  1.
<mgrwt>
<rscale>  0 0.10119367E+03</rscale>
<asrwt>0</asrwt>
<pdfrwt beam="1">  1        1 0.70823474E-01 0.10177388E+03</pdfrwt>
<pdfrwt beam="2">  1       -1 0.34548962E-02 0.10177388E+03</pdfrwt>
<totfact> 0.14220805E+04</totfact>
</mgrwt>
</event>
<event>
 8    1  0.2964543E-004  0.1055661E+03  0.7546771E-02  0.1269116E+00
          2   -1    0    0  501    0  0.00000000000E+00  0.00000000000E+00  0.11074587252E+03  0.11074587252E+03  0.00000000000E+00 0. -1.
         -2   -1    0    0    0  501 -0.00000000000E+00 -0.00000000000E+00 -0.20492116403E+03  0.20492116403E+03  0.00000000000E+00 0.  1.
         23    2    1    2    0    0 -0.48712307363E+02 -0.22596492231E+02  0.65600209841E+02  0.12428836271E+03  0.90888498860E+02 0.  0.
         23    2    1    2    0    0  0.48712307363E+02  0.22596492231E+02 -0.15977550135E+03  0.19137867383E+03  0.90631647979E+02 0.  0.
          5    1    3    3  502    0 -0.69777025081E+02 -0.19244534255E+02  0.71305521566E+02  0.10171407343E+03  0.47000000000E+01 0. -1.
         -5    1    4    4    0  503  0.12265992706E+02 -0.28508961601E+02 -0.17824398596E+02  0.36097294274E+02  0.47000000000E+01 0. -1.
          5    1    4    4  503    0  0.36446314657E+02  0.51105453832E+02 -0.14195110276E+03  0.15528137956E+03  0.47000000000E+01 0.  1.
         -5    1    3    3    0  502  0.21064717718E+02 -0.33519579761E+01 -0.57053117246E+01  0.22574289284E+02  0.47000000000E+01 0.  1.
<mgrwt>
<rscale>  0 0.10551083E+03</rscale>
<asrwt>0</asrwt>
<pdfrwt beam="1">  1        2 0.17037827E-01 0.10556614E+03</pdfrwt>
<pdfrwt beam="2">  1       -2 0.31526333E-01 0.10556614E+03</pdfrwt>
<totfact> 0.29664939E+03</totfact>
</mgrwt>
</event>
<event>
 8    1  0.2964543E-004  0.9507228E+02  0.7546771E-02  0.1292862E+00
          1   -1    0    0  501    0  0.00000000000E+00  0.00000000000E+00  0.31456024130E+03  0.31456024130E+03  0.00000000000E+00 0. -1.
         -1   -1    0    0    0  501 -0.00000000000E+00 -0.00000000000E+00 -0.27980499244E+02  0.27980499244E+02  0.00000000000E+00 0.  1.
         23    2    1    2    0    0 -0.13556106224E+00 -0.24953859897E+02  0.13081553906E+03  0.16171407729E+03  0.91738890513E+02 0.  0.
         23    2    1    2    0    0  0.13556106224E+00  0.24953859897E+02  0.15576420299E+03  0.18082666326E+03  0.88391638231E+02 0.  0.
          5    1    4    4  502    0  0.35298714847E+02  0.31317293772E+02  0.12409655109E+03  0.13284884701E+03  0.47000000000E+01 0. -1.
         -5    1    3    3    0  503  0.28326688406E+02 -0.49111854743E+02  0.70037904374E+02  0.90231777116E+02  0.47000000000E+01 0.  1.
          5    1    3    3  503    0 -0.28462249468E+02  0.24157994846E+02  0.60777634686E+02  0.71482300171E+02  0.47000000000E+01 0. -1.
         -5    1    4    4    0  502 -0.35163153785E+02 -0.63634338751E+01  0.31667651907E+02  0.47977816250E+02  0.47000000000E+01 0.  1.
<mgrwt>
<rscale>  0 0.94255384E+02</rscale>
<asrwt>0</asrwt>
<pdfrwt beam="1">  1        1 0.48393881E-01 0.95072275E+02</pdfrwt>
<pdfrwt beam="2">  1       -1 0.43046924E-02 0.95072275E+02</pdfrwt>
<totfact> 0.16478389E+04</totfact>
</mgrwt>
</event>
<event>
 8    1  0.2964543E-004  0.1303248E+03  0.7546771E-02  0.1227383E+00
          2   -1    0    0  501    0  0.00000000000E+00  0.00000000000E+00  0.12868908626E+03  0.12868908626E+03  0.00000000000E+00 0. -1.
         -2   -1    0    0    0  501 -0.00000000000E+00 -0.00000000000E+00 -0.13182597733E+03  0.13182597733E+03  0.00000000000E+00 0.  1.
         23    2    1    2    0    0 -0.77004384672E+02 -0.52987675771E+02  0.95181965155E+01  0.13067195394E+03  0.90814065202E+02 0.  0.
         23    2    1    2    0    0  0.77004384672E+02  0.52987675771E+02 -0.12655087584E+02  0.12984310966E+03  0.89228430678E+02 0.  0.
          5    1    4    4  502    0  0.51778494566E+02  0.69634794671E+02  0.15495662807E+02  0.88273567358E+02  0.47000000000E+01 0. -1.
         -5    1    3    3    0  503 -0.57141787818E+02  0.57301868402E+01 -0.21118071195E+02  0.61368411151E+02  0.47000000000E+01 0.  1.
          5    1    3    3  503    0 -0.19862596854E+02 -0.58717862611E+02  0.30636267711E+02  0.69303542785E+02  0.47000000000E+01 0. -1.
         -5    1    4    4    0  502  0.25225890106E+02 -0.16647118900E+02 -0.28150750391E+02  0.41569542299E+02  0.47000000000E+01 0.  1.
<mgrwt>
<rscale>  0 0.13004899E+03</rscale>
<asrwt>0</asrwt>
<pdfrwt beam="1">  1        2 0.19798321E-01 0.13032484E+03</pdfrwt>
<pdfrwt beam="2">  1       -2 0.20280919E-01 0.13032484E+03</pdfrwt>
<totfact> 0.54739557E+03</totfact>
</mgrwt>
</event>
<event>
 8    1  0.3201648E-004  0.9673021E+02  0.7546771E-02  0.1292281E+00
         -2   -1    0    0    0  501 -0.00000000000E+00  0.00000000000E+00  0.89961339173E+02  0.89961339173E+02  0.00000000000E+00 0.  1.
          2   -1    0    0  501    0  0.00000000000E+00 -0.00000000000E+00 -0.18875482514E+03  0.18875482514E+03  0.00000000000E+00 0. -1.
         23    2    1    2    0    0 -0.19503147178E+02 -0.15997001111E+02 -0.14640992597E+03  0.17090123863E+03  0.84469462812E+02 0.  0.
         23    2    1    2    0    0  0.19503147178E+02  0.15997001111E+02  0.47616440003E+02  0.10781492568E+03  0.93383382073E+02 0.  0.
          5    1    3    3  502    0  0.10756147078E+02 -0.44424260587E+02 -0.68291981316E+02  0.82310961243E+02  0.47000000000E+01 0. -1.
         -5    1    3    3    0  502 -0.30259294256E+02  0.28427259476E+02 -0.78117944654E+02  0.88590277385E+02  0.47000000000E+01 0.  1.
          5    1    4    4  503    0  0.17370339245E+02 -0.37763828397E+02  0.28077100646E+02  0.50381038113E+02  0.47000000000E+01 0. -1.
         -5    1    4    4    0  503  0.21328079334E+01  0.53760829508E+02  0.19539339357E+02  0.57433887571E+02  0.47000000000E+01 0.  1.
<mgrwt>
<rscale>  0 0.94511306E+02</rscale>
<asrwt>0</asrwt>
<pdfrwt beam="1">  1        2 0.29039204E-01 0.96730206E+02</pdfrwt>
<pdfrwt beam="2">  1       -2 0.13840206E-01 0.96730206E+02</pdfrwt>
<totfact> 0.65936085E+03</totfact>
</mgrwt>
</event>
<event>
 8    1  0.2964543E-004  0.1510518E+03  0.7546771E-02  0.1199412E+00
          1   -1    0    0  501    0  0.00000000000E+00  0.00000000000E+00  0.33863727996E+03  0.33863727996E+03  0.00000000000E+00 0. -1.
         -1   -1    0    0    0  501 -0.00000000000E+00 -0.00000000000E+00 -0.81247871636E+02  0.81247871636E+02  0.00000000000E+00 0.  1.
         23    2    1    2    0    0 -0.20649640364E+02  0.11861268025E+03  0.21672034179E+03  0.26416726926E+03  0.91220962705E+02 0.  0.
         23    2    1    2    0    0  0.20649640364E+02 -0.11861268025E+03  0.40669066528E+02  0.15571788233E+03  0.89992834950E+02 0.  0.
          5    1    3    3  502    0  0.55003015039E+01  0.49299055897E+02  0.16834563939E+03  0.17556478728E+03  0.47000000000E+01 0. -1.
         -5    1    3    3    0  502 -0.26149941868E+02  0.69313624356E+02  0.48374702399E+02  0.88602481981E+02  0.47000000000E+01 0.  1.
          5    1    4    4  503    0  0.41946696111E+02 -0.25182931472E+02 -0.51070669835E+01  0.49415356776E+02  0.47000000000E+01 0. -1.
         -5    1    4    4    0  503 -0.21297055747E+02 -0.93429748781E+02  0.45776133512E+02  0.10630252556E+03  0.47000000000E+01 0.  1.
<mgrwt>
<rscale>  0 0.15086682E+03</rscale>
<asrwt>0</asrwt>
<pdfrwt beam="1">  1        1 0.52098042E-01 0.15105178E+03</pdfrwt>
<pdfrwt beam="2">  1       -1 0.12499673E-01 0.15105178E+03</pdfrwt>
<totfact> 0.31407318E+03</totfact>
</mgrwt>
</event>
<event>
 7    1  0.2964543E-004  0.1654119E+03  0.7546771E-02  0.1205769E+00
         -2   -1    0    0    0  501 -0.00000000000E+00  0.00000000000E+00  0.44116768082E+02  0.44116768082E+02  0.00000000000E+00 0.  1.
          2   -1    0    0  501    0  0.00000000000E+00 -0.00000000000E+00 -0.46569861028E+03  0.46569861028E+03  0.00000000000E+00 0. -1.
         23    2    1    2    0    0 -0.34486913839E+02 -0.14768423350E+02 -0.26041260446E+03  0.27886812846E+03  0.92440548217E+02 0.  0.
          5    1    1    2  502    0 -0.14382090905E+02  0.72900154869E+02 -0.12770567935E+03  0.14782458408E+03  0.47000000000E+01 0. -1.
         -5    1    3    3    0  503  0.28749138625E+02 -0.10297743417E+02 -0.47468528021E+02  0.56638393724E+02  0.47000000000E+01 0.  1.
          5    1    3    3  503    0 -0.63236052464E+02 -0.44706799334E+01 -0.21294407644E+03  0.22222973474E+03  0.47000000000E+01 0. -1.
         -5    1    1    2    0  502  0.48869004744E+02 -0.58131731518E+02 -0.33463558383E+02  0.83122665824E+02  0.47000000000E+01 0.  1.
<mgrwt>
<rscale>  0 0.14576988E+03</rscale>
<asrwt>0</asrwt>
<pdfrwt beam="1">  1        2 0.71645940E-01 0.16541194E+03</pdfrwt>
<pdfrwt beam="2">  1       -2 0.67871951E-02 0.16541194E+03</pdfrwt>
<totfact> 0.79737898E+03</totfact>
</mgrwt>
</event>
<event>
 8    1  0.2964543E-004  0.9537278E+02  0.7546771E-02  0.1293220E+00
          1   -1    0    0  501    0  0.00000000000E+00  0.00000000000E+00  0.14850671599E+03  0.14850671599E+03  0.00000000000E+00 0. -1.
         -1   -1    0    0    0  501 -0.00000000000E+00 -0.00000000000E+00 -0.58646221677E+02  0.58646221677E+02  0.00000000000E+00 0.  1.
         23    2    1    2    0    0  0.71322196421E+01  0.17922030087E+02  0.35974786127E+02  0.10193209663E+03  0.93401816727E+02 0.  0.
         23    2    1    2    0    0 -0.71322196421E+01 -0.17922030087E+02  0.53885708187E+02  0.10522084103E+03  0.88293194083E+02 0.  0.
          5    1    3    3  502    0 -0.35836941566E+02 -0.65578541701E+01  0.37146669541E+02  0.52242290246E+02  0.47000000000E+01 0. -1.
         -5    1    4    4    0  503  0.13727281602E+02  0.22000188743E+02 -0.88910061410E+01  0.27813424009E+02  0.47000000000E+01 0.  1.
          5    1    4    4  503    0 -0.20859501244E+02 -0.39922218830E+02  0.62776714328E+02  0.77407417024E+02  0.47000000000E+01 0. -1.
         -5    1    3    3    0  502  0.42969161208E+02  0.24479884257E+02 -0.11718834142E+01  0.49689806388E+02  0.47000000000E+01 0.  1.
<mgrwt>
<rscale>  0 0.94098169E+02</rscale>
<asrwt>0</asrwt>
<pdfrwt beam="1">  1        1 0.22847187E-01 0.95372780E+02</pdfrwt>
<pdfrwt beam="2">  1       -1 0.90224957E-02 0.95372780E+02</pdfrwt>
<totfact> 0.13883010E+04</totfact>
</mgrwt>
</event>
<event>
 8    1  0.2964543E-004  0.1023220E+03  0.7546771E-02  0.1275601E+00
         -2   -1    0    0    0  501 -0.00000000000E+00  0.00000000000E+00  0.22314263491E+02  0.22314263491E+02  0.00000000000E+00 0.  1.
          2   -1    0    0  501    0  0.00000000000E+00 -0.00000000000E+00 -0.49115404862E+03  0.49115404862E+03  0.00000000000E+00 0. -1.
         23    2    1    2    0    0  0.43809419352E+02  0.11138209321E+02 -0.17913506062E+03  0.20629870111E+03  0.91795747203E+02 0.  0.
         23    2    1    2    0    0 -0.43809419352E+02 -0.11138209321E+02 -0.28970472451E+03  0.30716961100E+03  0.91547897795E+02 0.  0.
          5    1    4    4  502    0 -0.46087980293E+02 -0.39781485395E+02 -0.25328689177E+03  0.26054367781E+03  0.47000000000E+01 0. -1.
         -5    1    4    4    0  502  0.22785609415E+01  0.28643276075E+02 -0.36417832743E+02  0.46625933191E+02  0.47000000000E+01 0.  1.
          5    1    3    3  503    0  0.12849988495E+02 -0.37653457406E+02 -0.10362063432E+03  0.11109559360E+03  0.47000000000E+01 0. -1.
         -5    1    3    3    0  503  0.30959430856E+02  0.48791666727E+02 -0.75514426298E+02  0.95203107512E+02  0.47000000000E+01 0.  1.
<mgrwt>
<rscale>  0 0.10226634E+03</rscale>
<asrwt>0</asrwt>
<pdfrwt beam="1">  1        2 0.75562162E-01 0.10232196E+03</pdfrwt>
<pdfrwt beam="2">  1       -2 0.34329636E-02 0.10232196E+03</pdfrwt>
<totfact> 0.20134623E+04</totfact>
</mgrwt>
</event>
<event>
 8    1  0.2964543E-004  0.1029663E+03  0.7546771E-02  0.1275288E+00
          2   -1    0    0  501    0  0.00000000000E+00  0.00000000000E+00  0.21348010451E+03  0.21348010451E+03  0.00000000000E+00 0. -1.
         -2   -1    0    0    0  501 -0.00000000000E+00 -0.00000000000E+00 -0.79151694686E+02  0.79151694686E+02  0.00000000000E+00 0.  1.
         23    2    1    2    0    0 -0.39180185541E+02  0.22340855855E+02 -0.23262690402E+02  0.10556138236E+03  0.92562691741E+02 0.  0.
         23    2    1    2    0    0  0.39180185541E+02 -0.22340855855E+02  0.15759110023E+03  0.18707041684E+03  0.90145355977E+02 0.  0.
          5    1    3    3  502    0 -0.53504251196E+02  0.48754632801E+02 -0.17207000395E+02  0.74551257389E+02  0.47000000000E+01 0. -1.
         -5    1    4    4    0  503 -0.48799308229E+01 -0.40364682252E+02  0.29825581836E+02  0.50643623785E+02  0.47000000000E+01 0.  1.
          5    1    4    4  503    0  0.44060116364E+02  0.18023826397E+02  0.12776551839E+03  0.13642679305E+03  0.47000000000E+01 0. -1.
         -5    1    3    3    0  502  0.14324065655E+02 -0.26413776947E+02 -0.60556900065E+01  0.31010124974E+02  0.47000000000E+01 0.  1.
<mgrwt>
<rscale>  0 0.10242006E+03</rscale>
<asrwt>0</asrwt>
<pdfrwt beam="1">  1        2 0.32843093E-01 0.10296627E+03</pdfrwt>
<pdfrwt beam="2">  1       -2 0.12177184E-01 0.10296627E+03</pdfrwt>
<totfact> 0.71250297E+03</totfact>
</mgrwt>
</event>
<event>
 8    1  0.2964543E-004  0.1550726E+03  0.7546771E-02  0.1194869E+00
          1   -1    0    0  501    0  0.00000000000E+00  0.00000000000E+00  0.13455655108E+03  0.13455655108E+03  0.00000000000E+00 0. -1.
         -1   -1    0    0    0  501 -0.00000000000E+00 -0.00000000000E+00 -0.34881234771E+03  0.34881234771E+03  0.00000000000E+00 0.  1.
         23    2    1    2    0    0  0.12179123303E+03  0.26177413043E+02 -0.27655414858E+03  0.31625036074E+03  0.89519451358E+02 0.  0.
         23    2    1    2    0    0 -0.12179123303E+03 -0.26177413043E+02  0.62298351946E+02  0.16711853805E+03  0.92353449901E+02 0.  0.
          5    1    4    4  502    0 -0.10213546000E+03  0.14950432872E+02  0.63490783184E+02  0.12127793361E+03  0.47000000000E+01 0. -1.
         -5    1    4    4    0  502 -0.19655773034E+02 -0.41127845915E+02 -0.11924312376E+01  0.45840604440E+02  0.47000000000E+01 0.  1.
          5    1    3    3  503    0  0.65461292046E+02 -0.16741433033E+02 -0.68110416499E+02  0.96055063230E+02  0.47000000000E+01 0. -1.
         -5    1    3    3    0  503  0.56329940988E+02  0.42918846076E+02 -0.20844373208E+03  0.22019529751E+03  0.47000000000E+01 0.  1.
<mgrwt>
<rscale>  0 0.15465321E+03</rscale>
<asrwt>0</asrwt>
<pdfrwt beam="1">  1        1 0.20701008E-01 0.15507263E+03</pdfrwt>
<pdfrwt beam="2">  1       -1 0.53663438E-01 0.15507263E+03</pdfrwt>
<totfact> 0.87320545E+02</totfact>
</mgrwt>
</event>
<event>
 8    1  0.2964543E-004  0.9644239E+02  0.7546771E-02  0.1288486E+00
          1   -1    0    0  501    0  0.00000000000E+00  0.00000000000E+00  0.45966419522E+03  0.45966419522E+03  0.00000000000E+00 0. -1.
         -1   -1    0    0    0  501 -0.00000000000E+00 -0.00000000000E+00 -0.38125829018E+02  0.38125829018E+02  0.00000000000E+00 0.  1.
         23    2    1    2    0    0  0.93023504301E+01 -0.31049357787E+02  0.38778872541E+02  0.10306738094E+03  0.89824761153E+02 0.  0.
         23    2    1    2    0    0 -0.93023504301E+01  0.31049357787E+02  0.38275949366E+03  0.39472264330E+03  0.90832476575E+02 0.  0.
          5    1    4    4  502    0  0.13863092618E+02  0.57023749688E+02  0.28015892670E+03  0.28627785031E+03  0.47000000000E+01 0. -1.
         -5    1    3    3    0  503 -0.24327309142E+02  0.13734588884E+02 -0.85504052750E+01  0.29591490876E+02  0.47000000000E+01 0.  1.
          5    1    3    3  503    0  0.33629659572E+02 -0.44783946671E+02  0.47329277816E+02  0.73475890066E+02  0.47000000000E+01 0. -1.
         -5    1    4    4    0  502 -0.23165443049E+02 -0.25974391901E+02  0.10260056696E+03  0.10844479299E+03  0.47000000000E+01 0.  1.
<mgrwt>
<rscale>  0 0.96204389E+02</rscale>
<asrwt>0</asrwt>
<pdfrwt beam="1">  1        1 0.70717564E-01 0.96442393E+02</pdfrwt>
<pdfrwt beam="2">  1       -1 0.58655125E-02 0.96442393E+02</pdfrwt>
<totfact> 0.65445121E+03</totfact>
</mgrwt>
</event>
<event>
 8    1  0.2964543E-004  0.1278590E+03  0.7546771E-02  0.1239692E+00
          1   -1    0    0  501    0  0.00000000000E+00  0.00000000000E+00  0.39671659023E+03  0.39671659023E+03  0.00000000000E+00 0. -1.
         -1   -1    0    0    0  501 -0.00000000000E+00 -0.00000000000E+00 -0.52107110287E+02  0.52107110287E+02  0.00000000000E+00 0.  1.
         23    2    1    2    0    0 -0.31909555264E+02 -0.40271809753E+02  0.31272472562E+03  0.33785303661E+03  0.11708066429E+03 0.  0.
         23    2    1    2    0    0  0.31909555264E+02  0.40271809753E+02  0.31884754322E+02  0.11097066391E+03  0.93047365965E+02 0.  0.
          5    1    4    4  502    0  0.26033233921E+02 -0.18614013113E+02  0.39572279337E+02  0.51110332072E+02  0.47000000000E+01 0. -1.
         -5    1    4    4    0  502  0.58763213428E+01  0.58885822866E+02 -0.76875250150E+01  0.59860331840E+02  0.47000000000E+01 0.  1.
          5    1    3    3  503    0  0.37395808469E+02 -0.53500550221E+01  0.44370033062E+02  0.58462461577E+02  0.47000000000E+01 0. -1.
         -5    1    3    3    0  503 -0.69305363733E+02 -0.34921754731E+02  0.26835469256E+03  0.27939057503E+03  0.47000000000E+01 0.  1.
<mgrwt>
<rscale>  0 0.12208798E+03</rscale>
<asrwt>0</asrwt>
<pdfrwt beam="1">  1        1 0.61033320E-01 0.12785899E+03</pdfrwt>
<pdfrwt beam="2">  1       -1 0.80164787E-02 0.12785899E+03</pdfrwt>
<totfact> 0.50359572E+03</totfact>
</mgrwt>
</event>
<event>
 8    1  0.2964543E-004  0.1347904E+03  0.7546771E-02  0.1221548E+00
          2   -1    0    0  501    0  0.00000000000E+00  0.00000000000E+00  0.19189369152E+04  0.19189369152E+04  0.00000000000E+00 0. -1.
         -2   -1    0    0    0  501 -0.00000000000E+00 -0.00000000000E+00 -0.93263139027E+01  0.93263139027E+01  0.00000000000E+00 0.  1.
         23    2    1    2    0    0  0.31396549472E+02 -0.88649491604E+02  0.88781837476E+03  0.89799216550E+03  0.96560794685E+02 0.  0.
         23    2    1    2    0    0 -0.31396549472E+02  0.88649491604E+02  0.10217922266E+04  0.10302710636E+04  0.92491267643E+02 0.  0.
          5    1    4    4  502    0 -0.59659472311E+02  0.35319356245E+02  0.45867558324E+03  0.46390957117E+03  0.47000000000E+01 0. -1.
         -5    1    3    3    0  503  0.42607374709E+02 -0.10553971333E+03  0.76067031920E+03  0.76915241921E+03  0.47000000000E+01 0.  1.
          5    1    3    3  503    0 -0.11210825237E+02  0.16890221726E+02  0.12714805556E+03  0.12883974629E+03  0.47000000000E+01 0. -1.
         -5    1    4    4    0  502  0.28262922839E+02  0.53330135359E+02  0.56311664332E+03  0.56636149245E+03  0.47000000000E+01 0.  1.
<mgrwt>
<rscale>  0 0.13406339E+03</rscale>
<asrwt>0</asrwt>
<pdfrwt beam="1">  1        2 0.29522075E+00 0.13479044E+03</pdfrwt>
<pdfrwt beam="2">  1       -2 0.14348191E-02 0.13479044E+03</pdfrwt>
<totfact> 0.10125157E+04</totfact>
</mgrwt>
</event>
<event>
 8    1  0.2964543E-004  0.1197102E+03  0.7546771E-02  0.1248867E+00
         -1   -1    0    0    0  501 -0.00000000000E+00  0.00000000000E+00  0.28271193775E+02  0.28271193775E+02  0.00000000000E+00 0.  1.
          1   -1    0    0  501    0  0.00000000000E+00 -0.00000000000E+00 -0.46587480496E+03  0.46587480496E+03  0.00000000000E+00 0. -1.
         23    2    1    2    0    0  0.35885192496E+02 -0.68138628604E+02 -0.17341137585E+03  0.20409760533E+03  0.75191139633E+02 0.  0.
         23    2    1    2    0    0 -0.35885192496E+02  0.68138628604E+02 -0.26419223533E+03  0.29004839340E+03  0.91651042308E+02 0.  0.
          5    1    3    3  502    0  0.10083782024E+02 -0.32641448888E+02 -0.15044177977E+03  0.15434366183E+03  0.47000000000E+01 0. -1.
         -5    1    4    4    0  503  0.23245167070E+02 -0.62778989314E+01 -0.52429583451E+02  0.57885240156E+02  0.47000000000E+01 0.  1.
          5    1    4    4  503    0 -0.59130359566E+02  0.74416527536E+02 -0.21176265188E+03  0.23216315324E+03  0.47000000000E+01 0. -1.
         -5    1    3    3    0  502  0.25801410473E+02 -0.35497179716E+02 -0.22969596077E+02  0.49753943503E+02  0.47000000000E+01 0.  1.
<mgrwt>
<rscale>  0 0.11656878E+03</rscale>
<asrwt>0</asrwt>
<pdfrwt beam="1">  1        1 0.71673049E-01 0.11971021E+03</pdfrwt>
<pdfrwt beam="2">  1       -1 0.43494143E-02 0.11971021E+03</pdfrwt>
<totfact> 0.10143751E+04</totfact>
</mgrwt>
</event>
<event>
 8    1  0.2964543E-004  0.1207604E+03  0.7546771E-02  0.1243453E+00
          3   -1    0    0  501    0  0.00000000000E+00  0.00000000000E+00  0.48166008082E+02  0.48166008082E+02  0.00000000000E+00 0. -1.
         -3   -1    0    0    0  501 -0.00000000000E+00 -0.00000000000E+00 -0.33825870893E+03  0.33825870893E+03  0.00000000000E+00 0.  1.
         23    2    1    2    0    0  0.68948066742E+02  0.26067908488E+02 -0.21353482978E+03  0.24344158110E+03  0.90737578340E+02 0.  0.
         23    2    1    2    0    0 -0.68948066742E+02 -0.26067908488E+02 -0.76557871073E+02  0.14298313591E+03  0.95654052556E+02 0.  0.
          5    1    3    3  502    0  0.74925111325E+02 -0.56586743032E+01 -0.99140064125E+02  0.12448548195E+03  0.47000000000E+01 0. -1.
         -5    1    4    4    0  503 -0.76259966596E+02  0.15547384609E+02 -0.44870102903E+02  0.89959545397E+02  0.47000000000E+01 0.  1.
          5    1    4    4  503    0  0.73118998542E+01 -0.41615293098E+02 -0.31687768170E+02  0.53023590511E+02  0.47000000000E+01 0. -1.
         -5    1    3    3    0  502 -0.59770445827E+01  0.31726582791E+02 -0.11439476565E+03  0.11895609915E+03  0.47000000000E+01 0.  1.
<mgrwt>
<rscale>  0 0.11978467E+03</rscale>
<asrwt>0</asrwt>
<pdfrwt beam="1">  1        3 0.74101550E-02 0.12076038E+03</pdfrwt>
<pdfrwt beam="2">  1       -3 0.52039802E-01 0.12076038E+03</pdfrwt>
<totfact> 0.10080952E+03</totfact>
</mgrwt>
</event>
<event>
 8    1  0.2964543E-004  0.1553589E+03  0.7546771E-02  0.1194175E+00
          3   -1    0    0  501    0  0.00000000000E+00  0.00000000000E+00  0.10616491980E+03  0.10616491980E+03  0.00000000000E+00 0. -1.
         -3   -1    0    0    0  501 -0.00000000000E+00 -0.00000000000E+00 -0.27595410593E+03  0.27595410593E+03  0.00000000000E+00 0.  1.
         23    2    1    2    0    0  0.10784450397E+03 -0.63861765672E+02 -0.42566816111E+01  0.15541718485E+03  0.91802068918E+02 0.  0.
         23    2    1    2    0    0 -0.10784450397E+03  0.63861765672E+02 -0.16553250451E+03  0.22670184088E+03  0.91016220856E+02 0.  0.
          5    1    4    4  502    0 -0.78966682124E+02  0.69510488268E+02 -0.16636400259E+03  0.19689214363E+03  0.47000000000E+01 0. -1.
         -5    1    4    4    0  502 -0.28877821843E+02 -0.56487225957E+01  0.83149807779E+00  0.29809697254E+02  0.47000000000E+01 0.  1.
          5    1    3    3  503    0 -0.36256797230E+01 -0.34648049978E+02  0.15479512945E+02  0.38410132019E+02  0.47000000000E+01 0. -1.
         -5    1    3    3    0  503  0.11147018369E+03 -0.29213715694E+02 -0.19736194556E+02  0.11700705283E+03  0.47000000000E+01 0.  1.
<mgrwt>
<rscale>  0 0.15524299E+03</rscale>
<asrwt>0</asrwt>
<pdfrwt beam="1">  1        3 0.16333065E-01 0.15535888E+03</pdfrwt>
<pdfrwt beam="2">  1       -3 0.42454478E-01 0.15535888E+03</pdfrwt>
<totfact> 0.41900040E+02</totfact>
</mgrwt>
</event>
<event>
 8    1  0.2964543E-004  0.1516984E+03  0.7546771E-02  0.1199844E+00
          1   -1    0    0  501    0  0.00000000000E+00  0.00000000000E+00  0.76626384485E+03  0.76626384485E+03  0.00000000000E+00 0. -1.
         -1   -1    0    0    0  501 -0.00000000000E+00 -0.00000000000E+00 -0.58343403543E+02  0.58343403543E+02  0.00000000000E+00 0.  1.
         23    2    1    2    0    0  0.11214580332E+03  0.22860048796E+02  0.59362829755E+02  0.15854465797E+03  0.92267003762E+02 0.  0.
         23    2    1    2    0    0 -0.11214580332E+03 -0.22860048796E+02  0.64855761156E+03  0.66606259042E+03  0.99564731820E+02 0.  0.
          5    1    3    3  502    0  0.71375699702E+02  0.21789210445E+02  0.82560960173E+02  0.11138968689E+03  0.47000000000E+01 0. -1.
         -5    1    4    4    0  503 -0.65910244451E+02 -0.54033890675E+02  0.26404094687E+03  0.27749510498E+03  0.47000000000E+01 0.  1.
          5    1    4    4  503    0 -0.46235558866E+02  0.31173841879E+02  0.38451666469E+03  0.38856748544E+03  0.47000000000E+01 0. -1.
         -5    1    3    3    0  502  0.40770103615E+02  0.10708383503E+01 -0.23198130418E+02  0.47154971089E+02  0.47000000000E+01 0.  1.
<mgrwt>
<rscale>  0 0.15051291E+03</rscale>
<asrwt>0</asrwt>
<pdfrwt beam="1">  1        1 0.11788674E+00 0.15169838E+03</pdfrwt>
<pdfrwt beam="2">  1       -1 0.89759088E-02 0.15169838E+03</pdfrwt>
<totfact> 0.17609667E+03</totfact>
</mgrwt>
</event>
<event>
 8    1  0.2964543E-004  0.9762414E+02  0.7546771E-02  0.1286320E+00
          1   -1    0    0  501    0  0.00000000000E+00  0.00000000000E+00  0.41878217671E+03  0.41878217671E+03  0.00000000000E+00 0. -1.
         -1   -1    0    0    0  501 -0.00000000000E+00 -0.00000000000E+00 -0.23107181453E+02  0.23107181453E+02  0.00000000000E+00 0.  1.
         23    2    1    2    0    0  0.24807113139E+02 -0.76746195213E+01  0.15972868429E+03  0.18719969111E+03  0.94107274524E+02 0.  0.
         23    2    1    2    0    0 -0.24807113139E+02  0.76746195213E+01  0.23594631097E+03  0.25468966706E+03  0.92313987019E+02 0.  0.
          5    1    3    3  502    0  0.41836198745E+02  0.32475157008E+02  0.77200088299E+02  0.93738183157E+02  0.47000000000E+01 0. -1.
         -5    1    3    3    0  502 -0.17029085607E+02 -0.40149776530E+02  0.82528595991E+02  0.93461507950E+02  0.47000000000E+01 0.  1.
          5    1    4    4  503    0  0.21676469043E+02  0.25930708720E+02  0.16052132718E+03  0.16410806636E+03  0.47000000000E+01 0. -1.
         -5    1    4    4    0  503 -0.46483582182E+02 -0.18256089198E+02  0.75424983783E+02  0.90581600692E+02  0.47000000000E+01 0.  1.
<mgrwt>
<rscale>  0 0.97189365E+02</rscale>
<asrwt>0</asrwt>
<pdfrwt beam="1">  1        1 0.64428022E-01 0.97624135E+02</pdfrwt>
<pdfrwt beam="2">  1       -1 0.35549513E-02 0.97624135E+02</pdfrwt>
<totfact> 0.15316295E+04</totfact>
</mgrwt>
</event>
<event>
 8    1  0.2964543E-004  0.1075949E+03  0.7546771E-02  0.1266728E+00
         -1   -1    0    0    0  501 -0.00000000000E+00  0.00000000000E+00  0.48142557727E+02  0.48142557727E+02  0.00000000000E+00 0.  1.
          1   -1    0    0  501    0  0.00000000000E+00 -0.00000000000E+00 -0.23896738171E+03  0.23896738171E+03  0.00000000000E+00 0. -1.
         23    2    1    2    0    0  0.39019142978E+02 -0.41833122283E+02 -0.74166073819E+02  0.13068006596E+03  0.91127215990E+02 0.  0.
         23    2    1    2    0    0 -0.39019142978E+02  0.41833122283E+02 -0.11665875017E+03  0.15642987348E+03  0.87112213200E+02 0.  0.
          5    1    3    3  502    0  0.12030384182E+02 -0.50854487273E+02 -0.84983664003E+02  0.99876033996E+02  0.47000000000E+01 0.  1.
         -5    1    4    4    0  503  0.21082545422E+02  0.71491462747E+01 -0.26841278332E+01  0.22910228200E+02  0.47000000000E+01 0.  1.
          5    1    4    4  503    0 -0.60101688400E+02  0.34683976008E+02 -0.11397462234E+03  0.13351964528E+03  0.47000000000E+01 0. -1.
         -5    1    3    3    0  502  0.26988758796E+02  0.90213649902E+01  0.10817590184E+02  0.30804031961E+02  0.47000000000E+01 0. -1.
<mgrwt>
<rscale>  0 0.10674016E+03</rscale>
<asrwt>0</asrwt>
<pdfrwt beam="1">  1        1 0.36764212E-01 0.10759495E+03</pdfrwt>
<pdfrwt beam="2">  1       -1 0.74065474E-02 0.10759495E+03</pdfrwt>
<totfact> 0.10483059E+04</totfact>
</mgrwt>
</event>
<event>
 8    1  0.2964543E-004  0.9632031E+02  0.7546771E-02  0.1289075E+00
          1   -1    0    0  501    0  0.00000000000E+00  0.00000000000E+00  0.58179183374E+03  0.58179183374E+03  0.00000000000E+00 0. -1.
         -1   -1    0    0    0  501 -0.00000000000E+00 -0.00000000000E+00 -0.38419198438E+02  0.38419198438E+02  0.00000000000E+00 0.  1.
         23    2    1    2    0    0 -0.27265685201E+02  0.49532581260E+01  0.32320900434E+02  0.10016153743E+03  0.90662785204E+02 0.  0.
         23    2    1    2    0    0  0.27265685201E+02 -0.49532581260E+01  0.51105173487E+03  0.52004949475E+03  0.92247758328E+02 0.  0.
          5    1    4    4  502    0  0.15094134342E+02 -0.47988925057E+02  0.30403004467E+03  0.30819981811E+03  0.47000000000E+01 0. -1.
         -5    1    3    3    0  503  0.21482015826E+02  0.31524123031E+02  0.74793397863E+01  0.39157092084E+02  0.47000000000E+01 0.  1.
          5    1    3    3  503    0 -0.48747701027E+02 -0.26570864905E+02  0.24841560647E+02  0.61004445351E+02  0.47000000000E+01 0. -1.
         -5    1    4    4    0  502  0.12171550859E+02  0.43035666931E+02  0.20702169020E+03  0.21184967664E+03  0.47000000000E+01 0.  1.
<mgrwt>
<rscale>  0 0.95938830E+02</rscale>
<asrwt>0</asrwt>
<pdfrwt beam="1">  1        1 0.89506430E-01 0.96320306E+02</pdfrwt>
<pdfrwt beam="2">  1       -1 0.59106463E-02 0.96320306E+02</pdfrwt>
<totfact> 0.47660304E+03</totfact>
</mgrwt>
</event>
<event>
 8    1  0.2964543E-004  0.1099303E+03  0.7546771E-02  0.1260735E+00
          2   -1    0    0  501    0  0.00000000000E+00  0.00000000000E+00  0.21480873799E+03  0.21480873799E+03  0.00000000000E+00 0. -1.
         -2   -1    0    0    0  501 -0.00000000000E+00 -0.00000000000E+00 -0.14020405716E+03  0.14020405716E+03  0.00000000000E+00 0.  1.
         23    2    1    2    0    0  0.51845459075E+02  0.28627391865E+02 -0.10007636691E+03  0.14866053462E+03  0.92613153208E+02 0.  0.
         23    2    1    2    0    0 -0.51845459075E+02 -0.28627391865E+02  0.17468104774E+03  0.20635226053E+03  0.92521931418E+02 0.  0.
          5    1    4    4  502    0 -0.54523269968E+02 -0.55855599261E+02  0.15021361829E+03  0.16934832758E+03  0.47000000000E+01 0. -1.
         -5    1    3    3    0  503  0.26529041004E+02  0.58515225762E+02 -0.84480649591E+02  0.10623978453E+03  0.47000000000E+01 0.  1.
          5    1    3    3  503    0  0.25316418071E+02 -0.29887833897E+02 -0.15595717322E+02  0.42420750085E+02  0.47000000000E+01 0. -1.
         -5    1    4    4    0  502  0.26778108926E+01  0.27228207396E+02  0.24467429457E+02  0.37003932945E+02  0.47000000000E+01 0.  1.
<mgrwt>
<rscale>  0 0.10991111E+03</rscale>
<asrwt>0</asrwt>
<pdfrwt beam="1">  1        2 0.33047498E-01 0.10993032E+03</pdfrwt>
<pdfrwt beam="2">  1       -2 0.21569855E-01 0.10993032E+03</pdfrwt>
<totfact> 0.27822651E+03</totfact>
</mgrwt>
</event>
<event>
 8    1  0.2964543E-004  0.1113326E+03  0.7546771E-02  0.1258551E+00
          1   -1    0    0  501    0  0.00000000000E+00  0.00000000000E+00  0.42320431096E+03  0.42320431096E+03  0.00000000000E+00 0. -1.
         -1   -1    0    0    0  501 -0.00000000000E+00 -0.00000000000E+00 -0.45233642197E+02  0.45233642197E+02  0.00000000000E+00 0.  1.
         23    2    1    2    0    0  0.43186716394E+01  0.63958646758E+02  0.48342355017E+02  0.12051587733E+03  0.89876214756E+02 0.  0.
         23    2    1    2    0    0 -0.43186716394E+01 -0.63958646758E+02  0.32962831375E+03  0.34792207584E+03  0.91025195461E+02 0.  0.
          5    1    4    4  502    0 -0.14793223001E+02 -0.85388846359E+02  0.26641439295E+03  0.28019424209E+03  0.47000000000E+01 0. -1.
         -5    1    4    4    0  502  0.10474551362E+02  0.21430199600E+02  0.63213920801E+02  0.67727833748E+02  0.47000000000E+01 0.  1.
          5    1    3    3  503    0  0.26482162819E+02 -0.51502394939E+01  0.38322016157E+02  0.47100921825E+02  0.47000000000E+01 0. -1.
         -5    1    3    3    0  503 -0.22163491179E+02  0.69108886252E+02  0.10020338861E+02  0.73414955501E+02  0.47000000000E+01 0.  1.
<mgrwt>
<rscale>  0 0.11109749E+03</rscale>
<asrwt>0</asrwt>
<pdfrwt beam="1">  1        1 0.65108353E-01 0.11133259E+03</pdfrwt>
<pdfrwt beam="2">  1       -1 0.69590222E-02 0.11133259E+03</pdfrwt>
<totfact> 0.56921167E+03</totfact>
</mgrwt>
</event>
<event>
 7    1  0.2964543E-004  0.2320347E+03  0.7546771E-02  0.1129406E+00
         -1   -1    0    0    0  501 -0.00000000000E+00  0.00000000000E+00  0.52918624445E+02  0.52918624445E+02  0.00000000000E+00 0.  1.
          1   -1    0    0  501    0  0.00000000000E+00 -0.00000000000E+00 -0.11446905600E+04  0.11446905600E+04  0.00000000000E+00 0. -1.
         23    2    1    2    0    0 -0.18499881748E+03  0.41184034279E+02 -0.78828989714E+03  0.81558636906E+03  0.88653687555E+02 0.  0.
          5    1    3    3  502    0 -0.12106396751E+03  0.57729813873E+02 -0.62764205830E+03  0.64183008576E+03  0.47000000000E+01 0. -1.
         -5    1    3    3    0  502 -0.63934849964E+02 -0.16545779594E+02 -0.16064783884E+03  0.17375628330E+03  0.47000000000E+01 0.  1.
          5    1    1    2  503    0  0.94572613291E+02 -0.86249251885E+02 -0.13970908666E+03  0.18953530418E+03  0.47000000000E+01 0.  1.
         -5    1    1    2    0  503  0.90426204186E+02  0.45065217606E+02 -0.16377295173E+03  0.19248751118E+03  0.47000000000E+01 0. -1.
<mgrwt>
<rscale>  0 0.22611237E+03</rscale>
<asrwt>0</asrwt>
<pdfrwt beam="1">  1        1 0.17610623E+00 0.23203466E+03</pdfrwt>
<pdfrwt beam="2">  1       -1 0.81413272E-02 0.23203466E+03</pdfrwt>
<totfact> 0.10530278E+03</totfact>
</mgrwt>
</event>
<event>
 8    1  0.2964543E-004  0.1378377E+03  0.7546771E-02  0.1217323E+00
         -1   -1    0    0    0  501 -0.00000000000E+00  0.00000000000E+00  0.92520185209E+02  0.92520185209E+02  0.00000000000E+00 0.  1.
          1   -1    0    0  501    0  0.00000000000E+00 -0.00000000000E+00 -0.35649478474E+03  0.35649478474E+03  0.00000000000E+00 0. -1.
         23    2    1    2    0    0 -0.47081516680E+02 -0.86976135260E+02 -0.28115010267E+03  0.31312076926E+03  0.96008950582E+02 0.  0.
         23    2    1    2    0    0  0.47081516680E+02  0.86976135260E+02  0.17175503145E+02  0.13589420068E+03  0.91600865463E+02 0.  0.
          5    1    4    4  502    0  0.31470784687E+02 -0.12273376406E+02  0.18622733362E+01  0.34155586940E+02  0.47000000000E+01 0. -1.
         -5    1    4    4    0  502  0.15610731993E+02  0.99249511667E+02  0.15313229809E+02  0.10173861374E+03  0.47000000000E+01 0.  1.
          5    1    3    3  503    0  0.11079261558E+02 -0.46307915969E+02 -0.19801129415E+03  0.20370993036E+03  0.47000000000E+01 0. -1.
         -5    1    3    3    0  503 -0.58160778238E+02 -0.40668219291E+02 -0.83138808525E+02  0.10941083890E+03  0.47000000000E+01 0.  1.
<mgrwt>
<rscale>  0 0.13707306E+03</rscale>
<asrwt>0</asrwt>
<pdfrwt beam="1">  1        1 0.54845351E-01 0.13783772E+03</pdfrwt>
<pdfrwt beam="2">  1       -1 0.14233875E-01 0.13783772E+03</pdfrwt>
<totfact> 0.23975622E+03</totfact>
</mgrwt>
</event>
<event>
 8    1  0.2964543E-004  0.1167649E+03  0.7546771E-02  0.1249435E+00
          2   -1    0    0  501    0  0.00000000000E+00  0.00000000000E+00  0.33097082626E+02  0.33097082626E+02  0.00000000000E+00 0. -1.
         -2   -1    0    0    0  501 -0.00000000000E+00 -0.00000000000E+00 -0.49567528637E+03  0.49567528637E+03  0.00000000000E+00 0.  1.
         23    2    1    2    0    0 -0.70493327746E+02  0.43325625938E+01 -0.11625428266E+03  0.16329420349E+03  0.90343003600E+02 0.  0.
         23    2    1    2    0    0  0.70493327746E+02 -0.43325625938E+01 -0.34632392108E+03  0.36547816551E+03  0.92983604984E+02 0.  0.
          5    1    3    3  502    0 -0.38088324454E+02  0.45773367624E+02 -0.45953433451E+02  0.75363981379E+02  0.47000000000E+01 0. -1.
         -5    1    3    3    0  502 -0.32405003292E+02 -0.41440805031E+02 -0.70300849213E+02  0.87930222108E+02  0.47000000000E+01 0.  1.
          5    1    4    4  503    0 -0.21711455294E+02  0.65254470654E+01 -0.54766223031E+02  0.59459212368E+02  0.47000000000E+01 0. -1.
         -5    1    4    4    0  503  0.92204783040E+02 -0.10858009659E+02 -0.29155769805E+03  0.30601895314E+03  0.47000000000E+01 0.  1.
<mgrwt>
<rscale>  0 0.11623839E+03</rscale>
<asrwt>0</asrwt>
<pdfrwt beam="1">  1        2 0.50918589E-02 0.11676485E+03</pdfrwt>
<pdfrwt beam="2">  1       -2 0.76257735E-01 0.11676485E+03</pdfrwt>
<totfact> 0.23074387E+03</totfact>
</mgrwt>
</event>
<event>
 8    1  0.2964543E-004  0.1048481E+03  0.7546771E-02  0.1270774E+00
         -1   -1    0    0    0  501 -0.00000000000E+00  0.00000000000E+00  0.19819353121E+02  0.19819353121E+02  0.00000000000E+00 0.  1.
          1   -1    0    0  501    0  0.00000000000E+00 -0.00000000000E+00 -0.57944988496E+03  0.57944988496E+03  0.00000000000E+00 0. -1.
         23    2    1    2    0    0 -0.33651893440E+01 -0.47722481664E+02 -0.21420270131E+03  0.23848672674E+03  0.93297169453E+02 0.  0.
         23    2    1    2    0    0  0.33651893440E+01  0.47722481664E+02 -0.34542783053E+03  0.36078251134E+03  0.92492565266E+02 0.  0.
          5    1    4    4  502    0  0.27974278203E+01  0.71436759629E+02 -0.18232470543E+03  0.19589646357E+03  0.47000000000E+01 0. -1.
         -5    1    3    3    0  503  0.10591463413E+02  0.20792031991E+02 -0.11241494323E+03  0.11490734160E+03  0.47000000000E+01 0. -1.
          5    1    3    3  503    0 -0.13956652757E+02 -0.68514513655E+02 -0.10178775808E+03  0.12357938514E+03  0.47000000000E+01 0.  1.
         -5    1    4    4    0  502  0.56776152367E+00 -0.23714277964E+02 -0.16310312510E+03  0.16488604778E+03  0.47000000000E+01 0.  1.
<mgrwt>
<rscale>  0 0.10466880E+03</rscale>
<asrwt>0</asrwt>
<pdfrwt beam="1">  1        1 0.89146144E-01 0.10484809E+03</pdfrwt>
<pdfrwt beam="2">  1       -1 0.30491310E-02 0.10484809E+03</pdfrwt>
<totfact> 0.12666761E+04</totfact>
</mgrwt>
</event>
<event>
 8    1  0.2964543E-004  0.1324708E+03  0.7546771E-02  0.1229831E+00
          2   -1    0    0  501    0  0.00000000000E+00  0.00000000000E+00  0.27474691747E+03  0.27474691747E+03  0.00000000000E+00 0. -1.
         -2   -1    0    0    0  501 -0.00000000000E+00 -0.00000000000E+00 -0.56619196620E+02  0.56619196620E+02  0.00000000000E+00 0.  1.
         23    2    1    2    0    0 -0.24408268750E+00 -0.77503466455E+02  0.10377586753E+03  0.15636649503E+03  0.87602529626E+02 0.  0.
         23    2    1    2    0    0  0.24408268750E+00  0.77503466455E+02  0.11435185331E+03  0.17499961906E+03  0.10743218059E+03 0.  0.
          5    1    3    3  502    0 -0.13996240935E+02 -0.42720373732E+02  0.10929017773E+03  0.11826816157E+03  0.47000000000E+01 0. -1.
         -5    1    4    4    0  503  0.47432159322E+02  0.67292333373E+02  0.84353907427E+02  0.11796499297E+03  0.47000000000E+01 0.  1.
          5    1    4    4  503    0 -0.47188076635E+02  0.10211133081E+02  0.29997945887E+02  0.57034626086E+02  0.47000000000E+01 0. -1.
         -5    1    3    3    0  502  0.13752158248E+02 -0.34783092723E+02 -0.55143101952E+01  0.38098333464E+02  0.47000000000E+01 0.  1.
<mgrwt>
<rscale>  0 0.12841185E+03</rscale>
<asrwt>0</asrwt>
<pdfrwt beam="1">  1        2 0.42268756E-01 0.13247083E+03</pdfrwt>
<pdfrwt beam="2">  1       -2 0.87106458E-02 0.13247083E+03</pdfrwt>
<totfact> 0.93983998E+03</totfact>
</mgrwt>
</event>
<event>
 8    1  0.2964543E-004  0.9967141E+02  0.7546771E-02  0.1284969E+00
         -1   -1    0    0    0  501 -0.00000000000E+00  0.00000000000E+00  0.27387587702E+03  0.27387587702E+03  0.00000000000E+00 0.  1.
          1   -1    0    0  501    0  0.00000000000E+00 -0.00000000000E+00 -0.34847544407E+02  0.34847544407E+02  0.00000000000E+00 0. -1.
         23    2    1    2    0    0 -0.13804078487E+02  0.15522304134E+02  0.14331528044E+03  0.17053739224E+03  0.90067963425E+02 0.  0.
         23    2    1    2    0    0  0.13804078487E+02 -0.15522304134E+02  0.95713052174E+02  0.13818602919E+03  0.97482797447E+02 0.  0.
          5    1    4    4  502    0  0.50487489508E+02 -0.26751195955E+02  0.74792243013E+02  0.94236843627E+02  0.47000000000E+01 0. -1.
         -5    1    4    4    0  502 -0.36683411021E+02  0.11228891821E+02  0.20920809161E+02  0.43949185562E+02  0.47000000000E+01 0.  1.
          5    1    3    3  503    0  0.10601912864E+02  0.30731861956E+02  0.10383310798E+02  0.34449253094E+02  0.47000000000E+01 0. -1.
         -5    1    3    3    0  503 -0.24405991351E+02 -0.15209557822E+02  0.13293196965E+03  0.13608813915E+03  0.47000000000E+01 0.  1.
<mgrwt>
<rscale>  0 0.97810147E+02</rscale>
<asrwt>0</asrwt>
<pdfrwt beam="1">  1        1 0.53611608E-02 0.99671412E+02</pdfrwt>
<pdfrwt beam="2">  1       -1 0.42134749E-01 0.99671412E+02</pdfrwt>
<totfact> 0.78176444E+03</totfact>
</mgrwt>
</event>
<event>
 8    1  0.2964543E-004  0.9820991E+02  0.7546771E-02  0.1284818E+00
         -2   -1    0    0    0  501 -0.00000000000E+00  0.00000000000E+00  0.27786245766E+02  0.27786245766E+02  0.00000000000E+00 0.  1.
          2   -1    0    0  501    0  0.00000000000E+00 -0.00000000000E+00 -0.34267662903E+03  0.34267662903E+03  0.00000000000E+00 0. -1.
         23    2    1    2    0    0 -0.31427466609E+02 -0.10018996140E+01 -0.15423003007E+03  0.18284443674E+03  0.93040294554E+02 0.  0.
         23    2    1    2    0    0  0.31427466609E+02  0.10018996140E+01 -0.16066035319E+03  0.18761843806E+03  0.91652821832E+02 0.  0.
          5    1    4    4  502    0  0.56778964067E+02 -0.21908057055E+02 -0.11711966946E+03  0.13207164986E+03  0.47000000000E+01 0. -1.
         -5    1    3    3    0  503 -0.18331103080E+02  0.41373325585E+02 -0.41376395273E+02  0.61496971437E+02  0.47000000000E+01 0.  1.
          5    1    3    3  503    0 -0.13096363529E+02 -0.42375225199E+02 -0.11285363479E+03  0.12134746530E+03  0.47000000000E+01 0. -1.
         -5    1    4    4    0  502 -0.25351497458E+02  0.22909956669E+02 -0.43540683738E+02  0.55546788191E+02  0.47000000000E+01 0.  1.
<mgrwt>
<rscale>  0 0.97879892E+02</rscale>
<asrwt>0</asrwt>
<pdfrwt beam="1">  1        2 0.52719478E-01 0.98209907E+02</pdfrwt>
<pdfrwt beam="2">  1       -2 0.42748073E-02 0.98209907E+02</pdfrwt>
<totfact> 0.21279971E+04</totfact>
</mgrwt>
</event>
<event>
 8    1  0.2964543E-004  0.9245036E+02  0.7546771E-02  0.1297207E+00
         -1   -1    0    0    0  501 -0.00000000000E+00  0.00000000000E+00  0.16427410212E+03  0.16427410212E+03  0.00000000000E+00 0.  1.
          1   -1    0    0  501    0  0.00000000000E+00 -0.00000000000E+00 -0.15609216625E+03  0.15609216625E+03  0.00000000000E+00 0. -1.
         23    2    1    2    0    0  0.89693256856E+01 -0.85000096637E+01  0.13499347592E+03  0.16361634367E+03  0.91620796805E+02 0.  0.
         23    2    1    2    0    0 -0.89693256856E+01  0.85000096637E+01 -0.12681154005E+03  0.15674992470E+03  0.91305384476E+02 0.  0.
          5    1    4    4  502    0 -0.45143216825E+02  0.17422974148E+01 -0.10325710510E+03  0.11280543152E+03  0.47000000000E+01 0. -1.
         -5    1    3    3    0  503  0.34843048261E+02 -0.38596579488E+02  0.82648618393E+02  0.97757956620E+02  0.47000000000E+01 0.  1.
          5    1    3    3  503    0 -0.25873722576E+02  0.30096569824E+02  0.52344857528E+02  0.65858387049E+02  0.47000000000E+01 0. -1.
         -5    1    4    4    0  502  0.36173891139E+02  0.67577122489E+01 -0.23554434952E+02  0.43944493181E+02  0.47000000000E+01 0.  1.
<mgrwt>
<rscale>  0 0.92372119E+02</rscale>
<asrwt>0</asrwt>
<pdfrwt beam="1">  1        1 0.24014179E-01 0.92450362E+02</pdfrwt>
<pdfrwt beam="2">  1       -1 0.25272939E-01 0.92450362E+02</pdfrwt>
<totfact> 0.26187915E+03</totfact>
</mgrwt>
</event>
<event>
 8    1  0.2964543E-004  0.1009554E+03  0.7546771E-02  0.1280322E+00
         -1   -1    0    0    0  501 -0.00000000000E+00  0.00000000000E+00  0.61052683420E+03  0.61052683420E+03  0.00000000000E+00 0.  1.
          1   -1    0    0  501    0  0.00000000000E+00 -0.00000000000E+00 -0.16433862869E+02  0.16433862869E+02  0.00000000000E+00 0. -1.
         23    2    1    2    0    0  0.10798127397E+02 -0.32222246652E+02  0.24473343825E+03  0.26330691323E+03  0.91001109994E+02 0.  0.
         23    2    1    2    0    0 -0.10798127397E+02  0.32222246652E+02  0.34935953308E+03  0.36365378384E+03  0.95063759730E+02 0.  0.
          5    1    3    3  502    0 -0.75582313631E+01  0.29068770891E+02  0.52688223264E+02  0.60829755656E+02  0.47000000000E+01 0. -1.
         -5    1    3    3    0  502  0.18356358760E+02 -0.61291017543E+02  0.19204521499E+03  0.20247715757E+03  0.47000000000E+01 0.  1.
          5    1    4    4  503    0 -0.39713995451E+02  0.37306960404E+02  0.11418318252E+03  0.12660529175E+03  0.47000000000E+01 0. -1.
         -5    1    4    4    0  503  0.28915868054E+02 -0.50847137518E+01  0.23517635056E+03  0.23704849209E+03  0.47000000000E+01 0.  1.
<mgrwt>
<rscale>  0 0.99987581E+02</rscale>
<asrwt>0</asrwt>
<pdfrwt beam="1">  1        1 0.25282871E-02 0.10095539E+03</pdfrwt>
<pdfrwt beam="2">  1       -1 0.93927188E-01 0.10095539E+03</pdfrwt>
<totfact> 0.46939815E+03</totfact>
</mgrwt>
</event>
<event>
 8    1  0.2964543E-004  0.2349006E+03  0.7546771E-02  0.1123368E+00
         -2   -1    0    0    0  501 -0.00000000000E+00  0.00000000000E+00  0.56032129413E+03  0.56032129413E+03  0.00000000000E+00 0.  1.
          2   -1    0    0  501    0  0.00000000000E+00 -0.00000000000E+00 -0.10570324071E+03  0.10570324071E+03  0.00000000000E+00 0. -1.
         23    2    1    2    0    0  0.76661999785E+02 -0.20282907257E+03  0.13867624695E+03  0.27278082730E+03  0.90341482059E+02 0.  0.
         23    2    1    2    0    0 -0.76661999785E+02  0.20282907257E+03  0.31594180647E+03  0.39324370754E+03  0.88344176697E+02 0.  0.
          5    1    3    3  502    0  0.39853614390E+02 -0.19089101623E+03  0.10654544654E+03  0.22226496088E+03  0.47000000000E+01 0. -1.
         -5    1    4    4    0  503 -0.82735833991E+02  0.14897229842E+03  0.18561232191E+03  0.25201584864E+03  0.47000000000E+01 0.  1.
          5    1    4    4  503    0  0.60738342068E+01  0.53856774158E+02  0.13032948456E+03  0.14122785891E+03  0.47000000000E+01 0. -1.
         -5    1    3    3    0  502  0.36808385395E+02 -0.11938056343E+02  0.32130800413E+02  0.50515866416E+02  0.47000000000E+01 0.  1.
<mgrwt>
<rscale>  0 0.23471012E+03</rscale>
<asrwt>0</asrwt>
<pdfrwt beam="1">  1        2 0.16262037E-01 0.23490057E+03</pdfrwt>
<pdfrwt beam="2">  1       -2 0.86203275E-01 0.23490057E+03</pdfrwt>
<totfact> 0.42687485E+02</totfact>
</mgrwt>
</event>
<event>
 8    1  0.2964543E-004  0.1320335E+03  0.7546771E-02  0.1224696E+00
         -2   -1    0    0    0  501 -0.00000000000E+00  0.00000000000E+00  0.16703468555E+03  0.16703468555E+03  0.00000000000E+00 0.  1.
          2   -1    0    0  501    0  0.00000000000E+00 -0.00000000000E+00 -0.10390137744E+03  0.10390137744E+03  0.00000000000E+00 0. -1.
         23    2    1    2    0    0  0.89615259322E+02  0.32207298384E+02  0.29480498905E+02  0.13528472108E+03  0.91458466904E+02 0.  0.
         23    2    1    2    0    0 -0.89615259322E+02 -0.32207298384E+02  0.33652809204E+02  0.13565134192E+03  0.90556999867E+02 0.  0.
          5    1    4    4  502    0 -0.61162792798E+02 -0.59563345334E+02  0.41646860982E+02  0.95106415976E+02  0.47000000000E+01 0. -1.
         -5    1    3    3    0  503  0.81691546355E+02 -0.80535575170E+00  0.49455886519E+02  0.95614497097E+02  0.47000000000E+01 0.  1.
          5    1    3    3  503    0  0.79237129678E+01  0.33012654136E+02 -0.19975387614E+02  0.39670223980E+02  0.47000000000E+01 0. -1.
         -5    1    4    4    0  502 -0.28452466525E+02  0.27356046949E+02 -0.79940517779E+01  0.40544925945E+02  0.47000000000E+01 0.  1.
<mgrwt>
<rscale>  0 0.13187756E+03</rscale>
<asrwt>0</asrwt>
<pdfrwt beam="1">  1        2 0.15984827E-01 0.13203354E+03</pdfrwt>
<pdfrwt beam="2">  1       -2 0.25697644E-01 0.13203354E+03</pdfrwt>
<totfact> 0.46567938E+03</totfact>
</mgrwt>
</event>
<event>
 8    1  0.2964543E-004  0.9167869E+02  0.7546771E-02  0.1298926E+00
          2   -1    0    0  501    0  0.00000000000E+00  0.00000000000E+00  0.11213345680E+03  0.11213345680E+03  0.00000000000E+00 0. -1.
         -2   -1    0    0    0  501 -0.00000000000E+00 -0.00000000000E+00 -0.89399070665E+02  0.89399070665E+02  0.00000000000E+00 0.  1.
         23    2    1    2    0    0 -0.55532288385E+01  0.63871511356E+01  0.52035145144E+02  0.10528536539E+03  0.91135710811E+02 0.  0.
         23    2    1    2    0    0  0.55532288385E+01 -0.63871511356E+01 -0.29300759012E+02  0.96247162071E+02  0.91287171486E+02 0.  0.
          5    1    3    3  502    0  0.33549003847E+02  0.55222448730E+01  0.56011745562E+02  0.65691981919E+02  0.47000000000E+01 0. -1.
         -5    1    3    3    0  502 -0.39102232685E+02  0.86490626255E+00 -0.39766004181E+01  0.39593383471E+02  0.47000000000E+01 0.  1.
          5    1    4    4  503    0  0.14362341507E+02  0.16210642372E+02  0.26901515366E+02  0.34854602403E+02  0.47000000000E+01 0. -1.
         -5    1    4    4    0  503 -0.88091126683E+01 -0.22597793508E+02 -0.56202274378E+02  0.61392559669E+02  0.47000000000E+01 0.  1.
<mgrwt>
<rscale>  0 0.91640961E+02</rscale>
<asrwt>0</asrwt>
<pdfrwt beam="1">  1        2 0.17251301E-01 0.91678687E+02</pdfrwt>
<pdfrwt beam="2">  1       -2 0.13753703E-01 0.91678687E+02</pdfrwt>
<totfact> 0.11783813E+04</totfact>
</mgrwt>
</event>
<event>
 8    1  0.2964543E-004  0.2638082E+03  0.7546771E-02  0.1105665E+00
         -1   -1    0    0    0  501 -0.00000000000E+00  0.00000000000E+00  0.13033502150E+03  0.13033502150E+03  0.00000000000E+00 0.  1.
          1   -1    0    0  501    0  0.00000000000E+00 -0.00000000000E+00 -0.60166215366E+03  0.60166215366E+03  0.00000000000E+00 0. -1.
         23    2    1    2    0    0 -0.65713059990E+02  0.23286756805E+03 -0.10566669217E+03  0.28418339830E+03  0.10511538201E+03 0.  0.
         23    2    1    2    0    0  0.65713059990E+02 -0.23286756805E+03 -0.36566044000E+03  0.44781377686E+03  0.91017091043E+02 0.  0.
          5    1    4    4  502    0 -0.22190226240E+02 -0.58057317836E+02 -0.10009192342E+03  0.11791327927E+03  0.47000000000E+01 0. -1.
         -5    1    3    3    0  503 -0.65487900707E+02  0.58574318862E+02 -0.49759081162E+02  0.10108250159E+03  0.47000000000E+01 0.  1.
          5    1    3    3  503    0 -0.22515928296E+00  0.17429324919E+03 -0.55907611003E+02  0.18310089672E+03  0.47000000000E+01 0. -1.
         -5    1    4    4    0  502  0.87903286230E+02 -0.17481025022E+03 -0.26556851658E+03  0.32990049759E+03  0.47000000000E+01 0.  1.
<mgrwt>
<rscale>  0 0.26247462E+03</rscale>
<asrwt>0</asrwt>
<pdfrwt beam="1">  1        1 0.92563408E-01 0.26380818E+03</pdfrwt>
<pdfrwt beam="2">  1       -1 0.20051542E-01 0.26380818E+03</pdfrwt>
<totfact> 0.70621521E+02</totfact>
</mgrwt>
</event>
<event>
 8    1  0.2964543E-004  0.9826740E+02  0.7546771E-02  0.1285105E+00
         -3   -1    0    0    0  501 -0.00000000000E+00  0.00000000000E+00  0.76363512099E+02  0.76363512099E+02  0.00000000000E+00 0.  1.
          3   -1    0    0  501    0  0.00000000000E+00 -0.00000000000E+00 -0.31325403656E+03  0.31325403656E+03  0.00000000000E+00 0. -1.
         23    2    1    2    0    0  0.10826310519E+01  0.35019259519E+02  0.33541888354E+02  0.10188473423E+03  0.89598661644E+02 0.  0.
         23    2    1    2    0    0 -0.10826310519E+01 -0.35019259519E+02 -0.27043241282E+03  0.28773281443E+03  0.91809378436E+02 0.  0.
          5    1    3    3  502    0 -0.28624421040E+02 -0.15595323936E+02 -0.22017619477E+01  0.33007716738E+02  0.47000000000E+01 0. -1.
         -5    1    4    4    0  503  0.19705132747E+02  0.26195134867E+02 -0.80512922901E+02  0.87056867055E+02  0.47000000000E+01 0.  1.
          5    1    4    4  503    0 -0.20787763798E+02 -0.61214394387E+02 -0.18991948992E+03  0.20067594737E+03  0.47000000000E+01 0. -1.
         -5    1    3    3    0  502  0.29707052092E+02  0.50614583456E+02  0.35743650302E+02  0.68877017497E+02  0.47000000000E+01 0.  1.
<mgrwt>
<rscale>  0 0.97747745E+02</rscale>
<asrwt>0</asrwt>
<pdfrwt beam="1">  1        3 0.48192929E-01 0.98267404E+02</pdfrwt>
<pdfrwt beam="2">  1       -3 0.11748232E-01 0.98267404E+02</pdfrwt>
<totfact> 0.53412657E+02</totfact>
</mgrwt>
</event>
<event>
 8    1  0.2964543E-004  0.2787199E+03  0.7546771E-02  0.1097040E+00
          1   -1    0    0  501    0  0.00000000000E+00  0.00000000000E+00  0.18186279533E+03  0.18186279533E+03  0.00000000000E+00 0. -1.
         -1   -1    0    0    0  501 -0.00000000000E+00 -0.00000000000E+00 -0.58529022442E+03  0.58529022442E+03  0.00000000000E+00 0.  1.
         23    2    1    2    0    0 -0.98899388266E+02 -0.24411481664E+03  0.33445337118E+01  0.27405243663E+03  0.75633454334E+02 0.  0.
         23    2    1    2    0    0  0.98899388266E+02  0.24411481664E+03 -0.40677196281E+03  0.49310058312E+03  0.91168100979E+02 0.  0.
          5    1    3    3  502    0 -0.14711009729E+02 -0.70171973494E+02 -0.30057992106E+02  0.77885124130E+02  0.47000000000E+01 0. -1.
         -5    1    4    4    0  503 -0.12274198485E+02  0.30137092030E+02 -0.83758911900E+02  0.89980806770E+02  0.47000000000E+01 0.  1.
          5    1    4    4  503    0  0.11117358675E+03  0.21397772461E+03 -0.32301305091E+03  0.40311977635E+03  0.47000000000E+01 0. -1.
         -5    1    3    3    0  502 -0.84188378538E+02 -0.17394284315E+03  0.33402525818E+02  0.19616731250E+03  0.47000000000E+01 0.  1.
<mgrwt>
<rscale>  0 0.27754043E+03</rscale>
<asrwt>0</asrwt>
<pdfrwt beam="1">  1        1 0.27978892E-01 0.27871985E+03</pdfrwt>
<pdfrwt beam="2">  1       -1 0.90044650E-01 0.27871985E+03</pdfrwt>
<totfact> 0.21130145E+02</totfact>
</mgrwt>
</event>
<event>
 8    1  0.2964543E-004  0.9172688E+02  0.7546771E-02  0.1299128E+00
         -1   -1    0    0    0  501 -0.00000000000E+00  0.00000000000E+00  0.18382878797E+02  0.18382878797E+02  0.00000000000E+00 0.  1.
          1   -1    0    0  501    0  0.00000000000E+00 -0.00000000000E+00 -0.73881287902E+03  0.73881287902E+03  0.00000000000E+00 0. -1.
         23    2    1    2    0    0  0.13864594351E+02  0.53451650421E+01 -0.12609916776E+03  0.15593210359E+03  0.90515319444E+02 0.  0.
         23    2    1    2    0    0 -0.13864594351E+02 -0.53451650421E+01 -0.59433083246E+03  0.60126365423E+03  0.89822300758E+02 0.  0.
          5    1    4    4  502    0 -0.42988273174E+02 -0.21135020142E+02 -0.47171469073E+03  0.47416402242E+03  0.47000000000E+01 0. -1.
         -5    1    3    3    0  503  0.33841625777E+02 -0.30844866108E+02 -0.42952851371E+02  0.62957913254E+02  0.47000000000E+01 0.  1.
          5    1    3    3  503    0 -0.19977031426E+02  0.36190031150E+02 -0.83146316388E+02  0.92974190333E+02  0.47000000000E+01 0. -1.
         -5    1    4    4    0  502  0.29123678823E+02  0.15789855100E+02 -0.12261614173E+03  0.12709963181E+03  0.47000000000E+01 0.  1.
<mgrwt>
<rscale>  0 0.91555453E+02</rscale>
<asrwt>0</asrwt>
<pdfrwt beam="1">  1        1 0.11366353E+00 0.91726882E+02</pdfrwt>
<pdfrwt beam="2">  1       -1 0.28281350E-02 0.91726882E+02</pdfrwt>
<totfact> 0.99892630E+03</totfact>
</mgrwt>
</event>
<event>
 8    1  0.2964543E-004  0.1076228E+03  0.7546771E-02  0.1265331E+00
         -1   -1    0    0    0  501 -0.00000000000E+00  0.00000000000E+00  0.93825539141E+02  0.93825539141E+02  0.00000000000E+00 0.  1.
          1   -1    0    0  501    0  0.00000000000E+00 -0.00000000000E+00 -0.12319028427E+03  0.12319028427E+03  0.00000000000E+00 0. -1.
         23    2    1    2    0    0  0.32276338202E+02  0.42488449383E+02 -0.21258818428E+02  0.10970236686E+03  0.93464654258E+02 0.  0.
         23    2    1    2    0    0 -0.32276338202E+02 -0.42488449383E+02 -0.81059266967E+01  0.10731345654E+03  0.92754738796E+02 0.  0.
          5    1    4    4  502    0 -0.62053781136E+02 -0.11971559418E+02 -0.10999180572E+02  0.64319996590E+02  0.47000000000E+01 0. -1.
         -5    1    3    3    0  503  0.28688530343E+01 -0.29271878839E+02 -0.84354143989E+01  0.30956734721E+02  0.47000000000E+01 0.  1.
          5    1    3    3  503    0  0.29407485168E+02  0.71760328222E+02 -0.12823404029E+02  0.78745632141E+02  0.47000000000E+01 0. -1.
         -5    1    4    4    0  502  0.29777442934E+02 -0.30516889965E+02  0.28932538748E+01  0.42993459954E+02  0.47000000000E+01 0.  1.
<mgrwt>
<rscale>  0 0.10746850E+03</rscale>
<asrwt>0</asrwt>
<pdfrwt beam="1">  1        1 0.18952351E-01 0.10762282E+03</pdfrwt>
<pdfrwt beam="2">  1       -1 0.14434698E-01 0.10762282E+03</pdfrwt>
<totfact> 0.86637807E+03</totfact>
</mgrwt>
</event>
<event>
 8    1  0.2964543E-004  0.1121902E+03  0.7546771E-02  0.1257866E+00
         -2   -1    0    0    0  501 -0.00000000000E+00  0.00000000000E+00  0.47161889520E+02  0.47161889520E+02  0.00000000000E+00 0.  1.
          2   -1    0    0  501    0  0.00000000000E+00 -0.00000000000E+00 -0.31986393916E+03  0.31986393916E+03  0.00000000000E+00 0. -1.
         23    2    1    2    0    0 -0.27383271301E+02 -0.56995589169E+02 -0.58497731451E+02  0.12652516618E+03  0.92673040093E+02 0.  0.
         23    2    1    2    0    0  0.27383271301E+02  0.56995589169E+02 -0.21420431819E+03  0.24050066250E+03  0.89211759318E+02 0.  0.
          5    1    4    4  502    0  0.38843238538E+02  0.34301035872E+02 -0.20731329790E+03  0.21374342499E+03  0.47000000000E+01 0. -1.
         -5    1    3    3    0  503 -0.57614932244E+02 -0.22550682182E+02 -0.49977419441E+02  0.79673371577E+02  0.47000000000E+01 0.  1.
          5    1    3    3  503    0  0.30231660944E+02 -0.34444906987E+02 -0.85203120100E+01  0.46851794603E+02  0.47000000000E+01 0. -1.
         -5    1    4    4    0  502 -0.11459967238E+02  0.22694553297E+02 -0.68910202904E+01  0.26757237508E+02  0.47000000000E+01 0.  1.
<mgrwt>
<rscale>  0 0.11147288E+03</rscale>
<asrwt>0</asrwt>
<pdfrwt beam="1">  1        2 0.49209837E-01 0.11219016E+03</pdfrwt>
<pdfrwt beam="2">  1       -2 0.72556752E-02 0.11219016E+03</pdfrwt>
<totfact> 0.10469745E+04</totfact>
</mgrwt>
</event>
<event>
 8    1  0.2964543E-004  0.1052465E+03  0.7546771E-02  0.1270736E+00
         -2   -1    0    0    0  501 -0.00000000000E+00  0.00000000000E+00  0.23043959146E+03  0.23043959146E+03  0.00000000000E+00 0.  1.
          2   -1    0    0  501    0  0.00000000000E+00 -0.00000000000E+00 -0.49703655033E+02  0.49703655033E+02  0.00000000000E+00 0. -1.
         23    2    1    2    0    0 -0.16345431627E+02  0.46307104194E+02  0.58983570903E+02  0.12064782294E+03  0.93087671101E+02 0.  0.
         23    2    1    2    0    0  0.16345431627E+02 -0.46307104194E+02  0.12175236552E+03  0.15949542355E+03  0.90573895733E+02 0.  0.
          5    1    4    4  502    0  0.40097602725E+01 -0.70712013139E+02  0.10605443912E+03  0.12761622560E+03  0.47000000000E+01 0. -1.
         -5    1    4    4    0  502  0.12335671354E+02  0.24404908945E+02  0.15697926406E+02  0.31879197949E+02  0.47000000000E+01 0.  1.
          5    1    3    3  503    0  0.14066619994E+02 -0.19363572876E+02 -0.38480980367E+01  0.24692420114E+02  0.47000000000E+01 0. -1.
         -5    1    3    3    0  503 -0.30412051621E+02  0.65670677070E+02  0.62831668940E+02  0.95955402831E+02  0.47000000000E+01 0.  1.
<mgrwt>
<rscale>  0 0.10468794E+03</rscale>
<asrwt>0</asrwt>
<pdfrwt beam="1">  1        2 0.76467163E-02 0.10524655E+03</pdfrwt>
<pdfrwt beam="2">  1       -2 0.35452244E-01 0.10524655E+03</pdfrwt>
<totfact> 0.62587436E+03</totfact>
</mgrwt>
</event>
<event>
 8    1  0.2964543E-004  0.2440916E+03  0.7546771E-02  0.1117336E+00
         -1   -1    0    0    0  501 -0.00000000000E+00  0.00000000000E+00  0.54191418268E+02  0.54191418268E+02  0.00000000000E+00 0.  1.
          1   -1    0    0  501    0  0.00000000000E+00 -0.00000000000E+00 -0.15400351174E+04  0.15400351174E+04  0.00000000000E+00 0. -1.
         23    2    1    2    0    0 -0.16081711772E+03  0.15627157442E+03 -0.31181566706E+03  0.39509246549E+03  0.92661187879E+02 0.  0.
         23    2    1    2    0    0  0.16081711772E+03 -0.15627157442E+03 -0.11740280320E+04  0.11991340701E+04  0.96424830032E+02 0.  0.
          5    1    4    4  502    0  0.12720954884E+03 -0.59853628610E+02 -0.62012868401E+03  0.63588237977E+03  0.47000000000E+01 0. -1.
         -5    1    3    3    0  503 -0.11201058906E+03  0.15424093085E+03 -0.22119854164E+03  0.29204027399E+03  0.47000000000E+01 0.  1.
          5    1    3    3  503    0 -0.48806528657E+02  0.20306435743E+01 -0.90617125417E+02  0.10305219149E+03  0.47000000000E+01 0. -1.
         -5    1    4    4    0  502  0.33607568880E+02 -0.96417945812E+02 -0.55389934804E+03  0.56325169038E+03  0.47000000000E+01 0.  1.
<mgrwt>
<rscale>  0 0.24372522E+03</rscale>
<asrwt>0</asrwt>
<pdfrwt beam="1">  1        1 0.23692845E+00 0.24409158E+03</pdfrwt>
<pdfrwt beam="2">  1       -1 0.83371424E-02 0.24409158E+03</pdfrwt>
<totfact> 0.54671249E+02</totfact>
</mgrwt>
</event>
<event>
 8    1  0.2964543E-004  0.1326629E+03  0.7546771E-02  0.1224107E+00
         -1   -1    0    0    0  501 -0.00000000000E+00  0.00000000000E+00  0.26856350223E+03  0.26856350223E+03  0.00000000000E+00 0.  1.
          1   -1    0    0  501    0  0.00000000000E+00 -0.00000000000E+00 -0.23470176758E+03  0.23470176758E+03  0.00000000000E+00 0. -1.
         23    2    1    2    0    0  0.51900958557E+02  0.80433689764E+02  0.23100697064E+03  0.26564018988E+03  0.89650443634E+02 0.  0.
         23    2    1    2    0    0 -0.51900958557E+02 -0.80433689764E+02 -0.19714523600E+03  0.23762507993E+03  0.91848498022E+02 0.  0.
          5    1    3    3  502    0  0.10201953119E+02  0.31184886474E+02  0.89275155137E+01  0.34327358260E+02  0.47000000000E+01 0. -1.
         -5    1    3    3    0  502  0.41699005439E+02  0.49248803289E+02  0.22207945513E+03  0.23131283162E+03  0.47000000000E+01 0.  1.
          5    1    4    4  503    0 -0.45456063641E+02 -0.40449895394E+01 -0.33353110817E+02  0.56719799570E+02  0.47000000000E+01 0. -1.
         -5    1    4    4    0  503 -0.64448949166E+01 -0.76388700224E+02 -0.16379212518E+03  0.18090528036E+03  0.47000000000E+01 0.  1.
<mgrwt>
<rscale>  0 0.13228318E+03</rscale>
<asrwt>0</asrwt>
<pdfrwt beam="1">  1        1 0.36107964E-01 0.13266286E+03</pdfrwt>
<pdfrwt beam="2">  1       -1 0.41317462E-01 0.13266286E+03</pdfrwt>
<totfact> 0.69650612E+02</totfact>
</mgrwt>
</event>
<event>
 8    1  0.2964543E-004  0.1045925E+03  0.7546771E-02  0.1277630E+00
          1   -1    0    0  501    0  0.00000000000E+00  0.00000000000E+00  0.47134685047E+02  0.47134685047E+02  0.00000000000E+00 0. -1.
         -1   -1    0    0    0  501 -0.00000000000E+00 -0.00000000000E+00 -0.33985185898E+03  0.33985185898E+03  0.00000000000E+00 0.  1.
         23    2    1    2    0    0  0.56900842692E+01  0.12567122425E+02 -0.18903494017E+02  0.93876445090E+02  0.90912789154E+02 0.  0.
         23    2    1    2    0    0 -0.56900842692E+01 -0.12567122425E+02 -0.27381367991E+03  0.29311009893E+03  0.10367877875E+03 0.  0.
          5    1    3    3  502    0 -0.25210519241E+01 -0.38293925305E+02  0.38113612370E+00  0.38665432661E+02  0.47000000000E+01 0.  1.
         -5    1    3    3    0  502  0.82111361933E+01  0.50861047730E+02 -0.19284630141E+02  0.55211012429E+02  0.47000000000E+01 0. -1.
          5    1    4    4  503    0  0.45213012556E+02  0.13164840601E+02 -0.12005136322E+03  0.12904243234E+03  0.47000000000E+01 0. -1.
         -5    1    4    4    0  503 -0.50903096825E+02 -0.25731963026E+02 -0.15376231669E+03  0.16406766660E+03  0.47000000000E+01 0.  1.
<mgrwt>
<rscale>  0 0.10127857E+03</rscale>
<asrwt>0</asrwt>
<pdfrwt beam="1">  1        1 0.72514903E-02 0.10459254E+03</pdfrwt>
<pdfrwt beam="2">  1       -1 0.52284899E-01 0.10459254E+03</pdfrwt>
<totfact> 0.35525300E+03</totfact>
</mgrwt>
</event>
<event>
 8    1  0.2964543E-004  0.9818313E+02  0.7546771E-02  0.1286254E+00
          1   -1    0    0  501    0  0.00000000000E+00  0.00000000000E+00  0.66450267503E+02  0.66450267503E+02  0.00000000000E+00 0. -1.
         -1   -1    0    0    0  501 -0.00000000000E+00 -0.00000000000E+00 -0.15074384039E+03  0.15074384039E+03  0.00000000000E+00 0.  1.
         23    2    1    2    0    0 -0.38168656464E+01  0.36846634902E+02 -0.71015674084E+02  0.11811722458E+03  0.86811346092E+02 0.  0.
         23    2    1    2    0    0  0.38168656464E+01 -0.36846634902E+02 -0.13277898808E+02  0.99076883316E+02  0.90926801571E+02 0.  0.
          5    1    3    3  502    0 -0.12002500976E+02 -0.16444378211E+02  0.79751866430E+01  0.22364507739E+02  0.47000000000E+01 0. -1.
         -5    1    3    3    0  502  0.81856353292E+01  0.53291013114E+02 -0.78990860727E+02  0.95752716843E+02  0.47000000000E+01 0.  1.
          5    1    4    4  503    0 -0.41608824296E+02 -0.97135942575E+01 -0.16050327360E+02  0.45884105974E+02  0.47000000000E+01 0. -1.
         -5    1    4    4    0  503  0.45425689942E+02 -0.27133040645E+02  0.27724285514E+01  0.53192777343E+02  0.47000000000E+01 0.  1.
<mgrwt>
<rscale>  0 0.97219398E+02</rscale>
<asrwt>0</asrwt>
<pdfrwt beam="1">  1        1 0.10223118E-01 0.98183126E+02</pdfrwt>
<pdfrwt beam="2">  1       -1 0.23191360E-01 0.98183126E+02</pdfrwt>
<totfact> 0.89971127E+03</totfact>
</mgrwt>
</event>
<event>
 8    1  0.2964543E-004  0.9791807E+02  0.7546771E-02  0.1286512E+00
          2   -1    0    0  501    0  0.00000000000E+00  0.00000000000E+00  0.33973577752E+03  0.33973577752E+03  0.00000000000E+00 0. -1.
         -2   -1    0    0    0  501 -0.00000000000E+00 -0.00000000000E+00 -0.35177796783E+02  0.35177796783E+02  0.00000000000E+00 0.  1.
         23    2    1    2    0    0  0.25012471994E+02  0.23399372617E+02  0.65557505790E+02  0.11783774940E+03  0.91732187505E+02 0.  0.
         23    2    1    2    0    0 -0.25012471994E+02 -0.23399372617E+02  0.23900047495E+03  0.25707582490E+03  0.88281358902E+02 0.  0.
          5    1    4    4  502    0 -0.19287880548E+01 -0.53046255586E+02  0.17257508770E+03  0.18061527164E+03  0.47000000000E+01 0. -1.
         -5    1    3    3    0  503  0.15553986176E+02  0.57049463212E+02  0.55326126848E+02  0.81114968106E+02  0.47000000000E+01 0.  1.
          5    1    3    3  503    0  0.94584858175E+01 -0.33650090595E+02  0.10231378941E+02  0.36722781295E+02  0.47000000000E+01 0. -1.
         -5    1    4    4    0  502 -0.23083683939E+02  0.29646882969E+02  0.66425387245E+02  0.76460553259E+02  0.47000000000E+01 0.  1.
<mgrwt>
<rscale>  0 0.97101633E+02</rscale>
<asrwt>0</asrwt>
<pdfrwt beam="1">  1        2 0.52267040E-01 0.97918071E+02</pdfrwt>
<pdfrwt beam="2">  1       -2 0.54119690E-02 0.97918071E+02</pdfrwt>
<totfact> 0.15119827E+04</totfact>
</mgrwt>
</event>
<event>
 8    1  0.2964543E-004  0.9355581E+02  0.7546771E-02  0.1295592E+00
          4   -1    0    0  501    0  0.00000000000E+00  0.00000000000E+00  0.23414419333E+03  0.23414419333E+03  0.00000000000E+00 0. -1.
         -4   -1    0    0    0  501 -0.00000000000E+00 -0.00000000000E+00 -0.63168310362E+02  0.63168310362E+02  0.00000000000E+00 0.  1.
         23    2    1    2    0    0  0.17295577366E+02 -0.54422968806E+00 -0.10381155237E+02  0.94130004958E+02  0.91941591606E+02 0.  0.
         23    2    1    2    0    0 -0.17295577366E+02  0.54422968806E+00  0.18135703820E+03  0.20318249873E+03  0.89962877357E+02 0.  0.
          5    1    3    3  502    0  0.21289772079E+02  0.39493754372E+02  0.13519869615E+02  0.47094457253E+02  0.47000000000E+01 0. -1.
         -5    1    4    4    0  503  0.20858256344E+02  0.33385238600E+02  0.97648607383E+02  0.10538966523E+03  0.47000000000E+01 0.  1.
          5    1    4    4  503    0 -0.38153833710E+02 -0.32841008912E+02  0.83708430820E+02  0.97792833498E+02  0.47000000000E+01 0. -1.
         -5    1    3    3    0  502 -0.39941947128E+01 -0.40037984060E+02 -0.23901024852E+02  0.47035547705E+02  0.47000000000E+01 0.  1.
<mgrwt>
<rscale>  0 0.93066016E+02</rscale>
<asrwt>0</asrwt>
<pdfrwt beam="1">  1        4 0.36022183E-01 0.93555809E+02</pdfrwt>
<pdfrwt beam="2">  1       -4 0.97182017E-02 0.93555809E+02</pdfrwt>
<totfact> 0.90417588E+02</totfact>
</mgrwt>
</event>
<event>
 8    1  0.2964543E-004  0.9996979E+02  0.7546771E-02  0.1283962E+00
          1   -1    0    0  501    0  0.00000000000E+00  0.00000000000E+00  0.70984580506E+03  0.70984580506E+03  0.00000000000E+00 0. -1.
         -1   -1    0    0    0  501 -0.00000000000E+00 -0.00000000000E+00 -0.16548186273E+02  0.16548186273E+02  0.00000000000E+00 0.  1.
         23    2    1    2    0    0  0.11852024138E+02 -0.50410752860E+01  0.17307830524E+03  0.19665623273E+03  0.92475354602E+02 0.  0.
         23    2    1    2    0    0 -0.11852024138E+02  0.50410752860E+01  0.52021931354E+03  0.52973775860E+03  0.99136652109E+02 0.  0.
          5    1    4    4  502    0 -0.44473190023E+02  0.33307120633E+02  0.32494025657E+03  0.32968998962E+03  0.47000000000E+01 0. -1.
         -5    1    3    3    0  503  0.40632558380E+02  0.23155033482E+02  0.58097602133E+02  0.74730059210E+02  0.47000000000E+01 0.  1.
          5    1    3    3  503    0 -0.28780534242E+02 -0.28196108768E+02  0.11498070311E+03  0.12192617352E+03  0.47000000000E+01 0. -1.
         -5    1    4    4    0  502  0.32621165885E+02 -0.28266045347E+02  0.19527905697E+03  0.20004776898E+03  0.47000000000E+01 0.  1.
<mgrwt>
<rscale>  0 0.98276807E+02</rscale>
<asrwt>0</asrwt>
<pdfrwt beam="1">  1        1 0.10920702E+00 0.99969789E+02</pdfrwt>
<pdfrwt beam="2">  1       -1 0.25458754E-02 0.99969789E+02</pdfrwt>
<totfact> 0.12383526E+04</totfact>
</mgrwt>
</event>
<event>
 8    1  0.2964543E-004  0.1051905E+03  0.7546771E-02  0.1272668E+00
          2   -1    0    0  501    0  0.00000000000E+00  0.00000000000E+00  0.23884073826E+03  0.23884073826E+03  0.00000000000E+00 0. -1.
         -2   -1    0    0    0  501 -0.00000000000E+00 -0.00000000000E+00 -0.56660154129E+02  0.56660154129E+02  0.00000000000E+00 0.  1.
         23    2    1    2    0    0  0.36144597218E+02 -0.33622126647E+00  0.18792558201E+02  0.10117981394E+03  0.92615601024E+02 0.  0.
         23    2    1    2    0    0 -0.36144597218E+02  0.33622126647E+00  0.16338802593E+03  0.19432107845E+03  0.98785067487E+02 0.  0.
          5    1    3    3  502    0  0.11756389261E+02  0.43484269685E+02 -0.48282054716E+01  0.45546635074E+02  0.47000000000E+01 0. -1.
         -5    1    3    3    0  502  0.24388207957E+02 -0.43820490951E+02  0.23620763672E+02  0.55633178869E+02  0.47000000000E+01 0.  1.
          5    1    4    4  503    0 -0.62903685637E+02  0.25477807680E+02  0.10089523629E+03  0.12168784268E+03  0.47000000000E+01 0. -1.
         -5    1    4    4    0  503  0.26759088419E+02 -0.25141586413E+02  0.62492789644E+02  0.72633235766E+02  0.47000000000E+01 0.  1.
<mgrwt>
<rscale>  0 0.10371700E+03</rscale>
<asrwt>0</asrwt>
<pdfrwt beam="1">  1        2 0.36744729E-01 0.10519047E+03</pdfrwt>
<pdfrwt beam="2">  1       -2 0.87169469E-02 0.10519047E+03</pdfrwt>
<totfact> 0.10689825E+04</totfact>
</mgrwt>
</event>
<event>
 8    1  0.2964543E-004  0.1034195E+03  0.7546771E-02  0.1277130E+00
         -1   -1    0    0    0  501 -0.00000000000E+00  0.00000000000E+00  0.94777817384E+02  0.94777817384E+02  0.00000000000E+00 0.  1.
          1   -1    0    0  501    0  0.00000000000E+00 -0.00000000000E+00 -0.27460774419E+03  0.27460774419E+03  0.00000000000E+00 0. -1.
         23    2    1    2    0    0  0.33960204297E+02  0.24949378190E+02  0.56498983241E+02  0.11141860203E+03  0.86291383245E+02 0.  0.
         23    2    1    2    0    0 -0.33960204297E+02 -0.24949378190E+02 -0.23632891004E+03  0.25796695954E+03  0.94444859816E+02 0.  0.
          5    1    3    3  502    0 -0.17915559984E+02  0.98589944738E+01 -0.11906212341E+02  0.24124986091E+02  0.47000000000E+01 0. -1.
         -5    1    3    3    0  502  0.51875764282E+02  0.15090383716E+02  0.68405195582E+02  0.87293615936E+02  0.47000000000E+01 0.  1.
          5    1    4    4  503    0 -0.38635770241E+02 -0.45335705634E+02 -0.22674408260E+03  0.23448457933E+03  0.47000000000E+01 0. -1.
         -5    1    4    4    0  503  0.46755659434E+01  0.20386327445E+02 -0.95848274437E+01  0.23482380218E+02  0.47000000000E+01 0.  1.
<mgrwt>
<rscale>  0 0.10152076E+03</rscale>
<asrwt>0</asrwt>
<pdfrwt beam="1">  1        1 0.42247345E-01 0.10341953E+03</pdfrwt>
<pdfrwt beam="2">  1       -1 0.14581203E-01 0.10341953E+03</pdfrwt>
<totfact> 0.31472829E+03</totfact>
</mgrwt>
</event>
<event>
 8    1  0.2964543E-004  0.1212452E+03  0.7546771E-02  0.1241220E+00
          2   -1    0    0  501    0  0.00000000000E+00  0.00000000000E+00  0.11400603991E+04  0.11400603991E+04  0.00000000000E+00 0. -1.
         -2   -1    0    0    0  501 -0.00000000000E+00 -0.00000000000E+00 -0.17498040135E+02  0.17498040135E+02  0.00000000000E+00 0.  1.
         23    2    1    2    0    0 -0.78492699786E+02 -0.10596046459E+02  0.86019920517E+03  0.86870193957E+03  0.91798731568E+02 0.  0.
         23    2    1    2    0    0  0.78492699786E+02  0.10596046459E+02  0.26236315378E+03  0.28885649965E+03  0.91270328195E+02 0.  0.
          5    1    4    4  502    0  0.59707972569E+01 -0.29607239995E+02  0.12192328098E+03  0.12569652153E+03  0.47000000000E+01 0. -1.
         -5    1    4    4    0  502  0.72521902529E+02  0.40203286455E+02  0.14043987281E+03  0.16315997813E+03  0.47000000000E+01 0.  1.
          5    1    3    3  503    0 -0.58754333802E+02 -0.49749335871E+02  0.54048963048E+03  0.54596538243E+03  0.47000000000E+01 0. -1.
         -5    1    3    3    0  503 -0.19738365984E+02  0.39153289411E+02  0.31970957469E+03  0.32273655713E+03  0.47000000000E+01 0.  1.
<mgrwt>
<rscale>  0 0.12114514E+03</rscale>
<asrwt>0</asrwt>
<pdfrwt beam="1">  1        2 0.17539385E+00 0.12124515E+03</pdfrwt>
<pdfrwt beam="2">  1       -2 0.26920071E-02 0.12124515E+03</pdfrwt>
<totfact> 0.10353552E+04</totfact>
</mgrwt>
</event>
<event>
 8    1  0.2964543E-004  0.9628601E+02  0.7546771E-02  0.1288374E+00
         -1   -1    0    0    0  501 -0.00000000000E+00  0.00000000000E+00  0.38542554913E+03  0.38542554913E+03  0.00000000000E+00 0.  1.
          1   -1    0    0  501    0  0.00000000000E+00 -0.00000000000E+00 -0.33585180446E+02  0.33585180446E+02  0.00000000000E+00 0. -1.
         23    2    1    2    0    0  0.23135670123E+02  0.19735102120E+02  0.28778983515E+03  0.30346990754E+03  0.91357879137E+02 0.  0.
         23    2    1    2    0    0 -0.23135670123E+02 -0.19735102120E+02  0.64050533533E+02  0.11554082203E+03  0.91227612171E+02 0.  0.
          5    1    3    3  502    0 -0.30146508878E+02  0.28784650305E+02  0.13206403603E+03  0.13856539144E+03  0.47000000000E+01 0. -1.
         -5    1    3    3    0  502  0.53282179001E+02 -0.90495481842E+01  0.15572579911E+03  0.16490451610E+03  0.47000000000E+01 0.  1.
          5    1    4    4  503    0 -0.57817436490E+02 -0.51299287515E+01  0.39299201107E+02  0.70254461345E+02  0.47000000000E+01 0. -1.
         -5    1    4    4    0  503  0.34681766367E+02 -0.14605173369E+02  0.24751332427E+02  0.45286360688E+02  0.47000000000E+01 0.  1.
<mgrwt>
<rscale>  0 0.96255097E+02</rscale>
<asrwt>0</asrwt>
<pdfrwt beam="1">  1        1 0.51669511E-02 0.96286009E+02</pdfrwt>
<pdfrwt beam="2">  1       -1 0.59296235E-01 0.96286009E+02</pdfrwt>
<totfact> 0.44121327E+03</totfact>
</mgrwt>
</event>
<event>
 8    1  0.2964543E-004  0.9996803E+02  0.7546771E-02  0.1281638E+00
         -1   -1    0    0    0  501 -0.00000000000E+00  0.00000000000E+00  0.79831101026E+02  0.79831101026E+02  0.00000000000E+00 0.  1.
          1   -1    0    0  501    0  0.00000000000E+00 -0.00000000000E+00 -0.12881024832E+03  0.12881024832E+03  0.00000000000E+00 0. -1.
         23    2    1    2    0    0  0.29535728633E+02  0.23017083178E+02 -0.11509904558E+01  0.99974659374E+02  0.92690141623E+02 0.  0.
         23    2    1    2    0    0 -0.29535728633E+02 -0.23017083178E+02 -0.47828156839E+02  0.10866668997E+03  0.90104225977E+02 0.  0.
          5    1    4    4  502    0 -0.18270325147E+02 -0.50840052618E+02 -0.55223628881E+02  0.77396737127E+02  0.47000000000E+01 0. -1.
         -5    1    4    4    0  502 -0.11265403486E+02  0.27822969440E+02  0.73954720419E+01  0.31269952845E+02  0.47000000000E+01 0.  1.
          5    1    3    3  503    0  0.33274304790E+01 -0.23126496686E+02 -0.30847988265E+02  0.38981983308E+02  0.47000000000E+01 0. -1.
         -5    1    3    3    0  503  0.26208298154E+02  0.46143579865E+02  0.29696997810E+02  0.60992676067E+02  0.47000000000E+01 0.  1.
<mgrwt>
<rscale>  0 0.99364376E+02</rscale>
<asrwt>0</asrwt>
<pdfrwt beam="1">  1        1 0.19816961E-01 0.99968034E+02</pdfrwt>
<pdfrwt beam="2">  1       -1 0.12281708E-01 0.99968034E+02</pdfrwt>
<totfact> 0.10438473E+04</totfact>
</mgrwt>
</event>
<event>
 8    1  0.2964543E-004  0.9568888E+02  0.7546771E-02  0.1290491E+00
         -1   -1    0    0    0  501 -0.00000000000E+00  0.00000000000E+00  0.10137405566E+03  0.10137405566E+03  0.00000000000E+00 0.  1.
          1   -1    0    0  501    0  0.00000000000E+00 -0.00000000000E+00 -0.91385746773E+02  0.91385746773E+02  0.00000000000E+00 0. -1.
         23    2    1    2    0    0  0.20117405462E+02  0.34844291322E+01 -0.10903382460E+02  0.96308073572E+02  0.93485346645E+02 0.  0.
         23    2    1    2    0    0 -0.20117405462E+02 -0.34844291322E+01  0.20891691342E+02  0.96451728857E+02  0.91921825392E+02 0.  0.
          5    1    4    4  502    0  0.22409764830E+00 -0.44810622075E+02 -0.13694888650E+01  0.45077794647E+02  0.47000000000E+01 0. -1.
         -5    1    3    3    0  503  0.46776111423E+01  0.40722318940E+02 -0.30433346919E+02  0.51268566496E+02  0.47000000000E+01 0.  1.
          5    1    3    3  503    0  0.15439794319E+02 -0.37237889807E+02  0.19529964459E+02  0.45039507077E+02  0.47000000000E+01 0. -1.
         -5    1    4    4    0  502 -0.20341503110E+02  0.41326192943E+02  0.22261180207E+02  0.51373934209E+02  0.47000000000E+01 0.  1.
<mgrwt>
<rscale>  0 0.95304840E+02</rscale>
<asrwt>0</asrwt>
<pdfrwt beam="1">  1        1 0.14059346E-01 0.95688878E+02</pdfrwt>
<pdfrwt beam="2">  1       -1 0.15596009E-01 0.95688878E+02</pdfrwt>
<totfact> 0.11127441E+04</totfact>
</mgrwt>
</event>
<event>
 8    1  0.2964543E-004  0.1125988E+03  0.7546771E-02  0.1259372E+00
          1   -1    0    0  501    0  0.00000000000E+00  0.00000000000E+00  0.22977620437E+03  0.22977620437E+03  0.00000000000E+00 0. -1.
         -1   -1    0    0    0  501 -0.00000000000E+00 -0.00000000000E+00 -0.67433318610E+02  0.67433318610E+02  0.00000000000E+00 0.  1.
         23    2    1    2    0    0 -0.30997061407E+02  0.42212803956E+02  0.11174444379E+02  0.11315194788E+03  0.99678264769E+02 0.  0.
         23    2    1    2    0    0  0.30997061407E+02 -0.42212803956E+02  0.15116844138E+03  0.18405757510E+03  0.91008541628E+02 0.  0.
          5    1    3    3  502    0 -0.38171731369E+02 -0.18261700060E+02 -0.17054951469E+02  0.45864279504E+02  0.47000000000E+01 0. -1.
         -5    1    4    4    0  503 -0.35978475253E+01 -0.59890115975E+02  0.60647105567E+02  0.85439638997E+02  0.47000000000E+01 0.  1.
          5    1    4    4  503    0  0.34594908932E+02  0.17677312019E+02  0.90521335809E+02  0.98617936102E+02  0.47000000000E+01 0. -1.
         -5    1    3    3    0  502  0.71746699617E+01  0.60474504016E+02  0.28229395849E+02  0.67287668373E+02  0.47000000000E+01 0.  1.
<mgrwt>
<rscale>  0 0.11064942E+03</rscale>
<asrwt>0</asrwt>
<pdfrwt beam="1">  1        1 0.35350185E-01 0.11259882E+03</pdfrwt>
<pdfrwt beam="2">  1       -1 0.10374357E-01 0.11259882E+03</pdfrwt>
<totfact> 0.66432841E+03</totfact>
</mgrwt>
</event>
<event>
 8    1  0.2964543E-004  0.1178555E+03  0.7546771E-02  0.1247260E+00
          1   -1    0    0  501    0  0.00000000000E+00  0.00000000000E+00  0.11810800780E+04  0.11810800780E+04  0.00000000000E+00 0. -1.
         -1   -1    0    0    0  501 -0.00000000000E+00 -0.00000000000E+00 -0.26634494092E+02  0.26634494092E+02  0.00000000000E+00 0.  1.
         23    2    1    2    0    0  0.89136937431E+01  0.70752716908E+02  0.12242513496E+03  0.16898644264E+03  0.92103763442E+02 0.  0.
         23    2    1    2    0    0 -0.89136937431E+01 -0.70752716908E+02  0.10320204489E+04  0.10387281294E+04  0.93832398359E+02 0.  0.
          5    1    4    4  502    0  0.10945683441E+02 -0.89380275251E+02  0.80302318114E+03  0.80806989861E+03  0.47000000000E+01 0. -1.
         -5    1    3    3    0  503 -0.38932522037E+02  0.50400006459E+02  0.60201074711E+02  0.87761958271E+02  0.47000000000E+01 0.  1.
          5    1    3    3  503    0  0.47846215780E+02  0.20352710449E+02  0.62224060247E+02  0.81224484367E+02  0.47000000000E+01 0. -1.
         -5    1    4    4    0  502 -0.19859377184E+02  0.18627558343E+02  0.22899726779E+03  0.23065823082E+03  0.47000000000E+01 0.  1.
<mgrwt>
<rscale>  0 0.11751110E+03</rscale>
<asrwt>0</asrwt>
<pdfrwt beam="1">  1        1 0.18170459E+00 0.11785550E+03</pdfrwt>
<pdfrwt beam="2">  1       -1 0.40976154E-02 0.11785550E+03</pdfrwt>
<totfact> 0.27619752E+03</totfact>
</mgrwt>
</event>
<event>
 8    1  0.2964543E-004  0.9087670E+02  0.7546771E-02  0.1307814E+00
          2   -1    0    0  501    0  0.00000000000E+00  0.00000000000E+00  0.13460977488E+03  0.13460977488E+03  0.00000000000E+00 0. -1.
         -2   -1    0    0    0  501 -0.00000000000E+00 -0.00000000000E+00 -0.56824308537E+02  0.56824308537E+02  0.00000000000E+00 0.  1.
         23    2    1    2    0    0 -0.26861269287E+00  0.69397522668E+01  0.15682844368E+02  0.81364515695E+02  0.79536158397E+02 0.  0.
         23    2    1    2    0    0  0.26861269287E+00 -0.69397522668E+01  0.62102621980E+02  0.11006956773E+03  0.90610936252E+02 0.  0.
          5    1    4    4  502    0 -0.41478282352E+02 -0.35452161802E+01  0.51911096589E+02  0.66707334032E+02  0.47000000000E+01 0. -1.
         -5    1    3    3    0  503  0.11594439667E+02  0.39814138812E+02  0.19175407379E+02  0.45928018994E+02  0.47000000000E+01 0.  1.
          5    1    3    3  503    0 -0.11863052360E+02 -0.32874386546E+02 -0.34925630119E+01  0.35436496701E+02  0.47000000000E+01 0. -1.
         -5    1    4    4    0  502  0.41746895045E+02 -0.33945360867E+01  0.10191525391E+02  0.43362233694E+02  0.47000000000E+01 0.  1.
<mgrwt>
<rscale>  0 0.87981810E+02</rscale>
<asrwt>0</asrwt>
<pdfrwt beam="1">  1        2 0.20709196E-01 0.90876697E+02</pdfrwt>
<pdfrwt beam="2">  1       -2 0.87422014E-02 0.90876697E+02</pdfrwt>
<totfact> 0.19516149E+04</totfact>
</mgrwt>
</event>
<event>
 8    1  0.2964543E-004  0.1691431E+03  0.7546771E-02  0.1178957E+00
         -1   -1    0    0    0  501 -0.00000000000E+00  0.00000000000E+00  0.74663082382E+02  0.74663082382E+02  0.00000000000E+00 0.  1.
          1   -1    0    0  501    0  0.00000000000E+00 -0.00000000000E+00 -0.13417330281E+04  0.13417330281E+04  0.00000000000E+00 0. -1.
         23    2    1    2    0    0  0.56248972173E+02 -0.13107127282E+03 -0.34805862094E+02  0.17268710687E+03  0.90916243949E+02 0.  0.
         23    2    1    2    0    0 -0.56248972173E+02  0.13107127282E+03 -0.12322640837E+04  0.12437090037E+04  0.89407429460E+02 0.  0.
          5    1    4    4  502    0 -0.75588383129E+02  0.10643867848E+03 -0.10988650446E+04  0.11066025809E+04  0.47000000000E+01 0. -1.
         -5    1    4    4    0  502  0.19339410956E+02  0.24632594346E+02 -0.13339903910E+03  0.13710642273E+03  0.47000000000E+01 0.  1.
          5    1    3    3  503    0 -0.24559639432E+02 -0.27115426141E+02 -0.13188989344E+02  0.39172205245E+02  0.47000000000E+01 0. -1.
         -5    1    3    3    0  503  0.80808611605E+02 -0.10395584668E+03 -0.21616872751E+02  0.13351490163E+03  0.47000000000E+01 0.  1.
<mgrwt>
<rscale>  0 0.16894119E+03</rscale>
<asrwt>0</asrwt>
<pdfrwt beam="1">  1        1 0.20642046E+00 0.16914310E+03</pdfrwt>
<pdfrwt beam="2">  1       -1 0.11486628E-01 0.16914310E+03</pdfrwt>
<totfact> 0.45697500E+02</totfact>
</mgrwt>
</event>
<event>
 8    1  0.2964543E-004  0.1021522E+03  0.7546771E-02  0.1277408E+00
         -2   -1    0    0    0  501 -0.00000000000E+00  0.00000000000E+00  0.41933152985E+03  0.41933152985E+03  0.00000000000E+00 0.  1.
          2   -1    0    0  501    0  0.00000000000E+00 -0.00000000000E+00 -0.30951131246E+02  0.30951131246E+02  0.00000000000E+00 0. -1.
         23    2    1    2    0    0 -0.31519524479E+02 -0.19939288059E+02  0.30198176386E+03  0.31879157252E+03  0.95100080813E+02 0.  0.
         23    2    1    2    0    0  0.31519524479E+02  0.19939288059E+02  0.86398634743E+02  0.13149108858E+03  0.91837501375E+02 0.  0.
          5    1    4    4  502    0  0.57067739383E+02  0.36302619304E+02  0.52446658466E+02  0.85716678837E+02  0.47000000000E+01 0. -1.
         -5    1    4    4    0  502 -0.25548214904E+02 -0.16363331245E+02  0.33951976276E+02  0.45774409742E+02  0.47000000000E+01 0.  1.
          5    1    3    3  503    0  0.34027255652E+02 -0.89354974090E+01  0.10137736713E+03  0.10741116240E+03  0.47000000000E+01 0. -1.
         -5    1    3    3    0  503 -0.65546780131E+02 -0.11003790650E+02  0.20060439674E+03  0.21138041012E+03  0.47000000000E+01 0.  1.
<mgrwt>
<rscale>  0 0.10138612E+03</rscale>
<asrwt>0</asrwt>
<pdfrwt beam="1">  1        2 0.47617128E-02 0.10215224E+03</pdfrwt>
<pdfrwt beam="2">  1       -2 0.64512539E-01 0.10215224E+03</pdfrwt>
<totfact> 0.35510425E+03</totfact>
</mgrwt>
</event>
<event>
 8    1  0.2964543E-004  0.1122644E+03  0.7546771E-02  0.1258155E+00
         -1   -1    0    0    0  501 -0.00000000000E+00  0.00000000000E+00  0.36177696402E+03  0.36177696402E+03  0.00000000000E+00 0.  1.
          1   -1    0    0  501    0  0.00000000000E+00 -0.00000000000E+00 -0.33822375887E+02  0.33822375887E+02  0.00000000000E+00 0. -1.
         23    2    1    2    0    0  0.35811976202E+02  0.47591031000E+02  0.17391078159E+03  0.20498772941E+03  0.90706148554E+02 0.  0.
         23    2    1    2    0    0 -0.35811976202E+02 -0.47591031000E+02  0.15404380655E+03  0.19061161050E+03  0.95162428772E+02 0.  0.
          5    1    4    4  502    0 -0.67493101667E+02 -0.40645278288E+02  0.11723469553E+03  0.14132735495E+03  0.47000000000E+01 0. -1.
         -5    1    3    3    0  503  0.64896581208E+02  0.40419487003E+02  0.10767479972E+03  0.13214103707E+03  0.47000000000E+01 0. -1.
          5    1    3    3  503    0 -0.29084605006E+02  0.71715439970E+01  0.66235981864E+02  0.72846692342E+02  0.47000000000E+01 0.  1.
         -5    1    4    4    0  502  0.31681125465E+02 -0.69457527126E+01  0.36809111019E+02  0.49284255554E+02  0.47000000000E+01 0.  1.
<mgrwt>
<rscale>  0 0.11131448E+03</rscale>
<asrwt>0</asrwt>
<pdfrwt beam="1">  1        1 0.52034427E-02 0.11226438E+03</pdfrwt>
<pdfrwt beam="2">  1       -1 0.55657992E-01 0.11226438E+03</pdfrwt>
<totfact> 0.49758036E+03</totfact>
</mgrwt>
</event>
<event>
 8    1  0.2964543E-004  0.1112582E+03  0.7546771E-02  0.1259198E+00
          1   -1    0    0  501    0  0.00000000000E+00  0.00000000000E+00  0.27817146795E+03  0.27817146795E+03  0.00000000000E+00 0. -1.
         -1   -1    0    0    0  501 -0.00000000000E+00 -0.00000000000E+00 -0.59002982339E+02  0.59002982339E+02  0.00000000000E+00 0.  1.
         23    2    1    2    0    0  0.43390711437E+02  0.42615479569E+02  0.19622953642E+03  0.22557573291E+03  0.93164088436E+02 0.  0.
         23    2    1    2    0    0 -0.43390711437E+02 -0.42615479569E+02  0.22938949189E+02  0.11159871738E+03  0.90715188330E+02 0.  0.
          5    1    3    3  502    0 -0.17421006504E+02  0.29226734403E+02  0.13036819722E+03  0.13481709950E+03  0.47000000000E+01 0. -1.
         -5    1    4    4    0  503  0.21251052226E+02 -0.36046255647E+02 -0.12034808429E+01  0.42124554989E+02  0.47000000000E+01 0.  1.
          5    1    4    4  503    0 -0.64641763663E+02 -0.65692239223E+01  0.24142430032E+02  0.69474162394E+02  0.47000000000E+01 0. -1.
         -5    1    3    3    0  502  0.60811717941E+02  0.13388745166E+02  0.65861339199E+02  0.90758633402E+02  0.47000000000E+01 0.  1.
<mgrwt>
<rscale>  0 0.11074401E+03</rscale>
<asrwt>0</asrwt>
<pdfrwt beam="1">  1        1 0.42795610E-01 0.11125817E+03</pdfrwt>
<pdfrwt beam="2">  1       -1 0.90773821E-02 0.11125817E+03</pdfrwt>
<totfact> 0.64262137E+03</totfact>
</mgrwt>
</event>
<event>
 8    1  0.2964543E-004  0.9418221E+02  0.7546771E-02  0.1293924E+00
         -2   -1    0    0    0  501 -0.00000000000E+00  0.00000000000E+00  0.30836591523E+02  0.30836591523E+02  0.00000000000E+00 0.  1.
          2   -1    0    0  501    0  0.00000000000E+00 -0.00000000000E+00 -0.28292753338E+03  0.28292753338E+03  0.00000000000E+00 0. -1.
         23    2    1    2    0    0  0.16891339287E+02 -0.56313186319E+01 -0.12413509874E+03  0.15488370917E+03  0.90897808203E+02 0.  0.
         23    2    1    2    0    0 -0.16891339287E+02  0.56313186319E+01 -0.12795584312E+03  0.15888041573E+03  0.92483834381E+02 0.  0.
          5    1    4    4  502    0  0.18409822450E+02  0.28576183890E+02 -0.10548300043E+03  0.11092462859E+03  0.47000000000E+01 0. -1.
         -5    1    3    3    0  503  0.28467895406E+02 -0.43405330885E+02 -0.60728933539E+02  0.80028352394E+02  0.47000000000E+01 0.  1.
          5    1    3    3  503    0 -0.11576556120E+02  0.37774012253E+02 -0.63406165199E+02  0.74855356780E+02  0.47000000000E+01 0. -1.
         -5    1    4    4    0  502 -0.35301161737E+02 -0.22944865258E+02 -0.22472842692E+02  0.47955787142E+02  0.47000000000E+01 0.  1.
<mgrwt>
<rscale>  0 0.93790539E+02</rscale>
<asrwt>0</asrwt>
<pdfrwt beam="1">  1        2 0.43527312E-01 0.94182210E+02</pdfrwt>
<pdfrwt beam="2">  1       -2 0.47440911E-02 0.94182210E+02</pdfrwt>
<totfact> 0.22194550E+04</totfact>
</mgrwt>
</event>
<event>
 8    1  0.2964543E-004  0.9649436E+02  0.7546771E-02  0.1296715E+00
         -2   -1    0    0    0  501 -0.00000000000E+00  0.00000000000E+00  0.18676794007E+02  0.18676794007E+02  0.00000000000E+00 0.  1.
          2   -1    0    0  501    0  0.00000000000E+00 -0.00000000000E+00 -0.49735634647E+03  0.49735634647E+03  0.00000000000E+00 0. -1.
         23    2    1    2    0    0 -0.55756637381E+01 -0.88664128107E+01 -0.15838164780E+03  0.18546133746E+03  0.95924241110E+02 0.  0.
         23    2    1    2    0    0  0.55756637381E+01  0.88664128107E+01 -0.32029790467E+03  0.33057180302E+03  0.81100357038E+02 0.  0.
          5    1    3    3  502    0  0.26724246699E+02  0.20103944288E+02 -0.12775961501E+03  0.13214750533E+03  0.47000000000E+01 0. -1.
         -5    1    3    3    0  502 -0.32299910438E+02 -0.28970357099E+02 -0.30622032788E+02  0.53313832133E+02  0.47000000000E+01 0.  1.
          5    1    4    4  503    0 -0.44409329098E+01  0.44107416798E+02 -0.18812698932E+03  0.19333659822E+03  0.47000000000E+01 0. -1.
         -5    1    4    4    0  503  0.10016596648E+02 -0.35241003988E+02 -0.13217091535E+03  0.13723520479E+03  0.47000000000E+01 0.  1.
<mgrwt>
<rscale>  0 0.92582757E+02</rscale>
<asrwt>0</asrwt>
<pdfrwt beam="1">  1        2 0.76516353E-01 0.96494359E+02</pdfrwt>
<pdfrwt beam="2">  1       -2 0.28733532E-02 0.96494359E+02</pdfrwt>
<totfact> 0.25605818E+04</totfact>
</mgrwt>
</event>
<event>
 8    1  0.2964543E-004  0.9452719E+02  0.7546771E-02  0.1292663E+00
          3   -1    0    0  501    0  0.00000000000E+00  0.00000000000E+00  0.45651560958E+03  0.45651560958E+03  0.00000000000E+00 0. -1.
         -3   -1    0    0    0  501 -0.00000000000E+00 -0.00000000000E+00 -0.19457606814E+02  0.19457606814E+02  0.00000000000E+00 0.  1.
         23    2    1    2    0    0 -0.15016394753E+02 -0.22030967922E+02  0.20739202247E+03  0.22761490302E+03  0.89923508816E+02 0.  0.
         23    2    1    2    0    0  0.15016394753E+02  0.22030967922E+02  0.22966598030E+03  0.24835831337E+03  0.90689214644E+02 0.  0.
          5    1    4    4  502    0 -0.22842554150E+02  0.19150806110E+02  0.19307458240E+03  0.19541857646E+03  0.47000000000E+01 0. -1.
         -5    1    3    3    0  503 -0.11917296917E+02 -0.49369871774E+02  0.65567882206E+02  0.83070111242E+02  0.47000000000E+01 0.  1.
          5    1    3    3  503    0 -0.30990978363E+01  0.27338903852E+02  0.14182414026E+03  0.14454479178E+03  0.47000000000E+01 0. -1.
         -5    1    4    4    0  502  0.37858948903E+02  0.28801618118E+01  0.36591397902E+02  0.52939736914E+02  0.47000000000E+01 0.  1.
<mgrwt>
<rscale>  0 0.94343059E+02</rscale>
<asrwt>0</asrwt>
<pdfrwt beam="1">  1        3 0.70233162E-01 0.94527188E+02</pdfrwt>
<pdfrwt beam="2">  1       -3 0.29934783E-02 0.94527188E+02</pdfrwt>
<totfact> 0.21648090E+03</totfact>
</mgrwt>
</event>
<event>
 8    1  0.2964543E-004  0.9185637E+02  0.7546771E-02  0.1298798E+00
         -3   -1    0    0    0  501 -0.00000000000E+00  0.00000000000E+00  0.95289467369E+02  0.95289467369E+02  0.00000000000E+00 0.  1.
          3   -1    0    0  501    0  0.00000000000E+00 -0.00000000000E+00 -0.10973141888E+03  0.10973141888E+03  0.00000000000E+00 0. -1.
         23    2    1    2    0    0  0.16964888184E+02  0.39212530981E+01  0.38453999047E+02  0.99580630271E+02  0.90190954233E+02 0.  0.
         23    2    1    2    0    0 -0.16964888184E+02 -0.39212530981E+01 -0.52895950559E+02  0.10544025598E+03  0.89534810765E+02 0.  0.
          5    1    3    3  502    0  0.56904688301E+01 -0.21557227704E+02  0.59913571177E+02  0.64100089805E+02  0.47000000000E+01 0.  1.
         -5    1    3    3    0  502  0.11274419354E+02  0.25478480802E+02 -0.21459572130E+02  0.35480540466E+02  0.47000000000E+01 0. -1.
          5    1    4    4  503    0 -0.23696566357E+02  0.18021362241E+02 -0.70145723798E+02  0.76346639227E+02  0.47000000000E+01 0. -1.
         -5    1    4    4    0  503  0.67316781736E+01 -0.21942615339E+02  0.17249773239E+02  0.29093616753E+02  0.47000000000E+01 0.  1.
<mgrwt>
<rscale>  0 0.91694900E+02</rscale>
<asrwt>0</asrwt>
<pdfrwt beam="1">  1        3 0.16881757E-01 0.91856365E+02</pdfrwt>
<pdfrwt beam="2">  1       -3 0.14659918E-01 0.91856365E+02</pdfrwt>
<totfact> 0.24771297E+03</totfact>
</mgrwt>
</event>
<event>
 8    1  0.2964543E-004  0.9794125E+02  0.7546771E-02  0.1285655E+00
          1   -1    0    0  501    0  0.00000000000E+00  0.00000000000E+00  0.54821816110E+02  0.54821816110E+02  0.00000000000E+00 0. -1.
         -1   -1    0    0    0  501 -0.00000000000E+00 -0.00000000000E+00 -0.17183974059E+03  0.17183974059E+03  0.00000000000E+00 0.  1.
         23    2    1    2    0    0  0.19366086509E+02 -0.24817893573E+02 -0.57821909258E+02  0.11373592788E+03  0.92744352671E+02 0.  0.
         23    2    1    2    0    0 -0.19366086509E+02  0.24817893573E+02 -0.59196015221E+02  0.11292562882E+03  0.90868345853E+02 0.  0.
          5    1    3    3  502    0 -0.10151607113E+02 -0.29444841428E+02  0.14996426624E+02  0.34886052015E+02  0.47000000000E+01 0. -1.
         -5    1    4    4    0  503  0.19693102561E+02 -0.20930658541E+02 -0.40257239323E+02  0.49685471452E+02  0.47000000000E+01 0.  1.
          5    1    4    4  503    0 -0.39059189070E+02  0.45748552114E+02 -0.18938775898E+02  0.63240157367E+02  0.47000000000E+01 0. -1.
         -5    1    3    3    0  502  0.29517693622E+02  0.46269478555E+01 -0.72818335882E+02  0.78849875865E+02  0.47000000000E+01 0.  1.
<mgrwt>
<rscale>  0 0.97494558E+02</rscale>
<asrwt>0</asrwt>
<pdfrwt beam="1">  1        1 0.84341256E-02 0.97941248E+02</pdfrwt>
<pdfrwt beam="2">  1       -1 0.26436883E-01 0.97941248E+02</pdfrwt>
<totfact> 0.93663200E+03</totfact>
</mgrwt>
</event>
<event>
 8    1  0.2964543E-004  0.1048846E+03  0.7546771E-02  0.1271475E+00
         -1   -1    0    0    0  501 -0.00000000000E+00  0.00000000000E+00  0.21260794270E+02  0.21260794270E+02  0.00000000000E+00 0.  1.
          1   -1    0    0  501    0  0.00000000000E+00 -0.00000000000E+00 -0.51062718760E+03  0.51062718760E+03  0.00000000000E+00 0. -1.
         23    2    1    2    0    0  0.23275155564E+02  0.46456851084E+02 -0.27171383359E+03  0.29125449594E+03  0.91108738094E+02 0.  0.
         23    2    1    2    0    0 -0.23275155564E+02 -0.46456851084E+02 -0.21765255973E+03  0.24063348593E+03  0.88497829996E+02 0.  0.
          5    1    3    3  502    0 -0.19519990033E+02  0.56879942247E+02 -0.14626165479E+03  0.15821162885E+03  0.47000000000E+01 0. -1.
         -5    1    4    4    0  503  0.23172443719E+02 -0.36886441210E+02 -0.50680566983E+02  0.66993891981E+02  0.47000000000E+01 0.  1.
          5    1    4    4  503    0 -0.46447599283E+02 -0.95704098739E+01 -0.16697199275E+03  0.17363959395E+03  0.47000000000E+01 0. -1.
         -5    1    3    3    0  502  0.42795145597E+02 -0.10423091163E+02 -0.12545217880E+03  0.13304286709E+03  0.47000000000E+01 0.  1.
<mgrwt>
<rscale>  0 0.10431499E+03</rscale>
<asrwt>0</asrwt>
<pdfrwt beam="1">  1        1 0.78558024E-01 0.10488457E+03</pdfrwt>
<pdfrwt beam="2">  1       -1 0.32708916E-02 0.10488457E+03</pdfrwt>
<totfact> 0.13512878E+04</totfact>
</mgrwt>
</event>
<event>
 8    1  0.2964543E-004  0.9406884E+02  0.7546771E-02  0.1300770E+00
          1   -1    0    0  501    0  0.00000000000E+00  0.00000000000E+00  0.28505768940E+02  0.28505768940E+02  0.00000000000E+00 0. -1.
         -1   -1    0    0    0  501 -0.00000000000E+00 -0.00000000000E+00 -0.32488441860E+03  0.32488441860E+03  0.00000000000E+00 0.  1.
         23    2    1    2    0    0 -0.19568296537E+02  0.10171143338E+02 -0.85309996181E+02  0.12699111258E+03  0.91447125919E+02 0.  0.
         23    2    1    2    0    0  0.19568296537E+02 -0.10171143338E+02 -0.21106865348E+03  0.22639907496E+03  0.78868208275E+02 0.  0.
          5    1    3    3  502    0 -0.38235043033E+02 -0.30442116402E+02 -0.43060990846E+02  0.65306813576E+02  0.47000000000E+01 0. -1.
         -5    1    4    4    0  503  0.39618451114E+02  0.96549102805E+01 -0.60306303655E+02  0.72950525850E+02  0.47000000000E+01 0.  1.
          5    1    4    4  503    0 -0.20050154577E+02 -0.19826053619E+02 -0.15076234982E+03  0.15344854911E+03  0.47000000000E+01 0. -1.
         -5    1    3    3    0  502  0.18666746496E+02  0.40613259740E+02 -0.42249005335E+02  0.61684299001E+02  0.47000000000E+01 0.  1.
<mgrwt>
<rscale>  0 0.90865049E+02</rscale>
<asrwt>0</asrwt>
<pdfrwt beam="1">  1        1 0.43855027E-02 0.94068843E+02</pdfrwt>
<pdfrwt beam="2">  1       -1 0.49982220E-01 0.94068843E+02</pdfrwt>
<totfact> 0.75323229E+03</totfact>
</mgrwt>
</event>
<event>
 8    1  0.2964543E-004  0.1008538E+03  0.7546771E-02  0.1279671E+00
          2   -1    0    0  501    0  0.00000000000E+00  0.00000000000E+00  0.13524392108E+03  0.13524392108E+03  0.00000000000E+00 0. -1.
         -2   -1    0    0    0  501 -0.00000000000E+00 -0.00000000000E+00 -0.85087025498E+02  0.85087025498E+02  0.00000000000E+00 0.  1.
         23    2    1    2    0    0  0.33362556042E+02  0.23415685421E+02 -0.15685054126E+02  0.99887399642E+02  0.89833831127E+02 0.  0.
         23    2    1    2    0    0 -0.33362556042E+02 -0.23415685421E+02  0.65841949705E+02  0.12044354693E+03  0.92250372290E+02 0.  0.
          5    1    3    3  502    0 -0.16478740837E+02 -0.12936443135E+02  0.19250166759E+02  0.28836771331E+02  0.47000000000E+01 0. -1.
         -5    1    3    3    0  502  0.49841296879E+02  0.36352128556E+02 -0.34935220884E+02  0.71050628311E+02  0.47000000000E+01 0.  1.
          5    1    4    4  503    0 -0.57831414110E+02  0.51288981934E+01  0.57081236892E+02  0.81554495031E+02  0.47000000000E+01 0. -1.
         -5    1    4    4    0  503  0.24468858069E+02 -0.28544583614E+02  0.87607128128E+01  0.38889051902E+02  0.47000000000E+01 0.  1.
<mgrwt>
<rscale>  0 0.10029781E+03</rscale>
<asrwt>0</asrwt>
<pdfrwt beam="1">  1        2 0.20806757E-01 0.10085378E+03</pdfrwt>
<pdfrwt beam="2">  1       -2 0.13090312E-01 0.10085378E+03</pdfrwt>
<totfact> 0.10419536E+04</totfact>
</mgrwt>
</event>
<event>
 8    1  0.2964543E-004  0.1030113E+03  0.7546771E-02  0.1275155E+00
         -1   -1    0    0    0  501 -0.00000000000E+00  0.00000000000E+00  0.14426855128E+03  0.14426855128E+03  0.00000000000E+00 0.  1.
          1   -1    0    0  501    0  0.00000000000E+00 -0.00000000000E+00 -0.74122980555E+02  0.74122980555E+02  0.00000000000E+00 0. -1.
         23    2    1    2    0    0  0.17732139465E+02 -0.39382290098E+02  0.52899639771E+02  0.11394652324E+03  0.91214279180E+02 0.  0.
         23    2    1    2    0    0 -0.17732139465E+02  0.39382290098E+02  0.17245930950E+02  0.10444500859E+03  0.93519752686E+02 0.  0.
          5    1    3    3  502    0  0.23757313884E+02  0.22834292348E+02  0.22575439526E+01  0.33361675238E+02  0.47000000000E+01 0. -1.
         -5    1    4    4    0  503 -0.39909861225E+02  0.18867520932E+02  0.44956222097E+02  0.63181740038E+02  0.47000000000E+01 0.  1.
          5    1    4    4  503    0  0.22177721760E+02  0.20514769166E+02 -0.27710291147E+02  0.41263268555E+02  0.47000000000E+01 0. -1.
         -5    1    3    3    0  502 -0.60251744193E+01 -0.62216582446E+02  0.50642095818E+02  0.80584847998E+02  0.47000000000E+01 0.  1.
<mgrwt>
<rscale>  0 0.10248523E+03</rscale>
<asrwt>0</asrwt>
<pdfrwt beam="1">  1        1 0.11403535E-01 0.10301135E+03</pdfrwt>
<pdfrwt beam="2">  1       -1 0.22195162E-01 0.10301135E+03</pdfrwt>
<totfact> 0.84065397E+03</totfact>
</mgrwt>
</event>
<event>
 8    1  0.2964543E-004  0.9533747E+02  0.7546771E-02  0.1290662E+00
         -1   -1    0    0    0  501 -0.00000000000E+00  0.00000000000E+00  0.17691601224E+02  0.17691601224E+02  0.00000000000E+00 0.  1.
          1   -1    0    0  501    0  0.00000000000E+00 -0.00000000000E+00 -0.53873928054E+03  0.53873928054E+03  0.00000000000E+00 0. -1.
         23    2    1    2    0    0 -0.89229538825E+01 -0.25885340442E+02 -0.19730499623E+03  0.21894227618E+03  0.90866874093E+02 0.  0.
         23    2    1    2    0    0  0.89229538825E+01  0.25885340442E+02 -0.32374268309E+03  0.33748860558E+03  0.91321213798E+02 0.  0.
          5    1    4    4  502    0  0.48378101114E+02  0.26299876953E+02 -0.17417298066E+03  0.18273051575E+03  0.47000000000E+01 0. -1.
         -5    1    4    4    0  502 -0.39455147231E+02 -0.41453651169E+00 -0.14956970243E+03  0.15475808983E+03  0.47000000000E+01 0.  1.
          5    1    3    3  503    0  0.40437485848E+02 -0.74936780909E+01 -0.99226163661E+02  0.10751403177E+03  0.47000000000E+01 0. -1.
         -5    1    3    3    0  503 -0.49360439731E+02 -0.18391662351E+02 -0.98078832565E+02  0.11142824441E+03  0.47000000000E+01 0.  1.
<mgrwt>
<rscale>  0 0.95228510E+02</rscale>
<asrwt>0</asrwt>
<pdfrwt beam="1">  1        1 0.82882963E-01 0.95337475E+02</pdfrwt>
<pdfrwt beam="2">  1       -1 0.27217849E-02 0.95337475E+02</pdfrwt>
<totfact> 0.16293517E+04</totfact>
</mgrwt>
</event>
<event>
 8    1  0.2964543E-004  0.9462298E+02  0.7546771E-02  0.1293026E+00
         -2   -1    0    0    0  501 -0.00000000000E+00  0.00000000000E+00  0.26209274608E+02  0.26209274608E+02  0.00000000000E+00 0.  1.
          2   -1    0    0  501    0  0.00000000000E+00 -0.00000000000E+00 -0.35201210675E+03  0.35201210675E+03  0.00000000000E+00 0. -1.
         23    2    1    2    0    0 -0.81105249241E+01  0.81917841099E+01 -0.20260856906E+03  0.22288196317E+03  0.92158837389E+02 0.  0.
         23    2    1    2    0    0  0.81105249241E+01 -0.81917841099E+01 -0.12319426309E+03  0.15533941819E+03  0.93918168877E+02 0.  0.
          5    1    4    4  502    0 -0.32219406161E+01 -0.30196338994E+02 -0.12627313006E+03  0.12995842860E+03  0.47000000000E+01 0. -1.
         -5    1    3    3    0  503 -0.47646108664E+02  0.19108878866E+02 -0.11588694844E+03  0.12683523068E+03  0.47000000000E+01 0.  1.
          5    1    3    3  503    0  0.39535583740E+02 -0.10917094756E+02 -0.86721620614E+02  0.96046732487E+02  0.47000000000E+01 0. -1.
         -5    1    4    4    0  502  0.11332465540E+02  0.22004554884E+02  0.30788669690E+01  0.25380989592E+02  0.47000000000E+01 0.  1.
<mgrwt>
<rscale>  0 0.94183432E+02</rscale>
<asrwt>0</asrwt>
<pdfrwt beam="1">  1        2 0.54155707E-01 0.94622980E+02</pdfrwt>
<pdfrwt beam="2">  1       -2 0.40321962E-02 0.94622980E+02</pdfrwt>
<totfact> 0.22463690E+04</totfact>
</mgrwt>
</event>
<event>
 8    1  0.2964543E-004  0.9474716E+02  0.7546771E-02  0.1292265E+00
         -2   -1    0    0    0  501 -0.00000000000E+00  0.00000000000E+00  0.16531642728E+03  0.16531642728E+03  0.00000000000E+00 0. -1.
          2   -1    0    0  501    0  0.00000000000E+00 -0.00000000000E+00 -0.57795027195E+02  0.57795027195E+02  0.00000000000E+00 0.  1.
         23    2    1    2    0    0  0.22858463474E+02  0.86229991049E+01  0.24118453861E+02  0.96885164463E+02  0.90598950383E+02 0.  0.
         23    2    1    2    0    0 -0.22858463474E+02 -0.86229991049E+01  0.83402946226E+02  0.12622629001E+03  0.91543210484E+02 0.  0.
          5    1    3    3  502    0  0.20350634723E+02  0.48916461404E+02  0.13997236611E+02  0.54999828751E+02  0.47000000000E+01 0. -1.
         -5    1    3    3    0  502  0.25078287506E+01 -0.40293462299E+02  0.10121217251E+02  0.41885335712E+02  0.47000000000E+01 0.  1.
          5    1    4    4  503    0  0.28306466869E+02 -0.17804294913E+02  0.60376504346E+02  0.69178473971E+02  0.47000000000E+01 0. -1.
         -5    1    4    4    0  503 -0.51164930343E+02  0.91812958085E+01  0.23026441880E+02  0.57047816043E+02  0.47000000000E+01 0.  1.
<mgrwt>
<rscale>  0 0.94518332E+02</rscale>
<asrwt>0</asrwt>
<pdfrwt beam="1">  1        2 0.88915427E-02 0.94747163E+02</pdfrwt>
<pdfrwt beam="2">  1       -2 0.25433296E-01 0.94747163E+02</pdfrwt>
<totfact> 0.93088326E+03</totfact>
</mgrwt>
</event>
<event>
 8    1  0.2964543E-004  0.1450417E+03  0.7546771E-02  0.1207463E+00
         -2   -1    0    0    0  501 -0.00000000000E+00  0.00000000000E+00  0.18295831881E+03  0.18295831881E+03  0.00000000000E+00 0.  1.
          2   -1    0    0  501    0  0.00000000000E+00 -0.00000000000E+00 -0.11677029048E+03  0.11677029048E+03  0.00000000000E+00 0. -1.
         23    2    1    2    0    0  0.10686893505E+03 -0.24010277850E+02  0.59822595031E+02  0.15689439744E+03  0.95077054813E+02 0.  0.
         23    2    1    2    0    0 -0.10686893505E+03  0.24010277850E+02  0.63654332978E+01  0.14283421184E+03  0.91452887381E+02 0.  0.
          5    1    3    3  502    0  0.73035947274E+02 -0.58878756167E+02  0.25846694192E+02  0.97422272210E+02  0.47000000000E+01 0. -1.
         -5    1    4    4    0  503 -0.67617066005E+02  0.54821242237E+02  0.22764599459E+02  0.90098574928E+02  0.47000000000E+01 0.  1.
          5    1    4    4  503    0 -0.39251869046E+02 -0.30810964387E+02 -0.16399166161E+02  0.52735636915E+02  0.47000000000E+01 0. -1.
         -5    1    3    3    0  502  0.33832987777E+02  0.34868478317E+02  0.33975900839E+02  0.59472125235E+02  0.47000000000E+01 0.  1.
<mgrwt>
<rscale>  0 0.14445079E+03</rscale>
<asrwt>0</asrwt>
<pdfrwt beam="1">  1        2 0.17964660E-01 0.14504175E+03</pdfrwt>
<pdfrwt beam="2">  1       -2 0.28147434E-01 0.14504175E+03</pdfrwt>
<totfact> 0.34841657E+03</totfact>
</mgrwt>
</event>
<event>
 8    1  0.2964543E-004  0.2867992E+03  0.7546771E-02  0.1092178E+00
          2   -1    0    0  501    0  0.00000000000E+00  0.00000000000E+00  0.10174430749E+04  0.10174430749E+04  0.00000000000E+00 0. -1.
         -2   -1    0    0    0  501 -0.00000000000E+00 -0.00000000000E+00 -0.15013450941E+03  0.15013450941E+03  0.00000000000E+00 0.  1.
         23    2    1    2    0    0  0.15596591575E+03  0.22255122474E+03  0.83158753601E+03  0.87965426814E+03  0.91648169071E+02 0.  0.
         23    2    1    2    0    0 -0.15596591575E+03 -0.22255122474E+03  0.35721029452E+02  0.28792331615E+03  0.88144367533E+02 0.  0.
          5    1    3    3  502    0  0.11388554656E+03  0.18719278247E+03  0.74846100548E+03  0.77988910894E+03  0.47000000000E+01 0. -1.
         -5    1    3    3    0  502  0.42080369193E+02  0.35358442270E+02  0.83126530540E+02  0.99765159203E+02  0.47000000000E+01 0.  1.
          5    1    4    4  503    0 -0.89242103968E+02 -0.17175784358E+03  0.55940462915E+02  0.20153494820E+03  0.47000000000E+01 0. -1.
         -5    1    4    4    0  503 -0.66723811784E+02 -0.50793381159E+02 -0.20219433463E+02  0.86388367956E+02  0.47000000000E+01 0.  1.
<mgrwt>
<rscale>  0 0.28652375E+03</rscale>
<asrwt>0</asrwt>
<pdfrwt beam="1">  1        2 0.15652970E+00 0.28679924E+03</pdfrwt>
<pdfrwt beam="2">  1       -2 0.23097617E-01 0.28679924E+03</pdfrwt>
<totfact> 0.42078894E+02</totfact>
</mgrwt>
</event>
<event>
 8    1  0.2964543E-004  0.9877610E+02  0.7546771E-02  0.1283284E+00
          1   -1    0    0  501    0  0.00000000000E+00  0.00000000000E+00  0.91563759360E+02  0.91563759360E+02  0.00000000000E+00 0. -1.
         -1   -1    0    0    0  501 -0.00000000000E+00 -0.00000000000E+00 -0.22776038435E+03  0.22776038435E+03  0.00000000000E+00 0.  1.
         23    2    1    2    0    0 -0.30586988469E+02 -0.23287385826E+02 -0.18506548845E+03  0.20977595940E+03  0.90988196617E+02 0.  0.
         23    2    1    2    0    0  0.30586988469E+02  0.23287385826E+02  0.48868863461E+02  0.10954818431E+03  0.90192974604E+02 0.  0.
          5    1    4    4  502    0  0.42432943971E+02  0.50358499146E+02  0.22746135254E+02  0.69828431453E+02  0.47000000000E+01 0. -1.
         -5    1    3    3    0  503  0.28675969878E+02 -0.22530449563E+02 -0.48774852601E+02  0.61081983041E+02  0.47000000000E+01 0.  1.
          5    1    3    3  503    0 -0.59262958347E+02 -0.75693626313E+00 -0.13629063585E+03  0.14869397636E+03  0.47000000000E+01 0. -1.
         -5    1    4    4    0  502 -0.11845955502E+02 -0.27071113320E+02  0.26122728207E+02  0.39719752858E+02  0.47000000000E+01 0.  1.
<mgrwt>
<rscale>  0 0.98592581E+02</rscale>
<asrwt>0</asrwt>
<pdfrwt beam="1">  1        1 0.14086732E-01 0.98776101E+02</pdfrwt>
<pdfrwt beam="2">  1       -1 0.35040059E-01 0.98776101E+02</pdfrwt>
<totfact> 0.29961650E+03</totfact>
</mgrwt>
</event>
<event>
 8    1  0.2964543E-004  0.1029253E+03  0.7546771E-02  0.1274518E+00
         -1   -1    0    0    0  501 -0.00000000000E+00  0.00000000000E+00  0.27005463577E+03  0.27005463577E+03  0.00000000000E+00 0.  1.
          1   -1    0    0  501    0  0.00000000000E+00 -0.00000000000E+00 -0.40911032663E+02  0.40911032663E+02  0.00000000000E+00 0. -1.
         23    2    1    2    0    0 -0.46442340632E+02 -0.50685816751E+01  0.14813151328E+03  0.18037893466E+03  0.91711685837E+02 0.  0.
         23    2    1    2    0    0  0.46442340632E+02  0.50685816751E+01  0.81012089826E+02  0.13058673377E+03  0.91144691648E+02 0.  0.
          5    1    4    4  502    0 -0.27745887229E+01 -0.26428361971E+02 -0.40428363064E+01  0.27287198179E+02  0.47000000000E+01 0. -1.
         -5    1    4    4    0  502  0.49216929355E+02  0.31496943646E+02  0.85054926133E+02  0.10329953559E+03  0.47000000000E+01 0.  1.
          5    1    3    3  503    0 -0.27803392958E+02  0.19679888206E+02  0.14484462393E+03  0.14887035212E+03  0.47000000000E+01 0. -1.
         -5    1    3    3    0  503 -0.18638947674E+02 -0.24748469881E+02  0.32868893478E+01  0.31508582536E+02  0.47000000000E+01 0.  1.
<mgrwt>
<rscale>  0 0.10279883E+03</rscale>
<asrwt>0</asrwt>
<pdfrwt beam="1">  1        1 0.62940052E-02 0.10292529E+03</pdfrwt>
<pdfrwt beam="2">  1       -1 0.41546866E-01 0.10292529E+03</pdfrwt>
<totfact> 0.64726827E+03</totfact>
</mgrwt>
</event>
<event>
 8    1  0.2964543E-004  0.9385589E+02  0.7546771E-02  0.1294146E+00
         -1   -1    0    0    0  501 -0.00000000000E+00  0.00000000000E+00  0.55835910184E+02  0.55835910184E+02  0.00000000000E+00 0.  1.
          1   -1    0    0  501    0  0.00000000000E+00 -0.00000000000E+00 -0.16123288135E+03  0.16123288135E+03  0.00000000000E+00 0. -1.
         23    2    1    2    0    0 -0.10900561802E+02  0.16044515599E+02 -0.71116268361E+02  0.11775590200E+03  0.91829625406E+02 0.  0.
         23    2    1    2    0    0  0.10900561802E+02 -0.16044515599E+02 -0.34280702802E+02  0.99312889530E+02  0.91168167217E+02 0.  0.
          5    1    3    3  502    0 -0.50657301427E+02  0.17482328470E+02 -0.40415424880E+02  0.67285143716E+02  0.47000000000E+01 0. -1.
         -5    1    3    3    0  502  0.39756739625E+02 -0.14378128704E+01 -0.30700843481E+02  0.50470758285E+02  0.47000000000E+01 0.  1.
          5    1    4    4  503    0  0.12405965345E+02  0.37310366408E+02 -0.15760282521E+02  0.42619806695E+02  0.47000000000E+01 0. -1.
         -5    1    4    4    0  503 -0.15054035426E+01 -0.53354882007E+02 -0.18520420281E+02  0.56693082834E+02  0.47000000000E+01 0.  1.
<mgrwt>
<rscale>  0 0.93693705E+02</rscale>
<asrwt>0</asrwt>
<pdfrwt beam="1">  1        1 0.24805058E-01 0.93855894E+02</pdfrwt>
<pdfrwt beam="2">  1       -1 0.85901401E-02 0.93855894E+02</pdfrwt>
<totfact> 0.13470449E+04</totfact>
</mgrwt>
</event>
<event>
 8    1  0.2964543E-004  0.1762329E+03  0.7546771E-02  0.1172803E+00
          1   -1    0    0  501    0  0.00000000000E+00  0.00000000000E+00  0.38206224408E+03  0.38206224408E+03  0.00000000000E+00 0. -1.
         -1   -1    0    0    0  501 -0.00000000000E+00 -0.00000000000E+00 -0.81981056905E+02  0.81981056905E+02  0.00000000000E+00 0.  1.
         23    2    1    2    0    0 -0.13697705136E+03  0.49441473013E+02  0.10312415606E+03  0.19975159321E+03  0.89771574429E+02 0.  0.
         23    2    1    2    0    0  0.13697705136E+03 -0.49441473013E+02  0.19695703112E+03  0.26429170778E+03  0.99251513042E+02 0.  0.
          5    1    3    3  502    0 -0.60915169089E+02 -0.13204924779E+02  0.74051073897E+02  0.96905517949E+02  0.47000000000E+01 0. -1.
         -5    1    4    4    0  503  0.68062057219E+02 -0.60704721745E+02  0.16221903439E+03  0.18615749245E+03  0.47000000000E+01 0.  1.
          5    1    4    4  503    0  0.68914994137E+02  0.11263248732E+02  0.34737996728E+02  0.78134215332E+02  0.47000000000E+01 0. -1.
         -5    1    3    3    0  502 -0.76061882267E+02  0.62646397792E+02  0.29073082161E+02  0.10284607526E+03  0.47000000000E+01 0.  1.
<mgrwt>
<rscale>  0 0.17492862E+03</rscale>
<asrwt>0</asrwt>
<pdfrwt beam="1">  1        1 0.58778806E-01 0.17623290E+03</pdfrwt>
<pdfrwt beam="2">  1       -1 0.12612471E-01 0.17623290E+03</pdfrwt>
<totfact> 0.26769506E+03</totfact>
</mgrwt>
</event>
<event>
 8    1  0.2964543E-004  0.2974022E+03  0.7546771E-02  0.1086638E+00
          2   -1    0    0  501    0  0.00000000000E+00  0.00000000000E+00  0.22462125612E+04  0.22462125612E+04  0.00000000000E+00 0. -1.
         -2   -1    0    0    0  501 -0.00000000000E+00 -0.00000000000E+00 -0.50498679268E+02  0.50498679268E+02  0.00000000000E+00 0.  1.
         23    2    1    2    0    0  0.18891154250E+03  0.21055171781E+03  0.16401214054E+04  0.16668672018E+04  0.91806575077E+02 0.  0.
         23    2    1    2    0    0 -0.18891154250E+03 -0.21055171781E+03  0.55559247652E+03  0.62984403865E+03  0.89447841215E+02 0.  0.
          5    1    4    4  502    0 -0.76333788441E+01 -0.19383382828E+02  0.11099342769E+03  0.11302926609E+03  0.47000000000E+01 0. -1.
         -5    1    4    4    0  502 -0.18127816366E+03 -0.19116833498E+03  0.44459904883E+03  0.51681477256E+03  0.47000000000E+01 0.  1.
          5    1    3    3  503    0  0.15751079723E+03  0.12180241668E+03  0.12325830555E+04  0.12485706062E+04  0.47000000000E+01 0. -1.
         -5    1    3    3    0  503  0.31400745272E+02  0.88749301135E+02  0.40753834990E+03  0.41829659560E+03  0.47000000000E+01 0.  1.
<mgrwt>
<rscale>  0 0.29722208E+03</rscale>
<asrwt>0</asrwt>
<pdfrwt beam="1">  1        2 0.34557109E+00 0.29740216E+03</pdfrwt>
<pdfrwt beam="2">  1       -2 0.77690293E-02 0.29740216E+03</pdfrwt>
<totfact> 0.54262524E+02</totfact>
</mgrwt>
</event>
<event>
 8    1  0.2964543E-004  0.1253607E+03  0.7546771E-02  0.1237638E+00
         -1   -1    0    0    0  501 -0.00000000000E+00  0.00000000000E+00  0.11370935247E+03  0.11370935247E+03  0.00000000000E+00 0.  1.
          1   -1    0    0  501    0  0.00000000000E+00 -0.00000000000E+00 -0.16769583799E+03  0.16769583799E+03  0.00000000000E+00 0. -1.
         23    2    1    2    0    0 -0.52855646881E+02 -0.54841489307E+02 -0.93212669414E+02  0.15005069645E+03  0.89584046622E+02 0.  0.
         23    2    1    2    0    0  0.52855646881E+02  0.54841489307E+02  0.39226183894E+02  0.13135449401E+03  0.99569077720E+02 0.  0.
          5    1    3    3  502    0 -0.74291482296E+02 -0.57456976601E+02 -0.65471577484E+02  0.11458248540E+03  0.47000000000E+01 0. -1.
         -5    1    3    3    0  502  0.21435835415E+02  0.26154872942E+01 -0.27741091930E+02  0.35468211051E+02  0.47000000000E+01 0.  1.
          5    1    4    4  503    0  0.33052576761E+02  0.47583697325E+02 -0.25234529219E+02  0.63368387597E+02  0.47000000000E+01 0. -1.
         -5    1    4    4    0  503  0.19803070120E+02  0.72577919813E+01  0.64460713113E+02  0.67986106417E+02  0.47000000000E+01 0.  1.
<mgrwt>
<rscale>  0 0.12337028E+03</rscale>
<asrwt>0</asrwt>
<pdfrwt beam="1">  1        1 0.25799360E-01 0.12536072E+03</pdfrwt>
<pdfrwt beam="2">  1       -1 0.17493746E-01 0.12536072E+03</pdfrwt>
<totfact> 0.43962605E+03</totfact>
</mgrwt>
</event>
<event>
 8    1  0.2964543E-004  0.2423431E+03  0.7546771E-02  0.1118418E+00
          1   -1    0    0  501    0  0.00000000000E+00  0.00000000000E+00  0.28133444216E+03  0.28133444216E+03  0.00000000000E+00 0. -1.
         -1   -1    0    0    0  501 -0.00000000000E+00 -0.00000000000E+00 -0.21240258956E+03  0.21240258956E+03  0.00000000000E+00 0.  1.
         23    2    1    2    0    0 -0.16514264808E+03 -0.15080393712E+03 -0.16643856387E+01  0.24234885883E+03  0.93361006487E+02 0.  0.
         23    2    1    2    0    0  0.16514264808E+03  0.15080393712E+03  0.70596238241E+02  0.25138817289E+03  0.90544259617E+02 0.  0.
          5    1    3    3  502    0 -0.15444639500E+03 -0.98142478628E+02 -0.22694160209E+02  0.18445256829E+03  0.47000000000E+01 0. -1.
         -5    1    4    4    0  503  0.10836588958E+03  0.83122567383E+02 -0.24262091911E+01  0.13667663927E+03  0.47000000000E+01 0.  1.
          5    1    4    4  503    0  0.56776758501E+02  0.67681369734E+02  0.73022447432E+02  0.11471153361E+03  0.47000000000E+01 0. -1.
         -5    1    3    3    0  502 -0.10696253076E+02 -0.52661458489E+02  0.21029774570E+02  0.57896290542E+02  0.47000000000E+01 0.  1.
<mgrwt>
<rscale>  0 0.24207492E+03</rscale>
<asrwt>0</asrwt>
<pdfrwt beam="1">  1        1 0.43282222E-01 0.24234314E+03</pdfrwt>
<pdfrwt beam="2">  1       -1 0.32677321E-01 0.24234314E+03</pdfrwt>
<totfact> 0.83952409E+02</totfact>
</mgrwt>
</event>
<event>
 8    1  0.6858296E-004  0.9256239E+02  0.7546771E-02  0.1298403E+00
         -2   -1    0    0    0  501 -0.00000000000E+00  0.00000000000E+00  0.41751111514E+02  0.41751111514E+02  0.00000000000E+00 0.  1.
          2   -1    0    0  501    0  0.00000000000E+00 -0.00000000000E+00 -0.58824402539E+03  0.58824402539E+03  0.00000000000E+00 0. -1.
         23    2    1    2    0    0 -0.49596492166E+00 -0.29242584058E+00 -0.52802831668E+03  0.53560902711E+03  0.89793068854E+02 0.  0.
         23    2    1    2    0    0  0.49596492166E+00  0.29242584058E+00 -0.18464597195E+02  0.94386109790E+02  0.92560601109E+02 0.  0.
          5    1    3    3  502    0 -0.25845368651E+02  0.35888306270E+02 -0.22647952500E+03  0.23080515344E+03  0.47000000000E+01 0. -1.
         -5    1    4    4    0  503  0.26267519961E+01 -0.38261999513E+02  0.16564627432E+02  0.42039949034E+02  0.47000000000E+01 0.  1.
          5    1    4    4  503    0 -0.21307870744E+01  0.38554425354E+02 -0.35029224627E+02  0.52346160756E+02  0.47000000000E+01 0. -1.
         -5    1    3    3    0  502  0.25349403730E+02 -0.36180732110E+02 -0.30154879168E+03  0.30480387368E+03  0.47000000000E+01 0.  1.
<mgrwt>
<rscale>  0 0.91862627E+02</rscale>
<asrwt>0</asrwt>
<pdfrwt beam="1">  1        2 0.90499079E-01 0.92562392E+02</pdfrwt>
<pdfrwt beam="2">  1       -2 0.64232481E-02 0.92562392E+02</pdfrwt>
<totfact> 0.64642217E+03</totfact>
</mgrwt>
</event>
<event>
 8    1  0.2964543E-004  0.1038597E+03  0.7546771E-02  0.1273442E+00
         -1   -1    0    0    0  501 -0.00000000000E+00  0.00000000000E+00  0.68000501423E+03  0.68000501423E+03  0.00000000000E+00 0.  1.
          1   -1    0    0  501    0  0.00000000000E+00 -0.00000000000E+00 -0.15781662867E+02  0.15781662867E+02  0.00000000000E+00 0. -1.
         23    2    1    2    0    0  0.59510911854E+01  0.45709373026E+02  0.37144262098E+03  0.38513027653E+03  0.90724566430E+02 0.  0.
         23    2    1    2    0    0 -0.59510911854E+01 -0.45709373026E+02  0.29278073039E+03  0.31065640057E+03  0.93070300625E+02 0.  0.
          5    1    3    3  502    0 -0.16502660929E+02  0.60851866034E+02  0.32557361686E+03  0.33165578151E+03  0.47000000000E+01 0. -1.
         -5    1    3    3    0  502  0.22453752115E+02 -0.15142493007E+02  0.45869004120E+02  0.53474495018E+02  0.47000000000E+01 0.  1.
          5    1    4    4  503    0 -0.14168543062E+02  0.18946360166E+02  0.16874954292E+03  0.17046468963E+03  0.47000000000E+01 0. -1.
         -5    1    4    4    0  503  0.82174518769E+01 -0.64655733192E+02  0.12403118747E+03  0.14019171093E+03  0.47000000000E+01 0.  1.
<mgrwt>
<rscale>  0 0.10333153E+03</rscale>
<asrwt>0</asrwt>
<pdfrwt beam="1">  1        1 0.24279487E-02 0.10385973E+03</pdfrwt>
<pdfrwt beam="2">  1       -1 0.10461613E+00 0.10385973E+03</pdfrwt>
<totfact> 0.39339271E+03</totfact>
</mgrwt>
</event>
<event>
 8    1  0.2964543E-004  0.1065984E+03  0.7546771E-02  0.1267904E+00
          1   -1    0    0  501    0  0.00000000000E+00  0.00000000000E+00  0.25994136324E+03  0.25994136324E+03  0.00000000000E+00 0. -1.
         -1   -1    0    0    0  501 -0.00000000000E+00 -0.00000000000E+00 -0.44665467634E+02  0.44665467634E+02  0.00000000000E+00 0.  1.
         23    2    1    2    0    0  0.52331956354E+02  0.16200298289E+02  0.78774761617E+02  0.13254689179E+03  0.91444694410E+02 0.  0.
         23    2    1    2    0    0 -0.52331956354E+02 -0.16200298289E+02  0.13650113399E+03  0.17205993908E+03  0.89280343501E+02 0.  0.
          5    1    4    4  502    0 -0.71460526579E+02 -0.31798548822E+02  0.11399530242E+03  0.13832849866E+03  0.47000000000E+01 0. -1.
         -5    1    4    4    0  502  0.19128570225E+02  0.15598250533E+02  0.22505831562E+02  0.33731440420E+02  0.47000000000E+01 0.  1.
          5    1    3    3  503    0  0.25583929803E+02  0.26834219124E+02  0.92903966143E+02  0.10013915171E+03  0.47000000000E+01 0. -1.
         -5    1    3    3    0  503  0.26748026551E+02 -0.10633920835E+02 -0.14129204526E+02  0.32407740082E+02  0.47000000000E+01 0.  1.
<mgrwt>
<rscale>  0 0.10613265E+03</rscale>
<asrwt>0</asrwt>
<pdfrwt beam="1">  1        1 0.39990978E-01 0.10659838E+03</pdfrwt>
<pdfrwt beam="2">  1       -1 0.68716105E-02 0.10659838E+03</pdfrwt>
<totfact> 0.10564418E+04</totfact>
</mgrwt>
</event>
<event>
 8    1  0.2964543E-004  0.9450963E+02  0.7546771E-02  0.1293956E+00
          1   -1    0    0  501    0  0.00000000000E+00  0.00000000000E+00  0.19752767327E+02  0.19752767327E+02  0.00000000000E+00 0. -1.
         -1   -1    0    0    0  501 -0.00000000000E+00 -0.00000000000E+00 -0.59751232292E+03  0.59751232292E+03  0.00000000000E+00 0.  1.
         23    2    1    2    0    0 -0.10786097163E+02  0.19981633857E+01 -0.12634127837E+03  0.15605957070E+03  0.90951297066E+02 0.  0.
         23    2    1    2    0    0  0.10786097163E+02 -0.19981633857E+01 -0.45141827722E+03  0.46120551955E+03  0.93870856503E+02 0.  0.
          5    1    3    3  502    0 -0.45068220219E+02 -0.13437432120E+02 -0.97805312481E+02  0.10862632372E+03  0.47000000000E+01 0. -1.
         -5    1    3    3    0  502  0.34282123056E+02  0.15435595506E+02 -0.28535965892E+02  0.47433246982E+02  0.47000000000E+01 0.  1.
          5    1    4    4  503    0 -0.18315421138E+02 -0.27408853896E+02 -0.66962029318E+02  0.74784378674E+02  0.47000000000E+01 0. -1.
         -5    1    4    4    0  503  0.29101518302E+02  0.25410690511E+02 -0.38445624790E+03  0.38642114087E+03  0.47000000000E+01 0.  1.
<mgrwt>
<rscale>  0 0.93776340E+02</rscale>
<asrwt>0</asrwt>
<pdfrwt beam="1">  1        1 0.30388869E-02 0.94509630E+02</pdfrwt>
<pdfrwt beam="2">  1       -1 0.91924984E-01 0.94509630E+02</pdfrwt>
<totfact> 0.37970188E+03</totfact>
</mgrwt>
</event>
<event>
 8    1  0.2964543E-004  0.9836377E+02  0.7546771E-02  0.1284324E+00
          1   -1    0    0  501    0  0.00000000000E+00  0.00000000000E+00  0.46600466281E+03  0.46600466281E+03  0.00000000000E+00 0. -1.
         -1   -1    0    0    0  501 -0.00000000000E+00 -0.00000000000E+00 -0.21879018909E+02  0.21879018909E+02  0.00000000000E+00 0.  1.
         23    2    1    2    0    0  0.78492973979E+01  0.32263574596E+02  0.28113478330E+03  0.29751180247E+03  0.91509324725E+02 0.  0.
         23    2    1    2    0    0 -0.78492973979E+01 -0.32263574596E+02  0.16299086061E+03  0.19037187926E+03  0.92589859351E+02 0.  0.
          5    1    4    4  502    0  0.11507560641E+02 -0.61604437098E+02  0.10113490392E+03  0.11907094277E+03  0.47000000000E+01 0. -1.
         -5    1    3    3    0  503  0.48587790005E+02  0.73556542773E+01  0.14180574532E+03  0.15015271690E+03  0.47000000000E+01 0.  1.
          5    1    3    3  503    0 -0.40738492607E+02  0.24907920318E+02  0.13932903798E+03  0.14735908557E+03  0.47000000000E+01 0. -1.
         -5    1    4    4    0  502 -0.19356858039E+02  0.29340862503E+02  0.61855956689E+02  0.71300936484E+02  0.47000000000E+01 0.  1.
<mgrwt>
<rscale>  0 0.98108676E+02</rscale>
<asrwt>0</asrwt>
<pdfrwt beam="1">  1        1 0.71693018E-01 0.98363773E+02</pdfrwt>
<pdfrwt beam="2">  1       -1 0.33660033E-02 0.98363773E+02</pdfrwt>
<totfact> 0.14496548E+04</totfact>
</mgrwt>
</event>
<event>
 8    1  0.2964543E-004  0.1306523E+03  0.7546771E-02  0.1231328E+00
          1   -1    0    0  501    0  0.00000000000E+00  0.00000000000E+00  0.12305636900E+03  0.12305636900E+03  0.00000000000E+00 0. -1.
         -1   -1    0    0    0  501 -0.00000000000E+00 -0.00000000000E+00 -0.19796359586E+03  0.19796359586E+03  0.00000000000E+00 0.  1.
         23    2    1    2    0    0  0.40867853333E+01 -0.74067470858E+02 -0.13308083868E+03  0.17800184984E+03  0.92040517541E+02 0.  0.
         23    2    1    2    0    0 -0.40867853333E+01  0.74067470858E+02  0.58173611815E+02  0.14301811502E+03  0.10755147633E+03 0.  0.
          5    1    4    4  502    0 -0.38715739529E+02  0.82092030529E+02  0.56721555923E+02  0.10713279083E+03  0.47000000000E+01 0. -1.
         -5    1    4    4    0  502  0.34628954195E+02 -0.80245596718E+01  0.14520558918E+01  0.35885324199E+02  0.47000000000E+01 0.  1.
          5    1    3    3  503    0  0.41289587742E+02 -0.34950047490E+02 -0.10194938257E+03  0.11550801912E+03  0.47000000000E+01 0. -1.
         -5    1    3    3    0  503 -0.37202802408E+02 -0.39117423367E+02 -0.31131456105E+02  0.62493830713E+02  0.47000000000E+01 0.  1.
<mgrwt>
<rscale>  0 0.12742462E+03</rscale>
<asrwt>0</asrwt>
<pdfrwt beam="1">  1        1 0.18931749E-01 0.13065226E+03</pdfrwt>
<pdfrwt beam="2">  1       -1 0.30455938E-01 0.13065226E+03</pdfrwt>
<totfact> 0.26399773E+03</totfact>
</mgrwt>
</event>
<event>
 8    1  0.2964543E-004  0.2236451E+03  0.7546771E-02  0.1131438E+00
         -2   -1    0    0    0  501 -0.00000000000E+00  0.00000000000E+00  0.28412879565E+02  0.28412879565E+02  0.00000000000E+00 0.  1.
          2   -1    0    0  501    0  0.00000000000E+00 -0.00000000000E+00 -0.21047111274E+04  0.21047111274E+04  0.00000000000E+00 0. -1.
         23    2    1    2    0    0  0.20006444607E+03  0.39837266875E+02 -0.60282297455E+03  0.64297175926E+03  0.91675264663E+02 0.  0.
         23    2    1    2    0    0 -0.20006444607E+03 -0.39837266875E+02 -0.14734752733E+04  0.14901522477E+04  0.88382973079E+02 0.  0.
          5    1    4    4  502    0 -0.19779223810E+03 -0.16839021227E+02 -0.12982398469E+04  0.13133370140E+04  0.47000000000E+01 0. -1.
         -5    1    4    4    0  502 -0.22722079762E+01 -0.22998245648E+02 -0.17523542639E+03  0.17681523377E+03  0.47000000000E+01 0.  1.
          5    1    3    3  503    0  0.29807817707E+02  0.15208365101E+02 -0.22848921368E+03  0.23097448156E+03  0.47000000000E+01 0. -1.
         -5    1    3    3    0  503  0.17025662837E+03  0.24628901774E+02 -0.37433376087E+03  0.41199727770E+03  0.47000000000E+01 0.  1.
<mgrwt>
<rscale>  0 0.22331207E+03</rscale>
<asrwt>0</asrwt>
<pdfrwt beam="1">  1        2 0.32380168E+00 0.22364513E+03</pdfrwt>
<pdfrwt beam="2">  1       -2 0.43712126E-02 0.22364513E+03</pdfrwt>
<totfact> 0.15784649E+03</totfact>
</mgrwt>
</event>
<event>
 8    1  0.2964543E-004  0.9874025E+02  0.7546771E-02  0.1284322E+00
          2   -1    0    0  501    0  0.00000000000E+00  0.00000000000E+00  0.76555113392E+03  0.76555113392E+03  0.00000000000E+00 0. -1.
         -2   -1    0    0    0  501 -0.00000000000E+00 -0.00000000000E+00 -0.12912494881E+02  0.12912494881E+02  0.00000000000E+00 0.  1.
         23    2    1    2    0    0  0.90187046732E+01  0.35744948715E+02  0.30457660015E+03  0.32018204678E+03  0.91600214687E+02 0.  0.
         23    2    1    2    0    0 -0.90187046732E+01 -0.35744948715E+02  0.44806203890E+03  0.45828158202E+03  0.88900952363E+02 0.  0.
          5    1    4    4  502    0 -0.61827445479E+01 -0.64374206650E+02  0.35091117169E+03  0.35685151707E+03  0.47000000000E+01 0. -1.
         -5    1    4    4    0  502 -0.28359601253E+01  0.28629257934E+02  0.97150867201E+02  0.10143006496E+03  0.47000000000E+01 0.  1.
          5    1    3    3  503    0  0.45543598260E+02  0.19531838443E+02  0.10021100373E+03  0.11189301731E+03  0.47000000000E+01 0. -1.
         -5    1    3    3    0  503 -0.36524893587E+02  0.16213110272E+02  0.20436559642E+03  0.20828902947E+03  0.47000000000E+01 0.  1.
<mgrwt>
<rscale>  0 0.98109537E+02</rscale>
<asrwt>0</asrwt>
<pdfrwt beam="1">  1        2 0.11777706E+00 0.98740254E+02</pdfrwt>
<pdfrwt beam="2">  1       -2 0.19865383E-02 0.98740254E+02</pdfrwt>
<totfact> 0.26831606E+04</totfact>
</mgrwt>
</event>
<event>
 8    1  0.2964543E-004  0.1095965E+03  0.7546771E-02  0.1263421E+00
          2   -1    0    0  501    0  0.00000000000E+00  0.00000000000E+00  0.22135063850E+03  0.22135063850E+03  0.00000000000E+00 0. -1.
         -2   -1    0    0    0  501 -0.00000000000E+00 -0.00000000000E+00 -0.57630093058E+02  0.57630093058E+02  0.00000000000E+00 0.  1.
         23    2    1    2    0    0  0.34103376740E+02  0.42022893377E+02  0.37129203925E+02  0.11153888790E+03  0.90185264081E+02 0.  0.
         23    2    1    2    0    0 -0.34103376740E+02 -0.42022893377E+02  0.12659134151E+03  0.16744184365E+03  0.95301833073E+02 0.  0.
          5    1    3    3  502    0 -0.90673412160E+01  0.57879520581E+02  0.23956675820E+02  0.63468637103E+02  0.47000000000E+01 0. -1.
         -5    1    4    4    0  503 -0.16283399639E+02 -0.12986743533E+02 -0.12105659590E+02  0.24544685891E+02  0.47000000000E+01 0.  1.
          5    1    4    4  503    0 -0.17819977101E+02 -0.29036149845E+02  0.13869700110E+03  0.14289715776E+03  0.47000000000E+01 0. -1.
         -5    1    3    3    0  502  0.43170717956E+02 -0.15856627204E+02  0.13172528105E+02  0.48070250798E+02  0.47000000000E+01 0.  1.
<mgrwt>
<rscale>  0 0.10847473E+03</rscale>
<asrwt>0</asrwt>
<pdfrwt beam="1">  1        2 0.34053944E-01 0.10959655E+03</pdfrwt>
<pdfrwt beam="2">  1       -2 0.88661683E-02 0.10959655E+03</pdfrwt>
<totfact> 0.11329836E+04</totfact>
</mgrwt>
</event>
<event>
 8    1  0.2964543E-004  0.1710106E+03  0.7546771E-02  0.1177026E+00
         -2   -1    0    0    0  501 -0.00000000000E+00  0.00000000000E+00  0.27885048723E+02  0.27885048723E+02  0.00000000000E+00 0.  1.
          2   -1    0    0  501    0  0.00000000000E+00 -0.00000000000E+00 -0.15857531486E+04  0.15857531486E+04  0.00000000000E+00 0. -1.
         23    2    1    2    0    0  0.12296049892E+03  0.79080500129E+02 -0.30575139962E+03  0.34989737761E+03  0.87012911054E+02 0.  0.
         23    2    1    2    0    0 -0.12296049892E+03 -0.79080500129E+02 -0.12521167002E+04  0.12637408197E+04  0.88722142465E+02 0.  0.
          5    1    4    4  502    0 -0.11396056825E+02 -0.50455882098E+02 -0.27635230426E+03  0.28119095330E+03  0.47000000000E+01 0. -1.
         -5    1    4    4    0  502 -0.11156444210E+03 -0.28624618031E+02 -0.97576439596E+03  0.98254986638E+03  0.47000000000E+01 0.  1.
          5    1    3    3  503    0  0.24964261306E+02  0.48919069991E+01 -0.14602708336E+03  0.14830085694E+03  0.47000000000E+01 0. -1.
         -5    1    3    3    0  503  0.97996237616E+02  0.74188593130E+02 -0.15972431627E+03  0.20159652067E+03  0.47000000000E+01 0.  1.
<mgrwt>
<rscale>  0 0.17079006E+03</rscale>
<asrwt>0</asrwt>
<pdfrwt beam="1">  1        2 0.24396206E+00 0.17101061E+03</pdfrwt>
<pdfrwt beam="2">  1       -2 0.42900068E-02 0.17101061E+03</pdfrwt>
<totfact> 0.30295749E+03</totfact>
</mgrwt>
</event>
<event>
 8    1  0.2964543E-004  0.1088287E+03  0.7546771E-02  0.1263221E+00
          1   -1    0    0  501    0  0.00000000000E+00  0.00000000000E+00  0.12341560042E+03  0.12341560042E+03  0.00000000000E+00 0. -1.
         -1   -1    0    0    0  501 -0.00000000000E+00 -0.00000000000E+00 -0.15937718715E+03  0.15937718715E+03  0.00000000000E+00 0.  1.
         23    2    1    2    0    0 -0.17082175871E+01  0.59467492477E+02 -0.10782664141E+03  0.15320007576E+03  0.91128359726E+02 0.  0.
         23    2    1    2    0    0  0.17082175871E+01 -0.59467492477E+02  0.71865054687E+02  0.12959271181E+03  0.89946563029E+02 0.  0.
          5    1    4    4  502    0  0.32710768092E+02 -0.47650030861E+02  0.76252564530E+02  0.95796990494E+02  0.47000000000E+01 0. -1.
         -5    1    4    4    0  502 -0.31002550504E+02 -0.11817461616E+02 -0.43875098429E+01  0.33795721319E+02  0.47000000000E+01 0.  1.
          5    1    3    3  503    0 -0.44669135230E+02  0.20847435653E+02 -0.61782670277E+02  0.79177872933E+02  0.47000000000E+01 0. -1.
         -5    1    3    3    0  503  0.42960917643E+02  0.38620056824E+02 -0.46043971136E+02  0.74022202830E+02  0.47000000000E+01 0.  1.
<mgrwt>
<rscale>  0 0.10858091E+03</rscale>
<asrwt>0</asrwt>
<pdfrwt beam="1">  1        1 0.18987015E-01 0.10882867E+03</pdfrwt>
<pdfrwt beam="2">  1       -1 0.24519567E-01 0.10882867E+03</pdfrwt>
<totfact> 0.37285535E+03</totfact>
</mgrwt>
</event>
<event>
 8    1  0.2964543E-004  0.9302481E+02  0.7546771E-02  0.1297511E+00
         -1   -1    0    0    0  501 -0.00000000000E+00  0.00000000000E+00  0.13143259948E+02  0.13143259948E+02  0.00000000000E+00 0.  1.
          1   -1    0    0  501    0  0.00000000000E+00 -0.00000000000E+00 -0.70691422176E+03  0.70691422176E+03  0.00000000000E+00 0. -1.
         23    2    1    2    0    0  0.10217134028E+02 -0.13565853015E+02 -0.23871845950E+03  0.25620327534E+03  0.91461430080E+02 0.  0.
         23    2    1    2    0    0 -0.10217134028E+02  0.13565853015E+02 -0.45505250231E+03  0.46385420637E+03  0.88314906503E+02 0.  0.
          5    1    4    4  502    0 -0.13140919380E+01  0.50842539229E+02 -0.24204721721E+03  0.24737751716E+03  0.47000000000E+01 0.  1.
         -5    1    4    4    0  502 -0.89030420897E+01 -0.37276686214E+02 -0.21300528509E+03  0.21647668921E+03  0.47000000000E+01 0. -1.
          5    1    3    3  503    0  0.19890644990E+01 -0.52236372512E+02 -0.15130488834E+03  0.16014947464E+03  0.47000000000E+01 0. -1.
         -5    1    3    3    0  503  0.82280695287E+01  0.38670519497E+02 -0.87413571163E+02  0.96053800705E+02  0.47000000000E+01 0.  1.
<mgrwt>
<rscale>  0 0.92242034E+02</rscale>
<asrwt>0</asrwt>
<pdfrwt beam="1">  1        1 0.10875608E+00 0.93024811E+02</pdfrwt>
<pdfrwt beam="2">  1       -1 0.20220392E-02 0.93024811E+02</pdfrwt>
<totfact> 0.17224149E+04</totfact>
</mgrwt>
</event>
<event>
 8    1  0.6604026E-004  0.1779798E+03  0.7546771E-02  0.1171371E+00
          4   -1    0    0  501    0  0.00000000000E+00  0.00000000000E+00  0.21690909644E+03  0.21690909644E+03  0.00000000000E+00 0. -1.
         -4   -1    0    0    0  501 -0.00000000000E+00 -0.00000000000E+00 -0.33232755905E+03  0.33232755905E+03  0.00000000000E+00 0.  1.
         23    2    1    2    0    0  0.11827909179E+03  0.40826442568E+02  0.15117532233E+03  0.22869170585E+03  0.11742732337E+03 0.  0.
         23    2    1    2    0    0 -0.11827909179E+03 -0.40826442568E+02 -0.26659378494E+03  0.32054494964E+03  0.12657044128E+03 0.  0.
          5    1    3    3  502    0  0.59463757574E+02  0.53865148615E+02  0.14771763206E+03  0.16816652913E+03  0.47000000000E+01 0. -1.
         -5    1    4    4    0  503 -0.11939145441E+03 -0.76354416627E+02 -0.22031056854E+03  0.26199838346E+03  0.47000000000E+01 0.  1.
          5    1    4    4  503    0  0.11123626276E+01  0.35527974060E+02 -0.46283216402E+02  0.58546566184E+02  0.47000000000E+01 0. -1.
         -5    1    3    3    0  502  0.58815334212E+02 -0.13038706047E+02  0.34576902742E+01  0.60525176711E+02  0.47000000000E+01 0.  1.
<mgrwt>
<rscale>  0 0.17636249E+03</rscale>
<asrwt>0</asrwt>
<pdfrwt beam="1">  1        4 0.33370630E-01 0.17797983E+03</pdfrwt>
<pdfrwt beam="2">  1       -4 0.51127317E-01 0.17797983E+03</pdfrwt>
<totfact> 0.56201523E+01</totfact>
</mgrwt>
</event>
<event>
 8    1  0.2964543E-004  0.9321707E+02  0.7546771E-02  0.1295754E+00
          2   -1    0    0  501    0  0.00000000000E+00  0.00000000000E+00  0.25221861737E+03  0.25221861737E+03  0.00000000000E+00 0. -1.
         -2   -1    0    0    0  501 -0.00000000000E+00 -0.00000000000E+00 -0.52157196452E+02  0.52157196452E+02  0.00000000000E+00 0.  1.
         23    2    1    2    0    0 -0.17044496874E+02 -0.59881046540E+01  0.10241324033E+02  0.92902196716E+02  0.90551428292E+02 0.  0.
         23    2    1    2    0    0  0.17044496874E+02  0.59881046540E+01  0.18982009688E+03  0.21147361710E+03  0.91449709016E+02 0.  0.
          5    1    4    4  502    0 -0.11140893390E+02  0.30118426790E+02  0.16105052710E+03  0.16428816578E+03  0.47000000000E+01 0. -1.
         -5    1    3    3    0  503 -0.38264713704E+02 -0.82966209980E+00 -0.28658632272E+02  0.48044602795E+02  0.47000000000E+01 0.  1.
          5    1    3    3  503    0  0.21220216830E+02 -0.51584425542E+01  0.38899956304E+02  0.44857593921E+02  0.47000000000E+01 0. -1.
         -5    1    4    4    0  502  0.28185390264E+02 -0.24130322136E+02  0.28769569787E+02  0.47185451322E+02  0.47000000000E+01 0.  1.
<mgrwt>
<rscale>  0 0.92996010E+02</rscale>
<asrwt>0</asrwt>
<pdfrwt beam="1">  1        2 0.38802863E-01 0.93217067E+02</pdfrwt>
<pdfrwt beam="2">  1       -2 0.80241843E-02 0.93217067E+02</pdfrwt>
<totfact> 0.11341055E+04</totfact>
</mgrwt>
</event>
<event>
 8    1  0.2964543E-004  0.1052754E+03  0.7546771E-02  0.1270970E+00
         -1   -1    0    0    0  501 -0.00000000000E+00  0.00000000000E+00  0.46532904362E+02  0.46532904362E+02  0.00000000000E+00 0.  1.
          1   -1    0    0  501    0  0.00000000000E+00 -0.00000000000E+00 -0.29700585687E+03  0.29700585687E+03  0.00000000000E+00 0. -1.
         23    2    1    2    0    0  0.13553330720E+02  0.47773692195E+02 -0.20697273607E+03  0.23220815362E+03  0.92827230325E+02 0.  0.
         23    2    1    2    0    0 -0.13553330720E+02 -0.47773692195E+02 -0.43500216436E+02  0.11133060761E+03  0.89644949228E+02 0.  0.
          5    1    4    4  502    0 -0.83871051919E+00  0.26267844889E+02 -0.66080599286E+01  0.27503810035E+02  0.47000000000E+01 0. -1.
         -5    1    3    3    0  503 -0.29519392062E+02  0.21243796453E+02 -0.15595405675E+03  0.16020752546E+03  0.47000000000E+01 0.  1.
          5    1    3    3  503    0  0.43072722782E+02  0.26529895742E+02 -0.51018679316E+02  0.72000628157E+02  0.47000000000E+01 0. -1.
         -5    1    4    4    0  502 -0.12714620201E+02 -0.74041537083E+02 -0.36892156508E+02  0.83826797579E+02  0.47000000000E+01 0.  1.
<mgrwt>
<rscale>  0 0.10456960E+03</rscale>
<asrwt>0</asrwt>
<pdfrwt beam="1">  1        1 0.45693209E-01 0.10527542E+03</pdfrwt>
<pdfrwt beam="2">  1       -1 0.71589082E-02 0.10527542E+03</pdfrwt>
<totfact> 0.84321137E+03</totfact>
</mgrwt>
</event>
<event>
 8    1  0.2964543E-004  0.9452360E+02  0.7546771E-02  0.1293046E+00
         -1   -1    0    0    0  501 -0.00000000000E+00  0.00000000000E+00  0.24979536522E+03  0.24979536522E+03  0.00000000000E+00 0.  1.
          1   -1    0    0  501    0  0.00000000000E+00 -0.00000000000E+00 -0.60901929810E+02  0.60901929810E+02  0.00000000000E+00 0. -1.
         23    2    1    2    0    0 -0.89490295602E+01 -0.20755762437E+02  0.19487266800E+03  0.21598477207E+03  0.90350308397E+02 0.  0.
         23    2    1    2    0    0  0.89490295602E+01  0.20755762437E+02 -0.59792325933E+01  0.94712522959E+02  0.91781392332E+02 0.  0.
          5    1    3    3  502    0 -0.29024767539E+02 -0.39929964525E+02  0.58283828167E+02  0.76524073490E+02  0.47000000000E+01 0. -1.
         -5    1    3    3    0  502  0.20075737979E+02  0.19174202087E+02  0.13658883984E+03  0.13946069858E+03  0.47000000000E+01 0.  1.
          5    1    4    4  503    0  0.71307166043E+01  0.54296137819E+02 -0.19328467083E+02  0.58263173113E+02  0.47000000000E+01 0. -1.
         -5    1    4    4    0  503  0.18183129558E+01 -0.33540375382E+02  0.13349234490E+02  0.36449349846E+02  0.47000000000E+01 0.  1.
<mgrwt>
<rscale>  0 0.94174435E+02</rscale>
<asrwt>0</asrwt>
<pdfrwt beam="1">  1        1 0.93695278E-02 0.94523599E+02</pdfrwt>
<pdfrwt beam="2">  1       -1 0.38430056E-01 0.94523599E+02</pdfrwt>
<totfact> 0.43369211E+03</totfact>
</mgrwt>
</event>
<event>
 8    1  0.2964543E-004  0.9477367E+02  0.7546771E-02  0.1292691E+00
          1   -1    0    0  501    0  0.00000000000E+00  0.00000000000E+00  0.74321224838E+03  0.74321224838E+03  0.00000000000E+00 0. -1.
         -1   -1    0    0    0  501 -0.00000000000E+00 -0.00000000000E+00 -0.13406444614E+02  0.13406444614E+02  0.00000000000E+00 0.  1.
         23    2    1    2    0    0  0.28817300291E+02 -0.16049710025E+01  0.49027431114E+03  0.49901942103E+03  0.88422110786E+02 0.  0.
         23    2    1    2    0    0 -0.28817300291E+02  0.16049710025E+01  0.23953149262E+03  0.25759927196E+03  0.90272012425E+02 0.  0.
          5    1    3    3  502    0  0.50246362065E+02 -0.28283468701E+01  0.45254017970E+03  0.45535414865E+03  0.47000000000E+01 0. -1.
         -5    1    4    4    0  503 -0.23982164678E+02  0.41025083985E+02  0.80331914243E+02  0.93453240632E+02  0.47000000000E+01 0.  1.
          5    1    4    4  503    0 -0.48351356130E+01 -0.39420112982E+02  0.15919957838E+03  0.16414603133E+03  0.47000000000E+01 0. -1.
         -5    1    3    3    0  502 -0.21429061774E+02  0.12233758676E+01  0.37734131440E+02  0.43665272386E+02  0.47000000000E+01 0.  1.
<mgrwt>
<rscale>  0 0.94330492E+02</rscale>
<asrwt>0</asrwt>
<pdfrwt beam="1">  1        1 0.11434031E+00 0.94773672E+02</pdfrwt>
<pdfrwt beam="2">  1       -1 0.20625305E-02 0.94773672E+02</pdfrwt>
<totfact> 0.15614511E+04</totfact>
</mgrwt>
</event>
<event>
 8    1  0.2964543E-004  0.9181237E+02  0.7546771E-02  0.1298643E+00
         -4   -1    0    0    0  501 -0.00000000000E+00  0.00000000000E+00  0.72823227256E+02  0.72823227256E+02  0.00000000000E+00 0.  1.
          4   -1    0    0  501    0  0.00000000000E+00 -0.00000000000E+00 -0.12167711026E+03  0.12167711026E+03  0.00000000000E+00 0. -1.
         23    2    1    2    0    0  0.11410669035E+02 -0.62230490043E+00 -0.24759491582E+01  0.91639149071E+02  0.90890113252E+02 0.  0.
         23    2    1    2    0    0 -0.11410669035E+02  0.62230490043E+00 -0.46377933847E+02  0.10286118845E+03  0.91098412221E+02 0.  0.
          5    1    4    4  502    0  0.23421070509E+02  0.15422051707E+01 -0.60429384041E+02  0.64997887628E+02  0.47000000000E+01 0. -1.
         -5    1    4    4    0  502 -0.34831739545E+02 -0.91990027030E+00  0.14051450194E+02  0.37863300817E+02  0.47000000000E+01 0.  1.
          5    1    3    3  503    0 -0.30970796110E+02  0.23325559258E+02 -0.13830712831E+02  0.41432481748E+02  0.47000000000E+01 0. -1.
         -5    1    3    3    0  503  0.42381465145E+02 -0.23947864158E+02  0.11354763673E+02  0.50206667323E+02  0.47000000000E+01 0.  1.
<mgrwt>
<rscale>  0 0.91760658E+02</rscale>
<asrwt>0</asrwt>
<pdfrwt beam="1">  1        4 0.18719555E-01 0.91812370E+02</pdfrwt>
<pdfrwt beam="2">  1       -4 0.11203574E-01 0.91812370E+02</pdfrwt>
<totfact> 0.23673044E+03</totfact>
</mgrwt>
</event>
<event>
 8    1  0.2964543E-004  0.9523266E+02  0.7546771E-02  0.1299452E+00
         -1   -1    0    0    0  501 -0.00000000000E+00  0.00000000000E+00  0.11638887629E+03  0.11638887629E+03  0.00000000000E+00 0.  1.
          1   -1    0    0  501    0  0.00000000000E+00 -0.00000000000E+00 -0.69560624905E+02  0.69560624905E+02  0.00000000000E+00 0. -1.
         23    2    1    2    0    0 -0.28108183346E+02  0.13728064922E+02  0.61634178707E+01  0.95431900705E+02  0.89948486451E+02 0.  0.
         23    2    1    2    0    0  0.28108183346E+02 -0.13728064922E+02  0.40664833517E+02  0.90517600492E+02  0.74573973854E+02 0.  0.
          5    1    4    4  502    0 -0.12892904949E+02  0.22125360165E+02  0.10445389060E+02  0.28052713114E+02  0.47000000000E+01 0. -1.
         -5    1    3    3    0  503  0.30359254437E+02 -0.59623465133E+01 -0.72473819848E+01  0.32122397973E+02  0.47000000000E+01 0.  1.
          5    1    3    3  503    0 -0.58467437783E+02  0.19690411436E+02  0.13410799855E+02  0.63309502732E+02  0.47000000000E+01 0. -1.
         -5    1    4    4    0  502  0.41001088295E+02 -0.35853425087E+02  0.30219444457E+02  0.62464887378E+02  0.47000000000E+01 0.  1.
<mgrwt>
<rscale>  0 0.91418705E+02</rscale>
<asrwt>0</asrwt>
<pdfrwt beam="1">  1        1 0.10701635E-01 0.95232662E+02</pdfrwt>
<pdfrwt beam="2">  1       -1 0.17905981E-01 0.95232662E+02</pdfrwt>
<totfact> 0.12762362E+04</totfact>
</mgrwt>
</event>
<event>
 8    1  0.2964543E-004  0.9287549E+02  0.7546771E-02  0.1296277E+00
          1   -1    0    0  501    0  0.00000000000E+00  0.00000000000E+00  0.45311782699E+02  0.45311782699E+02  0.00000000000E+00 0. -1.
         -1   -1    0    0    0  501 -0.00000000000E+00 -0.00000000000E+00 -0.40116648293E+03  0.40116648293E+03  0.00000000000E+00 0.  1.
         23    2    1    2    0    0  0.18613891583E+01  0.10509031520E+02 -0.34026937861E+03  0.35271675160E+03  0.92260242416E+02 0.  0.
         23    2    1    2    0    0 -0.18613891583E+01 -0.10509031520E+02 -0.15585321627E+02  0.93761514029E+02  0.91839069844E+02 0.  0.
          5    1    4    4  502    0  0.11726687997E+02 -0.26189780391E+02  0.31027537867E+02  0.42523145631E+02  0.47000000000E+01 0. -1.
         -5    1    3    3    0  503 -0.44043724720E+02 -0.11241671997E+01 -0.18970548782E+03  0.19481112789E+03  0.47000000000E+01 0.  1.
          5    1    3    3  503    0  0.45905113878E+02  0.11633198719E+02 -0.15056389078E+03  0.15790562371E+03  0.47000000000E+01 0. -1.
         -5    1    4    4    0  502 -0.13588077156E+02  0.15680748871E+02 -0.46612859493E+02  0.51238368398E+02  0.47000000000E+01 0.  1.
<mgrwt>
<rscale>  0 0.92770721E+02</rscale>
<asrwt>0</asrwt>
<pdfrwt beam="1">  1        1 0.69710435E-02 0.92875491E+02</pdfrwt>
<pdfrwt beam="2">  1       -1 0.61717921E-01 0.92875491E+02</pdfrwt>
<totfact> 0.27297492E+03</totfact>
</mgrwt>
</event>
<event>
 8    1  0.2964543E-004  0.1335011E+03  0.7546771E-02  0.1222689E+00
          1   -1    0    0  501    0  0.00000000000E+00  0.00000000000E+00  0.11533803638E+04  0.11533803638E+04  0.00000000000E+00 0. -1.
         -1   -1    0    0    0  501 -0.00000000000E+00 -0.00000000000E+00 -0.19926651008E+02  0.19926651008E+02  0.00000000000E+00 0.  1.
         23    2    1    2    0    0  0.13173818524E+02 -0.95764402223E+02  0.84960267602E+03  0.86002747322E+03  0.92077018616E+02 0.  0.
         23    2    1    2    0    0 -0.13173818524E+02  0.95764402223E+02  0.28385103675E+03  0.31327954157E+03  0.90709921594E+02 0.  0.
          5    1    4    4  502    0 -0.42279578805E+02  0.77990357052E+02  0.24864653438E+03  0.26404023867E+03  0.47000000000E+01 0. -1.
         -5    1    4    4    0  502  0.29105760280E+02  0.17774045170E+02  0.35204502370E+02  0.49239302903E+02  0.47000000000E+01 0.  1.
          5    1    3    3  503    0 -0.37421827184E+02 -0.21577516847E+02  0.25938912239E+03  0.26300340149E+03  0.47000000000E+01 0. -1.
         -5    1    3    3    0  503  0.50595645708E+02 -0.74186885376E+02  0.59021355363E+03  0.59702407173E+03  0.47000000000E+01 0.  1.
<mgrwt>
<rscale>  0 0.13326569E+03</rscale>
<asrwt>0</asrwt>
<pdfrwt beam="1">  1        1 0.17744308E+00 0.13350111E+03</pdfrwt>
<pdfrwt beam="2">  1       -1 0.30656395E-02 0.13350111E+03</pdfrwt>
<totfact> 0.44235993E+03</totfact>
</mgrwt>
</event>
<event>
 8    1  0.2964543E-004  0.9538821E+02  0.7546771E-02  0.1292491E+00
         -1   -1    0    0    0  501 -0.00000000000E+00  0.00000000000E+00  0.13641003443E+03  0.13641003443E+03  0.00000000000E+00 0.  1.
          1   -1    0    0  501    0  0.00000000000E+00 -0.00000000000E+00 -0.71581276261E+02  0.71581276261E+02  0.00000000000E+00 0. -1.
         23    2    1    2    0    0  0.47156349291E+01 -0.12063149542E+02  0.65528636944E+02  0.11260053415E+03  0.90648338329E+02 0.  0.
         23    2    1    2    0    0 -0.47156349291E+01  0.12063149542E+02 -0.69987877294E+00  0.95390776542E+02  0.94504780987E+02 0.  0.
          5    1    3    3  502    0 -0.10965228773E+02  0.36008013916E+02  0.42118769565E+02  0.56682396367E+02  0.47000000000E+01 0. -1.
         -5    1    3    3    0  502  0.15680863702E+02 -0.48071163458E+02  0.23409867379E+02  0.55918137785E+02  0.47000000000E+01 0.  1.
          5    1    4    4  503    0 -0.29018820461E+02  0.36801398862E+02  0.23700740380E+02  0.52728075953E+02  0.47000000000E+01 0. -1.
         -5    1    4    4    0  503  0.24303185532E+02 -0.24738249321E+02 -0.24400619153E+02  0.42662700589E+02  0.47000000000E+01 0.  1.
<mgrwt>
<rscale>  0 0.94418721E+02</rscale>
<asrwt>0</asrwt>
<pdfrwt beam="1">  1        1 0.11012504E-01 0.95388209E+02</pdfrwt>
<pdfrwt beam="2">  1       -1 0.20986159E-01 0.95388209E+02</pdfrwt>
<totfact> 0.95593161E+03</totfact>
</mgrwt>
</event>
<event>
 8    1  0.2964543E-004  0.9055534E+02  0.7546771E-02  0.1302122E+00
         -1   -1    0    0    0  501 -0.00000000000E+00  0.00000000000E+00  0.31601777704E+02  0.31601777704E+02  0.00000000000E+00 0.  1.
          1   -1    0    0  501    0  0.00000000000E+00 -0.00000000000E+00 -0.25660491545E+03  0.25660491545E+03  0.00000000000E+00 0. -1.
         23    2    1    2    0    0  0.25127522321E+01 -0.36740146212E+01 -0.11354443337E+03  0.14523294585E+03  0.90445883841E+02 0.  0.
         23    2    1    2    0    0 -0.25127522321E+01  0.36740146212E+01 -0.11145870438E+03  0.14297374731E+03  0.89435101217E+02 0.  0.
          5    1    3    3  502    0 -0.29341742873E+02  0.21584175218E+02 -0.91835692084E+02  0.98907526686E+02  0.47000000000E+01 0. -1.
         -5    1    4    4    0  503  0.19460124072E+02 -0.89756214656E+01  0.59779496284E+01  0.22739483094E+02  0.47000000000E+01 0.  1.
          5    1    4    4  503    0 -0.21972876305E+02  0.12649636087E+02 -0.11743665401E+03  0.12023426421E+03  0.47000000000E+01 0. -1.
         -5    1    3    3    0  502  0.31854495106E+02 -0.25258189839E+02 -0.21708741284E+02  0.46325419162E+02  0.47000000000E+01 0.  1.
<mgrwt>
<rscale>  0 0.90301895E+02</rscale>
<asrwt>0</asrwt>
<pdfrwt beam="1">  1        1 0.39477680E-01 0.90555343E+02</pdfrwt>
<pdfrwt beam="2">  1       -1 0.48618119E-02 0.90555343E+02</pdfrwt>
<totfact> 0.17604094E+04</totfact>
</mgrwt>
</event>
<event>
 8    1  0.2964543E-004  0.1021037E+03  0.7546771E-02  0.1276920E+00
         -2   -1    0    0    0  501 -0.00000000000E+00  0.00000000000E+00  0.89756133094E+02  0.89756133094E+02  0.00000000000E+00 0.  1.
          2   -1    0    0  501    0  0.00000000000E+00 -0.00000000000E+00 -0.11710931779E+03  0.11710931779E+03  0.00000000000E+00 0. -1.
         23    2    1    2    0    0  0.37103801261E+02  0.21534655930E+02 -0.30690618328E+02  0.10661649653E+03  0.92653817002E+02 0.  0.
         23    2    1    2    0    0 -0.37103801261E+02 -0.21534655930E+02  0.33374336297E+01  0.10024895436E+03  0.90544358809E+02 0.  0.
          5    1    4    4  502    0  0.25115350104E+02 -0.27201390466E+02  0.44605803956E+01  0.37585678544E+02  0.47000000000E+01 0. -1.
         -5    1    4    4    0  502 -0.62219151365E+02  0.56667345359E+01 -0.11231467659E+01  0.62663275812E+02  0.47000000000E+01 0.  1.
          5    1    3    3  503    0  0.66449300419E+02  0.19460523090E+02 -0.94770359566E+01  0.70043741303E+02  0.47000000000E+01 0. -1.
         -5    1    3    3    0  503 -0.29345499159E+02  0.20741328395E+01 -0.21213582372E+02  0.36572755228E+02  0.47000000000E+01 0.  1.
<mgrwt>
<rscale>  0 0.10162273E+03</rscale>
<asrwt>0</asrwt>
<pdfrwt beam="1">  1        2 0.18016818E-01 0.10210369E+03</pdfrwt>
<pdfrwt beam="2">  1       -2 0.13808636E-01 0.10210369E+03</pdfrwt>
<totfact> 0.11258472E+04</totfact>
</mgrwt>
</event>
<event>
 8    1  0.2964543E-004  0.1608860E+03  0.7546771E-02  0.1195146E+00
          2   -1    0    0  501    0  0.00000000000E+00  0.00000000000E+00  0.92192574098E+03  0.92192574098E+03  0.00000000000E+00 0. -1.
         -2   -1    0    0    0  501 -0.00000000000E+00 -0.00000000000E+00 -0.44592087834E+02  0.44592087834E+02  0.00000000000E+00 0.  1.
         23    2    1    2    0    0 -0.33619507646E+02  0.95298195971E+02  0.13008314112E+03  0.20689594373E+03  0.12518901901E+03 0.  0.
         23    2    1    2    0    0  0.33619507646E+02 -0.95298195971E+02  0.74725051202E+03  0.75962188508E+03  0.91815375200E+02 0.  0.
          5    1    4    4  502    0  0.13259427938E+02 -0.93583022570E+02  0.71446995300E+03  0.72071006534E+03  0.47000000000E+01 0. -1.
         -5    1    3    3    0  503 -0.52970943678E+02 -0.57911873623E+01  0.22798587670E+02  0.58149155841E+02  0.47000000000E+01 0.  1.
          5    1    3    3  503    0  0.19351436032E+02  0.10108938333E+03  0.10728455345E+03  0.14874678789E+03  0.47000000000E+01 0.  1.
         -5    1    4    4    0  502  0.20360079708E+02 -0.17151734007E+01  0.32780559020E+02  0.38911819736E+02  0.47000000000E+01 0.  1.
<mgrwt>
<rscale>  0 0.15441892E+03</rscale>
<asrwt>0</asrwt>
<pdfrwt beam="1">  1        2 0.14183472E+00 0.16088601E+03</pdfrwt>
<pdfrwt beam="2">  1       -2 0.68603219E-02 0.16088601E+03</pdfrwt>
<totfact> 0.34852462E+03</totfact>
</mgrwt>
</event>
<event>
 8    1  0.2964543E-004  0.1443237E+03  0.7546771E-02  0.1216563E+00
          1   -1    0    0  501    0  0.00000000000E+00  0.00000000000E+00  0.32847330168E+03  0.32847330168E+03  0.00000000000E+00 0. -1.
         -1   -1    0    0    0  501 -0.00000000000E+00 -0.00000000000E+00 -0.79757927132E+02  0.79757927132E+02  0.00000000000E+00 0.  1.
         23    2    1    2    0    0 -0.45064501581E+02  0.62745636465E+02  0.25025644426E+03  0.28889032530E+03  0.12190778466E+03 0.  0.
         23    2    1    2    0    0  0.45064501581E+02 -0.62745636465E+02 -0.15410697120E+01  0.11934090351E+03  0.90950822738E+02 0.  0.
          5    1    3    3  502    0 -0.70239451290E+02  0.61593301875E+02  0.10184731889E+03  0.13828333854E+03  0.47000000000E+01 0. -1.
         -5    1    3    3    0  502  0.25174949709E+02  0.11523345899E+01  0.14840912537E+03  0.15060698676E+03  0.47000000000E+01 0.  1.
          5    1    4    4  503    0 -0.21472500479E+02 -0.34628596574E+02  0.17342680600E+02  0.44531635360E+02  0.47000000000E+01 0. -1.
         -5    1    4    4    0  503  0.66537002060E+02 -0.28117039891E+02 -0.18883750312E+02  0.74809268150E+02  0.47000000000E+01 0.  1.
<mgrwt>
<rscale>  0 0.13762316E+03</rscale>
<asrwt>0</asrwt>
<pdfrwt beam="1">  1        1 0.50534353E-01 0.14432371E+03</pdfrwt>
<pdfrwt beam="2">  1       -1 0.12270451E-01 0.14432371E+03</pdfrwt>
<totfact> 0.33505795E+03</totfact>
</mgrwt>
</event>
<event>
 8    1  0.2964543E-004  0.9488603E+02  0.7546771E-02  0.1293590E+00
          1   -1    0    0  501    0  0.00000000000E+00  0.00000000000E+00  0.75678724446E+02  0.75678724446E+02  0.00000000000E+00 0. -1.
         -1   -1    0    0    0  501 -0.00000000000E+00 -0.00000000000E+00 -0.12804192178E+03  0.12804192178E+03  0.00000000000E+00 0.  1.
         23    2    1    2    0    0 -0.52645924591E+01 -0.26136386136E+02  0.66844642904E+01  0.95121190654E+02  0.91063341881E+02 0.  0.
         23    2    1    2    0    0  0.52645924591E+01  0.26136386136E+02 -0.59047661627E+02  0.10859945557E+03  0.87157264720E+02 0.  0.
          5    1    4    4  502    0  0.28773414145E+02  0.48156662373E+02 -0.25324563716E+02  0.61728413392E+02  0.47000000000E+01 0. -1.
         -5    1    3    3    0  503 -0.45002727801E+02 -0.65418571487E+01 -0.11266736856E+02  0.47085780910E+02  0.47000000000E+01 0.  1.
          5    1    3    3  503    0  0.39738135342E+02 -0.19594528987E+02  0.17951201146E+02  0.48035409744E+02  0.47000000000E+01 0. -1.
         -5    1    4    4    0  502 -0.23508821686E+02 -0.22020276237E+02 -0.33723097912E+02  0.46871042183E+02  0.47000000000E+01 0.  1.
<mgrwt>
<rscale>  0 0.93936342E+02</rscale>
<asrwt>0</asrwt>
<pdfrwt beam="1">  1        1 0.11642881E-01 0.94886031E+02</pdfrwt>
<pdfrwt beam="2">  1       -1 0.19698757E-01 0.94886031E+02</pdfrwt>
<totfact> 0.98294062E+03</totfact>
</mgrwt>
</event>
<event>
 8    1  0.2964543E-004  0.1154723E+03  0.7546771E-02  0.1251437E+00
         -1   -1    0    0    0  501 -0.00000000000E+00  0.00000000000E+00  0.96400667465E+02  0.96400667465E+02  0.00000000000E+00 0.  1.
          1   -1    0    0  501    0  0.00000000000E+00 -0.00000000000E+00 -0.14587045694E+03  0.14587045694E+03  0.00000000000E+00 0. -1.
         23    2    1    2    0    0 -0.66770976927E+02 -0.17744710804E+02 -0.55335341731E+02  0.12664996244E+03  0.90581316070E+02 0.  0.
         23    2    1    2    0    0  0.66770976927E+02  0.17744710804E+02  0.58655522565E+01  0.11562116196E+03  0.92523566018E+02 0.  0.
          5    1    4    4  502    0  0.20776579548E+02  0.18442564721E+02 -0.41023744464E+02  0.49767781356E+02  0.47000000000E+01 0. -1.
         -5    1    4    4    0  502  0.45994397379E+02 -0.69785391729E+00  0.46889296720E+02  0.65853380606E+02  0.47000000000E+01 0.  1.
          5    1    3    3  503    0  0.32570921055E+01  0.24585148361E+02 -0.33284680572E+02  0.41773174762E+02  0.47000000000E+01 0. -1.
         -5    1    3    3    0  503 -0.70028069032E+02 -0.42329859165E+02 -0.22050661159E+02  0.84876787680E+02  0.47000000000E+01 0.  1.
<mgrwt>
<rscale>  0 0.11508274E+03</rscale>
<asrwt>0</asrwt>
<pdfrwt beam="1">  1        1 0.22441609E-01 0.11547228E+03</pdfrwt>
<pdfrwt beam="2">  1       -1 0.14830872E-01 0.11547228E+03</pdfrwt>
<totfact> 0.67489761E+03</totfact>
</mgrwt>
</event>
<event>
 8    1  0.2964543E-004  0.1294788E+03  0.7546771E-02  0.1228974E+00
         -3   -1    0    0    0  501 -0.00000000000E+00  0.00000000000E+00  0.15058148876E+03  0.15058148876E+03  0.00000000000E+00 0.  1.
          3   -1    0    0  501    0  0.00000000000E+00 -0.00000000000E+00 -0.14908048333E+03  0.14908048333E+03  0.00000000000E+00 0. -1.
         23    2    1    2    0    0  0.75279244606E+02 -0.45965379034E+02 -0.76317207389E+02  0.14859767735E+03  0.92071563652E+02 0.  0.
         23    2    1    2    0    0 -0.75279244606E+02  0.45965379034E+02  0.77818212813E+02  0.15106429473E+03  0.94789061391E+02 0.  0.
          5    1    3    3  502    0  0.58857198091E+02  0.17613920020E+02 -0.39038550808E+02  0.72941883681E+02  0.47000000000E+01 0. -1.
         -5    1    3    3    0  502  0.16422046515E+02 -0.63579299054E+02 -0.37278656580E+02  0.75655793674E+02  0.47000000000E+01 0.  1.
          5    1    4    4  503    0 -0.28131029468E+01 -0.26098804201E+02  0.10860953440E+02  0.28794295243E+02  0.47000000000E+01 0. -1.
         -5    1    4    4    0  503 -0.72466141660E+02  0.72064183235E+02  0.66957259373E+02  0.12226999949E+03  0.47000000000E+01 0.  1.
<mgrwt>
<rscale>  0 0.12898190E+03</rscale>
<asrwt>0</asrwt>
<pdfrwt beam="1">  1        3 0.22935459E-01 0.12947875E+03</pdfrwt>
<pdfrwt beam="2">  1       -3 0.23166383E-01 0.12947875E+03</pdfrwt>
<totfact> 0.69576062E+02</totfact>
</mgrwt>
</event>
<event>
 8    1  0.2964543E-004  0.9409981E+02  0.7546771E-02  0.1293681E+00
          2   -1    0    0  501    0  0.00000000000E+00  0.00000000000E+00  0.16887415525E+03  0.16887415525E+03  0.00000000000E+00 0. -1.
         -2   -1    0    0    0  501 -0.00000000000E+00 -0.00000000000E+00 -0.72959030676E+02  0.72959030676E+02  0.00000000000E+00 0.  1.
         23    2    1    2    0    0  0.22990529941E+02  0.74039259068E+00  0.11264352327E+03  0.14625801801E+03  0.90408693432E+02 0.  0.
         23    2    1    2    0    0 -0.22990529941E+02 -0.74039259068E+00 -0.16728398702E+02  0.95575167916E+02  0.91245058775E+02 0.  0.
          5    1    3    3  502    0 -0.12297611316E+02  0.33937442168E+02  0.79302298842E+02  0.87257812410E+02  0.47000000000E+01 0. -1.
         -5    1    3    3    0  502  0.35288141257E+02 -0.33197049577E+02  0.33341224432E+02  0.59000205599E+02  0.47000000000E+01 0.  1.
          5    1    4    4  503    0  0.78005280010E+01  0.31575800899E+02  0.19219702924E+02  0.38070545307E+02  0.47000000000E+01 0. -1.
         -5    1    4    4    0  503 -0.30791057942E+02 -0.32316193489E+02 -0.35948101626E+02  0.57504622609E+02  0.47000000000E+01 0.  1.
<mgrwt>
<rscale>  0 0.93896455E+02</rscale>
<asrwt>0</asrwt>
<pdfrwt beam="1">  1        2 0.25980639E-01 0.94099806E+02</pdfrwt>
<pdfrwt beam="2">  1       -2 0.11224466E-01 0.94099806E+02</pdfrwt>
<totfact> 0.10348613E+04</totfact>
</mgrwt>
</event>
<event>
 8    1  0.2964543E-004  0.9830808E+02  0.7546771E-02  0.1285961E+00
         -1   -1    0    0    0  501 -0.00000000000E+00  0.00000000000E+00  0.35997572071E+03  0.35997572071E+03  0.00000000000E+00 0.  1.
          1   -1    0    0  501    0  0.00000000000E+00 -0.00000000000E+00 -0.62599871128E+02  0.62599871128E+02  0.00000000000E+00 0. -1.
         23    2    1    2    0    0 -0.29141957099E+02 -0.15736954318E+02 -0.14428785838E+02  0.95640417327E+02  0.88555034701E+02 0.  0.
         23    2    1    2    0    0  0.29141957099E+02  0.15736954318E+02  0.31180463542E+03  0.32693517451E+03  0.92561181223E+02 0.  0.
          5    1    4    4  502    0  0.84044705959E+01 -0.35713761462E+02  0.18158909495E+03  0.18531809757E+03  0.47000000000E+01 0. -1.
         -5    1    4    4    0  502  0.20737486503E+02  0.51450715780E+02  0.13021554047E+03  0.14161707694E+03  0.47000000000E+01 0.  1.
          5    1    3    3  503    0  0.21704705643E+02 -0.14189094987E+02 -0.32146687930E+02  0.41568307741E+02  0.47000000000E+01 0. -1.
         -5    1    3    3    0  503 -0.50846662742E+02 -0.15478593307E+01  0.17717902092E+02  0.54072109586E+02  0.47000000000E+01 0.  1.
<mgrwt>
<rscale>  0 0.97353687E+02</rscale>
<asrwt>0</asrwt>
<pdfrwt beam="1">  1        1 0.96307496E-02 0.98308075E+02</pdfrwt>
<pdfrwt beam="2">  1       -1 0.55380879E-01 0.98308075E+02</pdfrwt>
<totfact> 0.21854330E+03</totfact>
</mgrwt>
</event>
<event>
 8    1  0.2964543E-004  0.1127119E+03  0.7546771E-02  0.1256891E+00
         -2   -1    0    0    0  501 -0.00000000000E+00  0.00000000000E+00  0.11628519774E+03  0.11628519774E+03  0.00000000000E+00 0.  1.
          2   -1    0    0  501    0  0.00000000000E+00 -0.00000000000E+00 -0.11272838646E+03  0.11272838646E+03  0.00000000000E+00 0. -1.
         23    2    1    2    0    0 -0.50259427474E+02  0.35051402136E+02 -0.25002603234E+02  0.11273975261E+03  0.91271632005E+02 0.  0.
         23    2    1    2    0    0  0.50259427474E+02 -0.35051402136E+02  0.28559414517E+02  0.11627383159E+03  0.94601019620E+02 0.  0.
          5    1    4    4  502    0 -0.14885061645E+02  0.21296727755E+02  0.81058009309E+01  0.27620819720E+02  0.47000000000E+01 0. -1.
         -5    1    3    3    0  503 -0.28165305529E+02 -0.29244133082E+02 -0.16442432838E+02  0.44056184048E+02  0.47000000000E+01 0.  1.
          5    1    3    3  503    0 -0.22094121946E+02  0.64295535218E+02 -0.85601703959E+01  0.68683568564E+02  0.47000000000E+01 0. -1.
         -5    1    4    4    0  502  0.65144489120E+02 -0.56348129891E+02  0.20453613586E+02  0.88653011870E+02  0.47000000000E+01 0.  1.
<mgrwt>
<rscale>  0 0.11201046E+03</rscale>
<asrwt>0</asrwt>
<pdfrwt beam="1">  1        2 0.17342829E-01 0.11271186E+03</pdfrwt>
<pdfrwt beam="2">  1       -2 0.17890030E-01 0.11271186E+03</pdfrwt>
<totfact> 0.77694882E+03</totfact>
</mgrwt>
</event>
<event>
 8    1  0.2964543E-004  0.9029219E+02  0.7546771E-02  0.1304797E+00
         -1   -1    0    0    0  501 -0.00000000000E+00  0.00000000000E+00  0.12201863097E+03  0.12201863097E+03  0.00000000000E+00 0.  1.
          1   -1    0    0  501    0  0.00000000000E+00 -0.00000000000E+00 -0.11541041549E+03  0.11541041549E+03  0.00000000000E+00 0. -1.
         23    2    1    2    0    0  0.13699357103E+02  0.34624061303E+01 -0.76204776902E+02  0.11491099956E+03  0.84839313742E+02 0.  0.
         23    2    1    2    0    0 -0.13699357103E+02 -0.34624061303E+01  0.82812992379E+02  0.12251804689E+03  0.89179703223E+02 0.  0.
          5    1    3    3  502    0  0.30019325064E+02 -0.11423484120E+02  0.29522386684E+01  0.32595422683E+02  0.47000000000E+01 0. -1.
         -5    1    4    4    0  503  0.17459106687E+02  0.25294139795E+02  0.72122497893E+02  0.78538898748E+02  0.47000000000E+01 0.  1.
          5    1    4    4  503    0 -0.31158463790E+02 -0.28756545926E+02  0.10690494486E+02  0.43979148147E+02  0.47000000000E+01 0. -1.
         -5    1    3    3    0  502 -0.16319967960E+02  0.14885890250E+02 -0.79157015571E+02  0.82315576878E+02  0.47000000000E+01 0.  1.
<mgrwt>
<rscale>  0 0.89201533E+02</rscale>
<asrwt>0</asrwt>
<pdfrwt beam="1">  1        1 0.17755448E-01 0.90292193E+02</pdfrwt>
<pdfrwt beam="2">  1       -1 0.18772097E-01 0.90292193E+02</pdfrwt>
<totfact> 0.61481059E+03</totfact>
</mgrwt>
</event>
<event>
 8    1  0.2964543E-004  0.9230367E+02  0.7546771E-02  0.1301687E+00
         -1   -1    0    0    0  501 -0.00000000000E+00  0.00000000000E+00  0.26549167839E+03  0.26549167839E+03  0.00000000000E+00 0.  1.
          1   -1    0    0  501    0  0.00000000000E+00 -0.00000000000E+00 -0.75928302201E+02  0.75928302201E+02  0.00000000000E+00 0. -1.
         23    2    1    2    0    0 -0.13577201634E+02  0.76389438499E+01  0.22649586486E+03  0.24200179600E+03  0.83796172942E+02 0.  0.
         23    2    1    2    0    0  0.13577201634E+02 -0.76389438499E+01 -0.36932488671E+02  0.99418184594E+02  0.90979518801E+02 0.  0.
          5    1    4    4  502    0  0.44233098425E+02 -0.23153014375E+02 -0.40633885643E+02  0.64543254747E+02  0.47000000000E+01 0. -1.
         -5    1    4    4    0  502 -0.30655896791E+02  0.15514070525E+02  0.37013969722E+01  0.34874929847E+02  0.47000000000E+01 0.  1.
          5    1    3    3  503    0  0.25231693057E+02 -0.86876498886E+01  0.27727309817E+02  0.38768638160E+02  0.47000000000E+01 0. -1.
         -5    1    3    3    0  503 -0.38808894692E+02  0.16326593739E+02  0.19876855504E+03  0.20323315784E+03  0.47000000000E+01 0.  1.
<mgrwt>
<rscale>  0 0.90482558E+02</rscale>
<asrwt>0</asrwt>
<pdfrwt beam="1">  1        1 0.11681277E-01 0.92303666E+02</pdfrwt>
<pdfrwt beam="2">  1       -1 0.40844873E-01 0.92303666E+02</pdfrwt>
<totfact> 0.29202389E+03</totfact>
</mgrwt>
</event>
<event>
 8    1  0.2964543E-004  0.1077002E+03  0.7546771E-02  0.1265895E+00
          1   -1    0    0  501    0  0.00000000000E+00  0.00000000000E+00  0.19004015289E+03  0.19004015289E+03  0.00000000000E+00 0. -1.
         -1   -1    0    0    0  501 -0.00000000000E+00 -0.00000000000E+00 -0.84156772016E+02  0.84156772016E+02  0.00000000000E+00 0.  1.
         23    2    1    2    0    0  0.47718894560E+02  0.24818338831E+02 -0.20356059934E+02  0.10960708201E+03  0.93307558161E+02 0.  0.
         23    2    1    2    0    0 -0.47718894560E+02 -0.24818338831E+02  0.12623944081E+03  0.16458984290E+03  0.90886616889E+02 0.  0.
          5    1    4    4  502    0 -0.67555230782E+02 -0.31773652479E+02  0.12127046416E+03  0.14248469980E+03  0.47000000000E+01 0. -1.
         -5    1    3    3    0  503  0.11427007698E+02  0.31618048480E+02 -0.51088170943E+02  0.61338150485E+02  0.47000000000E+01 0.  1.
          5    1    3    3  503    0  0.36291886861E+02 -0.67997096495E+01  0.30732111009E+02  0.48268931523E+02  0.47000000000E+01 0. -1.
         -5    1    4    4    0  502  0.19836336223E+02  0.69553136489E+01  0.49689766473E+01  0.22105143103E+02  0.47000000000E+01 0.  1.
<mgrwt>
<rscale>  0 0.10717378E+03</rscale>
<asrwt>0</asrwt>
<pdfrwt beam="1">  1        1 0.29236946E-01 0.10770025E+03</pdfrwt>
<pdfrwt beam="2">  1       -1 0.12947196E-01 0.10770025E+03</pdfrwt>
<totfact> 0.59615658E+03</totfact>
</mgrwt>
</event>
<event>
 8    1  0.2964543E-004  0.9504481E+02  0.7546771E-02  0.1294541E+00
         -2   -1    0    0    0  501 -0.00000000000E+00  0.00000000000E+00  0.15141081993E+02  0.15141081993E+02  0.00000000000E+00 0.  1.
          2   -1    0    0  501    0  0.00000000000E+00 -0.00000000000E+00 -0.58241906722E+03  0.58241906722E+03  0.00000000000E+00 0. -1.
         23    2    1    2    0    0  0.27126274508E+02 -0.39066794890E+01 -0.33359678148E+03  0.34528961836E+03  0.84776240860E+02 0.  0.
         23    2    1    2    0    0 -0.27126274508E+02  0.39066794890E+01 -0.23368120374E+03  0.25227053086E+03  0.91007795506E+02 0.  0.
          5    1    3    3  502    0 -0.22623715299E+02  0.14675056397E+01 -0.21817234893E+03  0.21939747014E+03  0.47000000000E+01 0. -1.
         -5    1    4    4    0  503 -0.52707969111E+01 -0.41212442131E+02 -0.13734017663E+03  0.14356413481E+03  0.47000000000E+01 0.  1.
          5    1    4    4  503    0 -0.21855477597E+02  0.45119121620E+02 -0.96341027113E+02  0.10870639605E+03  0.47000000000E+01 0. -1.
         -5    1    3    3    0  502  0.49749989807E+02 -0.53741851288E+01 -0.11542443255E+03  0.12589214821E+03  0.47000000000E+01 0.  1.
<mgrwt>
<rscale>  0 0.93521384E+02</rscale>
<asrwt>0</asrwt>
<pdfrwt beam="1">  1        2 0.89602920E-01 0.95044809E+02</pdfrwt>
<pdfrwt beam="2">  1       -2 0.23293976E-02 0.95044809E+02</pdfrwt>
<totfact> 0.29141831E+04</totfact>
</mgrwt>
</event>
<event>
 8    1  0.2964543E-004  0.1124372E+03  0.7546771E-02  0.1256780E+00
         -2   -1    0    0    0  501 -0.00000000000E+00  0.00000000000E+00  0.38388569386E+02  0.38388569386E+02  0.00000000000E+00 0.  1.
          2   -1    0    0  501    0  0.00000000000E+00 -0.00000000000E+00 -0.42930718248E+03  0.42930718248E+03  0.00000000000E+00 0. -1.
         23    2    1    2    0    0  0.66004583577E+01  0.66180990228E+02 -0.30971969499E+03  0.32900401588E+03  0.88847416854E+02 0.  0.
         23    2    1    2    0    0 -0.66004583577E+01 -0.66180990228E+02 -0.81198918103E+02  0.13869173599E+03  0.90656736162E+02 0.  0.
          5    1    3    3  502    0 -0.33887442792E+02  0.25569073196E+01 -0.11947764684E+03  0.12430565010E+03  0.47000000000E+01 0. -1.
         -5    1    4    4    0  503 -0.40768402942E+02 -0.35964461742E+02 -0.12311824723E+02  0.55939040168E+02  0.47000000000E+01 0.  1.
          5    1    4    4  503    0  0.34167944585E+02 -0.30216528486E+02 -0.68887093380E+02  0.82752695818E+02  0.47000000000E+01 0.  1.
         -5    1    3    3    0  502  0.40487901150E+02  0.63624082908E+02 -0.19024204816E+03  0.20469836578E+03  0.47000000000E+01 0. -1.
<mgrwt>
<rscale>  0 0.11207205E+03</rscale>
<asrwt>0</asrwt>
<pdfrwt beam="1">  1        2 0.66047259E-01 0.11243724E+03</pdfrwt>
<pdfrwt beam="2">  1       -2 0.59059338E-02 0.11243724E+03</pdfrwt>
<totfact> 0.10479701E+04</totfact>
</mgrwt>
</event>
<event>
 8    1  0.2964543E-004  0.9826978E+02  0.7546771E-02  0.1284594E+00
          1   -1    0    0  501    0  0.00000000000E+00  0.00000000000E+00  0.44665158384E+02  0.44665158384E+02  0.00000000000E+00 0. -1.
         -1   -1    0    0    0  501 -0.00000000000E+00 -0.00000000000E+00 -0.26502227596E+03  0.26502227596E+03  0.00000000000E+00 0.  1.
         23    2    1    2    0    0  0.34339917497E+02 -0.10839955695E+02 -0.17779525642E+03  0.20259652615E+03  0.90207896731E+02 0.  0.
         23    2    1    2    0    0 -0.34339917497E+02  0.10839955695E+02 -0.42561861164E+02  0.10709090819E+03  0.91434216893E+02 0.  0.
          5    1    3    3  502    0 -0.93865054879E+01 -0.39009020436E+02 -0.48301915491E+02  0.62968049047E+02  0.47000000000E+01 0. -1.
         -5    1    3    3    0  502  0.43726422985E+02  0.28169064741E+02 -0.12949334092E+03  0.13962847711E+03  0.47000000000E+01 0.  1.
          5    1    4    4  503    0 -0.43072369813E+02 -0.31566351721E+02 -0.31424259656E+02  0.62138858191E+02  0.47000000000E+01 0. -1.
         -5    1    4    4    0  503  0.87324523159E+01  0.42406307416E+02 -0.11137601508E+02  0.44952050003E+02  0.47000000000E+01 0.  1.
<mgrwt>
<rscale>  0 0.97983542E+02</rscale>
<asrwt>0</asrwt>
<pdfrwt beam="1">  1        1 0.68715628E-02 0.98269785E+02</pdfrwt>
<pdfrwt beam="2">  1       -1 0.40772658E-01 0.98269785E+02</pdfrwt>
<totfact> 0.59236794E+03</totfact>
</mgrwt>
</event>
<event>
 8    1  0.3792559E-004  0.9617604E+02  0.7546771E-02  0.1289146E+00
          1   -1    0    0  501    0  0.00000000000E+00  0.00000000000E+00  0.11476936424E+03  0.11476936424E+03  0.00000000000E+00 0. -1.
         -1   -1    0    0    0  501 -0.00000000000E+00 -0.00000000000E+00 -0.26128925127E+03  0.26128925127E+03  0.00000000000E+00 0.  1.
         23    2    1    2    0    0 -0.22875540068E+02 -0.18872147172E+02  0.83615767755E+02  0.12663477819E+03  0.90362172162E+02 0.  0.
         23    2    1    2    0    0  0.22875540068E+02  0.18872147172E+02 -0.23013565478E+03  0.24942383731E+03  0.91489795854E+02 0.  0.
          5    1    4    4  502    0  0.29457255700E+02 -0.27164001830E+02 -0.55330479993E+02  0.68477477502E+02  0.47000000000E+01 0. -1.
         -5    1    3    3    0  503 -0.39612604656E+02  0.18593329216E+02  0.14905813821E+02  0.46466586109E+02  0.47000000000E+01 0.  1.
          5    1    3    3  503    0  0.16737064588E+02 -0.37465476388E+02  0.68709953933E+02  0.80168192081E+02  0.47000000000E+01 0. -1.
         -5    1    4    4    0  502 -0.65817156326E+01  0.46036149001E+02 -0.17480517479E+03  0.18094635981E+03  0.47000000000E+01 0.  1.
<mgrwt>
<rscale>  0 0.95906903E+02</rscale>
<asrwt>0</asrwt>
<pdfrwt beam="1">  1        1 0.17656825E-01 0.96176042E+02</pdfrwt>
<pdfrwt beam="2">  1       -1 0.40198346E-01 0.96176042E+02</pdfrwt>
<totfact> 0.17705056E+03</totfact>
</mgrwt>
</event>
<event>
 8    1  0.2964543E-004  0.9425003E+02  0.7546771E-02  0.1292887E+00
         -2   -1    0    0    0  501 -0.00000000000E+00  0.00000000000E+00  0.31931058941E+03  0.31931058941E+03  0.00000000000E+00 0.  1.
          2   -1    0    0  501    0  0.00000000000E+00 -0.00000000000E+00 -0.35268138966E+02  0.35268138966E+02  0.00000000000E+00 0. -1.
         23    2    1    2    0    0  0.23399949639E+02  0.41759621246E+01  0.22352028757E+03  0.24256980079E+03  0.91180003295E+02 0.  0.
         23    2    1    2    0    0 -0.23399949639E+02 -0.41759621246E+01  0.60522162874E+02  0.11200892758E+03  0.91203461314E+02 0.  0.
          5    1    4    4  502    0 -0.41872930362E+01 -0.23740061457E+02 -0.16851531727E+02  0.29785702316E+02  0.47000000000E+01 0. -1.
         -5    1    3    3    0  503  0.92497898585E+01  0.37395530850E+02  0.18705205117E+03  0.19103545269E+03  0.47000000000E+01 0.  1.
          5    1    3    3  503    0  0.14150159780E+02 -0.33219568726E+02  0.36468236400E+02  0.51534348101E+02  0.47000000000E+01 0. -1.
         -5    1    4    4    0  502 -0.19212656603E+02  0.19564099332E+02  0.77373694601E+02  0.82223225263E+02  0.47000000000E+01 0.  1.
<mgrwt>
<rscale>  0 0.94244352E+02</rscale>
<asrwt>0</asrwt>
<pdfrwt beam="1">  1        2 0.54258677E-02 0.94250027E+02</pdfrwt>
<pdfrwt beam="2">  1       -2 0.49124704E-01 0.94250027E+02</pdfrwt>
<totfact> 0.51592596E+03</totfact>
</mgrwt>
</event>
<event>
 8    1  0.2964543E-004  0.1234540E+03  0.7546771E-02  0.1240069E+00
         -1   -1    0    0    0  501 -0.00000000000E+00  0.00000000000E+00  0.52478792988E+02  0.52478792988E+02  0.00000000000E+00 0.  1.
          1   -1    0    0  501    0  0.00000000000E+00 -0.00000000000E+00 -0.29636623811E+03  0.29636623811E+03  0.00000000000E+00 0. -1.
         23    2    1    2    0    0 -0.11802065984E+02  0.81131171904E+02 -0.79018685511E+02  0.14657709125E+03  0.92300244867E+02 0.  0.
         23    2    1    2    0    0  0.11802065984E+02 -0.81131171904E+02 -0.16486875961E+03  0.20226793985E+03  0.83720103797E+02 0.  0.
          5    1    3    3  502    0 -0.18002235800E+02 -0.16887065125E+02 -0.15854944853E+02  0.29710650256E+02  0.47000000000E+01 0. -1.
         -5    1    4    4    0  503 -0.34888916005E+02 -0.41824125248E+02 -0.92853703438E+02  0.10775153899E+03  0.47000000000E+01 0.  1.
          5    1    4    4  503    0  0.46690981989E+02 -0.39307046656E+02 -0.72015056174E+02  0.94516400860E+02  0.47000000000E+01 0. -1.
         -5    1    3    3    0  502  0.62001698163E+01  0.98018237028E+02 -0.63163740658E+02  0.11686644099E+03  0.47000000000E+01 0.  1.
<mgrwt>
<rscale>  0 0.12185409E+03</rscale>
<asrwt>0</asrwt>
<pdfrwt beam="1">  1        1 0.45594806E-01 0.12345400E+03</pdfrwt>
<pdfrwt beam="2">  1       -1 0.80736604E-02 0.12345400E+03</pdfrwt>
<totfact> 0.71438509E+03</totfact>
</mgrwt>
</event>
<event>
 8    1  0.2964543E-004  0.1953241E+03  0.7546771E-02  0.1154158E+00
         -1   -1    0    0    0  501 -0.00000000000E+00  0.00000000000E+00  0.16637076894E+03  0.16637076894E+03  0.00000000000E+00 0.  1.
          1   -1    0    0  501    0  0.00000000000E+00 -0.00000000000E+00 -0.22949021365E+03  0.22949021365E+03  0.00000000000E+00 0. -1.
         23    2    1    2    0    0 -0.16671053418E+03 -0.40439563128E+02 -0.51578008606E+02  0.20019622634E+03  0.89389471406E+02 0.  0.
         23    2    1    2    0    0  0.16671053418E+03  0.40439563128E+02 -0.11541436101E+02  0.19566475625E+03  0.93400918725E+02 0.  0.
          5    1    3    3  502    0 -0.12748613518E+03 -0.29493470572E+02 -0.77057763501E+02  0.15192948491E+03  0.47000000000E+01 0. -1.
         -5    1    4    4    0  503  0.72702214192E+02  0.10993794075E+02  0.40580179709E+02  0.84114900237E+02  0.47000000000E+01 0.  1.
          5    1    4    4  503    0  0.94008319984E+02  0.29445769053E+02 -0.52121615810E+02  0.11154985601E+03  0.47000000000E+01 0. -1.
         -5    1    3    3    0  502 -0.39224398993E+02 -0.10946092556E+02  0.25479754894E+02  0.48266741428E+02  0.47000000000E+01 0.  1.
<mgrwt>
<rscale>  0 0.19485082E+03</rscale>
<asrwt>0</asrwt>
<pdfrwt beam="1">  1        1 0.35306187E-01 0.19532407E+03</pdfrwt>
<pdfrwt beam="2">  1       -1 0.25595503E-01 0.19532407E+03</pdfrwt>
<totfact> 0.16331987E+03</totfact>
</mgrwt>
</event>
<event>
 8    1  0.2964543E-004  0.1131020E+03  0.7546771E-02  0.1268963E+00
          1   -1    0    0  501    0  0.00000000000E+00  0.00000000000E+00  0.43897322853E+03  0.43897322853E+03  0.00000000000E+00 0. -1.
         -1   -1    0    0    0  501 -0.00000000000E+00 -0.00000000000E+00 -0.32013739685E+02  0.32013739685E+02  0.00000000000E+00 0.  1.
         23    2    1    2    0    0  0.11772979467E+02 -0.45231618969E+01  0.35021304676E+03  0.36802342840E+03  0.11239663558E+03 0.  0.
         23    2    1    2    0    0 -0.11772979467E+02  0.45231618969E+01  0.56746442088E+02  0.10296353982E+03  0.84983938504E+02 0.  0.
          5    1    4    4  502    0 -0.19133043256E+02  0.27771487127E+02  0.67730974476E+02  0.75808335590E+02  0.47000000000E+01 0. -1.
         -5    1    4    4    0  502  0.73600637887E+01 -0.23248325231E+02 -0.10984532388E+02  0.27155204230E+02  0.47000000000E+01 0.  1.
          5    1    3    3  503    0  0.33741276177E+02  0.46266901355E+02  0.18616242511E+03  0.19482720139E+03  0.47000000000E+01 0. -1.
         -5    1    3    3    0  503 -0.21968296709E+02 -0.50790063252E+02  0.16405062165E+03  0.17319622701E+03  0.47000000000E+01 0.  1.
<mgrwt>
<rscale>  0 0.10558922E+03</rscale>
<asrwt>0</asrwt>
<pdfrwt beam="1">  1        1 0.67534338E-01 0.11310201E+03</pdfrwt>
<pdfrwt beam="2">  1       -1 0.49251910E-02 0.11310201E+03</pdfrwt>
<totfact> 0.90774256E+03</totfact>
</mgrwt>
</event>
<event>
 8    1  0.2964543E-004  0.1012385E+03  0.7546771E-02  0.1278438E+00
         -3   -1    0    0    0  501 -0.00000000000E+00  0.00000000000E+00  0.14935313804E+03  0.14935313804E+03  0.00000000000E+00 0.  1.
          3   -1    0    0  501    0  0.00000000000E+00 -0.00000000000E+00 -0.68528333306E+02  0.68528333306E+02  0.00000000000E+00 0. -1.
         23    2    1    2    0    0  0.36007754273E+02 -0.23729599058E+02  0.52785274523E+02  0.11417323336E+03  0.91594703832E+02 0.  0.
         23    2    1    2    0    0 -0.36007754273E+02  0.23729599058E+02  0.28039530214E+02  0.10370823799E+03  0.90052935173E+02 0.  0.
          5    1    4    4  502    0  0.22999859552E+02  0.16474868521E+02 -0.12822096108E+02  0.31415139356E+02  0.47000000000E+01 0. -1.
         -5    1    4    4    0  502 -0.59007613824E+02  0.72547305372E+01  0.40861626322E+02  0.72293098634E+02  0.47000000000E+01 0.  1.
          5    1    3    3  503    0 -0.12231639255E+02  0.18777867204E+02 -0.92596981640E+01  0.24699257189E+02  0.47000000000E+01 0. -1.
         -5    1    3    3    0  503  0.48239393528E+02 -0.42507466262E+02  0.62044972687E+02  0.89473976170E+02  0.47000000000E+01 0.  1.
<mgrwt>
<rscale>  0 0.10088854E+03</rscale>
<asrwt>0</asrwt>
<pdfrwt beam="1">  1        3 0.10542821E-01 0.10123854E+03</pdfrwt>
<pdfrwt beam="2">  1       -3 0.22977406E-01 0.10123854E+03</pdfrwt>
<totfact> 0.25574413E+03</totfact>
</mgrwt>
</event>
<event>
 8    1  0.2964543E-004  0.2333461E+03  0.7546771E-02  0.1124339E+00
          1   -1    0    0  501    0  0.00000000000E+00  0.00000000000E+00  0.15535392910E+03  0.15535392910E+03  0.00000000000E+00 0. -1.
         -1   -1    0    0    0  501 -0.00000000000E+00 -0.00000000000E+00 -0.40425170557E+03  0.40425170557E+03  0.00000000000E+00 0.  1.
         23    2    1    2    0    0  0.21318432832E+03  0.26950949494E+02 -0.22679265696E+03  0.32540025088E+03  0.90975285135E+02 0.  0.
         23    2    1    2    0    0 -0.21318432832E+03 -0.26950949494E+02 -0.22105119507E+02  0.23420538378E+03  0.90496485919E+02 0.  0.
          5    1    4    4  502    0 -0.13086666771E+03  0.22685694246E+02 -0.34139041181E+02  0.13721621469E+03  0.47000000000E+01 0. -1.
         -5    1    3    3    0  503  0.15534726775E+03  0.47559323341E+02 -0.20137272096E+03  0.25878123112E+03  0.47000000000E+01 0.  1.
          5    1    3    3  503    0  0.57837060569E+02 -0.20608373847E+02 -0.25419936000E+02  0.66619019763E+02  0.47000000000E+01 0. -1.
         -5    1    4    4    0  502 -0.82317660606E+02 -0.49636643741E+02  0.12033921674E+02  0.96989169087E+02  0.47000000000E+01 0.  1.
<mgrwt>
<rscale>  0 0.23329955E+03</rscale>
<asrwt>0</asrwt>
<pdfrwt beam="1">  1        1 0.23900605E-01 0.23334612E+03</pdfrwt>
<pdfrwt beam="2">  1       -1 0.62192569E-01 0.23334612E+03</pdfrwt>
<totfact> 0.55112177E+02</totfact>
</mgrwt>
</event>
<event>
 8    1  0.2964543E-004  0.2366747E+03  0.7546771E-02  0.1122502E+00
          1   -1    0    0  501    0  0.00000000000E+00  0.00000000000E+00  0.21768793710E+04  0.21768793710E+04  0.00000000000E+00 0. -1.
         -1   -1    0    0    0  501 -0.00000000000E+00 -0.00000000000E+00 -0.25443385142E+02  0.25443385142E+02  0.00000000000E+00 0.  1.
         23    2    1    2    0    0  0.51149160745E+02 -0.20870067379E+03  0.10575341940E+04  0.10836943792E+04  0.99210524355E+02 0.  0.
         23    2    1    2    0    0 -0.51149160745E+02  0.20870067379E+03  0.10939017919E+04  0.11186283769E+04  0.92391057926E+02 0.  0.
          5    1    3    3  502    0  0.71703629546E+02 -0.15128315036E+03  0.63323058873E+03  0.65500463401E+03  0.47000000000E+01 0. -1.
         -5    1    3    3    0  502 -0.20554468801E+02 -0.57417523434E+02  0.42430360524E+03  0.42868974516E+03  0.47000000000E+01 0.  1.
          5    1    4    4  503    0  0.24997116006E+02  0.29789784745E+02  0.16558719818E+03  0.17015727220E+03  0.47000000000E+01 0. -1.
         -5    1    4    4    0  503 -0.76146276751E+02  0.17891088905E+03  0.92831459368E+03  0.94847110474E+03  0.47000000000E+01 0.  1.
<mgrwt>
<rscale>  0 0.23597751E+03</rscale>
<asrwt>0</asrwt>
<pdfrwt beam="1">  1        1 0.33490437E+00 0.23667475E+03</pdfrwt>
<pdfrwt beam="2">  1       -1 0.39143686E-02 0.23667475E+03</pdfrwt>
<totfact> 0.66021634E+02</totfact>
</mgrwt>
</event>
<event>
 8    1  0.2964543E-004  0.1149558E+03  0.7546771E-02  0.1255839E+00
          1   -1    0    0  501    0  0.00000000000E+00  0.00000000000E+00  0.15721036094E+03  0.15721036094E+03  0.00000000000E+00 0. -1.
         -1   -1    0    0    0  501 -0.00000000000E+00 -0.00000000000E+00 -0.10329355215E+03  0.10329355215E+03  0.00000000000E+00 0.  1.
         23    2    1    2    0    0 -0.43031347981E+02 -0.27756074549E+02  0.92849355416E+02  0.14776951792E+03  0.10292099417E+03 0.  0.
         23    2    1    2    0    0  0.43031347981E+02  0.27756074549E+02 -0.38932546626E+02  0.11273439516E+03  0.92580797592E+02 0.  0.
          5    1    3    3  502    0 -0.46174170709E+02 -0.62704592230E+02  0.74596695143E+02  0.10793830114E+03  0.47000000000E+01 0. -1.
         -5    1    4    4    0  503  0.54526614297E+01  0.39438006391E+02 -0.56586137136E+02  0.69348170709E+02  0.47000000000E+01 0.  1.
          5    1    4    4  503    0  0.37578686551E+02 -0.11681931842E+02  0.17653590511E+02  0.43386224454E+02  0.47000000000E+01 0. -1.
         -5    1    3    3    0  502  0.31428227280E+01  0.34948517681E+02  0.18252660273E+02  0.39831216776E+02  0.47000000000E+01 0.  1.
<mgrwt>
<rscale>  0 0.11259467E+03</rscale>
<asrwt>0</asrwt>
<pdfrwt beam="1">  1        1 0.24186209E-01 0.11495576E+03</pdfrwt>
<pdfrwt beam="2">  1       -1 0.15891316E-01 0.11495576E+03</pdfrwt>
<totfact> 0.55138955E+03</totfact>
</mgrwt>
</event>
<event>
 8    1  0.2964543E-004  0.9284419E+02  0.7546771E-02  0.1297320E+00
          1   -1    0    0  501    0  0.00000000000E+00  0.00000000000E+00  0.14090294725E+03  0.14090294725E+03  0.00000000000E+00 0. -1.
         -1   -1    0    0    0  501 -0.00000000000E+00 -0.00000000000E+00 -0.97555864333E+02  0.97555864333E+02  0.00000000000E+00 0.  1.
         23    2    1    2    0    0 -0.22687946229E+02  0.75292315852E+01  0.95970045261E+02  0.13353012028E+03  0.89714052420E+02 0.  0.
         23    2    1    2    0    0  0.22687946229E+02 -0.75292315852E+01 -0.52622962341E+02  0.10492869131E+03  0.87575235435E+02 0.  0.
          5    1    4    4  502    0 -0.23645001060E+02 -0.19444794802E+02 -0.47335466178E+02  0.56567857289E+02  0.47000000000E+01 0. -1.
         -5    1    3    3    0  503  0.29247883389E+01 -0.27194851954E+02 -0.48783162555E+00  0.27756843108E+02  0.47000000000E+01 0.  1.
          5    1    3    3  503    0 -0.25612734568E+02  0.34724083539E+02  0.96457876887E+02  0.10577327717E+03  0.47000000000E+01 0. -1.
         -5    1    4    4    0  502  0.46332947289E+02  0.11915563217E+02 -0.52874961633E+01  0.48360834018E+02  0.47000000000E+01 0.  1.
<mgrwt>
<rscale>  0 0.92323567E+02</rscale>
<asrwt>0</asrwt>
<pdfrwt beam="1">  1        1 0.21677377E-01 0.92844189E+02</pdfrwt>
<pdfrwt beam="2">  1       -1 0.15008594E-01 0.92844189E+02</pdfrwt>
<totfact> 0.68037884E+03</totfact>
</mgrwt>
</event>
<event>
 8    1  0.2964543E-004  0.9596793E+02  0.7546771E-02  0.1289523E+00
         -2   -1    0    0    0  501 -0.00000000000E+00  0.00000000000E+00  0.49448728140E+02  0.49448728140E+02  0.00000000000E+00 0.  1.
          2   -1    0    0  501    0  0.00000000000E+00 -0.00000000000E+00 -0.21769732272E+03  0.21769732272E+03  0.00000000000E+00 0. -1.
         23    2    1    2    0    0  0.29317967445E+02 -0.23595294518E+01 -0.32285879988E+02  0.10125325816E+03  0.91349513668E+02 0.  0.
         23    2    1    2    0    0 -0.29317967445E+02  0.23595294518E+01 -0.13596271459E+03  0.16589279270E+03  0.90385000501E+02 0.  0.
          5    1    3    3  502    0  0.13384120492E+02 -0.45280528240E+02 -0.49120865095E+01  0.47704082770E+02  0.47000000000E+01 0. -1.
         -5    1    4    4    0  503  0.31313213560E+02 -0.34579115675E+01 -0.31005974132E+02  0.44451489600E+02  0.47000000000E+01 0.  1.
          5    1    4    4  503    0 -0.60631181004E+02  0.58174410194E+01 -0.10495674046E+03  0.12144130309E+03  0.47000000000E+01 0. -1.
         -5    1    3    3    0  502  0.15933846952E+02  0.42920998788E+02 -0.27373793478E+02  0.53549175391E+02  0.47000000000E+01 0.  1.
<mgrwt>
<rscale>  0 0.95737697E+02</rscale>
<asrwt>0</asrwt>
<pdfrwt beam="1">  1        2 0.33491896E-01 0.95967933E+02</pdfrwt>
<pdfrwt beam="2">  1       -2 0.76074965E-02 0.95967933E+02</pdfrwt>
<totfact> 0.14412854E+04</totfact>
</mgrwt>
</event>
<event>
 8    1  0.2964543E-004  0.9592315E+02  0.7546771E-02  0.1290105E+00
         -1   -1    0    0    0  501 -0.00000000000E+00  0.00000000000E+00  0.63935762396E+02  0.63935762396E+02  0.00000000000E+00 0.  1.
          1   -1    0    0  501    0  0.00000000000E+00 -0.00000000000E+00 -0.15889499564E+03  0.15889499564E+03  0.00000000000E+00 0. -1.
         23    2    1    2    0    0 -0.16298520121E+02  0.83581619288E+01 -0.10765941230E+02  0.96525419798E+02  0.94158114614E+02 0.  0.
         23    2    1    2    0    0  0.16298520121E+02 -0.83581619288E+01 -0.84193292015E+02  0.12630533824E+03  0.92352733681E+02 0.  0.
          5    1    4    4  502    0  0.25506684153E+02 -0.47250663615E+02 -0.48998359176E+02  0.72843293105E+02  0.47000000000E+01 0. -1.
         -5    1    3    3    0  503  0.20337158551E+02  0.88563255579E+01  0.32504832244E+02  0.39631914406E+02  0.47000000000E+01 0.  1.
          5    1    3    3  503    0 -0.36635678672E+02 -0.49816362910E+00 -0.43270773474E+02  0.56893505392E+02  0.47000000000E+01 0. -1.
         -5    1    4    4    0  502 -0.92081640322E+01  0.38892501686E+02 -0.35194932839E+02  0.53462045133E+02  0.47000000000E+01 0.  1.
<mgrwt>
<rscale>  0 0.95477169E+02</rscale>
<asrwt>0</asrwt>
<pdfrwt beam="1">  1        1 0.24445384E-01 0.95923152E+02</pdfrwt>
<pdfrwt beam="2">  1       -1 0.98362713E-02 0.95923152E+02</pdfrwt>
<totfact> 0.11210662E+04</totfact>
</mgrwt>
</event>
<event>
 8    1  0.2964543E-004  0.1011392E+03  0.7546771E-02  0.1278337E+00
          1   -1    0    0  501    0  0.00000000000E+00  0.00000000000E+00  0.86869254316E+03  0.86869254316E+03  0.00000000000E+00 0. -1.
         -1   -1    0    0    0  501 -0.00000000000E+00 -0.00000000000E+00 -0.13247197658E+02  0.13247197658E+02  0.00000000000E+00 0.  1.
         23    2    1    2    0    0  0.57217602274E+01  0.40431185114E+02  0.27462849221E+03  0.29238283091E+03  0.91648741412E+02 0.  0.
         23    2    1    2    0    0 -0.57217602274E+01 -0.40431185114E+02  0.58081685328E+03  0.58955690991E+03  0.92529528764E+02 0.  0.
          5    1    3    3  502    0  0.34755345749E+02  0.96311440915E+00  0.19952982766E+03  0.20259097653E+03  0.47000000000E+01 0. -1.
         -5    1    4    4    0  503  0.10076257078E+02  0.25173027932E+02  0.27364822677E+03  0.27502846090E+03  0.47000000000E+01 0.  1.
          5    1    4    4  503    0 -0.15798017306E+02 -0.65604213046E+02  0.30716862651E+03  0.31452844900E+03  0.47000000000E+01 0. -1.
         -5    1    3    3    0  502 -0.29033585522E+02  0.39468070705E+02  0.75098664559E+02  0.89791854374E+02  0.47000000000E+01 0.  1.
<mgrwt>
<rscale>  0 0.10093728E+03</rscale>
<asrwt>0</asrwt>
<pdfrwt beam="1">  1        1 0.13364496E+00 0.10113918E+03</pdfrwt>
<pdfrwt beam="2">  1       -1 0.20380311E-02 0.10113918E+03</pdfrwt>
<totfact> 0.12653382E+04</totfact>
</mgrwt>
</event>
<event>
 8    1  0.2964543E-004  0.9337236E+02  0.7546771E-02  0.1296034E+00
          1   -1    0    0  501    0  0.00000000000E+00  0.00000000000E+00  0.51206600058E+03  0.51206600058E+03  0.00000000000E+00 0. -1.
         -1   -1    0    0    0  501 -0.00000000000E+00 -0.00000000000E+00 -0.18235824166E+03  0.18235824166E+03  0.00000000000E+00 0.  1.
         23    2    1    2    0    0 -0.36079592266E+01 -0.49474934557E+00 -0.16594723991E+03  0.19041240310E+03  0.93301311212E+02 0.  0.
         23    2    1    2    0    0  0.36079592266E+01  0.49474934557E+00  0.49565499883E+03  0.50401183914E+03  0.91327947443E+02 0.  0.
          5    1    4    4  502    0  0.40129973406E+02 -0.56953377697E+00  0.39061081283E+03  0.39269534786E+03  0.47000000000E+01 0. -1.
         -5    1    3    3    0  503 -0.26600007516E+02 -0.21849678107E+02 -0.15170614574E+03  0.15563358728E+03  0.47000000000E+01 0.  1.
          5    1    3    3  503    0  0.22992048290E+02  0.21354928761E+02 -0.14241094170E+02  0.34778815824E+02  0.47000000000E+01 0. -1.
         -5    1    4    4    0  502 -0.36522014179E+02  0.10642831225E+01  0.10504418600E+03  0.11131649128E+03  0.47000000000E+01 0.  1.
<mgrwt>
<rscale>  0 0.92875446E+02</rscale>
<asrwt>0</asrwt>
<pdfrwt beam="1">  1        1 0.78779384E-01 0.93372356E+02</pdfrwt>
<pdfrwt beam="2">  1       -1 0.28055114E-01 0.93372356E+02</pdfrwt>
<totfact> 0.50837421E+02</totfact>
</mgrwt>
</event>
<event>
 8    1  0.2964543E-004  0.1110697E+03  0.7546771E-02  0.1260399E+00
          1   -1    0    0  501    0  0.00000000000E+00  0.00000000000E+00  0.55294155105E+03  0.55294155105E+03  0.00000000000E+00 0. -1.
         -1   -1    0    0    0  501 -0.00000000000E+00 -0.00000000000E+00 -0.23029447347E+02  0.23029447347E+02  0.00000000000E+00 0.  1.
         23    2    1    2    0    0 -0.78109315278E+01 -0.56648586022E+02  0.18740070683E+03  0.21590081032E+03  0.90686614369E+02 0.  0.
         23    2    1    2    0    0  0.78109315278E+01  0.56648586022E+02  0.34251139687E+03  0.36007018807E+03  0.95217700067E+02 0.  0.
          5    1    3    3  502    0 -0.29174565818E+02  0.14354781746E+02  0.54130892951E+02  0.63320286017E+02  0.47000000000E+01 0. -1.
         -5    1    4    4    0  503 -0.20290725267E+02 -0.20219454507E+02  0.94990604979E+02  0.99326959617E+02  0.47000000000E+01 0.  1.
          5    1    4    4  503    0  0.28101656795E+02  0.76868040529E+02  0.24752079189E+03  0.26074322846E+03  0.47000000000E+01 0. -1.
         -5    1    3    3    0  502  0.21363634290E+02 -0.71003367768E+02  0.13326981388E+03  0.15258052430E+03  0.47000000000E+01 0.  1.
<mgrwt>
<rscale>  0 0.11009214E+03</rscale>
<asrwt>0</asrwt>
<pdfrwt beam="1">  1        1 0.85067921E-01 0.11106972E+03</pdfrwt>
<pdfrwt beam="2">  1       -1 0.35429923E-02 0.11106972E+03</pdfrwt>
<totfact> 0.10891603E+04</totfact>
</mgrwt>
</event>
<event>
 8    1  0.2964543E-004  0.9673399E+02  0.7546771E-02  0.1292185E+00
          1   -1    0    0  501    0  0.00000000000E+00  0.00000000000E+00  0.31760703876E+03  0.31760703876E+03  0.00000000000E+00 0. -1.
         -1   -1    0    0    0  501 -0.00000000000E+00 -0.00000000000E+00 -0.27415831297E+02  0.27415831297E+02  0.00000000000E+00 0.  1.
         23    2    1    2    0    0 -0.12294416984E+02  0.30911323744E+02  0.16105018840E+03  0.18366963420E+03  0.81796752512E+02 0.  0.
         23    2    1    2    0    0  0.12294416984E+02 -0.30911323744E+02  0.12914101906E+03  0.16135323585E+03  0.90833921472E+02 0.  0.
          5    1    4    4  502    0  0.11183314311E+02 -0.58122792153E+02  0.11692536751E+03  0.13113716885E+03  0.47000000000E+01 0. -1.
         -5    1    4    4    0  502  0.11111026722E+01  0.27211468409E+02  0.12215651555E+02  0.30216067001E+02  0.47000000000E+01 0.  1.
          5    1    3    3  503    0 -0.32730842565E+02 -0.14264086493E+02  0.89670984773E+02  0.96632022273E+02  0.47000000000E+01 0. -1.
         -5    1    3    3    0  503  0.20436425581E+02  0.45175410238E+02  0.71379203624E+02  0.87037611931E+02  0.47000000000E+01 0.  1.
<mgrwt>
<rscale>  0 0.94553550E+02</rscale>
<asrwt>0</asrwt>
<pdfrwt beam="1">  1        1 0.48862619E-01 0.96733985E+02</pdfrwt>
<pdfrwt beam="2">  1       -1 0.42178204E-02 0.96733985E+02</pdfrwt>
<totfact> 0.16804613E+04</totfact>
</mgrwt>
</event>
<event>
 8    1  0.2964543E-004  0.1480363E+03  0.7546771E-02  0.1203279E+00
         -1   -1    0    0    0  501 -0.00000000000E+00  0.00000000000E+00  0.31488986307E+02  0.31488986307E+02  0.00000000000E+00 0.  1.
          1   -1    0    0  501    0  0.00000000000E+00 -0.00000000000E+00 -0.76402235400E+03  0.76402235400E+03  0.00000000000E+00 0. -1.
         23    2    1    2    0    0 -0.21120614959E+02 -0.11331928017E+03 -0.24411577482E+03  0.28549474357E+03  0.92883784667E+02 0.  0.
         23    2    1    2    0    0  0.21120614959E+02  0.11331928017E+03 -0.48841759287E+03  0.51001659673E+03  0.90982659252E+02 0.  0.
          5    1    3    3  502    0 -0.23946272604E+02 -0.25715195330E+02 -0.16014491265E+03  0.16402188357E+03  0.47000000000E+01 0. -1.
         -5    1    3    3    0  502  0.28256576448E+01 -0.87604084844E+02 -0.83970862171E+02  0.12147286000E+03  0.47000000000E+01 0.  1.
          5    1    4    4  503    0 -0.21565182932E+02  0.23896214256E+02 -0.44333107835E+02  0.54987276901E+02  0.47000000000E+01 0. -1.
         -5    1    4    4    0  503  0.42685797891E+02  0.89423065919E+02 -0.44408448503E+03  0.45502931983E+03  0.47000000000E+01 0.  1.
<mgrwt>
<rscale>  0 0.14773903E+03</rscale>
<asrwt>0</asrwt>
<pdfrwt beam="1">  1        1 0.11754188E+00 0.14803627E+03</pdfrwt>
<pdfrwt beam="2">  1       -1 0.48444602E-02 0.14803627E+03</pdfrwt>
<totfact> 0.44570268E+03</totfact>
</mgrwt>
</event>
<event>
 8    1  0.2964543E-004  0.9280199E+02  0.7546771E-02  0.1300835E+00
          1   -1    0    0  501    0  0.00000000000E+00  0.00000000000E+00  0.36628125256E+03  0.36628125256E+03  0.00000000000E+00 0. -1.
         -1   -1    0    0    0  501 -0.00000000000E+00 -0.00000000000E+00 -0.33836921020E+02  0.33836921020E+02  0.00000000000E+00 0.  1.
         23    2    1    2    0    0 -0.17587901249E+02  0.55580338770E+01  0.29088480099E+03  0.30532961889E+03  0.90950440975E+02 0.  0.
         23    2    1    2    0    0  0.17587901249E+02 -0.55580338770E+01  0.41559530547E+02  0.94788554686E+02  0.83171206011E+02 0.  0.
          5    1    4    4  502    0  0.36447360485E+02  0.60158989125E+01  0.56507829721E+02  0.67674411308E+02  0.47000000000E+01 0. -1.
         -5    1    4    4    0  502 -0.18859459237E+02 -0.11573932790E+02 -0.14948299175E+02  0.27114143378E+02  0.47000000000E+01 0.  1.
          5    1    3    3  503    0  0.31436376694E+02 -0.19700150212E+02  0.11203030984E+03  0.11810682462E+03  0.47000000000E+01 0. -1.
         -5    1    3    3    0  503 -0.49024277943E+02  0.25258184089E+02  0.17885449115E+03  0.18722279427E+03  0.47000000000E+01 0.  1.
<mgrwt>
<rscale>  0 0.90838018E+02</rscale>
<asrwt>0</asrwt>
<pdfrwt beam="1">  1        1 0.56350959E-01 0.92801987E+02</pdfrwt>
<pdfrwt beam="2">  1       -1 0.52056804E-02 0.92801987E+02</pdfrwt>
<totfact> 0.10327920E+04</totfact>
</mgrwt>
</event>
<event>
 8    1  0.2964543E-004  0.1290103E+03  0.7546771E-02  0.1228933E+00
         -1   -1    0    0    0  501 -0.00000000000E+00  0.00000000000E+00  0.12326069572E+03  0.12326069572E+03  0.00000000000E+00 0.  1.
          1   -1    0    0  501    0  0.00000000000E+00 -0.00000000000E+00 -0.14427735688E+03  0.14427735688E+03  0.00000000000E+00 0. -1.
         23    2    1    2    0    0  0.88491202751E+02  0.19902940352E+02 -0.44386926197E+02  0.13643260998E+03  0.91743325914E+02 0.  0.
         23    2    1    2    0    0 -0.88491202751E+02 -0.19902940352E+02  0.23370265037E+02  0.13110544261E+03  0.91736839907E+02 0.  0.
          5    1    4    4  502    0 -0.32900058772E+02 -0.53765496555E+02  0.17467198862E+02  0.65576943533E+02  0.47000000000E+01 0. -1.
         -5    1    3    3    0  503  0.66905216547E+02  0.19363029578E+02  0.16437455031E+02  0.71718302012E+02  0.47000000000E+01 0.  1.
          5    1    3    3  503    0  0.21585986205E+02  0.53991077333E+00 -0.60824381227E+02  0.64714307968E+02  0.47000000000E+01 0. -1.
         -5    1    4    4    0  502 -0.55591143980E+02  0.33862556203E+02  0.59030661754E+01  0.65528499081E+02  0.47000000000E+01 0.  1.
<mgrwt>
<rscale>  0 0.12900915E+03</rscale>
<asrwt>0</asrwt>
<pdfrwt beam="1">  1        1 0.22196516E-01 0.12901030E+03</pdfrwt>
<pdfrwt beam="2">  1       -1 0.18963184E-01 0.12901030E+03</pdfrwt>
<totfact> 0.46796320E+03</totfact>
</mgrwt>
</event>
<event>
 8    1  0.2964543E-004  0.9321217E+02  0.7546771E-02  0.1297797E+00
         -2   -1    0    0    0  501 -0.00000000000E+00  0.00000000000E+00  0.25758224718E+02  0.25758224718E+02  0.00000000000E+00 0.  1.
          2   -1    0    0  501    0  0.00000000000E+00 -0.00000000000E+00 -0.39379685448E+03  0.39379685448E+03  0.00000000000E+00 0. -1.
         23    2    1    2    0    0 -0.36748111894E+01  0.11537569393E+02 -0.27714181282E+03  0.29239714905E+03  0.92422338306E+02 0.  0.
         23    2    1    2    0    0  0.36748111894E+01 -0.11537569393E+02 -0.90896816946E+02  0.12715793015E+03  0.88092497543E+02 0.  0.
          5    1    4    4  502    0 -0.37707000833E+02 -0.84024340682E+01 -0.70840349833E+02  0.80826134230E+02  0.47000000000E+01 0. -1.
         -5    1    3    3    0  503  0.30888105525E+02 -0.26461979218E+02 -0.10527444965E+03  0.11295623558E+03  0.47000000000E+01 0.  1.
          5    1    3    3  503    0 -0.34562916714E+02  0.37999548611E+02 -0.17186736317E+03  0.17944091348E+03  0.47000000000E+01 0. -1.
         -5    1    4    4    0  502  0.41381812023E+02 -0.31351353251E+01 -0.20056467113E+02  0.46331795916E+02  0.47000000000E+01 0.  1.
<mgrwt>
<rscale>  0 0.92120289E+02</rscale>
<asrwt>0</asrwt>
<pdfrwt beam="1">  1        2 0.60584134E-01 0.93212169E+02</pdfrwt>
<pdfrwt beam="2">  1       -2 0.39628036E-02 0.93212169E+02</pdfrwt>
<totfact> 0.20451825E+04</totfact>
</mgrwt>
</event>
<event>
 8    1  0.2964543E-004  0.1921794E+03  0.7546771E-02  0.1156963E+00
         -1   -1    0    0    0  501 -0.00000000000E+00  0.00000000000E+00  0.25046800616E+03  0.25046800616E+03  0.00000000000E+00 0.  1.
          1   -1    0    0  501    0  0.00000000000E+00 -0.00000000000E+00 -0.15325896471E+03  0.15325896471E+03  0.00000000000E+00 0. -1.
         23    2    1    2    0    0 -0.15015439812E+02  0.16705943148E+03  0.93072097192E+02  0.21353069042E+03  0.93800977602E+02 0.  0.
         23    2    1    2    0    0  0.15015439812E+02 -0.16705943148E+03  0.41369442533E+01  0.19019628045E+03  0.89572282044E+02 0.  0.
          5    1    3    3  502    0  0.39233231542E+02  0.77920928142E+02  0.35916750517E+02  0.94461740760E+02  0.47000000000E+01 0. -1.
         -5    1    3    3    0  502 -0.54248671354E+02  0.89138503334E+02  0.57155346675E+02  0.11906894966E+03  0.47000000000E+01 0.  1.
          5    1    4    4  503    0  0.52070693615E+02 -0.10270613717E+03 -0.41917303718E+01  0.11532375449E+03  0.47000000000E+01 0. -1.
         -5    1    4    4    0  503 -0.37055253803E+02 -0.64353294305E+02  0.83286746251E+01  0.74872525958E+02  0.47000000000E+01 0.  1.
<mgrwt>
<rscale>  0 0.19167039E+03</rscale>
<asrwt>0</asrwt>
<pdfrwt beam="1">  1        1 0.23578302E-01 0.19217945E+03</pdfrwt>
<pdfrwt beam="2">  1       -1 0.38533539E-01 0.19217945E+03</pdfrwt>
<totfact> 0.13508829E+03</totfact>
</mgrwt>
</event>
<event>
 8    1  0.2964543E-004  0.1152883E+03  0.7546771E-02  0.1251738E+00
          3   -1    0    0  501    0  0.00000000000E+00  0.00000000000E+00  0.38357485719E+03  0.38357485719E+03  0.00000000000E+00 0. -1.
         -3   -1    0    0    0  501 -0.00000000000E+00 -0.00000000000E+00 -0.34539524069E+02  0.34539524069E+02  0.00000000000E+00 0.  1.
         23    2    1    2    0    0 -0.46930938009E+02 -0.48280585823E+02  0.15267983233E+03  0.19041531384E+03  0.91724220548E+02 0.  0.
         23    2    1    2    0    0  0.46930938009E+02  0.48280585823E+02  0.19635550079E+03  0.22769906741E+03  0.93583410398E+02 0.  0.
          5    1    3    3  502    0  0.18868066519E+02 -0.11685401940E+02  0.88528867048E+02  0.91389292882E+02  0.47000000000E+01 0. -1.
         -5    1    3    3    0  502 -0.65799004529E+02 -0.36595183883E+02  0.64150965282E+02  0.99026020959E+02  0.47000000000E+01 0.  1.
          5    1    4    4  503    0  0.54884483695E+02  0.25189810586E+02  0.19338837447E+03  0.20265237844E+03  0.47000000000E+01 0. -1.
         -5    1    4    4    0  503 -0.79535456852E+01  0.23090775238E+02  0.29671263209E+01  0.25046688976E+02  0.47000000000E+01 0.  1.
<mgrwt>
<rscale>  0 0.11491041E+03</rscale>
<asrwt>0</asrwt>
<pdfrwt beam="1">  1        3 0.59011514E-01 0.11528826E+03</pdfrwt>
<pdfrwt beam="2">  1       -3 0.53137732E-02 0.11528826E+03</pdfrwt>
<totfact> 0.13198485E+03</totfact>
</mgrwt>
</event>
<event>
 8    1  0.2964543E-004  0.1259912E+03  0.7546771E-02  0.1233684E+00
         -2   -1    0    0    0  501 -0.00000000000E+00  0.00000000000E+00  0.16621617989E+03  0.16621617989E+03  0.00000000000E+00 0.  1.
          2   -1    0    0  501    0  0.00000000000E+00 -0.00000000000E+00 -0.22759403692E+03  0.22759403692E+03  0.00000000000E+00 0. -1.
         23    2    1    2    0    0  0.61250464442E+02 -0.58274574673E+02  0.11951359302E+03  0.17336636286E+03  0.92870078102E+02 0.  0.
         23    2    1    2    0    0 -0.61250464442E+02  0.58274574673E+02 -0.18089145006E+03  0.22044385395E+03  0.93414295441E+02 0.  0.
          5    1    3    3  502    0  0.85776448624E+01 -0.23213030670E+02 -0.11581063375E+02  0.27724209875E+02  0.47000000000E+01 0. -1.
         -5    1    4    4    0  503 -0.31466691581E+02  0.29287170277E+01 -0.34434746621E+01  0.32135301153E+02  0.47000000000E+01 0.  1.
          5    1    4    4  503    0 -0.29783772861E+02  0.55345857645E+02 -0.17744797540E+03  0.18830855280E+03  0.47000000000E+01 0. -1.
         -5    1    3    3    0  502  0.52672819579E+02 -0.35061544002E+02  0.13109465640E+03  0.14564215298E+03  0.47000000000E+01 0.  1.
<mgrwt>
<rscale>  0 0.12589031E+03</rscale>
<asrwt>0</asrwt>
<pdfrwt beam="1">  1        2 0.35014467E-01 0.12599117E+03</pdfrwt>
<pdfrwt beam="2">  1       -2 0.25571720E-01 0.12599117E+03</pdfrwt>
<totfact> 0.19622919E+03</totfact>
</mgrwt>
</event>
<event>
 7    1  0.2964543E-004  0.2968740E+03  0.7546771E-02  0.1099967E+00
         -2   -1    0    0    0  501 -0.00000000000E+00  0.00000000000E+00  0.18279603937E+03  0.18279603937E+03  0.00000000000E+00 0.  1.
          2   -1    0    0  501    0  0.00000000000E+00 -0.00000000000E+00 -0.54822239799E+03  0.54822239799E+03  0.00000000000E+00 0. -1.
         23    2    1    2    0    0 -0.16707401302E+03 -0.89954072987E+02 -0.37951529639E+03  0.43381027275E+03  0.90299675944E+02 0.  0.
          5    1    3    3  502    0 -0.27795227100E+02  0.17860385412E+02 -0.49376890654E+02  0.59596437370E+02  0.47000000000E+01 0. -1.
         -5    1    3    3    0  502 -0.13927878592E+03 -0.10781445840E+03 -0.33013840574E+03  0.37421383538E+03  0.47000000000E+01 0.  1.
          5    1    1    2  503    0 -0.37826010537E+02  0.74780223187E+02 -0.25898725757E+02  0.87839187433E+02  0.47000000000E+01 0. -1.
         -5    1    1    2    0  503  0.20490002355E+03  0.15173849800E+02  0.39987663526E+02  0.20936897718E+03  0.47000000000E+01 0.  1.
<mgrwt>
<rscale>  0 0.27230598E+03</rscale>
<asrwt>0</asrwt>
<pdfrwt beam="1">  1        2 0.84341906E-01 0.29687404E+03</pdfrwt>
<pdfrwt beam="2">  1       -2 0.28122468E-01 0.29687404E+03</pdfrwt>
<totfact> 0.64705167E+02</totfact>
</mgrwt>
</event>
<event>
 8    1  0.2964543E-004  0.1342303E+03  0.7546771E-02  0.1221786E+00
          1   -1    0    0  501    0  0.00000000000E+00  0.00000000000E+00  0.65489185501E+02  0.65489185501E+02  0.00000000000E+00 0. -1.
         -1   -1    0    0    0  501 -0.00000000000E+00 -0.00000000000E+00 -0.27246278204E+03  0.27246278204E+03  0.00000000000E+00 0.  1.
         23    2    1    2    0    0  0.65994818941E+02 -0.69761373600E+02 -0.10054006692E+03  0.16664561491E+03  0.91872142338E+02 0.  0.
         23    2    1    2    0    0 -0.65994818941E+02  0.69761373600E+02 -0.10643352962E+03  0.17130635263E+03  0.93785952314E+02 0.  0.
          5    1    4    4  502    0 -0.31213140143E+02  0.80834785897E+02 -0.40428798283E+02  0.95734531174E+02  0.47000000000E+01 0. -1.
         -5    1    4    4    0  502 -0.34781678799E+02 -0.11073412296E+02 -0.66004731334E+02  0.75571821458E+02  0.47000000000E+01 0.  1.
          5    1    3    3  503    0  0.86443367011E+02 -0.39482978609E+02 -0.80936010806E+02  0.12491632858E+03  0.47000000000E+01 0. -1.
         -5    1    3    3    0  503 -0.20448548070E+02 -0.30278394991E+02 -0.19604056112E+02  0.41729286328E+02  0.47000000000E+01 0.  1.
<mgrwt>
<rscale>  0 0.13389652E+03</rscale>
<asrwt>0</asrwt>
<pdfrwt beam="1">  1        1 0.10075259E-01 0.13423029E+03</pdfrwt>
<pdfrwt beam="2">  1       -1 0.41917350E-01 0.13423029E+03</pdfrwt>
<totfact> 0.34633331E+03</totfact>
</mgrwt>
</event>
<event>
 8    1  0.2964543E-004  0.1064925E+03  0.7546771E-02  0.1268818E+00
         -1   -1    0    0    0  501 -0.00000000000E+00  0.00000000000E+00  0.28431561291E+02  0.28431561291E+02  0.00000000000E+00 0.  1.
          1   -1    0    0  501    0  0.00000000000E+00 -0.00000000000E+00 -0.40870429877E+03  0.40870429877E+03  0.00000000000E+00 0. -1.
         23    2    1    2    0    0 -0.21974905921E+02 -0.37802641336E+02 -0.13660450579E+03  0.17121321847E+03  0.93494593403E+02 0.  0.
         23    2    1    2    0    0  0.21974905921E+02  0.37802641336E+02 -0.24366823169E+03  0.26592264159E+03  0.97101534451E+02 0.  0.
          5    1    4    4  502    0  0.36189373009E+02  0.58671930080E+02 -0.22139364429E+03  0.23192520740E+03  0.47000000000E+01 0. -1.
         -5    1    3    3    0  503 -0.52372885462E+02 -0.47371544470E+02 -0.99018934557E+02  0.12171204442E+03  0.47000000000E+01 0.  1.
          5    1    3    3  503    0  0.30397979541E+02  0.95689031337E+01 -0.37585571233E+02  0.49501174049E+02  0.47000000000E+01 0. -1.
         -5    1    4    4    0  502 -0.14214467089E+02 -0.20869288744E+02 -0.22274587402E+02  0.33997434186E+02  0.47000000000E+01 0.  1.
<mgrwt>
<rscale>  0 0.10566327E+03</rscale>
<asrwt>0</asrwt>
<pdfrwt beam="1">  1        1 0.62877584E-01 0.10649246E+03</pdfrwt>
<pdfrwt beam="2">  1       -1 0.43740863E-02 0.10649246E+03</pdfrwt>
<totfact> 0.11765474E+04</totfact>
</mgrwt>
</event>
<event>
 8    1  0.2964543E-004  0.1004862E+03  0.7546771E-02  0.1283332E+00
          2   -1    0    0  501    0  0.00000000000E+00  0.00000000000E+00  0.40224253415E+03  0.40224253415E+03  0.00000000000E+00 0. -1.
         -2   -1    0    0    0  501 -0.00000000000E+00 -0.00000000000E+00 -0.34860368311E+02  0.34860368311E+02  0.00000000000E+00 0.  1.
         23    2    1    2    0    0  0.94630742365E+01 -0.24175768472E+02  0.62492109569E+02  0.11833321234E+03  0.97074547788E+02 0.  0.
         23    2    1    2    0    0 -0.94630742365E+01  0.24175768472E+02  0.30489005627E+03  0.31876969013E+03  0.89342886535E+02 0.  0.
          5    1    3    3  502    0 -0.34758404935E+02 -0.13187073173E+02  0.62092720642E+02  0.72523386360E+02  0.47000000000E+01 0. -1.
         -5    1    3    3    0  502  0.44221479171E+02 -0.10988695300E+02  0.39938892743E+00  0.45809825976E+02  0.47000000000E+01 0.  1.
          5    1    4    4  503    0 -0.37677114695E+02  0.37067963019E+02  0.24978598346E+03  0.25535999371E+03  0.47000000000E+01 0. -1.
         -5    1    4    4    0  503  0.28214040459E+02 -0.12892194546E+02  0.55104072814E+02  0.63409696418E+02  0.47000000000E+01 0.  1.
<mgrwt>
<rscale>  0 0.98570209E+02</rscale>
<asrwt>0</asrwt>
<pdfrwt beam="1">  1        2 0.61883463E-01 0.10048624E+03</pdfrwt>
<pdfrwt beam="2">  1       -2 0.53631339E-02 0.10048624E+03</pdfrwt>
<totfact> 0.12860015E+04</totfact>
</mgrwt>
</event>
<event>
 8    1  0.2964543E-004  0.9957930E+02  0.7546771E-02  0.1284296E+00
         -1   -1    0    0    0  501 -0.00000000000E+00  0.00000000000E+00  0.20261585127E+02  0.20261585127E+02  0.00000000000E+00 0.  1.
          1   -1    0    0  501    0  0.00000000000E+00 -0.00000000000E+00 -0.46214526055E+03  0.46214526055E+03  0.00000000000E+00 0. -1.
         23    2    1    2    0    0 -0.11223794884E+02  0.18232497075E+02 -0.23427883630E+03  0.25456356601E+03  0.97250390640E+02 0.  0.
         23    2    1    2    0    0  0.11223794884E+02 -0.18232497075E+02 -0.20760483912E+03  0.22784327967E+03  0.91402370549E+02 0.  0.
          5    1    4    4  502    0 -0.26705455711E+02  0.24499946640E+02 -0.81397626013E+02  0.89224953184E+02  0.47000000000E+01 0. -1.
         -5    1    3    3    0  503 -0.38865418156E+02 -0.20830346765E+02 -0.16038419525E+03  0.16640193557E+03  0.47000000000E+01 0.  1.
          5    1    3    3  503    0  0.27641623272E+02  0.39062843840E+02 -0.73894641049E+02  0.88161630439E+02  0.47000000000E+01 0. -1.
         -5    1    4    4    0  502  0.37929250595E+02 -0.42732443715E+02 -0.12620721311E+03  0.13861832649E+03  0.47000000000E+01 0.  1.
<mgrwt>
<rscale>  0 0.98121904E+02</rscale>
<asrwt>0</asrwt>
<pdfrwt beam="1">  1        1 0.71099267E-01 0.99579295E+02</pdfrwt>
<pdfrwt beam="2">  1       -1 0.31171671E-02 0.99579295E+02</pdfrwt>
<totfact> 0.16391025E+04</totfact>
</mgrwt>
</event>
<event>
 8    1  0.2964543E-004  0.1142328E+03  0.7546771E-02  0.1252939E+00
          3   -1    0    0  501    0  0.00000000000E+00  0.00000000000E+00  0.35684350340E+02  0.35684350340E+02  0.00000000000E+00 0. -1.
         -3   -1    0    0    0  501 -0.00000000000E+00 -0.00000000000E+00 -0.49896963634E+03  0.49896963634E+03  0.00000000000E+00 0.  1.
         23    2    1    2    0    0 -0.13647231005E+02 -0.69686608789E+02 -0.36983583855E+03  0.38706698351E+03  0.89441779297E+02 0.  0.
         23    2    1    2    0    0  0.13647231005E+02  0.69686608789E+02 -0.93449447443E+02  0.14758700317E+03  0.89479907905E+02 0.  0.
          5    1    4    4  502    0  0.37041608226E+02  0.75105204425E+02 -0.49794687662E+02  0.97542162120E+02  0.47000000000E+01 0. -1.
         -5    1    4    4    0  502 -0.23394377221E+02 -0.54185956361E+01 -0.43654759781E+02  0.50044841050E+02  0.47000000000E+01 0.  1.
          5    1    3    3  503    0 -0.29723796271E+02  0.88380316839E+01 -0.70730954250E+02  0.77372945905E+02  0.47000000000E+01 0. -1.
         -5    1    3    3    0  503  0.16076565266E+02 -0.78524640473E+02 -0.29910488430E+03  0.30969403760E+03  0.47000000000E+01 0.  1.
<mgrwt>
<rscale>  0 0.11422530E+03</rscale>
<asrwt>0</asrwt>
<pdfrwt beam="1">  1        3 0.54899000E-02 0.11423276E+03</pdfrwt>
<pdfrwt beam="2">  1       -3 0.76764560E-01 0.11423276E+03</pdfrwt>
<totfact> 0.72086502E+02</totfact>
</mgrwt>
</event>
<event>
 8    1  0.2964543E-004  0.9141735E+02  0.7546771E-02  0.1302729E+00
         -1   -1    0    0    0  501 -0.00000000000E+00  0.00000000000E+00  0.14475875112E+02  0.14475875112E+02  0.00000000000E+00 0.  1.
          1   -1    0    0  501    0  0.00000000000E+00 -0.00000000000E+00 -0.68339283406E+03  0.68339283406E+03  0.00000000000E+00 0. -1.
         23    2    1    2    0    0 -0.34422550166E+01  0.17426323888E+01 -0.49998216164E+03  0.50827088599E+03  0.91335894939E+02 0.  0.
         23    2    1    2    0    0  0.34422550166E+01 -0.17426323888E+01 -0.16893479731E+03  0.18959782318E+03  0.85985364597E+02 0.  0.
          5    1    3    3  502    0 -0.94452155517E+01 -0.43879737409E+02 -0.24017705885E+03  0.24438034505E+03  0.47000000000E+01 0. -1.
         -5    1    4    4    0  503 -0.36637982969E+01  0.24433869591E+02 -0.80971693083E+01  0.26421422217E+02  0.47000000000E+01 0.  1.
          5    1    4    4  503    0  0.71060533135E+01 -0.26176501980E+02 -0.16083762801E+03  0.16317640097E+03  0.47000000000E+01 0. -1.
         -5    1    3    3    0  502  0.60029605351E+01  0.45622369797E+02 -0.25980510279E+03  0.26389054094E+03  0.47000000000E+01 0.  1.
<mgrwt>
<rscale>  0 0.90050637E+02</rscale>
<asrwt>0</asrwt>
<pdfrwt beam="1">  1        1 0.10513734E+00 0.91417348E+02</pdfrwt>
<pdfrwt beam="2">  1       -1 0.22270580E-02 0.91417348E+02</pdfrwt>
<totfact> 0.15709160E+04</totfact>
</mgrwt>
</event>
<event>
 8    1  0.2964543E-004  0.1028959E+03  0.7546771E-02  0.1274710E+00
          2   -1    0    0  501    0  0.00000000000E+00  0.00000000000E+00  0.43423168304E+03  0.43423168304E+03  0.00000000000E+00 0. -1.
         -2   -1    0    0    0  501 -0.00000000000E+00 -0.00000000000E+00 -0.41851249922E+02  0.41851249922E+02  0.00000000000E+00 0.  1.
         23    2    1    2    0    0  0.36818636733E+02  0.41847458966E+00  0.41182145502E+02  0.11012146021E+03  0.95262688176E+02 0.  0.
         23    2    1    2    0    0 -0.36818636733E+02 -0.41847458966E+00  0.35119828762E+03  0.36596147276E+03  0.96082127284E+02 0.  0.
          5    1    4    4  502    0 -0.64468278107E+01 -0.32934021238E+02  0.27881424506E+03  0.28086595485E+03  0.47000000000E+01 0. -1.
         -5    1    4    4    0  502 -0.30371808922E+02  0.32515546649E+02  0.72384042560E+02  0.85095517910E+02  0.47000000000E+01 0.  1.
          5    1    3    3  503    0  0.13491392448E+01 -0.43985322448E+02  0.11006215473E+02  0.45604336928E+02  0.47000000000E+01 0. -1.
         -5    1    3    3    0  503  0.35469497488E+02  0.44403797038E+02  0.30175930029E+02  0.64517123281E+02  0.47000000000E+01 0.  1.
<mgrwt>
<rscale>  0 0.10270416E+03</rscale>
<asrwt>0</asrwt>
<pdfrwt beam="1">  1        2 0.66804871E-01 0.10289588E+03</pdfrwt>
<pdfrwt beam="2">  1       -2 0.64386542E-02 0.10289588E+03</pdfrwt>
<totfact> 0.90258260E+03</totfact>
</mgrwt>
</event>
<event>
 8    1  0.2964543E-004  0.1403756E+03  0.7546771E-02  0.1213121E+00
         -2   -1    0    0    0  501 -0.00000000000E+00  0.00000000000E+00  0.53478667588E+02  0.53478667588E+02  0.00000000000E+00 0.  1.
          2   -1    0    0  501    0  0.00000000000E+00 -0.00000000000E+00 -0.41396754727E+03  0.41396754727E+03  0.00000000000E+00 0. -1.
         23    2    1    2    0    0  0.73351585906E+02  0.76997105468E+02 -0.25916777294E+03  0.29432406285E+03  0.90275744437E+02 0.  0.
         23    2    1    2    0    0 -0.73351585906E+02 -0.76997105468E+02 -0.10132110674E+03  0.17312215201E+03  0.91631345295E+02 0.  0.
          5    1    3    3  502    0 -0.20081597162E+02  0.24876688965E+02 -0.64619702696E+02  0.72248987363E+02  0.47000000000E+01 0. -1.
         -5    1    4    4    0  503 -0.33818946620E+02  0.16879687938E+02 -0.32840814149E+02  0.50291690063E+02  0.47000000000E+01 0.  1.
          5    1    4    4  503    0 -0.39532639286E+02 -0.93876793406E+02 -0.68480292590E+02  0.12283046195E+03  0.47000000000E+01 0. -1.
         -5    1    3    3    0  502  0.93433183069E+02  0.52120416502E+02 -0.19454807025E+03  0.22207507548E+03  0.47000000000E+01 0.  1.
<mgrwt>
<rscale>  0 0.14015482E+03</rscale>
<asrwt>0</asrwt>
<pdfrwt beam="1">  1        2 0.63687313E-01 0.14037561E+03</pdfrwt>
<pdfrwt beam="2">  1       -2 0.82274876E-02 0.14037561E+03</pdfrwt>
<totfact> 0.66672467E+03</totfact>
</mgrwt>
</event>
<event>
 8    1  0.2964543E-004  0.1284282E+03  0.7546771E-02  0.1235742E+00
          1   -1    0    0  501    0  0.00000000000E+00  0.00000000000E+00  0.26191566737E+02  0.26191566737E+02  0.00000000000E+00 0. -1.
         -1   -1    0    0    0  501 -0.00000000000E+00 -0.00000000000E+00 -0.67875981537E+03  0.67875981537E+03  0.00000000000E+00 0.  1.
         23    2    1    2    0    0  0.47464532035E+02 -0.70469813370E+02 -0.45742695722E+03  0.47134077590E+03  0.75523701164E+02 0.  0.
         23    2    1    2    0    0 -0.47464532035E+02  0.70469813370E+02 -0.19514129141E+03  0.23361060620E+03  0.96306361781E+02 0.  0.
          5    1    4    4  502    0  0.19100148493E+02  0.27694526619E+02 -0.15657610076E+02  0.37403919987E+02  0.47000000000E+01 0. -1.
         -5    1    4    4    0  502 -0.66564680528E+02  0.42775286751E+02 -0.17948368133E+03  0.19620668622E+03  0.47000000000E+01 0.  1.
          5    1    3    3  503    0  0.21489171347E+02  0.45589876977E+01 -0.35706404457E+02  0.42185378667E+02  0.47000000000E+01 0. -1.
         -5    1    3    3    0  503  0.25975360688E+02 -0.75028801068E+02 -0.42172055276E+03  0.42915539723E+03  0.47000000000E+01 0.  1.
<mgrwt>
<rscale>  0 0.12457026E+03</rscale>
<asrwt>0</asrwt>
<pdfrwt beam="1">  1        1 0.40294716E-02 0.12842816E+03</pdfrwt>
<pdfrwt beam="2">  1       -1 0.10442459E+00 0.12842816E+03</pdfrwt>
<totfact> 0.19917948E+03</totfact>
</mgrwt>
</event>
<event>
 8    1  0.2964543E-004  0.9698831E+02  0.7546771E-02  0.1287196E+00
         -2   -1    0    0    0  501 -0.00000000000E+00  0.00000000000E+00  0.68823838708E+02  0.68823838708E+02  0.00000000000E+00 0.  1.
          2   -1    0    0  501    0  0.00000000000E+00 -0.00000000000E+00 -0.48556167051E+03  0.48556167051E+03  0.00000000000E+00 0. -1.
         23    2    1    2    0    0  0.49544067125E+01  0.31400125603E+02  0.27208151188E+02  0.99968555621E+02  0.90790498336E+02 0.  0.
         23    2    1    2    0    0 -0.49544067125E+01 -0.31400125603E+02 -0.44394598299E+03  0.45441695360E+03  0.91630878369E+02 0.  0.
          5    1    4    4  502    0 -0.44408413875E+02 -0.10002619595E+02 -0.30262009503E+03  0.30606073178E+03  0.47000000000E+01 0. -1.
         -5    1    3    3    0  503 -0.27534709978E+01  0.60383295262E+02  0.22516209738E+01  0.60670287178E+02  0.47000000000E+01 0.  1.
          5    1    3    3  503    0  0.77078777103E+01 -0.28983169659E+02  0.24956530214E+02  0.39298268443E+02  0.47000000000E+01 0. -1.
         -5    1    4    4    0  502  0.39454007162E+02 -0.21397506009E+02 -0.14132588796E+03  0.14835622182E+03  0.47000000000E+01 0.  1.
<mgrwt>
<rscale>  0 0.96789305E+02</rscale>
<asrwt>0</asrwt>
<pdfrwt beam="1">  1        2 0.74701796E-01 0.96988308E+02</pdfrwt>
<pdfrwt beam="2">  1       -2 0.10588283E-01 0.96988308E+02</pdfrwt>
<totfact> 0.37141328E+03</totfact>
</mgrwt>
</event>
<event>
 8    1  0.2964543E-004  0.9082155E+02  0.7546771E-02  0.1302063E+00
         -2   -1    0    0    0  501 -0.00000000000E+00  0.00000000000E+00  0.49767630235E+03  0.49767630235E+03  0.00000000000E+00 0.  1.
          2   -1    0    0  501    0  0.00000000000E+00 -0.00000000000E+00 -0.35833722433E+02  0.35833722433E+02  0.00000000000E+00 0. -1.
         23    2    1    2    0    0 -0.13225902825E+00  0.93407211831E+00  0.34703074711E+02  0.97225805907E+02  0.90816650217E+02 0.  0.
         23    2    1    2    0    0  0.13225902825E+00 -0.93407211831E+00  0.42713950521E+03  0.43628421888E+03  0.88853096455E+02 0.  0.
          5    1    4    4  502    0 -0.15202790986E+02 -0.41257397288E+02  0.17917530563E+03  0.18455128781E+03  0.47000000000E+01 0. -1.
         -5    1    4    4    0  502  0.15335050014E+02  0.40323325170E+02  0.24796419958E+03  0.25173293107E+03  0.47000000000E+01 0.  1.
          5    1    3    3  503    0 -0.45169944603E+02 -0.18446732948E+01  0.17752949955E+02  0.48795327103E+02  0.47000000000E+01 0. -1.
         -5    1    3    3    0  503  0.45037685574E+02  0.27787454131E+01  0.16950124756E+02  0.48430478804E+02  0.47000000000E+01 0.  1.
<mgrwt>
<rscale>  0 0.90326658E+02</rscale>
<asrwt>0</asrwt>
<pdfrwt beam="1">  1        2 0.55128807E-02 0.90821550E+02</pdfrwt>
<pdfrwt beam="2">  1       -2 0.76565580E-01 0.90821550E+02</pdfrwt>
<totfact> 0.20290728E+03</totfact>
</mgrwt>
</event>
<event>
 8    1  0.2964543E-004  0.1059413E+03  0.7546771E-02  0.1272657E+00
          1   -1    0    0  501    0  0.00000000000E+00  0.00000000000E+00  0.57437563726E+03  0.57437563726E+03  0.00000000000E+00 0. -1.
         -1   -1    0    0    0  501 -0.00000000000E+00 -0.00000000000E+00 -0.17987321564E+02  0.17987321564E+02  0.00000000000E+00 0.  1.
         23    2    1    2    0    0  0.38238529173E+02  0.36238925709E+00  0.29218574582E+03  0.31079908936E+03  0.98799025516E+02 0.  0.
         23    2    1    2    0    0 -0.38238529173E+02 -0.36238925709E+00  0.26420256987E+03  0.28156386947E+03  0.89514793322E+02 0.  0.
          5    1    3    3  502    0  0.33951796696E+02 -0.46232568644E+02  0.18513442277E+03  0.19387372024E+03  0.47000000000E+01 0. -1.
         -5    1    3    3    0  502  0.42867324772E+01  0.46594957902E+02  0.10705132305E+03  0.11692536912E+03  0.47000000000E+01 0.  1.
          5    1    4    4  503    0 -0.31641748945E+02  0.32224775289E+02  0.22679635897E+03  0.23129702735E+03  0.47000000000E+01 0. -1.
         -5    1    4    4    0  503 -0.65967802278E+01 -0.32587164546E+02  0.37406210904E+02  0.50266842120E+02  0.47000000000E+01 0.  1.
<mgrwt>
<rscale>  0 0.10372243E+03</rscale>
<asrwt>0</asrwt>
<pdfrwt beam="1">  1        1 0.88365469E-01 0.10594132E+03</pdfrwt>
<pdfrwt beam="2">  1       -1 0.27672807E-02 0.10594132E+03</pdfrwt>
<totfact> 0.14757492E+04</totfact>
</mgrwt>
</event>
<event>
 8    1  0.2964543E-004  0.9346424E+02  0.7546771E-02  0.1301486E+00
          2   -1    0    0  501    0  0.00000000000E+00  0.00000000000E+00  0.31578280466E+03  0.31578280466E+03  0.00000000000E+00 0. -1.
         -2   -1    0    0    0  501 -0.00000000000E+00 -0.00000000000E+00 -0.29725824026E+02  0.29725824026E+02  0.00000000000E+00 0.  1.
         23    2    1    2    0    0  0.84013315758E+01  0.17839570107E+02  0.20803261777E+03  0.22375738188E+03  0.80006020122E+02 0.  0.
         23    2    1    2    0    0 -0.84013315758E+01 -0.17839570107E+02  0.78024362862E+02  0.12175124680E+03  0.91360452410E+02 0.  0.
          5    1    3    3  502    0  0.32110969852E+02 -0.19415729393E+02  0.10293907513E+03  0.10966598434E+03  0.47000000000E+01 0. -1.
         -5    1    4    4    0  503  0.21493229982E+02 -0.45857773854E+02  0.53266273344E+02  0.73649713060E+02  0.47000000000E+01 0. -1.
          5    1    4    4  503    0 -0.29894561558E+02  0.28018203747E+02  0.24758089519E+02  0.48101533744E+02  0.47000000000E+01 0.  1.
         -5    1    3    3    0  502 -0.23709638276E+02  0.37255299500E+02  0.10509354264E+03  0.11409139754E+03  0.47000000000E+01 0.  1.
<mgrwt>
<rscale>  0 0.90566214E+02</rscale>
<asrwt>0</asrwt>
<pdfrwt beam="1">  1        2 0.48581968E-01 0.93464244E+02</pdfrwt>
<pdfrwt beam="2">  1       -2 0.45732039E-02 0.93464244E+02</pdfrwt>
<totfact> 0.20873678E+04</totfact>
</mgrwt>
</event>
<event>
 8    1  0.2964543E-004  0.1089584E+03  0.7546771E-02  0.1262883E+00
         -1   -1    0    0    0  501 -0.00000000000E+00  0.00000000000E+00  0.10523662067E+03  0.10523662067E+03  0.00000000000E+00 0.  1.
          1   -1    0    0  501    0  0.00000000000E+00 -0.00000000000E+00 -0.22661924312E+03  0.22661924312E+03  0.00000000000E+00 0. -1.
         23    2    1    2    0    0 -0.25709796375E+02 -0.50848305555E+02  0.57206466361E+02  0.12306307006E+03  0.92873007977E+02 0.  0.
         23    2    1    2    0    0  0.25709796375E+02  0.50848305555E+02 -0.17858908881E+03  0.20879279374E+03  0.91944680481E+02 0.  0.
          5    1    3    3  502    0  0.25224183117E+02 -0.14073910304E+02 -0.10019547912E+02  0.30932437756E+02  0.47000000000E+01 0. -1.
         -5    1    3    3    0  502 -0.50933979492E+02 -0.36774395250E+02  0.67226014273E+02  0.92130632300E+02  0.47000000000E+01 0.  1.
          5    1    4    4  503    0 -0.85563363568E+01  0.68546773818E+02 -0.11815536276E+03  0.13694762079E+03  0.47000000000E+01 0. -1.
         -5    1    4    4    0  503  0.34266132732E+02 -0.17698468263E+02 -0.60433726050E+02  0.71845172946E+02  0.47000000000E+01 0.  1.
<mgrwt>
<rscale>  0 0.10876034E+03</rscale>
<asrwt>0</asrwt>
<pdfrwt beam="1">  1        1 0.34864499E-01 0.10895843E+03</pdfrwt>
<pdfrwt beam="2">  1       -1 0.16190249E-01 0.10895843E+03</pdfrwt>
<totfact> 0.33931443E+03</totfact>
</mgrwt>
</event>
<event>
 8    1  0.2964543E-004  0.9318645E+02  0.7546771E-02  0.1295706E+00
         -2   -1    0    0    0  501 -0.00000000000E+00  0.00000000000E+00  0.27959379885E+03  0.27959379885E+03  0.00000000000E+00 0.  1.
          2   -1    0    0  501    0  0.00000000000E+00 -0.00000000000E+00 -0.37312158138E+02  0.37312158138E+02  0.00000000000E+00 0. -1.
         23    2    1    2    0    0 -0.82983637701E+01 -0.94539854221E+01  0.55478980663E+02  0.10845105473E+03  0.92333489565E+02 0.  0.
         23    2    1    2    0    0  0.82983637701E+01  0.94539854221E+01  0.18680266005E+03  0.20845490226E+03  0.91651360011E+02 0.  0.
          5    1    3    3  502    0 -0.32425788204E+02  0.29308025101E+02  0.12824937303E+02  0.45792587749E+02  0.47000000000E+01 0. -1.
         -5    1    4    4    0  503  0.33277793152E+02 -0.21780001268E+02  0.14492653572E+03  0.15035814154E+03  0.47000000000E+01 0.  1.
          5    1    4    4  503    0 -0.24979429382E+02  0.31233986690E+02  0.41876124332E+02  0.58096760718E+02  0.47000000000E+01 0. -1.
         -5    1    3    3    0  502  0.24127424434E+02 -0.38762010523E+02  0.42654043360E+02  0.62658466982E+02  0.47000000000E+01 0.  1.
<mgrwt>
<rscale>  0 0.93017026E+02</rscale>
<asrwt>0</asrwt>
<pdfrwt beam="1">  1        2 0.57403322E-02 0.93186447E+02</pdfrwt>
<pdfrwt beam="2">  1       -2 0.43014429E-01 0.93186447E+02</pdfrwt>
<totfact> 0.61964781E+03</totfact>
</mgrwt>
</event>
<event>
 8    1  0.2964543E-004  0.9432919E+02  0.7546771E-02  0.1293490E+00
         -3   -1    0    0    0  501 -0.00000000000E+00  0.00000000000E+00  0.21473078694E+03  0.21473078694E+03  0.00000000000E+00 0.  1.
          3   -1    0    0  501    0  0.00000000000E+00 -0.00000000000E+00 -0.83832314744E+02  0.83832314744E+02  0.00000000000E+00 0. -1.
         23    2    1    2    0    0  0.94045649168E+01 -0.18002970101E+02  0.17260168167E+03  0.19669605260E+03  0.92116468776E+02 0.  0.
         23    2    1    2    0    0 -0.94045649168E+01  0.18002970101E+02 -0.41703209467E+02  0.10186704909E+03  0.90692806973E+02 0.  0.
          5    1    4    4  502    0 -0.40529056649E+02  0.87169210556E+01 -0.52735654027E+02  0.67243797864E+02  0.47000000000E+01 0. -1.
         -5    1    4    4    0  502  0.31124491732E+02  0.92860490451E+01  0.11032444560E+02  0.34623251225E+02  0.47000000000E+01 0.  1.
          5    1    3    3  503    0 -0.35743477740E+02  0.25332320294E+00  0.33396933947E+02  0.49143723614E+02  0.47000000000E+01 0. -1.
         -5    1    3    3    0  503  0.45148042657E+02 -0.18256293304E+02  0.13920474772E+03  0.14755232898E+03  0.47000000000E+01 0.  1.
<mgrwt>
<rscale>  0 0.93979816E+02</rscale>
<asrwt>0</asrwt>
<pdfrwt beam="1">  1        3 0.12897279E-01 0.94329193E+02</pdfrwt>
<pdfrwt beam="2">  1       -3 0.33035505E-01 0.94329193E+02</pdfrwt>
<totfact> 0.93406103E+02</totfact>
</mgrwt>
</event>
<event>
 8    1  0.2964543E-004  0.1152037E+03  0.7546771E-02  0.1251631E+00
          2   -1    0    0  501    0  0.00000000000E+00  0.00000000000E+00  0.54469082643E+03  0.54469082643E+03  0.00000000000E+00 0. -1.
         -2   -1    0    0    0  501 -0.00000000000E+00 -0.00000000000E+00 -0.24189739020E+02  0.24189739020E+02  0.00000000000E+00 0.  1.
         23    2    1    2    0    0  0.64846645553E+02  0.12902150904E+02  0.26723885755E+03  0.29064749281E+03  0.93208396365E+02 0.  0.
         23    2    1    2    0    0 -0.64846645553E+02 -0.12902150904E+02  0.25326222985E+03  0.27823307264E+03  0.94341574619E+02 0.  0.
          5    1    4    4  502    0 -0.71533794906E+00 -0.37128316993E+02  0.42911216726E+02  0.56942832314E+02  0.47000000000E+01 0. -1.
         -5    1    3    3    0  503 -0.13157741092E+02  0.20108901630E+02  0.21175321137E+02  0.32372492963E+02  0.47000000000E+01 0.  1.
          5    1    3    3  503    0  0.78004386645E+02 -0.72067507267E+01  0.24606353642E+03  0.25827499985E+03  0.47000000000E+01 0. -1.
         -5    1    4    4    0  502 -0.64131307604E+02  0.24226166089E+02  0.21035101313E+03  0.22129024032E+03  0.47000000000E+01 0.  1.
<mgrwt>
<rscale>  0 0.11497144E+03</rscale>
<asrwt>0</asrwt>
<pdfrwt beam="1">  1        2 0.83798580E-01 0.11520367E+03</pdfrwt>
<pdfrwt beam="2">  1       -2 0.37214987E-02 0.11520367E+03</pdfrwt>
<totfact> 0.16138057E+04</totfact>
</mgrwt>
</event>
<event>
 8    1  0.2964543E-004  0.1153989E+03  0.7546771E-02  0.1251643E+00
         -1   -1    0    0    0  501 -0.00000000000E+00  0.00000000000E+00  0.88485596661E+02  0.88485596661E+02  0.00000000000E+00 0.  1.
          1   -1    0    0  501    0  0.00000000000E+00 -0.00000000000E+00 -0.20599389114E+03  0.20599389114E+03  0.00000000000E+00 0. -1.
         23    2    1    2    0    0 -0.29496228101E+02 -0.65672534180E+02 -0.13638765847E+03  0.17754642194E+03  0.87967206070E+02 0.  0.
         23    2    1    2    0    0  0.29496228101E+02  0.65672534180E+02  0.18879363995E+02  0.11693306586E+03  0.90188703771E+02 0.  0.
          5    1    4    4  502    0 -0.13676781281E+02 -0.14710516193E+02 -0.73160688553E+01  0.21887633412E+02  0.47000000000E+01 0. -1.
         -5    1    4    4    0  502  0.43173009382E+02  0.80383050373E+02  0.26195432850E+02  0.95045432444E+02  0.47000000000E+01 0.  1.
          5    1    3    3  503    0  0.14092757464E+02 -0.54422385563E+02 -0.34676648732E+02  0.66219044319E+02  0.47000000000E+01 0. -1.
         -5    1    3    3    0  503 -0.43588985564E+02 -0.11250148617E+02 -0.10171100974E+03  0.11132737762E+03  0.47000000000E+01 0.  1.
<mgrwt>
<rscale>  0 0.11496454E+03</rscale>
<asrwt>0</asrwt>
<pdfrwt beam="1">  1        1 0.31691368E-01 0.11539892E+03</pdfrwt>
<pdfrwt beam="2">  1       -1 0.13613169E-01 0.11539892E+03</pdfrwt>
<totfact> 0.50170795E+03</totfact>
</mgrwt>
</event>
<event>
 8    1  0.2964543E-004  0.9731671E+02  0.7546771E-02  0.1287055E+00
          1   -1    0    0  501    0  0.00000000000E+00  0.00000000000E+00  0.63951928008E+03  0.63951928008E+03  0.00000000000E+00 0. -1.
         -1   -1    0    0    0  501 -0.00000000000E+00 -0.00000000000E+00 -0.14543804269E+02  0.14543804269E+02  0.00000000000E+00 0.  1.
         23    2    1    2    0    0  0.22677967708E+02 -0.26771640615E+02  0.32541221958E+03  0.33965225541E+03  0.90771862324E+02 0.  0.
         23    2    1    2    0    0 -0.22677967708E+02  0.26771640615E+02  0.29956325623E+03  0.31441082894E+03  0.88797600822E+02 0.  0.
          5    1    4    4  502    0 -0.24287869204E+02  0.51552961263E+02  0.26770901329E+03  0.27374771999E+03  0.47000000000E+01 0. -1.
         -5    1    4    4    0  502  0.16099014954E+01 -0.24781320648E+02  0.31854242936E+02  0.40663108943E+02  0.47000000000E+01 0.  1.
          5    1    3    3  503    0  0.38918024831E+02  0.21465290005E+02  0.18187132428E+03  0.18728224669E+03  0.47000000000E+01 0. -1.
         -5    1    3    3    0  503 -0.16240057123E+02 -0.48236930620E+02  0.14354089530E+03  0.15237000871E+03  0.47000000000E+01 0.  1.
<mgrwt>
<rscale>  0 0.96853707E+02</rscale>
<asrwt>0</asrwt>
<pdfrwt beam="1">  1        1 0.98387560E-01 0.97316710E+02</pdfrwt>
<pdfrwt beam="2">  1       -1 0.22375089E-02 0.97316710E+02</pdfrwt>
<totfact> 0.17198375E+04</totfact>
</mgrwt>
</event>
<event>
 8    1  0.2964543E-004  0.1019081E+03  0.7546771E-02  0.1276824E+00
          2   -1    0    0  501    0  0.00000000000E+00  0.00000000000E+00  0.11930605924E+04  0.11930605924E+04  0.00000000000E+00 0. -1.
         -2   -1    0    0    0  501 -0.00000000000E+00 -0.00000000000E+00 -0.88421749359E+01  0.88421749359E+01  0.00000000000E+00 0.  1.
         23    2    1    2    0    0 -0.42079427398E+02  0.12199415831E+02  0.49493715698E+03  0.50512882576E+03  0.90955138963E+02 0.  0.
         23    2    1    2    0    0  0.42079427398E+02 -0.12199415831E+02  0.68928126051E+03  0.69677394159E+03  0.92009595366E+02 0.  0.
          5    1    4    4  502    0  0.12401059522E+02 -0.50775512413E+02  0.32117987424E+03  0.32543899667E+03  0.47000000000E+01 0. -1.
         -5    1    4    4    0  502  0.29678367876E+02  0.38576096583E+02  0.36810138627E+03  0.37133494492E+03  0.47000000000E+01 0.  1.
          5    1    3    3  503    0 -0.32861183502E+02  0.37378602149E+02  0.44867654259E+03  0.45145292906E+03  0.47000000000E+01 0. -1.
         -5    1    3    3    0  503 -0.92182438955E+01 -0.25179186318E+02  0.46260614384E+02  0.53675896707E+02  0.47000000000E+01 0.  1.
<mgrwt>
<rscale>  0 0.10166955E+03</rscale>
<asrwt>0</asrwt>
<pdfrwt beam="1">  1        2 0.18354766E+00 0.10190814E+03</pdfrwt>
<pdfrwt beam="2">  1       -2 0.13603356E-02 0.10190814E+03</pdfrwt>
<totfact> 0.25604542E+04</totfact>
</mgrwt>
</event>
<event>
 8    1  0.2964543E-004  0.9631934E+02  0.7546771E-02  0.1289292E+00
         -1   -1    0    0    0  501 -0.00000000000E+00  0.00000000000E+00  0.73596426142E+02  0.73596426142E+02  0.00000000000E+00 0.  1.
          1   -1    0    0  501    0  0.00000000000E+00 -0.00000000000E+00 -0.13687719191E+03  0.13687719191E+03  0.00000000000E+00 0. -1.
         23    2    1    2    0    0  0.24047371099E+02  0.76093206473E+01 -0.64145572161E+02  0.11415039476E+03  0.90991650052E+02 0.  0.
         23    2    1    2    0    0 -0.24047371099E+02 -0.76093206473E+01  0.86480639392E+00  0.96323223288E+02  0.92958257497E+02 0.  0.
          5    1    3    3  502    0  0.10095060755E+02  0.49071911461E+02 -0.31540744199E+02  0.59387467455E+02  0.47000000000E+01 0. -1.
         -5    1    3    3    0  502  0.13952310345E+02 -0.41462590814E+02 -0.32604827963E+02  0.54762927309E+02  0.47000000000E+01 0.  1.
          5    1    4    4  503    0 -0.42739013076E+02  0.77114715365E+01 -0.32792586570E+02  0.54621733458E+02  0.47000000000E+01 0. -1.
         -5    1    4    4    0  503  0.18691641976E+02 -0.15320792184E+02  0.33657392964E+02  0.41701489830E+02  0.47000000000E+01 0.  1.
<mgrwt>
<rscale>  0 0.95841655E+02</rscale>
<asrwt>0</asrwt>
<pdfrwt beam="1">  1        1 0.21058029E-01 0.96319341E+02</pdfrwt>
<pdfrwt beam="2">  1       -1 0.11322527E-01 0.96319341E+02</pdfrwt>
<totfact> 0.10913540E+04</totfact>
</mgrwt>
</event>
<event>
 8    1  0.2964543E-004  0.9692487E+02  0.7546771E-02  0.1287975E+00
          1   -1    0    0  501    0  0.00000000000E+00  0.00000000000E+00  0.55780151820E+02  0.55780151820E+02  0.00000000000E+00 0. -1.
         -1   -1    0    0    0  501 -0.00000000000E+00 -0.00000000000E+00 -0.31833042954E+03  0.31833042954E+03  0.00000000000E+00 0.  1.
         23    2    1    2    0    0 -0.73978756024E+00  0.29011728637E+02 -0.26037767122E+03  0.27716136742E+03  0.90441496223E+02 0.  0.
         23    2    1    2    0    0  0.73978756024E+00 -0.29011728637E+02 -0.21726065039E+01  0.96949213938E+02  0.92478117303E+02 0.  0.
          5    1    3    3  502    0 -0.39066043894E+02 -0.89635636394E+01 -0.97747097196E+02  0.10575011238E+03  0.47000000000E+01 0. -1.
         -5    1    3    3    0  502  0.38326256334E+02  0.37975292277E+02 -0.16263057402E+03  0.17141125504E+03  0.47000000000E+01 0.  1.
          5    1    4    4  503    0  0.12439244959E+02 -0.59243149292E+02 -0.13665854378E+02  0.62236091852E+02  0.47000000000E+01 0. -1.
         -5    1    4    4    0  503 -0.11699457399E+02  0.30231420655E+02  0.11493247874E+02  0.34713122085E+02  0.47000000000E+01 0.  1.
<mgrwt>
<rscale>  0 0.96435872E+02</rscale>
<asrwt>0</asrwt>
<pdfrwt beam="1">  1        1 0.85815618E-02 0.96924867E+02</pdfrwt>
<pdfrwt beam="2">  1       -1 0.48973912E-01 0.96924867E+02</pdfrwt>
<totfact> 0.31821085E+03</totfact>
</mgrwt>
</event>
<event>
 8    1  0.2964543E-004  0.1065694E+03  0.7546771E-02  0.1268641E+00
         -1   -1    0    0    0  501 -0.00000000000E+00  0.00000000000E+00  0.33880249412E+03  0.33880249412E+03  0.00000000000E+00 0.  1.
          1   -1    0    0  501    0  0.00000000000E+00 -0.00000000000E+00 -0.39496350689E+02  0.39496350689E+02  0.00000000000E+00 0. -1.
         23    2    1    2    0    0  0.56667900306E+00 -0.63119053445E+02  0.23106156708E+03  0.25445331187E+03  0.85864451939E+02 0.  0.
         23    2    1    2    0    0 -0.56667900306E+00  0.63119053445E+02  0.68244576344E+02  0.12384553293E+03  0.81829443321E+02 0.  0.
          5    1    4    4  502    0  0.36550791267E+02  0.52554541737E+02  0.38026423911E+02  0.74605891958E+02  0.47000000000E+01 0. -1.
         -5    1    3    3    0  503  0.36686312662E+02 -0.57020430018E+02  0.12716626791E+03  0.14418933619E+03  0.47000000000E+01 0.  1.
          5    1    3    3  503    0 -0.36119633659E+02 -0.60986234277E+01  0.10389529917E+03  0.11026397568E+03  0.47000000000E+01 0. -1.
         -5    1    4    4    0  502 -0.37117470270E+02  0.10564511709E+02  0.30218152433E+02  0.49239640975E+02  0.47000000000E+01 0.  1.
<mgrwt>
<rscale>  0 0.10575425E+03</rscale>
<asrwt>0</asrwt>
<pdfrwt beam="1">  1        1 0.60763619E-02 0.10656941E+03</pdfrwt>
<pdfrwt beam="2">  1       -1 0.52123459E-01 0.10656941E+03</pdfrwt>
<totfact> 0.45355094E+03</totfact>
</mgrwt>
</event>
<event>
 8    1  0.2964543E-004  0.9499546E+02  0.7546771E-02  0.1292211E+00
          2   -1    0    0  501    0  0.00000000000E+00  0.00000000000E+00  0.31854857364E+02  0.31854857364E+02  0.00000000000E+00 0. -1.
         -2   -1    0    0    0  501 -0.00000000000E+00 -0.00000000000E+00 -0.27796687082E+03  0.27796687082E+03  0.00000000000E+00 0.  1.
         23    2    1    2    0    0  0.87413145977E+01 -0.19450223690E+02 -0.12046500360E+03  0.15230566996E+03  0.90721983162E+02 0.  0.
         23    2    1    2    0    0 -0.87413145977E+01  0.19450223690E+02 -0.12564700986E+03  0.15751605822E+03  0.92571138743E+02 0.  0.
          5    1    4    4  502    0 -0.44102481428E+02  0.26102114271E+02 -0.10187494837E+03  0.11413564011E+03  0.47000000000E+01 0. -1.
         -5    1    3    3    0  503  0.39373252038E+02 -0.35480763301E+02 -0.95772836242E+02  0.10956123266E+03  0.47000000000E+01 0.  1.
          5    1    3    3  503    0 -0.30631937440E+02  0.16030539611E+02 -0.24692167355E+02  0.42744437302E+02  0.47000000000E+01 0. -1.
         -5    1    4    4    0  502  0.35361166831E+02 -0.66518905811E+01 -0.23772061483E+02  0.43380418106E+02  0.47000000000E+01 0.  1.
<mgrwt>
<rscale>  0 0.94541963E+02</rscale>
<asrwt>0</asrwt>
<pdfrwt beam="1">  1        2 0.49007471E-02 0.94995460E+02</pdfrwt>
<pdfrwt beam="2">  1       -2 0.42764136E-01 0.94995460E+02</pdfrwt>
<totfact> 0.76918573E+03</totfact>
</mgrwt>
</event>
<event>
 8    1  0.2964543E-004  0.1106633E+03  0.7546771E-02  0.1259566E+00
         -1   -1    0    0    0  501 -0.00000000000E+00  0.00000000000E+00  0.41125354433E+02  0.41125354433E+02  0.00000000000E+00 0.  1.
          1   -1    0    0  501    0  0.00000000000E+00 -0.00000000000E+00 -0.30481219360E+03  0.30481219360E+03  0.00000000000E+00 0. -1.
         23    2    1    2    0    0 -0.62052502927E+02 -0.11673698737E+02 -0.10355895415E+03  0.15156125939E+03  0.90882176477E+02 0.  0.
         23    2    1    2    0    0  0.62052502927E+02  0.11673698737E+02 -0.16012788502E+03  0.19437628864E+03  0.90301792149E+02 0.  0.
          5    1    3    3  502    0  0.95646734408E+01  0.19578437203E+02 -0.55243160127E+02  0.59570923462E+02  0.47000000000E+01 0. -1.
         -5    1    3    3    0  502 -0.71617176368E+02 -0.31252135940E+02 -0.48315794020E+02  0.91990335924E+02  0.47000000000E+01 0.  1.
          5    1    4    4  503    0  0.54502250915E+02  0.38646506439E+02 -0.14991095114E+03  0.16419327358E+03  0.47000000000E+01 0. -1.
         -5    1    4    4    0  503  0.75502520122E+01 -0.26972807702E+02 -0.10216933872E+02  0.30183015067E+02  0.47000000000E+01 0.  1.
<mgrwt>
<rscale>  0 0.11054404E+03</rscale>
<asrwt>0</asrwt>
<pdfrwt beam="1">  1        1 0.46894184E-01 0.11066327E+03</pdfrwt>
<pdfrwt beam="2">  1       -1 0.63269776E-02 0.11066327E+03</pdfrwt>
<totfact> 0.98548589E+03</totfact>
</mgrwt>
</event>
<event>
 7    1  0.2964543E-004  0.1644028E+03  0.7546771E-02  0.1203595E+00
         -2   -1    0    0    0  501 -0.00000000000E+00  0.00000000000E+00  0.15655684314E+03  0.15655684314E+03  0.00000000000E+00 0.  1.
          2   -1    0    0  501    0  0.00000000000E+00 -0.00000000000E+00 -0.11895380051E+03  0.11895380051E+03  0.00000000000E+00 0. -1.
         23    2    1    2    0    0 -0.47095747536E+02  0.28286894023E+02  0.31288819472E+02  0.11098659309E+03  0.91218834743E+02 0.  0.
          5    1    3    3  502    0 -0.82398615489E+01 -0.30273014090E+02  0.24772147293E+02  0.40250465612E+02  0.47000000000E+01 0. -1.
         -5    1    3    3    0  502 -0.38855885987E+02  0.58559908113E+02  0.65166721789E+01  0.70736127476E+02  0.47000000000E+01 0.  1.
          5    1    1    2  503    0  0.14429869248E+02 -0.22622277812E+02 -0.73276575419E+02  0.78176307696E+02  0.47000000000E+01 0. -1.
         -5    1    1    2    0  503  0.32665878288E+02 -0.56646162106E+01  0.79590798569E+02  0.86347742865E+02  0.47000000000E+01 0.  1.
<mgrwt>
<rscale>  0 0.14748708E+03</rscale>
<asrwt>0</asrwt>
<pdfrwt beam="1">  1        2 0.18300585E-01 0.16440284E+03</pdfrwt>
<pdfrwt beam="2">  1       -2 0.24085668E-01 0.16440284E+03</pdfrwt>
<totfact> 0.45211605E+03</totfact>
</mgrwt>
</event>
<event>
 7    1  0.3897824E-004  0.1802994E+03  0.7546771E-02  0.1185467E+00
          2   -1    0    0  501    0  0.00000000000E+00  0.00000000000E+00  0.89687751326E+03  0.89687751326E+03  0.00000000000E+00 0. -1.
         -2   -1    0    0    0  501 -0.00000000000E+00 -0.00000000000E+00 -0.39198054963E+02  0.39198054963E+02  0.00000000000E+00 0.  1.
         23    2    1    2    0    0  0.48250402324E+01  0.78049791376E+02  0.97233572288E+02  0.15454769708E+03  0.91189758990E+02 0.  0.
          5    1    3    3  502    0  0.97923444995E+01  0.98209887941E+02  0.78652620120E+02  0.12629092110E+03  0.47000000000E+01 0. -1.
         -5    1    1    2    0  503 -0.13938445002E+02 -0.12314910248E+03  0.41920318596E+03  0.43716516651E+03  0.47000000000E+01 0.  1.
          5    1    1    2  503    0  0.91134047695E+01  0.45099311101E+02  0.34124270006E+03  0.34436270465E+03  0.47000000000E+01 0. -1.
         -5    1    3    3    0  502 -0.49673042671E+01 -0.20160096565E+02  0.18580952168E+02  0.28256775978E+02  0.47000000000E+01 0.  1.
<mgrwt>
<rscale>  0 0.16289446E+03</rscale>
<asrwt>0</asrwt>
<pdfrwt beam="1">  1        2 0.13798114E+00 0.18029938E+03</pdfrwt>
<pdfrwt beam="2">  1       -2 0.60304707E-02 0.18029938E+03</pdfrwt>
<totfact> 0.44185405E+03</totfact>
</mgrwt>
</event>
<event>
 8    1  0.2964543E-004  0.1099623E+03  0.7546771E-02  0.1261465E+00
         -1   -1    0    0    0  501 -0.00000000000E+00  0.00000000000E+00  0.11189887521E+03  0.11189887521E+03  0.00000000000E+00 0.  1.
          1   -1    0    0  501    0  0.00000000000E+00 -0.00000000000E+00 -0.11323239775E+03  0.11323239775E+03  0.00000000000E+00 0. -1.
         23    2    1    2    0    0  0.48504443380E+02 -0.33124605798E+02 -0.28453290654E+02  0.11187404859E+03  0.90864142882E+02 0.  0.
         23    2    1    2    0    0 -0.48504443380E+02  0.33124605798E+02  0.27119768113E+02  0.11325722437E+03  0.92961263511E+02 0.  0.
          5    1    4    4  502    0 -0.26289573060E+02 -0.21506688959E+02 -0.18117738416E+02  0.38781719495E+02  0.47000000000E+01 0. -1.
         -5    1    4    4    0  502 -0.22214870320E+02  0.54631294757E+02  0.45237506528E+02  0.74475504879E+02  0.47000000000E+01 0.  1.
          5    1    3    3  503    0  0.26094176094E+02 -0.61936960740E+02 -0.32585436073E+02  0.74839787385E+02  0.47000000000E+01 0. -1.
         -5    1    3    3    0  503  0.22410267286E+02  0.28812354942E+02  0.41321454189E+01  0.37034261204E+02  0.47000000000E+01 0.  1.
<mgrwt>
<rscale>  0 0.10951788E+03</rscale>
<asrwt>0</asrwt>
<pdfrwt beam="1">  1        1 0.17420369E-01 0.10996234E+03</pdfrwt>
<pdfrwt beam="2">  1       -1 0.17215211E-01 0.10996234E+03</pdfrwt>
<totfact> 0.73339465E+03</totfact>
</mgrwt>
</event>
<event>
 8    1  0.2964543E-004  0.9682042E+02  0.7546771E-02  0.1289214E+00
         -3   -1    0    0    0  501 -0.00000000000E+00  0.00000000000E+00  0.56458521526E+02  0.56458521526E+02  0.00000000000E+00 0.  1.
          3   -1    0    0  501    0  0.00000000000E+00 -0.00000000000E+00 -0.16343096629E+03  0.16343096629E+03  0.00000000000E+00 0. -1.
         23    2    1    2    0    0  0.13623989803E+02  0.66667546838E+00 -0.37942216833E+02  0.10398944993E+03  0.95854766833E+02 0.  0.
         23    2    1    2    0    0 -0.13623989803E+02 -0.66667546838E+00 -0.69030227932E+02  0.11590003788E+03  0.92095542015E+02 0.  0.
          5    1    3    3  502    0 -0.31035868078E+02 -0.25611079474E+02 -0.31990739684E+02  0.51620247236E+02  0.47000000000E+01 0. -1.
         -5    1    4    4    0  503  0.11884909181E+02 -0.34182274908E+02 -0.19396527924E+01  0.36544920811E+02  0.47000000000E+01 0.  1.
          5    1    4    4  503    0 -0.25508898984E+02  0.33515599440E+02 -0.67090575139E+02  0.79355117073E+02  0.47000000000E+01 0. -1.
         -5    1    3    3    0  502  0.44659857881E+02  0.26277754942E+02 -0.59514771485E+01  0.52369202696E+02  0.47000000000E+01 0.  1.
<mgrwt>
<rscale>  0 0.95876655E+02</rscale>
<asrwt>0</asrwt>
<pdfrwt beam="1">  1        3 0.25143225E-01 0.96820421E+02</pdfrwt>
<pdfrwt beam="2">  1       -3 0.86859265E-02 0.96820421E+02</pdfrwt>
<totfact> 0.29626226E+03</totfact>
</mgrwt>
</event>
<event>
 8    1  0.2964543E-004  0.1192686E+03  0.7546771E-02  0.1246067E+00
          1   -1    0    0  501    0  0.00000000000E+00  0.00000000000E+00  0.17196717060E+03  0.17196717060E+03  0.00000000000E+00 0. -1.
         -1   -1    0    0    0  501 -0.00000000000E+00 -0.00000000000E+00 -0.24813622517E+03  0.24813622517E+03  0.00000000000E+00 0.  1.
         23    2    1    2    0    0 -0.71841228098E+01 -0.71103084415E+02  0.13466513451E+03  0.17988803418E+03  0.95486889967E+02 0.  0.
         23    2    1    2    0    0  0.71841228098E+01  0.71103084415E+02 -0.21083418907E+03  0.24021536159E+03  0.90250232307E+02 0.  0.
          5    1    3    3  502    0 -0.40175573671E+02 -0.43683891644E+02  0.29981931738E+02  0.66658572890E+02  0.47000000000E+01 0. -1.
         -5    1    4    4    0  503 -0.25069974071E+02 -0.44484013738E+01 -0.92711672969E+02  0.96259213478E+02  0.47000000000E+01 0.  1.
          5    1    4    4  503    0  0.32254096881E+02  0.75551485789E+02 -0.11812251610E+03  0.14395614811E+03  0.47000000000E+01 0. -1.
         -5    1    3    3    0  502  0.32991450862E+02 -0.27419192771E+02  0.10468320277E+03  0.11322946129E+03  0.47000000000E+01 0.  1.
<mgrwt>
<rscale>  0 0.11821739E+03</rscale>
<asrwt>0</asrwt>
<pdfrwt beam="1">  1        1 0.26456488E-01 0.11926863E+03</pdfrwt>
<pdfrwt beam="2">  1       -1 0.38174804E-01 0.11926863E+03</pdfrwt>
<totfact> 0.11738872E+03</totfact>
</mgrwt>
</event>
<event>
 8    1  0.2964543E-004  0.1784796E+03  0.7546771E-02  0.1169393E+00
         -1   -1    0    0    0  501 -0.00000000000E+00  0.00000000000E+00  0.15322592609E+03  0.15322592609E+03  0.00000000000E+00 0.  1.
          1   -1    0    0  501    0  0.00000000000E+00 -0.00000000000E+00 -0.22238240211E+03  0.22238240211E+03  0.00000000000E+00 0. -1.
         23    2    1    2    0    0  0.99216402933E+02  0.11640732439E+03  0.14253407879E+02  0.17860028428E+03  0.91106213430E+02 0.  0.
         23    2    1    2    0    0 -0.99216402933E+02 -0.11640732439E+03 -0.83409883903E+02  0.19700804392E+03  0.91980437345E+02 0.  0.
          5    1    3    3  502    0  0.23827174275E+02  0.89777210624E+02 -0.13193987822E+02  0.93935366588E+02  0.47000000000E+01 0. -1.
         -5    1    4    4    0  503 -0.60386633537E+02 -0.38463015023E+02  0.61382771620E+01  0.72011925965E+02  0.47000000000E+01 0.  1.
          5    1    4    4  503    0 -0.38829769395E+02 -0.77944309367E+02 -0.89548161065E+02  0.12499611796E+03  0.47000000000E+01 0. -1.
         -5    1    3    3    0  502  0.75389228657E+02  0.26630113766E+02  0.27447395701E+02  0.84664917691E+02  0.47000000000E+01 0.  1.
<mgrwt>
<rscale>  0 0.17836723E+03</rscale>
<asrwt>0</asrwt>
<pdfrwt beam="1">  1        1 0.34212677E-01 0.17847958E+03</pdfrwt>
<pdfrwt beam="2">  1       -1 0.23573219E-01 0.17847958E+03</pdfrwt>
<totfact> 0.19412716E+03</totfact>
</mgrwt>
</event>
<event>
 8    1  0.2964543E-004  0.1309792E+03  0.7546771E-02  0.1226031E+00
         -1   -1    0    0    0  501 -0.00000000000E+00  0.00000000000E+00  0.34800909854E+02  0.34800909854E+02  0.00000000000E+00 0.  1.
          1   -1    0    0  501    0  0.00000000000E+00 -0.00000000000E+00 -0.56938940766E+03  0.56938940766E+03  0.00000000000E+00 0. -1.
         23    2    1    2    0    0  0.70230694997E+02 -0.63990406428E+02 -0.37807518343E+03  0.40010218396E+03  0.90076582109E+02 0.  0.
         23    2    1    2    0    0 -0.70230694997E+02  0.63990406428E+02 -0.15651331437E+03  0.20408813356E+03  0.90157784181E+02 0.  0.
          5    1    3    3  502    0  0.57556516487E+02 -0.19113718700E+02 -0.31872401732E+03  0.32447677274E+03  0.47000000000E+01 0. -1.
         -5    1    4    4    0  503 -0.27791390654E+02  0.77192051317E+02 -0.12424871940E+03  0.14896579626E+03  0.47000000000E+01 0.  1.
          5    1    4    4  503    0 -0.42439304343E+02 -0.13201644889E+02 -0.32264594968E+02  0.55122337300E+02  0.47000000000E+01 0. -1.
         -5    1    3    3    0  502  0.12674178510E+02 -0.44876687728E+02 -0.59351166113E+02  0.75625411214E+02  0.47000000000E+01 0.  1.
<mgrwt>
<rscale>  0 0.13096522E+03</rscale>
<asrwt>0</asrwt>
<pdfrwt beam="1">  1        1 0.87598368E-01 0.13097919E+03</pdfrwt>
<pdfrwt beam="2">  1       -1 0.53539863E-02 0.13097919E+03</pdfrwt>
<totfact> 0.57758308E+03</totfact>
</mgrwt>
</event>
<event>
 8    1  0.2964543E-004  0.1674032E+03  0.7546771E-02  0.1181245E+00
          2   -1    0    0  501    0  0.00000000000E+00  0.00000000000E+00  0.82275816348E+03  0.82275816348E+03  0.00000000000E+00 0. -1.
         -2   -1    0    0    0  501 -0.00000000000E+00 -0.00000000000E+00 -0.12219533503E+03  0.12219533503E+03  0.00000000000E+00 0.  1.
         23    2    1    2    0    0 -0.66321051812E+02  0.12057230321E+03 -0.51398474100E+02  0.17511601602E+03  0.95329186036E+02 0.  0.
         23    2    1    2    0    0  0.66321051812E+02 -0.12057230321E+03  0.75196130255E+03  0.76983748250E+03  0.90927370467E+02 0.  0.
          5    1    4    4  502    0  0.40846490417E+02 -0.85976220669E+02  0.67394244984E+03  0.68064738447E+03  0.47000000000E+01 0. -1.
         -5    1    4    4    0  502  0.25474561395E+02 -0.34596082543E+02  0.78018852719E+02  0.89190098022E+02  0.47000000000E+01 0.  1.
          5    1    3    3  503    0 -0.89793220672E+01  0.10521473964E+03 -0.46148263977E+02  0.11533655938E+03  0.47000000000E+01 0. -1.
         -5    1    3    3    0  503 -0.57341729745E+02  0.15357563572E+02 -0.52502101233E+01  0.59779456633E+02  0.47000000000E+01 0.  1.
<mgrwt>
<rscale>  0 0.16678298E+03</rscale>
<asrwt>0</asrwt>
<pdfrwt beam="1">  1        2 0.12657818E+00 0.16740315E+03</pdfrwt>
<pdfrwt beam="2">  1       -2 0.18799283E-01 0.16740315E+03</pdfrwt>
<totfact> 0.80502775E+02</totfact>
</mgrwt>
</event>
<event>
 8    1  0.2964543E-004  0.1595143E+03  0.7546771E-02  0.1189566E+00
          1   -1    0    0  501    0  0.00000000000E+00  0.00000000000E+00  0.60520253656E+03  0.60520253656E+03  0.00000000000E+00 0. -1.
         -1   -1    0    0    0  501 -0.00000000000E+00 -0.00000000000E+00 -0.68188866911E+02  0.68188866911E+02  0.00000000000E+00 0.  1.
         23    2    1    2    0    0 -0.13130360314E+02 -0.12941637295E+03  0.58264329837E+02  0.16876703400E+03  0.90369108026E+02 0.  0.
         23    2    1    2    0    0  0.13130360314E+02  0.12941637295E+03  0.47874933981E+03  0.50462436947E+03  0.92324535965E+02 0.  0.
          5    1    3    3  502    0  0.23683720556E+02 -0.10854306705E+03  0.59608661972E+02  0.12616575846E+03  0.47000000000E+01 0. -1.
         -5    1    3    3    0  502 -0.36814080870E+02 -0.20873305896E+02 -0.13443321349E+01  0.42601275546E+02  0.47000000000E+01 0.  1.
          5    1    4    4  503    0  0.34421283122E+02  0.58063206261E+02  0.34406522633E+03  0.35065528746E+03  0.47000000000E+01 0. -1.
         -5    1    4    4    0  503 -0.21290922808E+02  0.71353166688E+02  0.13468411348E+03  0.15396908201E+03  0.47000000000E+01 0.  1.
<mgrwt>
<rscale>  0 0.15923266E+03</rscale>
<asrwt>0</asrwt>
<pdfrwt beam="1">  1        1 0.93108079E-01 0.15951434E+03</pdfrwt>
<pdfrwt beam="2">  1       -1 0.10490595E-01 0.15951434E+03</pdfrwt>
<totfact> 0.19438347E+03</totfact>
</mgrwt>
</event>
<event>
 8    1  0.2964543E-004  0.1000908E+03  0.7546771E-02  0.1291196E+00
          1   -1    0    0  501    0  0.00000000000E+00  0.00000000000E+00  0.26094457841E+03  0.26094457841E+03  0.00000000000E+00 0. -1.
         -1   -1    0    0    0  501 -0.00000000000E+00 -0.00000000000E+00 -0.67882343640E+02  0.67882343640E+02  0.00000000000E+00 0.  1.
         23    2    1    2    0    0  0.31472594782E+02  0.79320962085E+01 -0.18886246246E+02  0.10185706104E+03  0.94682248669E+02 0.  0.
         23    2    1    2    0    0 -0.31472594782E+02 -0.79320962085E+01  0.21194848102E+03  0.22696986101E+03  0.74429274019E+02 0.  0.
          5    1    4    4  502    0 -0.55442920588E+02 -0.93806926767E+00  0.15156275608E+03  0.16145636082E+03  0.47000000000E+01 0. -1.
         -5    1    3    3    0  503 -0.13229636329E+02  0.38486770159E+02 -0.23640273089E+02  0.47299125429E+02  0.47000000000E+01 0.  1.
          5    1    3    3  503    0  0.44702231110E+02 -0.30554673951E+02  0.47540268430E+01  0.54557935607E+02  0.47000000000E+01 0. -1.
         -5    1    4    4    0  502  0.23970325807E+02 -0.69940269408E+01  0.60385724932E+02  0.65513500194E+02  0.47000000000E+01 0.  1.
<mgrwt>
<rscale>  0 0.94990977E+02</rscale>
<asrwt>0</asrwt>
<pdfrwt beam="1">  1        1 0.40145319E-01 0.10009081E+03</pdfrwt>
<pdfrwt beam="2">  1       -1 0.10443438E-01 0.10009081E+03</pdfrwt>
<totfact> 0.55793697E+03</totfact>
</mgrwt>
</event>
<event>
 7    1  0.2964543E-004  0.3122771E+03  0.7546771E-02  0.1085163E+00
          1   -1    0    0  501    0  0.00000000000E+00  0.00000000000E+00  0.25792056625E+04  0.25792056625E+04  0.00000000000E+00 0. -1.
         -1   -1    0    0    0  501 -0.00000000000E+00 -0.00000000000E+00 -0.71211154993E+02  0.71211154993E+02  0.00000000000E+00 0.  1.
         23    2    1    2    0    0 -0.12339248983E+03  0.21731602956E+03  0.23279995637E+03  0.35389178136E+03  0.92690937960E+02 0.  0.
          5    1    1    2  502    0  0.11601257499E+03 -0.23808685446E+03  0.22332855332E+04  0.22489398904E+04  0.47000000000E+01 0. -1.
         -5    1    3    3    0  503  0.10491296841E+02  0.27324098851E+02  0.84665750558E+01  0.30829313658E+02  0.47000000000E+01 0.  1.
          5    1    3    3  503    0 -0.13388378667E+03  0.18999193071E+03  0.22433338131E+03  0.32306246770E+03  0.47000000000E+01 0. -1.
         -5    1    1    2    0  502  0.73799148375E+01  0.20770824903E+02  0.41909017943E+02  0.47585145740E+02  0.47000000000E+01 0.  1.
<mgrwt>
<rscale>  0 0.30015509E+03</rscale>
<asrwt>0</asrwt>
<pdfrwt beam="1">  1        1 0.39680080E+00 0.31227711E+03</pdfrwt>
<pdfrwt beam="2">  1       -1 0.10955564E-01 0.31227711E+03</pdfrwt>
<totfact> 0.73486907E+01</totfact>
</mgrwt>
</event>
<event>
 8    1  0.2964543E-004  0.9405352E+02  0.7546771E-02  0.1300423E+00
          1   -1    0    0  501    0  0.00000000000E+00  0.00000000000E+00  0.20787364159E+02  0.20787364159E+02  0.00000000000E+00 0. -1.
         -1   -1    0    0    0  501 -0.00000000000E+00 -0.00000000000E+00 -0.55602296074E+03  0.55602296074E+03  0.00000000000E+00 0.  1.
         23    2    1    2    0    0  0.90989867577E+01  0.21487035227E+02 -0.44391481185E+03  0.45376913189E+03  0.91113010239E+02 0.  0.
         23    2    1    2    0    0 -0.90989867577E+01 -0.21487035227E+02 -0.91320784730E+02  0.12304119301E+03  0.79089602414E+02 0.  0.
          5    1    4    4  502    0  0.23670751618E+02 -0.36791878887E+02 -0.36357940540E+02  0.57078338049E+02  0.47000000000E+01 0. -1.
         -5    1    4    4    0  502 -0.32769738376E+02  0.15304843660E+02 -0.54962844191E+02  0.65962854958E+02  0.47000000000E+01 0.  1.
          5    1    3    3  503    0 -0.39593363046E+02  0.10904366425E+02 -0.25539770742E+03  0.25872112121E+03  0.47000000000E+01 0.  1.
         -5    1    3    3    0  503  0.48692349804E+02  0.10582668802E+02 -0.18851710443E+03  0.19504801068E+03  0.47000000000E+01 0. -1.
<mgrwt>
<rscale>  0 0.91010628E+02</rscale>
<asrwt>0</asrwt>
<pdfrwt beam="1">  1        1 0.31980560E-02 0.94053521E+02</pdfrwt>
<pdfrwt beam="2">  1       -1 0.85541994E-01 0.94053521E+02</pdfrwt>
<totfact> 0.41145261E+03</totfact>
</mgrwt>
</event>
<event>
 8    1  0.2964543E-004  0.1319250E+03  0.7546771E-02  0.1224784E+00
         -1   -1    0    0    0  501 -0.00000000000E+00  0.00000000000E+00  0.10209216199E+03  0.10209216199E+03  0.00000000000E+00 0.  1.
          1   -1    0    0  501    0  0.00000000000E+00 -0.00000000000E+00 -0.20755465998E+03  0.20755465998E+03  0.00000000000E+00 0. -1.
         23    2    1    2    0    0  0.46657297182E+02  0.83004734347E+02 -0.11872832328E+03  0.17748415767E+03  0.91310033245E+02 0.  0.
         23    2    1    2    0    0 -0.46657297182E+02 -0.83004734347E+02  0.13265825293E+02  0.13216266429E+03  0.90687917645E+02 0.  0.
          5    1    3    3  502    0  0.57235905009E+02  0.23739924035E+02 -0.92990704323E+02  0.11184316656E+03  0.47000000000E+01 0. -1.
         -5    1    3    3    0  502 -0.10578607827E+02  0.59264810312E+02 -0.25737618960E+02  0.65640991115E+02  0.47000000000E+01 0.  1.
          5    1    4    4  503    0  0.10964797332E+02 -0.70700245309E+02  0.54872787128E+00  0.71701761272E+02  0.47000000000E+01 0. -1.
         -5    1    4    4    0  503 -0.57622094514E+02 -0.12304489038E+02  0.12717097422E+02  0.60460903016E+02  0.47000000000E+01 0.  1.
<mgrwt>
<rscale>  0 0.13181744E+03</rscale>
<asrwt>0</asrwt>
<pdfrwt beam="1">  1        1 0.31931486E-01 0.13192502E+03</pdfrwt>
<pdfrwt beam="2">  1       -1 0.15706487E-01 0.13192502E+03</pdfrwt>
<totfact> 0.40082398E+03</totfact>
</mgrwt>
</event>
<event>
 8    1  0.2964543E-004  0.9712432E+02  0.7546771E-02  0.1289115E+00
         -4   -1    0    0    0  501 -0.00000000000E+00  0.00000000000E+00  0.29171964992E+02  0.29171964992E+02  0.00000000000E+00 0.  1.
          4   -1    0    0  501    0  0.00000000000E+00 -0.00000000000E+00 -0.36991930448E+03  0.36991930448E+03  0.00000000000E+00 0. -1.
         23    2    1    2    0    0 -0.21928700888E+02  0.44823834560E+01 -0.92173584872E+02  0.13389959906E+03  0.94510175094E+02 0.  0.
         23    2    1    2    0    0  0.21928700888E+02 -0.44823834560E+01 -0.24857375462E+03  0.26519167042E+03  0.89647927404E+02 0.  0.
          5    1    4    4  502    0 -0.23947208481E+02 -0.30167936011E+02 -0.88323806395E+02  0.96471539499E+02  0.47000000000E+01 0. -1.
         -5    1    3    3    0  503 -0.43484446574E+02  0.30622274687E+02 -0.25951158090E+02  0.59364748859E+02  0.47000000000E+01 0.  1.
          5    1    3    3  503    0  0.21555745687E+02 -0.26139891231E+02 -0.66222426782E+02  0.74534850201E+02  0.47000000000E+01 0. -1.
         -5    1    4    4    0  502  0.45875909368E+02  0.25685552555E+02 -0.16024994823E+03  0.16872013092E+03  0.47000000000E+01 0.  1.
<mgrwt>
<rscale>  0 0.95920992E+02</rscale>
<asrwt>0</asrwt>
<pdfrwt beam="1">  1        4 0.56910662E-01 0.97124317E+02</pdfrwt>
<pdfrwt beam="2">  1       -4 0.44879947E-02 0.97124317E+02</pdfrwt>
<totfact> 0.12870269E+03</totfact>
</mgrwt>
</event>
<event>
 8    1  0.2964543E-004  0.1121473E+03  0.7546771E-02  0.1256838E+00
          3   -1    0    0  501    0  0.00000000000E+00  0.00000000000E+00  0.38752215281E+03  0.38752215281E+03  0.00000000000E+00 0. -1.
         -3   -1    0    0    0  501 -0.00000000000E+00 -0.00000000000E+00 -0.56760155271E+02  0.56760155271E+02  0.00000000000E+00 0.  1.
         23    2    1    2    0    0  0.80797900596E+01 -0.65586187658E+02  0.19827113328E+02  0.11388643552E+03  0.90610014637E+02 0.  0.
         23    2    1    2    0    0 -0.80797900596E+01  0.65586187658E+02  0.31093488422E+03  0.33039587257E+03  0.90078295775E+02 0.  0.
          5    1    4    4  502    0 -0.14866237264E+02  0.40313082114E+02  0.29746949804E+03  0.30059331640E+03  0.47000000000E+01 0. -1.
         -5    1    4    4    0  502  0.67864472047E+01  0.25273105544E+02  0.13465386179E+02  0.29802556173E+02  0.47000000000E+01 0.  1.
          5    1    3    3  503    0  0.21874148992E+02  0.12474943701E+02  0.22981148038E+02  0.34414034631E+02  0.47000000000E+01 0. -1.
         -5    1    3    3    0  503 -0.13794358932E+02 -0.78061131358E+02 -0.31540347106E+01  0.79472400884E+02  0.47000000000E+01 0.  1.
<mgrwt>
<rscale>  0 0.11203980E+03</rscale>
<asrwt>0</asrwt>
<pdfrwt beam="1">  1        3 0.59618791E-01 0.11214725E+03</pdfrwt>
<pdfrwt beam="2">  1       -3 0.87323318E-02 0.11214725E+03</pdfrwt>
<totfact> 0.58004645E+02</totfact>
</mgrwt>
</event>
<event>
 8    1  0.2964543E-004  0.9236529E+02  0.7546771E-02  0.1298543E+00
         -1   -1    0    0    0  501 -0.00000000000E+00  0.00000000000E+00  0.41628888907E+02  0.41628888907E+02  0.00000000000E+00 0.  1.
          1   -1    0    0  501    0  0.00000000000E+00 -0.00000000000E+00 -0.30844322025E+03  0.30844322025E+03  0.00000000000E+00 0. -1.
         23    2    1    2    0    0 -0.12688367650E+02  0.14975922740E+02 -0.23823262181E+03  0.25551150466E+03  0.90255603608E+02 0.  0.
         23    2    1    2    0    0  0.12688367650E+02 -0.14975922740E+02 -0.28581709526E+02  0.94560604493E+02  0.87974546700E+02 0.  0.
          5    1    4    4  502    0 -0.32676254299E+02 -0.26872359825E+02 -0.89255499812E+01  0.43492720770E+02  0.47000000000E+01 0. -1.
         -5    1    3    3    0  503 -0.27781347676E+02  0.47081546480E+02 -0.11932569608E+03  0.13133616045E+03  0.47000000000E+01 0.  1.
          5    1    3    3  503    0  0.15092980026E+02 -0.32105623739E+02 -0.11890692574E+03  0.12417534421E+03  0.47000000000E+01 0. -1.
         -5    1    4    4    0  502  0.45364621949E+02  0.11896437084E+02 -0.19656159545E+02  0.51067883722E+02  0.47000000000E+01 0.  1.
<mgrwt>
<rscale>  0 0.91803269E+02</rscale>
<asrwt>0</asrwt>
<pdfrwt beam="1">  1        1 0.47452802E-01 0.92365291E+02</pdfrwt>
<pdfrwt beam="2">  1       -1 0.64044447E-02 0.92365291E+02</pdfrwt>
<totfact> 0.93978978E+03</totfact>
</mgrwt>
</event>
<event>
 8    1  0.2964543E-004  0.2435310E+03  0.7546771E-02  0.1117479E+00
         -2   -1    0    0    0  501 -0.00000000000E+00  0.00000000000E+00  0.77636623826E+02  0.77636623826E+02  0.00000000000E+00 0.  1.
          2   -1    0    0  501    0  0.00000000000E+00 -0.00000000000E+00 -0.92671745961E+03  0.92671745961E+03  0.00000000000E+00 0. -1.
         23    2    1    2    0    0  0.15674597552E+03  0.16327008712E+03 -0.63515779140E+03  0.68020841259E+03  0.89619430901E+02 0.  0.
         23    2    1    2    0    0 -0.15674597552E+03 -0.16327008712E+03 -0.21392304439E+03  0.32414567085E+03  0.89893964317E+02 0.  0.
          5    1    4    4  502    0 -0.81665849091E+01 -0.63852809182E+02 -0.61857441640E+02  0.89399706016E+02  0.47000000000E+01 0. -1.
         -5    1    4    4    0  502 -0.14857939061E+03 -0.99417277939E+02 -0.15206560275E+03  0.23474596484E+03  0.47000000000E+01 0.  1.
          5    1    3    3  503    0  0.84083500713E+02  0.53558124603E+02 -0.38238645636E+03  0.39519615359E+03  0.47000000000E+01 0. -1.
         -5    1    3    3    0  503  0.72662474805E+02  0.10971196252E+03 -0.25277133503E+03  0.28501225900E+03  0.47000000000E+01 0.  1.
<mgrwt>
<rscale>  0 0.24350569E+03</rscale>
<asrwt>0</asrwt>
<pdfrwt beam="1">  1        2 0.14257191E+00 0.24353100E+03</pdfrwt>
<pdfrwt beam="2">  1       -2 0.11944096E-01 0.24353100E+03</pdfrwt>
<totfact> 0.14546438E+03</totfact>
</mgrwt>
</event>
<event>
 8    1  0.2964543E-004  0.1116413E+03  0.7546771E-02  0.1262673E+00
         -1   -1    0    0    0  501 -0.00000000000E+00  0.00000000000E+00  0.38031944450E+03  0.38031944450E+03  0.00000000000E+00 0.  1.
          1   -1    0    0  501    0  0.00000000000E+00 -0.00000000000E+00 -0.30879626855E+02  0.30879626855E+02  0.00000000000E+00 0. -1.
         23    2    1    2    0    0 -0.17397478214E+02  0.37717345932E+02  0.22305763933E+03  0.24943635971E+03  0.10362681433E+03 0.  0.
         23    2    1    2    0    0  0.17397478214E+02 -0.37717345932E+02  0.12638217832E+03  0.16176271165E+03  0.92029611819E+02 0.  0.
          5    1    3    3  502    0  0.42907420151E+02  0.68342692073E+01  0.89864849329E+02  0.99927649250E+02  0.47000000000E+01 0. -1.
         -5    1    4    4    0  503 -0.49980243313E+01 -0.59567568072E+02  0.11192857660E+03  0.12697783930E+03  0.47000000000E+01 0.  1.
          5    1    4    4  503    0  0.22395502545E+02  0.21850222140E+02  0.14453601716E+02  0.34784872350E+02  0.47000000000E+01 0. -1.
         -5    1    3    3    0  502 -0.60304898364E+02  0.30883076725E+02  0.13319279000E+03  0.14950871046E+03  0.47000000000E+01 0.  1.
<mgrwt>
<rscale>  0 0.10887187E+03</rscale>
<asrwt>0</asrwt>
<pdfrwt beam="1">  1        1 0.47507121E-02 0.11164133E+03</pdfrwt>
<pdfrwt beam="2">  1       -1 0.58510681E-01 0.11164133E+03</pdfrwt>
<totfact> 0.51271057E+03</totfact>
</mgrwt>
</event>
<event>
 8    1  0.2964543E-004  0.9601461E+02  0.7546771E-02  0.1290251E+00
         -2   -1    0    0    0  501 -0.00000000000E+00  0.00000000000E+00  0.13829347891E+02  0.13829347891E+02  0.00000000000E+00 0.  1.
          2   -1    0    0  501    0  0.00000000000E+00 -0.00000000000E+00 -0.72106281517E+03  0.72106281517E+03  0.00000000000E+00 0. -1.
         23    2    1    2    0    0  0.10217313918E+01 -0.28657771271E+02 -0.23436835501E+03  0.25237768691E+03  0.89127208146E+02 0.  0.
         23    2    1    2    0    0 -0.10217313918E+01  0.28657771271E+02 -0.47286511227E+03  0.48251447615E+03  0.91632382387E+02 0.  0.
          5    1    3    3  502    0  0.11761033892E+02  0.30641170715E+02 -0.80268129611E+02  0.86846219793E+02  0.47000000000E+01 0. -1.
         -5    1    4    4    0  503 -0.34400661940E+02  0.41784282527E+02 -0.19944080592E+03  0.20670766042E+03  0.47000000000E+01 0.  1.
          5    1    4    4  503    0  0.33378930548E+02 -0.13126511257E+02 -0.27342430635E+03  0.27580681574E+03  0.47000000000E+01 0. -1.
         -5    1    3    3    0  502 -0.10739302500E+02 -0.59298941986E+02 -0.15410022540E+03  0.16553146712E+03  0.47000000000E+01 0.  1.
<mgrwt>
<rscale>  0 0.95411999E+02</rscale>
<asrwt>0</asrwt>
<pdfrwt beam="1">  1        2 0.11093276E+00 0.96014610E+02</pdfrwt>
<pdfrwt beam="2">  1       -2 0.21275916E-02 0.96014610E+02</pdfrwt>
<totfact> 0.26036577E+04</totfact>
</mgrwt>
</event>
<event>
 8    1  0.2964543E-004  0.1023899E+03  0.7546771E-02  0.1275589E+00
         -2   -1    0    0    0  501 -0.00000000000E+00  0.00000000000E+00  0.80631446355E+02  0.80631446355E+02  0.00000000000E+00 0.  1.
          2   -1    0    0  501    0  0.00000000000E+00 -0.00000000000E+00 -0.14974426088E+03  0.14974426088E+03  0.00000000000E+00 0. -1.
         23    2    1    2    0    0 -0.48170317172E+02  0.14128985446E+01  0.78059502975E+01  0.10268700932E+03  0.90339987179E+02 0.  0.
         23    2    1    2    0    0  0.48170317172E+02 -0.14128985446E+01 -0.76918764822E+02  0.12768869792E+03  0.89808303934E+02 0.  0.
          5    1    4    4  502    0  0.29919378413E+02 -0.39816940748E+02 -0.67273983417E+02  0.83835772913E+02  0.47000000000E+01 0. -1.
         -5    1    3    3    0  503  0.21300292455E+02  0.18789125046E+02 -0.64908977293E+01  0.29511954053E+02  0.47000000000E+01 0.  1.
          5    1    3    3  503    0 -0.69470609627E+02 -0.17376226502E+02  0.14296848027E+02  0.73175055264E+02  0.47000000000E+01 0. -1.
         -5    1    4    4    0  502  0.18250938758E+02  0.38404042203E+02 -0.96447814048E+01  0.43852925005E+02  0.47000000000E+01 0.  1.
<mgrwt>
<rscale>  0 0.10227248E+03</rscale>
<asrwt>0</asrwt>
<pdfrwt beam="1">  1        2 0.23037579E-01 0.10238989E+03</pdfrwt>
<pdfrwt beam="2">  1       -2 0.12404838E-01 0.10238989E+03</pdfrwt>
<totfact> 0.10153711E+04</totfact>
</mgrwt>
</event>
<event>
 8    1  0.2964543E-004  0.1782354E+03  0.7546771E-02  0.1170439E+00
         -2   -1    0    0    0  501 -0.00000000000E+00  0.00000000000E+00  0.51226689394E+03  0.51226689394E+03  0.00000000000E+00 0.  1.
          2   -1    0    0  501    0  0.00000000000E+00 -0.00000000000E+00 -0.69482025145E+02  0.69482025145E+02  0.00000000000E+00 0. -1.
         23    2    1    2    0    0  0.16073323863E+02  0.14966998575E+03  0.32662670074E+03  0.37209255566E+03  0.95438000633E+02 0.  0.
         23    2    1    2    0    0 -0.16073323863E+02 -0.14966998575E+03  0.11615816805E+03  0.20965636343E+03  0.88338068503E+02 0.  0.
          5    1    4    4  502    0  0.32694422279E+02 -0.82920815814E+02  0.77791859450E+02  0.11839953691E+03  0.47000000000E+01 0. -1.
         -5    1    4    4    0  502 -0.48767746142E+02 -0.66749169932E+02  0.38366308600E+02  0.91256826517E+02  0.47000000000E+01 0.  1.
          5    1    3    3  503    0  0.15516198590E+02  0.11613444429E+03  0.31527103664E+03  0.33637163691E+03  0.47000000000E+01 0. -1.
         -5    1    3    3    0  503  0.55712527346E+00  0.33535541455E+02  0.11355664099E+02  0.35720918750E+02  0.47000000000E+01 0.  1.
<mgrwt>
<rscale>  0 0.17730347E+03</rscale>
<asrwt>0</asrwt>
<pdfrwt beam="1">  1        2 0.10689543E-01 0.17823543E+03</pdfrwt>
<pdfrwt beam="2">  1       -2 0.78810289E-01 0.17823543E+03</pdfrwt>
<totfact> 0.85770755E+02</totfact>
</mgrwt>
</event>
<event>
 8    1  0.2964543E-004  0.1021862E+03  0.7546771E-02  0.1276613E+00
          2   -1    0    0  501    0  0.00000000000E+00  0.00000000000E+00  0.89796903502E+02  0.89796903502E+02  0.00000000000E+00 0. -1.
         -2   -1    0    0    0  501 -0.00000000000E+00 -0.00000000000E+00 -0.11834039277E+03  0.11834039277E+03  0.00000000000E+00 0.  1.
         23    2    1    2    0    0 -0.35989962027E+02 -0.31341701216E+02  0.47844549734E+01  0.10065346479E+03  0.88490956391E+02 0.  0.
         23    2    1    2    0    0  0.35989962027E+02  0.31341701216E+02 -0.33327944236E+02  0.10748383148E+03  0.90357304963E+02 0.  0.
          5    1    4    4  502    0  0.25067791704E+02 -0.55067265724E+01  0.25872960080E+02  0.36745316460E+02  0.47000000000E+01 0. -1.
         -5    1    3    3    0  503 -0.39670696904E+02 -0.59163070073E+02 -0.19460757247E+01  0.71413656005E+02  0.47000000000E+01 0.  1.
          5    1    3    3  503    0  0.36807348763E+01  0.27821368857E+02  0.67305306981E+01  0.29239808785E+02  0.47000000000E+01 0. -1.
         -5    1    4    4    0  502  0.10922170323E+02  0.36848427788E+02 -0.59200904316E+02  0.70738515017E+02  0.47000000000E+01 0.  1.
<mgrwt>
<rscale>  0 0.10177207E+03</rscale>
<asrwt>0</asrwt>
<pdfrwt beam="1">  1        2 0.13814908E-01 0.10218621E+03</pdfrwt>
<pdfrwt beam="2">  1       -2 0.18206214E-01 0.10218621E+03</pdfrwt>
<totfact> 0.97381841E+03</totfact>
</mgrwt>
</event>
<event>
 8    1  0.2964543E-004  0.9900064E+02  0.7546771E-02  0.1283302E+00
         -1   -1    0    0    0  501 -0.00000000000E+00  0.00000000000E+00  0.82057624639E+01  0.82057624639E+01  0.00000000000E+00 0.  1.
          1   -1    0    0  501    0  0.00000000000E+00 -0.00000000000E+00 -0.12948964254E+04  0.12948964254E+04  0.00000000000E+00 0. -1.
         23    2    1    2    0    0 -0.15830298122E+02 -0.34267637167E+02 -0.43977239033E+03  0.45041720055E+03  0.89727531771E+02 0.  0.
         23    2    1    2    0    0  0.15830298122E+02  0.34267637167E+02 -0.84691827260E+03  0.85268498731E+03  0.91521898055E+02 0.  0.
          5    1    4    4  502    0 -0.37362637835E+02  0.47528086835E+01 -0.33521055057E+03  0.33735257389E+03  0.47000000000E+01 0. -1.
         -5    1    3    3    0  503  0.28157054048E+02  0.14040098304E+02 -0.13865335434E+03  0.14225606041E+03  0.47000000000E+01 0.  1.
          5    1    3    3  503    0 -0.43987352169E+02 -0.48307735471E+02 -0.30111903599E+03  0.30816114014E+03  0.47000000000E+01 0. -1.
         -5    1    4    4    0  502  0.53192935957E+02  0.29514828484E+02 -0.51170772204E+03  0.51533241343E+03  0.47000000000E+01 0.  1.
<mgrwt>
<rscale>  0 0.98583915E+02</rscale>
<asrwt>0</asrwt>
<pdfrwt beam="1">  1        1 0.19921479E+00 0.99000642E+02</pdfrwt>
<pdfrwt beam="2">  1       -1 0.12624253E-02 0.99000642E+02</pdfrwt>
<totfact> 0.12506905E+04</totfact>
</mgrwt>
</event>
<event>
 7    1  0.2964543E-004  0.1886452E+03  0.7546771E-02  0.1173833E+00
          1   -1    0    0  501    0  0.00000000000E+00  0.00000000000E+00  0.30576932311E+03  0.30576932311E+03  0.00000000000E+00 0. -1.
         -1   -1    0    0    0  501 -0.00000000000E+00 -0.00000000000E+00 -0.99924798257E+02  0.99924798257E+02  0.00000000000E+00 0.  1.
         23    2    1    2    0    0  0.78630995552E+02 -0.66535832160E+02  0.16263066375E+03  0.21216260683E+03  0.89187378719E+02 0.  0.
          5    1    3    3  502    0  0.21241265289E+02  0.24898729311E+01  0.10057944846E+03  0.10293544710E+03  0.47000000000E+01 0. -1.
         -5    1    3    3    0  502  0.57389730263E+02 -0.69025705091E+02  0.62051215292E+02  0.10922715973E+03  0.47000000000E+01 0.  1.
          5    1    1    2  503    0 -0.91747418905E+02  0.40720674979E+02  0.92236748181E+02  0.13640186935E+03  0.47000000000E+01 0. -1.
         -5    1    1    2    0  503  0.13116423353E+02  0.25815157181E+02 -0.49022887078E+02  0.57129645188E+02  0.47000000000E+01 0.  1.
<mgrwt>
<rscale>  0 0.17390776E+03</rscale>
<asrwt>0</asrwt>
<pdfrwt beam="1">  1        1 0.47041434E-01 0.18864519E+03</pdfrwt>
<pdfrwt beam="2">  1       -1 0.15373046E-01 0.18864519E+03</pdfrwt>
<totfact> 0.26024463E+03</totfact>
</mgrwt>
</event>
<event>
 8    1  0.2964543E-004  0.9897842E+02  0.7546771E-02  0.1283507E+00
         -2   -1    0    0    0  501 -0.00000000000E+00  0.00000000000E+00  0.32871188799E+02  0.32871188799E+02  0.00000000000E+00 0.  1.
          2   -1    0    0  501    0  0.00000000000E+00 -0.00000000000E+00 -0.33126323282E+03  0.33126323282E+03  0.00000000000E+00 0. -1.
         23    2    1    2    0    0  0.12463177594E+02 -0.30187477843E+02 -0.21301798526E+03  0.23489016636E+03  0.93435076901E+02 0.  0.
         23    2    1    2    0    0 -0.12463177594E+02  0.30187477843E+02 -0.85374058754E+02  0.12924425525E+03  0.91371401394E+02 0.  0.
          5    1    4    4  502    0 -0.13594133828E+02 -0.23769685511E+02  0.41084514610E+00  0.27785917612E+02  0.47000000000E+01 0. -1.
         -5    1    4    4    0  502  0.11309562338E+01  0.53957163354E+02 -0.85784903900E+02  0.10145833764E+03  0.47000000000E+01 0.  1.
          5    1    3    3  503    0  0.29034485319E+02  0.20369144684E+02 -0.39295157396E+02  0.53142288130E+02  0.47000000000E+01 0.  1.
         -5    1    3    3    0  503 -0.16571307725E+02 -0.50556622527E+02 -0.17372282787E+03  0.18174787823E+03  0.47000000000E+01 0. -1.
<mgrwt>
<rscale>  0 0.98488368E+02</rscale>
<asrwt>0</asrwt>
<pdfrwt beam="1">  1        2 0.50963575E-01 0.98978423E+02</pdfrwt>
<pdfrwt beam="2">  1       -2 0.50571059E-02 0.98978423E+02</pdfrwt>
<totfact> 0.17196893E+04</totfact>
</mgrwt>
</event>
<event>
 8    1  0.2964543E-004  0.1047623E+03  0.7546771E-02  0.1277530E+00
         -1   -1    0    0    0  501 -0.00000000000E+00  0.00000000000E+00  0.13819646268E+02  0.13819646268E+02  0.00000000000E+00 0.  1.
          1   -1    0    0  501    0  0.00000000000E+00 -0.00000000000E+00 -0.87519093933E+03  0.87519093933E+03  0.00000000000E+00 0. -1.
         23    2    1    2    0    0  0.11632170960E+02 -0.11313715367E+02 -0.20821382120E+03  0.22750485714E+03  0.90233902325E+02 0.  0.
         23    2    1    2    0    0 -0.11632170960E+02  0.11313715367E+02 -0.65315747186E+03  0.66150572845E+03  0.10349801047E+03 0.  0.
          5    1    3    3  502    0  0.43799409736E+02  0.16733631799E+02 -0.13006663881E+03  0.13833952168E+03  0.47000000000E+01 0.  1.
         -5    1    3    3    0  502 -0.32167238776E+02 -0.28047347166E+02 -0.78147182392E+02  0.89165335469E+02  0.47000000000E+01 0. -1.
          5    1    4    4  503    0 -0.35827211316E+02  0.48266092175E+02 -0.36586135020E+03  0.37079620048E+03  0.47000000000E+01 0. -1.
         -5    1    4    4    0  503  0.24195040356E+02 -0.36952376808E+02 -0.28729612167E+03  0.29070952797E+03  0.47000000000E+01 0.  1.
<mgrwt>
<rscale>  0 0.10132674E+03</rscale>
<asrwt>0</asrwt>
<pdfrwt beam="1">  1        1 0.13464482E+00 0.10476233E+03</pdfrwt>
<pdfrwt beam="2">  1       -1 0.21260984E-02 0.10476233E+03</pdfrwt>
<totfact> 0.11802843E+04</totfact>
</mgrwt>
</event>
<event>
 8    1  0.2964543E-004  0.9517254E+02  0.7546771E-02  0.1292986E+00
         -1   -1    0    0    0  501 -0.00000000000E+00  0.00000000000E+00  0.47560172326E+02  0.47560172326E+02  0.00000000000E+00 0.  1.
          1   -1    0    0  501    0  0.00000000000E+00 -0.00000000000E+00 -0.19668979051E+03  0.19668979051E+03  0.00000000000E+00 0. -1.
         23    2    1    2    0    0 -0.50032615604E+01 -0.16176453939E+01 -0.40776427933E+02  0.10003405871E+03  0.91194552602E+02 0.  0.
         23    2    1    2    0    0  0.50032615604E+01  0.16176453939E+01 -0.10835319025E+03  0.14421590413E+03  0.95027173810E+02 0.  0.
          5    1    4    4  502    0  0.18248129101E+01 -0.45492231066E+02 -0.67765128010E+02  0.81774541293E+02  0.47000000000E+01 0. -1.
         -5    1    4    4    0  502  0.31784486503E+01  0.47109876460E+02 -0.40588062241E+02  0.62441362832E+02  0.47000000000E+01 0.  1.
          5    1    3    3  503    0 -0.30201083252E+02 -0.26618993016E+02 -0.48701873408E+02  0.63361176537E+02  0.47000000000E+01 0. -1.
         -5    1    3    3    0  503  0.25197821691E+02  0.25001347622E+02  0.79254454751E+01  0.36672882173E+02  0.47000000000E+01 0.  1.
<mgrwt>
<rscale>  0 0.94201142E+02</rscale>
<asrwt>0</asrwt>
<pdfrwt beam="1">  1        1 0.30259968E-01 0.95172544E+02</pdfrwt>
<pdfrwt beam="2">  1       -1 0.73169495E-02 0.95172544E+02</pdfrwt>
<totfact> 0.13408612E+04</totfact>
</mgrwt>
</event>
<event>
 8    1  0.2964543E-004  0.1261701E+03  0.7546771E-02  0.1234335E+00
         -3   -1    0    0    0  501 -0.00000000000E+00  0.00000000000E+00  0.28539184675E+03  0.28539184675E+03  0.00000000000E+00 0.  1.
          3   -1    0    0  501    0  0.00000000000E+00 -0.00000000000E+00 -0.83889921341E+02  0.83889921341E+02  0.00000000000E+00 0. -1.
         23    2    1    2    0    0  0.46202164716E+02 -0.74200423118E+02  0.21065128244E+03  0.24554603414E+03  0.90986533484E+02 0.  0.
         23    2    1    2    0    0 -0.46202164716E+02  0.74200423118E+02 -0.91493570251E+01  0.12373573395E+03  0.87100392118E+02 0.  0.
          5    1    3    3  502    0  0.73564340142E+02 -0.58032360262E+02  0.16313594903E+03  0.18818845566E+03  0.47000000000E+01 0. -1.
         -5    1    4    4    0  503 -0.21662515574E+02  0.57221357383E+02  0.34693562935E+02  0.70493131799E+02  0.47000000000E+01 0.  1.
          5    1    4    4  503    0 -0.24539649143E+02  0.16979065735E+02 -0.43842919960E+02  0.53242602152E+02  0.47000000000E+01 0. -1.
         -5    1    3    3    0  502 -0.27362175426E+02 -0.16168062855E+02  0.47515333414E+02  0.57357578488E+02  0.47000000000E+01 0.  1.
<mgrwt>
<rscale>  0 0.12547103E+03</rscale>
<asrwt>0</asrwt>
<pdfrwt beam="1">  1        3 0.12906142E-01 0.12617009E+03</pdfrwt>
<pdfrwt beam="2">  1       -3 0.43906438E-01 0.12617009E+03</pdfrwt>
<totfact> 0.56955995E+02</totfact>
</mgrwt>
</event>
<event>
 8    1  0.2964543E-004  0.1383271E+03  0.7546771E-02  0.1215861E+00
         -1   -1    0    0    0  501 -0.00000000000E+00  0.00000000000E+00  0.11701839175E+03  0.11701839175E+03  0.00000000000E+00 0.  1.
          1   -1    0    0  501    0  0.00000000000E+00 -0.00000000000E+00 -0.38178537126E+03  0.38178537126E+03  0.00000000000E+00 0. -1.
         23    2    1    2    0    0 -0.30138394895E+02  0.99080944135E+02 -0.32119326662E+03  0.34941065311E+03  0.90539127726E+02 0.  0.
         23    2    1    2    0    0  0.30138394895E+02 -0.99080944135E+02  0.56426287110E+02  0.14939310990E+03  0.91700703769E+02 0.  0.
          5    1    4    4  502    0 -0.25696058212E+02 -0.63323999466E+02  0.12261378468E+02  0.69589135056E+02  0.47000000000E+01 0. -1.
         -5    1    3    3    0  503 -0.30647163390E+00  0.74681506911E+02 -0.29031522281E+03  0.29980400263E+03  0.47000000000E+01 0.  1.
          5    1    3    3  503    0 -0.29831923261E+02  0.24399437223E+02 -0.30878043808E+02  0.49606650478E+02  0.47000000000E+01 0. -1.
         -5    1    4    4    0  502  0.55834453107E+02 -0.35756944669E+02  0.44164908642E+02  0.79803974845E+02  0.47000000000E+01 0.  1.
<mgrwt>
<rscale>  0 0.13813484E+03</rscale>
<asrwt>0</asrwt>
<pdfrwt beam="1">  1        1 0.58736211E-01 0.13832706E+03</pdfrwt>
<pdfrwt beam="2">  1       -1 0.18002829E-01 0.13832706E+03</pdfrwt>
<totfact> 0.15197479E+03</totfact>
</mgrwt>
</event>
<event>
 8    1  0.2964543E-004  0.1062018E+03  0.7546771E-02  0.1277315E+00
         -1   -1    0    0    0  501 -0.00000000000E+00  0.00000000000E+00  0.11782866822E+03  0.11782866822E+03  0.00000000000E+00 0.  1.
          1   -1    0    0  501    0  0.00000000000E+00 -0.00000000000E+00 -0.16098967578E+03  0.16098967578E+03  0.00000000000E+00 0. -1.
         23    2    1    2    0    0 -0.28302206119E+02  0.15317961422E+02 -0.12104348936E+03  0.16102906272E+03  0.10120858615E+03 0.  0.
         23    2    1    2    0    0  0.28302206119E+02 -0.15317961422E+02  0.77882481788E+02  0.11778928128E+03  0.82298110560E+02 0.  0.
          5    1    4    4  502    0  0.36587150502E+02  0.25030175964E+02  0.53709947816E+02  0.69799554332E+02  0.47000000000E+01 0. -1.
         -5    1    3    3    0  503 -0.38684783869E+02 -0.32560970295E+02 -0.34250783502E+02  0.61253044496E+02  0.47000000000E+01 0.  1.
          5    1    3    3  503    0  0.10382577750E+02  0.47878931716E+02 -0.86792705853E+02  0.99776018223E+02  0.47000000000E+01 0. -1.
         -5    1    4    4    0  502 -0.82849443832E+01 -0.40348137386E+02  0.24172533972E+02  0.47989726948E+02  0.47000000000E+01 0.  1.
<mgrwt>
<rscale>  0 0.10143105E+03</rscale>
<asrwt>0</asrwt>
<pdfrwt beam="1">  1        1 0.24767642E-01 0.10620185E+03</pdfrwt>
<pdfrwt beam="2">  1       -1 0.18127488E-01 0.10620185E+03</pdfrwt>
<totfact> 0.43283253E+03</totfact>
</mgrwt>
</event>
<event>
 8    1  0.2964543E-004  0.1170115E+03  0.7546771E-02  0.1256105E+00
          2   -1    0    0  501    0  0.00000000000E+00  0.00000000000E+00  0.23209407317E+03  0.23209407317E+03  0.00000000000E+00 0. -1.
         -2   -1    0    0    0  501 -0.00000000000E+00 -0.00000000000E+00 -0.63356984212E+02  0.63356984212E+02  0.00000000000E+00 0.  1.
         23    2    1    2    0    0 -0.22508063581E+02  0.39102089451E+02  0.14505556135E+03  0.17606717785E+03  0.89010948286E+02 0.  0.
         23    2    1    2    0    0  0.22508063581E+02 -0.39102089451E+02  0.23681527610E+02  0.11938387953E+03  0.10796346426E+03 0.  0.
          5    1    4    4  502    0 -0.23231979509E+02 -0.25714667659E+02  0.52803305260E+02  0.63334414430E+02  0.47000000000E+01 0. -1.
         -5    1    3    3    0  503  0.24449735716E+02  0.22333234401E+02  0.10990081436E+03  0.11487750838E+03  0.47000000000E+01 0.  1.
          5    1    3    3  503    0 -0.46957799297E+02  0.16768855050E+02  0.35154746988E+02  0.61189669474E+02  0.47000000000E+01 0. -1.
         -5    1    4    4    0  502  0.45740043090E+02 -0.13387421791E+02 -0.29121777650E+02  0.56049465096E+02  0.47000000000E+01 0.  1.
<mgrwt>
<rscale>  0 0.11244649E+03</rscale>
<asrwt>0</asrwt>
<pdfrwt beam="1">  1        2 0.35706780E-01 0.11701152E+03</pdfrwt>
<pdfrwt beam="2">  1       -2 0.97472285E-02 0.11701152E+03</pdfrwt>
<totfact> 0.93461238E+03</totfact>
</mgrwt>
</event>
<event>
 8    1  0.2964543E-004  0.1718141E+03  0.7546771E-02  0.1176156E+00
         -1   -1    0    0    0  501 -0.00000000000E+00  0.00000000000E+00  0.10144655154E+03  0.10144655154E+03  0.00000000000E+00 0.  1.
          1   -1    0    0  501    0  0.00000000000E+00 -0.00000000000E+00 -0.43864117471E+03  0.43864117471E+03  0.00000000000E+00 0. -1.
         23    2    1    2    0    0  0.41921933662E+02  0.13856977714E+03 -0.11036914127E+02  0.17144298511E+03  0.91169358961E+02 0.  0.
         23    2    1    2    0    0 -0.41921933662E+02 -0.13856977714E+03 -0.32615770904E+03  0.36864474113E+03  0.92526009012E+02 0.  0.
          5    1    4    4  502    0  0.10547481042E+02 -0.99805365272E+02 -0.14818349515E+03  0.17903295375E+03  0.47000000000E+01 0. -1.
         -5    1    3    3    0  503  0.40116201362E+02  0.11547711224E+03  0.28285151140E+02  0.12556437727E+03  0.47000000000E+01 0.  1.
          5    1    3    3  503    0  0.18057322998E+01  0.23092664896E+02 -0.39322065267E+02  0.45878607847E+02  0.47000000000E+01 0. -1.
         -5    1    4    4    0  502 -0.52469414703E+02 -0.38764411865E+02 -0.17797421388E+03  0.18961178738E+03  0.47000000000E+01 0.  1.
<mgrwt>
<rscale>  0 0.17163215E+03</rscale>
<asrwt>0</asrwt>
<pdfrwt beam="1">  1        1 0.67483257E-01 0.17181413E+03</pdfrwt>
<pdfrwt beam="2">  1       -1 0.15607162E-01 0.17181413E+03</pdfrwt>
<totfact> 0.16057251E+03</totfact>
</mgrwt>
</event>
<event>
 8    1  0.2964543E-004  0.1090237E+03  0.7546771E-02  0.1264101E+00
          2   -1    0    0  501    0  0.00000000000E+00  0.00000000000E+00  0.13073020013E+03  0.13073020013E+03  0.00000000000E+00 0. -1.
         -2   -1    0    0    0  501 -0.00000000000E+00 -0.00000000000E+00 -0.13739309702E+03  0.13739309702E+03  0.00000000000E+00 0.  1.
         23    2    1    2    0    0 -0.39247903959E+02  0.45796380120E+02  0.77045597367E+02  0.13349975335E+03  0.90820997980E+02 0.  0.
         23    2    1    2    0    0  0.39247903959E+02 -0.45796380120E+02 -0.83708494262E+02  0.13462354380E+03  0.86479362483E+02 0.  0.
          5    1    4    4  502    0 -0.87605734831E+01 -0.48221697799E+02 -0.16635623695E+02  0.51970316163E+02  0.47000000000E+01 0. -1.
         -5    1    3    3    0  503  0.26902445812E+02  0.26450680863E+02  0.39705543264E+02  0.54972723006E+02  0.47000000000E+01 0.  1.
          5    1    3    3  503    0 -0.66150349771E+02  0.19345699258E+02  0.37340054103E+02  0.78527030346E+02  0.47000000000E+01 0. -1.
         -5    1    4    4    0  502  0.48008477442E+02  0.24253176783E+01 -0.67072870567E+02  0.82653227633E+02  0.47000000000E+01 0.  1.
<mgrwt>
<rscale>  0 0.10811502E+03</rscale>
<asrwt>0</asrwt>
<pdfrwt beam="1">  1        2 0.20112338E-01 0.10902367E+03</pdfrwt>
<pdfrwt beam="2">  1       -2 0.21137400E-01 0.10902367E+03</pdfrwt>
<totfact> 0.49528142E+03</totfact>
</mgrwt>
</event>
<event>
 8    1  0.2964543E-004  0.9527162E+02  0.7546771E-02  0.1291024E+00
          2   -1    0    0  501    0  0.00000000000E+00  0.00000000000E+00  0.35995052172E+03  0.35995052172E+03  0.00000000000E+00 0. -1.
         -2   -1    0    0    0  501 -0.00000000000E+00 -0.00000000000E+00 -0.25269312355E+02  0.25269312355E+02  0.00000000000E+00 0.  1.
         23    2    1    2    0    0  0.18969598564E+01 -0.25530854784E+02  0.14680570985E+03  0.17456873538E+03  0.90922516045E+02 0.  0.
         23    2    1    2    0    0 -0.18969598564E+01  0.25530854784E+02  0.18787549951E+03  0.21065109870E+03  0.91767418302E+02 0.  0.
          5    1    3    3  502    0  0.32938474906E+02 -0.45198539757E+02  0.10208759402E+03  0.11649814581E+03  0.47000000000E+01 0. -1.
         -5    1    4    4    0  503 -0.39245714298E+02  0.19034803901E+02  0.15215094491E+03  0.15834945497E+03  0.47000000000E+01 0.  1.
          5    1    4    4  503    0  0.37348754442E+02  0.64960508832E+01  0.35724554601E+02  0.52301643730E+02  0.47000000000E+01 0. -1.
         -5    1    3    3    0  502 -0.31041515050E+02  0.19667684973E+02  0.44718115829E+02  0.58070589562E+02  0.47000000000E+01 0.  1.
<mgrwt>
<rscale>  0 0.95067580E+02</rscale>
<asrwt>0</asrwt>
<pdfrwt beam="1">  1        2 0.55376999E-01 0.95271623E+02</pdfrwt>
<pdfrwt beam="2">  1       -2 0.38875868E-02 0.95271623E+02</pdfrwt>
<totfact> 0.23171928E+04</totfact>
</mgrwt>
</event>
<event>
 8    1  0.2964543E-004  0.1306422E+03  0.7546771E-02  0.1227371E+00
          2   -1    0    0  501    0  0.00000000000E+00  0.00000000000E+00  0.22996653560E+03  0.22996653560E+03  0.00000000000E+00 0. -1.
         -2   -1    0    0    0  501 -0.00000000000E+00 -0.00000000000E+00 -0.83966653793E+02  0.83966653793E+02  0.00000000000E+00 0.  1.
         23    2    1    2    0    0 -0.11389993942E+02 -0.91368055097E+02  0.16590097275E+02  0.13169138996E+03  0.92679757277E+02 0.  0.
         23    2    1    2    0    0  0.11389993942E+02  0.91368055097E+02  0.12940978453E+03  0.18224179943E+03  0.89371850559E+02 0.  0.
          5    1    3    3  502    0 -0.13360364141E+02 -0.51470209630E+02  0.54593167538E+02  0.76355653040E+02  0.47000000000E+01 0. -1.
         -5    1    3    3    0  502  0.19703701987E+01 -0.39897845466E+02 -0.38003070262E+02  0.55335736924E+02  0.47000000000E+01 0.  1.
          5    1    4    4  503    0 -0.28314288421E+02  0.72302100542E+02  0.10785326307E+03  0.13298010763E+03  0.47000000000E+01 0.  1.
         -5    1    4    4    0  503  0.39704282363E+02  0.19065954554E+02  0.21556521465E+02  0.49261691797E+02  0.47000000000E+01 0. -1.
<mgrwt>
<rscale>  0 0.13005693E+03</rscale>
<asrwt>0</asrwt>
<pdfrwt beam="1">  1        2 0.35379467E-01 0.13064222E+03</pdfrwt>
<pdfrwt beam="2">  1       -2 0.12917947E-01 0.13064222E+03</pdfrwt>
<totfact> 0.60909690E+03</totfact>
</mgrwt>
</event>
<event>
 8    1  0.2964543E-004  0.9656954E+02  0.7546771E-02  0.1288141E+00
          2   -1    0    0  501    0  0.00000000000E+00  0.00000000000E+00  0.42737554414E+02  0.42737554414E+02  0.00000000000E+00 0. -1.
         -2   -1    0    0    0  501 -0.00000000000E+00 -0.00000000000E+00 -0.30315919668E+03  0.30315919668E+03  0.00000000000E+00 0.  1.
         23    2    1    2    0    0 -0.28394014674E+02 -0.14592961320E+02 -0.22236643272E+03  0.24209947547E+03  0.90256030452E+02 0.  0.
         23    2    1    2    0    0  0.28394014674E+02  0.14592961320E+02 -0.38055209543E+02  0.10379727562E+03  0.91140006933E+02 0.  0.
          5    1    4    4  502    0  0.58037916808E+02 -0.60042514050E+01 -0.14070043293E+02  0.60203878119E+02  0.47000000000E+01 0. -1.
         -5    1    3    3    0  503 -0.42446582027E+02 -0.40905797279E+02 -0.10105863311E+03  0.11708942695E+03  0.47000000000E+01 0.  1.
          5    1    3    3  503    0  0.14052567352E+02  0.26312835959E+02 -0.12130779961E+03  0.12501004853E+03  0.47000000000E+01 0. -1.
         -5    1    4    4    0  502 -0.29643902134E+02  0.20597212725E+02 -0.23985166251E+02  0.43593397502E+02  0.47000000000E+01 0.  1.
<mgrwt>
<rscale>  0 0.96360401E+02</rscale>
<asrwt>0</asrwt>
<pdfrwt beam="1">  1        2 0.65750082E-02 0.96569537E+02</pdfrwt>
<pdfrwt beam="2">  1       -2 0.46639877E-01 0.96569537E+02</pdfrwt>
<totfact> 0.44776236E+03</totfact>
</mgrwt>
</event>
<event>
 8    1  0.2964543E-004  0.1150579E+03  0.7546771E-02  0.1251706E+00
         -1   -1    0    0    0  501 -0.00000000000E+00  0.00000000000E+00  0.13510784562E+03  0.13510784562E+03  0.00000000000E+00 0.  1.
          1   -1    0    0  501    0  0.00000000000E+00 -0.00000000000E+00 -0.12715997252E+03  0.12715997252E+03  0.00000000000E+00 0. -1.
         23    2    1    2    0    0  0.67716221744E+02  0.10994879642E+02  0.67266381979E+02  0.13327825588E+03  0.92368573017E+02 0.  0.
         23    2    1    2    0    0 -0.67716221744E+02 -0.10994879642E+02 -0.59318508883E+02  0.12898956225E+03  0.91723757055E+02 0.  0.
          5    1    4    4  502    0 -0.30530313927E+02 -0.15704546322E+02 -0.79092480138E+02  0.86350699233E+02  0.47000000000E+01 0. -1.
         -5    1    4    4    0  502 -0.37185907817E+02  0.47096666799E+01  0.19773971255E+02  0.42638863019E+02  0.47000000000E+01 0.  1.
          5    1    3    3  503    0  0.38089783069E+02  0.12424479557E+00 -0.17887965181E+02  0.42342842481E+02  0.47000000000E+01 0. -1.
         -5    1    3    3    0  503  0.29626438674E+02  0.10870634846E+02  0.85154347159E+02  0.90935413402E+02  0.47000000000E+01 0.  1.
<mgrwt>
<rscale>  0 0.11492846E+03</rscale>
<asrwt>0</asrwt>
<pdfrwt beam="1">  1        1 0.19563073E-01 0.11505793E+03</pdfrwt>
<pdfrwt beam="2">  1       -1 0.20785822E-01 0.11505793E+03</pdfrwt>
<totfact> 0.47054192E+03</totfact>
</mgrwt>
</event>
<event>
 8    1  0.2964543E-004  0.1492945E+03  0.7546771E-02  0.1202017E+00
         -1   -1    0    0    0  501 -0.00000000000E+00  0.00000000000E+00  0.19049442404E+02  0.19049442404E+02  0.00000000000E+00 0.  1.
          1   -1    0    0  501    0  0.00000000000E+00 -0.00000000000E+00 -0.11633919321E+04  0.11633919321E+04  0.00000000000E+00 0. -1.
         23    2    1    2    0    0  0.97342877510E+02  0.61661949414E+02 -0.52084209652E+03  0.54181669601E+03  0.94926343876E+02 0.  0.
         23    2    1    2    0    0 -0.97342877510E+02 -0.61661949414E+02 -0.62350039314E+03  0.64062467845E+03  0.91484460948E+02 0.  0.
          5    1    3    3  502    0  0.60649425382E+02  0.41625462419E+02 -0.13607462358E+03  0.15475601799E+03  0.47000000000E+01 0. -1.
         -5    1    3    3    0  502  0.36693452128E+02  0.20036486995E+02 -0.38476747294E+03  0.38706067802E+03  0.47000000000E+01 0.  1.
          5    1    4    4  503    0 -0.96320475265E+02 -0.17032466248E+02 -0.34901662286E+03  0.36249473361E+03  0.47000000000E+01 0. -1.
         -5    1    4    4    0  503 -0.10224022459E+01 -0.44629483167E+02 -0.27448377028E+03  0.27812994485E+03  0.47000000000E+01 0.  1.
<mgrwt>
<rscale>  0 0.14875040E+03</rscale>
<asrwt>0</asrwt>
<pdfrwt beam="1">  1        1 0.17898337E+00 0.14929448E+03</pdfrwt>
<pdfrwt beam="2">  1       -1 0.29306835E-02 0.14929448E+03</pdfrwt>
<totfact> 0.46659625E+03</totfact>
</mgrwt>
</event>
<event>
 8    1  0.2964543E-004  0.1020655E+03  0.7546771E-02  0.1279634E+00
         -1   -1    0    0    0  501 -0.00000000000E+00  0.00000000000E+00  0.31031355463E+03  0.31031355463E+03  0.00000000000E+00 0.  1.
          1   -1    0    0  501    0  0.00000000000E+00 -0.00000000000E+00 -0.49352189588E+02  0.49352189588E+02  0.00000000000E+00 0. -1.
         23    2    1    2    0    0 -0.37038267478E+01 -0.28356430709E+02  0.19083859966E+02  0.97135551903E+02  0.90847764073E+02 0.  0.
         23    2    1    2    0    0  0.37038267478E+01  0.28356430709E+02  0.24187750507E+03  0.26253019231E+03  0.97977389839E+02 0.  0.
          5    1    3    3  502    0 -0.20462146168E+02 -0.56864323381E+02  0.47925642396E+01  0.60805504450E+02  0.47000000000E+01 0. -1.
         -5    1    4    4    0  503 -0.36009707776E+01  0.53772789936E+02  0.22357666869E+03  0.23002846935E+03  0.47000000000E+01 0.  1.
          5    1    4    4  503    0  0.73047975254E+01 -0.25416359227E+02  0.18300836382E+02  0.32501722963E+02  0.47000000000E+01 0. -1.
         -5    1    3    3    0  502  0.16758319420E+02  0.28507892672E+02  0.14291295726E+02  0.36330047453E+02  0.47000000000E+01 0.  1.
<mgrwt>
<rscale>  0 0.10031525E+03</rscale>
<asrwt>0</asrwt>
<pdfrwt beam="1">  1        1 0.75926447E-02 0.10206554E+03</pdfrwt>
<pdfrwt beam="2">  1       -1 0.47740546E-01 0.10206554E+03</pdfrwt>
<totfact> 0.39331105E+03</totfact>
</mgrwt>
</event>
<event>
 8    1  0.2964543E-004  0.9703910E+02  0.7546771E-02  0.1293611E+00
          1   -1    0    0  501    0  0.00000000000E+00  0.00000000000E+00  0.14412372340E+03  0.14412372340E+03  0.00000000000E+00 0. -1.
         -1   -1    0    0    0  501 -0.00000000000E+00 -0.00000000000E+00 -0.10370213231E+03  0.10370213231E+03  0.00000000000E+00 0.  1.
         23    2    1    2    0    0  0.13470132617E+02 -0.28338313097E+02  0.10346868181E+03  0.14185328477E+03  0.91826367800E+02 0.  0.
         23    2    1    2    0    0 -0.13470132617E+02  0.28338313097E+02 -0.63047090716E+02  0.10597257095E+03  0.79188040027E+02 0.  0.
          5    1    4    4  502    0  0.71770338033E+01 -0.23072605083E+02 -0.41263272035E+01  0.24959396942E+02  0.47000000000E+01 0. -1.
         -5    1    3    3    0  503 -0.34938992271E+01  0.20511414894E+02  0.83565133229E+02  0.86244692383E+02  0.47000000000E+01 0.  1.
          5    1    3    3  503    0  0.16964031844E+02 -0.48849727990E+02  0.19903548577E+02  0.55608592386E+02  0.47000000000E+01 0. -1.
         -5    1    4    4    0  502 -0.20647166421E+02  0.51410918180E+02 -0.58920763512E+02  0.81013174004E+02  0.47000000000E+01 0.  1.
<mgrwt>
<rscale>  0 0.93927250E+02</rscale>
<asrwt>0</asrwt>
<pdfrwt beam="1">  1        1 0.22172881E-01 0.97039097E+02</pdfrwt>
<pdfrwt beam="2">  1       -1 0.15954174E-01 0.97039097E+02</pdfrwt>
<totfact> 0.60349489E+03</totfact>
</mgrwt>
</event>
<event>
 8    1  0.2964543E-004  0.9175157E+02  0.7546771E-02  0.1299980E+00
          2   -1    0    0  501    0  0.00000000000E+00  0.00000000000E+00  0.71890758522E+02  0.71890758522E+02  0.00000000000E+00 0. -1.
         -2   -1    0    0    0  501 -0.00000000000E+00 -0.00000000000E+00 -0.18831178306E+03  0.18831178306E+03  0.00000000000E+00 0.  1.
         23    2    1    2    0    0  0.37346373380E+01  0.47100392886E+01  0.23772899397E+02  0.92653484319E+02  0.89349792527E+02 0.  0.
         23    2    1    2    0    0 -0.37346373380E+01 -0.47100392886E+01 -0.14019392394E+03  0.16754905726E+03  0.91554455353E+02 0.  0.
          5    1    3    3  502    0 -0.96728503691E+01  0.44613042366E+02  0.20219604874E+02  0.50147881357E+02  0.47000000000E+01 0. -1.
         -5    1    4    4    0  503  0.41397076192E+02 -0.16504117703E+02 -0.71420784087E+02  0.84315610761E+02  0.47000000000E+01 0. -1.
          5    1    4    4  503    0 -0.45131713530E+02  0.11794078415E+02 -0.68773139849E+02  0.83233446502E+02  0.47000000000E+01 0.  1.
         -5    1    3    3    0  502  0.13407487707E+02 -0.39903003077E+02  0.35532945232E+01  0.42505602962E+02  0.47000000000E+01 0.  1.
<mgrwt>
<rscale>  0 0.91196601E+02</rscale>
<asrwt>0</asrwt>
<pdfrwt beam="1">  1        2 0.11060117E-01 0.91751568E+02</pdfrwt>
<pdfrwt beam="2">  1       -2 0.28971043E-01 0.91751568E+02</pdfrwt>
<totfact> 0.56677042E+03</totfact>
</mgrwt>
</event>
<event>
 8    1  0.2964543E-004  0.1672781E+03  0.7546771E-02  0.1182234E+00
          2   -1    0    0  501    0  0.00000000000E+00  0.00000000000E+00  0.13771619166E+03  0.13771619166E+03  0.00000000000E+00 0. -1.
         -2   -1    0    0    0  501 -0.00000000000E+00 -0.00000000000E+00 -0.20518080897E+03  0.20518080897E+03  0.00000000000E+00 0.  1.
         23    2    1    2    0    0  0.74761117944E+02 -0.10917650769E+03 -0.69649341816E+02  0.18119875940E+03  0.10233877567E+03 0.  0.
         23    2    1    2    0    0 -0.74761117944E+02  0.10917650769E+03  0.21847245013E+01  0.16169824123E+03  0.92912935627E+02 0.  0.
          5    1    3    3  502    0  0.80940688053E+02 -0.28752612273E+02 -0.42591016472E+02  0.95990584846E+02  0.47000000000E+01 0. -1.
         -5    1    4    4    0  503 -0.63950561009E+02  0.55022883390E+02 -0.38593485393E+02  0.92891006371E+02  0.47000000000E+01 0.  1.
          5    1    4    4  503    0 -0.10810556935E+02  0.54153624301E+02  0.40778209895E+02  0.68807234855E+02  0.47000000000E+01 0. -1.
         -5    1    3    3    0  502 -0.61795701088E+01 -0.80423895417E+02 -0.27058325344E+02  0.85208174557E+02  0.47000000000E+01 0.  1.
<mgrwt>
<rscale>  0 0.16586155E+03</rscale>
<asrwt>0</asrwt>
<pdfrwt beam="1">  1        2 0.21187107E-01 0.16727809E+03</pdfrwt>
<pdfrwt beam="2">  1       -2 0.31566278E-01 0.16727809E+03</pdfrwt>
<totfact> 0.23653269E+03</totfact>
</mgrwt>
</event>
<event>
 8    1  0.2964543E-004  0.1071669E+03  0.7546771E-02  0.1266100E+00
         -2   -1    0    0    0  501 -0.00000000000E+00  0.00000000000E+00  0.22716140409E+02  0.22716140409E+02  0.00000000000E+00 0.  1.
          2   -1    0    0  501    0  0.00000000000E+00 -0.00000000000E+00 -0.50869056926E+03  0.50869056926E+03  0.00000000000E+00 0. -1.
         23    2    1    2    0    0 -0.37954118186E+02  0.42026422453E+02 -0.26886379701E+03  0.28928737361E+03  0.90513578635E+02 0.  0.
         23    2    1    2    0    0  0.37954118186E+02 -0.42026422453E+02 -0.21711063184E+03  0.24211933606E+03  0.90983576336E+02 0.  0.
          5    1    4    4  502    0 -0.17209579475E+02 -0.18153418805E+02 -0.11643213687E+02  0.27988759619E+02  0.47000000000E+01 0. -1.
         -5    1    4    4    0  502  0.55163697662E+02 -0.23873003648E+02 -0.20546741815E+03  0.21413057644E+03  0.47000000000E+01 0.  1.
          5    1    3    3  503    0 -0.52608407714E+02  0.61396075254E+02 -0.22168524005E+03  0.23601601275E+03  0.47000000000E+01 0. -1.
         -5    1    3    3    0  503  0.14654289528E+02 -0.19369652801E+02 -0.47178556958E+02  0.53271360860E+02  0.47000000000E+01 0.  1.
<mgrwt>
<rscale>  0 0.10706709E+03</rscale>
<asrwt>0</asrwt>
<pdfrwt beam="1">  1        2 0.78260084E-01 0.10716691E+03</pdfrwt>
<pdfrwt beam="2">  1       -2 0.34947910E-02 0.10716691E+03</pdfrwt>
<totfact> 0.18963078E+04</totfact>
</mgrwt>
</event>
<event>
 8    1  0.2964543E-004  0.1037803E+03  0.7546771E-02  0.1275448E+00
          1   -1    0    0  501    0  0.00000000000E+00  0.00000000000E+00  0.22378065673E+03  0.22378065673E+03  0.00000000000E+00 0. -1.
         -1   -1    0    0    0  501 -0.00000000000E+00 -0.00000000000E+00 -0.47253616726E+02  0.47253616726E+02  0.00000000000E+00 0.  1.
         23    2    1    2    0    0 -0.37274219651E+02 -0.84767560375E+01  0.11635945873E+03  0.15591625785E+03  0.96483848299E+02 0.  0.
         23    2    1    2    0    0  0.37274219651E+02  0.84767560375E+01  0.60167581268E+02  0.11511801560E+03  0.90392460066E+02 0.  0.
          5    1    4    4  502    0  0.37082351988E+02 -0.28303708491E+02  0.62305888462E+02  0.77976371295E+02  0.47000000000E+01 0. -1.
         -5    1    4    4    0  502  0.19186766303E+00  0.36780464528E+02 -0.21383071939E+01  0.37141644306E+02  0.47000000000E+01 0.  1.
          5    1    3    3  503    0  0.26327158258E+02  0.20447876623E+02  0.40815938431E+02  0.52908087759E+02  0.47000000000E+01 0. -1.
         -5    1    3    3    0  503 -0.63601377909E+02 -0.28924632660E+02  0.75543520301E+02  0.10300817009E+03  0.47000000000E+01 0.  1.
<mgrwt>
<rscale>  0 0.10234130E+03</rscale>
<asrwt>0</asrwt>
<pdfrwt beam="1">  1        1 0.34427793E-01 0.10378032E+03</pdfrwt>
<pdfrwt beam="2">  1       -1 0.72697873E-02 0.10378032E+03</pdfrwt>
<totfact> 0.11646797E+04</totfact>
</mgrwt>
</event>
<event>
 8    1  0.2964543E-004  0.1205601E+03  0.7546771E-02  0.1248166E+00
          1   -1    0    0  501    0  0.00000000000E+00  0.00000000000E+00  0.24435874720E+03  0.24435874720E+03  0.00000000000E+00 0. -1.
         -1   -1    0    0    0  501 -0.00000000000E+00 -0.00000000000E+00 -0.55689470762E+02  0.55689470762E+02  0.00000000000E+00 0.  1.
         23    2    1    2    0    0 -0.51018333201E+02  0.81446351375E+01  0.55500368723E+02  0.12041332901E+03  0.93540758341E+02 0.  0.
         23    2    1    2    0    0  0.51018333201E+02 -0.81446351375E+01  0.13316890771E+03  0.17963488895E+03  0.10892901332E+03 0.  0.
          5    1    3    3  502    0 -0.10014127349E+02 -0.26810529454E+02  0.59486907077E+02  0.66180581365E+02  0.47000000000E+01 0. -1.
         -5    1    4    4    0  503 -0.14343391082E+02  0.35915257819E+02  0.27348728860E+02  0.47599176277E+02  0.47000000000E+01 0.  1.
          5    1    4    4  503    0  0.65361724283E+02 -0.44059892957E+02  0.10582017885E+03  0.13203571267E+03  0.47000000000E+01 0. -1.
         -5    1    3    3    0  502 -0.41004205852E+02  0.34955164592E+02 -0.39865383542E+01  0.54232747646E+02  0.47000000000E+01 0.  1.
<mgrwt>
<rscale>  0 0.11697864E+03</rscale>
<asrwt>0</asrwt>
<pdfrwt beam="1">  1        1 0.37593653E-01 0.12056009E+03</pdfrwt>
<pdfrwt beam="2">  1       -1 0.85676110E-02 0.12056009E+03</pdfrwt>
<totfact> 0.82707801E+03</totfact>
</mgrwt>
</event>
<event>
 8    1  0.2964543E-004  0.1066597E+03  0.7546771E-02  0.1271910E+00
         -1   -1    0    0    0  501 -0.00000000000E+00  0.00000000000E+00  0.11010590567E+02  0.11010590567E+02  0.00000000000E+00 0.  1.
          1   -1    0    0  501    0  0.00000000000E+00 -0.00000000000E+00 -0.97040954645E+03  0.97040954645E+03  0.00000000000E+00 0. -1.
         23    2    1    2    0    0 -0.27469482558E+02  0.21443549352E+02 -0.54440633074E+03  0.55294005763E+03  0.90277661145E+02 0.  0.
         23    2    1    2    0    0  0.27469482558E+02 -0.21443549352E+02 -0.41499262515E+03  0.42848007939E+03  0.10080625589E+03 0.  0.
          5    1    4    4  502    0  0.35678710876E+02 -0.52026019578E+02 -0.35389139267E+03  0.35950088307E+03  0.47000000000E+01 0. -1.
         -5    1    3    3    0  503 -0.35339783321E+02  0.52141664399E+02 -0.40527593564E+03  0.41016865733E+03  0.47000000000E+01 0.  1.
          5    1    3    3  503    0  0.78703007632E+01 -0.30698115047E+02 -0.13913039510E+03  0.14277140029E+03  0.47000000000E+01 0. -1.
         -5    1    4    4    0  502 -0.82092283179E+01  0.30582470226E+02 -0.61101232479E+02  0.68979196322E+02  0.47000000000E+01 0.  1.
<mgrwt>
<rscale>  0 0.10409640E+03</rscale>
<asrwt>0</asrwt>
<pdfrwt beam="1">  1        1 0.14929378E+00 0.10665974E+03</pdfrwt>
<pdfrwt beam="2">  1       -1 0.16939370E-02 0.10665974E+03</pdfrwt>
<totfact> 0.13874467E+04</totfact>
</mgrwt>
</event>
<event>
 8    1  0.2964543E-004  0.1271237E+03  0.7546771E-02  0.1233053E+00
          2   -1    0    0  501    0  0.00000000000E+00  0.00000000000E+00  0.20822434989E+03  0.20822434989E+03  0.00000000000E+00 0. -1.
         -2   -1    0    0    0  501 -0.00000000000E+00 -0.00000000000E+00 -0.16849060757E+03  0.16849060757E+03  0.00000000000E+00 0.  1.
         23    2    1    2    0    0 -0.58358936581E+02  0.66869604433E+02  0.15957939155E+03  0.20200541097E+03  0.86390360452E+02 0.  0.
         23    2    1    2    0    0  0.58358936581E+02 -0.66869604433E+02 -0.11984564923E+03  0.17470954648E+03  0.91011738344E+02 0.  0.
          5    1    3    3  502    0 -0.15259272918E+02  0.22074381311E+02  0.13032569282E+03  0.13314278024E+03  0.47000000000E+01 0. -1.
         -5    1    3    3    0  502 -0.43099663663E+02  0.44795223122E+02  0.29253698729E+02  0.68862630735E+02  0.47000000000E+01 0.  1.
          5    1    4    4  503    0  0.80267746118E+02 -0.33946110085E+02 -0.83767648278E+02  0.12097255207E+03  0.47000000000E+01 0. -1.
         -5    1    4    4    0  503 -0.21908809537E+02 -0.32923494347E+02 -0.36078000954E+02  0.53736994410E+02  0.47000000000E+01 0.  1.
<mgrwt>
<rscale>  0 0.12629912E+03</rscale>
<asrwt>0</asrwt>
<pdfrwt beam="1">  1        2 0.32034515E-01 0.12712374E+03</pdfrwt>
<pdfrwt beam="2">  1       -2 0.25921632E-01 0.12712374E+03</pdfrwt>
<totfact> 0.21085963E+03</totfact>
</mgrwt>
</event>
<event>
 8    1  0.2964543E-004  0.9503850E+02  0.7546771E-02  0.1292974E+00
          1   -1    0    0  501    0  0.00000000000E+00  0.00000000000E+00  0.66242557200E+02  0.66242557200E+02  0.00000000000E+00 0. -1.
         -1   -1    0    0    0  501 -0.00000000000E+00 -0.00000000000E+00 -0.13603164120E+03  0.13603164120E+03  0.00000000000E+00 0.  1.
         23    2    1    2    0    0 -0.18425616643E+02  0.23583721401E+02 -0.53579975863E+02  0.10910147066E+03  0.90203225128E+02 0.  0.
         23    2    1    2    0    0  0.18425616643E+02 -0.23583721401E+02 -0.16209108135E+02  0.93172727736E+02  0.86733654041E+02 0.  0.
          5    1    4    4  502    0  0.78415351466E+01 -0.53918985693E+02 -0.24090299028E+02  0.59759344030E+02  0.47000000000E+01 0. -1.
         -5    1    3    3    0  503  0.22704539292E+01  0.53047966341E+02 -0.49176435448E+02  0.72523468597E+02  0.47000000000E+01 0.  1.
          5    1    3    3  503    0 -0.20696070572E+02 -0.29464244939E+02 -0.44035404149E+01  0.36578002066E+02  0.47000000000E+01 0. -1.
         -5    1    4    4    0  502  0.10584081496E+02  0.30335264292E+02  0.78811908938E+01  0.33413383706E+02  0.47000000000E+01 0.  1.
<mgrwt>
<rscale>  0 0.94205992E+02</rscale>
<asrwt>0</asrwt>
<pdfrwt beam="1">  1        1 0.10191163E-01 0.95038503E+02</pdfrwt>
<pdfrwt beam="2">  1       -1 0.20927944E-01 0.95038503E+02</pdfrwt>
<totfact> 0.10622309E+04</totfact>
</mgrwt>
</event>
<event>
 8    1  0.2964543E-004  0.1282716E+03  0.7546771E-02  0.1240557E+00
         -1   -1    0    0    0  501 -0.00000000000E+00  0.00000000000E+00  0.19721249779E+03  0.19721249779E+03  0.00000000000E+00 0.  1.
          1   -1    0    0  501    0  0.00000000000E+00 -0.00000000000E+00 -0.88661843392E+02  0.88661843392E+02  0.00000000000E+00 0. -1.
         23    2    1    2    0    0  0.40388525225E+02 -0.34002927527E+02  0.12733914936E+03  0.18074532441E+03  0.11690244346E+03 0.  0.
         23    2    1    2    0    0 -0.40388525225E+02  0.34002927527E+02 -0.18788494957E+02  0.10512901677E+03  0.88947572056E+02 0.  0.
          5    1    4    4  502    0 -0.33516560955E+02  0.63928828396E+02 -0.14466483047E+02  0.73767364668E+02  0.47000000000E+01 0. -1.
         -5    1    3    3    0  503 -0.39896740125E+02 -0.66051589349E+01  0.59136769156E+02  0.71795720369E+02  0.47000000000E+01 0.  1.
          5    1    3    3  503    0  0.80285265349E+02 -0.27397768592E+02  0.68202380203E+02  0.10894960404E+03  0.47000000000E+01 0. -1.
         -5    1    4    4    0  502 -0.68719642692E+01 -0.29925900869E+02 -0.43220119101E+01  0.31361652104E+02  0.47000000000E+01 0.  1.
<mgrwt>
<rscale>  0 0.12155320E+03</rscale>
<asrwt>0</asrwt>
<pdfrwt beam="1">  1        1 0.13640284E-01 0.12827164E+03</pdfrwt>
<pdfrwt beam="2">  1       -1 0.30340384E-01 0.12827164E+03</pdfrwt>
<totfact> 0.40472959E+03</totfact>
</mgrwt>
</event>
<event>
 8    1  0.2964543E-004  0.1214920E+03  0.7546771E-02  0.1241282E+00
         -1   -1    0    0    0  501 -0.00000000000E+00  0.00000000000E+00  0.85473125978E+02  0.85473125978E+02  0.00000000000E+00 0.  1.
          1   -1    0    0  501    0  0.00000000000E+00 -0.00000000000E+00 -0.17727160324E+03  0.17727160324E+03  0.00000000000E+00 0. -1.
         23    2    1    2    0    0  0.80368804779E+02 -0.48329398670E+01 -0.19973300867E+02  0.12160947985E+03  0.88923735596E+02 0.  0.
         23    2    1    2    0    0 -0.80368804779E+02  0.48329398670E+01 -0.71825176392E+02  0.14113524937E+03  0.90982418964E+02 0.  0.
          5    1    4    4  502    0 -0.70543208688E+02  0.39808806625E+02 -0.64794749404E+02  0.10383417033E+03  0.47000000000E+01 0. -1.
         -5    1    4    4    0  502 -0.98255960911E+01 -0.34975866758E+02 -0.70304269884E+01  0.37301079041E+02  0.47000000000E+01 0.  1.
          5    1    3    3  503    0  0.31182483313E+02  0.38365978413E+02 -0.25348790275E+02  0.55757929782E+02  0.47000000000E+01 0. -1.
         -5    1    3    3    0  503  0.49186321466E+02 -0.43198918280E+02  0.53754894085E+01  0.65851550068E+02  0.47000000000E+01 0.  1.
<mgrwt>
<rscale>  0 0.12110667E+03</rscale>
<asrwt>0</asrwt>
<pdfrwt beam="1">  1        1 0.27272554E-01 0.12149199E+03</pdfrwt>
<pdfrwt beam="2">  1       -1 0.13149712E-01 0.12149199E+03</pdfrwt>
<totfact> 0.63985479E+03</totfact>
</mgrwt>
</event>
<event>
 8    1  0.2964543E-004  0.1826229E+03  0.7546771E-02  0.1165335E+00
          2   -1    0    0  501    0  0.00000000000E+00  0.00000000000E+00  0.13193697003E+04  0.13193697003E+04  0.00000000000E+00 0. -1.
         -2   -1    0    0    0  501 -0.00000000000E+00 -0.00000000000E+00 -0.28164402056E+02  0.28164402056E+02  0.00000000000E+00 0.  1.
         23    2    1    2    0    0  0.11526709018E+03 -0.10763863217E+03  0.42857982807E+03  0.46578934749E+03  0.91686803797E+02 0.  0.
         23    2    1    2    0    0 -0.11526709018E+03  0.10763863217E+03  0.86262547019E+03  0.88174475488E+03  0.92078953797E+02 0.  0.
          5    1    4    4  502    0 -0.12913084510E+03  0.92646035314E+02  0.70338013385E+03  0.72112673346E+03  0.47000000000E+01 0. -1.
         -5    1    3    3    0  503  0.80395275786E+02 -0.23399303487E+02  0.14087440575E+03  0.16394699134E+03  0.47000000000E+01 0.  1.
          5    1    3    3  503    0  0.34871814398E+02 -0.84239328679E+02  0.28770542232E+03  0.30184235615E+03  0.47000000000E+01 0. -1.
         -5    1    4    4    0  502  0.13863754913E+02  0.14992596852E+02  0.15924533633E+03  0.16061802142E+03  0.47000000000E+01 0.  1.
<mgrwt>
<rscale>  0 0.18257349E+03</rscale>
<asrwt>0</asrwt>
<pdfrwt beam="1">  1        2 0.20297991E+00 0.18262287E+03</pdfrwt>
<pdfrwt beam="2">  1       -2 0.43329859E-02 0.18262287E+03</pdfrwt>
<totfact> 0.41374092E+03</totfact>
</mgrwt>
</event>
<event>
 8    1  0.3856140E-004  0.1221191E+03  0.7546771E-02  0.1241660E+00
         -2   -1    0    0    0  501 -0.00000000000E+00  0.00000000000E+00  0.65757127916E+02  0.65757127916E+02  0.00000000000E+00 0.  1.
          2   -1    0    0  501    0  0.00000000000E+00 -0.00000000000E+00 -0.77972710745E+03  0.77972710745E+03  0.00000000000E+00 0. -1.
         23    2    1    2    0    0 -0.21281876666E+02 -0.75575288619E+02 -0.71788550660E+03  0.72819823075E+03  0.93533524234E+02 0.  0.
         23    2    1    2    0    0  0.21281876666E+02  0.75575288619E+02  0.39155270633E+01  0.11728600462E+03  0.87040984616E+02 0.  0.
          5    1    4    4  502    0  0.50577999120E+02  0.20762316768E+02  0.83506788418E+00  0.54881646576E+02  0.47000000000E+01 0. -1.
         -5    1    3    3    0  503 -0.14772502678E+02  0.19446812526E+02 -0.20704303645E+03  0.20853132689E+03  0.47000000000E+01 0.  1.
          5    1    3    3  503    0 -0.65093739880E+01 -0.95022101145E+02 -0.51084247015E+03  0.51966690386E+03  0.47000000000E+01 0. -1.
         -5    1    4    4    0  502 -0.29296122454E+02  0.54812971851E+02  0.30804591791E+01  0.62404358042E+02  0.47000000000E+01 0.  1.
<mgrwt>
<rscale>  0 0.12087558E+03</rscale>
<asrwt>0</asrwt>
<pdfrwt beam="1">  1        2 0.11995802E+00 0.12211905E+03</pdfrwt>
<pdfrwt beam="2">  1       -2 0.10116481E-01 0.12211905E+03</pdfrwt>
<totfact> 0.23455238E+03</totfact>
</mgrwt>
</event>
<event>
 8    1  0.2964543E-004  0.9578558E+02  0.7546771E-02  0.1290272E+00
          1   -1    0    0  501    0  0.00000000000E+00  0.00000000000E+00  0.49858524133E+03  0.49858524133E+03  0.00000000000E+00 0. -1.
         -1   -1    0    0    0  501 -0.00000000000E+00 -0.00000000000E+00 -0.23674570176E+02  0.23674570176E+02  0.00000000000E+00 0.  1.
         23    2    1    2    0    0 -0.21790165437E+02  0.19224772776E+02  0.11232025396E+03  0.14761678991E+03  0.91271430439E+02 0.  0.
         23    2    1    2    0    0  0.21790165437E+02 -0.19224772776E+02  0.36259041719E+03  0.37464302160E+03  0.89672625673E+02 0.  0.
          5    1    4    4  502    0  0.26548478166E+02 -0.52271004035E+02  0.19422182044E+03  0.20293172520E+03  0.47000000000E+01 0. -1.
         -5    1    3    3    0  503  0.99430263901E+01  0.46605879679E+02  0.84394951058E+02  0.97033857795E+02  0.47000000000E+01 0.  1.
          5    1    3    3  503    0 -0.31733191827E+02 -0.27381106903E+02  0.27925302902E+02  0.50582932111E+02  0.47000000000E+01 0. -1.
         -5    1    4    4    0  502 -0.47583127283E+01  0.33046231258E+02  0.16836859674E+03  0.17171129640E+03  0.47000000000E+01 0.  1.
<mgrwt>
<rscale>  0 0.95402738E+02</rscale>
<asrwt>0</asrwt>
<pdfrwt beam="1">  1        1 0.76705414E-01 0.95785579E+02</pdfrwt>
<pdfrwt beam="2">  1       -1 0.36422420E-02 0.95785579E+02</pdfrwt>
<totfact> 0.11832486E+04</totfact>
</mgrwt>
</event>
<event>
 8    1  0.4180485E-004  0.1767641E+03  0.7546771E-02  0.1172880E+00
         -1   -1    0    0    0  501 -0.00000000000E+00  0.00000000000E+00  0.45314838283E+03  0.45314838283E+03  0.00000000000E+00 0.  1.
          1   -1    0    0  501    0  0.00000000000E+00 -0.00000000000E+00 -0.33350806176E+03  0.33350806176E+03  0.00000000000E+00 0. -1.
         23    2    1    2    0    0  0.12279220766E+03  0.89066551551E+02 -0.29265476850E+03  0.33806667237E+03  0.75043218034E+02 0.  0.
         23    2    1    2    0    0 -0.12279220766E+03 -0.89066551551E+02  0.41229508957E+03  0.44858977222E+03  0.90745611397E+02 0.  0.
          5    1    4    4  502    0 -0.17217663522E+02 -0.48582228559E+02  0.63647087035E+02  0.82034886219E+02  0.47000000000E+01 0. -1.
         -5    1    4    4    0  502 -0.10557454414E+03 -0.40484322992E+02  0.34864800254E+03  0.36655488600E+03  0.47000000000E+01 0.  1.
          5    1    3    3  503    0  0.75573020430E+02  0.91244143665E+01 -0.13020873989E+03  0.15090043837E+03  0.47000000000E+01 0. -1.
         -5    1    3    3    0  503  0.47219187228E+02  0.79942137184E+02 -0.16244602861E+03  0.18716623400E+03  0.47000000000E+01 0.  1.
<mgrwt>
<rscale>  0 0.17485234E+03</rscale>
<asrwt>0</asrwt>
<pdfrwt beam="1">  1        1 0.51308933E-01 0.17676409E+03</pdfrwt>
<pdfrwt beam="2">  1       -1 0.69715135E-01 0.17676409E+03</pdfrwt>
<totfact> 0.16933377E+02</totfact>
</mgrwt>
</event>
<event>
 8    1  0.2964543E-004  0.9819264E+02  0.7546771E-02  0.1291779E+00
         -1   -1    0    0    0  501 -0.00000000000E+00  0.00000000000E+00  0.92816303782E+01  0.92816303782E+01  0.00000000000E+00 0.  1.
          1   -1    0    0  501    0  0.00000000000E+00 -0.00000000000E+00 -0.10049713503E+04  0.10049713503E+04  0.00000000000E+00 0. -1.
         23    2    1    2    0    0  0.73801858932E+01  0.31751993592E+02 -0.62565585328E+03  0.63141246840E+03  0.78573546890E+02 0.  0.
         23    2    1    2    0    0 -0.73801858932E+01 -0.31751993592E+02 -0.37003386664E+03  0.38284051227E+03  0.92623642425E+02 0.  0.
          5    1    3    3  502    0  0.41460751543E+02  0.17501367253E+02 -0.26454798183E+03  0.26838967280E+03  0.47000000000E+01 0. -1.
         -5    1    3    3    0  502 -0.34080565650E+02  0.14250626339E+02 -0.36110787145E+03  0.36302279560E+03  0.47000000000E+01 0.  1.
          5    1    4    4  503    0  0.92961015178E+01  0.30440412098E+02 -0.15592958215E+03  0.15921419780E+03  0.47000000000E+01 0. -1.
         -5    1    4    4    0  503 -0.16676287411E+02 -0.62192405689E+02 -0.21410428449E+03  0.22362631448E+03  0.47000000000E+01 0.  1.
<mgrwt>
<rscale>  0 0.94732713E+02</rscale>
<asrwt>0</asrwt>
<pdfrwt beam="1">  1        1 0.15461098E+00 0.98192644E+02</pdfrwt>
<pdfrwt beam="2">  1       -1 0.14279431E-02 0.98192644E+02</pdfrwt>
<totfact> 0.16596435E+04</totfact>
</mgrwt>
</event>
<event>
 8    1  0.2964543E-004  0.1417369E+03  0.7546771E-02  0.1211486E+00
          3   -1    0    0  501    0  0.00000000000E+00  0.00000000000E+00  0.40973940403E+02  0.40973940403E+02  0.00000000000E+00 0. -1.
         -3   -1    0    0    0  501 -0.00000000000E+00 -0.00000000000E+00 -0.48770739573E+03  0.48770739573E+03  0.00000000000E+00 0.  1.
         23    2    1    2    0    0 -0.38188611081E+01 -0.10173235734E+03 -0.24280052194E+03  0.28114310997E+03  0.98616928559E+02 0.  0.
         23    2    1    2    0    0  0.38188611081E+01  0.10173235734E+03 -0.20393293339E+03  0.24753822616E+03  0.96552969202E+02 0.  0.
          5    1    4    4  502    0  0.20396587862E+02  0.30089946253E+00 -0.96664836347E+02  0.98905469630E+02  0.47000000000E+01 0. -1.
         -5    1    4    4    0  502 -0.16577726753E+02  0.10143145788E+03 -0.10726809704E+03  0.14863275653E+03  0.47000000000E+01 0.  1.
          5    1    3    3  503    0 -0.20049705579E+02 -0.11707984156E+03 -0.20587092940E+03  0.23772801594E+03  0.47000000000E+01 0. -1.
         -5    1    3    3    0  503  0.16230844471E+02  0.15347484216E+02 -0.36929592539E+02  0.43415094024E+02  0.47000000000E+01 0.  1.
<mgrwt>
<rscale>  0 0.14137851E+03</rscale>
<asrwt>0</asrwt>
<pdfrwt beam="1">  1        3 0.63036833E-02 0.14173692E+03</pdfrwt>
<pdfrwt beam="2">  1       -3 0.75031905E-01 0.14173692E+03</pdfrwt>
<totfact> 0.62789116E+02</totfact>
</mgrwt>
</event>
<event>
 8    1  0.2964543E-004  0.1183462E+03  0.7546771E-02  0.1255277E+00
          2   -1    0    0  501    0  0.00000000000E+00  0.00000000000E+00  0.43728130383E+03  0.43728130383E+03  0.00000000000E+00 0.  1.
         -2   -1    0    0    0  501 -0.00000000000E+00 -0.00000000000E+00 -0.30693067916E+02  0.30693067916E+02  0.00000000000E+00 0. -1.
         23    2    1    2    0    0 -0.48688866979E+02  0.14681947228E+02  0.26997817438E+03  0.28723106615E+03  0.83829024689E+02 0.  0.
         23    2    1    2    0    0  0.48688866979E+02 -0.14681947228E+02  0.13661006154E+03  0.18074330560E+03  0.10686284791E+03 0.  0.
          5    1    4    4  502    0  0.67767703766E+02 -0.43872730960E+02  0.11048608327E+03  0.13691801485E+03  0.47000000000E+01 0. -1.
         -5    1    3    3    0  503 -0.70250300567E+02  0.11535757549E+02  0.23636671289E+03  0.24689975981E+03  0.47000000000E+01 0.  1.
          5    1    3    3  503    0  0.21561433589E+02  0.31461896788E+01  0.33611461491E+02  0.40331306344E+02  0.47000000000E+01 0. -1.
         -5    1    4    4    0  502 -0.19078836787E+02  0.29190783732E+02  0.26123978273E+02  0.43825290745E+02  0.47000000000E+01 0.  1.
<mgrwt>
<rscale>  0 0.11290830E+03</rscale>
<asrwt>0</asrwt>
<pdfrwt beam="1">  1        2 0.67274042E-01 0.11834624E+03</pdfrwt>
<pdfrwt beam="2">  1       -2 0.47220108E-02 0.11834624E+03</pdfrwt>
<totfact> 0.14429593E+04</totfact>
</mgrwt>
</event>
<event>
 8    1  0.2964543E-004  0.1246542E+03  0.7546771E-02  0.1236214E+00
         -2   -1    0    0    0  501 -0.00000000000E+00  0.00000000000E+00  0.44564670971E+02  0.44564670971E+02  0.00000000000E+00 0.  1.
          2   -1    0    0  501    0  0.00000000000E+00 -0.00000000000E+00 -0.36084781779E+03  0.36084781779E+03  0.00000000000E+00 0. -1.
         23    2    1    2    0    0 -0.13114426628E+02  0.83435362785E+02 -0.11395792357E+03  0.16776956841E+03  0.89592252967E+02 0.  0.
         23    2    1    2    0    0  0.13114426628E+02 -0.83435362785E+02 -0.20232522324E+03  0.23764292034E+03  0.91679952446E+02 0.  0.
          5    1    4    4  502    0 -0.35511000820E+02 -0.51735481616E+02 -0.13277152132E+03  0.14692841151E+03  0.47000000000E+01 0. -1.
         -5    1    4    4    0  502  0.48625427448E+02 -0.31699881169E+02 -0.69553701927E+02  0.90714508831E+02  0.47000000000E+01 0.  1.
          5    1    3    3  503    0  0.35041959373E+02  0.17911967862E+02 -0.52252424882E+02  0.65583408080E+02  0.47000000000E+01 0.  1.
         -5    1    3    3    0  503 -0.48156386001E+02  0.65523394923E+02 -0.61705498692E+02  0.10218616033E+03  0.47000000000E+01 0. -1.
<mgrwt>
<rscale>  0 0.12427057E+03</rscale>
<asrwt>0</asrwt>
<pdfrwt beam="1">  1        2 0.55515046E-01 0.12465417E+03</pdfrwt>
<pdfrwt beam="2">  1       -2 0.68561036E-02 0.12465417E+03</pdfrwt>
<totfact> 0.10132210E+04</totfact>
</mgrwt>
</event>
<event>
 8    1  0.2964543E-004  0.1055025E+03  0.7546771E-02  0.1271548E+00
          3   -1    0    0  501    0  0.00000000000E+00  0.00000000000E+00  0.69603498742E+02  0.69603498742E+02  0.00000000000E+00 0. -1.
         -3   -1    0    0    0  501 -0.00000000000E+00 -0.00000000000E+00 -0.21640444053E+03  0.21640444053E+03  0.00000000000E+00 0.  1.
         23    2    1    2    0    0 -0.16574067164E+01  0.40979721704E+02 -0.15217902379E+03  0.18517354323E+03  0.97204430170E+02 0.  0.
         23    2    1    2    0    0  0.16574067164E+01 -0.40979721704E+02  0.53780819964E+01  0.10083439604E+03  0.91959594775E+02 0.  0.
          5    1    3    3  502    0 -0.27463455510E+02 -0.19531594591E+02 -0.82450214490E+02  0.89195585346E+02  0.47000000000E+01 0. -1.
         -5    1    3    3    0  502  0.25806048794E+02  0.60511316295E+02 -0.69728809299E+02  0.95977957888E+02  0.47000000000E+01 0.  1.
          5    1    4    4  503    0  0.25619602342E+02 -0.62045227827E+02  0.10738666612E+02  0.68142375075E+02  0.47000000000E+01 0. -1.
         -5    1    4    4    0  503 -0.23962195626E+02  0.21065506123E+02 -0.53605846156E+01  0.32692020966E+02  0.47000000000E+01 0.  1.
<mgrwt>
<rscale>  0 0.10427848E+03</rscale>
<asrwt>0</asrwt>
<pdfrwt beam="1">  1        3 0.10708231E-01 0.10550254E+03</pdfrwt>
<pdfrwt beam="2">  1       -3 0.33292991E-01 0.10550254E+03</pdfrwt>
<totfact> 0.12797044E+03</totfact>
</mgrwt>
</event>
<event>
 8    1  0.2964543E-004  0.9760751E+02  0.7546771E-02  0.1286807E+00
         -2   -1    0    0    0  501 -0.00000000000E+00  0.00000000000E+00  0.88255812666E+02  0.88255812666E+02  0.00000000000E+00 0.  1.
          2   -1    0    0  501    0  0.00000000000E+00 -0.00000000000E+00 -0.26985337521E+03  0.26985337521E+03  0.00000000000E+00 0. -1.
         23    2    1    2    0    0  0.17180416894E+02 -0.25755833597E+02  0.48610991659E+02  0.10904243999E+03  0.92567248631E+02 0.  0.
         23    2    1    2    0    0 -0.17180416894E+02  0.25755833597E+02 -0.23020855421E+03  0.24906674789E+03  0.89887356102E+02 0.  0.
          5    1    4    4  502    0 -0.14926861307E+02  0.56253392693E+02 -0.10552896341E+03  0.12060558650E+03  0.47000000000E+01 0. -1.
         -5    1    4    4    0  502 -0.22535555875E+01 -0.30497559096E+02 -0.12467959080E+03  0.12846116139E+03  0.47000000000E+01 0.  1.
          5    1    3    3  503    0  0.32401256764E+02  0.17827778702E+02 -0.55840744533E+01  0.37695397873E+02  0.47000000000E+01 0. -1.
         -5    1    3    3    0  503 -0.15220839870E+02 -0.43583612299E+02  0.54195066112E+02  0.71347042113E+02  0.47000000000E+01 0.  1.
<mgrwt>
<rscale>  0 0.96966798E+02</rscale>
<asrwt>0</asrwt>
<pdfrwt beam="1">  1        2 0.41515903E-01 0.97607506E+02</pdfrwt>
<pdfrwt beam="2">  1       -2 0.13577818E-01 0.97607506E+02</pdfrwt>
<totfact> 0.46568619E+03</totfact>
</mgrwt>
</event>
<event>
 8    1  0.2964543E-004  0.1224368E+03  0.7546771E-02  0.1240458E+00
         -3   -1    0    0    0  501 -0.00000000000E+00  0.00000000000E+00  0.16457246565E+03  0.16457246565E+03  0.00000000000E+00 0.  1.
          3   -1    0    0  501    0  0.00000000000E+00 -0.00000000000E+00 -0.12206756668E+03  0.12206756668E+03  0.00000000000E+00 0. -1.
         23    2    1    2    0    0 -0.50434883784E+02  0.64531432965E+02 -0.53904648371E+02  0.13080175624E+03  0.86576006932E+02 0.  0.
         23    2    1    2    0    0  0.50434883784E+02 -0.64531432965E+02  0.96409547347E+02  0.15583827609E+03  0.91009802404E+02 0.  0.
          5    1    4    4  502    0 -0.36348171889E+01 -0.64179044550E+02  0.33124402013E+02  0.72467079864E+02  0.47000000000E+01 0. -1.
         -5    1    4    4    0  502  0.54069700973E+02 -0.35238841511E+00  0.63285145334E+02  0.83371196230E+02  0.47000000000E+01 0.  1.
          5    1    3    3  503    0  0.14420905675E+02  0.19371108858E+02  0.12384982028E+02  0.27544149264E+02  0.47000000000E+01 0.  1.
         -5    1    3    3    0  503 -0.64855789459E+02  0.45160324107E+02 -0.66289630399E+02  0.10325760697E+03  0.47000000000E+01 0. -1.
<mgrwt>
<rscale>  0 0.12161382E+03</rscale>
<asrwt>0</asrwt>
<pdfrwt beam="1">  1        3 0.18779626E-01 0.12243679E+03</pdfrwt>
<pdfrwt beam="2">  1       -3 0.25318841E-01 0.12243679E+03</pdfrwt>
<totfact> 0.83664317E+02</totfact>
</mgrwt>
</event>
<event>
 8    1  0.2964543E-004  0.1180567E+03  0.7546771E-02  0.1259815E+00
         -2   -1    0    0    0  501 -0.00000000000E+00  0.00000000000E+00  0.90903091311E+02  0.90903091311E+02  0.00000000000E+00 0.  1.
          2   -1    0    0  501    0  0.00000000000E+00 -0.00000000000E+00 -0.18867456035E+03  0.18867456035E+03  0.00000000000E+00 0. -1.
         23    2    1    2    0    0  0.66825759215E+02 -0.20536700926E+02 -0.13722896996E+03  0.18102260792E+03  0.95131257753E+02 0.  0.
         23    2    1    2    0    0 -0.66825759215E+02  0.20536700926E+02  0.39457500922E+02  0.98555043742E+02  0.57173106339E+02 0.  0.
          5    1    4    4  502    0 -0.21670978072E+02  0.34809587872E+02  0.95989423771E+01  0.42374147699E+02  0.47000000000E+01 0. -1.
         -5    1    4    4    0  502 -0.45154781143E+02 -0.14272886947E+02  0.29858558545E+02  0.56180896043E+02  0.47000000000E+01 0.  1.
          5    1    3    3  503    0  0.30799096480E+02 -0.46354661920E+02 -0.12156112737E+03  0.13377793807E+03  0.47000000000E+01 0. -1.
         -5    1    3    3    0  503  0.36026662734E+02  0.25817960994E+02 -0.15667842584E+02  0.47244669846E+02  0.47000000000E+01 0.  1.
<mgrwt>
<rscale>  0 0.11040890E+03</rscale>
<asrwt>0</asrwt>
<pdfrwt beam="1">  1        2 0.29026855E-01 0.11805674E+03</pdfrwt>
<pdfrwt beam="2">  1       -2 0.13985091E-01 0.11805674E+03</pdfrwt>
<totfact> 0.65835784E+03</totfact>
</mgrwt>
</event>
<event>
 8    1  0.2964543E-004  0.9611583E+02  0.7546771E-02  0.1289871E+00
          4   -1    0    0  501    0  0.00000000000E+00  0.00000000000E+00  0.87313385839E+02  0.87313385839E+02  0.00000000000E+00 0. -1.
         -4   -1    0    0    0  501 -0.00000000000E+00 -0.00000000000E+00 -0.10590289767E+03  0.10590289767E+03  0.00000000000E+00 0.  1.
         23    2    1    2    0    0 -0.27164482475E+02  0.61527641824E+01  0.51960629416E+01  0.96256181594E+02  0.91991781207E+02 0.  0.
         23    2    1    2    0    0  0.27164482475E+02 -0.61527641824E+01 -0.23785574776E+02  0.96960101919E+02  0.89776066864E+02 0.  0.
          5    1    4    4  502    0  0.58894013871E+02 -0.39259151778E+00 -0.48782999504E+01  0.59283613321E+02  0.47000000000E+01 0. -1.
         -5    1    4    4    0  502 -0.31729531396E+02 -0.57601726646E+01 -0.18907274826E+02  0.37676488598E+02  0.47000000000E+01 0.  1.
          5    1    3    3  503    0  0.14561255269E+02 -0.27869419773E+02  0.23128203093E+02  0.39315880911E+02  0.47000000000E+01 0. -1.
         -5    1    3    3    0  503 -0.41725737744E+02  0.34022183956E+02 -0.17932140152E+02  0.56940300682E+02  0.47000000000E+01 0.  1.
<mgrwt>
<rscale>  0 0.95581786E+02</rscale>
<asrwt>0</asrwt>
<pdfrwt beam="1">  1        4 0.13432829E-01 0.96115833E+02</pdfrwt>
<pdfrwt beam="2">  1       -4 0.16292753E-01 0.96115833E+02</pdfrwt>
<totfact> 0.22461743E+03</totfact>
</mgrwt>
</event>
<event>
 8    1  0.2964543E-004  0.1041857E+03  0.7546771E-02  0.1271739E+00
         -2   -1    0    0    0  501 -0.00000000000E+00  0.00000000000E+00  0.13004298758E+03  0.13004298758E+03  0.00000000000E+00 0.  1.
          2   -1    0    0  501    0  0.00000000000E+00 -0.00000000000E+00 -0.74746802777E+03  0.74746802777E+03  0.00000000000E+00 0. -1.
         23    2    1    2    0    0 -0.16862978982E+02  0.52441336107E+02  0.10482540799E+03  0.14778479012E+03  0.88416764460E+02 0.  0.
         23    2    1    2    0    0  0.16862978982E+02 -0.52441336107E+02 -0.72225044818E+03  0.72972622523E+03  0.88431895242E+02 0.  0.
          5    1    3    3  502    0 -0.38051710342E+00  0.64168307693E+02  0.31621054801E+02  0.71691684401E+02  0.47000000000E+01 0. -1.
         -5    1    4    4    0  503 -0.33817806566E+02 -0.60030246399E+01 -0.28069889651E+03  0.28283147076E+03  0.47000000000E+01 0.  1.
          5    1    4    4  503    0  0.50680785549E+02 -0.46438311467E+02 -0.44155155167E+03  0.44689475447E+03  0.47000000000E+01 0. -1.
         -5    1    3    3    0  502 -0.16482461879E+02 -0.11726971587E+02  0.73204353186E+02  0.76093105717E+02  0.47000000000E+01 0.  1.
<mgrwt>
<rscale>  0 0.10418246E+03</rscale>
<asrwt>0</asrwt>
<pdfrwt beam="1">  1        2 0.11499509E+00 0.10418567E+03</pdfrwt>
<pdfrwt beam="2">  1       -2 0.20006613E-01 0.10418567E+03</pdfrwt>
<totfact> 0.81612341E+02</totfact>
</mgrwt>
</event>
<event>
 8    1  0.2964543E-004  0.9959336E+02  0.7546771E-02  0.1282389E+00
          1   -1    0    0  501    0  0.00000000000E+00  0.00000000000E+00  0.67885240471E+03  0.67885240471E+03  0.00000000000E+00 0. -1.
         -1   -1    0    0    0  501 -0.00000000000E+00 -0.00000000000E+00 -0.19213901178E+02  0.19213901178E+02  0.00000000000E+00 0.  1.
         23    2    1    2    0    0  0.11273045944E+02 -0.33358583721E+02  0.14998628823E+03  0.17877427153E+03  0.90688901361E+02 0.  0.
         23    2    1    2    0    0 -0.11273045944E+02  0.33358583721E+02  0.50965221530E+03  0.51929203436E+03  0.93160934501E+02 0.  0.
          5    1    3    3  502    0  0.22053466708E+02  0.27308273982E+02  0.58030893294E+02  0.67983614189E+02  0.47000000000E+01 0. -1.
         -5    1    3    3    0  502 -0.10780420765E+02 -0.60666857703E+02  0.91955394936E+02  0.11079065734E+03  0.47000000000E+01 0.  1.
          5    1    4    4  503    0 -0.87125085409E+01  0.64130933263E+02  0.40187226050E+03  0.40707749651E+03  0.47000000000E+01 0. -1.
         -5    1    4    4    0  503 -0.25605374027E+01 -0.30772349541E+02  0.10777995480E+03  0.11221453785E+03  0.47000000000E+01 0.  1.
<mgrwt>
<rscale>  0 0.99011158E+02</rscale>
<asrwt>0</asrwt>
<pdfrwt beam="1">  1        1 0.10443881E+00 0.99593355E+02</pdfrwt>
<pdfrwt beam="2">  1       -1 0.29559853E-02 0.99593355E+02</pdfrwt>
<totfact> 0.10630630E+04</totfact>
</mgrwt>
</event>
<event>
 8    1  0.2964543E-004  0.1234264E+03  0.7546771E-02  0.1238793E+00
         -1   -1    0    0    0  501 -0.00000000000E+00  0.00000000000E+00  0.11673196633E+03  0.11673196633E+03  0.00000000000E+00 0.  1.
          1   -1    0    0  501    0  0.00000000000E+00 -0.00000000000E+00 -0.30553054131E+03  0.30553054131E+03  0.00000000000E+00 0. -1.
         23    2    1    2    0    0  0.73850223898E+02 -0.25399265732E+02  0.67368147898E+02  0.13791157281E+03  0.91554116750E+02 0.  0.
         23    2    1    2    0    0 -0.73850223898E+02  0.25399265732E+02 -0.25616672288E+03  0.28435093482E+03  0.95577643603E+02 0.  0.
          5    1    4    4  502    0 -0.38242796132E+02  0.30203168793E+02 -0.23952318006E+03  0.24447532932E+03  0.47000000000E+01 0. -1.
         -5    1    3    3    0  503  0.74762595224E+02 -0.48338367381E+02  0.71291870396E+02  0.11415193468E+03  0.47000000000E+01 0.  1.
          5    1    3    3  503    0 -0.91237132615E+00  0.22939101650E+02 -0.39237224982E+01  0.23759638132E+02  0.47000000000E+01 0. -1.
         -5    1    4    4    0  502 -0.35607427766E+02 -0.48039030619E+01 -0.16643542818E+02  0.39875605503E+02  0.47000000000E+01 0.  1.
<mgrwt>
<rscale>  0 0.12264681E+03</rscale>
<asrwt>0</asrwt>
<pdfrwt beam="1">  1        1 0.47004698E-01 0.12342635E+03</pdfrwt>
<pdfrwt beam="2">  1       -1 0.17958764E-01 0.12342635E+03</pdfrwt>
<totfact> 0.20062167E+03</totfact>
</mgrwt>
</event>
<event>
 8    1  0.2964543E-004  0.9884521E+02  0.7546771E-02  0.1286006E+00
         -1   -1    0    0    0  501 -0.00000000000E+00  0.00000000000E+00  0.31413297512E+02  0.31413297512E+02  0.00000000000E+00 0.  1.
          1   -1    0    0  501    0  0.00000000000E+00 -0.00000000000E+00 -0.32203180795E+03  0.32203180795E+03  0.00000000000E+00 0. -1.
         23    2    1    2    0    0 -0.31918674972E+02  0.15708513044E+02 -0.87933289792E+02  0.12794194592E+03  0.85856385186E+02 0.  0.
         23    2    1    2    0    0  0.31918674972E+02 -0.15708513044E+02 -0.20268522064E+03  0.22550315954E+03  0.92221565281E+02 0.  0.
          5    1    3    3  502    0 -0.47579920090E+01  0.49111824458E+02 -0.44597608989E+02  0.66675681602E+02  0.47000000000E+01 0. -1.
         -5    1    4    4    0  503  0.71329087272E+01 -0.37520858591E+02 -0.18251671343E+03  0.18652917707E+03  0.47000000000E+01 0.  1.
          5    1    4    4  503    0  0.24785766245E+02  0.21812345547E+02 -0.20168507208E+02  0.38973982471E+02  0.47000000000E+01 0. -1.
         -5    1    3    3    0  502 -0.27160682963E+02 -0.33403311413E+02 -0.43335680804E+02  0.61266264315E+02  0.47000000000E+01 0.  1.
<mgrwt>
<rscale>  0 0.97333274E+02</rscale>
<asrwt>0</asrwt>
<pdfrwt beam="1">  1        1 0.49543355E-01 0.98845214E+02</pdfrwt>
<pdfrwt beam="2">  1       -1 0.48328150E-02 0.98845214E+02</pdfrwt>
<totfact> 0.13569812E+04</totfact>
</mgrwt>
</event>
<event>
 8    1  0.2964543E-004  0.1231463E+03  0.7546771E-02  0.1238403E+00
         -1   -1    0    0    0  501 -0.00000000000E+00  0.00000000000E+00  0.31811099706E+03  0.31811099706E+03  0.00000000000E+00 0.  1.
          1   -1    0    0  501    0  0.00000000000E+00 -0.00000000000E+00 -0.47331923776E+02  0.47331923776E+02  0.00000000000E+00 0. -1.
         23    2    1    2    0    0  0.21904742942E+02  0.78418927545E+02  0.12867981988E+03  0.17740779197E+03  0.91025725199E+02 0.  0.
         23    2    1    2    0    0 -0.21904742942E+02 -0.78418927545E+02  0.14209925341E+03  0.18803512886E+03  0.92388667634E+02 0.  0.
          5    1    4    4  502    0 -0.31683413600E+02 -0.41904695783E+02  0.14254657899E+02  0.54636320317E+02  0.47000000000E+01 0. -1.
         -5    1    4    4    0  502  0.97786706572E+01 -0.36514231762E+02  0.12784459551E+03  0.13339880855E+03  0.47000000000E+01 0.  1.
          5    1    3    3  503    0  0.32532102589E+02 -0.86230995328E+01  0.41911936141E+02  0.53957352932E+02  0.47000000000E+01 0. -1.
         -5    1    3    3    0  503 -0.10627359647E+02  0.87042027078E+02  0.86767883735E+02  0.12345043904E+03  0.47000000000E+01 0.  1.
<mgrwt>
<rscale>  0 0.12289071E+03</rscale>
<asrwt>0</asrwt>
<pdfrwt beam="1">  1        1 0.72818346E-02 0.12314630E+03</pdfrwt>
<pdfrwt beam="2">  1       -1 0.48940152E-01 0.12314630E+03</pdfrwt>
<totfact> 0.40270649E+03</totfact>
</mgrwt>
</event>
<event>
 8    1  0.2964543E-004  0.9895054E+02  0.7546771E-02  0.1285061E+00
          1   -1    0    0  501    0  0.00000000000E+00  0.00000000000E+00  0.12875270547E+03  0.12875270547E+03  0.00000000000E+00 0. -1.
         -1   -1    0    0    0  501 -0.00000000000E+00 -0.00000000000E+00 -0.13061441053E+03  0.13061441053E+03  0.00000000000E+00 0.  1.
         23    2    1    2    0    0  0.34045745785E+02  0.20521035166E+01 -0.87394762411E+02  0.12857294965E+03  0.87919479929E+02 0.  0.
         23    2    1    2    0    0 -0.34045745785E+02 -0.20521035166E+01  0.85533057350E+02  0.13079416635E+03  0.92886415129E+02 0.  0.
          5    1    4    4  502    0  0.13907592441E+02 -0.22119124000E+02  0.72196143232E+02  0.76922362624E+02  0.47000000000E+01 0. -1.
         -5    1    3    3    0  503  0.31600909667E+02 -0.40127335575E+02 -0.54329288786E+02  0.74716679344E+02  0.47000000000E+01 0.  1.
          5    1    3    3  503    0  0.24448361175E+01  0.42179439092E+02 -0.33065473625E+02  0.53856270311E+02  0.47000000000E+01 0. -1.
         -5    1    4    4    0  502 -0.47953338226E+02  0.20067020483E+02  0.13336914117E+02  0.53871803722E+02  0.47000000000E+01 0.  1.
<mgrwt>
<rscale>  0 0.97767755E+02</rscale>
<asrwt>0</asrwt>
<pdfrwt beam="1">  1        1 0.19808109E-01 0.98950543E+02</pdfrwt>
<pdfrwt beam="2">  1       -1 0.20094525E-01 0.98950543E+02</pdfrwt>
<totfact> 0.48397221E+03</totfact>
</mgrwt>
</event>
<event>
 8    1  0.2964543E-004  0.1156027E+03  0.7546771E-02  0.1250864E+00
          2   -1    0    0  501    0  0.00000000000E+00  0.00000000000E+00  0.29644360443E+02  0.29644360443E+02  0.00000000000E+00 0. -1.
         -2   -1    0    0    0  501 -0.00000000000E+00 -0.00000000000E+00 -0.47851015883E+03  0.47851015883E+03  0.00000000000E+00 0.  1.
         23    2    1    2    0    0  0.71161505935E+02 -0.16072564958E+02 -0.16080508958E+03  0.19804612145E+03  0.89675538013E+02 0.  0.
         23    2    1    2    0    0 -0.71161505935E+02  0.16072564958E+02 -0.28806070881E+03  0.31010839782E+03  0.88690242794E+02 0.  0.
          5    1    4    4  502    0 -0.15062393695E+02  0.15337350474E+02 -0.64577715497E+01  0.22932571525E+02  0.47000000000E+01 0. -1.
         -5    1    3    3    0  503 -0.88030033690E+01  0.23563981041E+02 -0.27607553302E+02  0.37643340316E+02  0.47000000000E+01 0.  1.
          5    1    3    3  503    0  0.79964509304E+02 -0.39636546000E+02 -0.13319753628E+03  0.16040278114E+03  0.47000000000E+01 0. -1.
         -5    1    4    4    0  502 -0.56099112240E+02  0.73521448467E+00 -0.28160293726E+03  0.28717582629E+03  0.47000000000E+01 0.  1.
<mgrwt>
<rscale>  0 0.11541159E+03</rscale>
<asrwt>0</asrwt>
<pdfrwt beam="1">  1        2 0.45606709E-02 0.11560272E+03</pdfrwt>
<pdfrwt beam="2">  1       -2 0.73616946E-01 0.11560272E+03</pdfrwt>
<totfact> 0.28712473E+03</totfact>
</mgrwt>
</event>
<event>
 8    1  0.2964543E-004  0.1005129E+03  0.7546771E-02  0.1280518E+00
          1   -1    0    0  501    0  0.00000000000E+00  0.00000000000E+00  0.22385457588E+03  0.22385457588E+03  0.00000000000E+00 0. -1.
         -1   -1    0    0    0  501 -0.00000000000E+00 -0.00000000000E+00 -0.92423002187E+02  0.92423002187E+02  0.00000000000E+00 0.  1.
         23    2    1    2    0    0  0.14618008142E+02 -0.34748426085E+02  0.18051973483E+03  0.20661612102E+03  0.93175680959E+02 0.  0.
         23    2    1    2    0    0 -0.14618008142E+02  0.34748426085E+02 -0.49088161137E+02  0.10966145705E+03  0.90525401528E+02 0.  0.
          5    1    4    4  502    0  0.30231558262E+02  0.34886029242E+02 -0.51265335728E+01  0.46683546328E+02  0.47000000000E+01 0. -1.
         -5    1    4    4    0  502 -0.44849566405E+02 -0.13760315719E+00 -0.43961627564E+02  0.62977910726E+02  0.47000000000E+01 0.  1.
          5    1    3    3  503    0  0.26949115891E+02 -0.62650648138E+02  0.13877787679E+03  0.15470212553E+03  0.47000000000E+01 0. -1.
         -5    1    3    3    0  503 -0.12331107748E+02  0.27902222053E+02  0.41741858046E+02  0.51913995482E+02  0.47000000000E+01 0.  1.
<mgrwt>
<rscale>  0 0.99894287E+02</rscale>
<asrwt>0</asrwt>
<pdfrwt beam="1">  1        1 0.34439165E-01 0.10051292E+03</pdfrwt>
<pdfrwt beam="2">  1       -1 0.14218924E-01 0.10051292E+03</pdfrwt>
<totfact> 0.41966940E+03</totfact>
</mgrwt>
</event>
<event>
 8    1  0.2964543E-004  0.1115701E+03  0.7546771E-02  0.1258850E+00
          2   -1    0    0  501    0  0.00000000000E+00  0.00000000000E+00  0.25886825097E+03  0.25886825097E+03  0.00000000000E+00 0. -1.
         -2   -1    0    0    0  501 -0.00000000000E+00 -0.00000000000E+00 -0.50983792868E+02  0.50983792868E+02  0.00000000000E+00 0.  1.
         23    2    1    2    0    0 -0.61236906960E+02  0.13535195216E+02  0.14612479257E+03  0.18232893084E+03  0.89208877004E+02 0.  0.
         23    2    1    2    0    0  0.61236906960E+02 -0.13535195216E+02  0.61759665531E+02  0.12752311299E+03  0.92275282589E+02 0.  0.
          5    1    3    3  502    0 -0.16264043071E+02  0.48537206992E+02  0.77566439407E+02  0.93053866561E+02  0.47000000000E+01 0. -1.
         -5    1    3    3    0  502 -0.44972863889E+02 -0.35002011776E+02  0.68558353161E+02  0.89275064284E+02  0.47000000000E+01 0.  1.
          5    1    4    4  503    0  0.46208943055E+02  0.33084917459E+02  0.13504139662E+02  0.58603156651E+02  0.47000000000E+01 0.  1.
         -5    1    4    4    0  503  0.15027963906E+02 -0.46620112675E+02  0.48255525869E+02  0.68919956339E+02  0.47000000000E+01 0. -1.
<mgrwt>
<rscale>  0 0.11093407E+03</rscale>
<asrwt>0</asrwt>
<pdfrwt beam="1">  1        2 0.39825884E-01 0.11157010E+03</pdfrwt>
<pdfrwt beam="2">  1       -2 0.78436606E-02 0.11157010E+03</pdfrwt>
<totfact> 0.11607122E+04</totfact>
</mgrwt>
</event>
<event>
 8    1  0.2964543E-004  0.1055990E+03  0.7546771E-02  0.1269544E+00
          1   -1    0    0  501    0  0.00000000000E+00  0.00000000000E+00  0.45943109259E+02  0.45943109259E+02  0.00000000000E+00 0. -1.
         -1   -1    0    0    0  501 -0.00000000000E+00 -0.00000000000E+00 -0.30283864779E+03  0.30283864779E+03  0.00000000000E+00 0.  1.
         23    2    1    2    0    0  0.47210350170E+02 -0.16126734469E+02 -0.20852695442E+03  0.23374055660E+03  0.93071307871E+02 0.  0.
         23    2    1    2    0    0 -0.47210350170E+02  0.16126734469E+02 -0.48368584102E+02  0.11504120045E+03  0.91684617819E+02 0.  0.
          5    1    3    3  502    0 -0.25350646654E+02 -0.33668180883E+01 -0.25645692375E+02  0.36520984204E+02  0.47000000000E+01 0. -1.
         -5    1    4    4    0  503  0.22095269834E+02  0.25089591963E+02 -0.21491256381E+02  0.40020653102E+02  0.47000000000E+01 0.  1.
          5    1    4    4  503    0 -0.69305620004E+02 -0.89628574939E+01 -0.26877327721E+02  0.75020547346E+02  0.47000000000E+01 0. -1.
         -5    1    3    3    0  502  0.72560996824E+02 -0.12759916380E+02 -0.18288126205E+03  0.19721957239E+03  0.47000000000E+01 0.  1.
<mgrwt>
<rscale>  0 0.10529268E+03</rscale>
<asrwt>0</asrwt>
<pdfrwt beam="1">  1        1 0.70681704E-02 0.10559904E+03</pdfrwt>
<pdfrwt beam="2">  1       -1 0.46590563E-01 0.10559904E+03</pdfrwt>
<totfact> 0.45320023E+03</totfact>
</mgrwt>
</event>
<event>
 8    1  0.2964543E-004  0.1074948E+03  0.7546771E-02  0.1267280E+00
         -1   -1    0    0    0  501 -0.00000000000E+00  0.00000000000E+00  0.30026418153E+02  0.30026418153E+02  0.00000000000E+00 0.  1.
          1   -1    0    0  501    0  0.00000000000E+00 -0.00000000000E+00 -0.55864098490E+03  0.55864098490E+03  0.00000000000E+00 0. -1.
         23    2    1    2    0    0 -0.40038241524E+01 -0.49411635505E+02 -0.90017033248E+02  0.13708915009E+03  0.90734935201E+02 0.  0.
         23    2    1    2    0    0  0.40038241524E+01  0.49411635505E+02 -0.43859753350E+03  0.45157825296E+03  0.95381244633E+02 0.  0.
          5    1    4    4  502    0  0.93560537129E+01  0.76955246454E+02 -0.35048173223E+03  0.35898353768E+03  0.47000000000E+01 0. -1.
         -5    1    3    3    0  503  0.30795732337E+02 -0.38871337113E+02 -0.12529561510E+02  0.51365726810E+02  0.47000000000E+01 0.  1.
          5    1    3    3  503    0 -0.34799556490E+02 -0.10540298392E+02 -0.77487471738E+02  0.85723423277E+02  0.47000000000E+01 0. -1.
         -5    1    4    4    0  502 -0.53522295606E+01 -0.27543610950E+02 -0.88115801269E+02  0.92594715285E+02  0.47000000000E+01 0.  1.
<mgrwt>
<rscale>  0 0.10645463E+03</rscale>
<asrwt>0</asrwt>
<pdfrwt beam="1">  1        1 0.85944760E-01 0.10749475E+03</pdfrwt>
<pdfrwt beam="2">  1       -1 0.46194493E-02 0.10749475E+03</pdfrwt>
<totfact> 0.72763503E+03</totfact>
</mgrwt>
</event>
<event>
 8    1  0.2964543E-004  0.1063270E+03  0.7546771E-02  0.1268084E+00
         -2   -1    0    0    0  501 -0.00000000000E+00  0.00000000000E+00  0.12659766865E+03  0.12659766865E+03  0.00000000000E+00 0.  1.
          2   -1    0    0  501    0  0.00000000000E+00 -0.00000000000E+00 -0.21250293565E+03  0.21250293565E+03  0.00000000000E+00 0. -1.
         23    2    1    2    0    0  0.41824090082E+02  0.28896604975E+02  0.86549805085E+02  0.13709957816E+03  0.93387136592E+02 0.  0.
         23    2    1    2    0    0 -0.41824090082E+02 -0.28896604975E+02 -0.17245507209E+03  0.20200102614E+03  0.92083627106E+02 0.  0.
          5    1    3    3  502    0 -0.10413575106E+01 -0.26250729928E+02  0.53280060701E+02  0.59590604255E+02  0.47000000000E+01 0. -1.
         -5    1    3    3    0  502  0.42865447592E+02  0.55147334903E+02  0.33269744384E+02  0.77508973903E+02  0.47000000000E+01 0.  1.
          5    1    4    4  503    0  0.13893747367E+02 -0.18158981113E+02 -0.12704851064E+03  0.12917507061E+03  0.47000000000E+01 0. -1.
         -5    1    4    4    0  503 -0.55717837449E+02 -0.10737623862E+02 -0.45406561455E+02  0.72825955533E+02  0.47000000000E+01 0.  1.
<mgrwt>
<rscale>  0 0.10604006E+03</rscale>
<asrwt>0</asrwt>
<pdfrwt beam="1">  1        2 0.32692759E-01 0.10632697E+03</pdfrwt>
<pdfrwt beam="2">  1       -2 0.19476565E-01 0.10632697E+03</pdfrwt>
<totfact> 0.33379122E+03</totfact>
</mgrwt>
</event>
<event>
 8    1  0.2964543E-004  0.1023026E+03  0.7546771E-02  0.1276399E+00
         -1   -1    0    0    0  501 -0.00000000000E+00  0.00000000000E+00  0.21871382356E+02  0.21871382356E+02  0.00000000000E+00 0.  1.
          1   -1    0    0  501    0  0.00000000000E+00 -0.00000000000E+00 -0.59433976613E+03  0.59433976613E+03  0.00000000000E+00 0. -1.
         23    2    1    2    0    0  0.41315797644E+02  0.17121593650E+02 -0.42490683721E+03  0.43665549110E+03  0.90122436125E+02 0.  0.
         23    2    1    2    0    0 -0.41315797644E+02 -0.17121593650E+02 -0.14756154656E+03  0.17955565738E+03  0.92009129827E+02 0.  0.
          5    1    3    3  502    0  0.55307755059E+02  0.38811096161E+02 -0.36536775355E+03  0.37159243034E+03  0.47000000000E+01 0. -1.
         -5    1    4    4    0  503 -0.12850211268E+02 -0.53838821303E+02 -0.83124772741E+02  0.99977819801E+02  0.47000000000E+01 0.  1.
          5    1    4    4  503    0 -0.28465586376E+02  0.36717227653E+02 -0.64436773817E+02  0.79577837581E+02  0.47000000000E+01 0. -1.
         -5    1    3    3    0  502 -0.13991957415E+02 -0.21689502511E+02 -0.59539083666E+02  0.65063060759E+02  0.47000000000E+01 0.  1.
<mgrwt>
<rscale>  0 0.10187659E+03</rscale>
<asrwt>0</asrwt>
<pdfrwt beam="1">  1        1 0.91436892E-01 0.10230261E+03</pdfrwt>
<pdfrwt beam="2">  1       -1 0.33648279E-02 0.10230261E+03</pdfrwt>
<totfact> 0.10594849E+04</totfact>
</mgrwt>
</event>
<event>
 7    1  0.2964543E-004  0.3067795E+03  0.7546771E-02  0.1094957E+00
         -3   -1    0    0    0  501 -0.00000000000E+00  0.00000000000E+00  0.18429439547E+03  0.18429439547E+03  0.00000000000E+00 0.  1.
          3   -1    0    0  501    0  0.00000000000E+00 -0.00000000000E+00 -0.38628083594E+03  0.38628083594E+03  0.00000000000E+00 0. -1.
         23    2    1    2    0    0 -0.85479526500E+02  0.17766195491E+03 -0.13808017690E+03  0.25721013454E+03  0.90666412667E+02 0.  0.
          5    1    3    3  502    0 -0.98289417839E+02  0.11852100424E+03 -0.11515631240E+03  0.19233071619E+03  0.47000000000E+01 0. -1.
         -5    1    3    3    0  502  0.12809891339E+02  0.59140950662E+02 -0.22923864501E+02  0.64879418347E+02  0.47000000000E+01 0.  1.
          5    1    1    2  503    0  0.62049095470E+02  0.45142549749E+02  0.97388647647E+01  0.77491131966E+02  0.47000000000E+01 0. -1.
         -5    1    1    2    0  503  0.23430431030E+02 -0.22280450465E+03 -0.73645128326E+02  0.23587396490E+03  0.47000000000E+01 0.  1.
<mgrwt>
<rscale>  0 0.28134352E+03</rscale>
<asrwt>0</asrwt>
<pdfrwt beam="1">  1        3 0.59427820E-01 0.30677952E+03</pdfrwt>
<pdfrwt beam="2">  1       -3 0.28352985E-01 0.30677952E+03</pdfrwt>
<totfact> 0.84558519E+01</totfact>
</mgrwt>
</event>
<event>
 8    1  0.2964543E-004  0.9443256E+02  0.7546771E-02  0.1294080E+00
          2   -1    0    0  501    0  0.00000000000E+00  0.00000000000E+00  0.42547195060E+03  0.42547195060E+03  0.00000000000E+00 0. -1.
         -2   -1    0    0    0  501 -0.00000000000E+00 -0.00000000000E+00 -0.25969515619E+02  0.25969515619E+02  0.00000000000E+00 0.  1.
         23    2    1    2    0    0  0.37953449991E+01  0.29119797652E+02  0.92306782315E+02  0.13005901795E+03  0.86789623975E+02 0.  0.
         23    2    1    2    0    0 -0.37953449991E+01 -0.29119797652E+02  0.30719565266E+03  0.32138244826E+03  0.89750441665E+02 0.  0.
          5    1    4    4  502    0  0.40442223166E+02 -0.27321614515E+02  0.18269710496E+03  0.18916227477E+03  0.47000000000E+01 0. -1.
         -5    1    4    4    0  502 -0.44237568165E+02 -0.17981831377E+01  0.12449854770E+03  0.13222017350E+03  0.47000000000E+01 0.  1.
          5    1    3    3  503    0 -0.96319475751E+01 -0.24021896991E+02  0.61773579250E+02  0.67140829921E+02  0.47000000000E+01 0. -1.
         -5    1    3    3    0  503  0.13427292574E+02  0.53141694643E+02  0.30533203065E+02  0.62918188029E+02  0.47000000000E+01 0.  1.
<mgrwt>
<rscale>  0 0.93722242E+02</rscale>
<asrwt>0</asrwt>
<pdfrwt beam="1">  1        2 0.65457218E-01 0.94432563E+02</pdfrwt>
<pdfrwt beam="2">  1       -2 0.39953104E-02 0.94432563E+02</pdfrwt>
<totfact> 0.18645861E+04</totfact>
</mgrwt>
</event>
<event>
 8    1  0.2964543E-004  0.9973241E+02  0.7546771E-02  0.1282446E+00
         -1   -1    0    0    0  501 -0.00000000000E+00  0.00000000000E+00  0.15691755689E+03  0.15691755689E+03  0.00000000000E+00 0.  1.
          1   -1    0    0  501    0  0.00000000000E+00 -0.00000000000E+00 -0.62038075533E+02  0.62038075533E+02  0.00000000000E+00 0. -1.
         23    2    1    2    0    0 -0.14379232716E+02 -0.28628684940E+02  0.58141863236E+02  0.11544275323E+03  0.94446752607E+02 0.  0.
         23    2    1    2    0    0  0.14379232716E+02  0.28628684940E+02  0.36737618119E+02  0.10351287919E+03  0.91317575737E+02 0.  0.
          5    1    4    4  502    0  0.66738041147E+01  0.58755800854E+02  0.61443985798E+01  0.59637466657E+02  0.47000000000E+01 0. -1.
         -5    1    4    4    0  502  0.77054286009E+01 -0.30127115914E+02  0.30593219540E+02  0.43875412534E+02  0.47000000000E+01 0.  1.
          5    1    3    3  503    0 -0.46702767956E+02  0.59403463384E+01  0.11204153396E+02  0.48621592967E+02  0.47000000000E+01 0. -1.
         -5    1    3    3    0  503  0.32323535240E+02 -0.34569031278E+02  0.46937709839E+02  0.66821160263E+02  0.47000000000E+01 0.  1.
<mgrwt>
<rscale>  0 0.98984507E+02</rscale>
<asrwt>0</asrwt>
<pdfrwt beam="1">  1        1 0.95443193E-02 0.99732407E+02</pdfrwt>
<pdfrwt beam="2">  1       -1 0.24141163E-01 0.99732407E+02</pdfrwt>
<totfact> 0.92406533E+03</totfact>
</mgrwt>
</event>
<event>
 7    1  0.2964543E-004  0.1861449E+03  0.7546771E-02  0.1176408E+00
         -1   -1    0    0    0  501 -0.00000000000E+00  0.00000000000E+00  0.31741294612E+03  0.31741294612E+03  0.00000000000E+00 0.  1.
          1   -1    0    0  501    0  0.00000000000E+00 -0.00000000000E+00 -0.11860652527E+03  0.11860652527E+03  0.00000000000E+00 0. -1.
         23    2    1    2    0    0 -0.69279709752E+02 -0.72236773089E+02  0.21060704819E+03  0.24950086958E+03  0.88755425794E+02 0.  0.
          5    1    1    2  502    0  0.99811831885E+02  0.10868515275E+02 -0.45103511383E+02  0.11016779542E+03  0.47000000000E+01 0. -1.
         -5    1    1    2    0  502 -0.30532122133E+02  0.61368257814E+02  0.33302884047E+02  0.76350806381E+02  0.47000000000E+01 0.  1.
          5    1    3    3  503    0 -0.84356503802E+02 -0.52269130096E+02  0.19700258074E+03  0.22063587314E+03  0.47000000000E+01 0.  1.
         -5    1    3    3    0  503  0.15076794050E+02 -0.19967642994E+02  0.13604467442E+02  0.28864996448E+02  0.47000000000E+01 0. -1.
<mgrwt>
<rscale>  0 0.17138821E+03</rscale>
<asrwt>0</asrwt>
<pdfrwt beam="1">  1        1 0.18247158E-01 0.18614493E+03</pdfrwt>
<pdfrwt beam="2">  1       -1 0.48832761E-01 0.18614493E+03</pdfrwt>
<totfact> 0.12257715E+03</totfact>
</mgrwt>
</event>
<event>
 8    1  0.2964543E-004  0.9755020E+02  0.7546771E-02  0.1286284E+00
          1   -1    0    0  501    0  0.00000000000E+00  0.00000000000E+00  0.11393234755E+03  0.11393234755E+03  0.00000000000E+00 0. -1.
         -1   -1    0    0    0  501 -0.00000000000E+00 -0.00000000000E+00 -0.82997611283E+02  0.82997611283E+02  0.00000000000E+00 0.  1.
         23    2    1    2    0    0  0.10743146492E+02  0.31291048800E+02  0.69071210655E+01  0.97794431085E+02  0.91768717427E+02 0.  0.
         23    2    1    2    0    0 -0.10743146492E+02 -0.31291048800E+02  0.24027615200E+02  0.99135527746E+02  0.90310473577E+02 0.  0.
          5    1    3    3  502    0  0.24625632258E+02  0.49534397803E+02  0.31512816239E+02  0.63837496169E+02  0.47000000000E+01 0. -1.
         -5    1    3    3    0  502 -0.13882485766E+02 -0.18243349003E+02 -0.24605695174E+02  0.33956934916E+02  0.47000000000E+01 0.  1.
          5    1    4    4  503    0  0.34525676949E+02  0.52870984869E+01 -0.18001748428E+01  0.35288899227E+02  0.47000000000E+01 0. -1.
         -5    1    4    4    0  503 -0.45268823441E+02 -0.36578147287E+02  0.25827790042E+02  0.63846628519E+02  0.47000000000E+01 0.  1.
<mgrwt>
<rscale>  0 0.97205748E+02</rscale>
<asrwt>0</asrwt>
<pdfrwt beam="1">  1        1 0.17528054E-01 0.97550205E+02</pdfrwt>
<pdfrwt beam="2">  1       -1 0.12768863E-01 0.97550205E+02</pdfrwt>
<totfact> 0.11458867E+04</totfact>
</mgrwt>
</event>
<event>
 8    1  0.2964543E-004  0.2837438E+03  0.7546771E-02  0.1093971E+00
          1   -1    0    0  501    0  0.00000000000E+00  0.00000000000E+00  0.26293091501E+04  0.26293091501E+04  0.00000000000E+00 0. -1.
         -1   -1    0    0    0  501 -0.00000000000E+00 -0.00000000000E+00 -0.30690182268E+02  0.30690182268E+02  0.00000000000E+00 0.  1.
         23    2    1    2    0    0  0.38077535315E+02 -0.26600559597E+03  0.11589780793E+04  0.11926628141E+04  0.83699008481E+02 0.  0.
         23    2    1    2    0    0 -0.38077535315E+02  0.26600559597E+03  0.14396408886E+04  0.14673365183E+04  0.91113633280E+02 0.  0.
          5    1    3    3  502    0  0.28525835261E+02 -0.24106355722E+03  0.11139266681E+04  0.11400789770E+04  0.47000000000E+01 0. -1.
         -5    1    3    3    0  502  0.95517000540E+01 -0.24942038746E+02  0.45051411161E+02  0.52583837044E+02  0.47000000000E+01 0.  1.
          5    1    4    4  503    0  0.24194720454E+02  0.13572737406E+03  0.63256528275E+03  0.64743202848E+03  0.47000000000E+01 0. -1.
         -5    1    4    4    0  503 -0.62272255769E+02  0.13027822191E+03  0.80707560583E+03  0.81990448985E+03  0.47000000000E+01 0.  1.
<mgrwt>
<rscale>  0 0.28316877E+03</rscale>
<asrwt>0</asrwt>
<pdfrwt beam="1">  1        1 0.40450892E+00 0.28374385E+03</pdfrwt>
<pdfrwt beam="2">  1       -1 0.47215686E-02 0.28374385E+03</pdfrwt>
<totfact> 0.24844863E+02</totfact>
</mgrwt>
</event>
<event>
 8    1  0.2964543E-004  0.1229951E+03  0.7546771E-02  0.1238788E+00
          1   -1    0    0  501    0  0.00000000000E+00  0.00000000000E+00  0.33120844888E+03  0.33120844888E+03  0.00000000000E+00 0. -1.
         -1   -1    0    0    0  501 -0.00000000000E+00 -0.00000000000E+00 -0.12441607504E+03  0.12441607504E+03  0.00000000000E+00 0.  1.
         23    2    1    2    0    0  0.49171296629E+02 -0.63617412009E+02 -0.78211078978E+02  0.14575586845E+03  0.93074211202E+02 0.  0.
         23    2    1    2    0    0 -0.49171296629E+02  0.63617412009E+02  0.28500345282E+03  0.30986865546E+03  0.91250336955E+02 0.  0.
          5    1    4    4  502    0 -0.12266391352E+02  0.22892224298E+02  0.23157901855E+03  0.23307820602E+03  0.47000000000E+01 0. -1.
         -5    1    3    3    0  503  0.61999139704E+02 -0.45443578625E+01 -0.40963361719E+02  0.74596457796E+02  0.47000000000E+01 0.  1.
          5    1    3    3  503    0 -0.12827843074E+02 -0.59073054146E+02 -0.37247717259E+02  0.71159410657E+02  0.47000000000E+01 0. -1.
         -5    1    4    4    0  502 -0.36904905277E+02  0.40725187711E+02  0.53424434267E+02  0.76790449434E+02  0.47000000000E+01 0.  1.
<mgrwt>
<rscale>  0 0.12265009E+03</rscale>
<asrwt>0</asrwt>
<pdfrwt beam="1">  1        1 0.50955146E-01 0.12299512E+03</pdfrwt>
<pdfrwt beam="2">  1       -1 0.19140935E-01 0.12299512E+03</pdfrwt>
<totfact> 0.16404129E+03</totfact>
</mgrwt>
</event>
<event>
 8    1  0.2964543E-004  0.9147662E+02  0.7546771E-02  0.1301305E+00
         -1   -1    0    0    0  501 -0.00000000000E+00  0.00000000000E+00  0.89557564334E+02  0.89557564334E+02  0.00000000000E+00 0.  1.
          1   -1    0    0  501    0  0.00000000000E+00 -0.00000000000E+00 -0.26536361120E+03  0.26536361120E+03  0.00000000000E+00 0. -1.
         23    2    1    2    0    0 -0.40771475940E+01  0.58598545746E+01  0.56855537347E+02  0.10492240526E+03  0.87893105365E+02 0.  0.
         23    2    1    2    0    0  0.40771475940E+01 -0.58598545746E+01 -0.23266158421E+03  0.24999877027E+03  0.91197649865E+02 0.  0.
          5    1    4    4  502    0 -0.12596548508E+01 -0.39527895506E+02 -0.19482794778E+03  0.19885688444E+03  0.47000000000E+01 0. -1.
         -5    1    3    3    0  503 -0.24887641110E+02  0.11193854316E+02  0.72714876128E+02  0.77808998611E+02  0.47000000000E+01 0. -1.
          5    1    3    3  503    0  0.20810493516E+02 -0.53339997411E+01 -0.15859338781E+02  0.27113406651E+02  0.47000000000E+01 0.  1.
         -5    1    4    4    0  502  0.53368024448E+01  0.33668040932E+02 -0.37833636430E+02  0.51141885828E+02  0.47000000000E+01 0.  1.
<mgrwt>
<rscale>  0 0.90641739E+02</rscale>
<asrwt>0</asrwt>
<pdfrwt beam="1">  1        1 0.40825170E-01 0.91476622E+02</pdfrwt>
<pdfrwt beam="2">  1       -1 0.13778087E-01 0.91476622E+02</pdfrwt>
<totfact> 0.35582217E+03</totfact>
</mgrwt>
</event>
<event>
 8    1  0.2964543E-004  0.1009111E+03  0.7546771E-02  0.1281710E+00
         -1   -1    0    0    0  501 -0.00000000000E+00  0.00000000000E+00  0.18405909242E+03  0.18405909242E+03  0.00000000000E+00 0.  1.
          1   -1    0    0  501    0  0.00000000000E+00 -0.00000000000E+00 -0.53424504365E+02  0.53424504365E+02  0.00000000000E+00 0. -1.
         23    2    1    2    0    0 -0.20743704112E+00 -0.22301101598E+02  0.47880245284E+02  0.11169412368E+03  0.98415838225E+02 0.  0.
         23    2    1    2    0    0  0.20743704112E+00  0.22301101598E+02  0.82754342774E+02  0.12578947311E+03  0.92072407020E+02 0.  0.
          5    1    3    3  502    0 -0.12245765496E+02  0.22593120081E+02 -0.17422441907E+02  0.31401263184E+02  0.47000000000E+01 0. -1.
         -5    1    3    3    0  502  0.12038328455E+02 -0.44894221679E+02  0.65302687192E+02  0.80292860496E+02  0.47000000000E+01 0.  1.
          5    1    4    4  503    0 -0.74276858691E+00  0.50093857713E+02  0.15169748601E+02  0.52556232345E+02  0.47000000000E+01 0. -1.
         -5    1    4    4    0  503  0.95020562803E+00 -0.27792756114E+02  0.67584594173E+02  0.73233240763E+02  0.47000000000E+01 0.  1.
<mgrwt>
<rscale>  0 0.99330337E+02</rscale>
<asrwt>0</asrwt>
<pdfrwt beam="1">  1        1 0.82191546E-02 0.10091115E+03</pdfrwt>
<pdfrwt beam="2">  1       -1 0.28316783E-01 0.10091115E+03</pdfrwt>
<totfact> 0.86793870E+03</totfact>
</mgrwt>
</event>
<event>
 8    1  0.2964543E-004  0.1168353E+03  0.7546771E-02  0.1251520E+00
          3   -1    0    0  501    0  0.00000000000E+00  0.00000000000E+00  0.41302927675E+02  0.41302927675E+02  0.00000000000E+00 0. -1.
         -3   -1    0    0    0  501 -0.00000000000E+00 -0.00000000000E+00 -0.43849330801E+03  0.43849330801E+03  0.00000000000E+00 0.  1.
         23    2    1    2    0    0  0.42570199385E+02  0.55401432149E+02 -0.64855181562E+02  0.12752193792E+03  0.84700115205E+02 0.  0.
         23    2    1    2    0    0 -0.42570199385E+02 -0.55401432149E+02 -0.33233519877E+03  0.35227429776E+03  0.93642703730E+02 0.  0.
          5    1    4    4  502    0 -0.64539855323E+01  0.19440763103E+02 -0.19902495928E+02  0.28944715294E+02  0.47000000000E+01 0. -1.
         -5    1    4    4    0  502 -0.36116213852E+02 -0.74842195252E+02 -0.31243270284E+03  0.32332958247E+03  0.47000000000E+01 0.  1.
          5    1    3    3  503    0  0.46222714615E+02  0.75510436987E+02 -0.55160158741E+02  0.10441790341E+03  0.47000000000E+01 0. -1.
         -5    1    3    3    0  503 -0.36525152302E+01 -0.20109004839E+02 -0.96950228213E+01  0.23104034510E+02  0.47000000000E+01 0.  1.
<mgrwt>
<rscale>  0 0.11503487E+03</rscale>
<asrwt>0</asrwt>
<pdfrwt beam="1">  1        3 0.63542969E-02 0.11683534E+03</pdfrwt>
<pdfrwt beam="2">  1       -3 0.67460506E-01 0.11683534E+03</pdfrwt>
<totfact> 0.75408070E+02</totfact>
</mgrwt>
</event>
<event>
 7    1  0.3022719E-004  0.5035168E+03  0.7546771E-02  0.1067582E+00
          1   -1    0    0  501    0  0.00000000000E+00  0.00000000000E+00  0.31479109171E+03  0.31479109171E+03  0.00000000000E+00 0. -1.
         -1   -1    0    0    0  501 -0.00000000000E+00 -0.00000000000E+00 -0.30164526912E+03  0.30164526912E+03  0.00000000000E+00 0.  1.
         23    2    1    2    0    0  0.47162757612E+02 -0.41791563721E+01  0.45064374156E+02  0.11190888863E+03  0.90835072977E+02 0.  0.
          5    1    1    2  502    0  0.17844387967E+03  0.72695691072E+02 -0.14672958095E+03  0.24223654063E+03  0.47000000000E+01 0. -1.
         -5    1    3    3    0  503 -0.23788481023E+02  0.12575661488E+02  0.26717394079E+01  0.27445715197E+02  0.47000000000E+01 0.  1.
          5    1    3    3  503    0  0.70951238635E+02 -0.16754817860E+02  0.42392634748E+02  0.84463173433E+02  0.47000000000E+01 0. -1.
         -5    1    1    2    0  502 -0.22560663728E+03 -0.68516534700E+02  0.11481102938E+03  0.26229093156E+03  0.47000000000E+01 0.  1.
<mgrwt>
<rscale>  0 0.33815975E+03</rscale>
<asrwt>0</asrwt>
<pdfrwt beam="1">  1        1 0.48429398E-01 0.50351681E+03</pdfrwt>
<pdfrwt beam="2">  1       -1 0.46406965E-01 0.50351681E+03</pdfrwt>
<totfact> 0.38700262E+02</totfact>
</mgrwt>
</event>
<event>
 8    1  0.2964543E-004  0.1105149E+03  0.7546771E-02  0.1261816E+00
         -2   -1    0    0    0  501 -0.00000000000E+00  0.00000000000E+00  0.13298845012E+03  0.13298845012E+03  0.00000000000E+00 0.  1.
          2   -1    0    0  501    0  0.00000000000E+00 -0.00000000000E+00 -0.14675642142E+03  0.14675642142E+03  0.00000000000E+00 0. -1.
         23    2    1    2    0    0  0.48920024606E+02 -0.23140592637E+02 -0.95461391570E+02  0.14603566760E+03  0.96358098229E+02 0.  0.
         23    2    1    2    0    0 -0.48920024606E+02  0.23140592637E+02  0.81693420267E+02  0.13370920394E+03  0.90970767110E+02 0.  0.
          5    1    3    3  502    0  0.63542628709E+02 -0.38455009315E+02 -0.35860107806E+02  0.82610475949E+02  0.47000000000E+01 0. -1.
         -5    1    3    3    0  502 -0.14622604103E+02  0.15314416678E+02 -0.59601283765E+02  0.63425191646E+02  0.47000000000E+01 0.  1.
          5    1    4    4  503    0  0.17087096606E+02 -0.19750756254E+02  0.26131213652E+02  0.37242335721E+02  0.47000000000E+01 0. -1.
         -5    1    4    4    0  503 -0.66007121212E+02  0.42891348891E+02  0.55562206615E+02  0.96466868221E+02  0.47000000000E+01 0.  1.
<mgrwt>
<rscale>  0 0.10932987E+03</rscale>
<asrwt>0</asrwt>
<pdfrwt beam="1">  1        2 0.22577911E-01 0.11051488E+03</pdfrwt>
<pdfrwt beam="2">  1       -2 0.20459761E-01 0.11051488E+03</pdfrwt>
<totfact> 0.46047255E+03</totfact>
</mgrwt>
</event>
<event>
 8    1  0.2964543E-004  0.9666783E+02  0.7546771E-02  0.1287830E+00
         -1   -1    0    0    0  501 -0.00000000000E+00  0.00000000000E+00  0.50591513610E+02  0.50591513610E+02  0.00000000000E+00 0.  1.
          1   -1    0    0  501    0  0.00000000000E+00 -0.00000000000E+00 -0.26660318947E+03  0.26660318947E+03  0.00000000000E+00 0. -1.
         23    2    1    2    0    0 -0.29157824690E+02 -0.56929181517E+01 -0.19684815717E+02  0.98651714021E+02  0.91989568168E+02 0.  0.
         23    2    1    2    0    0  0.29157824690E+02  0.56929181517E+01 -0.19632686014E+03  0.21854298906E+03  0.91291916376E+02 0.  0.
          5    1    3    3  502    0 -0.27411907147E+02  0.26539208796E+02 -0.43657399974E+02  0.58170446358E+02  0.47000000000E+01 0. -1.
         -5    1    4    4    0  503  0.27801561270E+02 -0.16562625715E+02 -0.15327097910E+02  0.36114502764E+02  0.47000000000E+01 0.  1.
          5    1    4    4  503    0  0.13562634199E+01  0.22255543866E+02 -0.18099976223E+03  0.18242848630E+03  0.47000000000E+01 0. -1.
         -5    1    3    3    0  502 -0.17459175430E+01 -0.32232126948E+02  0.23972584257E+02  0.40481267663E+02  0.47000000000E+01 0.  1.
<mgrwt>
<rscale>  0 0.96501485E+02</rscale>
<asrwt>0</asrwt>
<pdfrwt beam="1">  1        1 0.41015875E-01 0.96667827E+02</pdfrwt>
<pdfrwt beam="2">  1       -1 0.77833099E-02 0.96667827E+02</pdfrwt>
<totfact> 0.84373098E+03</totfact>
</mgrwt>
</event>
<event>
 8    1  0.2964543E-004  0.9268963E+02  0.7546771E-02  0.1297224E+00
          1   -1    0    0  501    0  0.00000000000E+00  0.00000000000E+00  0.12038423933E+03  0.12038423933E+03  0.00000000000E+00 0. -1.
         -1   -1    0    0    0  501 -0.00000000000E+00 -0.00000000000E+00 -0.84415407611E+02  0.84415407611E+02  0.00000000000E+00 0.  1.
         23    2    1    2    0    0  0.77784027776E+01  0.23739395395E+01 -0.23882811105E+02  0.94465667872E+02  0.91034249607E+02 0.  0.
         23    2    1    2    0    0 -0.77784027776E+01 -0.23739395395E+01  0.59851642826E+02  0.11033397907E+03  0.92332164763E+02 0.  0.
          5    1    3    3  502    0  0.46871469933E+02 -0.12861327717E+02 -0.87022105794E+01  0.49600069690E+02  0.47000000000E+01 0. -1.
         -5    1    3    3    0  502 -0.39093067155E+02  0.15235267256E+02 -0.15180600526E+02  0.44865598183E+02  0.47000000000E+01 0.  1.
          5    1    4    4  503    0  0.35392397857E+02  0.40959328610E+01 -0.20759060914E+00  0.35937885106E+02  0.47000000000E+01 0. -1.
         -5    1    4    4    0  503 -0.43170800634E+02 -0.64698724004E+01  0.60059233435E+02  0.74396093964E+02  0.47000000000E+01 0.  1.
<mgrwt>
<rscale>  0 0.92364717E+02</rscale>
<asrwt>0</asrwt>
<pdfrwt beam="1">  1        1 0.18520652E-01 0.92689632E+02</pdfrwt>
<pdfrwt beam="2">  1       -1 0.12986986E-01 0.92689632E+02</pdfrwt>
<totfact> 0.10363506E+04</totfact>
</mgrwt>
</event>
<event>
 8    1  0.2964543E-004  0.9383159E+02  0.7546771E-02  0.1295978E+00
          1   -1    0    0  501    0  0.00000000000E+00  0.00000000000E+00  0.75739791229E+02  0.75739791229E+02  0.00000000000E+00 0. -1.
         -1   -1    0    0    0  501 -0.00000000000E+00 -0.00000000000E+00 -0.15750156404E+03  0.15750156404E+03  0.00000000000E+00 0.  1.
         23    2    1    2    0    0  0.24631241091E+01 -0.17271982632E+02  0.21393336867E+02  0.96239503035E+02  0.92195329153E+02 0.  0.
         23    2    1    2    0    0 -0.24631241091E+01  0.17271982632E+02 -0.10315510968E+03  0.13700185224E+03  0.88454183047E+02 0.  0.
          5    1    3    3  502    0  0.44403295913E+02  0.69002671678E+01  0.11168300122E+02  0.46541243027E+02  0.47000000000E+01 0. -1.
         -5    1    3    3    0  502 -0.41940171804E+02 -0.24172249800E+02  0.10225036744E+02  0.49698260007E+02  0.47000000000E+01 0.  1.
          5    1    4    4  503    0  0.12229115746E+00  0.51616440957E+02 -0.79689611414E+02  0.95062064461E+02  0.47000000000E+01 0. -1.
         -5    1    4    4    0  503 -0.25854152666E+01 -0.34344458325E+02 -0.23465498266E+02  0.41939787775E+02  0.47000000000E+01 0.  1.
<mgrwt>
<rscale>  0 0.92899486E+02</rscale>
<asrwt>0</asrwt>
<pdfrwt beam="1">  1        1 0.11652276E-01 0.93831589E+02</pdfrwt>
<pdfrwt beam="2">  1       -1 0.24231010E-01 0.93831589E+02</pdfrwt>
<totfact> 0.70369706E+03</totfact>
</mgrwt>
</event>
<event>
 8    1  0.2964543E-004  0.9826791E+02  0.7546771E-02  0.1285316E+00
         -4   -1    0    0    0  501 -0.00000000000E+00  0.00000000000E+00  0.28336338118E+02  0.28336338118E+02  0.00000000000E+00 0.  1.
          4   -1    0    0  501    0  0.00000000000E+00 -0.00000000000E+00 -0.41014414477E+03  0.41014414477E+03  0.00000000000E+00 0. -1.
         23    2    1    2    0    0 -0.19384544494E+02 -0.27713833610E+02 -0.28443068165E+03  0.30013711917E+03  0.89653000532E+02 0.  0.
         23    2    1    2    0    0  0.19384544494E+02  0.27713833610E+02 -0.97377125004E+02  0.13834336372E+03  0.92264644753E+02 0.  0.
          5    1    3    3  502    0  0.12852210681E+02 -0.26260378105E+02 -0.25339395997E+03  0.25511835631E+03  0.47000000000E+01 0. -1.
         -5    1    4    4    0  503 -0.22602566306E+02  0.45936662486E+02 -0.60377280008E+02  0.79300434457E+02  0.47000000000E+01 0.  1.
          5    1    4    4  503    0  0.41987110800E+02 -0.18222828876E+02 -0.36999844996E+02  0.59042929258E+02  0.47000000000E+01 0. -1.
         -5    1    3    3    0  502 -0.32236755175E+02 -0.14534555050E+01 -0.31036721677E+02  0.45018762862E+02  0.47000000000E+01 0.  1.
<mgrwt>
<rscale>  0 0.97650137E+02</rscale>
<asrwt>0</asrwt>
<pdfrwt beam="1">  1        4 0.63099095E-01 0.98267908E+02</pdfrwt>
<pdfrwt beam="2">  1       -4 0.43594369E-02 0.98267908E+02</pdfrwt>
<totfact> 0.10899236E+03</totfact>
</mgrwt>
</event>
<event>
 8    1  0.2964543E-004  0.9524954E+02  0.7546771E-02  0.1291147E+00
         -3   -1    0    0    0  501 -0.00000000000E+00  0.00000000000E+00  0.60766393620E+02  0.60766393620E+02  0.00000000000E+00 0.  1.
          3   -1    0    0  501    0  0.00000000000E+00 -0.00000000000E+00 -0.15338855598E+03  0.15338855598E+03  0.00000000000E+00 0. -1.
         23    2    1    2    0    0 -0.27171287465E+02  0.38074151256E+01 -0.66478176195E+02  0.11538256849E+03  0.90227567456E+02 0.  0.
         23    2    1    2    0    0  0.27171287465E+02 -0.38074151256E+01 -0.26143986168E+02  0.98772381113E+02  0.91212389430E+02 0.  0.
          5    1    4    4  502    0  0.41145862703E+02  0.12276674637E+02  0.20097725378E+02  0.47641445434E+02  0.47000000000E+01 0. -1.
         -5    1    3    3    0  503  0.11965912506E+02 -0.21309554107E+02  0.91170159159E+01  0.26504530510E+02  0.47000000000E+01 0.  1.
          5    1    3    3  503    0 -0.39137199971E+02  0.25116969233E+02 -0.75595192111E+02  0.88878037981E+02  0.47000000000E+01 0. -1.
         -5    1    4    4    0  502 -0.13974575238E+02 -0.16084089763E+02 -0.46241711546E+02  0.51130935678E+02  0.47000000000E+01 0.  1.
<mgrwt>
<rscale>  0 0.95012999E+02</rscale>
<asrwt>0</asrwt>
<pdfrwt beam="1">  1        3 0.23598239E-01 0.95249542E+02</pdfrwt>
<pdfrwt beam="2">  1       -3 0.93486760E-02 0.95249542E+02</pdfrwt>
<totfact> 0.29340369E+03</totfact>
</mgrwt>
</event>
<event>
 8    1  0.2964543E-004  0.1239616E+03  0.7546771E-02  0.1237355E+00
          2   -1    0    0  501    0  0.00000000000E+00  0.00000000000E+00  0.91984876255E+03  0.91984876255E+03  0.00000000000E+00 0. -1.
         -2   -1    0    0    0  501 -0.00000000000E+00 -0.00000000000E+00 -0.17798159488E+02  0.17798159488E+02  0.00000000000E+00 0.  1.
         23    2    1    2    0    0 -0.76823673835E+02 -0.28159960958E+02  0.58117769472E+03  0.59425077739E+03  0.93121497618E+02 0.  0.
         23    2    1    2    0    0  0.76823673835E+02  0.28159960958E+02  0.32087290834E+03  0.34339614465E+03  0.90921001934E+02 0.  0.
          5    1    3    3  502    0 -0.22544679813E+02 -0.56306075095E+02  0.33997861977E+03  0.34537832674E+03  0.47000000000E+01 0. -1.
         -5    1    4    4    0  503 -0.83443874089E+01  0.26709549206E+02  0.14710437477E+03  0.14981594006E+03  0.47000000000E+01 0.  1.
          5    1    4    4  503    0  0.85168061244E+02  0.14504117518E+01  0.17376853357E+03  0.19358020459E+03  0.47000000000E+01 0. -1.
         -5    1    3    3    0  502 -0.54278994022E+02  0.28146114137E+02  0.24119907495E+03  0.24887245064E+03  0.47000000000E+01 0.  1.
<mgrwt>
<rscale>  0 0.12354842E+03</rscale>
<asrwt>0</asrwt>
<pdfrwt beam="1">  1        2 0.14151516E+00 0.12396158E+03</pdfrwt>
<pdfrwt beam="2">  1       -2 0.27381791E-02 0.12396158E+03</pdfrwt>
<totfact> 0.13625379E+04</totfact>
</mgrwt>
</event>
<event>
 8    1  0.2964543E-004  0.1148028E+03  0.7546771E-02  0.1252848E+00
         -1   -1    0    0    0  501 -0.00000000000E+00  0.00000000000E+00  0.74850580869E+02  0.74850580869E+02  0.00000000000E+00 0.  1.
          1   -1    0    0  501    0  0.00000000000E+00 -0.00000000000E+00 -0.17349298926E+03  0.17349298926E+03  0.00000000000E+00 0. -1.
         23    2    1    2    0    0  0.63693297178E+02  0.19888975518E+02 -0.42466682507E+02  0.12240548781E+03  0.93419895469E+02 0.  0.
         23    2    1    2    0    0 -0.63693297178E+02 -0.19888975518E+02 -0.56175725880E+02  0.12593808232E+03  0.90842065956E+02 0.  0.
          5    1    4    4  502    0 -0.42318167374E+02 -0.27798860230E+02 -0.78604242929E+02  0.93617951946E+02  0.47000000000E+01 0. -1.
         -5    1    3    3    0  503  0.87454059140E+02  0.12383823936E+02 -0.26087745388E+02  0.92218393040E+02  0.47000000000E+01 0.  1.
          5    1    3    3  503    0 -0.23760761962E+02  0.75051515823E+01 -0.16378937118E+02  0.30187094766E+02  0.47000000000E+01 0. -1.
         -5    1    4    4    0  502 -0.21375129803E+02  0.79098847123E+01  0.22428517049E+02  0.32320130372E+02  0.47000000000E+01 0.  1.
<mgrwt>
<rscale>  0 0.11427728E+03</rscale>
<asrwt>0</asrwt>
<pdfrwt beam="1">  1        1 0.26691229E-01 0.11480281E+03</pdfrwt>
<pdfrwt beam="2">  1       -1 0.11515474E-01 0.11480281E+03</pdfrwt>
<totfact> 0.80291535E+03</totfact>
</mgrwt>
</event>
<event>
 8    1  0.2964543E-004  0.1588242E+03  0.7546771E-02  0.1193535E+00
          1   -1    0    0  501    0  0.00000000000E+00  0.00000000000E+00  0.11917652821E+03  0.11917652821E+03  0.00000000000E+00 0. -1.
         -1   -1    0    0    0  501 -0.00000000000E+00 -0.00000000000E+00 -0.25397206150E+03  0.25397206150E+03  0.00000000000E+00 0.  1.
         23    2    1    2    0    0  0.32097382117E+02 -0.11170993044E+03 -0.15831617919E+03  0.22425238820E+03  0.10823941298E+03 0.  0.
         23    2    1    2    0    0 -0.32097382117E+02  0.11170993044E+03  0.23520645898E+02  0.14889620151E+03  0.90041698909E+02 0.  0.
          5    1    4    4  502    0  0.52253115505E+01  0.93932082298E+02  0.42289139966E+02  0.10325212504E+03  0.47000000000E+01 0. -1.
         -5    1    4    4    0  502 -0.37322693667E+02  0.17777848138E+02 -0.18768494068E+02  0.45644076468E+02  0.47000000000E+01 0.  1.
          5    1    3    3  503    0  0.26280334580E+02  0.13131975611E+02 -0.12834155134E+02  0.32402319470E+02  0.47000000000E+01 0. -1.
         -5    1    3    3    0  503  0.58170475370E+01 -0.12484190605E+03 -0.14548202406E+03  0.19185006873E+03  0.47000000000E+01 0.  1.
<mgrwt>
<rscale>  0 0.15578891E+03</rscale>
<asrwt>0</asrwt>
<pdfrwt beam="1">  1        1 0.18334851E-01 0.15882418E+03</pdfrwt>
<pdfrwt beam="2">  1       -1 0.39072624E-01 0.15882418E+03</pdfrwt>
<totfact> 0.18081100E+03</totfact>
</mgrwt>
</event>
<event>
 8    1  0.2964543E-004  0.1189485E+03  0.7546771E-02  0.1245908E+00
          1   -1    0    0  501    0  0.00000000000E+00  0.00000000000E+00  0.13443562556E+03  0.13443562556E+03  0.00000000000E+00 0. -1.
         -1   -1    0    0    0  501 -0.00000000000E+00 -0.00000000000E+00 -0.17312329685E+03  0.17312329685E+03  0.00000000000E+00 0.  1.
         23    2    1    2    0    0  0.61350407382E+02 -0.45905329870E+02 -0.11707175092E+03  0.16510611848E+03  0.87653087228E+02 0.  0.
         23    2    1    2    0    0 -0.61350407382E+02  0.45905329870E+02  0.78384079622E+02  0.14245280393E+03  0.90981127789E+02 0.  0.
          5    1    3    3  502    0 -0.20237639476E+02  0.22573785848E+01 -0.14759304633E+02  0.25584856515E+02  0.47000000000E+01 0. -1.
         -5    1    3    3    0  502  0.81588046858E+02 -0.48162708455E+02 -0.10231244628E+03  0.13952126196E+03  0.47000000000E+01 0.  1.
          5    1    4    4  503    0 -0.49553676530E+02 -0.62747113396E+01  0.72865536338E+02  0.88467029146E+02  0.47000000000E+01 0. -1.
         -5    1    4    4    0  503 -0.11796730851E+02  0.52180041209E+02  0.55185432840E+01  0.53985774787E+02  0.47000000000E+01 0.  1.
<mgrwt>
<rscale>  0 0.11831192E+03</rscale>
<asrwt>0</asrwt>
<pdfrwt beam="1">  1        1 0.20682404E-01 0.11894847E+03</pdfrwt>
<pdfrwt beam="2">  1       -1 0.26634353E-01 0.11894847E+03</pdfrwt>
<totfact> 0.29362425E+03</totfact>
</mgrwt>
</event>
<event>
 8    1  0.2964543E-004  0.9810988E+02  0.7546771E-02  0.1284802E+00
         -2   -1    0    0    0  501 -0.00000000000E+00  0.00000000000E+00  0.22120409716E+02  0.22120409716E+02  0.00000000000E+00 0.  1.
          2   -1    0    0  501    0  0.00000000000E+00 -0.00000000000E+00 -0.46913197803E+03  0.46913197803E+03  0.00000000000E+00 0. -1.
         23    2    1    2    0    0 -0.27735577696E+02 -0.18583515778E+02 -0.29239994444E+03  0.30813957195E+03  0.91310782295E+02 0.  0.
         23    2    1    2    0    0  0.27735577696E+02  0.18583515778E+02 -0.15461162387E+03  0.18311281579E+03  0.92254754584E+02 0.  0.
          5    1    4    4  502    0 -0.29070703657E+02  0.19596977799E+02 -0.91318614571E+02  0.97930213505E+02  0.47000000000E+01 0. -1.
         -5    1    3    3    0  503 -0.19471730983E+02  0.29955424713E+02 -0.20109603215E+03  0.20429924112E+03  0.47000000000E+01 0.  1.
          5    1    3    3  503    0 -0.82638467131E+01 -0.48538940491E+02 -0.91303912297E+02  0.10384033083E+03  0.47000000000E+01 0. -1.
         -5    1    4    4    0  502  0.56806281353E+02 -0.10134620216E+01 -0.63293009294E+02  0.85182602284E+02  0.47000000000E+01 0.  1.
<mgrwt>
<rscale>  0 0.97887350E+02</rscale>
<asrwt>0</asrwt>
<pdfrwt beam="1">  1        2 0.72174151E-01 0.98109883E+02</pdfrwt>
<pdfrwt beam="2">  1       -2 0.34031399E-02 0.98109883E+02</pdfrwt>
<totfact> 0.21340310E+04</totfact>
</mgrwt>
</event>
<event>
 8    1  0.2964543E-004  0.9846655E+02  0.7546771E-02  0.1284864E+00
          1   -1    0    0  501    0  0.00000000000E+00  0.00000000000E+00  0.15352369278E+03  0.15352369278E+03  0.00000000000E+00 0. -1.
         -1   -1    0    0    0  501 -0.00000000000E+00 -0.00000000000E+00 -0.63289667070E+02  0.63289667070E+02  0.00000000000E+00 0.  1.
         23    2    1    2    0    0  0.15416065219E+02  0.34187988207E+02  0.26961279753E+02  0.99770198024E+02  0.88434768069E+02 0.  0.
         23    2    1    2    0    0 -0.15416065219E+02 -0.34187988207E+02  0.63272745954E+02  0.11704316182E+03  0.91044976492E+02 0.  0.
          5    1    3    3  502    0 -0.11789036702E+02 -0.26470601513E+02  0.98274860817E+01  0.30957125408E+02  0.47000000000E+01 0. -1.
         -5    1    3    3    0  502  0.27205101921E+02  0.60658589720E+02  0.17133793671E+02  0.68813072616E+02  0.47000000000E+01 0.  1.
          5    1    4    4  503    0 -0.51139547898E+02 -0.27426737448E+02  0.53581502103E+02  0.79123616284E+02  0.47000000000E+01 0. -1.
         -5    1    4    4    0  503  0.35723482678E+02 -0.67612507587E+01  0.96912438514E+01  0.37919545539E+02  0.47000000000E+01 0.  1.
<mgrwt>
<rscale>  0 0.97858865E+02</rscale>
<asrwt>0</asrwt>
<pdfrwt beam="1">  1        1 0.23619030E-01 0.98466549E+02</pdfrwt>
<pdfrwt beam="2">  1       -1 0.97368719E-02 0.98466549E+02</pdfrwt>
<totfact> 0.11910783E+04</totfact>
</mgrwt>
</event>
<event>
 8    1  0.2964543E-004  0.9547371E+02  0.7546771E-02  0.1291814E+00
          2   -1    0    0  501    0  0.00000000000E+00  0.00000000000E+00  0.17791401755E+03  0.17791401755E+03  0.00000000000E+00 0. -1.
         -2   -1    0    0    0  501 -0.00000000000E+00 -0.00000000000E+00 -0.88546226239E+02  0.88546226239E+02  0.00000000000E+00 0.  1.
         23    2    1    2    0    0 -0.19160204977E+02  0.11994515716E+02  0.13338687676E+03  0.16403441048E+03  0.92759080792E+02 0.  0.
         23    2    1    2    0    0  0.19160204977E+02 -0.11994515716E+02 -0.44019085452E+02  0.10242583330E+03  0.89679370990E+02 0.  0.
          5    1    3    3  502    0  0.28530799887E+02 -0.22161939860E+02  0.56138065707E+02  0.66923318372E+02  0.47000000000E+01 0. -1.
         -5    1    3    3    0  502 -0.47691004863E+02  0.34156455576E+02  0.77248811052E+02  0.97111092113E+02  0.47000000000E+01 0.  1.
          5    1    4    4  503    0  0.51442775741E+02  0.94658101514E+01 -0.32306366218E+02  0.61658349280E+02  0.47000000000E+01 0. -1.
         -5    1    4    4    0  503 -0.32282570764E+02 -0.21460325867E+02 -0.11712719234E+02  0.40767484020E+02  0.47000000000E+01 0.  1.
<mgrwt>
<rscale>  0 0.94717453E+02</rscale>
<asrwt>0</asrwt>
<pdfrwt beam="1">  1        2 0.27371387E-01 0.95473708E+02</pdfrwt>
<pdfrwt beam="2">  1       -2 0.13622496E-01 0.95473708E+02</pdfrwt>
<totfact> 0.72011379E+03</totfact>
</mgrwt>
</event>
<event>
 8    1  0.2964543E-004  0.9396209E+02  0.7546771E-02  0.1294246E+00
          2   -1    0    0  501    0  0.00000000000E+00  0.00000000000E+00  0.22340286069E+02  0.22340286069E+02  0.00000000000E+00 0. -1.
         -2   -1    0    0    0  501 -0.00000000000E+00 -0.00000000000E+00 -0.39051461944E+03  0.39051461944E+03  0.00000000000E+00 0.  1.
         23    2    1    2    0    0  0.17971866758E+02  0.61933146478E+01 -0.17774057861E+03  0.20104871884E+03  0.92019176929E+02 0.  0.
         23    2    1    2    0    0 -0.17971866758E+02 -0.61933146478E+01 -0.19043375476E+03  0.21180618667E+03  0.90749659046E+02 0.  0.
          5    1    4    4  502    0  0.14321198091E+02  0.36192863545E+02 -0.82721406692E+02  0.91542018830E+02  0.47000000000E+01 0. -1.
         -5    1    4    4    0  502 -0.32293064849E+02 -0.42386178192E+02 -0.10771234807E+03  0.12026416784E+03  0.47000000000E+01 0.  1.
          5    1    3    3  503    0  0.11376849447E+02  0.42874778586E+02 -0.46078629150E+02  0.64132748315E+02  0.47000000000E+01 0. -1.
         -5    1    3    3    0  503  0.65950173112E+01 -0.36681463938E+02 -0.13166194946E+03  0.13691597053E+03  0.47000000000E+01 0.  1.
<mgrwt>
<rscale>  0 0.93649807E+02</rscale>
<asrwt>0</asrwt>
<pdfrwt beam="1">  1        2 0.34369676E-02 0.93962088E+02</pdfrwt>
<pdfrwt beam="2">  1       -2 0.60079163E-01 0.93962088E+02</pdfrwt>
<totfact> 0.62547303E+03</totfact>
</mgrwt>
</event>
<event>
 8    1  0.2964543E-004  0.9397074E+02  0.7546771E-02  0.1293588E+00
         -1   -1    0    0    0  501 -0.00000000000E+00  0.00000000000E+00  0.44578441617E+03  0.44578441617E+03  0.00000000000E+00 0.  1.
          1   -1    0    0  501    0  0.00000000000E+00 -0.00000000000E+00 -0.22981399357E+02  0.22981399357E+02  0.00000000000E+00 0. -1.
         23    2    1    2    0    0  0.20553828128E+02 -0.73723224077E+01  0.29874211397E+03  0.31313289060E+03  0.91260865247E+02 0.  0.
         23    2    1    2    0    0 -0.20553828128E+02  0.73723224077E+01  0.12406090285E+03  0.15563292493E+03  0.91398515961E+02 0.  0.
          5    1    4    4  502    0 -0.23925267796E+02  0.45112017245E+02  0.93849472448E+02  0.10694543477E+03  0.47000000000E+01 0. -1.
         -5    1    4    4    0  502  0.33714396681E+01 -0.37739694837E+02  0.30211430397E+02  0.48687490164E+02  0.47000000000E+01 0.  1.
          5    1    3    3  503    0 -0.35801508919E+02 -0.53846133925E+01  0.98455908926E+02  0.10500665743E+03  0.47000000000E+01 0. -1.
         -5    1    3    3    0  503  0.56355337048E+02 -0.19877090153E+01  0.20028620504E+03  0.20812623317E+03  0.47000000000E+01 0.  1.
<mgrwt>
<rscale>  0 0.93937251E+02</rscale>
<asrwt>0</asrwt>
<pdfrwt beam="1">  1        1 0.35356002E-02 0.93970739E+02</pdfrwt>
<pdfrwt beam="2">  1       -1 0.68582212E-01 0.93970739E+02</pdfrwt>
<totfact> 0.55849880E+03</totfact>
</mgrwt>
</event>
<event>
 8    1  0.2964543E-004  0.9699539E+02  0.7546771E-02  0.1287764E+00
         -1   -1    0    0    0  501 -0.00000000000E+00  0.00000000000E+00  0.80116206507E+02  0.80116206507E+02  0.00000000000E+00 0.  1.
          1   -1    0    0  501    0  0.00000000000E+00 -0.00000000000E+00 -0.22600172264E+03  0.22600172264E+03  0.00000000000E+00 0. -1.
         23    2    1    2    0    0  0.27201317732E+02 -0.29168413329E+01  0.33864280909E+02  0.10273702058E+03  0.93057435094E+02 0.  0.
         23    2    1    2    0    0 -0.27201317732E+02  0.29168413329E+01 -0.17974979705E+03  0.20338090857E+03  0.91133883840E+02 0.  0.
          5    1    3    3  502    0  0.16430173549E+02  0.42894303414E+02  0.30166952433E+01  0.46271614608E+02  0.47000000000E+01 0. -1.
         -5    1    3    3    0  502  0.10771144183E+02 -0.45811144747E+02  0.30847585666E+02  0.56465405971E+02  0.47000000000E+01 0.  1.
          5    1    4    4  503    0 -0.60813915558E+02  0.35632722607E+01 -0.11088474232E+03  0.12660389139E+03  0.47000000000E+01 0. -1.
         -5    1    4    4    0  503  0.33612597826E+02 -0.64643092780E+00 -0.68865054727E+02  0.76777017187E+02  0.47000000000E+01 0.  1.
<mgrwt>
<rscale>  0 0.96531090E+02</rscale>
<asrwt>0</asrwt>
<pdfrwt beam="1">  1        1 0.34769495E-01 0.96995391E+02</pdfrwt>
<pdfrwt beam="2">  1       -1 0.12325570E-01 0.96995391E+02</pdfrwt>
<totfact> 0.51568697E+03</totfact>
</mgrwt>
</event>
<event>
 8    1  0.2964543E-004  0.1244991E+03  0.7546771E-02  0.1237405E+00
         -1   -1    0    0    0  501 -0.00000000000E+00  0.00000000000E+00  0.75043375331E+03  0.75043375331E+03  0.00000000000E+00 0.  1.
          1   -1    0    0  501    0  0.00000000000E+00 -0.00000000000E+00 -0.23167208500E+02  0.23167208500E+02  0.00000000000E+00 0. -1.
         23    2    1    2    0    0  0.83380020390E+02 -0.76003958727E+01  0.50130131631E+03  0.51560811839E+03  0.86825849847E+02 0.  0.
         23    2    1    2    0    0 -0.83380020390E+02  0.76003958727E+01  0.22596522850E+03  0.25799284342E+03  0.92141353069E+02 0.  0.
          5    1    3    3  502    0  0.46526596943E+02 -0.38438001827E+02  0.16297241078E+03  0.17385137584E+03  0.47000000000E+01 0. -1.
         -5    1    4    4    0  503 -0.39054520126E+02 -0.33521134033E+02  0.16112969176E+03  0.16921521662E+03  0.47000000000E+01 0.  1.
          5    1    4    4  503    0 -0.44325500264E+02  0.41121529906E+02  0.64835536746E+02  0.88777626802E+02  0.47000000000E+01 0. -1.
         -5    1    3    3    0  502  0.36853423447E+02  0.30837605954E+02  0.33832890553E+03  0.34175674255E+03  0.47000000000E+01 0.  1.
<mgrwt>
<rscale>  0 0.12351728E+03</rscale>
<asrwt>0</asrwt>
<pdfrwt beam="1">  1        1 0.35641865E-02 0.12449909E+03</pdfrwt>
<pdfrwt beam="2">  1       -1 0.11545133E+00 0.12449909E+03</pdfrwt>
<totfact> 0.18748417E+03</totfact>
</mgrwt>
</event>
<event>
 8    1  0.2964543E-004  0.1113172E+03  0.7546771E-02  0.1258513E+00
         -2   -1    0    0    0  501 -0.00000000000E+00  0.00000000000E+00  0.41167316040E+02  0.41167316040E+02  0.00000000000E+00 0.  1.
          2   -1    0    0  501    0  0.00000000000E+00 -0.00000000000E+00 -0.31824908160E+03  0.31824908160E+03  0.00000000000E+00 0. -1.
         23    2    1    2    0    0 -0.59011903990E+02  0.10295869897E+02 -0.18242886147E+03  0.21329762184E+03  0.92882593840E+02 0.  0.
         23    2    1    2    0    0  0.59011903990E+02 -0.10295869897E+02 -0.94652904090E+02  0.14611877579E+03  0.93824914801E+02 0.  0.
          5    1    3    3  502    0 -0.58505804778E+02  0.40573702485E+02 -0.16040700360E+03  0.17556096186E+03  0.47000000000E+01 0. -1.
         -5    1    3    3    0  502 -0.50609921223E+00 -0.30277832588E+02 -0.22021857866E+02  0.37736659981E+02  0.47000000000E+01 0.  1.
          5    1    4    4  503    0 -0.17479879655E+01  0.29819873959E+02 -0.51956731060E+01  0.30681677984E+02  0.47000000000E+01 0. -1.
         -5    1    4    4    0  503  0.60759891955E+02 -0.40115743856E+02 -0.89457230983E+02  0.11543709781E+03  0.47000000000E+01 0.  1.
<mgrwt>
<rscale>  0 0.11111842E+03</rscale>
<asrwt>0</asrwt>
<pdfrwt beam="1">  1        2 0.48961396E-01 0.11131722E+03</pdfrwt>
<pdfrwt beam="2">  1       -2 0.63334333E-02 0.11131722E+03</pdfrwt>
<totfact> 0.12933280E+04</totfact>
</mgrwt>
</event>
<event>
 7    1  0.1074111E-003  0.1383424E+03  0.7546771E-02  0.1234744E+00
          1   -1    0    0  501    0  0.00000000000E+00  0.00000000000E+00  0.10374349706E+04  0.10374349706E+04  0.00000000000E+00 0. -1.
         -1   -1    0    0    0  501 -0.00000000000E+00 -0.00000000000E+00 -0.28838169812E+02  0.28838169812E+02  0.00000000000E+00 0.  1.
         23    2    1    2    0    0 -0.90304306825E+01 -0.89004929374E+01  0.85313374552E+03  0.85816891610E+03  0.91956149123E+02 0.  0.
          5    1    3    3  502    0 -0.32785143454E+02  0.31373328765E+02  0.44928120690E+03  0.45159145725E+03  0.47000000000E+01 0. -1.
         -5    1    3    3    0  502  0.23754712772E+02 -0.40273821702E+02  0.40385253862E+03  0.40657745885E+03  0.47000000000E+01 0.  1.
          5    1    1    2  503    0 -0.17866493774E+02  0.45608258189E+02  0.15471172311E+03  0.16234879760E+03  0.47000000000E+01 0. -1.
         -5    1    1    2    0  503  0.26896924456E+02 -0.36707765252E+02  0.75133217278E+00  0.45755426727E+02  0.47000000000E+01 0.  1.
<mgrwt>
<rscale>  0 0.12520855E+03</rscale>
<asrwt>0</asrwt>
<pdfrwt beam="1">  1        1 0.15960535E+00 0.13834235E+03</pdfrwt>
<pdfrwt beam="2">  1       -1 0.44366423E-02 0.13834235E+03</pdfrwt>
<totfact> 0.31113569E+03</totfact>
</mgrwt>
</event>
<event>
 8    1  0.2964543E-004  0.1164967E+03  0.7546771E-02  0.1250912E+00
          2   -1    0    0  501    0  0.00000000000E+00  0.00000000000E+00  0.72133488821E+03  0.72133488821E+03  0.00000000000E+00 0. -1.
         -2   -1    0    0    0  501 -0.00000000000E+00 -0.00000000000E+00 -0.42679624964E+02  0.42679624964E+02  0.00000000000E+00 0.  1.
         23    2    1    2    0    0 -0.53998717293E+01 -0.66892908072E+02  0.52287530636E+02  0.12769282577E+03  0.95224220276E+02 0.  0.
         23    2    1    2    0    0  0.53998717293E+01  0.66892908072E+02  0.62636773261E+03  0.63632168741E+03  0.89804975608E+02 0.  0.
          5    1    3    3  502    0 -0.26981030013E+02  0.10526500936E+02  0.34414753079E+02  0.45224422959E+02  0.47000000000E+01 0. -1.
         -5    1    4    4    0  503 -0.31906144936E+02  0.13537907298E+02  0.10037608117E+03  0.10629545940E+03  0.47000000000E+01 0.  1.
          5    1    4    4  503    0  0.37306016665E+02  0.53355000774E+02  0.52599165144E+03  0.53002622801E+03  0.47000000000E+01 0. -1.
         -5    1    3    3    0  502  0.21581158284E+02 -0.77419409008E+02  0.17872777557E+02  0.82468402808E+02  0.47000000000E+01 0.  1.
<mgrwt>
<rscale>  0 0.11538428E+03</rscale>
<asrwt>0</asrwt>
<pdfrwt beam="1">  1        2 0.11097459E+00 0.11649666E+03</pdfrwt>
<pdfrwt beam="2">  1       -2 0.65660967E-02 0.11649666E+03</pdfrwt>
<totfact> 0.50095425E+03</totfact>
</mgrwt>
</event>
<event>
 8    1  0.2964543E-004  0.9386772E+02  0.7546771E-02  0.1297526E+00
         -2   -1    0    0    0  501 -0.00000000000E+00  0.00000000000E+00  0.17619390831E+03  0.17619390831E+03  0.00000000000E+00 0.  1.
          2   -1    0    0  501    0  0.00000000000E+00 -0.00000000000E+00 -0.48563673604E+02  0.48563673604E+02  0.00000000000E+00 0. -1.
         23    2    1    2    0    0  0.24799509330E+02  0.55611302132E+00  0.43831131704E+02  0.10359689867E+03  0.90530792461E+02 0.  0.
         23    2    1    2    0    0 -0.24799509330E+02 -0.55611302132E+00  0.83799103001E+02  0.12116068324E+03  0.83918392350E+02 0.  0.
          5    1    4    4  502    0  0.24850382665E+02  0.21284175088E+02  0.30857475104E+02  0.45219812003E+02  0.47000000000E+01 0.  1.
         -5    1    3    3    0  503 -0.21263240692E+02 -0.54143096371E+01 -0.16107567137E+02  0.27622162708E+02  0.47000000000E+01 0. -1.
          5    1    3    3  503    0  0.46062750022E+02  0.59704226584E+01  0.59938698841E+02  0.75974735966E+02  0.47000000000E+01 0.  1.
         -5    1    4    4    0  502 -0.49649891995E+02 -0.21840288110E+02  0.52941627897E+02  0.75940871237E+02  0.47000000000E+01 0. -1.
<mgrwt>
<rscale>  0 0.92235679E+02</rscale>
<asrwt>0</asrwt>
<pdfrwt beam="1">  1        2 0.74713345E-02 0.93867722E+02</pdfrwt>
<pdfrwt beam="2">  1       -2 0.27106755E-01 0.93867722E+02</pdfrwt>
<totfact> 0.10324512E+04</totfact>
</mgrwt>
</event>
<event>
 8    1  0.2964543E-004  0.9096933E+02  0.7546771E-02  0.1300525E+00
         -2   -1    0    0    0  501 -0.00000000000E+00  0.00000000000E+00  0.88952958087E+02  0.88952958087E+02  0.00000000000E+00 0.  1.
          2   -1    0    0  501    0  0.00000000000E+00 -0.00000000000E+00 -0.93755589959E+02  0.93755589959E+02  0.00000000000E+00 0. -1.
         23    2    1    2    0    0  0.31161355697E+01  0.57910651026E+01 -0.10470692204E+02  0.91569945231E+02  0.90731321706E+02 0.  0.
         23    2    1    2    0    0 -0.31161355697E+01 -0.57910651026E+01  0.56680603329E+01  0.91138602815E+02  0.90724149372E+02 0.  0.
          5    1    4    4  502    0 -0.20135062449E+02  0.35267069260E+02 -0.12713902717E+02  0.42812617723E+02  0.47000000000E+01 0. -1.
         -5    1    3    3    0  503 -0.76403862813E+01 -0.41289385689E+02 -0.78644868707E+01  0.42978238991E+02  0.47000000000E+01 0.  1.
          5    1    3    3  503    0  0.10756521851E+02  0.47080450791E+02 -0.26062053338E+01  0.48591706240E+02  0.47000000000E+01 0. -1.
         -5    1    4    4    0  502  0.17018926879E+02 -0.41058134363E+02  0.18381963050E+02  0.48325985091E+02  0.47000000000E+01 0.  1.
<mgrwt>
<rscale>  0 0.90967544E+02</rscale>
<asrwt>0</asrwt>
<pdfrwt beam="1">  1        2 0.14423937E-01 0.90969333E+02</pdfrwt>
<pdfrwt beam="2">  1       -2 0.13685070E-01 0.90969333E+02</pdfrwt>
<totfact> 0.14581565E+04</totfact>
</mgrwt>
</event>
<event>
 8    1  0.2964543E-004  0.9343449E+02  0.7546771E-02  0.1297436E+00
          2   -1    0    0  501    0  0.00000000000E+00  0.00000000000E+00  0.22973449812E+03  0.22973449812E+03  0.00000000000E+00 0. -1.
         -2   -1    0    0    0  501 -0.00000000000E+00 -0.00000000000E+00 -0.49563190485E+02  0.49563190485E+02  0.00000000000E+00 0.  1.
         23    2    1    2    0    0  0.21113705613E+01 -0.21641475870E+02  0.16430459717E+03  0.18901323728E+03  0.90869091851E+02 0.  0.
         23    2    1    2    0    0 -0.21113705613E+01  0.21641475870E+02  0.15866710467E+02  0.90284451323E+02  0.86178409629E+02 0.  0.
          5    1    4    4  502    0 -0.26623793711E+02 -0.11296388113E+02 -0.20072777564E+02  0.35516773151E+02  0.47000000000E+01 0. -1.
         -5    1    4    4    0  502  0.24512423149E+02  0.32937863983E+02  0.35939488031E+02  0.54767678172E+02  0.47000000000E+01 0.  1.
          5    1    3    3  503    0 -0.37329219077E+02 -0.35119081733E+02  0.92607799039E+02  0.10594864294E+03  0.47000000000E+01 0. -1.
         -5    1    3    3    0  503  0.39440589638E+02  0.13477605863E+02  0.71696798131E+02  0.83064594341E+02  0.47000000000E+01 0.  1.
<mgrwt>
<rscale>  0 0.92274257E+02</rscale>
<asrwt>0</asrwt>
<pdfrwt beam="1">  1        2 0.35343768E-01 0.93434486E+02</pdfrwt>
<pdfrwt beam="2">  1       -2 0.76251064E-02 0.93434486E+02</pdfrwt>
<totfact> 0.13531496E+04</totfact>
</mgrwt>
</event>
<event>
 8    1  0.2964543E-004  0.1070279E+03  0.7546771E-02  0.1266611E+00
          1   -1    0    0  501    0  0.00000000000E+00  0.00000000000E+00  0.10034094771E+04  0.10034094771E+04  0.00000000000E+00 0. -1.
         -1   -1    0    0    0  501 -0.00000000000E+00 -0.00000000000E+00 -0.11954458522E+02  0.11954458522E+02  0.00000000000E+00 0.  1.
         23    2    1    2    0    0 -0.29343249524E+02  0.47014349705E+02  0.37677316557E+03  0.39143385617E+03  0.90504530772E+02 0.  0.
         23    2    1    2    0    0  0.29343249524E+02 -0.47014349705E+02  0.61468185303E+03  0.62393007947E+03  0.91561936738E+02 0.  0.
          5    1    4    4  502    0 -0.23161553709E+02 -0.46717598989E+02  0.24694200739E+03  0.25243105324E+03  0.47000000000E+01 0. -1.
         -5    1    3    3    0  503 -0.52704369162E+02  0.16080711646E+02  0.30258251286E+03  0.30759487464E+03  0.47000000000E+01 0. -1.
          5    1    3    3  503    0  0.23361119637E+02  0.30933638059E+02  0.74190652713E+02  0.83838981532E+02  0.47000000000E+01 0.  1.
         -5    1    4    4    0  502  0.52504803233E+02 -0.29675071607E+00  0.36773984564E+03  0.37149902624E+03  0.47000000000E+01 0.  1.
<mgrwt>
<rscale>  0 0.10680135E+03</rscale>
<asrwt>0</asrwt>
<pdfrwt beam="1">  1        1 0.15437062E+00 0.10702786E+03</pdfrwt>
<pdfrwt beam="2">  1       -1 0.18391483E-02 0.10702786E+03</pdfrwt>
<totfact> 0.11673324E+04</totfact>
</mgrwt>
</event>
<event>
 8    1  0.2964543E-004  0.1366137E+03  0.7546771E-02  0.1218214E+00
          1   -1    0    0  501    0  0.00000000000E+00  0.00000000000E+00  0.92750661601E+03  0.92750661601E+03  0.00000000000E+00 0. -1.
         -1   -1    0    0    0  501 -0.00000000000E+00 -0.00000000000E+00 -0.20031331834E+02  0.20031331834E+02  0.00000000000E+00 0.  1.
         23    2    1    2    0    0  0.37582622201E+02  0.94769949219E+02  0.46864885960E+03  0.48815475321E+03  0.90936861137E+02 0.  0.
         23    2    1    2    0    0 -0.37582622201E+02 -0.94769949219E+02  0.43882642458E+03  0.45938319463E+03  0.89835916187E+02 0.  0.
          5    1    3    3  502    0  0.65011370397E+02  0.78862559884E+02  0.39066052758E+03  0.40383600563E+03  0.47000000000E+01 0. -1.
         -5    1    4    4    0  503 -0.39523368391E+02 -0.49914257792E+00  0.99449395542E+02  0.10711964370E+03  0.47000000000E+01 0.  1.
          5    1    4    4  503    0  0.19407461895E+01 -0.94270806641E+02  0.33937702903E+03  0.35226355093E+03  0.47000000000E+01 0. -1.
         -5    1    3    3    0  502 -0.27428748196E+02  0.15907389335E+02  0.77988332017E+02  0.84318747582E+02  0.47000000000E+01 0.  1.
<mgrwt>
<rscale>  0 0.13643077E+03</rscale>
<asrwt>0</asrwt>
<pdfrwt beam="1">  1        1 0.14269329E+00 0.13661372E+03</pdfrwt>
<pdfrwt beam="2">  1       -1 0.30817441E-02 0.13661372E+03</pdfrwt>
<totfact> 0.63947350E+03</totfact>
</mgrwt>
</event>
<event>
 7    1  0.2964543E-004  0.1600728E+03  0.7546771E-02  0.1211147E+00
          2   -1    0    0  501    0  0.00000000000E+00  0.00000000000E+00  0.34333382190E+03  0.34333382190E+03  0.00000000000E+00 0. -1.
         -2   -1    0    0    0  501 -0.00000000000E+00 -0.00000000000E+00 -0.51185539597E+02  0.51185539597E+02  0.00000000000E+00 0.  1.
         23    2    1    2    0    0 -0.76243407953E+01  0.37089754530E+02  0.69210962309E+02  0.12006652227E+03  0.90509844777E+02 0.  0.
          5    1    3    3  502    0 -0.11237369860E+02 -0.26155447740E+02  0.42013101827E+02  0.50966426723E+02  0.47000000000E+01 0. -1.
         -5    1    3    3    0  502  0.36130290644E+01  0.63245202270E+02  0.27197860483E+02  0.69100095543E+02  0.47000000000E+01 0.  1.
          5    1    1    2  503    0  0.74164680225E+02  0.71717871970E+01  0.14302769333E+03  0.16134077409E+03  0.47000000000E+01 0. -1.
         -5    1    1    2    0  503 -0.66540339429E+02 -0.44261541727E+02  0.79909626668E+02  0.11311206515E+03  0.47000000000E+01 0.  1.
<mgrwt>
<rscale>  0 0.14163412E+03</rscale>
<asrwt>0</asrwt>
<pdfrwt beam="1">  1        2 0.52820587E-01 0.16007283E+03</pdfrwt>
<pdfrwt beam="2">  1       -2 0.78746986E-02 0.16007283E+03</pdfrwt>
<totfact> 0.87890475E+03</totfact>
</mgrwt>
</event>
<event>
 8    1  0.2964543E-004  0.9788473E+02  0.7546771E-02  0.1287330E+00
         -1   -1    0    0    0  501 -0.00000000000E+00  0.00000000000E+00  0.35106001817E+02  0.35106001817E+02  0.00000000000E+00 0.  1.
          1   -1    0    0  501    0  0.00000000000E+00 -0.00000000000E+00 -0.31881465353E+03  0.31881465353E+03  0.00000000000E+00 0. -1.
         23    2    1    2    0    0 -0.10767416085E+02  0.27001958376E+02 -0.63376636205E+02  0.11282395966E+03  0.88699520019E+02 0.  0.
         23    2    1    2    0    0  0.10767416085E+02 -0.27001958376E+02 -0.22033201551E+03  0.24109669569E+03  0.93468586207E+02 0.  0.
          5    1    3    3  502    0  0.31823088643E+02 -0.12874342590E+02 -0.26777664789E+02  0.43790307140E+02  0.47000000000E+01 0. -1.
         -5    1    4    4    0  503  0.35955811274E+02  0.17025582421E+02 -0.54647165477E+02  0.67757608545E+02  0.47000000000E+01 0.  1.
          5    1    4    4  503    0 -0.25188395189E+02 -0.44027540797E+02 -0.16568485003E+03  0.17333908714E+03  0.47000000000E+01 0. -1.
         -5    1    3    3    0  502 -0.42590504728E+02  0.39876300965E+02 -0.36598971416E+02  0.69033652521E+02  0.47000000000E+01 0.  1.
<mgrwt>
<rscale>  0 0.96728615E+02</rscale>
<asrwt>0</asrwt>
<pdfrwt beam="1">  1        1 0.49048407E-01 0.97884726E+02</pdfrwt>
<pdfrwt beam="2">  1       -1 0.54009235E-02 0.97884726E+02</pdfrwt>
<totfact> 0.11660069E+04</totfact>
</mgrwt>
</event>
<event>
 8    1  0.2964543E-004  0.1096044E+03  0.7546771E-02  0.1262478E+00
          2   -1    0    0  501    0  0.00000000000E+00  0.00000000000E+00  0.76612898584E+02  0.76612898584E+02  0.00000000000E+00 0. -1.
         -2   -1    0    0    0  501 -0.00000000000E+00 -0.00000000000E+00 -0.16095245089E+03  0.16095245089E+03  0.00000000000E+00 0.  1.
         23    2    1    2    0    0 -0.34886719453E+02 -0.42889314108E+02 -0.16660178375E+02  0.11086340838E+03  0.94639089785E+02 0.  0.
         23    2    1    2    0    0  0.34886719453E+02  0.42889314108E+02 -0.67679373933E+02  0.12670194110E+03  0.91740436901E+02 0.  0.
          5    1    3    3  502    0  0.18173238019E+02 -0.47748997769E+02 -0.24408206723E+02  0.56816229402E+02  0.47000000000E+01 0. -1.
         -5    1    3    3    0  502 -0.53059957473E+02  0.48596836609E+01  0.77480283480E+01  0.54047178979E+02  0.47000000000E+01 0.  1.
          5    1    4    4  503    0  0.62643842753E+02  0.29387806325E+02 -0.65513638864E+02  0.95404512853E+02  0.47000000000E+01 0. -1.
         -5    1    4    4    0  503 -0.27757123300E+02  0.13501507782E+02 -0.21657350696E+01  0.31297428244E+02  0.47000000000E+01 0.  1.
<mgrwt>
<rscale>  0 0.10897583E+03</rscale>
<asrwt>0</asrwt>
<pdfrwt beam="1">  1        2 0.11786600E-01 0.10960444E+03</pdfrwt>
<pdfrwt beam="2">  1       -2 0.24761915E-01 0.10960444E+03</pdfrwt>
<totfact> 0.70182847E+03</totfact>
</mgrwt>
</event>
<event>
 8    1  0.2964543E-004  0.9419026E+02  0.7546771E-02  0.1298122E+00
          1   -1    0    0  501    0  0.00000000000E+00  0.00000000000E+00  0.48401906911E+03  0.48401906911E+03  0.00000000000E+00 0. -1.
         -1   -1    0    0    0  501 -0.00000000000E+00 -0.00000000000E+00 -0.17694884948E+02  0.17694884948E+02  0.00000000000E+00 0.  1.
         23    2    1    2    0    0 -0.23951427265E+02  0.24566854026E+02  0.18440673969E+03  0.20706919522E+03  0.87718896382E+02 0.  0.
         23    2    1    2    0    0  0.23951427265E+02 -0.24566854026E+02  0.28191744448E+03  0.29464475884E+03  0.78491319434E+02 0.  0.
          5    1    4    4  502    0 -0.55065508739E+01 -0.31836345676E+02  0.24246211513E+03  0.24465044917E+03  0.47000000000E+01 0. -1.
         -5    1    4    4    0  502  0.29457978139E+02  0.72694916502E+01  0.39455329347E+02  0.49994309664E+02  0.47000000000E+01 0.  1.
          5    1    3    3  503    0 -0.51708270575E+02  0.19457700084E+01  0.14288807171E+03  0.15204151506E+03  0.47000000000E+01 0. -1.
         -5    1    3    3    0  503  0.27756843310E+02  0.22621084017E+02  0.41518667984E+02  0.55027680160E+02  0.47000000000E+01 0.  1.
<mgrwt>
<rscale>  0 0.91981901E+02</rscale>
<asrwt>0</asrwt>
<pdfrwt beam="1">  1        1 0.74464462E-01 0.94190265E+02</pdfrwt>
<pdfrwt beam="2">  1       -1 0.27222904E-02 0.94190265E+02</pdfrwt>
<totfact> 0.18685882E+04</totfact>
</mgrwt>
</event>
<event>
 8    1  0.2964543E-004  0.1018308E+03  0.7546771E-02  0.1279830E+00
          2   -1    0    0  501    0  0.00000000000E+00  0.00000000000E+00  0.15621658397E+03  0.15621658397E+03  0.00000000000E+00 0. -1.
         -2   -1    0    0    0  501 -0.00000000000E+00 -0.00000000000E+00 -0.94004069784E+02  0.94004069784E+02  0.00000000000E+00 0.  1.
         23    2    1    2    0    0  0.35008160548E+02 -0.34944245438E+02  0.10303012793E+03  0.14051378014E+03  0.81744990992E+02 0.  0.
         23    2    1    2    0    0 -0.35008160548E+02  0.34944245438E+02 -0.40817613745E+02  0.10970687362E+03  0.89010386658E+02 0.  0.
          5    1    3    3  502    0 -0.12994415575E+02 -0.41758006578E+02  0.66051930432E+02  0.79357000090E+02  0.47000000000E+01 0. -1.
         -5    1    4    4    0  503  0.28024732898E+02  0.78024278647E+01 -0.26092606162E+02  0.39359593887E+02  0.47000000000E+01 0.  1.
          5    1    4    4  503    0 -0.63032893446E+02  0.27141817573E+02 -0.14725007582E+02  0.70347279732E+02  0.47000000000E+01 0. -1.
         -5    1    3    3    0  502  0.48002576123E+02  0.68137611398E+01  0.36978197500E+02  0.61156780046E+02  0.47000000000E+01 0.  1.
<mgrwt>
<rscale>  0 0.10022173E+03</rscale>
<asrwt>0</asrwt>
<pdfrwt beam="1">  1        2 0.24033321E-01 0.10183084E+03</pdfrwt>
<pdfrwt beam="2">  1       -2 0.14462165E-01 0.10183084E+03</pdfrwt>
<totfact> 0.75746269E+03</totfact>
</mgrwt>
</event>
<event>
 8    1  0.2964543E-004  0.1225093E+03  0.7546771E-02  0.1239044E+00
          2   -1    0    0  501    0  0.00000000000E+00  0.00000000000E+00  0.43835762313E+02  0.43835762313E+02  0.00000000000E+00 0. -1.
         -2   -1    0    0    0  501 -0.00000000000E+00 -0.00000000000E+00 -0.35131576511E+03  0.35131576511E+03  0.00000000000E+00 0.  1.
         23    2    1    2    0    0  0.80279522028E+02 -0.11931193146E+02 -0.12191253284E+03  0.17283288179E+03  0.91768100875E+02 0.  0.
         23    2    1    2    0    0 -0.80279522028E+02  0.11931193146E+02 -0.18556746996E+03  0.22231864563E+03  0.91668638377E+02 0.  0.
          5    1    3    3  502    0  0.52964803020E+02 -0.30291685127E+02 -0.18084780171E+02  0.63812270142E+02  0.47000000000E+01 0. -1.
         -5    1    4    4    0  503 -0.74996369205E+02 -0.28278073455E+02 -0.13777842065E+03  0.15946500566E+03  0.47000000000E+01 0.  1.
          5    1    4    4  503    0 -0.52831528234E+01  0.40209266601E+02 -0.47789049312E+02  0.62853639978E+02  0.47000000000E+01 0. -1.
         -5    1    3    3    0  502  0.27314719008E+02  0.18360491981E+02 -0.10382775267E+03  0.10902061165E+03  0.47000000000E+01 0.  1.
<mgrwt>
<rscale>  0 0.12249072E+03</rscale>
<asrwt>0</asrwt>
<pdfrwt beam="1">  1        2 0.67439638E-02 0.12250934E+03</pdfrwt>
<pdfrwt beam="2">  1       -2 0.54048577E-01 0.12250934E+03</pdfrwt>
<totfact> 0.33015799E+03</totfact>
</mgrwt>
</event>
<event>
 8    1  0.2964543E-004  0.9317110E+02  0.7546771E-02  0.1296850E+00
         -1   -1    0    0    0  501 -0.00000000000E+00  0.00000000000E+00  0.16841474770E+02  0.16841474770E+02  0.00000000000E+00 0.  1.
          1   -1    0    0  501    0  0.00000000000E+00 -0.00000000000E+00 -0.50156630396E+03  0.50156630396E+03  0.00000000000E+00 0. -1.
         23    2    1    2    0    0 -0.35028014467E+00  0.10665502219E+02 -0.24083778469E+03  0.25823185836E+03  0.92557973739E+02 0.  0.
         23    2    1    2    0    0  0.35028014467E+00 -0.10665502219E+02 -0.24388704450E+03  0.26017592037E+03  0.89981906140E+02 0.  0.
          5    1    3    3  502    0 -0.42006939700E+02  0.16945263163E+02 -0.16693991063E+03  0.17303973153E+03  0.47000000000E+01 0. -1.
         -5    1    4    4    0  503 -0.20743104076E+02 -0.27948032348E+02 -0.35419401798E+02  0.49879784508E+02  0.47000000000E+01 0.  1.
          5    1    4    4  503    0  0.21093384221E+02  0.17282530129E+02 -0.20846764270E+03  0.21029613586E+03  0.47000000000E+01 0. -1.
         -5    1    3    3    0  502  0.41656659556E+02 -0.62797609435E+01 -0.73897874057E+02  0.85192126825E+02  0.47000000000E+01 0.  1.
<mgrwt>
<rscale>  0 0.92524748E+02</rscale>
<asrwt>0</asrwt>
<pdfrwt beam="1">  1        1 0.77164032E-01 0.93171101E+02</pdfrwt>
<pdfrwt beam="2">  1       -1 0.25909966E-02 0.93171101E+02</pdfrwt>
<totfact> 0.19145501E+04</totfact>
</mgrwt>
</event>
<event>
 8    1  0.2964543E-004  0.1143805E+03  0.7546771E-02  0.1253100E+00
         -1   -1    0    0    0  501 -0.00000000000E+00  0.00000000000E+00  0.28166505353E+02  0.28166505353E+02  0.00000000000E+00 0.  1.
          1   -1    0    0  501    0  0.00000000000E+00 -0.00000000000E+00 -0.46873702316E+03  0.46873702316E+03  0.00000000000E+00 0. -1.
         23    2    1    2    0    0  0.54761348122E+02 -0.41400237878E+02 -0.18641846997E+03  0.21819910839E+03  0.90256412577E+02 0.  0.
         23    2    1    2    0    0 -0.54761348122E+02  0.41400237878E+02 -0.25415204784E+03  0.27870442012E+03  0.91488280300E+02 0.  0.
          5    1    3    3  502    0  0.10875914666E+02 -0.29077449443E+02 -0.16437771004E+03  0.16734964937E+03  0.47000000000E+01 0. -1.
         -5    1    3    3    0  502  0.43885433456E+02 -0.12322788435E+02 -0.22040759932E+02  0.50849459022E+02  0.47000000000E+01 0.  1.
          5    1    4    4  503    0 -0.66784522613E+02  0.22504278774E+02 -0.97529791176E+02  0.12041912303E+03  0.47000000000E+01 0. -1.
         -5    1    4    4    0  503  0.12023174492E+02  0.18895959104E+02 -0.15662225666E+03  0.15828529709E+03  0.47000000000E+01 0.  1.
<mgrwt>
<rscale>  0 0.11413394E+03</rscale>
<asrwt>0</asrwt>
<pdfrwt beam="1">  1        1 0.72113389E-01 0.11438046E+03</pdfrwt>
<pdfrwt beam="2">  1       -1 0.43333085E-02 0.11438046E+03</pdfrwt>
<totfact> 0.10085007E+04</totfact>
</mgrwt>
</event>
<event>
 8    1  0.2964543E-004  0.9052094E+02  0.7546771E-02  0.1302027E+00
          1   -1    0    0  501    0  0.00000000000E+00  0.00000000000E+00  0.67694628887E+03  0.67694628887E+03  0.00000000000E+00 0. -1.
         -1   -1    0    0    0  501 -0.00000000000E+00 -0.00000000000E+00 -0.12233515523E+02  0.12233515523E+02  0.00000000000E+00 0.  1.
         23    2    1    2    0    0 -0.58996323370E+01  0.13138515076E+01  0.28437546466E+03  0.29821879642E+03  0.89601974148E+02 0.  0.
         23    2    1    2    0    0  0.58996323370E+01 -0.13138515076E+01  0.38033730868E+03  0.39096100797E+03  0.90318932166E+02 0.  0.
          5    1    3    3  502    0 -0.18663199361E+02  0.34737765194E+02  0.22693754632E+03  0.23038612647E+03  0.47000000000E+01 0. -1.
         -5    1    3    3    0  502  0.12763567024E+02 -0.33423913686E+02  0.57437918339E+02  0.67832669949E+02  0.47000000000E+01 0.  1.
          5    1    4    4  503    0 -0.38494141561E+02  0.16074990358E+02  0.15478440591E+03  0.16037614088E+03  0.47000000000E+01 0. -1.
         -5    1    4    4    0  503  0.44393773898E+02 -0.17388841866E+02  0.22555290277E+03  0.23058486709E+03  0.47000000000E+01 0.  1.
<mgrwt>
<rscale>  0 0.90341576E+02</rscale>
<asrwt>0</asrwt>
<pdfrwt beam="1">  1        1 0.10414555E+00 0.90520944E+02</pdfrwt>
<pdfrwt beam="2">  1       -1 0.18820798E-02 0.90520944E+02</pdfrwt>
<totfact> 0.20222544E+04</totfact>
</mgrwt>
</event>
<event>
 8    1  0.2964543E-004  0.9439687E+02  0.7546771E-02  0.1294251E+00
          1   -1    0    0  501    0  0.00000000000E+00  0.00000000000E+00  0.55121065532E+02  0.55121065532E+02  0.00000000000E+00 0. -1.
         -1   -1    0    0    0  501 -0.00000000000E+00 -0.00000000000E+00 -0.29303782078E+03  0.29303782078E+03  0.00000000000E+00 0.  1.
         23    2    1    2    0    0 -0.85591667938E+01 -0.12748469756E+02  0.81751756959E+00  0.91439542818E+02  0.90137333211E+02 0.  0.
         23    2    1    2    0    0  0.85591667938E+01  0.12748469756E+02 -0.23873427282E+03  0.25671934350E+03  0.93139602155E+02 0.  0.
          5    1    4    4  502    0 -0.24386268895E+02  0.20983715390E+02 -0.27099680528E+02  0.42325986190E+02  0.47000000000E+01 0. -1.
         -5    1    3    3    0  503 -0.39271696419E+02  0.15821602730E+02  0.17499776267E+02  0.46053462649E+02  0.47000000000E+01 0.  1.
          5    1    3    3  503    0  0.30712529625E+02 -0.28570072486E+02 -0.16682258698E+02  0.45386080169E+02  0.47000000000E+01 0. -1.
         -5    1    4    4    0  502  0.32945435689E+02 -0.82352456339E+01 -0.21163459229E+03  0.21439335731E+03  0.47000000000E+01 0.  1.
<mgrwt>
<rscale>  0 0.93647751E+02</rscale>
<asrwt>0</asrwt>
<pdfrwt beam="1">  1        1 0.84801640E-02 0.94396866E+02</pdfrwt>
<pdfrwt beam="2">  1       -1 0.45082742E-01 0.94396866E+02</pdfrwt>
<totfact> 0.37416017E+03</totfact>
</mgrwt>
</event>
<event>
 8    1  0.2964543E-004  0.9555846E+02  0.7546771E-02  0.1291330E+00
          3   -1    0    0  501    0  0.00000000000E+00  0.00000000000E+00  0.29273685945E+03  0.29273685945E+03  0.00000000000E+00 0. -1.
         -3   -1    0    0    0  501 -0.00000000000E+00 -0.00000000000E+00 -0.30389511271E+02  0.30389511271E+02  0.00000000000E+00 0.  1.
         23    2    1    2    0    0  0.97439697061E+01  0.26914905831E+02  0.13389882558E+03  0.16450019750E+03  0.91170512691E+02 0.  0.
         23    2    1    2    0    0 -0.97439697061E+01 -0.26914905831E+02  0.12844852260E+03  0.15862617322E+03  0.88565697486E+02 0.  0.
          5    1    4    4  502    0 -0.41015986711E+02  0.60717990051E+01  0.34460709049E+02  0.54118466139E+02  0.47000000000E+01 0. -1.
         -5    1    4    4    0  502  0.31272017005E+02 -0.32986704836E+02  0.93987813553E+02  0.10450770708E+03  0.47000000000E+01 0.  1.
          5    1    3    3  503    0  0.11095708366E+02  0.54363710432E+02  0.12215304549E+03  0.13424598422E+03  0.47000000000E+01 0. -1.
         -5    1    3    3    0  503 -0.13517386601E+01 -0.27448804601E+02  0.11745780090E+02  0.30254213283E+02  0.47000000000E+01 0.  1.
<mgrwt>
<rscale>  0 0.94931841E+02</rscale>
<asrwt>0</asrwt>
<pdfrwt beam="1">  1        3 0.45036438E-01 0.95558461E+02</pdfrwt>
<pdfrwt beam="2">  1       -3 0.46753096E-02 0.95558461E+02</pdfrwt>
<totfact> 0.26694710E+03</totfact>
</mgrwt>
</event>
<event>
 8    1  0.2964543E-004  0.9898330E+02  0.7546771E-02  0.1287354E+00
         -1   -1    0    0    0  501 -0.00000000000E+00  0.00000000000E+00  0.22954298657E+02  0.22954298657E+02  0.00000000000E+00 0.  1.
          1   -1    0    0  501    0  0.00000000000E+00 -0.00000000000E+00 -0.46423778069E+03  0.46423778069E+03  0.00000000000E+00 0. -1.
         23    2    1    2    0    0  0.17393885810E+02 -0.12667135701E+02 -0.11468360845E+03  0.14592214152E+03  0.87623842349E+02 0.  0.
         23    2    1    2    0    0 -0.17393885810E+02  0.12667135701E+02 -0.32659987358E+03  0.34126993783E+03  0.96616196622E+02 0.  0.
          5    1    4    4  502    0 -0.45489325260E+02  0.38987177791E+02 -0.19075610398E+03  0.19999814986E+03  0.47000000000E+01 0. -1.
         -5    1    3    3    0  503 -0.85730896325E+00 -0.36440455315E+02 -0.11710253814E+02  0.38572811754E+02  0.47000000000E+01 0.  1.
          5    1    3    3  503    0  0.18251194774E+02  0.23773319613E+02 -0.10297335464E+03  0.10734932977E+03  0.47000000000E+01 0. -1.
         -5    1    4    4    0  502  0.28095439449E+02 -0.26320042090E+02 -0.13584376961E+03  0.14127178796E+03  0.47000000000E+01 0.  1.
<mgrwt>
<rscale>  0 0.96717656E+02</rscale>
<asrwt>0</asrwt>
<pdfrwt beam="1">  1        1 0.71421206E-01 0.98983297E+02</pdfrwt>
<pdfrwt beam="2">  1       -1 0.35314301E-02 0.98983297E+02</pdfrwt>
<totfact> 0.13595965E+04</totfact>
</mgrwt>
</event>
<event>
 8    1  0.2964543E-004  0.9651777E+02  0.7546771E-02  0.1289673E+00
         -3   -1    0    0    0  501 -0.00000000000E+00  0.00000000000E+00  0.17090793179E+03  0.17090793179E+03  0.00000000000E+00 0.  1.
          3   -1    0    0  501    0  0.00000000000E+00 -0.00000000000E+00 -0.58848127223E+02  0.58848127223E+02  0.00000000000E+00 0. -1.
         23    2    1    2    0    0 -0.82126846387E+01  0.23588817739E+02  0.19590100822E+02  0.98485792154E+02  0.93229816554E+02 0.  0.
         23    2    1    2    0    0  0.82126846387E+01 -0.23588817739E+02  0.92469703741E+02  0.13127026685E+03  0.89762778138E+02 0.  0.
          5    1    4    4  502    0  0.28143942594E+02  0.23608574200E+02  0.59757369348E+02  0.70302770015E+02  0.47000000000E+01 0. -1.
         -5    1    4    4    0  502 -0.19931257955E+02 -0.47197391938E+02  0.32712334393E+02  0.60967496839E+02  0.47000000000E+01 0.  1.
          5    1    3    3  503    0 -0.38555759457E+01  0.59552555925E+02  0.14594815513E+02  0.61615509597E+02  0.47000000000E+01 0. -1.
         -5    1    3    3    0  503 -0.43571086931E+01 -0.35963738186E+02  0.49952853088E+01  0.36870282557E+02  0.47000000000E+01 0.  1.
<mgrwt>
<rscale>  0 0.95670523E+02</rscale>
<asrwt>0</asrwt>
<pdfrwt beam="1">  1        3 0.90535581E-02 0.96517766E+02</pdfrwt>
<pdfrwt beam="2">  1       -3 0.26293528E-01 0.96517766E+02</pdfrwt>
<totfact> 0.25536876E+03</totfact>
</mgrwt>
</event>
<event>
 8    1  0.2964543E-004  0.2376354E+03  0.7546771E-02  0.1121467E+00
         -2   -1    0    0    0  501 -0.00000000000E+00  0.00000000000E+00  0.95204650846E+03  0.95204650846E+03  0.00000000000E+00 0.  1.
          2   -1    0    0  501    0  0.00000000000E+00 -0.00000000000E+00 -0.70164257286E+02  0.70164257286E+02  0.00000000000E+00 0. -1.
         23    2    1    2    0    0  0.16322438331E+03 -0.14641641927E+03  0.64355432768E+03  0.68602680303E+03  0.91600407566E+02 0.  0.
         23    2    1    2    0    0 -0.16322438331E+03  0.14641641927E+03  0.23832792350E+03  0.33618396272E+03  0.90219125064E+02 0.  0.
          5    1    3    3  502    0  0.91156427616E+02 -0.13544763604E+03  0.41084007591E+03  0.44211674293E+03  0.47000000000E+01 0. -1.
         -5    1    3    3    0  502  0.72067955697E+02 -0.10968783232E+02  0.23271425176E+03  0.24391006010E+03  0.47000000000E+01 0.  1.
          5    1    4    4  503    0 -0.46359792448E+02  0.64095545246E+02  0.32743242931E+02  0.85741933929E+02  0.47000000000E+01 0. -1.
         -5    1    4    4    0  503 -0.11686459087E+03  0.82320874028E+02  0.20558468057E+03  0.25044202879E+03  0.47000000000E+01 0.  1.
<mgrwt>
<rscale>  0 0.23750308E+03</rscale>
<asrwt>0</asrwt>
<pdfrwt beam="1">  1        2 0.10794502E-01 0.23763544E+03</pdfrwt>
<pdfrwt beam="2">  1       -2 0.14646868E+00 0.23763544E+03</pdfrwt>
<totfact> 0.19666518E+02</totfact>
</mgrwt>
</event>
<event>
 8    1  0.2964543E-004  0.1010406E+03  0.7546771E-02  0.1278918E+00
          1   -1    0    0  501    0  0.00000000000E+00  0.00000000000E+00  0.40259077630E+03  0.40259077630E+03  0.00000000000E+00 0. -1.
         -1   -1    0    0    0  501 -0.00000000000E+00 -0.00000000000E+00 -0.35669040690E+02  0.35669040690E+02  0.00000000000E+00 0.  1.
         23    2    1    2    0    0  0.37615854381E+02  0.98117309299E+01  0.30244994092E+03  0.31840236366E+03  0.91612640277E+02 0.  0.
         23    2    1    2    0    0 -0.37615854381E+02 -0.98117309299E+01  0.64471794699E+02  0.11985745334E+03  0.93262930707E+02 0.  0.
          5    1    3    3  502    0  0.67441826914E+02  0.67576391756E+01  0.23073984159E+03  0.24053488354E+03  0.47000000000E+01 0. -1.
         -5    1    3    3    0  502 -0.29825972533E+02  0.30540917543E+01  0.71710099325E+02  0.77867480113E+02  0.47000000000E+01 0.  1.
          5    1    4    4  503    0  0.21565073565E+02  0.24074322551E+02  0.22033925454E+02  0.39398087200E+02  0.47000000000E+01 0. -1.
         -5    1    4    4    0  503 -0.59180927946E+02 -0.33886053481E+02  0.42437869245E+02  0.80459366137E+02  0.47000000000E+01 0.  1.
<mgrwt>
<rscale>  0 0.10065810E+03</rscale>
<asrwt>0</asrwt>
<pdfrwt beam="1">  1        1 0.61937040E-01 0.10104057E+03</pdfrwt>
<pdfrwt beam="2">  1       -1 0.54875450E-02 0.10104057E+03</pdfrwt>
<totfact> 0.85584017E+03</totfact>
</mgrwt>
</event>
<event>
 8    1  0.2964543E-004  0.1187434E+03  0.7546771E-02  0.1246093E+00
          1   -1    0    0  501    0  0.00000000000E+00  0.00000000000E+00  0.43360504597E+03  0.43360504597E+03  0.00000000000E+00 0. -1.
         -1   -1    0    0    0  501 -0.00000000000E+00 -0.00000000000E+00 -0.32284977898E+02  0.32284977898E+02  0.00000000000E+00 0.  1.
         23    2    1    2    0    0  0.18525123464E+02 -0.74107602552E+02  0.17810796370E+03  0.21406177110E+03  0.90911375289E+02 0.  0.
         23    2    1    2    0    0 -0.18525123464E+02  0.74107602552E+02  0.22321210437E+03  0.25182825277E+03  0.88083530804E+02 0.  0.
          5    1    3    3  502    0  0.24582733165E+02 -0.47860169504E+02  0.17872822826E+03  0.18671040724E+03  0.47000000000E+01 0. -1.
         -5    1    3    3    0  502 -0.60576097009E+01 -0.26247433048E+02 -0.62026455734E+00  0.27351363861E+02  0.47000000000E+01 0.  1.
          5    1    4    4  503    0 -0.39505839710E+02  0.63108932679E+00  0.84233535785E+02  0.93158403785E+02  0.47000000000E+01 0. -1.
         -5    1    4    4    0  503  0.20980716246E+02  0.73476513225E+02  0.13897856858E+03  0.15866984898E+03  0.47000000000E+01 0.  1.
<mgrwt>
<rscale>  0 0.11820200E+03</rscale>
<asrwt>0</asrwt>
<pdfrwt beam="1">  1        1 0.66708464E-01 0.11874340E+03</pdfrwt>
<pdfrwt beam="2">  1       -1 0.49669200E-02 0.11874340E+03</pdfrwt>
<totfact> 0.91385613E+03</totfact>
</mgrwt>
</event>
<event>
 8    1  0.2964543E-004  0.1189700E+03  0.7546771E-02  0.1248837E+00
         -1   -1    0    0    0  501 -0.00000000000E+00  0.00000000000E+00  0.16653786786E+03  0.16653786786E+03  0.00000000000E+00 0.  1.
          1   -1    0    0  501    0  0.00000000000E+00 -0.00000000000E+00 -0.10638811805E+03  0.10638811805E+03  0.00000000000E+00 0. -1.
         23    2    1    2    0    0 -0.46341178260E+02  0.41395315042E+02  0.10078791728E+03  0.15592325147E+03  0.10145333493E+03 0.  0.
         23    2    1    2    0    0  0.46341178260E+02 -0.41395315042E+02 -0.40638167476E+02  0.11700273443E+03  0.90427331595E+02 0.  0.
          5    1    4    4  502    0  0.11624994030E+02 -0.51823234137E+02 -0.56027592881E+02  0.77343191340E+02  0.47000000000E+01 0. -1.
         -5    1    3    3    0  503 -0.29547021521E+02  0.72246937582E+02  0.89232941327E+02  0.11864760549E+03  0.47000000000E+01 0.  1.
          5    1    3    3  503    0 -0.16794156740E+02 -0.30851622539E+02  0.11554975957E+02  0.37275645981E+02  0.47000000000E+01 0. -1.
         -5    1    4    4    0  502  0.34716184230E+02  0.10427919095E+02  0.15389425406E+02  0.39659543094E+02  0.47000000000E+01 0.  1.
<mgrwt>
<rscale>  0 0.11658647E+03</rscale>
<asrwt>0</asrwt>
<pdfrwt beam="1">  1        1 0.16367403E-01 0.11896998E+03</pdfrwt>
<pdfrwt beam="2">  1       -1 0.25621210E-01 0.11896998E+03</pdfrwt>
<totfact> 0.42155519E+03</totfact>
</mgrwt>
</event>
<event>
 8    1  0.2964543E-004  0.1414917E+03  0.7546771E-02  0.1211633E+00
          1   -1    0    0  501    0  0.00000000000E+00  0.00000000000E+00  0.26435735994E+03  0.26435735994E+03  0.00000000000E+00 0. -1.
         -1   -1    0    0    0  501 -0.00000000000E+00 -0.00000000000E+00 -0.25471943002E+03  0.25471943002E+03  0.00000000000E+00 0.  1.
         23    2    1    2    0    0 -0.95903976751E+02  0.45026361345E+02  0.22267571024E+03  0.26382643283E+03  0.93781494759E+02 0.  0.
         23    2    1    2    0    0  0.95903976751E+02 -0.45026361345E+02 -0.21303778032E+03  0.25525035713E+03  0.92426743951E+02 0.  0.
          5    1    3    3  502    0 -0.57718507380E+02  0.54436330438E+01  0.19212456808E+03  0.20073614247E+03  0.47000000000E+01 0. -1.
         -5    1    4    4    0  503  0.21073976628E+02 -0.38430527930E+02 -0.20678512246E+02  0.48689925411E+02  0.47000000000E+01 0.  1.
          5    1    4    4  503    0  0.74830000124E+02 -0.65958334149E+01 -0.19235926807E+03  0.20656043171E+03  0.47000000000E+01 0. -1.
         -5    1    3    3    0  502 -0.38185469371E+02  0.39582728301E+02  0.30551142160E+02  0.63090290363E+02  0.47000000000E+01 0.  1.
<mgrwt>
<rscale>  0 0.14126765E+03</rscale>
<asrwt>0</asrwt>
<pdfrwt beam="1">  1        1 0.40670363E-01 0.14149175E+03</pdfrwt>
<pdfrwt beam="2">  1       -1 0.39187604E-01 0.14149175E+03</pdfrwt>
<totfact> 0.65999496E+02</totfact>
</mgrwt>
</event>
<event>
 8    1  0.2964543E-004  0.9474511E+02  0.7546771E-02  0.1292248E+00
          1   -1    0    0  501    0  0.00000000000E+00  0.00000000000E+00  0.18664888232E+03  0.18664888232E+03  0.00000000000E+00 0. -1.
         -1   -1    0    0    0  501 -0.00000000000E+00 -0.00000000000E+00 -0.59901231778E+02  0.59901231778E+02  0.00000000000E+00 0.  1.
         23    2    1    2    0    0 -0.12255319070E+02  0.92668885953E+01  0.11935699385E+03  0.15239005260E+03  0.93491005341E+02 0.  0.
         23    2    1    2    0    0  0.12255319070E+02 -0.92668885953E+01  0.73906566933E+01  0.94160061503E+02  0.92603603095E+02 0.  0.
          5    1    4    4  502    0  0.97830243209E+01 -0.43790617894E+02  0.28484411720E+02  0.53355201166E+02  0.47000000000E+01 0. -1.
         -5    1    4    4    0  502  0.24722947492E+01  0.34523729299E+02 -0.21093755026E+02  0.40804860337E+02  0.47000000000E+01 0.  1.
          5    1    3    3  503    0  0.37217767509E+02  0.15524433079E+02  0.32007279636E+02  0.51698415745E+02  0.47000000000E+01 0. -1.
         -5    1    3    3    0  503 -0.49473086579E+02 -0.62575444833E+01  0.87349714212E+02  0.10069163685E+03  0.47000000000E+01 0.  1.
<mgrwt>
<rscale>  0 0.94525462E+02</rscale>
<asrwt>0</asrwt>
<pdfrwt beam="1">  1        1 0.28715213E-01 0.94745111E+02</pdfrwt>
<pdfrwt beam="2">  1       -1 0.92155741E-02 0.94745111E+02</pdfrwt>
<totfact> 0.10122956E+04</totfact>
</mgrwt>
</event>
<event>
 8    1  0.2964543E-004  0.1096043E+03  0.7546771E-02  0.1261863E+00
         -2   -1    0    0    0  501 -0.00000000000E+00  0.00000000000E+00  0.23579663581E+02  0.23579663581E+02  0.00000000000E+00 0.  1.
          2   -1    0    0  501    0  0.00000000000E+00 -0.00000000000E+00 -0.53461437836E+03  0.53461437836E+03  0.00000000000E+00 0. -1.
         23    2    1    2    0    0 -0.14039170872E+01 -0.57050597147E+02 -0.32105726457E+03  0.33886657848E+03  0.92174016165E+02 0.  0.
         23    2    1    2    0    0  0.14039170872E+01  0.57050597147E+02 -0.18997745021E+03  0.21932746346E+03  0.93575440285E+02 0.  0.
          5    1    4    4  502    0 -0.35242585200E+02 -0.56807455748E+01 -0.75754571608E+02  0.83875835622E+02  0.47000000000E+01 0. -1.
         -5    1    3    3    0  503 -0.12269655818E+02  0.19602756903E+02 -0.33131157868E+02  0.40676481581E+02  0.47000000000E+01 0.  1.
          5    1    3    3  503    0  0.10865738731E+02 -0.76653354050E+02 -0.28792610670E+03  0.29819009690E+03  0.47000000000E+01 0. -1.
         -5    1    4    4    0  502  0.36646502287E+02  0.62731342722E+02 -0.11422287860E+03  0.13545162784E+03  0.47000000000E+01 0.  1.
<mgrwt>
<rscale>  0 0.10930458E+03</rscale>
<asrwt>0</asrwt>
<pdfrwt beam="1">  1        2 0.82248358E-01 0.10960431E+03</pdfrwt>
<pdfrwt beam="2">  1       -2 0.36276409E-02 0.10960431E+03</pdfrwt>
<totfact> 0.17033824E+04</totfact>
</mgrwt>
</event>
<event>
 8    1  0.2964543E-004  0.1067214E+03  0.7546771E-02  0.1267767E+00
          1   -1    0    0  501    0  0.00000000000E+00  0.00000000000E+00  0.15470533192E+03  0.15470533192E+03  0.00000000000E+00 0. -1.
         -1   -1    0    0    0  501 -0.00000000000E+00 -0.00000000000E+00 -0.74571208630E+02  0.74571208630E+02  0.00000000000E+00 0.  1.
         23    2    1    2    0    0 -0.39106758975E+02  0.29638469534E+02  0.60095229529E+02  0.12069010046E+03  0.92449371347E+02 0.  0.
         23    2    1    2    0    0  0.39106758975E+02 -0.29638469534E+02  0.20038893764E+02  0.10858644009E+03  0.94771726983E+02 0.  0.
          5    1    3    3  502    0 -0.37428156303E+02  0.61478631062E+02  0.37201022684E+02  0.81157224264E+02  0.47000000000E+01 0. -1.
         -5    1    3    3    0  502 -0.16786026715E+01 -0.31840161528E+02  0.22894206846E+02  0.39532876194E+02  0.47000000000E+01 0.  1.
          5    1    4    4  503    0  0.27160270110E+02 -0.46419142950E+02  0.48885049452E+02  0.72830317620E+02  0.47000000000E+01 0. -1.
         -5    1    4    4    0  503  0.11946488864E+02  0.16780673416E+02 -0.28846155688E+02  0.35756122475E+02  0.47000000000E+01 0.  1.
<mgrwt>
<rscale>  0 0.10620343E+03</rscale>
<asrwt>0</asrwt>
<pdfrwt beam="1">  1        1 0.23800820E-01 0.10672140E+03</pdfrwt>
<pdfrwt beam="2">  1       -1 0.11472494E-01 0.10672140E+03</pdfrwt>
<totfact> 0.92610213E+03</totfact>
</mgrwt>
</event>
<event>
 8    1  0.2964543E-004  0.9846821E+02  0.7546771E-02  0.1286045E+00
          2   -1    0    0  501    0  0.00000000000E+00  0.00000000000E+00  0.40094893895E+03  0.40094893895E+03  0.00000000000E+00 0. -1.
         -2   -1    0    0    0  501 -0.00000000000E+00 -0.00000000000E+00 -0.23388156934E+02  0.23388156934E+02  0.00000000000E+00 0.  1.
         23    2    1    2    0    0  0.19440897795E+02  0.13117157080E+02  0.21741555569E+03  0.23867449006E+03  0.95634617325E+02 0.  0.
         23    2    1    2    0    0 -0.19440897795E+02 -0.13117157080E+02  0.16014522633E+03  0.18566260583E+03  0.90962087547E+02 0.  0.
          5    1    3    3  502    0  0.45395161576E+02  0.25653156883E+02  0.19487107884E+03  0.20178115006E+03  0.47000000000E+01 0. -1.
         -5    1    3    3    0  502 -0.25954263780E+02 -0.12535999803E+02  0.22544476849E+02  0.36893339993E+02  0.47000000000E+01 0.  1.
          5    1    4    4  503    0  0.31149183989E+02  0.15829861057E+02  0.66274814307E+02  0.75068616450E+02  0.47000000000E+01 0. -1.
         -5    1    4    4    0  503 -0.50590081784E+02 -0.28947018137E+02  0.93870412019E+02  0.11059398938E+03  0.47000000000E+01 0.  1.
<mgrwt>
<rscale>  0 0.97315248E+02</rscale>
<asrwt>0</asrwt>
<pdfrwt beam="1">  1        2 0.61684447E-01 0.98468210E+02</pdfrwt>
<pdfrwt beam="2">  1       -2 0.35981783E-02 0.98468210E+02</pdfrwt>
<totfact> 0.23253590E+04</totfact>
</mgrwt>
</event>
<event>
 8    1  0.2964543E-004  0.9321189E+02  0.7546771E-02  0.1296766E+00
         -3   -1    0    0    0  501 -0.00000000000E+00  0.00000000000E+00  0.12042004900E+02  0.12042004900E+02  0.00000000000E+00 0.  1.
          3   -1    0    0  501    0  0.00000000000E+00 -0.00000000000E+00 -0.73222416485E+03  0.73222416485E+03  0.00000000000E+00 0. -1.
         23    2    1    2    0    0  0.87047819861E+01  0.13851491166E+02 -0.27928485543E+03  0.29362341803E+03  0.89146195143E+02 0.  0.
         23    2    1    2    0    0 -0.87047819861E+01 -0.13851491166E+02 -0.44089730453E+03  0.45064275172E+03  0.91765023317E+02 0.  0.
          5    1    3    3  502    0 -0.22756925693E+01 -0.27835933281E+02 -0.20989881328E+03  0.21180089654E+03  0.47000000000E+01 0. -1.
         -5    1    3    3    0  502  0.10980474555E+02  0.41687424447E+02 -0.69386042144E+02  0.81822521490E+02  0.47000000000E+01 0.  1.
          5    1    4    4  503    0 -0.49171177917E+02 -0.98853843532E+01 -0.28742730909E+03  0.29180828222E+03  0.47000000000E+01 0. -1.
         -5    1    4    4    0  503  0.40466395931E+02 -0.39661068132E+01 -0.15346999544E+03  0.15883446951E+03  0.47000000000E+01 0.  1.
<mgrwt>
<rscale>  0 0.92560848E+02</rscale>
<asrwt>0</asrwt>
<pdfrwt beam="1">  1        3 0.11264986E+00 0.93211891E+02</pdfrwt>
<pdfrwt beam="2">  1       -3 0.18526163E-02 0.93211891E+02</pdfrwt>
<totfact> 0.15854386E+03</totfact>
</mgrwt>
</event>
<event>
 8    1  0.2964543E-004  0.1016540E+03  0.7546771E-02  0.1277541E+00
         -1   -1    0    0    0  501 -0.00000000000E+00  0.00000000000E+00  0.32563889843E+02  0.32563889843E+02  0.00000000000E+00 0.  1.
          1   -1    0    0  501    0  0.00000000000E+00 -0.00000000000E+00 -0.34195012065E+03  0.34195012065E+03  0.00000000000E+00 0. -1.
         23    2    1    2    0    0 -0.28635303549E+02 -0.28189207391E+02 -0.20804843892E+03  0.23097699240E+03  0.91932616924E+02 0.  0.
         23    2    1    2    0    0  0.28635303549E+02  0.28189207391E+02 -0.10133779188E+03  0.14353701810E+03  0.93375133082E+02 0.  0.
          5    1    3    3  502    0  0.20247427185E+02 -0.32540916403E+01 -0.14803109499E+03  0.14951870286E+03  0.47000000000E+01 0. -1.
         -5    1    4    4    0  503  0.21674885725E+02  0.56689329256E+02 -0.95509141695E+02  0.11325884897E+03  0.47000000000E+01 0.  1.
          5    1    4    4  503    0  0.69604178233E+01 -0.28500121866E+02 -0.58286501851E+01  0.30278169126E+02  0.47000000000E+01 0. -1.
         -5    1    3    3    0  502 -0.48882730734E+02 -0.24935115750E+02 -0.60017343931E+02  0.81458289535E+02  0.47000000000E+01 0.  1.
<mgrwt>
<rscale>  0 0.10132148E+03</rscale>
<asrwt>0</asrwt>
<pdfrwt beam="1">  1        1 0.52607708E-01 0.10165396E+03</pdfrwt>
<pdfrwt beam="2">  1       -1 0.50098295E-02 0.10165396E+03</pdfrwt>
<totfact> 0.11986284E+04</totfact>
</mgrwt>
</event>
<event>
 8    1  0.2964543E-004  0.1044425E+03  0.7546771E-02  0.1271952E+00
         -2   -1    0    0    0  501 -0.00000000000E+00  0.00000000000E+00  0.28355892136E+02  0.28355892136E+02  0.00000000000E+00 0.  1.
          2   -1    0    0  501    0  0.00000000000E+00 -0.00000000000E+00 -0.85743168752E+03  0.85743168752E+03  0.00000000000E+00 0. -1.
         23    2    1    2    0    0 -0.47795301028E+02  0.10110815856E+02 -0.85113337218E+02  0.13473129878E+03  0.92312638899E+02 0.  0.
         23    2    1    2    0    0  0.47795301028E+02 -0.10110815856E+02 -0.74396245817E+03  0.75105628088E+03  0.90657478938E+02 0.  0.
          5    1    3    3  502    0  0.64223922940E+01 -0.30179298451E+02 -0.48716446502E+02  0.57856886691E+02  0.47000000000E+01 0. -1.
         -5    1    4    4    0  503 -0.80951766744E+01 -0.38780514790E+02 -0.27268174966E+03  0.27558462731E+03  0.47000000000E+01 0.  1.
          5    1    4    4  503    0  0.55890477702E+02  0.28669698934E+02 -0.47128070851E+03  0.47547165357E+03  0.47000000000E+01 0. -1.
         -5    1    3    3    0  502 -0.54217693322E+02  0.40290114307E+02 -0.36396890716E+02  0.76874412087E+02  0.47000000000E+01 0.  1.
<mgrwt>
<rscale>  0 0.10407560E+03</rscale>
<asrwt>0</asrwt>
<pdfrwt beam="1">  1        2 0.13191257E+00 0.10444253E+03</pdfrwt>
<pdfrwt beam="2">  1       -2 0.43624449E-02 0.10444253E+03</pdfrwt>
<totfact> 0.74387723E+03</totfact>
</mgrwt>
</event>
<event>
 8    1  0.2964543E-004  0.1338895E+03  0.7546771E-02  0.1222061E+00
          3   -1    0    0  501    0  0.00000000000E+00  0.00000000000E+00  0.77106664528E+03  0.77106664528E+03  0.00000000000E+00 0. -1.
         -3   -1    0    0    0  501 -0.00000000000E+00 -0.00000000000E+00 -0.31555869523E+02  0.31555869523E+02  0.00000000000E+00 0.  1.
         23    2    1    2    0    0 -0.90975597621E+02  0.24094171749E+02  0.16151792859E+03  0.20932485003E+03  0.94190037217E+02 0.  0.
         23    2    1    2    0    0  0.90975597621E+02 -0.24094171749E+02  0.57799284717E+03  0.59329766477E+03  0.95232868111E+02 0.  0.
          5    1    3    3  502    0 -0.11914441881E+02 -0.28669683844E+02  0.72525203253E+02  0.79031005334E+02  0.47000000000E+01 0. -1.
         -5    1    4    4    0  503  0.71423630139E+02  0.28611821771E+02  0.31105053338E+03  0.32045981901E+03  0.47000000000E+01 0.  1.
          5    1    4    4  503    0  0.19551967482E+02 -0.52705993520E+02  0.26694231379E+03  0.27283784576E+03  0.47000000000E+01 0. -1.
         -5    1    3    3    0  502 -0.79061155740E+02  0.52763855593E+02  0.88992725332E+02  0.13029384470E+03  0.47000000000E+01 0.  1.
<mgrwt>
<rscale>  0 0.13370414E+03</rscale>
<asrwt>0</asrwt>
<pdfrwt beam="1">  1        3 0.11862562E+00 0.13388946E+03</pdfrwt>
<pdfrwt beam="2">  1       -3 0.48547497E-02 0.13388946E+03</pdfrwt>
<totfact> 0.33853021E+02</totfact>
</mgrwt>
</event>
<event>
 8    1  0.2964543E-004  0.1124199E+03  0.7546771E-02  0.1256772E+00
          1   -1    0    0  501    0  0.00000000000E+00  0.00000000000E+00  0.14473974597E+04  0.14473974597E+04  0.00000000000E+00 0. -1.
         -1   -1    0    0    0  501 -0.00000000000E+00 -0.00000000000E+00 -0.86361311414E+01  0.86361311414E+01  0.00000000000E+00 0.  1.
         23    2    1    2    0    0 -0.44664474194E+02  0.46915014571E+02  0.74013122894E+03  0.74841627828E+03  0.90203967250E+02 0.  0.
         23    2    1    2    0    0  0.44664474194E+02 -0.46915014571E+02  0.69863009959E+03  0.70761731252E+03  0.91882049845E+02 0.  0.
          5    1    4    4  502    0  0.70135602558E+02 -0.50035956875E+02  0.54507969834E+03  0.55186643970E+03  0.47000000000E+01 0. -1.
         -5    1    4    4    0  502 -0.25471128363E+02  0.31209423043E+01  0.15355040125E+03  0.15575087282E+03  0.47000000000E+01 0.  1.
          5    1    3    3  503    0 -0.10515995059E+02  0.68028102278E+02  0.40208207830E+03  0.40795893977E+03  0.47000000000E+01 0. -1.
         -5    1    3    3    0  503 -0.34148479135E+02 -0.21113087707E+02  0.33804915064E+03  0.34045733851E+03  0.47000000000E+01 0.  1.
<mgrwt>
<rscale>  0 0.11207655E+03</rscale>
<asrwt>0</asrwt>
<pdfrwt beam="1">  1        1 0.22267634E+00 0.11241995E+03</pdfrwt>
<pdfrwt beam="2">  1       -1 0.13286367E-02 0.11241995E+03</pdfrwt>
<totfact> 0.93142368E+03</totfact>
</mgrwt>
</event>
<event>
 8    1  0.2964543E-004  0.9920615E+02  0.7546771E-02  0.1282000E+00
          2   -1    0    0  501    0  0.00000000000E+00  0.00000000000E+00  0.12437434189E+04  0.12437434189E+04  0.00000000000E+00 0. -1.
         -2   -1    0    0    0  501 -0.00000000000E+00 -0.00000000000E+00 -0.82193803033E+01  0.82193803033E+01  0.00000000000E+00 0.  1.
         23    2    1    2    0    0 -0.74330559313E+01 -0.36954715263E+02  0.49630294100E+03  0.50612100284E+03  0.91765783211E+02 0.  0.
         23    2    1    2    0    0  0.74330559313E+01  0.36954715263E+02  0.73922109764E+03  0.74584179641E+03  0.91712882261E+02 0.  0.
          5    1    4    4  502    0  0.46490311282E+02  0.36767828026E+02  0.41327670477E+03  0.41753197115E+03  0.47000000000E+01 0. -1.
         -5    1    4    4    0  502 -0.39057255351E+02  0.18688723742E+00  0.32594439287E+03  0.32830982526E+03  0.47000000000E+01 0.  1.
          5    1    3    3  503    0  0.38050203667E+02 -0.64597790815E+01  0.29110687667E+03  0.29369176085E+03  0.47000000000E+01 0. -1.
         -5    1    3    3    0  503 -0.45483259599E+02 -0.30494936182E+02  0.20519606433E+03  0.21242924199E+03  0.47000000000E+01 0.  1.
<mgrwt>
<rscale>  0 0.99193915E+02</rscale>
<asrwt>0</asrwt>
<pdfrwt beam="1">  1        2 0.19134499E+00 0.99206150E+02</pdfrwt>
<pdfrwt beam="2">  1       -2 0.12645210E-02 0.99206150E+02</pdfrwt>
<totfact> 0.26612353E+04</totfact>
</mgrwt>
</event>
<event>
 7    1  0.2964543E-004  0.3816774E+03  0.7546771E-02  0.1050316E+00
         -2   -1    0    0    0  501 -0.00000000000E+00  0.00000000000E+00  0.77568499464E+02  0.77568499464E+02  0.00000000000E+00 0.  1.
          2   -1    0    0  501    0  0.00000000000E+00 -0.00000000000E+00 -0.46951281117E+03  0.46951281117E+03  0.00000000000E+00 0. -1.
         23    2    1    2    0    0  0.35024253946E+02  0.17984738188E+02 -0.67200963191E+02  0.12087796919E+03  0.92441142402E+02 0.  0.
          5    1    3    3  502    0  0.32894866521E+02 -0.22715515018E+02  0.21414442571E+01  0.40308096575E+02  0.47000000000E+01 0. -1.
         -5    1    3    3    0  502  0.21293874244E+01  0.40700253206E+02 -0.69342407449E+02  0.80569872611E+02  0.47000000000E+01 0.  1.
          5    1    1    2  503    0 -0.11858263630E+03 -0.20511421053E+02 -0.32048426714E+03  0.34236649297E+03  0.47000000000E+01 0. -1.
         -5    1    1    2    0  503  0.83558382359E+02  0.25266828651E+01 -0.42590813788E+01  0.83836848479E+02  0.47000000000E+01 0.  1.
<mgrwt>
<rscale>  0 0.38167737E+03</rscale>
<asrwt>0</asrwt>
<pdfrwt beam="1">  1        2 0.72232742E-01 0.38167737E+03</pdfrwt>
<pdfrwt beam="2">  1       -2 0.11933615E-01 0.38167737E+03</pdfrwt>
<totfact> 0.33514892E+03</totfact>
</mgrwt>
</event>
<event>
 8    1  0.2964543E-004  0.9531774E+02  0.7546771E-02  0.1290769E+00
          1   -1    0    0  501    0  0.00000000000E+00  0.00000000000E+00  0.22977122955E+03  0.22977122955E+03  0.00000000000E+00 0. -1.
         -1   -1    0    0    0  501 -0.00000000000E+00 -0.00000000000E+00 -0.71478294083E+02  0.71478294083E+02  0.00000000000E+00 0.  1.
         23    2    1    2    0    0  0.27093078345E+02  0.20765183670E+02  0.18030996418E+03  0.20395380601E+03  0.88995753034E+02 0.  0.
         23    2    1    2    0    0 -0.27093078345E+02 -0.20765183670E+02 -0.22017028711E+02  0.97295717620E+02  0.88410855481E+02 0.  0.
          5    1    4    4  502    0  0.77496236975E+01  0.30936011740E+02 -0.67403741993E+01  0.32933510809E+02  0.47000000000E+01 0. -1.
         -5    1    3    3    0  503 -0.19403333190E+02 -0.55519073513E+01  0.59914021038E+01  0.21570811605E+02  0.47000000000E+01 0.  1.
          5    1    3    3  503    0  0.46496411535E+02  0.26317091021E+02  0.17431856207E+03  0.18238299441E+03  0.47000000000E+01 0. -1.
         -5    1    4    4    0  502 -0.34842702043E+02 -0.51701195410E+02 -0.15276654512E+02  0.64362206811E+02  0.47000000000E+01 0.  1.
<mgrwt>
<rscale>  0 0.95180979E+02</rscale>
<asrwt>0</asrwt>
<pdfrwt beam="1">  1        1 0.35349420E-01 0.95317741E+02</pdfrwt>
<pdfrwt beam="2">  1       -1 0.10996661E-01 0.95317741E+02</pdfrwt>
<totfact> 0.60069693E+03</totfact>
</mgrwt>
</event>
<event>
 8    1  0.2964543E-004  0.2630492E+03  0.7546771E-02  0.1105489E+00
         -2   -1    0    0    0  501 -0.00000000000E+00  0.00000000000E+00  0.19221656837E+03  0.19221656837E+03  0.00000000000E+00 0.  1.
          2   -1    0    0  501    0  0.00000000000E+00 -0.00000000000E+00 -0.35862765355E+03  0.35862765355E+03  0.00000000000E+00 0. -1.
         23    2    1    2    0    0 -0.18878449826E+03  0.15872221951E+03 -0.77684270240E+02  0.27428037849E+03  0.91446981544E+02 0.  0.
         23    2    1    2    0    0  0.18878449826E+03 -0.15872221951E+03 -0.88726814944E+02  0.27656384343E+03  0.88220077397E+02 0.  0.
          5    1    4    4  502    0  0.18970616457E+03 -0.13432327998E+03 -0.63204028182E+02  0.24093154961E+03  0.47000000000E+01 0. -1.
         -5    1    4    4    0  502 -0.92166630993E+00 -0.24398939527E+02 -0.25522786762E+02  0.35632293820E+02  0.47000000000E+01 0.  1.
          5    1    3    3  503    0 -0.89749967899E+02  0.12214545777E+03 -0.17464254604E+02  0.15264881192E+03  0.47000000000E+01 0. -1.
         -5    1    3    3    0  503 -0.99034530359E+02  0.36576761736E+02 -0.60220015636E+02  0.12163156657E+03  0.47000000000E+01 0.  1.
<mgrwt>
<rscale>  0 0.26277268E+03</rscale>
<asrwt>0</asrwt>
<pdfrwt beam="1">  1        2 0.55173484E-01 0.26304920E+03</pdfrwt>
<pdfrwt beam="2">  1       -2 0.29571780E-01 0.26304920E+03</pdfrwt>
<totfact> 0.94613267E+02</totfact>
</mgrwt>
</event>
<event>
 8    1  0.2964543E-004  0.9894003E+02  0.7546771E-02  0.1286216E+00
         -1   -1    0    0    0  501 -0.00000000000E+00  0.00000000000E+00  0.55792929355E+02  0.55792929355E+02  0.00000000000E+00 0.  1.
          1   -1    0    0  501    0  0.00000000000E+00 -0.00000000000E+00 -0.20672023164E+03  0.20672023164E+03  0.00000000000E+00 0. -1.
         23    2    1    2    0    0 -0.29528618370E+02 -0.21959474769E+02 -0.13311128844E+03  0.16198187159E+03  0.84648412748E+02 0.  0.
         23    2    1    2    0    0  0.29528618370E+02  0.21959474769E+02 -0.17816013847E+02  0.10053128940E+03  0.91842103437E+02 0.  0.
          5    1    3    3  502    0 -0.49492835243E+02 -0.29405768089E+02 -0.51109146477E+02  0.77126356007E+02  0.47000000000E+01 0. -1.
         -5    1    3    3    0  502  0.19964216873E+02  0.74462933203E+01 -0.82002141959E+02  0.84855515586E+02  0.47000000000E+01 0.  1.
          5    1    4    4  503    0 -0.26273154711E+02  0.23922670223E+02 -0.25479704462E+02  0.43975881442E+02  0.47000000000E+01 0. -1.
         -5    1    4    4    0  503  0.55801773081E+02 -0.19631954542E+01  0.76636906157E+01  0.56555407957E+02  0.47000000000E+01 0.  1.
<mgrwt>
<rscale>  0 0.97236847E+02</rscale>
<asrwt>0</asrwt>
<pdfrwt beam="1">  1        1 0.31803113E-01 0.98940031E+02</pdfrwt>
<pdfrwt beam="2">  1       -1 0.85835274E-02 0.98940031E+02</pdfrwt>
<totfact> 0.99713924E+03</totfact>
</mgrwt>
</event>
<event>
 8    1  0.2964543E-004  0.1122641E+03  0.7546771E-02  0.1257808E+00
         -2   -1    0    0    0  501 -0.00000000000E+00  0.00000000000E+00  0.17692774996E+03  0.17692774996E+03  0.00000000000E+00 0.  1.
          2   -1    0    0  501    0  0.00000000000E+00 -0.00000000000E+00 -0.70284413347E+03  0.70284413347E+03  0.00000000000E+00 0. -1.
         23    2    1    2    0    0 -0.58840788238E+02 -0.72512661929E+01  0.15501404819E+03  0.18964907960E+03  0.91774718934E+02 0.  0.
         23    2    1    2    0    0  0.58840788238E+02  0.72512661929E+01 -0.68093043170E+03  0.69012280382E+03  0.95333164826E+02 0.  0.
          5    1    4    4  502    0  0.73613147760E+02  0.33873957681E+02 -0.51487617184E+03  0.52123497854E+03  0.47000000000E+01 0. -1.
         -5    1    3    3    0  503 -0.23925741809E+01  0.23187765909E+02  0.10643148868E+03  0.10905571366E+03  0.47000000000E+01 0.  1.
          5    1    3    3  503    0 -0.56448214057E+02 -0.30439032102E+02  0.48582559514E+02  0.80593365946E+02  0.47000000000E+01 0. -1.
         -5    1    4    4    0  502 -0.14772359522E+02 -0.26622691488E+02 -0.16605425987E+03  0.16888782528E+03  0.47000000000E+01 0.  1.
<mgrwt>
<rscale>  0 0.11150505E+03</rscale>
<asrwt>0</asrwt>
<pdfrwt beam="1">  1        2 0.10812987E+00 0.11226412E+03</pdfrwt>
<pdfrwt beam="2">  1       -2 0.27219653E-01 0.11226412E+03</pdfrwt>
<totfact> 0.51698910E+02</totfact>
</mgrwt>
</event>
<event>
 8    1  0.2964543E-004  0.9326437E+02  0.7546771E-02  0.1296353E+00
          3   -1    0    0  501    0  0.00000000000E+00  0.00000000000E+00  0.82001756319E+02  0.82001756319E+02  0.00000000000E+00 0. -1.
         -3   -1    0    0    0  501 -0.00000000000E+00 -0.00000000000E+00 -0.14659666691E+03  0.14659666691E+03  0.00000000000E+00 0.  1.
         23    2    1    2    0    0  0.24756580277E+01 -0.32979248723E+01  0.29260334452E+02  0.97746658300E+02  0.93173155176E+02 0.  0.
         23    2    1    2    0    0 -0.24756580277E+01  0.32979248723E+01 -0.93855245045E+02  0.13085176493E+03  0.91084423322E+02 0.  0.
          5    1    3    3  502    0 -0.30133631561E+02 -0.18375260938E+02  0.45721523776E+02  0.57950269214E+02  0.47000000000E+01 0. -1.
         -5    1    3    3    0  502  0.32609289589E+02  0.15077336065E+02 -0.16461189324E+02  0.39796389086E+02  0.47000000000E+01 0.  1.
          5    1    4    4  503    0 -0.28365923558E+02 -0.29159111960E+02 -0.74034685374E+02  0.84605579414E+02  0.47000000000E+01 0. -1.
         -5    1    4    4    0  503  0.25890265530E+02  0.32457036832E+02 -0.19820559671E+02  0.46246185516E+02  0.47000000000E+01 0.  1.
<mgrwt>
<rscale>  0 0.92738271E+02</rscale>
<asrwt>0</asrwt>
<pdfrwt beam="1">  1        3 0.12615655E-01 0.93264366E+02</pdfrwt>
<pdfrwt beam="2">  1       -3 0.22553333E-01 0.93264366E+02</pdfrwt>
<totfact> 0.19312403E+03</totfact>
</mgrwt>
</event>
<event>
 8    1  0.2964543E-004  0.1139245E+03  0.7546771E-02  0.1253719E+00
          2   -1    0    0  501    0  0.00000000000E+00  0.00000000000E+00  0.11575014769E+04  0.11575014769E+04  0.00000000000E+00 0. -1.
         -2   -1    0    0    0  501 -0.00000000000E+00 -0.00000000000E+00 -0.16283969857E+02  0.16283969857E+02  0.00000000000E+00 0.  1.
         23    2    1    2    0    0  0.61584468439E+02 -0.27848007078E+02  0.89893726811E+03  0.90605701834E+03  0.91010714979E+02 0.  0.
         23    2    1    2    0    0 -0.61584468439E+02  0.27848007078E+02  0.24228023893E+03  0.26772842841E+03  0.91709535776E+02 0.  0.
          5    1    3    3  502    0  0.41871274749E+02 -0.59723803779E+02  0.67631328547E+03  0.68025134067E+03  0.47000000000E+01 0. -1.
         -5    1    4    4    0  503 -0.19896905317E+02  0.49127989326E+02  0.19040660361E+03  0.19770232895E+03  0.47000000000E+01 0.  1.
          5    1    4    4  503    0 -0.41687563122E+02 -0.21279982248E+02  0.51873635317E+02  0.70026099452E+02  0.47000000000E+01 0. -1.
         -5    1    3    3    0  502  0.19713193690E+02  0.31875796701E+02  0.22262398264E+03  0.22580567767E+03  0.47000000000E+01 0.  1.
<mgrwt>
<rscale>  0 0.11378382E+03</rscale>
<asrwt>0</asrwt>
<pdfrwt beam="1">  1        2 0.17807709E+00 0.11392452E+03</pdfrwt>
<pdfrwt beam="2">  1       -2 0.25052270E-02 0.11392452E+03</pdfrwt>
<totfact> 0.11202751E+04</totfact>
</mgrwt>
</event>
<event>
 8    1  0.2964543E-004  0.1128147E+03  0.7546771E-02  0.1255989E+00
          1   -1    0    0  501    0  0.00000000000E+00  0.00000000000E+00  0.35583639043E+03  0.35583639043E+03  0.00000000000E+00 0. -1.
         -1   -1    0    0    0  501 -0.00000000000E+00 -0.00000000000E+00 -0.53607198332E+02  0.53607198332E+02  0.00000000000E+00 0.  1.
         23    2    1    2    0    0  0.64431640300E+02 -0.58278594883E+01  0.26993561817E+03  0.29209782923E+03  0.90942309549E+02 0.  0.
         23    2    1    2    0    0 -0.64431640300E+02  0.58278594883E+01  0.32293573934E+02  0.11734575954E+03  0.92421599998E+02 0.  0.
          5    1    4    4  502    0 -0.87619988635E+02  0.11465028634E+02  0.25504001172E+02  0.92093720556E+02  0.47000000000E+01 0. -1.
         -5    1    3    3    0  503  0.14546101431E+02  0.29579637742E+02  0.18109343109E+03  0.18412893531E+03  0.47000000000E+01 0.  1.
          5    1    3    3  503    0  0.49885538869E+02 -0.35407497230E+02  0.88842187078E+02  0.10796889391E+03  0.47000000000E+01 0. -1.
         -5    1    4    4    0  502  0.23188348335E+02 -0.56371691454E+01  0.67895727618E+01  0.25252038982E+02  0.47000000000E+01 0.  1.
<mgrwt>
<rscale>  0 0.11251129E+03</rscale>
<asrwt>0</asrwt>
<pdfrwt beam="1">  1        1 0.54744059E-01 0.11281468E+03</pdfrwt>
<pdfrwt beam="2">  1       -1 0.82472615E-02 0.11281468E+03</pdfrwt>
<totfact> 0.54861075E+03</totfact>
</mgrwt>
</event>
<event>
 8    1  0.2964543E-004  0.1057123E+03  0.7546771E-02  0.1269358E+00
          2   -1    0    0  501    0  0.00000000000E+00  0.00000000000E+00  0.64388740178E+03  0.64388740178E+03  0.00000000000E+00 0. -1.
         -2   -1    0    0    0  501 -0.00000000000E+00 -0.00000000000E+00 -0.28084944587E+02  0.28084944587E+02  0.00000000000E+00 0.  1.
         23    2    1    2    0    0 -0.20201695323E+00 -0.53891403607E+02  0.99353497299E+02  0.14507311749E+03  0.90943761733E+02 0.  0.
         23    2    1    2    0    0  0.20201695323E+00  0.53891403607E+02  0.51644895989E+03  0.52689922888E+03  0.89436821414E+02 0.  0.
          5    1    3    3  502    0  0.38582534838E+02 -0.60552484037E+01  0.60309608085E+02  0.72004283589E+02  0.47000000000E+01 0. -1.
         -5    1    3    3    0  502 -0.38784551791E+02 -0.47836155203E+02  0.39043889214E+02  0.73068833898E+02  0.47000000000E+01 0.  1.
          5    1    4    4  503    0 -0.32441069884E+02  0.45828799300E+02  0.43534078606E+03  0.43897197162E+03  0.47000000000E+01 0. -1.
         -5    1    4    4    0  503  0.32643086837E+02  0.80626043068E+01  0.81108173831E+02  0.87927257257E+02  0.47000000000E+01 0.  1.
<mgrwt>
<rscale>  0 0.10538742E+03</rscale>
<asrwt>0</asrwt>
<pdfrwt beam="1">  1        2 0.99059589E-01 0.10571231E+03</pdfrwt>
<pdfrwt beam="2">  1       -2 0.43207612E-02 0.10571231E+03</pdfrwt>
<totfact> 0.10648485E+04</totfact>
</mgrwt>
</event>
<event>
 8    1  0.2964543E-004  0.9261627E+02  0.7546771E-02  0.1298964E+00
         -2   -1    0    0    0  501 -0.00000000000E+00  0.00000000000E+00  0.20776455844E+02  0.20776455844E+02  0.00000000000E+00 0.  1.
          2   -1    0    0  501    0  0.00000000000E+00 -0.00000000000E+00 -0.41748942416E+03  0.41748942416E+03  0.00000000000E+00 0. -1.
         23    2    1    2    0    0  0.29257401587E+01 -0.10696714465E+02 -0.14419886292E+03  0.16930278562E+03  0.88017847596E+02 0.  0.
         23    2    1    2    0    0 -0.29257401587E+01  0.10696714465E+02 -0.25251410540E+03  0.26896309438E+03  0.91949948672E+02 0.  0.
          5    1    3    3  502    0  0.36008387130E+02 -0.30921343259E+02 -0.61352337466E+02  0.77710570229E+02  0.47000000000E+01 0. -1.
         -5    1    3    3    0  502 -0.33082646972E+02  0.20224628795E+02 -0.82846525454E+02  0.91592215392E+02  0.47000000000E+01 0.  1.
          5    1    4    4  503    0 -0.25961143393E+02 -0.33223945893E+02 -0.10418743847E+03  0.11249410599E+03  0.47000000000E+01 0. -1.
         -5    1    4    4    0  503  0.23035403235E+02  0.43920660357E+02 -0.14832666693E+03  0.15646898840E+03  0.47000000000E+01 0.  1.
<mgrwt>
<rscale>  0 0.91624819E+02</rscale>
<asrwt>0</asrwt>
<pdfrwt beam="1">  1        2 0.64229142E-01 0.92616266E+02</pdfrwt>
<pdfrwt beam="2">  1       -2 0.31963778E-02 0.92616266E+02</pdfrwt>
<totfact> 0.26323979E+04</totfact>
</mgrwt>
</event>
<event>
 8    1  0.2964543E-004  0.1379749E+03  0.7546771E-02  0.1217022E+00
         -1   -1    0    0    0  501 -0.00000000000E+00  0.00000000000E+00  0.27977833628E+02  0.27977833628E+02  0.00000000000E+00 0.  1.
          1   -1    0    0  501    0  0.00000000000E+00 -0.00000000000E+00 -0.67190649810E+03  0.67190649810E+03  0.00000000000E+00 0. -1.
         23    2    1    2    0    0 -0.40116493116E+02 -0.91112096576E+02 -0.29553313411E+03  0.32615471241E+03  0.95531753385E+02 0.  0.
         23    2    1    2    0    0  0.40116493116E+02  0.91112096576E+02 -0.34839553036E+03  0.37372961932E+03  0.91562195368E+02 0.  0.
          5    1    4    4  502    0  0.42270684595E+02  0.52244127063E+02 -0.31530778763E+03  0.32242417795E+03  0.47000000000E+01 0. -1.
         -5    1    4    4    0  502 -0.21541914786E+01  0.38867969513E+02 -0.33087742730E+02  0.51305441368E+02  0.47000000000E+01 0.  1.
          5    1    3    3  503    0  0.29310088268E+02 -0.35396542293E+02 -0.13280191359E+03  0.14060737795E+03  0.47000000000E+01 0. -1.
         -5    1    3    3    0  503 -0.69426581384E+02 -0.55715554284E+02 -0.16273122052E+03  0.18554733446E+03  0.47000000000E+01 0.  1.
<mgrwt>
<rscale>  0 0.13729025E+03</rscale>
<asrwt>0</asrwt>
<pdfrwt beam="1">  1        1 0.10337023E+00 0.13797486E+03</pdfrwt>
<pdfrwt beam="2">  1       -1 0.43042823E-02 0.13797486E+03</pdfrwt>
<totfact> 0.63686242E+03</totfact>
</mgrwt>
</event>
<event>
 8    1  0.2964543E-004  0.1048744E+03  0.7546771E-02  0.1271605E+00
          1   -1    0    0  501    0  0.00000000000E+00  0.00000000000E+00  0.28943922710E+02  0.28943922710E+02  0.00000000000E+00 0. -1.
         -1   -1    0    0    0  501 -0.00000000000E+00 -0.00000000000E+00 -0.37365497934E+03  0.37365497934E+03  0.00000000000E+00 0.  1.
         23    2    1    2    0    0 -0.58283092644E+00 -0.48129608233E+02 -0.19111965825E+03  0.21800313003E+03  0.93176402861E+02 0.  0.
         23    2    1    2    0    0  0.58283092644E+00  0.48129608233E+02 -0.15359139837E+03  0.18459577202E+03  0.90379657628E+02 0.  0.
          5    1    4    4  502    0  0.44983631162E+02  0.27535931086E+02 -0.72844550715E+02  0.90056499722E+02  0.47000000000E+01 0. -1.
         -5    1    3    3    0  503 -0.43946504111E+02 -0.28614038344E+02 -0.13114886360E+03  0.14132293812E+03  0.47000000000E+01 0.  1.
          5    1    3    3  503    0  0.43363673185E+02 -0.19515569889E+02 -0.59970794649E+02  0.76680191908E+02  0.47000000000E+01 0. -1.
         -5    1    4    4    0  502 -0.44400800235E+02  0.20593677148E+02 -0.80746847659E+02  0.94539272299E+02  0.47000000000E+01 0.  1.
<mgrwt>
<rscale>  0 0.10424966E+03</rscale>
<asrwt>0</asrwt>
<pdfrwt beam="1">  1        1 0.44529114E-02 0.10487441E+03</pdfrwt>
<pdfrwt beam="2">  1       -1 0.57485379E-01 0.10487441E+03</pdfrwt>
<totfact> 0.57597444E+03</totfact>
</mgrwt>
</event>
<event>
 8    1  0.2964543E-004  0.1032653E+03  0.7546771E-02  0.1274249E+00
          2   -1    0    0  501    0  0.00000000000E+00  0.00000000000E+00  0.31846581363E+02  0.31846581363E+02  0.00000000000E+00 0. -1.
         -2   -1    0    0    0  501 -0.00000000000E+00 -0.00000000000E+00 -0.33185875874E+03  0.33185875874E+03  0.00000000000E+00 0.  1.
         23    2    1    2    0    0 -0.38007087569E+02 -0.26782760366E+02 -0.13957143299E+03  0.17361998029E+03  0.92205518773E+02 0.  0.
         23    2    1    2    0    0  0.38007087569E+02  0.26782760366E+02 -0.16044074438E+03  0.19008535981E+03  0.90715801246E+02 0.  0.
          5    1    4    4  502    0 -0.27650952010E+02  0.57714924602E+01 -0.24897149041E+02  0.37945267197E+02  0.47000000000E+01 0. -1.
         -5    1    3    3    0  503 -0.86201956280E+01 -0.49132729870E+02 -0.12312615071E+03  0.13293032726E+03  0.47000000000E+01 0.  1.
          5    1    3    3  503    0 -0.29386891941E+02  0.22349969504E+02 -0.16445282283E+02  0.40689653035E+02  0.47000000000E+01 0. -1.
         -5    1    4    4    0  502  0.65658039579E+02  0.21011267906E+02 -0.13554359534E+03  0.15214009261E+03  0.47000000000E+01 0.  1.
<mgrwt>
<rscale>  0 0.10293165E+03</rscale>
<asrwt>0</asrwt>
<pdfrwt beam="1">  1        2 0.48994739E-02 0.10326525E+03</pdfrwt>
<pdfrwt beam="2">  1       -2 0.51055195E-01 0.10326525E+03</pdfrwt>
<totfact> 0.55000787E+03</totfact>
</mgrwt>
</event>
<event>
 8    1  0.2964543E-004  0.9457691E+02  0.7546771E-02  0.1293138E+00
          2   -1    0    0  501    0  0.00000000000E+00  0.00000000000E+00  0.28017758137E+03  0.28017758137E+03  0.00000000000E+00 0. -1.
         -2   -1    0    0    0  501 -0.00000000000E+00 -0.00000000000E+00 -0.17522918574E+03  0.17522918574E+03  0.00000000000E+00 0.  1.
         23    2    1    2    0    0  0.19911337985E+02  0.92334485191E+01 -0.15377838700E+03  0.18053416379E+03  0.91994967437E+02 0.  0.
         23    2    1    2    0    0 -0.19911337985E+02 -0.92334485191E+01  0.25872678264E+03  0.27487260332E+03  0.90186928382E+02 0.  0.
          5    1    3    3  502    0 -0.32811695201E+02 -0.19493311418E+01 -0.27352732874E+02  0.43019405267E+02  0.47000000000E+01 0. -1.
         -5    1    3    3    0  502  0.52723033186E+02  0.11182779661E+02 -0.12642565413E+03  0.13751475852E+03  0.47000000000E+01 0.  1.
          5    1    4    4  503    0 -0.54862922182E+02 -0.13801972522E+02  0.17250750048E+03  0.18160771568E+03  0.47000000000E+01 0. -1.
         -5    1    4    4    0  503  0.34951584197E+02  0.45685240031E+01  0.86219282160E+02  0.93264887635E+02  0.47000000000E+01 0.  1.
<mgrwt>
<rscale>  0 0.94134381E+02</rscale>
<asrwt>0</asrwt>
<pdfrwt beam="1">  1        2 0.43104243E-01 0.94576910E+02</pdfrwt>
<pdfrwt beam="2">  1       -2 0.26958336E-01 0.94576910E+02</pdfrwt>
<totfact> 0.14205096E+03</totfact>
</mgrwt>
</event>
<event>
 8    1  0.2964543E-004  0.1109513E+03  0.7546771E-02  0.1259378E+00
         -3   -1    0    0    0  501 -0.00000000000E+00  0.00000000000E+00  0.20539224465E+03  0.20539224465E+03  0.00000000000E+00 0.  1.
          3   -1    0    0  501    0  0.00000000000E+00 -0.00000000000E+00 -0.67269870691E+02  0.67269870691E+02  0.00000000000E+00 0. -1.
         23    2    1    2    0    0 -0.15159765349E+02  0.58840815433E+02  0.11570942673E+03  0.15946967584E+03  0.91377491928E+02 0.  0.
         23    2    1    2    0    0  0.15159765349E+02 -0.58840815433E+02  0.22412947227E+02  0.11319243950E+03  0.92833873725E+02 0.  0.
          5    1    3    3  502    0 -0.21450619895E+02 -0.16581519426E+02  0.97946617818E+01  0.29207897558E+02  0.47000000000E+01 0. -1.
         -5    1    4    4    0  503 -0.16481023775E+02  0.14832173269E+02  0.23796127906E+02  0.32862793732E+02  0.47000000000E+01 0.  1.
          5    1    4    4  503    0  0.31640789124E+02 -0.73672988702E+02 -0.13831806790E+01  0.80329645770E+02  0.47000000000E+01 0. -1.
         -5    1    3    3    0  502  0.62908545464E+01  0.75422334859E+02  0.10591476495E+03  0.13026177828E+03  0.47000000000E+01 0.  1.
<mgrwt>
<rscale>  0 0.11064611E+03</rscale>
<asrwt>0</asrwt>
<pdfrwt beam="1">  1        3 0.10349211E-01 0.11095129E+03</pdfrwt>
<pdfrwt beam="2">  1       -3 0.31598807E-01 0.11095129E+03</pdfrwt>
<totfact> 0.15056353E+03</totfact>
</mgrwt>
</event>
<event>
 8    1  0.2964543E-004  0.1311516E+03  0.7546771E-02  0.1235133E+00
         -4   -1    0    0    0  501 -0.00000000000E+00  0.00000000000E+00  0.61645531711E+02  0.61645531711E+02  0.00000000000E+00 0.  1.
          4   -1    0    0  501    0  0.00000000000E+00 -0.00000000000E+00 -0.24168198912E+03  0.24168198912E+03  0.00000000000E+00 0. -1.
         23    2    1    2    0    0 -0.71484165375E+00 -0.59272484465E+02 -0.11174130718E+03  0.15545942436E+03  0.90375740550E+02 0.  0.
         23    2    1    2    0    0  0.71484165375E+00  0.59272484465E+02 -0.68295150229E+02  0.14786809647E+03  0.11699148685E+03 0.  0.
          5    1    4    4  502    0  0.39724607216E+02  0.73945594061E+02 -0.25282564847E+02  0.87791191954E+02  0.47000000000E+01 0. -1.
         -5    1    4    4    0  502 -0.39009765562E+02 -0.14673109596E+02 -0.43012585383E+02  0.60076904512E+02  0.47000000000E+01 0.  1.
          5    1    3    3  503    0  0.38579412800E+02 -0.43002056222E+02 -0.35323258134E+02  0.67877614105E+02  0.47000000000E+01 0. -1.
         -5    1    3    3    0  503 -0.39294254454E+02 -0.16270428243E+02 -0.76418049044E+02  0.87581810258E+02  0.47000000000E+01 0.  1.
<mgrwt>
<rscale>  0 0.12495902E+03</rscale>
<asrwt>0</asrwt>
<pdfrwt beam="1">  1        4 0.37181844E-01 0.13115162E+03</pdfrwt>
<pdfrwt beam="2">  1       -4 0.94839281E-02 0.13115162E+03</pdfrwt>
<totfact> 0.95618887E+02</totfact>
</mgrwt>
</event>
<event>
 8    1  0.2964543E-004  0.1000000E+03  0.7546771E-02  0.1282248E+00
          2   -1    0    0  501    0  0.00000000000E+00  0.00000000000E+00  0.24642522920E+03  0.24642522920E+03  0.00000000000E+00 0. -1.
         -2   -1    0    0    0  501 -0.00000000000E+00 -0.00000000000E+00 -0.39264561750E+02  0.39264561750E+02  0.00000000000E+00 0.  1.
         23    2    1    2    0    0 -0.22273372785E+02  0.23333327987E+02  0.96733714528E+02  0.13913095060E+03  0.94654437600E+02 0.  0.
         23    2    1    2    0    0  0.22273372785E+02 -0.23333327987E+02  0.11042695292E+03  0.14655884035E+03  0.90801070609E+02 0.  0.
          5    1    4    4  502    0  0.25548971046E+02 -0.56068366757E+02  0.59746692771E+02  0.85954458694E+02  0.47000000000E+01 0. -1.
         -5    1    3    3    0  503 -0.58909150987E+02  0.14442228510E+02  0.69631345011E+02  0.92463399474E+02  0.47000000000E+01 0.  1.
          5    1    3    3  503    0  0.36635778202E+02  0.88910994765E+01  0.27102369517E+02  0.46667551123E+02  0.47000000000E+01 0. -1.
         -5    1    4    4    0  502 -0.32755982616E+01  0.32735038770E+02  0.50680260152E+02  0.60604381659E+02  0.47000000000E+01 0.  1.
<mgrwt>
<rscale>  0 0.99077521E+02</rscale>
<asrwt>0</asrwt>
<pdfrwt beam="1">  1        2 0.37911573E-01 0.10000005E+03</pdfrwt>
<pdfrwt beam="2">  1       -2 0.60407019E-02 0.10000005E+03</pdfrwt>
<totfact> 0.17997645E+04</totfact>
</mgrwt>
</event>
<event>
 8    1  0.2964543E-004  0.1016550E+03  0.7546771E-02  0.1277272E+00
         -2   -1    0    0    0  501 -0.00000000000E+00  0.00000000000E+00  0.11192178985E+03  0.11192178985E+03  0.00000000000E+00 0.  1.
          2   -1    0    0  501    0  0.00000000000E+00 -0.00000000000E+00 -0.94458446100E+02  0.94458446100E+02  0.00000000000E+00 0. -1.
         23    2    1    2    0    0 -0.30796595816E+02  0.32632504128E+02  0.26659564328E+02  0.10431009843E+03  0.90313640304E+02 0.  0.
         23    2    1    2    0    0  0.30796595816E+02 -0.32632504128E+02 -0.91962205828E+01  0.10207013751E+03  0.91216401265E+02 0.  0.
          5    1    3    3  502    0  0.23457313465E+02  0.39268211181E+02  0.12620018335E+02  0.47682206609E+02  0.47000000000E+01 0. -1.
         -5    1    3    3    0  502 -0.54253909281E+02 -0.66357070532E+01  0.14039545993E+02  0.56627891821E+02  0.47000000000E+01 0.  1.
          5    1    4    4  503    0  0.22327240338E+02  0.18304565337E+02 -0.33782185728E+02  0.44686562252E+02  0.47000000000E+01 0. -1.
         -5    1    4    4    0  503  0.84693554778E+01 -0.50937069465E+02  0.24585965145E+02  0.57383575263E+02  0.47000000000E+01 0.  1.
<mgrwt>
<rscale>  0 0.10145209E+03</rscale>
<asrwt>0</asrwt>
<pdfrwt beam="1">  1        2 0.14532069E-01 0.10165502E+03</pdfrwt>
<pdfrwt beam="2">  1       -2 0.17218737E-01 0.10165502E+03</pdfrwt>
<totfact> 0.10061139E+04</totfact>
</mgrwt>
</event>
<event>
 8    1  0.2964543E-004  0.1011660E+03  0.7546771E-02  0.1285531E+00
         -3   -1    0    0    0  501 -0.00000000000E+00  0.00000000000E+00  0.81189771921E+02  0.81189771921E+02  0.00000000000E+00 0.  1.
          3   -1    0    0  501    0  0.00000000000E+00 -0.00000000000E+00 -0.11034122434E+03  0.11034122434E+03  0.00000000000E+00 0. -1.
         23    2    1    2    0    0  0.34365876558E+02 -0.27468298470E+02 -0.55035563371E+01  0.87637907658E+02  0.75594925980E+02 0.  0.
         23    2    1    2    0    0 -0.34365876558E+02  0.27468298470E+02 -0.23647896082E+02  0.10389308860E+03  0.91099011948E+02 0.  0.
          5    1    3    3  502    0  0.15313602230E+02 -0.44604823400E+02 -0.26390569801E+02  0.54246187500E+02  0.47000000000E+01 0. -1.
         -5    1    3    3    0  502  0.19052274328E+02  0.17136524930E+02  0.20887013464E+02  0.33391720159E+02  0.47000000000E+01 0.  1.
          5    1    4    4  503    0  0.16876186801E+02 -0.20878727228E+02  0.49759366551E+01  0.27705177805E+02  0.47000000000E+01 0. -1.
         -5    1    4    4    0  503 -0.51242063359E+02  0.48347025699E+02 -0.28623832737E+02  0.76187910798E+02  0.47000000000E+01 0.  1.
<mgrwt>
<rscale>  0 0.97551574E+02</rscale>
<asrwt>0</asrwt>
<pdfrwt beam="1">  1        3 0.16975573E-01 0.10116596E+03</pdfrwt>
<pdfrwt beam="2">  1       -3 0.12490734E-01 0.10116596E+03</pdfrwt>
<totfact> 0.32753810E+03</totfact>
</mgrwt>
</event>
<event>
 8    1  0.2964543E-004  0.1065287E+03  0.7546771E-02  0.1272302E+00
          2   -1    0    0  501    0  0.00000000000E+00  0.00000000000E+00  0.61335030293E+03  0.61335030293E+03  0.00000000000E+00 0. -1.
         -2   -1    0    0    0  501 -0.00000000000E+00 -0.00000000000E+00 -0.39018122843E+02  0.39018122843E+02  0.00000000000E+00 0.  1.
         23    2    1    2    0    0 -0.25636558634E+02  0.73214830733E+01  0.34902518503E+02  0.10252051600E+03  0.92636025116E+02 0.  0.
         23    2    1    2    0    0  0.25636558634E+02 -0.73214830733E+01  0.53942966158E+03  0.54984790978E+03  0.10313838682E+03 0.  0.
          5    1    4    4  502    0  0.17446729534E+02  0.46766101231E+02  0.21206475097E+03  0.21791054403E+03  0.47000000000E+01 0. -1.
         -5    1    4    4    0  502  0.81898291005E+01 -0.54087584304E+02  0.32736491062E+03  0.33193736575E+03  0.47000000000E+01 0.  1.
          5    1    3    3  503    0 -0.17681524712E+02  0.36162251390E+02  0.53397240056E+02  0.67035065356E+02  0.47000000000E+01 0. -1.
         -5    1    3    3    0  503 -0.79550339221E+01 -0.28840768317E+02 -0.18494721553E+02  0.35485450640E+02  0.47000000000E+01 0.  1.
<mgrwt>
<rscale>  0 0.10389992E+03</rscale>
<asrwt>0</asrwt>
<pdfrwt beam="1">  1        2 0.94361578E-01 0.10652870E+03</pdfrwt>
<pdfrwt beam="2">  1       -2 0.60027886E-02 0.10652870E+03</pdfrwt>
<totfact> 0.68912196E+03</totfact>
</mgrwt>
</event>
<event>
 8    1  0.2964543E-004  0.1066940E+03  0.7546771E-02  0.1268282E+00
         -4   -1    0    0    0  501 -0.00000000000E+00  0.00000000000E+00  0.38766852165E+02  0.38766852165E+02  0.00000000000E+00 0.  1.
          4   -1    0    0  501    0  0.00000000000E+00 -0.00000000000E+00 -0.35806387383E+03  0.35806387383E+03  0.00000000000E+00 0. -1.
         23    2    1    2    0    0 -0.42362172998E+02 -0.33193184021E+02 -0.68504138471E+02  0.12428590718E+03  0.88644393903E+02 0.  0.
         23    2    1    2    0    0  0.42362172998E+02  0.33193184021E+02 -0.25079288320E+03  0.27254481881E+03  0.92126363402E+02 0.  0.
          5    1    4    4  502    0  0.69897519873E+02  0.12575827410E+02 -0.18358131972E+03  0.19689592599E+03  0.47000000000E+01 0. -1.
         -5    1    3    3    0  503 -0.62357561783E+02 -0.47054986930E+02 -0.45799351324E+02  0.90676942429E+02  0.47000000000E+01 0.  1.
          5    1    3    3  503    0  0.19995388785E+02  0.13861802909E+02 -0.22704787148E+02  0.33608964756E+02  0.47000000000E+01 0. -1.
         -5    1    4    4    0  502 -0.27535346876E+02  0.20617356612E+02 -0.67211563475E+02  0.75648892827E+02  0.47000000000E+01 0.  1.
<mgrwt>
<rscale>  0 0.10593808E+03</rscale>
<asrwt>0</asrwt>
<pdfrwt beam="1">  1        4 0.55086750E-01 0.10669399E+03</pdfrwt>
<pdfrwt beam="2">  1       -4 0.59641311E-02 0.10669399E+03</pdfrwt>
<totfact> 0.89282846E+02</totfact>
</mgrwt>
</event>
<event>
 8    1  0.2964543E-004  0.1141395E+03  0.7546771E-02  0.1254575E+00
          1   -1    0    0  501    0  0.00000000000E+00  0.00000000000E+00  0.56318727417E+03  0.56318727417E+03  0.00000000000E+00 0. -1.
         -1   -1    0    0    0  501 -0.00000000000E+00 -0.00000000000E+00 -0.30057266253E+02  0.30057266253E+02  0.00000000000E+00 0.  1.
         23    2    1    2    0    0  0.35419685068E+02  0.50717854437E+02  0.11456953049E+03  0.15940045219E+03  0.91953640446E+02 0.  0.
         23    2    1    2    0    0 -0.35419685068E+02 -0.50717854437E+02  0.41856047743E+03  0.43384408824E+03  0.95921659626E+02 0.  0.
          5    1    4    4  502    0 -0.34043203040E+02 -0.73543919715E+02  0.38151875094E+03  0.39005934820E+03  0.47000000000E+01 0. -1.
         -5    1    3    3    0  503  0.42359041380E+02  0.10067533573E+02  0.73196439219E+01  0.44399446010E+02  0.47000000000E+01 0.  1.
          5    1    3    3  503    0 -0.69393563115E+01  0.40650320864E+02  0.10724988657E+03  0.11500100618E+03  0.47000000000E+01 0. -1.
         -5    1    4    4    0  502 -0.13764820282E+01  0.22826065278E+02  0.37041726484E+02  0.43784740033E+02  0.47000000000E+01 0.  1.
<mgrwt>
<rscale>  0 0.11330185E+03</rscale>
<asrwt>0</asrwt>
<pdfrwt beam="1">  1        1 0.86644188E-01 0.11413947E+03</pdfrwt>
<pdfrwt beam="2">  1       -1 0.46241952E-02 0.11413947E+03</pdfrwt>
<totfact> 0.72156876E+03</totfact>
</mgrwt>
</event>
<event>
 8    1  0.2964543E-004  0.1055231E+03  0.7546771E-02  0.1270136E+00
         -1   -1    0    0    0  501 -0.00000000000E+00  0.00000000000E+00  0.46772704362E+03  0.46772704362E+03  0.00000000000E+00 0.  1.
          1   -1    0    0  501    0  0.00000000000E+00 -0.00000000000E+00 -0.25929900406E+02  0.25929900406E+02  0.00000000000E+00 0. -1.
         23    2    1    2    0    0 -0.30758033655E+01 -0.50743965989E+02  0.30100879224E+03  0.31896930035E+03  0.92470054124E+02 0.  0.
         23    2    1    2    0    0  0.30758033655E+01  0.50743965989E+02  0.14078835097E+03  0.17468764367E+03  0.90055551922E+02 0.  0.
          5    1    3    3  502    0  0.35718436368E+02 -0.19422501593E+02  0.58830647521E+02  0.71667114861E+02  0.47000000000E+01 0. -1.
         -5    1    4    4    0  503  0.26751125935E+02 -0.20497530308E+01  0.10024906766E+03  0.10388353957E+03  0.47000000000E+01 0.  1.
          5    1    4    4  503    0 -0.23675322570E+02  0.52793719019E+02  0.40539283310E+02  0.70804104104E+02  0.47000000000E+01 0. -1.
         -5    1    3    3    0  502 -0.38794239734E+02 -0.31321464395E+02  0.24217814472E+03  0.24730218549E+03  0.47000000000E+01 0.  1.
<mgrwt>
<rscale>  0 0.10499176E+03</rscale>
<asrwt>0</asrwt>
<pdfrwt beam="1">  1        1 0.39892158E-02 0.10552309E+03</pdfrwt>
<pdfrwt beam="2">  1       -1 0.71958000E-01 0.10552309E+03</pdfrwt>
<totfact> 0.43502879E+03</totfact>
</mgrwt>
</event>
<event>
 8    1  0.2964543E-004  0.1154109E+03  0.7546771E-02  0.1251559E+00
         -2   -1    0    0    0  501 -0.00000000000E+00  0.00000000000E+00  0.12031707640E+03  0.12031707640E+03  0.00000000000E+00 0.  1.
          2   -1    0    0  501    0  0.00000000000E+00 -0.00000000000E+00 -0.36116331737E+03  0.36116331737E+03  0.00000000000E+00 0. -1.
         23    2    1    2    0    0  0.26185540737E+02 -0.65550107409E+02  0.80909821491E+02  0.13965200912E+03  0.89296054294E+02 0.  0.
         23    2    1    2    0    0 -0.26185540737E+02  0.65550107409E+02 -0.32175606246E+03  0.34182838465E+03  0.91308168856E+02 0.  0.
          5    1    3    3  502    0  0.78011937957E+01  0.20870902458E+02  0.55719859342E+01  0.23443340660E+02  0.47000000000E+01 0. -1.
         -5    1    3    3    0  502  0.18384346941E+02 -0.86421009867E+02  0.75337835557E+02  0.11620866846E+03  0.47000000000E+01 0.  1.
          5    1    4    4  503    0 -0.47039817749E+02  0.38067460916E+02 -0.28422705105E+03  0.29063548060E+03  0.47000000000E+01 0. -1.
         -5    1    4    4    0  503  0.20854277012E+02  0.27482646492E+02 -0.37529011403E+02  0.51192904048E+02  0.47000000000E+01 0.  1.
<mgrwt>
<rscale>  0 0.11501255E+03</rscale>
<asrwt>0</asrwt>
<pdfrwt beam="1">  1        2 0.55563588E-01 0.11541092E+03</pdfrwt>
<pdfrwt beam="2">  1       -2 0.18510319E-01 0.11541092E+03</pdfrwt>
<totfact> 0.20831228E+03</totfact>
</mgrwt>
</event>
<event>
 8    1  0.2964543E-004  0.1031999E+03  0.7546771E-02  0.1274202E+00
          1   -1    0    0  501    0  0.00000000000E+00  0.00000000000E+00  0.46405948458E+02  0.46405948458E+02  0.00000000000E+00 0. -1.
         -1   -1    0    0    0  501 -0.00000000000E+00 -0.00000000000E+00 -0.53075236220E+03  0.53075236220E+03  0.00000000000E+00 0.  1.
         23    2    1    2    0    0 -0.18511959380E+02 -0.43383597929E+02 -0.45987149994E+03  0.47109591684E+03  0.90690336862E+02 0.  0.
         23    2    1    2    0    0  0.18511959380E+02  0.43383597929E+02 -0.24474913804E+02  0.10606239382E+03  0.91789872899E+02 0.  0.
          5    1    3    3  502    0 -0.97933199940E+01  0.28063593809E+02 -0.13557978290E+03  0.13887923512E+03  0.47000000000E+01 0. -1.
         -5    1    3    3    0  502 -0.87186393865E+01 -0.71447191739E+02 -0.32429171704E+03  0.33221668173E+03  0.47000000000E+01 0.  1.
          5    1    4    4  503    0  0.41173705227E+02  0.55627919120E+02  0.12189039629E+01  0.69378059317E+02  0.47000000000E+01 0. -1.
         -5    1    4    4    0  503 -0.22661745846E+02 -0.12244321190E+02 -0.25693817767E+02  0.36684334499E+02  0.47000000000E+01 0.  1.
<mgrwt>
<rscale>  0 0.10295480E+03</rscale>
<asrwt>0</asrwt>
<pdfrwt beam="1">  1        1 0.71393766E-02 0.10319985E+03</pdfrwt>
<pdfrwt beam="2">  1       -1 0.81654211E-01 0.10319985E+03</pdfrwt>
<totfact> 0.15336896E+03</totfact>
</mgrwt>
</event>
<event>
 8    1  0.2964543E-004  0.1167681E+03  0.7546771E-02  0.1249246E+00
          2   -1    0    0  501    0  0.00000000000E+00  0.00000000000E+00  0.14571660390E+04  0.14571660390E+04  0.00000000000E+00 0. -1.
         -2   -1    0    0    0  501 -0.00000000000E+00 -0.00000000000E+00 -0.12948440194E+02  0.12948440194E+02  0.00000000000E+00 0.  1.
         23    2    1    2    0    0 -0.60871637334E+02  0.35539115384E+02  0.11200554089E+04  0.11261256177E+04  0.93093517140E+02 0.  0.
         23    2    1    2    0    0  0.60871637334E+02 -0.35539115384E+02  0.32416218993E+03  0.34398886149E+03  0.90988056898E+02 0.  0.
          5    1    4    4  502    0 -0.20290299390E+02 -0.19617028378E+02  0.12599366792E+03  0.12920146442E+03  0.47000000000E+01 0. -1.
         -5    1    3    3    0  503  0.14535946040E+02  0.38159127132E+02  0.37670107054E+03  0.37893693309E+03  0.47000000000E+01 0.  1.
          5    1    3    3  503    0 -0.75407583374E+02 -0.26200117476E+01  0.74335433834E+03  0.74718868462E+03  0.47000000000E+01 0. -1.
         -5    1    4    4    0  502  0.81161936724E+02 -0.15922087006E+02  0.19816852201E+03  0.21478739708E+03  0.47000000000E+01 0.  1.
<mgrwt>
<rscale>  0 0.11634794E+03</rscale>
<asrwt>0</asrwt>
<pdfrwt beam="1">  1        2 0.22417926E+00 0.11676809E+03</pdfrwt>
<pdfrwt beam="2">  1       -2 0.19920689E-02 0.11676809E+03</pdfrwt>
<totfact> 0.10808700E+04</totfact>
</mgrwt>
</event>
<event>
 8    1  0.2964543E-004  0.1078079E+03  0.7546771E-02  0.1265285E+00
          2   -1    0    0  501    0  0.00000000000E+00  0.00000000000E+00  0.41007713375E+03  0.41007713375E+03  0.00000000000E+00 0. -1.
         -2   -1    0    0    0  501 -0.00000000000E+00 -0.00000000000E+00 -0.33831926391E+02  0.33831926391E+02  0.00000000000E+00 0.  1.
         23    2    1    2    0    0  0.26685085278E+02  0.51125326495E+02  0.27925777994E+03  0.29889489299E+03  0.89595516705E+02 0.  0.
         23    2    1    2    0    0 -0.26685085278E+02 -0.51125326495E+02  0.96987427414E+02  0.14501416714E+03  0.91085974830E+02 0.  0.
          5    1    3    3  502    0 -0.31430800447E+02  0.18451245939E+02  0.13489253277E+03  0.13980854441E+03  0.47000000000E+01 0. -1.
         -5    1    3    3    0  502  0.58115885725E+02  0.32674080556E+02  0.14436524717E+03  0.15908634858E+03  0.47000000000E+01 0.  1.
          5    1    4    4  503    0 -0.30884541102E+01 -0.66027479412E+02  0.96057618728E+02  0.11669756939E+03  0.47000000000E+01 0. -1.
         -5    1    4    4    0  503 -0.23596631168E+02  0.14902152918E+02  0.92980868555E+00  0.28316597752E+02  0.47000000000E+01 0.  1.
<mgrwt>
<rscale>  0 0.10749247E+03</rscale>
<asrwt>0</asrwt>
<pdfrwt beam="1">  1        2 0.63088786E-01 0.10780792E+03</pdfrwt>
<pdfrwt beam="2">  1       -2 0.52049120E-02 0.10780792E+03</pdfrwt>
<totfact> 0.13257384E+04</totfact>
</mgrwt>
</event>
<event>
 8    1  0.2964543E-004  0.1006324E+03  0.7546771E-02  0.1281542E+00
         -3   -1    0    0    0  501 -0.00000000000E+00  0.00000000000E+00  0.45035556890E+03  0.45035556890E+03  0.00000000000E+00 0.  1.
          3   -1    0    0  501    0  0.00000000000E+00 -0.00000000000E+00 -0.21431678176E+02  0.21431678176E+02  0.00000000000E+00 0. -1.
         23    2    1    2    0    0 -0.46548641445E+02  0.16044635772E+01  0.21294687012E+03  0.23351650980E+03  0.83751062845E+02 0.  0.
         23    2    1    2    0    0  0.46548641445E+02 -0.16044635772E+01  0.21597702060E+03  0.23827073728E+03  0.89204935364E+02 0.  0.
          5    1    4    4  502    0  0.25369765379E+02  0.43498020543E+02  0.10695394595E+03  0.11830866131E+03  0.47000000000E+01 0. -1.
         -5    1    3    3    0  503 -0.76823562654E+01 -0.38575812907E+02  0.93899321181E+02  0.10191312211E+03  0.47000000000E+01 0.  1.
          5    1    3    3  503    0 -0.38866285179E+02  0.40180276484E+02  0.11904754894E+03  0.13160338769E+03  0.47000000000E+01 0. -1.
         -5    1    4    4    0  502  0.21178876066E+02 -0.45102484120E+02  0.10902307464E+03  0.11996207597E+03  0.47000000000E+01 0.  1.
<mgrwt>
<rscale>  0 0.99409936E+02</rscale>
<asrwt>0</asrwt>
<pdfrwt beam="1">  1        3 0.32971816E-02 0.10063235E+03</pdfrwt>
<pdfrwt beam="2">  1       -3 0.69285465E-01 0.10063235E+03</pdfrwt>
<totfact> 0.19418348E+03</totfact>
</mgrwt>
</event>
<event>
 8    1  0.2964543E-004  0.9836964E+02  0.7546771E-02  0.1283834E+00
         -1   -1    0    0    0  501 -0.00000000000E+00  0.00000000000E+00  0.34221028965E+02  0.34221028965E+02  0.00000000000E+00 0.  1.
          1   -1    0    0  501    0  0.00000000000E+00 -0.00000000000E+00 -0.46478097740E+03  0.46478097740E+03  0.00000000000E+00 0. -1.
         23    2    1    2    0    0  0.20726061684E+02  0.28798872974E+02 -0.59069887068E+02  0.11474248131E+03  0.91747701562E+02 0.  0.
         23    2    1    2    0    0 -0.20726061684E+02 -0.28798872974E+02 -0.37149006137E+03  0.38425952506E+03  0.91605524851E+02 0.  0.
          5    1    4    4  502    0  0.62855015813E+01 -0.50599056875E+02 -0.30337314570E+03  0.30766398492E+03  0.47000000000E+01 0. -1.
         -5    1    4    4    0  502 -0.27011563265E+02  0.21800183901E+02 -0.68116915676E+02  0.76595540140E+02  0.47000000000E+01 0.  1.
          5    1    3    3  503    0 -0.27898806233E+02 -0.50917092467E+01 -0.45399071380E+02  0.53734854373E+02  0.47000000000E+01 0. -1.
         -5    1    3    3    0  503  0.48624867917E+02  0.33890582220E+02 -0.13670815688E+02  0.61007626939E+02  0.47000000000E+01 0.  1.
<mgrwt>
<rscale>  0 0.98336472E+02</rscale>
<asrwt>0</asrwt>
<pdfrwt beam="1">  1        1 0.71504768E-01 0.98369637E+02</pdfrwt>
<pdfrwt beam="2">  1       -1 0.52647735E-02 0.98369637E+02</pdfrwt>
<totfact> 0.75760416E+03</totfact>
</mgrwt>
</event>
<event>
 8    1  0.2964543E-004  0.1082666E+03  0.7546771E-02  0.1265388E+00
          2   -1    0    0  501    0  0.00000000000E+00  0.00000000000E+00  0.41440287222E+03  0.41440287222E+03  0.00000000000E+00 0. -1.
         -2   -1    0    0    0  501 -0.00000000000E+00 -0.00000000000E+00 -0.28918597893E+02  0.28918597893E+02  0.00000000000E+00 0.  1.
         23    2    1    2    0    0  0.24527891167E+02  0.50262080596E+02  0.13976647978E+03  0.17480910706E+03  0.88857531196E+02 0.  0.
         23    2    1    2    0    0 -0.24527891167E+02 -0.50262080596E+02  0.24571779454E+03  0.26851236305E+03  0.92702536988E+02 0.  0.
          5    1    3    3  502    0 -0.10956784057E+02  0.30051896364E+02  0.12804645277E+03  0.13206495243E+03  0.47000000000E+01 0. -1.
         -5    1    3    3    0  502  0.35484675223E+02  0.20210184231E+02  0.11720027010E+02  0.42744154635E+02  0.47000000000E+01 0.  1.
          5    1    4    4  503    0 -0.58446538140E+02 -0.37537442743E+02  0.18481768532E+03  0.19749613726E+03  0.47000000000E+01 0. -1.
         -5    1    4    4    0  503  0.33918646973E+02 -0.12724637853E+02  0.60900109226E+02  0.71016225785E+02  0.47000000000E+01 0.  1.
<mgrwt>
<rscale>  0 0.10743878E+03</rscale>
<asrwt>0</asrwt>
<pdfrwt beam="1">  1        2 0.63754284E-01 0.10826659E+03</pdfrwt>
<pdfrwt beam="2">  1       -2 0.44490153E-02 0.10826659E+03</pdfrwt>
<totfact> 0.16569666E+04</totfact>
</mgrwt>
</event>
<event>
 8    1  0.2964543E-004  0.9196071E+02  0.7546771E-02  0.1298686E+00
          2   -1    0    0  501    0  0.00000000000E+00  0.00000000000E+00  0.57101686908E+03  0.57101686908E+03  0.00000000000E+00 0. -1.
         -2   -1    0    0    0  501 -0.00000000000E+00 -0.00000000000E+00 -0.14673186835E+02  0.14673186835E+02  0.00000000000E+00 0.  1.
         23    2    1    2    0    0  0.25263162612E+01  0.99696063110E+01  0.27281784347E+03  0.28762349567E+03  0.90509249397E+02 0.  0.
         23    2    1    2    0    0 -0.25263162612E+01 -0.99696063110E+01  0.28352583878E+03  0.29806656024E+03  0.91383793723E+02 0.  0.
          5    1    3    3  502    0 -0.31504804770E+02 -0.38384417136E+01  0.22434571516E+03  0.22662827774E+03  0.47000000000E+01 0. -1.
         -5    1    4    4    0  503  0.38693603829E+02 -0.19420434555E+02  0.90845152385E+02  0.10074363487E+03  0.47000000000E+01 0.  1.
          5    1    4    4  503    0 -0.41219920090E+02  0.94508282442E+01  0.19268068640E+03  0.19732292537E+03  0.47000000000E+01 0. -1.
         -5    1    3    3    0  502  0.34031121032E+02  0.13808048025E+02  0.48472128305E+02  0.60995217939E+02  0.47000000000E+01 0.  1.
<mgrwt>
<rscale>  0 0.91742689E+02</rscale>
<asrwt>0</asrwt>
<pdfrwt beam="1">  1        2 0.87848732E-01 0.91960715E+02</pdfrwt>
<pdfrwt beam="2">  1       -2 0.22574138E-02 0.91960715E+02</pdfrwt>
<totfact> 0.31059776E+04</totfact>
</mgrwt>
</event>
<event>
 8    1  0.2964543E-004  0.1003542E+03  0.7546771E-02  0.1281120E+00
         -3   -1    0    0    0  501 -0.00000000000E+00  0.00000000000E+00  0.96117851204E+02  0.96117851204E+02  0.00000000000E+00 0.  1.
          3   -1    0    0  501    0  0.00000000000E+00 -0.00000000000E+00 -0.12395888992E+03  0.12395888992E+03  0.00000000000E+00 0. -1.
         23    2    1    2    0    0  0.37858775151E+02  0.13482216152E+02 -0.60692114530E+02  0.11727958483E+03  0.91956028858E+02 0.  0.
         23    2    1    2    0    0 -0.37858775151E+02 -0.13482216152E+02  0.32851075814E+02  0.10279715630E+03  0.88729956340E+02 0.  0.
          5    1    4    4  502    0  0.25616567620E+02 -0.72129842805E+01 -0.63788520404E+01  0.27767164641E+02  0.47000000000E+01 0. -1.
         -5    1    3    3    0  503  0.24633307680E+02  0.52547570266E+02 -0.28956853312E+02  0.65027965845E+02  0.47000000000E+01 0.  1.
          5    1    3    3  503    0  0.13225467471E+02 -0.39065354115E+02 -0.31735261218E+02  0.52251618985E+02  0.47000000000E+01 0. -1.
         -5    1    4    4    0  502 -0.63475342772E+02 -0.62692318713E+01  0.39229927854E+02  0.75029991654E+02  0.47000000000E+01 0.  1.
<mgrwt>
<rscale>  0 0.99609073E+02</rscale>
<asrwt>0</asrwt>
<pdfrwt beam="1">  1        3 0.19070599E-01 0.10035421E+03</pdfrwt>
<pdfrwt beam="2">  1       -3 0.14787362E-01 0.10035421E+03</pdfrwt>
<totfact> 0.20127621E+03</totfact>
</mgrwt>
</event>
<event>
 8    1  0.2964543E-004  0.1019818E+03  0.7546771E-02  0.1283964E+00
          1   -1    0    0  501    0  0.00000000000E+00  0.00000000000E+00  0.30928585975E+03  0.30928585975E+03  0.00000000000E+00 0. -1.
         -1   -1    0    0    0  501 -0.00000000000E+00 -0.00000000000E+00 -0.29213974404E+02  0.29213974404E+02  0.00000000000E+00 0.  1.
         23    2    1    2    0    0 -0.34942003426E+02  0.32456792979E+02  0.15775624203E+03  0.18784918259E+03  0.90143754554E+02 0.  0.
         23    2    1    2    0    0  0.34942003426E+02 -0.32456792979E+02  0.12231564332E+03  0.15065065157E+03  0.73892592352E+02 0.  0.
          5    1    3    3  502    0 -0.58869595181E+02  0.12832799007E+02  0.13847024470E+03  0.15108411112E+03  0.47000000000E+01 0. -1.
         -5    1    4    4    0  503  0.55778393838E+02 -0.23643999056E+02  0.65652335558E+02  0.89457180119E+02  0.47000000000E+01 0.  1.
          5    1    4    4  503    0 -0.20836390411E+02 -0.88127939224E+01  0.56663307760E+02  0.61193471452E+02  0.47000000000E+01 0. -1.
         -5    1    3    3    0  502  0.23927591755E+02  0.19623993971E+02  0.19285997331E+02  0.36765071462E+02  0.47000000000E+01 0.  1.
<mgrwt>
<rscale>  0 0.98275664E+02</rscale>
<asrwt>0</asrwt>
<pdfrwt beam="1">  1        1 0.47582438E-01 0.10198178E+03</pdfrwt>
<pdfrwt beam="2">  1       -1 0.44944578E-02 0.10198178E+03</pdfrwt>
<totfact> 0.15904761E+04</totfact>
</mgrwt>
</event>
<event>
 8    1  0.2964543E-004  0.9752207E+02  0.7546771E-02  0.1290582E+00
         -1   -1    0    0    0  501 -0.00000000000E+00  0.00000000000E+00  0.89279655036E+02  0.89279655036E+02  0.00000000000E+00 0.  1.
          1   -1    0    0  501    0  0.00000000000E+00 -0.00000000000E+00 -0.97811407718E+02  0.97811407718E+02  0.00000000000E+00 0. -1.
         23    2    1    2    0    0  0.21696485424E+01  0.21401082448E+02  0.32545776517E+01  0.88859336244E+02  0.86154951438E+02 0.  0.
         23    2    1    2    0    0 -0.21696485424E+01 -0.21401082448E+02 -0.11786330333E+02  0.98231726510E+02  0.95120138801E+02 0.  0.
          5    1    3    3  502    0  0.22431571425E+02  0.24528148210E+01  0.37819688530E+02  0.44290072676E+02  0.47000000000E+01 0.  1.
         -5    1    4    4    0  503  0.38118462683E+02 -0.33209419095E+02  0.83113691243E+01  0.51449505058E+02  0.47000000000E+01 0.  1.
          5    1    4    4  503    0 -0.40288111226E+02  0.11808336647E+02 -0.20097699457E+02  0.46782221452E+02  0.47000000000E+01 0. -1.
         -5    1    3    3    0  502 -0.20261922883E+02  0.18948267627E+02 -0.34565110878E+02  0.44569263568E+02  0.47000000000E+01 0. -1.
<mgrwt>
<rscale>  0 0.95264278E+02</rscale>
<asrwt>0</asrwt>
<pdfrwt beam="1">  1        1 0.15047909E-01 0.97522072E+02</pdfrwt>
<pdfrwt beam="2">  1       -1 0.13735332E-01 0.97522072E+02</pdfrwt>
<totfact> 0.12440421E+04</totfact>
</mgrwt>
</event>
<event>
 8    1  0.2964543E-004  0.9978569E+02  0.7546771E-02  0.1281440E+00
         -3   -1    0    0    0  501 -0.00000000000E+00  0.00000000000E+00  0.80858284607E+01  0.80858284607E+01  0.00000000000E+00 0.  1.
          3   -1    0    0  501    0  0.00000000000E+00 -0.00000000000E+00 -0.12155597440E+04  0.12155597440E+04  0.00000000000E+00 0. -1.
         23    2    1    2    0    0  0.39848378337E+02  0.16584677896E+01 -0.59233905517E+03  0.60046977005E+03  0.90043015836E+02 0.  0.
         23    2    1    2    0    0 -0.39848378337E+02 -0.16584677896E+01 -0.61513486042E+03  0.62317580245E+03  0.91468795167E+02 0.  0.
          5    1    3    3  502    0  0.57129696395E+02 -0.15496523348E+02 -0.53095752957E+03  0.53426766012E+03  0.47000000000E+01 0. -1.
         -5    1    3    3    0  502 -0.17281318058E+02  0.17154991137E+02 -0.61381525601E+02  0.66202109935E+02  0.47000000000E+01 0.  1.
          5    1    4    4  503    0  0.37835867108E+01 -0.38094867099E+02 -0.16535750289E+03  0.16979613714E+03  0.47000000000E+01 0. -1.
         -5    1    4    4    0  503 -0.43631965048E+02  0.36436399309E+02 -0.44977735753E+03  0.45337966531E+03  0.47000000000E+01 0.  1.
<mgrwt>
<rscale>  0 0.99457755E+02</rscale>
<asrwt>0</asrwt>
<pdfrwt beam="1">  1        3 0.18700908E+00 0.99785692E+02</pdfrwt>
<pdfrwt beam="2">  1       -3 0.12439743E-02 0.99785692E+02</pdfrwt>
<totfact> 0.84217743E+02</totfact>
</mgrwt>
</event>
<event>
 8    1  0.2964543E-004  0.1040207E+03  0.7546771E-02  0.1273222E+00
          1   -1    0    0  501    0  0.00000000000E+00  0.00000000000E+00  0.30756436710E+03  0.30756436710E+03  0.00000000000E+00 0. -1.
         -1   -1    0    0    0  501 -0.00000000000E+00 -0.00000000000E+00 -0.60434120201E+02  0.60434120201E+02  0.00000000000E+00 0.  1.
         23    2    1    2    0    0 -0.78934460647E+01  0.47732718136E+02  0.36060049220E+01  0.10408318153E+03  0.92084670460E+02 0.  0.
         23    2    1    2    0    0  0.78934460647E+01 -0.47732718136E+02  0.24352424198E+03  0.26391530578E+03  0.89479122264E+02 0.  0.
          5    1    4    4  502    0 -0.92720551874E+01 -0.36120620891E+02  0.23931904580E+03  0.24225269027E+03  0.47000000000E+01 0. -1.
         -5    1    3    3    0  503 -0.31594483691E+02  0.56346328411E+02 -0.21444967940E+02  0.68228269618E+02  0.47000000000E+01 0.  1.
          5    1    3    3  503    0  0.23701037627E+02 -0.86136102758E+01  0.25050972862E+02  0.35854911907E+02  0.47000000000E+01 0. -1.
         -5    1    4    4    0  502  0.17165501252E+02 -0.11612097244E+02  0.42051961774E+01  0.21662615505E+02  0.47000000000E+01 0.  1.
<mgrwt>
<rscale>  0 0.10344103E+03</rscale>
<asrwt>0</asrwt>
<pdfrwt beam="1">  1        1 0.47317594E-01 0.10402070E+03</pdfrwt>
<pdfrwt beam="2">  1       -1 0.92975571E-02 0.10402070E+03</pdfrwt>
<totfact> 0.54536131E+03</totfact>
</mgrwt>
</event>
<event>
 8    1  0.2964543E-004  0.9449718E+02  0.7546771E-02  0.1294990E+00
         -1   -1    0    0    0  501 -0.00000000000E+00  0.00000000000E+00  0.34509676269E+02  0.34509676269E+02  0.00000000000E+00 0.  1.
          1   -1    0    0  501    0  0.00000000000E+00 -0.00000000000E+00 -0.25215483233E+03  0.25215483233E+03  0.00000000000E+00 0. -1.
         23    2    1    2    0    0 -0.14383395569E+02 -0.66842030702E+01 -0.12795196768E+03  0.15637796137E+03  0.88491808265E+02 0.  0.
         23    2    1    2    0    0  0.14383395569E+02  0.66842030702E+01 -0.89693188382E+02  0.13028654723E+03  0.93156619239E+02 0.  0.
          5    1    3    3  502    0  0.21578276187E+02 -0.33912619355E+02 -0.37402793221E+02  0.55106684672E+02  0.47000000000E+01 0. -1.
         -5    1    3    3    0  502 -0.35961671757E+02  0.27228416285E+02 -0.90549174456E+02  0.10127127670E+03  0.47000000000E+01 0.  1.
          5    1    4    4  503    0  0.33719048390E+02  0.39669454638E+02 -0.68974020199E+02  0.86545625643E+02  0.47000000000E+01 0. -1.
         -5    1    4    4    0  503 -0.19335652821E+02 -0.32985251567E+02 -0.20719168183E+02  0.43740921586E+02  0.47000000000E+01 0.  1.
<mgrwt>
<rscale>  0 0.93326806E+02</rscale>
<asrwt>0</asrwt>
<pdfrwt beam="1">  1        1 0.38793050E-01 0.94497176E+02</pdfrwt>
<pdfrwt beam="2">  1       -1 0.53091812E-02 0.94497176E+02</pdfrwt>
<totfact> 0.15876726E+04</totfact>
</mgrwt>
</event>
<event>
 7    1  0.2964543E-004  0.2017442E+03  0.7546771E-02  0.1161707E+00
          1   -1    0    0  501    0  0.00000000000E+00  0.00000000000E+00  0.14694621900E+03  0.14694621900E+03  0.00000000000E+00 0. -1.
         -1   -1    0    0    0  501 -0.00000000000E+00 -0.00000000000E+00 -0.31475885845E+03  0.31475885845E+03  0.00000000000E+00 0.  1.
         23    2    1    2    0    0 -0.12265018548E+02  0.11314936114E+03  0.58641879832E+02  0.15841913414E+03  0.93298142459E+02 0.  0.
          5    1    1    2  502    0  0.63781373901E+02 -0.12613055702E+02 -0.15847676103E+03  0.17135964116E+03  0.47000000000E+01 0. -1.
         -5    1    3    3    0  503 -0.35322287347E+02  0.46257234015E+01  0.10936331403E+02  0.37560013911E+02  0.47000000000E+01 0.  1.
          5    1    3    3  503    0  0.23057268800E+02  0.10852363774E+03  0.47705548429E+02  0.12085912023E+03  0.47000000000E+01 0. -1.
         -5    1    1    2    0  502 -0.51516355353E+02 -0.10053630544E+03 -0.67977758257E+02  0.13192630215E+03  0.47000000000E+01 0.  1.
<mgrwt>
<rscale>  0 0.18644573E+03</rscale>
<asrwt>0</asrwt>
<pdfrwt beam="1">  1        1 0.22607111E-01 0.20174418E+03</pdfrwt>
<pdfrwt beam="2">  1       -1 0.48424439E-01 0.20174418E+03</pdfrwt>
<totfact> 0.94698736E+02</totfact>
</mgrwt>
</event>
<event>
 8    1  0.2964543E-004  0.1182499E+03  0.7546771E-02  0.1253101E+00
         -2   -1    0    0    0  501 -0.00000000000E+00  0.00000000000E+00  0.49989309469E+02  0.49989309469E+02  0.00000000000E+00 0.  1.
          2   -1    0    0  501    0  0.00000000000E+00 -0.00000000000E+00 -0.40275260882E+03  0.40275260882E+03  0.00000000000E+00 0. -1.
         23    2    1    2    0    0 -0.38485469674E+01  0.39421599313E+02 -0.26906670475E+02  0.10609284481E+03  0.94672324347E+02 0.  0.
         23    2    1    2    0    0  0.38485469674E+01 -0.39421599313E+02 -0.32585662887E+03  0.34664907348E+03  0.11141886625E+03 0.  0.
          5    1    3    3  502    0 -0.39322523816E+02  0.39020055426E+02  0.79200918224E+01  0.56157309935E+02  0.47000000000E+01 0. -1.
         -5    1    4    4    0  503  0.16411503202E+02 -0.71428037185E+02 -0.14549462974E+03  0.16297876922E+03  0.47000000000E+01 0.  1.
          5    1    4    4  503    0 -0.12562956235E+02  0.32006437872E+02 -0.18036199914E+03  0.18367030426E+03  0.47000000000E+01 0. -1.
         -5    1    3    3    0  502  0.35473976848E+02  0.40154388705E+00 -0.34826762298E+02  0.49935534873E+02  0.47000000000E+01 0.  1.
<mgrwt>
<rscale>  0 0.11413346E+03</rscale>
<asrwt>0</asrwt>
<pdfrwt beam="1">  1        2 0.61961938E-01 0.11824989E+03</pdfrwt>
<pdfrwt beam="2">  1       -2 0.76906632E-02 0.11824989E+03</pdfrwt>
<totfact> 0.75350890E+03</totfact>
</mgrwt>
</event>
<event>
 8    1  0.2964543E-004  0.9766999E+02  0.7546771E-02  0.1285975E+00
         -1   -1    0    0    0  501 -0.00000000000E+00  0.00000000000E+00  0.52279100084E+03  0.52279100084E+03  0.00000000000E+00 0.  1.
          1   -1    0    0  501    0  0.00000000000E+00 -0.00000000000E+00 -0.21155119765E+02  0.21155119765E+02  0.00000000000E+00 0. -1.
         23    2    1    2    0    0  0.15793143927E+02  0.28009253023E+02  0.35430257697E+03  0.36717924102E+03  0.90864389842E+02 0.  0.
         23    2    1    2    0    0 -0.15793143927E+02 -0.28009253023E+02  0.14733330411E+03  0.17676687958E+03  0.92225189448E+02 0.  0.
          5    1    3    3  502    0  0.27895670427E+02 -0.22519210208E+02  0.77715849337E+02  0.85715380738E+02  0.47000000000E+01 0. -1.
         -5    1    3    3    0  502 -0.12102526500E+02  0.50528463231E+02  0.27658672763E+03  0.28146386028E+03  0.47000000000E+01 0.  1.
          5    1    4    4  503    0 -0.20320602205E+02  0.66391938145E+01 -0.32346445246E+01  0.22125973282E+02  0.47000000000E+01 0. -1.
         -5    1    4    4    0  503  0.45274582780E+01 -0.34648446838E+02  0.15056794863E+03  0.15464090630E+03  0.47000000000E+01 0.  1.
<mgrwt>
<rscale>  0 0.97347422E+02</rscale>
<asrwt>0</asrwt>
<pdfrwt beam="1">  1        1 0.32546342E-02 0.97669991E+02</pdfrwt>
<pdfrwt beam="2">  1       -1 0.80429375E-01 0.97669991E+02</pdfrwt>
<totfact> 0.45713310E+03</totfact>
</mgrwt>
</event>
<event>
 8    1  0.2964543E-004  0.9944482E+02  0.7546771E-02  0.1281807E+00
          2   -1    0    0  501    0  0.00000000000E+00  0.00000000000E+00  0.35299770662E+03  0.35299770662E+03  0.00000000000E+00 0. -1.
         -2   -1    0    0    0  501 -0.00000000000E+00 -0.00000000000E+00 -0.39637956171E+02  0.39637956171E+02  0.00000000000E+00 0.  1.
         23    2    1    2    0    0  0.40321791965E+02 -0.22279580581E+01  0.26415682475E+03  0.28225538202E+03  0.90876079970E+02 0.  0.
         23    2    1    2    0    0 -0.40321791965E+02  0.22279580581E+01  0.49202925693E+02  0.11038028077E+03  0.90177978363E+02 0.  0.
          5    1    3    3  502    0 -0.25416500067E+02 -0.15537640696E+02  0.11030076553E+03  0.11434931408E+03  0.47000000000E+01 0. -1.
         -5    1    4    4    0  503 -0.46933678520E+02  0.36843506147E+02  0.16527608632E+02  0.62092398663E+02  0.47000000000E+01 0.  1.
          5    1    4    4  503    0  0.66118865546E+01 -0.34615548089E+02  0.32675317061E+02  0.48287882107E+02  0.47000000000E+01 0. -1.
         -5    1    3    3    0  502  0.65738292032E+02  0.13309682638E+02  0.15385605923E+03  0.16790606794E+03  0.47000000000E+01 0.  1.
<mgrwt>
<rscale>  0 0.99285052E+02</rscale>
<asrwt>0</asrwt>
<pdfrwt beam="1">  1        2 0.54307337E-01 0.99444822E+02</pdfrwt>
<pdfrwt beam="2">  1       -2 0.60981473E-02 0.99444822E+02</pdfrwt>
<totfact> 0.12159891E+04</totfact>
</mgrwt>
</event>
<event>
 8    1  0.2964543E-004  0.1176915E+03  0.7546771E-02  0.1248028E+00
          2   -1    0    0  501    0  0.00000000000E+00  0.00000000000E+00  0.28336593149E+02  0.28336593149E+02  0.00000000000E+00 0. -1.
         -2   -1    0    0    0  501 -0.00000000000E+00 -0.00000000000E+00 -0.53950932286E+03  0.53950932286E+03  0.00000000000E+00 0.  1.
         23    2    1    2    0    0 -0.27391281001E+02  0.69870064603E+02 -0.35353088286E+03  0.37260619969E+03  0.90659730327E+02 0.  0.
         23    2    1    2    0    0  0.27391281001E+02 -0.69870064603E+02 -0.15764184684E+03  0.19523971632E+03  0.87381272306E+02 0.  0.
          5    1    4    4  502    0 -0.77588052806E+00 -0.78957618597E+02 -0.13904597834E+03  0.15997118996E+03  0.47000000000E+01 0. -1.
         -5    1    3    3    0  503  0.17060891343E+02  0.26883555122E+02 -0.24893926003E+03  0.25101124423E+03  0.47000000000E+01 0.  1.
          5    1    3    3  503    0 -0.44452172344E+02  0.42986509481E+02 -0.10459162284E+03  0.12159495545E+03  0.47000000000E+01 0. -1.
         -5    1    4    4    0  502  0.28167161529E+02  0.90875539939E+01 -0.18595868507E+02  0.35268526362E+02  0.47000000000E+01 0.  1.
<mgrwt>
<rscale>  0 0.11705984E+03</rscale>
<asrwt>0</asrwt>
<pdfrwt beam="1">  1        2 0.43594756E-02 0.11769152E+03</pdfrwt>
<pdfrwt beam="2">  1       -2 0.83001440E-01 0.11769152E+03</pdfrwt>
<totfact> 0.23505317E+03</totfact>
</mgrwt>
</event>
<event>
 8    1  0.2964543E-004  0.9560898E+02  0.7546771E-02  0.1291349E+00
         -3   -1    0    0    0  501 -0.00000000000E+00  0.00000000000E+00  0.33468810178E+02  0.33468810178E+02  0.00000000000E+00 0.  1.
          3   -1    0    0  501    0  0.00000000000E+00 -0.00000000000E+00 -0.35791002215E+03  0.35791002215E+03  0.00000000000E+00 0. -1.
         23    2    1    2    0    0 -0.28512823567E+02  0.52525151761E+01 -0.64485592432E+02  0.11532332183E+03  0.91107117739E+02 0.  0.
         23    2    1    2    0    0  0.28512823567E+02 -0.52525151761E+01 -0.25995561954E+03  0.27605551050E+03  0.88256165359E+02 0.  0.
          5    1    3    3  502    0  0.24946431560E+02  0.61384608129E+01 -0.54907840674E+02  0.60802681817E+02  0.47000000000E+01 0. -1.
         -5    1    3    3    0  502 -0.53459255127E+02 -0.88594563685E+00 -0.95777517583E+01  0.54520640010E+02  0.47000000000E+01 0.  1.
          5    1    4    4  503    0  0.40630205815E+02  0.30612419589E+02 -0.18536235689E+03  0.19227383392E+03  0.47000000000E+01 0. -1.
         -5    1    4    4    0  503 -0.12117382248E+02 -0.35864934765E+02 -0.74593262654E+02  0.83781676587E+02  0.47000000000E+01 0.  1.
<mgrwt>
<rscale>  0 0.94923470E+02</rscale>
<asrwt>0</asrwt>
<pdfrwt beam="1">  1        3 0.55063078E-01 0.95608979E+02</pdfrwt>
<pdfrwt beam="2">  1       -3 0.51490479E-02 0.95608979E+02</pdfrwt>
<totfact> 0.15420715E+03</totfact>
</mgrwt>
</event>
<event>
 8    1  0.4239990E-004  0.9594797E+02  0.7546771E-02  0.1290067E+00
          2   -1    0    0  501    0  0.00000000000E+00  0.00000000000E+00  0.15948361525E+03  0.15948361525E+03  0.00000000000E+00 0. -1.
         -2   -1    0    0    0  501 -0.00000000000E+00 -0.00000000000E+00 -0.14030702237E+03  0.14030702237E+03  0.00000000000E+00 0.  1.
         23    2    1    2    0    0  0.27068581019E+02  0.17959672317E+02  0.12537106634E+03  0.15787310491E+03  0.90281532283E+02 0.  0.
         23    2    1    2    0    0 -0.27068581019E+02 -0.17959672317E+02 -0.10619447347E+03  0.14191753271E+03  0.88363238895E+02 0.  0.
          5    1    4    4  502    0  0.31315521578E+02  0.31911982062E+01 -0.33886119581E+02  0.46488759265E+02  0.47000000000E+01 0. -1.
         -5    1    4    4    0  502 -0.58384102597E+02 -0.21150870523E+02 -0.72308353885E+02  0.95428773446E+02  0.47000000000E+01 0.  1.
          5    1    3    3  503    0  0.56855964281E+02  0.13228270397E+02  0.10772538708E+03  0.12261499432E+03  0.47000000000E+01 0. -1.
         -5    1    3    3    0  503 -0.29787383262E+02  0.47314019204E+01  0.17645679263E+02  0.35258110590E+02  0.47000000000E+01 0.  1.
<mgrwt>
<rscale>  0 0.95494068E+02</rscale>
<asrwt>0</asrwt>
<pdfrwt beam="1">  1        2 0.24535941E-01 0.95947970E+02</pdfrwt>
<pdfrwt beam="2">  1       -2 0.21585696E-01 0.95947970E+02</pdfrwt>
<totfact> 0.38018854E+03</totfact>
</mgrwt>
</event>
<event>
 8    1  0.2964543E-004  0.2005757E+03  0.7546771E-02  0.1149605E+00
         -2   -1    0    0    0  501 -0.00000000000E+00  0.00000000000E+00  0.82271655478E+03  0.82271655478E+03  0.00000000000E+00 0.  1.
          2   -1    0    0  501    0  0.00000000000E+00 -0.00000000000E+00 -0.12953052887E+03  0.12953052887E+03  0.00000000000E+00 0. -1.
         23    2    1    2    0    0 -0.90723477872E+02  0.14978223549E+03 -0.29457695918E+02  0.20272729882E+03  0.97801504751E+02 0.  0.
         23    2    1    2    0    0  0.90723477872E+02 -0.14978223549E+03  0.72264372183E+03  0.74951978483E+03  0.94342416978E+02 0.  0.
          5    1    4    4  502    0  0.56935054494E+02 -0.14654858526E+02  0.24156587784E+03  0.24866147399E+03  0.47000000000E+01 0. -1.
         -5    1    4    4    0  502  0.33788423378E+02 -0.13512737697E+03  0.48107784399E+03  0.50085831084E+03  0.47000000000E+01 0.  1.
          5    1    3    3  503    0 -0.41806563852E+01  0.99737414870E+02 -0.22280347825E+02  0.10238912888E+03  0.47000000000E+01 0. -1.
         -5    1    3    3    0  503 -0.86542821487E+02  0.50044820623E+02 -0.71773480938E+01  0.10033816994E+03  0.47000000000E+01 0.  1.
<mgrwt>
<rscale>  0 0.20015844E+03</rscale>
<asrwt>0</asrwt>
<pdfrwt beam="1">  1        2 0.19927774E-01 0.20057568E+03</pdfrwt>
<pdfrwt beam="2">  1       -2 0.12657177E+00 0.20057568E+03</pdfrwt>
<totfact> 0.13692981E+02</totfact>
</mgrwt>
</event>
<event>
 8    1  0.2964543E-004  0.1052590E+03  0.7546771E-02  0.1271480E+00
         -1   -1    0    0    0  501 -0.00000000000E+00  0.00000000000E+00  0.22404689829E+03  0.22404689829E+03  0.00000000000E+00 0.  1.
          1   -1    0    0  501    0  0.00000000000E+00 -0.00000000000E+00 -0.50905536069E+02  0.50905536069E+02  0.00000000000E+00 0. -1.
         23    2    1    2    0    0 -0.35090990288E+02 -0.41633857861E+02  0.53610828423E+02  0.11812528349E+03  0.90081662710E+02 0.  0.
         23    2    1    2    0    0  0.35090990288E+02  0.41633857861E+02  0.11953053379E+03  0.15682715086E+03  0.85688103133E+02 0.  0.
          5    1    4    4  502    0  0.60121948955E+02  0.38084399361E+02  0.10602186067E+03  0.12778026123E+03  0.47000000000E+01 0. -1.
         -5    1    3    3    0  503 -0.60927348628E+02 -0.14770267473E+02  0.50110892835E+02  0.80395859301E+02  0.47000000000E+01 0.  1.
          5    1    3    3  503    0  0.25836358340E+02 -0.26863590387E+02  0.34999355883E+01  0.37729424193E+02  0.47000000000E+01 0. -1.
         -5    1    4    4    0  502 -0.25030958668E+02  0.35494584999E+01  0.13508673122E+02  0.29046889627E+02  0.47000000000E+01 0.  1.
<mgrwt>
<rscale>  0 0.10431268E+03</rscale>
<asrwt>0</asrwt>
<pdfrwt beam="1">  1        1 0.78316210E-02 0.10525902E+03</pdfrwt>
<pdfrwt beam="2">  1       -1 0.34468753E-01 0.10525902E+03</pdfrwt>
<totfact> 0.66800524E+03</totfact>
</mgrwt>
</event>
<event>
 8    1  0.2964543E-004  0.1054314E+03  0.7546771E-02  0.1270270E+00
         -2   -1    0    0    0  501 -0.00000000000E+00  0.00000000000E+00  0.52891220671E+02  0.52891220671E+02  0.00000000000E+00 0.  1.
          2   -1    0    0  501    0  0.00000000000E+00 -0.00000000000E+00 -0.20762597678E+03  0.20762597678E+03  0.00000000000E+00 0. -1.
         23    2    1    2    0    0  0.50238715303E+02 -0.87691061720E+01 -0.89046591682E+02  0.13800390561E+03  0.92276523211E+02 0.  0.
         23    2    1    2    0    0 -0.50238715303E+02  0.87691061720E+01 -0.65688164424E+02  0.12251329183E+03  0.89965248803E+02 0.  0.
          5    1    4    4  502    0  0.14728469220E+02 -0.25430393453E+02 -0.21181402882E+02  0.36529091759E+02  0.47000000000E+01 0. -1.
         -5    1    3    3    0  503  0.19616807798E+02 -0.17128890885E+02  0.14097151909E+02  0.29983958096E+02  0.47000000000E+01 0.  1.
          5    1    3    3  503    0  0.30621907505E+02  0.83597847134E+01 -0.10314374359E+03  0.10801994752E+03  0.47000000000E+01 0. -1.
         -5    1    4    4    0  502 -0.64967184523E+02  0.34199499625E+02 -0.44506761542E+02  0.85984200074E+02  0.47000000000E+01 0.  1.
<mgrwt>
<rscale>  0 0.10492354E+03</rscale>
<asrwt>0</asrwt>
<pdfrwt beam="1">  1        2 0.31942458E-01 0.10543141E+03</pdfrwt>
<pdfrwt beam="2">  1       -2 0.81371108E-02 0.10543141E+03</pdfrwt>
<totfact> 0.13797904E+04</totfact>
</mgrwt>
</event>
<event>
 8    1  0.2964543E-004  0.1055542E+03  0.7546771E-02  0.1269202E+00
         -1   -1    0    0    0  501 -0.00000000000E+00  0.00000000000E+00  0.13666019203E+02  0.13666019203E+02  0.00000000000E+00 0.  1.
          1   -1    0    0  501    0  0.00000000000E+00 -0.00000000000E+00 -0.98674380321E+03  0.98674380321E+03  0.00000000000E+00 0. -1.
         23    2    1    2    0    0 -0.49118862331E+02  0.19811840893E+02 -0.69601255470E+03  0.70391895679E+03  0.90902418820E+02 0.  0.
         23    2    1    2    0    0  0.49118862331E+02 -0.19811840893E+02 -0.27706522930E+03  0.29649086562E+03  0.91304547712E+02 0.  0.
          5    1    3    3  502    0 -0.80645908254E+01 -0.35088888052E+02 -0.26075634571E+03  0.26327215865E+03  0.47000000000E+01 0. -1.
         -5    1    4    4    0  503 -0.25730921177E+02  0.48174747562E+01 -0.67358828045E+02  0.72419542137E+02  0.47000000000E+01 0.  1.
          5    1    4    4  503    0  0.74849783508E+02 -0.24629315649E+02 -0.20970640126E+03  0.22407132349E+03  0.47000000000E+01 0. -1.
         -5    1    3    3    0  502 -0.41054271506E+02  0.54900728945E+02 -0.43525620899E+03  0.44064679814E+03  0.47000000000E+01 0.  1.
<mgrwt>
<rscale>  0 0.10546719E+03</rscale>
<asrwt>0</asrwt>
<pdfrwt beam="1">  1        1 0.15180680E+00 0.10555421E+03</pdfrwt>
<pdfrwt beam="2">  1       -1 0.21024636E-02 0.10555421E+03</pdfrwt>
<totfact> 0.99002527E+03</totfact>
</mgrwt>
</event>
<event>
 8    1  0.2964543E-004  0.1049814E+03  0.7546771E-02  0.1270491E+00
          3   -1    0    0  501    0  0.00000000000E+00  0.00000000000E+00  0.59161909511E+02  0.59161909511E+02  0.00000000000E+00 0. -1.
         -3   -1    0    0    0  501 -0.00000000000E+00 -0.00000000000E+00 -0.18585013102E+03  0.18585013102E+03  0.00000000000E+00 0.  1.
         23    2    1    2    0    0  0.48170230840E+02 -0.17711849466E+02 -0.71396193191E+02  0.12695872132E+03  0.91580673549E+02 0.  0.
         23    2    1    2    0    0 -0.48170230840E+02  0.17711849466E+02 -0.55292028315E+02  0.11805331920E+03  0.90803617928E+02 0.  0.
          5    1    4    4  502    0 -0.42505686715E+02 -0.27138986953E+02 -0.51833552793E+02  0.72471133640E+02  0.47000000000E+01 0. -1.
         -5    1    4    4    0  502 -0.56645441244E+01  0.44850836419E+02 -0.34584755216E+01  0.45582185562E+02  0.47000000000E+01 0.  1.
          5    1    3    3  503    0 -0.27298764742E+02 -0.28114175409E+01 -0.16931917588E+02  0.32586906239E+02  0.47000000000E+01 0. -1.
         -5    1    3    3    0  503  0.75468995581E+02 -0.14900431925E+02 -0.54464275602E+02  0.94371815086E+02  0.47000000000E+01 0.  1.
<mgrwt>
<rscale>  0 0.10481172E+03</rscale>
<asrwt>0</asrwt>
<pdfrwt beam="1">  1        3 0.91018324E-02 0.10498143E+03</pdfrwt>
<pdfrwt beam="2">  1       -3 0.28592327E-01 0.10498143E+03</pdfrwt>
<totfact> 0.22109725E+03</totfact>
</mgrwt>
</event>
<event>
 8    1  0.2964543E-004  0.1545286E+03  0.7546771E-02  0.1196701E+00
          1   -1    0    0  501    0  0.00000000000E+00  0.00000000000E+00  0.22331238230E+03  0.22331238230E+03  0.00000000000E+00 0. -1.
         -1   -1    0    0    0  501 -0.00000000000E+00 -0.00000000000E+00 -0.10448783117E+03  0.10448783117E+03  0.00000000000E+00 0.  1.
         23    2    1    2    0    0  0.44732447269E+02  0.95384776281E+02  0.77230840595E+02  0.16777170460E+03  0.10527817790E+03 0.  0.
         23    2    1    2    0    0 -0.44732447269E+02 -0.95384776281E+02  0.41593710529E+02  0.16002850887E+03  0.11304795226E+03 0.  0.
          5    1    3    3  502    0  0.22968125602E+02  0.90595113643E+01  0.74449736048E+02  0.78577749633E+02  0.47000000000E+01 0. -1.
         -5    1    3    3    0  502  0.21764321668E+02  0.86325264917E+02  0.27811045472E+01  0.89193954969E+02  0.47000000000E+01 0.  1.
          5    1    4    4  503    0 -0.28594191240E+02 -0.12070453329E+03  0.33002615616E+02  0.12844638869E+03  0.47000000000E+01 0. -1.
         -5    1    4    4    0  503 -0.16138256029E+02  0.25319757014E+02  0.85910949131E+01  0.31582120174E+02  0.47000000000E+01 0.  1.
<mgrwt>
<rscale>  0 0.15311176E+03</rscale>
<asrwt>0</asrwt>
<pdfrwt beam="1">  1        1 0.34355751E-01 0.15452860E+03</pdfrwt>
<pdfrwt beam="2">  1       -1 0.16075051E-01 0.15452860E+03</pdfrwt>
<totfact> 0.35573786E+03</totfact>
</mgrwt>
</event>
<event>
 8    1  0.3610271E-004  0.9150874E+02  0.7546771E-02  0.1299892E+00
          2   -1    0    0  501    0  0.00000000000E+00  0.00000000000E+00  0.33394783622E+03  0.33394783622E+03  0.00000000000E+00 0. -1.
         -2   -1    0    0    0  501 -0.00000000000E+00 -0.00000000000E+00 -0.53879188968E+02  0.53879188968E+02  0.00000000000E+00 0.  1.
         23    2    1    2    0    0  0.28871705943E+01 -0.17415066377E+00  0.28293827073E+03  0.29736831574E+03  0.91463020297E+02 0.  0.
         23    2    1    2    0    0 -0.28871705943E+01  0.17415066377E+00 -0.28696234807E+01  0.90458709443E+02  0.90366903746E+02 0.  0.
          5    1    4    4  502    0 -0.13882416826E+02 -0.30944164769E+02  0.28601347402E+02  0.44613786024E+02  0.47000000000E+01 0. -1.
         -5    1    4    4    0  502  0.10995246231E+02  0.31118315433E+02 -0.31470970882E+02  0.45844923419E+02  0.47000000000E+01 0.  1.
          5    1    3    3  503    0  0.25105144628E+02 -0.38403925599E+02  0.16503821920E+03  0.17136170396E+03  0.47000000000E+01 0. -1.
         -5    1    3    3    0  503 -0.22217974034E+02  0.38229774935E+02  0.11790005154E+03  0.12600661179E+03  0.47000000000E+01 0.  1.
<mgrwt>
<rscale>  0 0.91233615E+02</rscale>
<asrwt>0</asrwt>
<pdfrwt beam="1">  1        2 0.51376589E-01 0.91508744E+02</pdfrwt>
<pdfrwt beam="2">  1       -2 0.82891062E-02 0.91508744E+02</pdfrwt>
<totfact> 0.80318604E+03</totfact>
</mgrwt>
</event>
<event>
 8    1  0.2964543E-004  0.1111645E+03  0.7546771E-02  0.1258441E+00
          2   -1    0    0  501    0  0.00000000000E+00  0.00000000000E+00  0.62292094720E+02  0.62292094720E+02  0.00000000000E+00 0. -1.
         -2   -1    0    0    0  501 -0.00000000000E+00 -0.00000000000E+00 -0.25832731944E+03  0.25832731944E+03  0.00000000000E+00 0.  1.
         23    2    1    2    0    0  0.32753560282E+02  0.54123251020E+02 -0.20750293307E+02  0.11305649980E+03  0.91373275431E+02 0.  0.
         23    2    1    2    0    0 -0.32753560282E+02 -0.54123251020E+02 -0.17528493142E+03  0.20756291436E+03  0.91408064328E+02 0.  0.
          5    1    3    3  502    0  0.57668216214E+02  0.24336195210E+02 -0.34461014733E+02  0.71606739174E+02  0.47000000000E+01 0. -1.
         -5    1    4    4    0  503 -0.61726141393E+02 -0.43486063308E+02 -0.14750240062E+03  0.16577153683E+03  0.47000000000E+01 0.  1.
          5    1    4    4  503    0  0.28972581111E+02 -0.10637187712E+02 -0.27782530791E+02  0.41791377530E+02  0.47000000000E+01 0. -1.
         -5    1    3    3    0  502 -0.24914655932E+02  0.29787055811E+02  0.13710721426E+02  0.41449760628E+02  0.47000000000E+01 0.  1.
<mgrwt>
<rscale>  0 0.11115739E+03</rscale>
<asrwt>0</asrwt>
<pdfrwt beam="1">  1        2 0.95833989E-02 0.11116455E+03</pdfrwt>
<pdfrwt beam="2">  1       -2 0.39742666E-01 0.11116455E+03</pdfrwt>
<totfact> 0.38424632E+03</totfact>
</mgrwt>
</event>
<event>
 8    1  0.2964543E-004  0.9726917E+02  0.7546771E-02  0.1290781E+00
         -1   -1    0    0    0  501 -0.00000000000E+00  0.00000000000E+00  0.62086106023E+02  0.62086106023E+02  0.00000000000E+00 0.  1.
          1   -1    0    0  501    0  0.00000000000E+00 -0.00000000000E+00 -0.16481121564E+03  0.16481121564E+03  0.00000000000E+00 0. -1.
         23    2    1    2    0    0  0.33369783410E+01  0.17168404842E+02 -0.92351221191E+01  0.97706596422E+02  0.95683864651E+02 0.  0.
         23    2    1    2    0    0 -0.33369783410E+01 -0.17168404842E+02 -0.93489987494E+02  0.12919072524E+03  0.87429835733E+02 0.  0.
          5    1    3    3  502    0  0.87461956143E+01 -0.30583344052E+02 -0.31069635350E+02  0.44712963578E+02  0.47000000000E+01 0. -1.
         -5    1    3    3    0  502 -0.54092172733E+01  0.47751748894E+02  0.21834513231E+02  0.52993632844E+02  0.47000000000E+01 0.  1.
          5    1    4    4  503    0 -0.39595997310E+02 -0.29772575634E+02 -0.60669751394E+02  0.78467560158E+02  0.47000000000E+01 0. -1.
         -5    1    4    4    0  503  0.36259018969E+02  0.12604170792E+02 -0.32820236100E+02  0.50723165079E+02  0.47000000000E+01 0.  1.
<mgrwt>
<rscale>  0 0.95175766E+02</rscale>
<asrwt>0</asrwt>
<pdfrwt beam="1">  1        1 0.25355572E-01 0.97269170E+02</pdfrwt>
<pdfrwt beam="2">  1       -1 0.95517086E-02 0.97269170E+02</pdfrwt>
<totfact> 0.11212744E+04</totfact>
</mgrwt>
</event>
<event>
 8    1  0.2964543E-004  0.9248915E+02  0.7546771E-02  0.1298249E+00
          1   -1    0    0  501    0  0.00000000000E+00  0.00000000000E+00  0.11801004672E+03  0.11801004672E+03  0.00000000000E+00 0. -1.
         -1   -1    0    0    0  501 -0.00000000000E+00 -0.00000000000E+00 -0.74544709809E+02  0.74544709809E+02  0.00000000000E+00 0.  1.
         23    2    1    2    0    0 -0.22684121532E+02 -0.18579453183E+01 -0.22588213787E+00  0.90265139762E+02  0.87348286205E+02 0.  0.
         23    2    1    2    0    0  0.22684121532E+02  0.18579453183E+01  0.43691219052E+02  0.10228961677E+03  0.89644976135E+02 0.  0.
          5    1    3    3  502    0  0.14236553091E+02 -0.35683217793E+02 -0.75721407121E+01  0.39438544483E+02  0.47000000000E+01 0. -1.
         -5    1    4    4    0  503 -0.31014033387E+01 -0.32340313035E+02 -0.91787383209E+01  0.34085976399E+02  0.47000000000E+01 0.  1.
          5    1    4    4  503    0  0.25785524871E+02  0.34198258354E+02  0.52869957373E+02  0.68203640371E+02  0.47000000000E+01 0. -1.
         -5    1    3    3    0  502 -0.36920674623E+02  0.33825272474E+02  0.73462585742E+01  0.50826595279E+02  0.47000000000E+01 0.  1.
<mgrwt>
<rscale>  0 0.91927991E+02</rscale>
<asrwt>0</asrwt>
<pdfrwt beam="1">  1        1 0.18155392E-01 0.92489151E+02</pdfrwt>
<pdfrwt beam="2">  1       -1 0.11468417E-01 0.92489151E+02</pdfrwt>
<totfact> 0.12850249E+04</totfact>
</mgrwt>
</event>
<event>
 8    1  0.2964543E-004  0.9933571E+02  0.7546771E-02  0.1283883E+00
         -1   -1    0    0    0  501 -0.00000000000E+00  0.00000000000E+00  0.88462785702E+03  0.88462785702E+03  0.00000000000E+00 0.  1.
          1   -1    0    0  501    0  0.00000000000E+00 -0.00000000000E+00 -0.11076539217E+02  0.11076539217E+02  0.00000000000E+00 0. -1.
         23    2    1    2    0    0 -0.18865938302E+02  0.25560959670E+02  0.50983727932E+03  0.51866927214E+03  0.89858089204E+02 0.  0.
         23    2    1    2    0    0  0.18865938302E+02 -0.25560959670E+02  0.36371403848E+03  0.37703512409E+03  0.94118524863E+02 0.  0.
          5    1    4    4  502    0  0.45705602140E+02  0.93252069097E+01  0.26116758808E+03  0.26534234606E+03  0.47000000000E+01 0. -1.
         -5    1    3    3    0  503 -0.30315453116E+02 -0.26794302379E+02  0.25303276942E+03  0.25629013586E+03  0.47000000000E+01 0.  1.
          5    1    3    3  503    0  0.11449514815E+02  0.52355262049E+02  0.25680450990E+03  0.26237913628E+03  0.47000000000E+01 0. -1.
         -5    1    4    4    0  502 -0.26839663838E+02 -0.34886166580E+02  0.10254645041E+03  0.11169277803E+03  0.47000000000E+01 0.  1.
<mgrwt>
<rscale>  0 0.98313298E+02</rscale>
<asrwt>0</asrwt>
<pdfrwt beam="1">  1        1 0.17040836E-02 0.99335709E+02</pdfrwt>
<pdfrwt beam="2">  1       -1 0.13609654E+00 0.99335709E+02</pdfrwt>
<totfact> 0.34639570E+03</totfact>
</mgrwt>
</event>
<event>
 8    1  0.2964543E-004  0.1212067E+03  0.7546771E-02  0.1241498E+00
         -1   -1    0    0    0  501 -0.00000000000E+00  0.00000000000E+00  0.61737354688E+03  0.61737354688E+03  0.00000000000E+00 0.  1.
          1   -1    0    0  501    0  0.00000000000E+00 -0.00000000000E+00 -0.42296760210E+02  0.42296760210E+02  0.00000000000E+00 0. -1.
         23    2    1    2    0    0 -0.17125939963E+02 -0.75387806081E+02  0.67714707098E+02  0.13803121697E+03  0.92145082216E+02 0.  0.
         23    2    1    2    0    0  0.17125939963E+02  0.75387806081E+02  0.50736207957E+03  0.52163909011E+03  0.93351172597E+02 0.  0.
          5    1    3    3  502    0  0.33200683925E+02 -0.63112842491E+01  0.13396211115E+02  0.36656052627E+02  0.47000000000E+01 0. -1.
         -5    1    4    4    0  503 -0.34456887590E+02  0.74698065101E+01  0.16394452897E+03  0.16775867695E+03  0.47000000000E+01 0.  1.
          5    1    4    4  503    0  0.51582827553E+02  0.67917999571E+02  0.34341755059E+03  0.35388041316E+03  0.47000000000E+01 0. -1.
         -5    1    3    3    0  502 -0.50326623888E+02 -0.69076521832E+02  0.54318495983E+02  0.10137516435E+03  0.47000000000E+01 0.  1.
<mgrwt>
<rscale>  0 0.12097441E+03</rscale>
<asrwt>0</asrwt>
<pdfrwt beam="1">  1        1 0.65071943E-02 0.12120669E+03</pdfrwt>
<pdfrwt beam="2">  1       -1 0.94980539E-01 0.12120669E+03</pdfrwt>
<totfact> 0.12732017E+03</totfact>
</mgrwt>
</event>
<event>
 8    1  0.2964543E-004  0.1016142E+03  0.7546771E-02  0.1277070E+00
          2   -1    0    0  501    0  0.00000000000E+00  0.00000000000E+00  0.19768314429E+02  0.19768314429E+02  0.00000000000E+00 0. -1.
         -2   -1    0    0    0  501 -0.00000000000E+00 -0.00000000000E+00 -0.54145718345E+03  0.54145718345E+03  0.00000000000E+00 0.  1.
         23    2    1    2    0    0 -0.40786740495E+02  0.28401513398E+02 -0.31570672711E+03  0.33165672301E+03  0.88629793016E+02 0.  0.
         23    2    1    2    0    0  0.40786740495E+02 -0.28401513398E+02 -0.20598214191E+03  0.22956877487E+03  0.88334452206E+02 0.  0.
          5    1    3    3  502    0 -0.66566376511E+02  0.70021397029E+01 -0.19103870288E+03  0.20247960006E+03  0.47000000000E+01 0. -1.
         -5    1    3    3    0  502  0.25779636016E+02  0.21399373695E+02 -0.12466802423E+03  0.12917712295E+03  0.47000000000E+01 0.  1.
          5    1    4    4  503    0 -0.51699580581E+01 -0.39104846443E+02 -0.37820074938E+02  0.54848569261E+02  0.47000000000E+01 0. -1.
         -5    1    4    4    0  503  0.45956698554E+02  0.10703333045E+02 -0.16816206697E+03  0.17472020561E+03  0.47000000000E+01 0.  1.
<mgrwt>
<rscale>  0 0.10154976E+03</rscale>
<asrwt>0</asrwt>
<pdfrwt beam="1">  1        2 0.30412792E-02 0.10161419E+03</pdfrwt>
<pdfrwt beam="2">  1       -2 0.83301105E-01 0.10161419E+03</pdfrwt>
<totfact> 0.37105158E+03</totfact>
</mgrwt>
</event>
<event>
 8    1  0.2964543E-004  0.9098566E+02  0.7546771E-02  0.1300883E+00
         -3   -1    0    0    0  501 -0.00000000000E+00  0.00000000000E+00  0.15657753004E+03  0.15657753004E+03  0.00000000000E+00 0.  1.
          3   -1    0    0  501    0  0.00000000000E+00 -0.00000000000E+00 -0.60718112054E+02  0.60718112054E+02  0.00000000000E+00 0. -1.
         23    2    1    2    0    0  0.60049439221E+01 -0.35800334360E+01  0.80703942015E+01  0.91342879314E+02  0.90716670727E+02 0.  0.
         23    2    1    2    0    0 -0.60049439221E+01  0.35800334360E+01  0.87789023781E+02  0.12595276278E+03  0.90046153520E+02 0.  0.
          5    1    4    4  502    0 -0.30069293211E+02 -0.33670977205E+02  0.38867761177E+02  0.59755250473E+02  0.47000000000E+01 0. -1.
         -5    1    3    3    0  503  0.42291918420E+02  0.15489461398E+02  0.18285213364E+02  0.48836142413E+02  0.47000000000E+01 0.  1.
          5    1    3    3  503    0 -0.36286974497E+02 -0.19069494834E+02 -0.10214819163E+02  0.42506736901E+02  0.47000000000E+01 0. -1.
         -5    1    4    4    0  502  0.24064349289E+02  0.37251010641E+02  0.48921262604E+02  0.66197512304E+02  0.47000000000E+01 0.  1.
<mgrwt>
<rscale>  0 0.90818068E+02</rscale>
<asrwt>0</asrwt>
<pdfrwt beam="1">  1        3 0.93412481E-02 0.90985660E+02</pdfrwt>
<pdfrwt beam="2">  1       -3 0.24088851E-01 0.90985660E+02</pdfrwt>
<totfact> 0.28054672E+03</totfact>
</mgrwt>
</event>
<event>
 8    1  0.2964543E-004  0.1021215E+03  0.7546771E-02  0.1277038E+00
         -1   -1    0    0    0  501 -0.00000000000E+00  0.00000000000E+00  0.77232977587E+03  0.77232977587E+03  0.00000000000E+00 0.  1.
          1   -1    0    0  501    0  0.00000000000E+00 -0.00000000000E+00 -0.14005775775E+02  0.14005775775E+02  0.00000000000E+00 0. -1.
         23    2    1    2    0    0  0.19354997737E+02 -0.37256063900E+02  0.46879453579E+03  0.47932397380E+03  0.90667110035E+02 0.  0.
         23    2    1    2    0    0 -0.19354997737E+02  0.37256063900E+02  0.28952946431E+03  0.30701157784E+03  0.93092255278E+02 0.  0.
          5    1    3    3  502    0 -0.35799717014E+02 -0.20149275727E+02  0.22221274116E+03  0.22602700145E+03  0.47000000000E+01 0. -1.
         -5    1    3    3    0  502  0.55154714751E+02 -0.17106788173E+02  0.24658179463E+03  0.25329697235E+03  0.47000000000E+01 0.  1.
          5    1    4    4  503    0 -0.46115559333E+02  0.52959485316E+02  0.21174021156E+03  0.22313081161E+03  0.47000000000E+01 0. -1.
         -5    1    4    4    0  503  0.26760561596E+02 -0.15703421416E+02  0.77789252751E+02  0.83880766238E+02  0.47000000000E+01 0.  1.
<mgrwt>
<rscale>  0 0.10156553E+03</rscale>
<asrwt>0</asrwt>
<pdfrwt beam="1">  1        1 0.21547353E-02 0.10212149E+03</pdfrwt>
<pdfrwt beam="2">  1       -1 0.11881993E+00 0.10212149E+03</pdfrwt>
<totfact> 0.34706703E+03</totfact>
</mgrwt>
</event>
<event>
 8    1  0.2964543E-004  0.9506994E+02  0.7546771E-02  0.1292096E+00
         -1   -1    0    0    0  501 -0.00000000000E+00  0.00000000000E+00  0.51928934996E+03  0.51928934996E+03  0.00000000000E+00 0.  1.
          1   -1    0    0  501    0  0.00000000000E+00 -0.00000000000E+00 -0.24011952466E+03  0.24011952466E+03  0.00000000000E+00 0. -1.
         23    2    1    2    0    0 -0.24949358124E+00 -0.18410409609E+02  0.50565072086E+03  0.51451039333E+03  0.93269973229E+02 0.  0.
         23    2    1    2    0    0  0.24949358124E+00  0.18410409609E+02 -0.22648089556E+03  0.24489848129E+03  0.91338188369E+02 0.  0.
          5    1    3    3  502    0 -0.40208261924E+02 -0.29813066073E+02  0.21100344378E+03  0.21691027298E+03  0.47000000000E+01 0. -1.
         -5    1    3    3    0  502  0.39958768343E+02  0.11402656465E+02  0.29464727708E+03  0.29760012035E+03  0.47000000000E+01 0.  1.
          5    1    4    4  503    0  0.80136560785E+01 -0.20927814936E+02 -0.18711601283E+03  0.18851176191E+03  0.47000000000E+01 0. -1.
         -5    1    4    4    0  503 -0.77641624973E+01  0.39338224544E+02 -0.39364882727E+02  0.56386719373E+02  0.47000000000E+01 0.  1.
<mgrwt>
<rscale>  0 0.94592744E+02</rscale>
<asrwt>0</asrwt>
<pdfrwt beam="1">  1        1 0.36941466E-01 0.95069939E+02</pdfrwt>
<pdfrwt beam="2">  1       -1 0.79890669E-01 0.95069939E+02</pdfrwt>
<totfact> 0.19648852E+02</totfact>
</mgrwt>
</event>
<event>
 8    1  0.2964543E-004  0.1991206E+03  0.7546771E-02  0.1150699E+00
          1   -1    0    0  501    0  0.00000000000E+00  0.00000000000E+00  0.12986933940E+03  0.12986933940E+03  0.00000000000E+00 0. -1.
         -1   -1    0    0    0  501 -0.00000000000E+00 -0.00000000000E+00 -0.30541258379E+03  0.30541258379E+03  0.00000000000E+00 0.  1.
         23    2    1    2    0    0 -0.36600599506E+02  0.17294199897E+03 -0.71467146355E+02  0.21060248608E+03  0.89427709608E+02 0.  0.
         23    2    1    2    0    0  0.36600599506E+02 -0.17294199897E+03 -0.10407609804E+03  0.22467943711E+03  0.91654112764E+02 0.  0.
          5    1    3    3  502    0 -0.11113786624E+01  0.65788310999E+02 -0.71967798448E+02  0.97625770369E+02  0.47000000000E+01 0.  1.
         -5    1    4    4    0  503  0.30873941648E+01 -0.14905817886E+03 -0.10635291965E+03  0.18319635970E+03  0.47000000000E+01 0.  1.
          5    1    4    4  503    0  0.33513205341E+02 -0.23883820104E+02  0.22768216098E+01  0.41483077413E+02  0.47000000000E+01 0. -1.
         -5    1    3    3    0  502 -0.35489220844E+02  0.10715368797E+03  0.50065209324E+00  0.11297671571E+03  0.47000000000E+01 0. -1.
<mgrwt>
<rscale>  0 0.19886638E+03</rscale>
<asrwt>0</asrwt>
<pdfrwt beam="1">  1        1 0.19979899E-01 0.19912060E+03</pdfrwt>
<pdfrwt beam="2">  1       -1 0.46986551E-01 0.19912060E+03</pdfrwt>
<totfact> 0.11718143E+03</totfact>
</mgrwt>
</event>
<event>
 8    1  0.2964543E-004  0.1244569E+03  0.7546771E-02  0.1236488E+00
         -3   -1    0    0    0  501 -0.00000000000E+00  0.00000000000E+00  0.57186566207E+03  0.57186566207E+03  0.00000000000E+00 0.  1.
          3   -1    0    0  501    0  0.00000000000E+00 -0.00000000000E+00 -0.78274230729E+02  0.78274230729E+02  0.00000000000E+00 0. -1.
         23    2    1    2    0    0  0.65740689133E+02 -0.51442232416E+02  0.51096014773E+03  0.52589904104E+03  0.92311360721E+02 0.  0.
         23    2    1    2    0    0 -0.65740689133E+02  0.51442232416E+02 -0.17368716384E+02  0.12424085176E+03  0.90365786966E+02 0.  0.
          5    1    3    3  502    0 -0.60709084296E+01  0.19315677657E+02  0.13664359327E+03  0.13821545831E+03  0.47000000000E+01 0. -1.
         -5    1    3    3    0  502  0.71811597562E+02 -0.70757910073E+02  0.37431655445E+03  0.38768358273E+03  0.47000000000E+01 0.  1.
          5    1    4    4  503    0 -0.15292469152E+02  0.67608809847E+02 -0.51140892661E+01  0.69663869335E+02  0.47000000000E+01 0. -1.
         -5    1    4    4    0  503 -0.50448219980E+02 -0.16166577430E+02 -0.12254627118E+02  0.54576982427E+02  0.47000000000E+01 0.  1.
<mgrwt>
<rscale>  0 0.12409634E+03</rscale>
<asrwt>0</asrwt>
<pdfrwt beam="1">  1        3 0.12042190E-01 0.12445694E+03</pdfrwt>
<pdfrwt beam="2">  1       -3 0.87979330E-01 0.12445694E+03</pdfrwt>
<totfact> 0.15130807E+02</totfact>
</mgrwt>
</event>
<event>
 8    1  0.4633603E-004  0.9709970E+02  0.7546771E-02  0.1288632E+00
         -2   -1    0    0    0  501 -0.00000000000E+00  0.00000000000E+00  0.41174207349E+02  0.41174207349E+02  0.00000000000E+00 0.  1.
          2   -1    0    0  501    0  0.00000000000E+00 -0.00000000000E+00 -0.62566230501E+03  0.62566230501E+03  0.00000000000E+00 0. -1.
         23    2    1    2    0    0 -0.29872375744E+02 -0.13523074051E+02 -0.55860666293E+03  0.56634671457E+03  0.87361117581E+02 0.  0.
         23    2    1    2    0    0  0.29872375744E+02  0.13523074051E+02 -0.25881434733E+02  0.10048979779E+03  0.91395396123E+02 0.  0.
          5    1    4    4  502    0 -0.68223550914E+01  0.22376921602E+02 -0.50032685511E+02  0.55431315777E+02  0.47000000000E+01 0. -1.
         -5    1    4    4    0  502  0.36694730835E+02 -0.88538475509E+01  0.24151250778E+02  0.45058482017E+02  0.47000000000E+01 0.  1.
          5    1    3    3  503    0 -0.52962874872E+02  0.16011022316E+02 -0.33325997405E+03  0.33785458300E+03  0.47000000000E+01 0. -1.
         -5    1    3    3    0  503  0.23090499128E+02 -0.29534096367E+02 -0.22534668888E+03  0.22849213157E+03  0.47000000000E+01 0.  1.
<mgrwt>
<rscale>  0 0.96138689E+02</rscale>
<asrwt>0</asrwt>
<pdfrwt beam="1">  1        2 0.96255746E-01 0.97099695E+02</pdfrwt>
<pdfrwt beam="2">  1       -2 0.63344930E-02 0.97099695E+02</pdfrwt>
<totfact> 0.61775022E+03</totfact>
</mgrwt>
</event>
<event>
 8    1  0.2964543E-004  0.9404659E+02  0.7546771E-02  0.1293440E+00
         -3   -1    0    0    0  501 -0.00000000000E+00  0.00000000000E+00  0.22126029144E+03  0.22126029144E+03  0.00000000000E+00 0.  1.
          3   -1    0    0  501    0  0.00000000000E+00 -0.00000000000E+00 -0.46543133149E+02  0.46543133149E+02  0.00000000000E+00 0. -1.
         23    2    1    2    0    0  0.20271405138E+02  0.11267398259E+02  0.36695778992E+02  0.10078647376E+03  0.90958501345E+02 0.  0.
         23    2    1    2    0    0 -0.20271405138E+02 -0.11267398259E+02  0.13802137929E+03  0.16701695083E+03  0.91142068177E+02 0.  0.
          5    1    3    3  502    0 -0.92421379517E+01  0.38196435215E+02 -0.82896069853E+01  0.40437511806E+02  0.47000000000E+01 0. -1.
         -5    1    4    4    0  503 -0.11598020613E+02 -0.46281714856E+02  0.11332226821E+03  0.12304689221E+03  0.47000000000E+01 0.  1.
          5    1    4    4  503    0 -0.86733845254E+01  0.35014316597E+02  0.24699111087E+02  0.43970058612E+02  0.47000000000E+01 0. -1.
         -5    1    3    3    0  502  0.29513543090E+02 -0.26929036956E+02  0.44985385978E+02  0.60348961952E+02  0.47000000000E+01 0.  1.
<mgrwt>
<rscale>  0 0.94002085E+02</rscale>
<asrwt>0</asrwt>
<pdfrwt beam="1">  1        3 0.71604821E-02 0.94046588E+02</pdfrwt>
<pdfrwt beam="2">  1       -3 0.34040044E-01 0.94046588E+02</pdfrwt>
<totfact> 0.23102305E+03</totfact>
</mgrwt>
</event>
<event>
 8    1  0.2964543E-004  0.1042583E+03  0.7546771E-02  0.1271707E+00
         -2   -1    0    0    0  501 -0.00000000000E+00  0.00000000000E+00  0.12648539236E+02  0.12648539236E+02  0.00000000000E+00 0.  1.
          2   -1    0    0  501    0  0.00000000000E+00 -0.00000000000E+00 -0.89504523263E+03  0.89504523263E+03  0.00000000000E+00 0. -1.
         23    2    1    2    0    0 -0.25228627519E+02  0.44249863163E+02 -0.34860581838E+03  0.36386235286E+03  0.90968462567E+02 0.  0.
         23    2    1    2    0    0  0.25228627519E+02 -0.44249863163E+02 -0.53379087501E+03  0.54383141901E+03  0.90693880813E+02 0.  0.
          5    1    4    4  502    0 -0.19553528331E+02 -0.54166139141E+02 -0.28315484870E+03  0.28898973933E+03  0.47000000000E+01 0.  1.
         -5    1    4    4    0  502  0.44782155850E+02  0.99162759781E+01 -0.25063602631E+03  0.25484167967E+03  0.47000000000E+01 0. -1.
          5    1    3    3  503    0  0.27552782669E+02  0.42721862776E+02 -0.18209847411E+03  0.18911969137E+03  0.47000000000E+01 0. -1.
         -5    1    3    3    0  503 -0.52781410188E+02  0.15280003868E+01 -0.16650734427E+03  0.17474266149E+03  0.47000000000E+01 0.  1.
<mgrwt>
<rscale>  0 0.10419838E+03</rscale>
<asrwt>0</asrwt>
<pdfrwt beam="1">  1        2 0.13769923E+00 0.10425831E+03</pdfrwt>
<pdfrwt beam="2">  1       -2 0.19459296E-02 0.10425831E+03</pdfrwt>
<totfact> 0.22867768E+04</totfact>
</mgrwt>
</event>
<event>
 8    1  0.2964543E-004  0.1079116E+03  0.7546771E-02  0.1269181E+00
         -3   -1    0    0    0  501 -0.00000000000E+00  0.00000000000E+00  0.90954890106E+02  0.90954890106E+02  0.00000000000E+00 0.  1.
          3   -1    0    0  501    0  0.00000000000E+00 -0.00000000000E+00 -0.16481102178E+03  0.16481102178E+03  0.00000000000E+00 0. -1.
         23    2    1    2    0    0 -0.77015250706E+01 -0.29283282915E+02  0.33018857534E+02  0.10388710969E+03  0.93730797820E+02 0.  0.
         23    2    1    2    0    0  0.77015250706E+01  0.29283282915E+02 -0.10687498921E+03  0.15187880220E+03  0.10357646012E+03 0.  0.
          5    1    3    3  502    0  0.25335881756E+02 -0.41629337821E+02 -0.79762854680E+01  0.49604634880E+02  0.47000000000E+01 0. -1.
         -5    1    4    4    0  503 -0.16029327334E+02 -0.29022260451E+02 -0.72827288159E+02  0.80156938796E+02  0.47000000000E+01 0.  1.
          5    1    4    4  503    0  0.23730852405E+02  0.58305543366E+02 -0.34047701049E+02  0.71721863402E+02  0.47000000000E+01 0. -1.
         -5    1    3    3    0  502 -0.33037406827E+02  0.12346054906E+02  0.40995143002E+02  0.54282474808E+02  0.47000000000E+01 0.  1.
<mgrwt>
<rscale>  0 0.10547761E+03</rscale>
<asrwt>0</asrwt>
<pdfrwt beam="1">  1        3 0.25355542E-01 0.10791157E+03</pdfrwt>
<pdfrwt beam="2">  1       -3 0.13993060E-01 0.10791157E+03</pdfrwt>
<totfact> 0.13537010E+03</totfact>
</mgrwt>
</event>
<event>
 8    1  0.2964543E-004  0.9326037E+02  0.7546771E-02  0.1296240E+00
         -1   -1    0    0    0  501 -0.00000000000E+00  0.00000000000E+00  0.15158149397E+03  0.15158149397E+03  0.00000000000E+00 0.  1.
          1   -1    0    0  501    0  0.00000000000E+00 -0.00000000000E+00 -0.68038967067E+02  0.68038967067E+02  0.00000000000E+00 0. -1.
         23    2    1    2    0    0 -0.16816283728E+02 -0.80064943275E+01 -0.43314834630E+01  0.91482498465E+02  0.89461692509E+02 0.  0.
         23    2    1    2    0    0  0.16816283728E+02  0.80064943275E+01  0.87874010363E+02  0.12813796257E+03  0.91381641506E+02 0.  0.
          5    1    3    3  502    0 -0.16294258675E+01  0.30232752592E+02 -0.29901707776E+02  0.42812106767E+02  0.47000000000E+01 0. -1.
         -5    1    3    3    0  502 -0.15186857861E+02 -0.38239246920E+02  0.25570224313E+02  0.48670391698E+02  0.47000000000E+01 0.  1.
          5    1    4    4  503    0 -0.33813442269E+01  0.46326148287E+02  0.29239527085E+02  0.55087071515E+02  0.47000000000E+01 0. -1.
         -5    1    4    4    0  503  0.20197627955E+02 -0.38319653960E+02  0.58634483278E+02  0.73050891055E+02  0.47000000000E+01 0.  1.
<mgrwt>
<rscale>  0 0.92786651E+02</rscale>
<asrwt>0</asrwt>
<pdfrwt beam="1">  1        1 0.10467533E-01 0.93260365E+02</pdfrwt>
<pdfrwt beam="2">  1       -1 0.23320230E-01 0.93260365E+02</pdfrwt>
<totfact> 0.86055914E+03</totfact>
</mgrwt>
</event>
<event>
 8    1  0.2964543E-004  0.1159625E+03  0.7546771E-02  0.1251116E+00
          3   -1    0    0  501    0  0.00000000000E+00  0.00000000000E+00  0.26382969576E+03  0.26382969576E+03  0.00000000000E+00 0. -1.
         -3   -1    0    0    0  501 -0.00000000000E+00 -0.00000000000E+00 -0.56084760239E+02  0.56084760239E+02  0.00000000000E+00 0.  1.
         23    2    1    2    0    0 -0.58437212386E+02  0.38178594157E+02  0.15867150305E+03  0.19652976088E+03  0.92600152216E+02 0.  0.
         23    2    1    2    0    0  0.58437212386E+02 -0.38178594157E+02  0.49073432474E+02  0.12338469512E+03  0.89123893378E+02 0.  0.
          5    1    3    3  502    0 -0.44832763707E+02 -0.21203319800E+02  0.10048339395E+03  0.11215417929E+03  0.47000000000E+01 0. -1.
         -5    1    3    3    0  502 -0.13604448678E+02  0.59381913957E+02  0.58188109092E+02  0.84375581590E+02  0.47000000000E+01 0.  1.
          5    1    4    4  503    0 -0.19288171578E+02 -0.28416403458E+02  0.16968751959E+02  0.38594741758E+02  0.47000000000E+01 0. -1.
         -5    1    4    4    0  503  0.77725383963E+02 -0.97621906992E+01  0.32104680514E+02  0.84789953358E+02  0.47000000000E+01 0.  1.
<mgrwt>
<rscale>  0 0.11526712E+03</rscale>
<asrwt>0</asrwt>
<pdfrwt beam="1">  1        3 0.40589183E-01 0.11596250E+03</pdfrwt>
<pdfrwt beam="2">  1       -3 0.86284248E-02 0.11596250E+03</pdfrwt>
<totfact> 0.12745441E+03</totfact>
</mgrwt>
</event>
<event>
 8    1  0.2964543E-004  0.1112188E+03  0.7546771E-02  0.1258958E+00
          3   -1    0    0  501    0  0.00000000000E+00  0.00000000000E+00  0.51661438989E+02  0.51661438989E+02  0.00000000000E+00 0. -1.
         -3   -1    0    0    0  501 -0.00000000000E+00 -0.00000000000E+00 -0.41686404926E+03  0.41686404926E+03  0.00000000000E+00 0.  1.
         23    2    1    2    0    0 -0.58399076676E+02 -0.19439254542E+02 -0.33733256361E+03  0.35519415031E+03  0.92635247998E+02 0.  0.
         23    2    1    2    0    0  0.58399076676E+02  0.19439254542E+02 -0.27870046662E+02  0.11333133794E+03  0.90988548091E+02 0.  0.
          5    1    3    3  502    0 -0.47174372422E+01 -0.37513943300E+02 -0.53221378969E+02  0.65453459308E+02  0.47000000000E+01 0. -1.
         -5    1    4    4    0  503 -0.18802155432E+02  0.24050228451E+02 -0.16505635607E+02  0.35020858702E+02  0.47000000000E+01 0.  1.
          5    1    4    4  503    0  0.77201232108E+02 -0.46109739091E+01 -0.11364411054E+02  0.78310479234E+02  0.47000000000E+01 0. -1.
         -5    1    3    3    0  502 -0.53681639434E+02  0.18074688759E+02 -0.28411118464E+03  0.28974069101E+03  0.47000000000E+01 0.  1.
<mgrwt>
<rscale>  0 0.11087529E+03</rscale>
<asrwt>0</asrwt>
<pdfrwt beam="1">  1        3 0.79479137E-02 0.11121882E+03</pdfrwt>
<pdfrwt beam="2">  1       -3 0.64132930E-01 0.11121882E+03</pdfrwt>
<totfact> 0.58021945E+02</totfact>
</mgrwt>
</event>
<event>
 8    1  0.2964543E-004  0.9168500E+02  0.7546771E-02  0.1300544E+00
          3   -1    0    0  501    0  0.00000000000E+00  0.00000000000E+00  0.74895387227E+02  0.74895387227E+02  0.00000000000E+00 0. -1.
         -3   -1    0    0    0  501 -0.00000000000E+00 -0.00000000000E+00 -0.11994143736E+03  0.11994143736E+03  0.00000000000E+00 0.  1.
         23    2    1    2    0    0  0.57065520733E+01 -0.55400677824E+01  0.75461493593E+01  0.89138768367E+02  0.88461961138E+02 0.  0.
         23    2    1    2    0    0 -0.57065520733E+01  0.55400677824E+01 -0.52592199490E+02  0.10569805622E+03  0.91339381174E+02 0.  0.
          5    1    3    3  502    0  0.45990731734E+02 -0.10540604218E+02 -0.83307612136E+00  0.47423999816E+02  0.47000000000E+01 0. -1.
         -5    1    3    3    0  502 -0.40284179661E+02  0.50005364359E+01  0.83792254806E+01  0.41714768551E+02  0.47000000000E+01 0.  1.
          5    1    4    4  503    0 -0.13802238986E+01 -0.36593550794E+02  0.13608392756E+01  0.36945024852E+02  0.47000000000E+01 0. -1.
         -5    1    4    4    0  503 -0.43263281746E+01  0.42133618577E+02 -0.53953038765E+02  0.68753031365E+02  0.47000000000E+01 0.  1.
<mgrwt>
<rscale>  0 0.90959890E+02</rscale>
<asrwt>0</asrwt>
<pdfrwt beam="1">  1        3 0.11522367E-01 0.91685002E+02</pdfrwt>
<pdfrwt beam="2">  1       -3 0.18452529E-01 0.91685002E+02</pdfrwt>
<totfact> 0.31785140E+03</totfact>
</mgrwt>
</event>
<event>
 8    1  0.2964543E-004  0.9557655E+02  0.7546771E-02  0.1291217E+00
         -1   -1    0    0    0  501 -0.00000000000E+00  0.00000000000E+00  0.29786959887E+02  0.29786959887E+02  0.00000000000E+00 0.  1.
          1   -1    0    0  501    0  0.00000000000E+00 -0.00000000000E+00 -0.47089955103E+03  0.47089955103E+03  0.00000000000E+00 0. -1.
         23    2    1    2    0    0  0.44575721218E+01  0.18499907242E+02 -0.37348310219E+03  0.38551848848E+03  0.93663017327E+02 0.  0.
         23    2    1    2    0    0 -0.44575721218E+01 -0.18499907242E+02 -0.67629488954E+02  0.11516802245E+03  0.91256830433E+02 0.  0.
          5    1    3    3  502    0 -0.31788956432E+02  0.36503981760E+01 -0.30319982958E+03  0.30491980883E+03  0.47000000000E+01 0. -1.
         -5    1    4    4    0  503  0.20657471414E+02 -0.10110934054E+02  0.15277697661E+02  0.28008215910E+02  0.47000000000E+01 0.  1.
          5    1    4    4  503    0 -0.25115043535E+02 -0.83889731880E+01 -0.82907186615E+02  0.87159806535E+02  0.47000000000E+01 0. -1.
         -5    1    3    3    0  502  0.36246528553E+02  0.14849509066E+02 -0.70283272612E+02  0.80598679646E+02  0.47000000000E+01 0.  1.
<mgrwt>
<rscale>  0 0.94981829E+02</rscale>
<asrwt>0</asrwt>
<pdfrwt beam="1">  1        1 0.72446086E-01 0.95576552E+02</pdfrwt>
<pdfrwt beam="2">  1       -1 0.45826091E-02 0.95576552E+02</pdfrwt>
<totfact> 0.91112363E+03</totfact>
</mgrwt>
</event>
<event>
 8    1  0.2964543E-004  0.1087150E+03  0.7546771E-02  0.1264144E+00
          1   -1    0    0  501    0  0.00000000000E+00  0.00000000000E+00  0.56544471328E+03  0.56544471328E+03  0.00000000000E+00 0. -1.
         -1   -1    0    0    0  501 -0.00000000000E+00 -0.00000000000E+00 -0.30325413400E+02  0.30325413400E+02  0.00000000000E+00 0.  1.
         23    2    1    2    0    0  0.58902044127E+00 -0.54435872434E+02  0.99476120055E+02  0.14735823074E+03  0.94102808425E+02 0.  0.
         23    2    1    2    0    0 -0.58902044127E+00  0.54435872434E+02  0.43564317983E+03  0.44841189594E+03  0.91239449462E+02 0.  0.
          5    1    4    4  502    0 -0.45318972815E+02  0.21000232074E+02  0.21148856898E+03  0.21735759442E+03  0.47000000000E+01 0. -1.
         -5    1    4    4    0  502  0.44729952373E+02  0.33435640360E+02  0.22415461085E+03  0.23105430152E+03  0.47000000000E+01 0.  1.
          5    1    3    3  503    0 -0.35685968868E+02 -0.50176582769E+02  0.29837651840E+02  0.68582456209E+02  0.47000000000E+01 0.  1.
         -5    1    3    3    0  503  0.36274989310E+02 -0.42592896653E+01  0.69638468215E+02  0.78775774533E+02  0.47000000000E+01 0. -1.
<mgrwt>
<rscale>  0 0.10809246E+03</rscale>
<asrwt>0</asrwt>
<pdfrwt beam="1">  1        1 0.86991487E-01 0.10871499E+03</pdfrwt>
<pdfrwt beam="2">  1       -1 0.46654486E-02 0.10871499E+03</pdfrwt>
<totfact> 0.70624334E+03</totfact>
</mgrwt>
</event>
<event>
 7    1  0.2964543E-004  0.3461042E+03  0.7546771E-02  0.1070037E+00
          1   -1    0    0  501    0  0.00000000000E+00  0.00000000000E+00  0.11205664392E+03  0.11205664392E+03  0.00000000000E+00 0. -1.
         -1   -1    0    0    0  501 -0.00000000000E+00 -0.00000000000E+00 -0.10266758866E+04  0.10266758866E+04  0.00000000000E+00 0.  1.
         23    2    1    2    0    0  0.11046090972E+03 -0.25989137956E+03 -0.23858330394E+03  0.37925064745E+03  0.84639936943E+02 0.  0.
          5    1    3    3  502    0 -0.12983163630E+02 -0.34740577594E+02 -0.22569909341E+02  0.43668765463E+02  0.47000000000E+01 0. -1.
         -5    1    1    2    0  503 -0.33712898335E+02 -0.24498970774E+02 -0.37488931890E+02  0.56251836391E+02  0.47000000000E+01 0.  1.
          5    1    1    2  503    0 -0.76748011380E+02  0.28439035034E+03 -0.63854700688E+03  0.70323004672E+03  0.47000000000E+01 0. -1.
         -5    1    3    3    0  502  0.12344407335E+03 -0.22515080197E+03 -0.21601339460E+03  0.33558188199E+03  0.47000000000E+01 0.  1.
<mgrwt>
<rscale>  0 0.33249745E+03</rscale>
<asrwt>0</asrwt>
<pdfrwt beam="1">  1        1 0.17239483E-01 0.34610423E+03</pdfrwt>
<pdfrwt beam="2">  1       -1 0.15795014E+00 0.34610423E+03</pdfrwt>
<totfact> 0.10169189E+02</totfact>
</mgrwt>
</event>
<event>
 8    1  0.2964543E-004  0.1073881E+03  0.7546771E-02  0.1266626E+00
         -4   -1    0    0    0  501 -0.00000000000E+00  0.00000000000E+00  0.12070452822E+03  0.12070452822E+03  0.00000000000E+00 0.  1.
          4   -1    0    0  501    0  0.00000000000E+00 -0.00000000000E+00 -0.93513708833E+02  0.93513708833E+02  0.00000000000E+00 0. -1.
         23    2    1    2    0    0 -0.36334703202E+02 -0.38664634026E+02  0.16459275386E+02  0.10864212272E+03  0.93365081814E+02 0.  0.
         23    2    1    2    0    0  0.36334703202E+02  0.38664634026E+02  0.10731544003E+02  0.10557611433E+03  0.90642072460E+02 0.  0.
          5    1    4    4  502    0  0.20434054408E+02  0.67979859069E+02  0.10391672406E+02  0.71894983650E+02  0.47000000000E+01 0. -1.
         -5    1    3    3    0  503 -0.24492824134E+02  0.16226859843E+02  0.38045308606E+02  0.48298498128E+02  0.47000000000E+01 0.  1.
          5    1    3    3  503    0 -0.11841879068E+02 -0.54891493868E+02 -0.21586033221E+02  0.60343624594E+02  0.47000000000E+01 0. -1.
         -5    1    4    4    0  502  0.15900648793E+02 -0.29315225043E+02  0.33987159658E+00  0.33681130683E+02  0.47000000000E+01 0.  1.
<mgrwt>
<rscale>  0 0.10679347E+03</rscale>
<asrwt>0</asrwt>
<pdfrwt beam="1">  1        4 0.14386724E-01 0.10738810E+03</pdfrwt>
<pdfrwt beam="2">  1       -4 0.18569927E-01 0.10738810E+03</pdfrwt>
<totfact> 0.16299210E+03</totfact>
</mgrwt>
</event>
<event>
 8    1  0.2964543E-004  0.1072434E+03  0.7546771E-02  0.1267248E+00
         -2   -1    0    0    0  501 -0.00000000000E+00  0.00000000000E+00  0.18867910810E+03  0.18867910810E+03  0.00000000000E+00 0.  1.
          2   -1    0    0  501    0  0.00000000000E+00 -0.00000000000E+00 -0.24300675947E+03  0.24300675947E+03  0.00000000000E+00 0. -1.
         23    2    1    2    0    0  0.11316420278E+02 -0.50939167797E+02 -0.21495836511E+03  0.24022542386E+03  0.93692557630E+02 0.  0.
         23    2    1    2    0    0 -0.11316420278E+02  0.50939167797E+02  0.16063071374E+03  0.19146044371E+03  0.90177686404E+02 0.  0.
          5    1    4    4  502    0 -0.70336317354E+01  0.23394137436E+02  0.16127632132E+03  0.16318363723E+03  0.47000000000E+01 0.  1.
         -5    1    4    4    0  502 -0.42827885425E+01  0.27545030361E+02 -0.64560758304E+00  0.28276806475E+02  0.47000000000E+01 0. -1.
          5    1    3    3  503    0  0.43161335225E+02 -0.33001727152E+02 -0.18457994916E+03  0.19246782195E+03  0.47000000000E+01 0. -1.
         -5    1    3    3    0  503 -0.31844914947E+02 -0.17937440644E+02 -0.30378415945E+02  0.47757601910E+02  0.47000000000E+01 0.  1.
<mgrwt>
<rscale>  0 0.10647096E+03</rscale>
<asrwt>0</asrwt>
<pdfrwt beam="1">  1        2 0.37385655E-01 0.10724344E+03</pdfrwt>
<pdfrwt beam="2">  1       -2 0.29027555E-01 0.10724344E+03</pdfrwt>
<totfact> 0.14546128E+03</totfact>
</mgrwt>
</event>
<event>
 8    1  0.2964543E-004  0.1047457E+03  0.7546771E-02  0.1271078E+00
          1   -1    0    0  501    0  0.00000000000E+00  0.00000000000E+00  0.11221538484E+03  0.11221538484E+03  0.00000000000E+00 0. -1.
         -1   -1    0    0    0  501 -0.00000000000E+00 -0.00000000000E+00 -0.12678125050E+03  0.12678125050E+03  0.00000000000E+00 0.  1.
         23    2    1    2    0    0  0.32200546072E+02  0.37600935200E+02 -0.65304919537E+02  0.12343581095E+03  0.92309053801E+02 0.  0.
         23    2    1    2    0    0 -0.32200546072E+02 -0.37600935200E+02  0.50739053876E+02  0.11556082440E+03  0.91264160829E+02 0.  0.
          5    1    3    3  502    0  0.35067780899E+02  0.66071432056E+02 -0.40028642874E+02  0.84968027172E+02  0.47000000000E+01 0. -1.
         -5    1    3    3    0  502 -0.28672348275E+01 -0.28470496856E+02 -0.25276276663E+02  0.38467783777E+02  0.47000000000E+01 0.  1.
          5    1    4    4  503    0 -0.73927944171E+01  0.22382931903E+02  0.43992665231E+02  0.50130765444E+02  0.47000000000E+01 0. -1.
         -5    1    4    4    0  503 -0.24807751655E+02 -0.59983867103E+02  0.67463886456E+01  0.65430058953E+02  0.47000000000E+01 0.  1.
<mgrwt>
<rscale>  0 0.10451505E+03</rscale>
<asrwt>0</asrwt>
<pdfrwt beam="1">  1        1 0.17263905E-01 0.10474573E+03</pdfrwt>
<pdfrwt beam="2">  1       -1 0.19504808E-01 0.10474573E+03</pdfrwt>
<totfact> 0.60649121E+03</totfact>
</mgrwt>
</event>
<event>
 8    1  0.2964543E-004  0.1893264E+03  0.7546771E-02  0.1159822E+00
         -1   -1    0    0    0  501 -0.00000000000E+00  0.00000000000E+00  0.34339372947E+03  0.34339372947E+03  0.00000000000E+00 0.  1.
          1   -1    0    0  501    0  0.00000000000E+00 -0.00000000000E+00 -0.11870177041E+03  0.11870177041E+03  0.00000000000E+00 0. -1.
         23    2    1    2    0    0 -0.12863778989E+03 -0.99480411019E+02  0.26348538487E+02  0.18789739438E+03  0.90372297585E+02 0.  0.
         23    2    1    2    0    0  0.12863778989E+03  0.99480411019E+02  0.19834342057E+03  0.27419810549E+03  0.96955945713E+02 0.  0.
          5    1    4    4  502    0  0.97308640172E+02  0.28294503995E+02  0.67303446652E+02  0.12174314905E+03  0.47000000000E+01 0. -1.
         -5    1    4    4    0  502  0.31329149715E+02  0.71185907023E+02  0.13103997392E+03  0.15245495645E+03  0.47000000000E+01 0.  1.
          5    1    3    3  503    0 -0.34775878425E+02 -0.40131804673E+02 -0.32188993757E+02  0.62274752393E+02  0.47000000000E+01 0. -1.
         -5    1    3    3    0  503 -0.93861911463E+02 -0.59348606346E+02  0.58537532244E+02  0.12562264199E+03  0.47000000000E+01 0.  1.
<mgrwt>
<rscale>  0 0.18849961E+03</rscale>
<asrwt>0</asrwt>
<pdfrwt beam="1">  1        1 0.18261811E-01 0.18932641E+03</pdfrwt>
<pdfrwt beam="2">  1       -1 0.52829804E-01 0.18932641E+03</pdfrwt>
<totfact> 0.10593842E+03</totfact>
</mgrwt>
</event>
<event>
 8    1  0.2964543E-004  0.9898408E+02  0.7546771E-02  0.1284937E+00
         -1   -1    0    0    0  501 -0.00000000000E+00  0.00000000000E+00  0.63722033607E+02  0.63722033607E+02  0.00000000000E+00 0.  1.
          1   -1    0    0  501    0  0.00000000000E+00 -0.00000000000E+00 -0.15715224117E+03  0.15715224117E+03  0.00000000000E+00 0. -1.
         23    2    1    2    0    0  0.29249954520E+02 -0.59127997943E+01 -0.74074041652E+02  0.12001541187E+03  0.89589142193E+02 0.  0.
         23    2    1    2    0    0 -0.29249954520E+02  0.59127997943E+01 -0.19356165909E+02  0.10085886291E+03  0.94378641795E+02 0.  0.
          5    1    4    4  502    0 -0.13394652461E+02 -0.41528384650E+02 -0.24656079883E+02  0.50339206602E+02  0.47000000000E+01 0. -1.
         -5    1    4    4    0  502 -0.15855302059E+02  0.47441184444E+02  0.52999139743E+01  0.50519656303E+02  0.47000000000E+01 0.  1.
          5    1    3    3  503    0 -0.82685998333E+01 -0.28985549218E+02 -0.68984375945E+02  0.75428548516E+02  0.47000000000E+01 0. -1.
         -5    1    3    3    0  503  0.37518554353E+02  0.23072749424E+02 -0.50896657070E+01  0.44586863354E+02  0.47000000000E+01 0.  1.
<mgrwt>
<rscale>  0 0.97824979E+02</rscale>
<asrwt>0</asrwt>
<pdfrwt beam="1">  1        1 0.24177268E-01 0.98984085E+02</pdfrwt>
<pdfrwt beam="2">  1       -1 0.98033898E-02 0.98984085E+02</pdfrwt>
<totfact> 0.11456276E+04</totfact>
</mgrwt>
</event>
<event>
 8    1  0.2964543E-004  0.1094619E+03  0.7546771E-02  0.1262336E+00
         -1   -1    0    0    0  501 -0.00000000000E+00  0.00000000000E+00  0.32604468806E+03  0.32604468806E+03  0.00000000000E+00 0.  1.
          1   -1    0    0  501    0  0.00000000000E+00 -0.00000000000E+00 -0.98371673117E+02  0.98371673117E+02  0.00000000000E+00 0. -1.
         23    2    1    2    0    0  0.44710739086E+01  0.54178756630E+02  0.28284727492E+03  0.30328945540E+03  0.95008339935E+02 0.  0.
         23    2    1    2    0    0 -0.44710739086E+01 -0.54178756630E+02 -0.55174259983E+02  0.12112690577E+03  0.93124648532E+02 0.  0.
          5    1    3    3  502    0  0.39794864005E+01 -0.26488784356E+02  0.94611541557E+02  0.98442499991E+02  0.47000000000E+01 0. -1.
         -5    1    3    3    0  502  0.49158750816E+00  0.80667540986E+02  0.18823573336E+03  0.20484695541E+03  0.47000000000E+01 0.  1.
          5    1    4    4  503    0  0.38294935817E+02 -0.38830192109E+02 -0.51734564730E+02  0.75318265489E+02  0.47000000000E+01 0. -1.
         -5    1    4    4    0  503 -0.42766009726E+02 -0.15348564521E+02 -0.34396952529E+01  0.45808640278E+02  0.47000000000E+01 0.  1.
<mgrwt>
<rscale>  0 0.10905190E+03</rscale>
<asrwt>0</asrwt>
<pdfrwt beam="1">  1        1 0.15134104E-01 0.10946192E+03</pdfrwt>
<pdfrwt beam="2">  1       -1 0.50160721E-01 0.10946192E+03</pdfrwt>
<totfact> 0.14624001E+03</totfact>
</mgrwt>
</event>
<event>
 7    1  0.2964543E-004  0.3194346E+03  0.7546771E-02  0.1096473E+00
         -3   -1    0    0    0  501 -0.00000000000E+00  0.00000000000E+00  0.38449970987E+03  0.38449970987E+03  0.00000000000E+00 0.  1.
          3   -1    0    0  501    0  0.00000000000E+00 -0.00000000000E+00 -0.17985928376E+03  0.17985928376E+03  0.00000000000E+00 0. -1.
         23    2    1    2    0    0 -0.15340597194E+03  0.46135967192E+02 -0.45681967417E+00  0.18474954194E+03  0.92034041893E+02 0.  0.
          5    1    3    3  502    0 -0.40595775597E+02 -0.20590036385E+02  0.23478254969E+02  0.51432334684E+02  0.47000000000E+01 0. -1.
         -5    1    3    3    0  502 -0.11281019635E+03  0.66726003577E+02 -0.23935074643E+02  0.13331720726E+03  0.47000000000E+01 0.  1.
          5    1    1    2  503    0  0.18634518347E+03  0.32700632831E+01  0.22793537785E+02  0.18782134086E+03  0.47000000000E+01 0. -1.
         -5    1    1    2    0  503 -0.32939211532E+02 -0.49406030475E+02  0.18230370800E+03  0.19178811082E+03  0.47000000000E+01 0.  1.
<mgrwt>
<rscale>  0 0.27856847E+03</rscale>
<asrwt>0</asrwt>
<pdfrwt beam="1">  1        3 0.27670659E-01 0.31943459E+03</pdfrwt>
<pdfrwt beam="2">  1       -3 0.59153801E-01 0.31943459E+03</pdfrwt>
<totfact> 0.89537502E+01</totfact>
</mgrwt>
</event>
<event>
 8    1  0.2964543E-004  0.1413970E+03  0.7546771E-02  0.1211836E+00
          2   -1    0    0  501    0  0.00000000000E+00  0.00000000000E+00  0.24590218150E+03  0.24590218150E+03  0.00000000000E+00 0. -1.
         -2   -1    0    0    0  501 -0.00000000000E+00 -0.00000000000E+00 -0.82861810599E+02  0.82861810599E+02  0.00000000000E+00 0.  1.
         23    2    1    2    0    0 -0.10315412501E+03 -0.25472577665E+02  0.55044272014E+02  0.15173327941E+03  0.93292499587E+02 0.  0.
         23    2    1    2    0    0  0.10315412501E+03  0.25472577665E+02  0.10799609889E+03  0.17703071269E+03  0.91581057769E+02 0.  0.
          5    1    3    3  502    0 -0.63851811383E+02  0.28712105729E+02  0.46292195112E+02  0.84062453929E+02  0.47000000000E+01 0. -1.
         -5    1    3    3    0  502 -0.39302313626E+02 -0.54184683395E+02  0.87520769020E+01  0.67670825479E+02  0.47000000000E+01 0.  1.
          5    1    4    4  503    0  0.63229728509E+02  0.58738988216E+02  0.53848885113E+02  0.10183349023E+03  0.47000000000E+01 0. -1.
         -5    1    4    4    0  503  0.39924396500E+02 -0.33266410551E+02  0.54147213778E+02  0.75197222467E+02  0.47000000000E+01 0.  1.
<mgrwt>
<rscale>  0 0.14111535E+03</rscale>
<asrwt>0</asrwt>
<pdfrwt beam="1">  1        2 0.37831105E-01 0.14139702E+03</pdfrwt>
<pdfrwt beam="2">  1       -2 0.12747971E-01 0.14139702E+03</pdfrwt>
<totfact> 0.58211288E+03</totfact>
</mgrwt>
</event>
<event>
 8    1  0.2964543E-004  0.9203276E+02  0.7546771E-02  0.1300051E+00
          2   -1    0    0  501    0  0.00000000000E+00  0.00000000000E+00  0.19068660292E+03  0.19068660292E+03  0.00000000000E+00 0. -1.
         -2   -1    0    0    0  501 -0.00000000000E+00 -0.00000000000E+00 -0.43501814827E+02  0.43501814827E+02  0.00000000000E+00 0.  1.
         23    2    1    2    0    0 -0.15538838071E+01 -0.12290161763E+02  0.59930982450E+02  0.10982600924E+03  0.91195213782E+02 0.  0.
         23    2    1    2    0    0  0.15538838071E+01  0.12290161763E+02  0.87253805638E+02  0.12436240850E+03  0.87745765822E+02 0.  0.
          5    1    4    4  502    0  0.19865965399E+02 -0.18090306374E+02  0.84132787042E+02  0.88443946211E+02  0.47000000000E+01 0. -1.
         -5    1    4    4    0  502 -0.18312081592E+02  0.30380468137E+02  0.31210185954E+01  0.35918462293E+02  0.47000000000E+01 0.  1.
          5    1    3    3  503    0  0.46501023986E+01 -0.49987821587E+02  0.47768774799E+02  0.69457552542E+02  0.47000000000E+01 0. -1.
         -5    1    3    3    0  503 -0.62039862057E+01  0.37697659824E+02  0.12162207652E+02  0.40368456696E+02  0.47000000000E+01 0.  1.
<mgrwt>
<rscale>  0 0.91166397E+02</rscale>
<asrwt>0</asrwt>
<pdfrwt beam="1">  1        2 0.29336400E-01 0.92032764E+02</pdfrwt>
<pdfrwt beam="2">  1       -2 0.66925870E-02 0.92032764E+02</pdfrwt>
<totfact> 0.20079385E+04</totfact>
</mgrwt>
</event>
<event>
 8    1  0.2964543E-004  0.9920172E+02  0.7546771E-02  0.1285225E+00
          1   -1    0    0  501    0  0.00000000000E+00  0.00000000000E+00  0.11969883720E+03  0.11969883720E+03  0.00000000000E+00 0. -1.
         -1   -1    0    0    0  501 -0.00000000000E+00 -0.00000000000E+00 -0.77479074321E+02  0.77479074321E+02  0.00000000000E+00 0.  1.
         23    2    1    2    0    0  0.35980335244E+02  0.19466922667E+02  0.17234493850E+02  0.94878130668E+02  0.83852765598E+02 0.  0.
         23    2    1    2    0    0 -0.35980335244E+02 -0.19466922667E+02  0.24985269026E+02  0.10229978085E+03  0.90373867303E+02 0.  0.
          5    1    4    4  502    0  0.77437249713E+01 -0.26025171330E+02  0.45608858762E+02  0.53287266929E+02  0.47000000000E+01 0. -1.
         -5    1    4    4    0  502 -0.43724060215E+02  0.65582486625E+01 -0.20623589737E+02  0.49012513921E+02  0.47000000000E+01 0.  1.
          5    1    3    3  503    0  0.48913831207E+02 -0.54824101436E+01 -0.15179301442E+02  0.51721570903E+02  0.47000000000E+01 0. -1.
         -5    1    3    3    0  503 -0.12933495964E+02  0.24949332811E+02  0.32413795292E+02  0.43156559766E+02  0.47000000000E+01 0.  1.
<mgrwt>
<rscale>  0 0.97692102E+02</rscale>
<asrwt>0</asrwt>
<pdfrwt beam="1">  1        1 0.18415206E-01 0.99201721E+02</pdfrwt>
<pdfrwt beam="2">  1       -1 0.11919858E-01 0.99201721E+02</pdfrwt>
<totfact> 0.11979585E+04</totfact>
</mgrwt>
</event>
<event>
 8    1  0.3687401E-004  0.1423070E+03  0.7546771E-02  0.1211093E+00
         -3   -1    0    0    0  501 -0.00000000000E+00  0.00000000000E+00  0.15741444457E+03  0.15741444457E+03  0.00000000000E+00 0.  1.
          3   -1    0    0  501    0  0.00000000000E+00 -0.00000000000E+00 -0.22620128961E+03  0.22620128961E+03  0.00000000000E+00 0. -1.
         23    2    1    2    0    0 -0.94923707600E+02  0.14650764312E+02 -0.16197346663E+03  0.21560772140E+03  0.10500538309E+03 0.  0.
         23    2    1    2    0    0  0.94923707600E+02 -0.14650764312E+02  0.93186621584E+02  0.16800801278E+03  0.10157652660E+03 0.  0.
          5    1    4    4  502    0 -0.44068993584E+01 -0.36627486372E+02  0.17381884871E+02  0.41051351276E+02  0.47000000000E+01 0. -1.
         -5    1    4    4    0  502  0.99330606959E+02  0.21976722060E+02  0.75804736713E+02  0.12695666150E+03  0.47000000000E+01 0.  1.
          5    1    3    3  503    0 -0.95024144393E+02 -0.86351694795E+01 -0.64465685518E+02  0.11524785802E+03  0.47000000000E+01 0. -1.
         -5    1    3    3    0  503  0.10043679315E+00  0.23285933792E+02 -0.97507781114E+02  0.10035986338E+03  0.47000000000E+01 0.  1.
<mgrwt>
<rscale>  0 0.14167508E+03</rscale>
<asrwt>0</asrwt>
<pdfrwt beam="1">  1        3 0.34800198E-01 0.14230701E+03</pdfrwt>
<pdfrwt beam="2">  1       -3 0.24217607E-01 0.14230701E+03</pdfrwt>
<totfact> 0.30287025E+02</totfact>
</mgrwt>
</event>
<event>
 8    1  0.2964543E-004  0.9140914E+02  0.7546771E-02  0.1300325E+00
         -1   -1    0    0    0  501 -0.00000000000E+00  0.00000000000E+00  0.91820320801E+02  0.91820320801E+02  0.00000000000E+00 0.  1.
          1   -1    0    0  501    0  0.00000000000E+00 -0.00000000000E+00 -0.17262631706E+03  0.17262631706E+03  0.00000000000E+00 0. -1.
         23    2    1    2    0    0  0.56257834681E+01  0.28948159481E+00  0.51135158913E+02  0.10473984972E+03  0.91235401040E+02 0.  0.
         23    2    1    2    0    0 -0.56257834681E+01 -0.28948159481E+00 -0.13194115517E+03  0.15970678814E+03  0.89811227092E+02 0.  0.
          5    1    3    3  502    0  0.35175439624E+02 -0.31703738499E+02  0.25600532094E+02  0.54036245530E+02  0.47000000000E+01 0. -1.
         -5    1    4    4    0  503 -0.42342298065E+02 -0.69204440747E+01 -0.34480484054E+02  0.55242705692E+02  0.47000000000E+01 0.  1.
          5    1    4    4  503    0  0.36716514597E+02  0.66309624799E+01 -0.97460671119E+02  0.10446408245E+03  0.47000000000E+01 0. -1.
         -5    1    3    3    0  502 -0.29549656156E+02  0.31993220094E+02  0.25534626819E+02  0.50703604188E+02  0.47000000000E+01 0.  1.
<mgrwt>
<rscale>  0 0.91051697E+02</rscale>
<asrwt>0</asrwt>
<pdfrwt beam="1">  1        1 0.26557894E-01 0.91409144E+02</pdfrwt>
<pdfrwt beam="2">  1       -1 0.14126203E-01 0.91409144E+02</pdfrwt>
<totfact> 0.57989193E+03</totfact>
</mgrwt>
</event>
<event>
 8    1  0.2964543E-004  0.1328380E+03  0.7546771E-02  0.1230752E+00
         -1   -1    0    0    0  501 -0.00000000000E+00  0.00000000000E+00  0.72132661516E+03  0.72132661516E+03  0.00000000000E+00 0.  1.
          1   -1    0    0  501    0  0.00000000000E+00 -0.00000000000E+00 -0.21494694220E+02  0.21494694220E+02  0.00000000000E+00 0. -1.
         23    2    1    2    0    0  0.34015741238E+02  0.60358806817E+02  0.42748111960E+03  0.44764500765E+03  0.11333882410E+03 0.  0.
         23    2    1    2    0    0 -0.34015741238E+02 -0.60358806817E+02  0.27235080134E+03  0.29517630173E+03  0.90298581934E+02 0.  0.
          5    1    3    3  502    0 -0.37411707363E+02  0.91765992359E+01  0.20013592379E+03  0.20386349309E+03  0.47000000000E+01 0. -1.
         -5    1    3    3    0  502  0.71427448601E+02  0.51182207581E+02  0.22734519580E+03  0.24378151456E+03  0.47000000000E+01 0.  1.
          5    1    4    4  503    0 -0.28410152069E+02 -0.83909445642E+02  0.20176856175E+03  0.22041001410E+03  0.47000000000E+01 0. -1.
         -5    1    4    4    0  503 -0.56055891692E+01  0.23550638825E+02  0.70582239597E+02  0.74766287627E+02  0.47000000000E+01 0.  1.
<mgrwt>
<rscale>  0 0.12780349E+03</rscale>
<asrwt>0</asrwt>
<pdfrwt beam="1">  1        1 0.33068766E-02 0.13283804E+03</pdfrwt>
<pdfrwt beam="2">  1       -1 0.11097331E+00 0.13283804E+03</pdfrwt>
<totfact> 0.22839249E+03</totfact>
</mgrwt>
</event>
<event>
 8    1  0.2964543E-004  0.1188112E+03  0.7546771E-02  0.1246135E+00
          1   -1    0    0  501    0  0.00000000000E+00  0.00000000000E+00  0.14985070252E+03  0.14985070252E+03  0.00000000000E+00 0. -1.
         -1   -1    0    0    0  501 -0.00000000000E+00 -0.00000000000E+00 -0.97914021833E+02  0.97914021833E+02  0.00000000000E+00 0.  1.
         23    2    1    2    0    0  0.67639576824E+02 -0.26304583008E+02  0.55586340421E+02  0.12889745272E+03  0.90871715270E+02 0.  0.
         23    2    1    2    0    0 -0.67639576824E+02  0.26304583008E+02 -0.36496597331E+01  0.11886727163E+03  0.94069467997E+02 0.  0.
          5    1    3    3  502    0  0.23127223425E+02  0.33784620623E+02  0.22950181401E+02  0.47170646385E+02  0.47000000000E+01 0. -1.
         -5    1    3    3    0  502  0.44512353398E+02 -0.60089203632E+02  0.32636159020E+02  0.81726806335E+02  0.47000000000E+01 0.  1.
          5    1    4    4  503    0 -0.50958449905E+02  0.56447708868E+02  0.17492298644E+02  0.78174023595E+02  0.47000000000E+01 0. -1.
         -5    1    4    4    0  503 -0.16681126919E+02 -0.30143125860E+02 -0.21141958377E+02  0.40693248038E+02  0.47000000000E+01 0.  1.
<mgrwt>
<rscale>  0 0.11817732E+03</rscale>
<asrwt>0</asrwt>
<pdfrwt beam="1">  1        1 0.23053954E-01 0.11881123E+03</pdfrwt>
<pdfrwt beam="2">  1       -1 0.15063696E-01 0.11881123E+03</pdfrwt>
<totfact> 0.63810053E+03</totfact>
</mgrwt>
</event>
<event>
 8    1  0.2964543E-004  0.9510539E+02  0.7546771E-02  0.1292324E+00
         -3   -1    0    0    0  501 -0.00000000000E+00  0.00000000000E+00  0.11307486315E+03  0.11307486315E+03  0.00000000000E+00 0.  1.
          3   -1    0    0  501    0  0.00000000000E+00 -0.00000000000E+00 -0.79163053055E+02  0.79163053055E+02  0.00000000000E+00 0. -1.
         23    2    1    2    0    0 -0.26983465929E+02  0.18964187779E+02  0.29014350073E+02  0.99432727586E+02  0.89203626347E+02 0.  0.
         23    2    1    2    0    0  0.26983465929E+02 -0.18964187779E+02  0.48974600209E+01  0.92805188618E+02  0.86608718199E+02 0.  0.
          5    1    4    4  502    0  0.29201623512E+02 -0.51558155672E+02  0.62805775287E+01  0.59770510171E+02  0.47000000000E+01 0. -1.
         -5    1    4    4    0  502 -0.22181575830E+01  0.32593967893E+02 -0.13831175079E+01  0.33034678447E+02  0.47000000000E+01 0.  1.
          5    1    3    3  503    0 -0.57528485782E+02  0.48268920707E+01  0.56608935783E+01  0.58197605445E+02  0.47000000000E+01 0. -1.
         -5    1    3    3    0  503  0.30545019853E+02  0.14137295709E+02  0.23353456495E+02  0.41235122141E+02  0.47000000000E+01 0.  1.
<mgrwt>
<rscale>  0 0.94492103E+02</rscale>
<asrwt>0</asrwt>
<pdfrwt beam="1">  1        3 0.12178931E-01 0.95105388E+02</pdfrwt>
<pdfrwt beam="2">  1       -3 0.17396133E-01 0.95105388E+02</pdfrwt>
<totfact> 0.32339909E+03</totfact>
</mgrwt>
</event>
<event>
 8    1  0.2964543E-004  0.9093846E+02  0.7546771E-02  0.1300913E+00
         -2   -1    0    0    0  501 -0.00000000000E+00  0.00000000000E+00  0.19800318208E+02  0.19800318208E+02  0.00000000000E+00 0.  1.
          2   -1    0    0  501    0  0.00000000000E+00 -0.00000000000E+00 -0.43571419982E+03  0.43571419982E+03  0.00000000000E+00 0. -1.
         23    2    1    2    0    0 -0.85686451116E+01  0.20552447372E+01 -0.25676353259E+03  0.27221520935E+03  0.89977568438E+02 0.  0.
         23    2    1    2    0    0  0.85686451116E+01 -0.20552447372E+01 -0.15915034902E+03  0.18329930868E+03  0.90510536727E+02 0.  0.
          5    1    3    3  502    0 -0.14115667180E+02  0.42959743496E+02 -0.96797829032E+02  0.10694251412E+03  0.47000000000E+01 0. -1.
         -5    1    4    4    0  503  0.46812127858E+02 -0.72888876742E+00 -0.55792380800E+02  0.72984836430E+02  0.47000000000E+01 0.  1.
          5    1    4    4  503    0 -0.38243482746E+02 -0.13263559698E+01 -0.10335796822E+03  0.11031447225E+03  0.47000000000E+01 0. -1.
         -5    1    3    3    0  502  0.55470220687E+01 -0.40904498759E+02 -0.15996570356E+03  0.16527269523E+03  0.47000000000E+01 0.  1.
<mgrwt>
<rscale>  0 0.90805555E+02</rscale>
<asrwt>0</asrwt>
<pdfrwt beam="1">  1        2 0.67032952E-01 0.90938457E+02</pdfrwt>
<pdfrwt beam="2">  1       -2 0.30462029E-02 0.90938457E+02</pdfrwt>
<totfact> 0.26932784E+04</totfact>
</mgrwt>
</event>
<event>
 8    1  0.2964543E-004  0.9423927E+02  0.7546771E-02  0.1293359E+00
          4   -1    0    0  501    0  0.00000000000E+00  0.00000000000E+00  0.55090402840E+02  0.55090402840E+02  0.00000000000E+00 0. -1.
         -4   -1    0    0    0  501 -0.00000000000E+00 -0.00000000000E+00 -0.65176175317E+03  0.65176175317E+03  0.00000000000E+00 0.  1.
         23    2    1    2    0    0 -0.94156588738E+01  0.14152639192E+02 -0.60506804418E+03  0.61223955543E+03  0.91874824186E+02 0.  0.
         23    2    1    2    0    0  0.94156588738E+01 -0.14152639192E+02  0.83966938503E+01  0.94612600578E+02  0.92693515914E+02 0.  0.
          5    1    3    3  502    0 -0.95720944737E+01 -0.35751782449E+02 -0.15678472309E+03  0.16116250909E+03  0.47000000000E+01 0. -1.
         -5    1    3    3    0  502  0.15643559981E+00  0.49904421641E+02 -0.44828332109E+03  0.45107704635E+03  0.47000000000E+01 0.  1.
          5    1    4    4  503    0  0.31949193855E+02  0.28906397508E+02  0.13810359001E+02  0.45487875534E+02  0.47000000000E+01 0. -1.
         -5    1    4    4    0  503 -0.22533534981E+02 -0.43059036700E+02 -0.54136651502E+01  0.49124725044E+02  0.47000000000E+01 0.  1.
<mgrwt>
<rscale>  0 0.94037334E+02</rscale>
<asrwt>0</asrwt>
<pdfrwt beam="1">  1        4 0.84754472E-02 0.94239268E+02</pdfrwt>
<pdfrwt beam="2">  1       -4 0.10027103E+00 0.94239268E+02</pdfrwt>
<totfact> 0.13368513E+02</totfact>
</mgrwt>
</event>
<event>
 8    1  0.2964543E-004  0.1261728E+03  0.7546771E-02  0.1233291E+00
          1   -1    0    0  501    0  0.00000000000E+00  0.00000000000E+00  0.38512609990E+03  0.38512609990E+03  0.00000000000E+00 0. -1.
         -1   -1    0    0    0  501 -0.00000000000E+00 -0.00000000000E+00 -0.60251531749E+02  0.60251531749E+02  0.00000000000E+00 0.  1.
         23    2    1    2    0    0 -0.69199588681E+02  0.52769973485E+02  0.28738058798E+03  0.31385853384E+03  0.91358216598E+02 0.  0.
         23    2    1    2    0    0  0.69199588681E+02 -0.52769973485E+02  0.37493980163E+02  0.13151909780E+03  0.91204283691E+02 0.  0.
          5    1    4    4  502    0  0.37767722866E+02  0.17710773320E+02 -0.66313797957E+01  0.42498677392E+02  0.47000000000E+01 0. -1.
         -5    1    4    4    0  502  0.31431865815E+02 -0.70480746805E+02  0.44125359958E+02  0.89020420412E+02  0.47000000000E+01 0.  1.
          5    1    3    3  503    0 -0.89585556266E+02  0.40173796082E+02  0.19592781191E+03  0.21920151291E+03  0.47000000000E+01 0. -1.
         -5    1    3    3    0  503  0.20385967585E+02  0.12596177403E+02  0.91452776078E+02  0.94657020933E+02  0.47000000000E+01 0.  1.
<mgrwt>
<rscale>  0 0.12614494E+03</rscale>
<asrwt>0</asrwt>
<pdfrwt beam="1">  1        1 0.59250168E-01 0.12617281E+03</pdfrwt>
<pdfrwt beam="2">  1       -1 0.92694667E-02 0.12617281E+03</pdfrwt>
<totfact> 0.41936134E+03</totfact>
</mgrwt>
</event>
<event>
 8    1  0.2964543E-004  0.1476961E+03  0.7546771E-02  0.1203546E+00
         -1   -1    0    0    0  501 -0.00000000000E+00  0.00000000000E+00  0.31908878098E+02  0.31908878098E+02  0.00000000000E+00 0.  1.
          1   -1    0    0  501    0  0.00000000000E+00 -0.00000000000E+00 -0.91216530528E+03  0.91216530528E+03  0.00000000000E+00 0. -1.
         23    2    1    2    0    0  0.11550088873E+03 -0.49843425773E+01 -0.20148424442E+03  0.24941900165E+03  0.90822016418E+02 0.  0.
         23    2    1    2    0    0 -0.11550088873E+03  0.49843425773E+01 -0.67877218276E+03  0.69465518173E+03  0.91917606828E+02 0.  0.
          5    1    4    4  502    0 -0.50439815600E+02  0.29283862484E+02 -0.48956674174E+03  0.49305111724E+03  0.47000000000E+01 0. -1.
         -5    1    3    3    0  503  0.95537434676E+02 -0.29698513006E+02 -0.19094384570E+03  0.21561782234E+03  0.47000000000E+01 0.  1.
          5    1    3    3  503    0  0.19963454049E+02  0.24714170428E+02 -0.10540398720E+02  0.33801179309E+02  0.47000000000E+01 0. -1.
         -5    1    4    4    0  502 -0.65061073125E+02 -0.24299519907E+02 -0.18920544102E+03  0.20160406448E+03  0.47000000000E+01 0.  1.
<mgrwt>
<rscale>  0 0.14752600E+03</rscale>
<asrwt>0</asrwt>
<pdfrwt beam="1">  1        1 0.14033312E+00 0.14769613E+03</pdfrwt>
<pdfrwt beam="2">  1       -1 0.49090585E-02 0.14769613E+03</pdfrwt>
<totfact> 0.33248891E+03</totfact>
</mgrwt>
</event>
<event>
 8    1  0.2964543E-004  0.1664061E+03  0.7546771E-02  0.1181681E+00
         -1   -1    0    0    0  501 -0.00000000000E+00  0.00000000000E+00  0.33213550509E+02  0.33213550509E+02  0.00000000000E+00 0.  1.
          1   -1    0    0  501    0  0.00000000000E+00 -0.00000000000E+00 -0.85105058413E+03  0.85105058413E+03  0.00000000000E+00 0. -1.
         23    2    1    2    0    0  0.79407693811E+02  0.11263505031E+03 -0.34458247110E+03  0.38260600184E+03  0.93048572566E+02 0.  0.
         23    2    1    2    0    0 -0.79407693811E+02 -0.11263505031E+03 -0.47325456252E+03  0.50165813280E+03  0.93267169281E+02 0.  0.
          5    1    4    4  502    0 -0.51208623403E+02 -0.60195493864E+02 -0.39689944504E+03  0.40471851955E+03  0.47000000000E+01 0. -1.
         -5    1    3    3    0  503 -0.19749316844E+02  0.33901612760E+02 -0.86634462369E+02  0.95220664425E+02  0.47000000000E+01 0.  1.
          5    1    3    3  503    0  0.99157010655E+02  0.78733437551E+02 -0.25794800873E+03  0.28738533741E+03  0.47000000000E+01 0. -1.
         -5    1    4    4    0  502 -0.28199070408E+02 -0.52439556447E+02 -0.76355117475E+02  0.96939613249E+02  0.47000000000E+01 0.  1.
<mgrwt>
<rscale>  0 0.16637552E+03</rscale>
<asrwt>0</asrwt>
<pdfrwt beam="1">  1        1 0.13093086E+00 0.16640613E+03</pdfrwt>
<pdfrwt beam="2">  1       -1 0.51097770E-02 0.16640613E+03</pdfrwt>
<totfact> 0.35091907E+03</totfact>
</mgrwt>
</event>
<event>
 8    1  0.2964543E-004  0.9520413E+02  0.7546771E-02  0.1291876E+00
          2   -1    0    0  501    0  0.00000000000E+00  0.00000000000E+00  0.81465509449E+02  0.81465509449E+02  0.00000000000E+00 0. -1.
         -2   -1    0    0    0  501 -0.00000000000E+00 -0.00000000000E+00 -0.17449956028E+03  0.17449956028E+03  0.00000000000E+00 0.  1.
         23    2    1    2    0    0  0.99894739216E+01  0.14681618016E+02 -0.12467662477E+03  0.15564020047E+03  0.91456392573E+02 0.  0.
         23    2    1    2    0    0 -0.99894739216E+01 -0.14681618016E+02  0.31642573938E+02  0.10032486926E+03  0.93533349182E+02 0.  0.
          5    1    3    3  502    0  0.49723571697E+02  0.50520903190E+01 -0.53077565295E+02  0.73056657031E+02  0.47000000000E+01 0. -1.
         -5    1    3    3    0  502 -0.39734097776E+02  0.96295276973E+01 -0.71599059472E+02  0.82583543439E+02  0.47000000000E+01 0.  1.
          5    1    4    4  503    0  0.19831208312E+01 -0.34379409758E+02  0.56351638701E+02  0.66207807454E+02  0.47000000000E+01 0. -1.
         -5    1    4    4    0  503 -0.11972594753E+02  0.19697791742E+02 -0.24709064763E+02  0.34117061803E+02  0.47000000000E+01 0.  1.
<mgrwt>
<rscale>  0 0.94690059E+02</rscale>
<asrwt>0</asrwt>
<pdfrwt beam="1">  1        2 0.12533155E-01 0.95204133E+02</pdfrwt>
<pdfrwt beam="2">  1       -2 0.26846086E-01 0.95204133E+02</pdfrwt>
<totfact> 0.56014816E+03</totfact>
</mgrwt>
</event>
<event>
 8    1  0.2964543E-004  0.1385083E+03  0.7546771E-02  0.1215547E+00
          3   -1    0    0  501    0  0.00000000000E+00  0.00000000000E+00  0.32338439927E+02  0.32338439927E+02  0.00000000000E+00 0. -1.
         -3   -1    0    0    0  501 -0.00000000000E+00 -0.00000000000E+00 -0.61814675108E+03  0.61814675108E+03  0.00000000000E+00 0.  1.
         23    2    1    2    0    0  0.91602415320E+02  0.49151708956E+02 -0.22506123442E+03  0.26426710733E+03  0.91529513244E+02 0.  0.
         23    2    1    2    0    0 -0.91602415320E+02 -0.49151708956E+02 -0.36074707674E+03  0.38621808368E+03  0.90659041455E+02 0.  0.
          5    1    4    4  502    0 -0.28266553617E+02 -0.19055486352E+02 -0.23367518829E+02  0.41596160276E+02  0.47000000000E+01 0. -1.
         -5    1    4    4    0  502 -0.63335861703E+02 -0.30096222604E+02 -0.33737955791E+03  0.34462192340E+03  0.47000000000E+01 0.  1.
          5    1    3    3  503    0  0.89935555220E+02  0.74027088714E+01 -0.18640254747E+03  0.20715019647E+03  0.47000000000E+01 0. -1.
         -5    1    3    3    0  503  0.16668601002E+01  0.41749000085E+02 -0.38658686942E+02  0.57116910865E+02  0.47000000000E+01 0.  1.
<mgrwt>
<rscale>  0 0.13836464E+03</rscale>
<asrwt>0</asrwt>
<pdfrwt beam="1">  1        3 0.49751448E-02 0.13850828E+03</pdfrwt>
<pdfrwt beam="2">  1       -3 0.95099496E-01 0.13850828E+03</pdfrwt>
<totfact> 0.54227941E+02</totfact>
</mgrwt>
</event>
<event>
 8    1  0.2964543E-004  0.1120771E+03  0.7546771E-02  0.1257941E+00
          2   -1    0    0  501    0  0.00000000000E+00  0.00000000000E+00  0.26787022742E+03  0.26787022742E+03  0.00000000000E+00 0. -1.
         -2   -1    0    0    0  501 -0.00000000000E+00 -0.00000000000E+00 -0.45940255386E+02  0.45940255386E+02  0.00000000000E+00 0.  1.
         23    2    1    2    0    0 -0.68370657740E+01 -0.63361271265E+02  0.11740915211E+03  0.16055946127E+03  0.89067589178E+02 0.  0.
         23    2    1    2    0    0  0.68370657740E+01  0.63361271265E+02  0.10452081993E+03  0.15325102153E+03  0.92194780964E+02 0.  0.
          5    1    4    4  502    0  0.19784372649E+02 -0.19324869764E+02  0.22344238010E+02  0.35864006536E+02  0.47000000000E+01 0. -1.
         -5    1    3    3    0  503 -0.15029990055E+02  0.15271283016E+02  0.56621945508E+02  0.60722709089E+02  0.47000000000E+01 0.  1.
          5    1    3    3  503    0  0.81929242805E+01 -0.78632554281E+02  0.60787206598E+02  0.99836752186E+02  0.47000000000E+01 0. -1.
         -5    1    4    4    0  502 -0.12947306875E+02  0.82686141029E+02  0.82176581917E+02  0.11738701499E+03  0.47000000000E+01 0.  1.
<mgrwt>
<rscale>  0 0.11143204E+03</rscale>
<asrwt>0</asrwt>
<pdfrwt beam="1">  1        2 0.41210803E-01 0.11207709E+03</pdfrwt>
<pdfrwt beam="2">  1       -2 0.70677318E-02 0.11207709E+03</pdfrwt>
<totfact> 0.13134320E+04</totfact>
</mgrwt>
</event>
<event>
 8    1  0.2964543E-004  0.1109041E+03  0.7546771E-02  0.1259610E+00
          1   -1    0    0  501    0  0.00000000000E+00  0.00000000000E+00  0.40868807639E+03  0.40868807639E+03  0.00000000000E+00 0. -1.
         -1   -1    0    0    0  501 -0.00000000000E+00 -0.00000000000E+00 -0.30890679035E+02  0.30890679035E+02  0.00000000000E+00 0.  1.
         23    2    1    2    0    0 -0.41917148062E+02 -0.47301183372E+02  0.14417004463E+03  0.18096424483E+03  0.89267053777E+02 0.  0.
         23    2    1    2    0    0  0.41917148062E+02  0.47301183372E+02  0.23362735273E+03  0.25861451059E+03  0.91133286436E+02 0.  0.
          5    1    4    4  502    0  0.44851224580E+02  0.70692710105E+02  0.15289259279E+03  0.17437696677E+03  0.47000000000E+01 0. -1.
         -5    1    3    3    0  503 -0.47898645799E+02  0.11980109548E+02  0.66664336853E+02  0.83090475400E+02  0.47000000000E+01 0.  1.
          5    1    3    3  503    0  0.59814977367E+01 -0.59281292920E+02  0.77505707775E+02  0.97873769434E+02  0.47000000000E+01 0. -1.
         -5    1    4    4    0  502 -0.29340765183E+01 -0.23391526733E+02  0.80734759938E+02  0.84237543828E+02  0.47000000000E+01 0.  1.
<mgrwt>
<rscale>  0 0.11052004E+03</rscale>
<asrwt>0</asrwt>
<pdfrwt beam="1">  1        1 0.62875084E-01 0.11090413E+03</pdfrwt>
<pdfrwt beam="2">  1       -1 0.47524125E-02 0.11090413E+03</pdfrwt>
<totfact> 0.10453607E+04</totfact>
</mgrwt>
</event>
<event>
 8    1  0.2964543E-004  0.1336281E+03  0.7546771E-02  0.1222541E+00
          1   -1    0    0  501    0  0.00000000000E+00  0.00000000000E+00  0.39673660074E+03  0.39673660074E+03  0.00000000000E+00 0. -1.
         -1   -1    0    0    0  501 -0.00000000000E+00 -0.00000000000E+00 -0.57058390802E+02  0.57058390802E+02  0.00000000000E+00 0.  1.
         23    2    1    2    0    0  0.23360760250E+01  0.95915845393E+02  0.27508648111E+03  0.30537473939E+03  0.91519684874E+02 0.  0.
         23    2    1    2    0    0 -0.23360760250E+01 -0.95915845393E+02  0.64591728826E+02  0.14842025215E+03  0.93011682960E+02 0.  0.
          5    1    4    4  502    0  0.40635744196E+02 -0.23863398842E+02  0.36607792496E+02  0.59857714475E+02  0.47000000000E+01 0. -1.
         -5    1    4    4    0  502 -0.42971820221E+02 -0.72052446551E+02  0.27983936331E+02  0.88562537676E+02  0.47000000000E+01 0.  1.
          5    1    3    3  503    0 -0.29886540722E+02  0.67057456624E+02  0.95263061580E+02  0.12036215646E+03  0.47000000000E+01 0. -1.
         -5    1    3    3    0  503  0.32222616747E+02  0.28858388769E+02  0.17982341953E+03  0.18501258294E+03  0.47000000000E+01 0.  1.
<mgrwt>
<rscale>  0 0.13336884E+03</rscale>
<asrwt>0</asrwt>
<pdfrwt beam="1">  1        1 0.61036398E-01 0.13362814E+03</pdfrwt>
<pdfrwt beam="2">  1       -1 0.87782142E-02 0.13362814E+03</pdfrwt>
<totfact> 0.44010663E+03</totfact>
</mgrwt>
</event>
<event>
 8    1  0.2964543E-004  0.9127676E+02  0.7546771E-02  0.1302936E+00
         -1   -1    0    0    0  501 -0.00000000000E+00  0.00000000000E+00  0.33377433898E+02  0.33377433898E+02  0.00000000000E+00 0.  1.
          1   -1    0    0  501    0  0.00000000000E+00 -0.00000000000E+00 -0.44001895872E+03  0.44001895872E+03  0.00000000000E+00 0. -1.
         23    2    1    2    0    0  0.17930708058E+00  0.14264756291E+02 -0.36139664857E+03  0.37152124309E+03  0.84952816582E+02 0.  0.
         23    2    1    2    0    0 -0.17930708058E+00 -0.14264756291E+02 -0.45244876254E+02  0.10187514953E+03  0.90155043352E+02 0.  0.
          5    1    4    4  502    0 -0.32512658470E+02 -0.34637522294E+02 -0.81873627831E+01  0.48435047443E+02  0.47000000000E+01 0.  1.
         -5    1    3    3    0  503 -0.41331585295E+02 -0.10800293616E+01 -0.17912149322E+03  0.18389145097E+03  0.47000000000E+01 0.  1.
          5    1    3    3  503    0  0.41510892376E+02  0.15344785653E+02 -0.18227515536E+03  0.18762979212E+03  0.47000000000E+01 0. -1.
         -5    1    4    4    0  502  0.32333351389E+02  0.20372766003E+02 -0.37057513471E+02  0.53440102089E+02  0.47000000000E+01 0. -1.
<mgrwt>
<rscale>  0 0.89965146E+02</rscale>
<asrwt>0</asrwt>
<pdfrwt beam="1">  1        1 0.67695227E-01 0.91276762E+02</pdfrwt>
<pdfrwt beam="2">  1       -1 0.51349896E-02 0.91276762E+02</pdfrwt>
<totfact> 0.83754248E+03</totfact>
</mgrwt>
</event>
<event>
 8    1  0.2964543E-004  0.9754450E+02  0.7546771E-02  0.1286232E+00
          3   -1    0    0  501    0  0.00000000000E+00  0.00000000000E+00  0.93079510094E+03  0.93079510094E+03  0.00000000000E+00 0. -1.
         -3   -1    0    0    0  501 -0.00000000000E+00 -0.00000000000E+00 -0.11172691467E+02  0.11172691467E+02  0.00000000000E+00 0.  1.
         23    2    1    2    0    0 -0.26586315500E+02  0.24338734675E+02  0.31060554011E+03  0.32518867693E+03  0.89289797175E+02 0.  0.
         23    2    1    2    0    0  0.26586315500E+02 -0.24338734675E+02  0.60901686937E+03  0.61677911548E+03  0.90640630736E+02 0.  0.
          5    1    3    3  502    0 -0.35775278565E+02 -0.35848293600E+01  0.28055563533E+03  0.28288915864E+03  0.47000000000E+01 0. -1.
         -5    1    3    3    0  502  0.91889630652E+01  0.27923564035E+02  0.30049904775E+02  0.42299518290E+02  0.47000000000E+01 0.  1.
          5    1    4    4  503    0  0.27748037091E+02  0.30766137892E+02  0.23040479303E+03  0.23414731998E+03  0.47000000000E+01 0. -1.
         -5    1    4    4    0  503 -0.11617215911E+01 -0.55104872567E+02  0.37861207633E+03  0.38263179549E+03  0.47000000000E+01 0.  1.
<mgrwt>
<rscale>  0 0.97229498E+02</rscale>
<asrwt>0</asrwt>
<pdfrwt beam="1">  1        3 0.14319919E+00 0.97544503E+02</pdfrwt>
<pdfrwt beam="2">  1       -3 0.17188763E-02 0.97544503E+02</pdfrwt>
<totfact> 0.10152871E+03</totfact>
</mgrwt>
</event>
<event>
 8    1  0.2964543E-004  0.1110530E+03  0.7546771E-02  0.1265904E+00
          2   -1    0    0  501    0  0.00000000000E+00  0.00000000000E+00  0.29047617796E+03  0.29047617796E+03  0.00000000000E+00 0. -1.
         -2   -1    0    0    0  501 -0.00000000000E+00 -0.00000000000E+00 -0.37623903871E+02  0.37623903871E+02  0.00000000000E+00 0.  1.
         23    2    1    2    0    0 -0.34532463991E+01  0.29004624439E+02  0.11434334721E+03  0.15939624780E+03  0.10714275342E+03 0.  0.
         23    2    1    2    0    0  0.34532463991E+01 -0.29004624439E+02  0.13850892688E+03  0.16870383403E+03  0.91777271930E+02 0.  0.
          5    1    4    4  502    0 -0.88557368490E+01  0.29002291094E+02  0.78153459237E+02  0.83961956590E+02  0.47000000000E+01 0. -1.
         -5    1    3    3    0  503  0.19273417252E+02 -0.33937139204E+02  0.21356878239E+02  0.44737012395E+02  0.47000000000E+01 0.  1.
          5    1    3    3  503    0 -0.22726663651E+02  0.62941763643E+02  0.92986468971E+02  0.11465923540E+03  0.47000000000E+01 0. -1.
         -5    1    4    4    0  502  0.12308983248E+02 -0.58006915533E+02  0.60355467642E+02  0.84741877443E+02  0.47000000000E+01 0.  1.
<mgrwt>
<rscale>  0 0.10716902E+03</rscale>
<asrwt>0</asrwt>
<pdfrwt beam="1">  1        2 0.44688641E-01 0.11105297E+03</pdfrwt>
<pdfrwt beam="2">  1       -2 0.57882931E-02 0.11105297E+03</pdfrwt>
<totfact> 0.16305765E+04</totfact>
</mgrwt>
</event>
<event>
 8    1  0.2964543E-004  0.1071086E+03  0.7546771E-02  0.1266517E+00
          2   -1    0    0  501    0  0.00000000000E+00  0.00000000000E+00  0.63627681258E+03  0.63627681258E+03  0.00000000000E+00 0. -1.
         -2   -1    0    0    0  501 -0.00000000000E+00 -0.00000000000E+00 -0.21172645824E+02  0.21172645824E+02  0.00000000000E+00 0.  1.
         23    2    1    2    0    0  0.44224662212E+02 -0.34171921928E+02  0.17872686868E+03  0.20836399249E+03  0.91371323634E+02 0.  0.
         23    2    1    2    0    0 -0.44224662212E+02  0.34171921928E+02  0.43637729808E+03  0.44908546591E+03  0.90161346604E+02 0.  0.
          5    1    4    4  502    0  0.99936261018E+01  0.30488138500E+02  0.55157464784E+02  0.63983084274E+02  0.47000000000E+01 0. -1.
         -5    1    4    4    0  502 -0.54218288314E+02  0.36837834280E+01  0.38121983329E+03  0.38510238164E+03  0.47000000000E+01 0.  1.
          5    1    3    3  503    0  0.70698419551E+02 -0.35897504209E+02  0.14348427173E+03  0.16400220599E+03  0.47000000000E+01 0. -1.
         -5    1    3    3    0  503 -0.26473757338E+02  0.17255822814E+01  0.35242596944E+02  0.44361786496E+02  0.47000000000E+01 0.  1.
<mgrwt>
<rscale>  0 0.10685012E+03</rscale>
<asrwt>0</asrwt>
<pdfrwt beam="1">  1        2 0.97888726E-01 0.10710864E+03</pdfrwt>
<pdfrwt beam="2">  1       -2 0.32573306E-02 0.10710864E+03</pdfrwt>
<totfact> 0.16381941E+04</totfact>
</mgrwt>
</event>
<event>
 8    1  0.2964543E-004  0.9317086E+02  0.7546771E-02  0.1295933E+00
         -3   -1    0    0    0  501 -0.00000000000E+00  0.00000000000E+00  0.79112543332E+02  0.79112543332E+02  0.00000000000E+00 0.  1.
          3   -1    0    0  501    0  0.00000000000E+00 -0.00000000000E+00 -0.10948670055E+03  0.10948670055E+03  0.00000000000E+00 0. -1.
         23    2    1    2    0    0 -0.20793019529E+02  0.64497282557E+01 -0.23999118496E+02  0.96212088466E+02  0.90591719394E+02 0.  0.
         23    2    1    2    0    0  0.20793019529E+02 -0.64497282557E+01 -0.63750387178E+01  0.92387155411E+02  0.89558900789E+02 0.  0.
          5    1    3    3  502    0  0.14439040225E+02  0.17278816050E+02 -0.47129624636E+02  0.52443635315E+02  0.47000000000E+01 0. -1.
         -5    1    4    4    0  503 -0.31540847322E+02  0.76442431822E+01  0.12070171213E+02  0.34943361840E+02  0.47000000000E+01 0.  1.
          5    1    4    4  503    0  0.52333866850E+02 -0.14093971438E+02 -0.18445209931E+02  0.57443793571E+02  0.47000000000E+01 0. -1.
         -5    1    3    3    0  502 -0.35232059754E+02 -0.10829087795E+02  0.23130506140E+02  0.43768453151E+02  0.47000000000E+01 0.  1.
<mgrwt>
<rscale>  0 0.92918857E+02</rscale>
<asrwt>0</asrwt>
<pdfrwt beam="1">  1        3 0.16844108E-01 0.93170855E+02</pdfrwt>
<pdfrwt beam="2">  1       -3 0.12171161E-01 0.93170855E+02</pdfrwt>
<totfact> 0.34071913E+03</totfact>
</mgrwt>
</event>
<event>
 8    1  0.2964543E-004  0.1032716E+03  0.7546771E-02  0.1274346E+00
          2   -1    0    0  501    0  0.00000000000E+00  0.00000000000E+00  0.57272810233E+03  0.57272810233E+03  0.00000000000E+00 0. -1.
         -2   -1    0    0    0  501 -0.00000000000E+00 -0.00000000000E+00 -0.20446377705E+02  0.20446377705E+02  0.00000000000E+00 0.  1.
         23    2    1    2    0    0  0.11133476318E+02  0.44841486331E+02  0.37309472077E+03  0.38712361075E+03  0.92359656504E+02 0.  0.
         23    2    1    2    0    0 -0.11133476318E+02 -0.44841486331E+02  0.17918700386E+03  0.20605086928E+03  0.90632583476E+02 0.  0.
          5    1    3    3  502    0  0.27979024305E+02 -0.17394859297E+02  0.19138187766E+03  0.19425375164E+03  0.47000000000E+01 0. -1.
         -5    1    3    3    0  502 -0.16845547987E+02  0.62236345628E+02  0.18171284311E+03  0.19286985911E+03  0.47000000000E+01 0.  1.
          5    1    4    4  503    0  0.22052234477E+02  0.18481643059E+02  0.39887755546E+02  0.49406428914E+02  0.47000000000E+01 0. -1.
         -5    1    4    4    0  503 -0.33185710795E+02 -0.63323129390E+02  0.13929924831E+03  0.15664444036E+03  0.47000000000E+01 0.  1.
<mgrwt>
<rscale>  0 0.10288399E+03</rscale>
<asrwt>0</asrwt>
<pdfrwt beam="1">  1        2 0.88112004E-01 0.10327158E+03</pdfrwt>
<pdfrwt beam="2">  1       -2 0.31455970E-02 0.10327158E+03</pdfrwt>
<totfact> 0.19349878E+04</totfact>
</mgrwt>
</event>
<event>
 8    1  0.2964543E-004  0.1173451E+03  0.7546771E-02  0.1247670E+00
         -2   -1    0    0    0  501 -0.00000000000E+00  0.00000000000E+00  0.23063935229E+02  0.23063935229E+02  0.00000000000E+00 0.  1.
          2   -1    0    0  501    0  0.00000000000E+00 -0.00000000000E+00 -0.74353682890E+03  0.74353682890E+03  0.00000000000E+00 0. -1.
         23    2    1    2    0    0 -0.11354985523E+02 -0.73285876647E+02 -0.53163062451E+03  0.54442720702E+03  0.90940130910E+02 0.  0.
         23    2    1    2    0    0  0.11354985523E+02  0.73285876647E+02 -0.18884226915E+03  0.22217355711E+03  0.90553472854E+02 0.  0.
          5    1    3    3  502    0 -0.35178921526E+02 -0.52441246941E+02 -0.47643765000E+03  0.48062726227E+03  0.47000000000E+01 0. -1.
         -5    1    3    3    0  502  0.23823936003E+02 -0.20844629707E+02 -0.55192974516E+02  0.63799944751E+02  0.47000000000E+01 0.  1.
          5    1    4    4  503    0 -0.31807008134E+02  0.59968803503E+02 -0.85339542850E+02  0.10914609812E+03  0.47000000000E+01 0. -1.
         -5    1    4    4    0  503  0.43161993657E+02  0.13317073144E+02 -0.10350272630E+03  0.11302745899E+03  0.47000000000E+01 0.  1.
<mgrwt>
<rscale>  0 0.11727014E+03</rscale>
<asrwt>0</asrwt>
<pdfrwt beam="1">  1        2 0.11439030E+00 0.11734506E+03</pdfrwt>
<pdfrwt beam="2">  1       -2 0.35482972E-02 0.11734506E+03</pdfrwt>
<totfact> 0.12121338E+04</totfact>
</mgrwt>
</event>
<event>
 8    1  0.2964543E-004  0.1032639E+03  0.7546771E-02  0.1277003E+00
         -2   -1    0    0    0  501 -0.00000000000E+00  0.00000000000E+00  0.72748412025E+03  0.72748412025E+03  0.00000000000E+00 0.  1.
          2   -1    0    0  501    0  0.00000000000E+00 -0.00000000000E+00 -0.13758091181E+02  0.13758091181E+02  0.00000000000E+00 0. -1.
         23    2    1    2    0    0 -0.50311115064E+02  0.27110938604E+01  0.35819319439E+03  0.37101656946E+03  0.82537094570E+02 0.  0.
         23    2    1    2    0    0  0.50311115064E+02 -0.27110938604E+01  0.35553283468E+03  0.37022564197E+03  0.90138066911E+02 0.  0.
          5    1    4    4  502    0  0.22729756122E+02 -0.40460299112E+02  0.25529524177E+03  0.25952153685E+03  0.47000000000E+01 0. -1.
         -5    1    3    3    0  503 -0.10337960427E+02  0.38881333813E+02  0.11653743627E+03  0.12337623595E+03  0.47000000000E+01 0.  1.
          5    1    3    3  503    0 -0.39973154638E+02 -0.36170239952E+02  0.24165575812E+03  0.24764033351E+03  0.47000000000E+01 0. -1.
         -5    1    4    4    0  502  0.27581358942E+02  0.37749205251E+02  0.10023759292E+03  0.11070410513E+03  0.47000000000E+01 0.  1.
<mgrwt>
<rscale>  0 0.10158233E+03</rscale>
<asrwt>0</asrwt>
<pdfrwt beam="1">  1        2 0.21166300E-02 0.10326388E+03</pdfrwt>
<pdfrwt beam="2">  1       -2 0.11192060E+00 0.10326388E+03</pdfrwt>
<totfact> 0.30899201E+03</totfact>
</mgrwt>
</event>
<event>
 8    1  0.2964543E-004  0.1430995E+03  0.7546771E-02  0.1209324E+00
         -2   -1    0    0    0  501 -0.00000000000E+00  0.00000000000E+00  0.88822867064E+03  0.88822867064E+03  0.00000000000E+00 0.  1.
          2   -1    0    0  501    0  0.00000000000E+00 -0.00000000000E+00 -0.62426219646E+03  0.62426219646E+03  0.00000000000E+00 0. -1.
         23    2    1    2    0    0 -0.80736849877E+01 -0.10842778243E+03  0.87415968845E+03  0.88574272479E+03  0.92537804221E+02 0.  0.
         23    2    1    2    0    0  0.80736849877E+01  0.10842778243E+03 -0.61019321427E+03  0.62674814231E+03  0.93036050882E+02 0.  0.
          5    1    3    3  502    0  0.28884809529E+02 -0.17266063610E+01  0.15342154765E+03  0.15619723005E+03  0.47000000000E+01 0. -1.
         -5    1    3    3    0  502 -0.36958494517E+02 -0.10670117607E+03  0.72073814080E+03  0.72954549474E+03  0.47000000000E+01 0.  1.
          5    1    4    4  503    0 -0.37171690441E+02  0.51667909658E+02 -0.38041277362E+03  0.38572953710E+03  0.47000000000E+01 0. -1.
         -5    1    4    4    0  503  0.45245375429E+02  0.56759872768E+02 -0.22978044065E+03  0.24101860521E+03  0.47000000000E+01 0.  1.
<mgrwt>
<rscale>  0 0.14301860E+03</rscale>
<asrwt>0</asrwt>
<pdfrwt beam="1">  1        2 0.96040338E-01 0.14309953E+03</pdfrwt>
<pdfrwt beam="2">  1       -2 0.13665057E+00 0.14309953E+03</pdfrwt>
<totfact> 0.20539634E+01</totfact>
</mgrwt>
</event>
<event>
 8    1  0.2964543E-004  0.1240120E+03  0.7546771E-02  0.1245993E+00
          1   -1    0    0  501    0  0.00000000000E+00  0.00000000000E+00  0.79039621001E+02  0.79039621001E+02  0.00000000000E+00 0. -1.
         -1   -1    0    0    0  501 -0.00000000000E+00 -0.00000000000E+00 -0.21056878796E+03  0.21056878796E+03  0.00000000000E+00 0.  1.
         23    2    1    2    0    0 -0.24458732852E+02 -0.40082660286E+02 -0.13000170526E+03  0.16558701307E+03  0.91179856657E+02 0.  0.
         23    2    1    2    0    0  0.24458732852E+02  0.40082660286E+02 -0.15274617020E+01  0.12402139589E+03  0.11477858786E+03 0.  0.
          5    1    4    4  502    0  0.44993849350E+02  0.14349716024E+02  0.45947210902E+02  0.66057528103E+02  0.47000000000E+01 0. -1.
         -5    1    4    4    0  502 -0.20535116498E+02  0.25732944261E+02 -0.47474672604E+02  0.57963867787E+02  0.47000000000E+01 0.  1.
          5    1    3    3  503    0  0.19516797899E+02  0.15856561917E+02 -0.61917053703E+02  0.66993637723E+02  0.47000000000E+01 0. -1.
         -5    1    3    3    0  503 -0.43975530752E+02 -0.55939222203E+02 -0.68084651556E+02  0.98593375351E+02  0.47000000000E+01 0.  1.
<mgrwt>
<rscale>  0 0.11826128E+03</rscale>
<asrwt>0</asrwt>
<pdfrwt beam="1">  1        1 0.12159942E-01 0.12401199E+03</pdfrwt>
<pdfrwt beam="2">  1       -1 0.32395198E-01 0.12401199E+03</pdfrwt>
<totfact> 0.42004885E+03</totfact>
</mgrwt>
</event>
<event>
 8    1  0.2964543E-004  0.9472981E+02  0.7546771E-02  0.1293453E+00
          1   -1    0    0  501    0  0.00000000000E+00  0.00000000000E+00  0.39901144147E+02  0.39901144147E+02  0.00000000000E+00 0. -1.
         -1   -1    0    0    0  501 -0.00000000000E+00 -0.00000000000E+00 -0.21806494903E+03  0.21806494903E+03  0.00000000000E+00 0.  1.
         23    2    1    2    0    0  0.27847632483E+01 -0.19678030191E+02 -0.90180905295E+02  0.13079118229E+03  0.92621584454E+02 0.  0.
         23    2    1    2    0    0 -0.27847632483E+01  0.19678030191E+02 -0.87982899591E+02  0.12717491089E+03  0.89652036009E+02 0.  0.
          5    1    3    3  502    0  0.13131617027E+02 -0.43517516423E+02 -0.93601314641E+02  0.10416097976E+03  0.47000000000E+01 0. -1.
         -5    1    4    4    0  503 -0.13623004252E+02  0.41618560975E+02 -0.91939156611E+02  0.10194405025E+03  0.47000000000E+01 0.  1.
          5    1    4    4  503    0  0.10838241003E+02 -0.21940530784E+02  0.39562570200E+01  0.25230860642E+02  0.47000000000E+01 0. -1.
         -5    1    3    3    0  502 -0.10346853778E+02  0.23839486232E+02  0.34204093461E+01  0.26630202534E+02  0.47000000000E+01 0.  1.
<mgrwt>
<rscale>  0 0.93995995E+02</rscale>
<asrwt>0</asrwt>
<pdfrwt beam="1">  1        1 0.61386376E-02 0.94729814E+02</pdfrwt>
<pdfrwt beam="2">  1       -1 0.33548454E-01 0.94729814E+02</pdfrwt>
<totfact> 0.95964874E+03</totfact>
</mgrwt>
</event>
<event>
 8    1  0.2964543E-004  0.9555294E+02  0.7546771E-02  0.1290098E+00
         -2   -1    0    0    0  501 -0.00000000000E+00  0.00000000000E+00  0.82292297098E+01  0.82292297098E+01  0.00000000000E+00 0.  1.
          2   -1    0    0  501    0  0.00000000000E+00 -0.00000000000E+00 -0.12372905214E+04  0.12372905214E+04  0.00000000000E+00 0. -1.
         23    2    1    2    0    0  0.19044151041E+02  0.18835732141E+02 -0.41094003336E+03  0.42183731345E+03  0.91419601332E+02 0.  0.
         23    2    1    2    0    0 -0.19044151041E+02 -0.18835732141E+02 -0.81812125836E+03  0.82368243769E+03  0.91721863705E+02 0.  0.
          5    1    4    4  502    0  0.26163492619E+02 -0.37857629832E+02 -0.40530250804E+03  0.40793374647E+03  0.47000000000E+01 0. -1.
         -5    1    3    3    0  503  0.35350104264E+02 -0.18525776931E+02 -0.93694603090E+02  0.10194902123E+03  0.47000000000E+01 0.  1.
          5    1    3    3  503    0 -0.16305953223E+02  0.37361509071E+02 -0.31724543027E+03  0.31988829221E+03  0.47000000000E+01 0. -1.
         -5    1    4    4    0  502 -0.45207643659E+02  0.19021897691E+02 -0.41281875032E+03  0.41574869122E+03  0.47000000000E+01 0.  1.
<mgrwt>
<rscale>  0 0.95480333E+02</rscale>
<asrwt>0</asrwt>
<pdfrwt beam="1">  1        2 0.19035246E+00 0.95552942E+02</pdfrwt>
<pdfrwt beam="2">  1       -2 0.12660349E-02 0.95552942E+02</pdfrwt>
<totfact> 0.26696204E+04</totfact>
</mgrwt>
</event>
<event>
 8    1  0.2964543E-004  0.1228158E+03  0.7546771E-02  0.1239654E+00
          2   -1    0    0  501    0  0.00000000000E+00  0.00000000000E+00  0.93345838423E+03  0.93345838423E+03  0.00000000000E+00 0. -1.
         -2   -1    0    0    0  501 -0.00000000000E+00 -0.00000000000E+00 -0.16500499302E+02  0.16500499302E+02  0.00000000000E+00 0.  1.
         23    2    1    2    0    0 -0.22132281438E+01  0.79657826369E+02  0.56182765155E+03  0.57509480342E+03  0.93452957121E+02 0.  0.
         23    2    1    2    0    0  0.22132281438E+01 -0.79657826369E+02  0.35513023338E+03  0.37486408011E+03  0.89751480314E+02 0.  0.
          5    1    4    4  502    0  0.19996868718E+02  0.13415093119E+02  0.58672235277E+02  0.63595288146E+02  0.47000000000E+01 0. -1.
         -5    1    3    3    0  503 -0.29929900268E+02 -0.35849590315E+01  0.86683381156E+02  0.91895317781E+02  0.47000000000E+01 0.  1.
          5    1    3    3  503    0  0.27716672124E+02  0.83242785400E+02  0.47514427039E+03  0.48319948564E+03  0.47000000000E+01 0. -1.
         -5    1    4    4    0  502 -0.17783640574E+02 -0.93072919488E+02  0.29645799810E+03  0.31126879196E+03  0.47000000000E+01 0.  1.
<mgrwt>
<rscale>  0 0.12211165E+03</rscale>
<asrwt>0</asrwt>
<pdfrwt beam="1">  1        2 0.14360894E+00 0.12281581E+03</pdfrwt>
<pdfrwt beam="2">  1       -2 0.25385391E-02 0.12281581E+03</pdfrwt>
<totfact> 0.14916043E+04</totfact>
</mgrwt>
</event>
<event>
 8    1  0.2964543E-004  0.1052952E+03  0.7546771E-02  0.1276015E+00
          2   -1    0    0  501    0  0.00000000000E+00  0.00000000000E+00  0.60306141071E+03  0.60306141071E+03  0.00000000000E+00 0. -1.
         -2   -1    0    0    0  501 -0.00000000000E+00 -0.00000000000E+00 -0.19027546799E+02  0.19027546799E+02  0.00000000000E+00 0.  1.
         23    2    1    2    0    0  0.51037477119E+02  0.18434139171E+02  0.42530591427E+03  0.43814631228E+03  0.90235407102E+02 0.  0.
         23    2    1    2    0    0 -0.51037477119E+02 -0.18434139171E+02  0.15872794964E+03  0.18394264523E+03  0.75469816341E+02 0.  0.
          5    1    4    4  502    0 -0.31110614185E+01  0.26088674443E+02  0.36324784188E+02  0.45076352821E+02  0.47000000000E+01 0. -1.
         -5    1    3    3    0  503 -0.37442889776E+01 -0.28695713374E+02  0.77022670603E+02  0.82413866872E+02  0.47000000000E+01 0.  1.
          5    1    3    3  503    0  0.54781766096E+02  0.47129852545E+02  0.34828324366E+03  0.35573244540E+03  0.47000000000E+01 0. -1.
         -5    1    4    4    0  502 -0.47926415700E+02 -0.44522813614E+02  0.12240316546E+03  0.13886629241E+03  0.47000000000E+01 0.  1.
<mgrwt>
<rscale>  0 0.10206401E+03</rscale>
<asrwt>0</asrwt>
<pdfrwt beam="1">  1        2 0.92778664E-01 0.10529516E+03</pdfrwt>
<pdfrwt beam="2">  1       -2 0.29273153E-02 0.10529516E+03</pdfrwt>
<totfact> 0.20321652E+04</totfact>
</mgrwt>
</event>
<event>
 8    1  0.2964543E-004  0.1076148E+03  0.7546771E-02  0.1268324E+00
          4   -1    0    0  501    0  0.00000000000E+00  0.00000000000E+00  0.33989274805E+02  0.33989274805E+02  0.00000000000E+00 0. -1.
         -4   -1    0    0    0  501 -0.00000000000E+00 -0.00000000000E+00 -0.36002585084E+03  0.36002585084E+03  0.00000000000E+00 0.  1.
         23    2    1    2    0    0  0.11418293288E+02  0.42751943845E+02 -0.92789279540E+02  0.13713916906E+03  0.90770012499E+02 0.  0.
         23    2    1    2    0    0 -0.11418293288E+02 -0.42751943845E+02 -0.23324729650E+03  0.25687595659E+03  0.98096124410E+02 0.  0.
          5    1    4    4  502    0 -0.18296784668E+02 -0.96503314349E+01 -0.69560525614E-01  0.21213110679E+02  0.47000000000E+01 0. -1.
         -5    1    4    4    0  502  0.68784913802E+01 -0.33101612410E+02 -0.23317773597E+03  0.23566284591E+03  0.47000000000E+01 0.  1.
          5    1    3    3  503    0 -0.73827507872E+01 -0.25945167670E+02 -0.13749933085E+02  0.30639964008E+02  0.47000000000E+01 0. -1.
         -5    1    3    3    0  503  0.18801044075E+02  0.68697111515E+02 -0.79039346455E+02  0.10649920505E+03  0.47000000000E+01 0.  1.
<mgrwt>
<rscale>  0 0.10591679E+03</rscale>
<asrwt>0</asrwt>
<pdfrwt beam="1">  1        4 0.52291194E-02 0.10761485E+03</pdfrwt>
<pdfrwt beam="2">  1       -4 0.55388591E-01 0.10761485E+03</pdfrwt>
<totfact> 0.10932115E+03</totfact>
</mgrwt>
</event>
<event>
 8    1  0.2964543E-004  0.1009329E+03  0.7546771E-02  0.1280661E+00
         -1   -1    0    0    0  501 -0.00000000000E+00  0.00000000000E+00  0.21190099737E+02  0.21190099737E+02  0.00000000000E+00 0.  1.
          1   -1    0    0  501    0  0.00000000000E+00 -0.00000000000E+00 -0.48759721372E+03  0.48759721372E+03  0.00000000000E+00 0. -1.
         23    2    1    2    0    0  0.43503868786E+02 -0.56489290994E+01 -0.28858419271E+03  0.30431618356E+03  0.86040724622E+02 0.  0.
         23    2    1    2    0    0 -0.43503868786E+02  0.56489290994E+01 -0.17782292127E+03  0.20447112990E+03  0.90900795559E+02 0.  0.
          5    1    3    3  502    0  0.21521773793E+02 -0.23452358450E+02 -0.26566702084E+03  0.26760840014E+03  0.47000000000E+01 0. -1.
         -5    1    4    4    0  503  0.91853114199E+01  0.24243898688E+02 -0.11133921145E+02  0.28604034148E+02  0.47000000000E+01 0.  1.
          5    1    4    4  503    0 -0.52689180206E+02 -0.18594969588E+02 -0.16668900013E+03  0.17586709575E+03  0.47000000000E+01 0. -1.
         -5    1    3    3    0  502  0.21982094993E+02  0.17803429350E+02 -0.22917171873E+02  0.36707783419E+02  0.47000000000E+01 0.  1.
<mgrwt>
<rscale>  0 0.99826366E+02</rscale>
<asrwt>0</asrwt>
<pdfrwt beam="1">  1        1 0.75014951E-01 0.10093291E+03</pdfrwt>
<pdfrwt beam="2">  1       -1 0.32600156E-02 0.10093291E+03</pdfrwt>
<totfact> 0.14363064E+04</totfact>
</mgrwt>
</event>
<event>
 8    1  0.2964543E-004  0.1046211E+03  0.7546771E-02  0.1275573E+00
         -1   -1    0    0    0  501 -0.00000000000E+00  0.00000000000E+00  0.68631889715E+02  0.68631889715E+02  0.00000000000E+00 0.  1.
          1   -1    0    0  501    0  0.00000000000E+00 -0.00000000000E+00 -0.49165175221E+03  0.49165175221E+03  0.00000000000E+00 0. -1.
         23    2    1    2    0    0  0.19933251596E+02  0.18572410716E+02  0.20477603507E+02  0.10660627424E+03  0.10101136818E+03 0.  0.
         23    2    1    2    0    0 -0.19933251596E+02 -0.18572410716E+02 -0.44349746600E+03  0.45367736769E+03  0.91601761135E+02 0.  0.
          5    1    4    4  502    0 -0.34620212938E+02 -0.41997243666E+02 -0.38440646994E+03  0.38826891680E+03  0.47000000000E+01 0. -1.
         -5    1    4    4    0  502  0.14686961343E+02  0.23424832950E+02 -0.59090996058E+02  0.65408450886E+02  0.47000000000E+01 0.  1.
          5    1    3    3  503    0 -0.40643103423E+02 -0.41414018310E+00  0.64205543308E+01  0.41416746442E+02  0.47000000000E+01 0. -1.
         -5    1    3    3    0  503  0.60576355019E+02  0.18986550899E+02  0.14057049177E+02  0.65189527794E+02  0.47000000000E+01 0.  1.
<mgrwt>
<rscale>  0 0.10228028E+03</rscale>
<asrwt>0</asrwt>
<pdfrwt beam="1">  1        1 0.75638734E-01 0.10462106E+03</pdfrwt>
<pdfrwt beam="2">  1       -1 0.10558752E-01 0.10462106E+03</pdfrwt>
<totfact> 0.25032889E+03</totfact>
</mgrwt>
</event>
<event>
 8    1  0.2964543E-004  0.1061107E+03  0.7546771E-02  0.1269056E+00
         -1   -1    0    0    0  501 -0.00000000000E+00  0.00000000000E+00  0.35372689343E+03  0.35372689343E+03  0.00000000000E+00 0.  1.
          1   -1    0    0  501    0  0.00000000000E+00 -0.00000000000E+00 -0.54396077697E+02  0.54396077697E+02  0.00000000000E+00 0. -1.
         23    2    1    2    0    0 -0.24903410747E+02  0.49018551426E+02  0.28211725999E+03  0.30062514880E+03  0.88104105770E+02 0.  0.
         23    2    1    2    0    0  0.24903410747E+02 -0.49018551426E+02  0.17213555740E+02  0.10749782233E+03  0.90755038723E+02 0.  0.
          5    1    3    3  502    0 -0.39979346176E+02  0.62954102774E+01  0.52091472113E+02  0.66133136763E+02  0.47000000000E+01 0. -1.
         -5    1    4    4    0  503  0.58300458673E+02 -0.26304669383E+02  0.18718409226E+02  0.66808292575E+02  0.47000000000E+01 0.  1.
          5    1    4    4  503    0 -0.33397047926E+02 -0.22713882042E+02 -0.15048534855E+01  0.40689529754E+02  0.47000000000E+01 0. -1.
         -5    1    3    3    0  502  0.15075935429E+02  0.42723141148E+02  0.23002578788E+03  0.23449201203E+03  0.47000000000E+01 0.  1.
<mgrwt>
<rscale>  0 0.10554156E+03</rscale>
<asrwt>0</asrwt>
<pdfrwt beam="1">  1        1 0.83686276E-02 0.10611067E+03</pdfrwt>
<pdfrwt beam="2">  1       -1 0.54419521E-01 0.10611067E+03</pdfrwt>
<totfact> 0.27294243E+03</totfact>
</mgrwt>
</event>
<event>
 8    1  0.2964543E-004  0.1753227E+03  0.7546771E-02  0.1172872E+00
          2   -1    0    0  501    0  0.00000000000E+00  0.00000000000E+00  0.43748904072E+03  0.43748904072E+03  0.00000000000E+00 0. -1.
         -2   -1    0    0    0  501 -0.00000000000E+00 -0.00000000000E+00 -0.25243811468E+03  0.25243811468E+03  0.00000000000E+00 0.  1.
         23    2    1    2    0    0  0.14801340709E+03 -0.65819384236E+01 -0.20125104368E+03  0.26570165889E+03  0.90244658361E+02 0.  0.
         23    2    1    2    0    0 -0.14801340709E+03  0.65819384236E+01  0.38630196972E+03  0.42422549651E+03  0.93737769824E+02 0.  0.
          5    1    4    4  502    0 -0.11188233442E+03  0.16887030488E+00  0.36443331136E+03  0.38124980486E+03  0.47000000000E+01 0. -1.
         -5    1    3    3    0  503  0.10351433748E+03 -0.18280677743E+02 -0.19139673828E+03  0.21841291781E+03  0.47000000000E+01 0.  1.
          5    1    3    3  503    0  0.44499069611E+02  0.11698739319E+02 -0.98543054003E+01  0.47288741078E+02  0.47000000000E+01 0. -1.
         -5    1    4    4    0  502 -0.36131072672E+02  0.64130681187E+01  0.21868658356E+02  0.42975691657E+02  0.47000000000E+01 0.  1.
<mgrwt>
<rscale>  0 0.17486028E+03</rscale>
<asrwt>0</asrwt>
<pdfrwt beam="1">  1        2 0.67306006E-01 0.17532273E+03</pdfrwt>
<pdfrwt beam="2">  1       -2 0.38836633E-01 0.17532273E+03</pdfrwt>
<totfact> 0.45961625E+02</totfact>
</mgrwt>
</event>
<event>
 8    1  0.2964543E-004  0.9577023E+02  0.7546771E-02  0.1290571E+00
          1   -1    0    0  501    0  0.00000000000E+00  0.00000000000E+00  0.76990259402E+03  0.76990259402E+03  0.00000000000E+00 0. -1.
         -1   -1    0    0    0  501 -0.00000000000E+00 -0.00000000000E+00 -0.11748708023E+02  0.11748708023E+02  0.00000000000E+00 0.  1.
         23    2    1    2    0    0 -0.14047846679E+02  0.28183875368E+02  0.40770640941E+03  0.41835339220E+03  0.88336694896E+02 0.  0.
         23    2    1    2    0    0  0.14047846679E+02 -0.28183875368E+02  0.35044747658E+03  0.36329790984E+03  0.90444815344E+02 0.  0.
          5    1    4    4  502    0 -0.71338093560E+00  0.29093622244E+02  0.59991390788E+02  0.66843135296E+02  0.47000000000E+01 0. -1.
         -5    1    4    4    0  502  0.14761227615E+02 -0.57277497612E+02  0.29045608579E+03  0.29645477454E+03  0.47000000000E+01 0.  1.
          5    1    3    3  503    0  0.26280683492E+02  0.41314750057E+02  0.25973679752E+03  0.26435369656E+03  0.47000000000E+01 0. -1.
         -5    1    3    3    0  503 -0.40328530171E+02 -0.13130874689E+02  0.14796961189E+03  0.15399969565E+03  0.47000000000E+01 0.  1.
<mgrwt>
<rscale>  0 0.95269231E+02</rscale>
<asrwt>0</asrwt>
<pdfrwt beam="1">  1        1 0.11844651E+00 0.95770233E+02</pdfrwt>
<pdfrwt beam="2">  1       -1 0.18074941E-02 0.95770233E+02</pdfrwt>
<totfact> 0.17928319E+04</totfact>
</mgrwt>
</event>
<event>
 8    1  0.2964543E-004  0.9472951E+02  0.7546771E-02  0.1293415E+00
          2   -1    0    0  501    0  0.00000000000E+00  0.00000000000E+00  0.82613578580E+03  0.82613578580E+03  0.00000000000E+00 0. -1.
         -2   -1    0    0    0  501 -0.00000000000E+00 -0.00000000000E+00 -0.13683766903E+02  0.13683766903E+02  0.00000000000E+00 0.  1.
         23    2    1    2    0    0 -0.12764528067E+02 -0.25142116198E+02  0.61223863997E+03  0.61952387613E+03  0.90435732119E+02 0.  0.
         23    2    1    2    0    0  0.12764528067E+02  0.25142116198E+02  0.20021337893E+03  0.22029567658E+03  0.87462728236E+02 0.  0.
          5    1    4    4  502    0 -0.21274910737E+02  0.35519827180E+02  0.16436667914E+03  0.16956643289E+03  0.47000000000E+01 0. -1.
         -5    1    3    3    0  503 -0.98380287895E+01 -0.53532813873E+02  0.51985505765E+03  0.52271782057E+03  0.47000000000E+01 0.  1.
          5    1    3    3  503    0 -0.29264992776E+01  0.28390697675E+02  0.92383582312E+02  0.96806055561E+02  0.47000000000E+01 0. -1.
         -5    1    4    4    0  502  0.34039438804E+02 -0.10377710982E+02  0.35846699791E+02  0.50729243689E+02  0.47000000000E+01 0.  1.
<mgrwt>
<rscale>  0 0.94012927E+02</rscale>
<asrwt>0</asrwt>
<pdfrwt beam="1">  1        2 0.12709777E+00 0.94729514E+02</pdfrwt>
<pdfrwt beam="2">  1       -2 0.21051956E-02 0.94729514E+02</pdfrwt>
<totfact> 0.22399881E+04</totfact>
</mgrwt>
</event>
<event>
 8    1  0.2964543E-004  0.1036287E+03  0.7546771E-02  0.1274732E+00
         -1   -1    0    0    0  501 -0.00000000000E+00  0.00000000000E+00  0.35639652573E+03  0.35639652573E+03  0.00000000000E+00 0.  1.
          1   -1    0    0  501    0  0.00000000000E+00 -0.00000000000E+00 -0.46301781192E+02  0.46301781192E+02  0.00000000000E+00 0. -1.
         23    2    1    2    0    0 -0.36600529796E+02  0.24772430345E+02  0.27963815611E+03  0.29822208226E+03  0.93731744379E+02 0.  0.
         23    2    1    2    0    0  0.36600529796E+02 -0.24772430345E+02  0.30456588426E+02  0.10447622467E+03  0.89634846213E+02 0.  0.
          5    1    3    3  502    0 -0.41289835557E+02 -0.22015926608E+02  0.77661881767E+02  0.90791020615E+02  0.47000000000E+01 0. -1.
         -5    1    3    3    0  502  0.46893057609E+01  0.46788356953E+02  0.20197627435E+03  0.20743106164E+03  0.47000000000E+01 0.  1.
          5    1    4    4  503    0 -0.18247388122E+02  0.12694081943E+02 -0.11809405386E+02  0.25605838108E+02  0.47000000000E+01 0. -1.
         -5    1    4    4    0  503  0.54847917918E+02 -0.37466512288E+02  0.42265993812E+02  0.78870386559E+02  0.47000000000E+01 0.  1.
<mgrwt>
<rscale>  0 0.10269355E+03</rscale>
<asrwt>0</asrwt>
<pdfrwt beam="1">  1        1 0.71233512E-02 0.10362872E+03</pdfrwt>
<pdfrwt beam="2">  1       -1 0.54830233E-01 0.10362872E+03</pdfrwt>
<totfact> 0.33317841E+03</totfact>
</mgrwt>
</event>
<event>
 8    1  0.2964543E-004  0.1299737E+03  0.7546771E-02  0.1228910E+00
          2   -1    0    0  501    0  0.00000000000E+00  0.00000000000E+00  0.63812326612E+03  0.63812326612E+03  0.00000000000E+00 0. -1.
         -2   -1    0    0    0  501 -0.00000000000E+00 -0.00000000000E+00 -0.40458707984E+02  0.40458707984E+02  0.00000000000E+00 0.  1.
         23    2    1    2    0    0  0.88283911774E+02  0.25986740454E+02  0.50086097453E+03  0.51651997839E+03  0.86381783413E+02 0.  0.
         23    2    1    2    0    0 -0.88283911774E+02 -0.25986740454E+02  0.96803583605E+02  0.16206199572E+03  0.91781244817E+02 0.  0.
          5    1    3    3  502    0 -0.12065695441E+02  0.16220871033E+02  0.15001776490E+03  0.15144674790E+03  0.47000000000E+01 0.  1.
         -5    1    3    3    0  502  0.10034960721E+03  0.97658694206E+01  0.35084320963E+03  0.36507323048E+03  0.47000000000E+01 0. -1.
          5    1    4    4  503    0  0.52803006815E+01 -0.24947101836E+02  0.52227946284E+02  0.58310272151E+02  0.47000000000E+01 0. -1.
         -5    1    4    4    0  503 -0.93564212455E+02 -0.10396386181E+01  0.44575637322E+02  0.10375172357E+03  0.47000000000E+01 0.  1.
<mgrwt>
<rscale>  0 0.12902460E+03</rscale>
<asrwt>0</asrwt>
<pdfrwt beam="1">  1        2 0.98172803E-01 0.12997368E+03</pdfrwt>
<pdfrwt beam="2">  1       -2 0.62244171E-02 0.12997368E+03</pdfrwt>
<totfact> 0.63074663E+03</totfact>
</mgrwt>
</event>
<event>
 8    1  0.2964543E-004  0.1001561E+03  0.7546771E-02  0.1283667E+00
         -1   -1    0    0    0  501 -0.00000000000E+00  0.00000000000E+00  0.29000483999E+02  0.29000483999E+02  0.00000000000E+00 0.  1.
          1   -1    0    0  501    0  0.00000000000E+00 -0.00000000000E+00 -0.35264185494E+03  0.35264185494E+03  0.00000000000E+00 0. -1.
         23    2    1    2    0    0  0.21288883304E+01 -0.21999026537E+02 -0.11158424123E+03  0.14994091685E+03  0.97686981337E+02 0.  0.
         23    2    1    2    0    0 -0.21288883304E+01  0.21999026537E+02 -0.21205712972E+03  0.23170142209E+03  0.90712917492E+02 0.  0.
          5    1    3    3  502    0 -0.19496955844E+02  0.78651878556E+01 -0.11068261729E+03  0.11275958601E+03  0.47000000000E+01 0. -1.
         -5    1    4    4    0  503 -0.16904617598E+01 -0.33024746359E+02 -0.47065961452E+02  0.57712964405E+02  0.47000000000E+01 0.  1.
          5    1    4    4  503    0 -0.43842657065E+00  0.55023772895E+02 -0.16499116827E+03  0.17398845769E+03  0.47000000000E+01 0. -1.
         -5    1    3    3    0  502  0.21625844174E+02 -0.29864214392E+02 -0.90162393612E+00  0.37181330843E+02  0.47000000000E+01 0.  1.
<mgrwt>
<rscale>  0 0.98413755E+02</rscale>
<asrwt>0</asrwt>
<pdfrwt beam="1">  1        1 0.54252596E-01 0.10015606E+03</pdfrwt>
<pdfrwt beam="2">  1       -1 0.44616127E-02 0.10015606E+03</pdfrwt>
<totfact> 0.13656164E+04</totfact>
</mgrwt>
</event>
<event>
 8    1  0.2964543E-004  0.9902576E+02  0.7546771E-02  0.1282777E+00
          2   -1    0    0  501    0  0.00000000000E+00  0.00000000000E+00  0.59266080089E+03  0.59266080089E+03  0.00000000000E+00 0. -1.
         -2   -1    0    0    0  501 -0.00000000000E+00 -0.00000000000E+00 -0.17571528123E+02  0.17571528123E+02  0.00000000000E+00 0.  1.
         23    2    1    2    0    0  0.20519571448E+02  0.30955650748E+02  0.20821153262E+03  0.23022525367E+03  0.90952295114E+02 0.  0.
         23    2    1    2    0    0 -0.20519571448E+02 -0.30955650748E+02  0.36687774015E+03  0.38000707534E+03  0.91797581499E+02 0.  0.
          5    1    4    4  502    0 -0.24318851610E+02  0.20618728405E+02  0.25056805481E+03  0.25263210128E+03  0.47000000000E+01 0. -1.
         -5    1    3    3    0  503  0.52497665142E+02  0.36857077101E+02  0.15313659684E+03  0.16609441974E+03  0.47000000000E+01 0.  1.
          5    1    3    3  503    0 -0.31978093694E+02 -0.59014263532E+01  0.55074935780E+02  0.64130833930E+02  0.47000000000E+01 0. -1.
         -5    1    4    4    0  502  0.37992801618E+01 -0.51574379153E+02  0.11630968534E+03  0.12737497406E+03  0.47000000000E+01 0.  1.
<mgrwt>
<rscale>  0 0.98829408E+02</rscale>
<asrwt>0</asrwt>
<pdfrwt beam="1">  1        2 0.91178570E-01 0.99025760E+02</pdfrwt>
<pdfrwt beam="2">  1       -2 0.27033125E-02 0.99025760E+02</pdfrwt>
<totfact> 0.23133157E+04</totfact>
</mgrwt>
</event>
<event>
 8    1  0.2964543E-004  0.9689396E+02  0.7546771E-02  0.1287369E+00
          1   -1    0    0  501    0  0.00000000000E+00  0.00000000000E+00  0.10966861001E+04  0.10966861001E+04  0.00000000000E+00 0. -1.
         -1   -1    0    0    0  501 -0.00000000000E+00 -0.00000000000E+00 -0.90428519595E+01  0.90428519595E+01  0.00000000000E+00 0.  1.
         23    2    1    2    0    0  0.17721504399E+02  0.25487985497E+02  0.68167176575E+03  0.68852366380E+03  0.91786438372E+02 0.  0.
         23    2    1    2    0    0 -0.17721504399E+02 -0.25487985497E+02  0.40597148240E+03  0.41720528827E+03  0.91014937866E+02 0.  0.
          5    1    4    4  502    0 -0.35990907642E+02  0.22945306294E+02  0.15084564114E+03  0.15683854744E+03  0.47000000000E+01 0. -1.
         -5    1    3    3    0  503  0.30850067711E+02 -0.26899046707E+02  0.35523460590E+03  0.35761571641E+03  0.47000000000E+01 0.  1.
          5    1    3    3  503    0 -0.13128563313E+02  0.52387032203E+02  0.32643715985E+03  0.33090794740E+03  0.47000000000E+01 0. -1.
         -5    1    4    4    0  502  0.18269403244E+02 -0.48433291790E+02  0.25512584126E+03  0.26036674083E+03  0.47000000000E+01 0.  1.
<mgrwt>
<rscale>  0 0.96710812E+02</rscale>
<asrwt>0</asrwt>
<pdfrwt beam="1">  1        1 0.16872083E+00 0.96893960E+02</pdfrwt>
<pdfrwt beam="2">  1       -1 0.13912089E-02 0.96893960E+02</pdfrwt>
<totfact> 0.14816005E+04</totfact>
</mgrwt>
</event>
<event>
 8    1  0.2964543E-004  0.1072836E+03  0.7546771E-02  0.1266050E+00
         -1   -1    0    0    0  501 -0.00000000000E+00  0.00000000000E+00  0.67343333110E+02  0.67343333110E+02  0.00000000000E+00 0.  1.
          1   -1    0    0  501    0  0.00000000000E+00 -0.00000000000E+00 -0.17451643157E+03  0.17451643157E+03  0.00000000000E+00 0. -1.
         23    2    1    2    0    0  0.46437658656E+02  0.31019677107E+02 -0.73853706669E+02  0.13024648026E+03  0.91602942761E+02 0.  0.
         23    2    1    2    0    0 -0.46437658656E+02 -0.31019677107E+02 -0.33319391792E+02  0.11161328442E+03  0.90711999649E+02 0.  0.
          5    1    3    3  502    0  0.18962948854E+02  0.44116036430E+02 -0.84797295971E+02  0.97562746494E+02  0.47000000000E+01 0. -1.
         -5    1    4    4    0  503  0.73128239717E+01 -0.48781441219E+02 -0.18671825159E+02  0.52951236592E+02  0.47000000000E+01 0.  1.
          5    1    4    4  503    0 -0.53750482628E+02  0.17761764112E+02 -0.14647566633E+02  0.58662047828E+02  0.47000000000E+01 0. -1.
         -5    1    3    3    0  502  0.27474709802E+02 -0.13096359323E+02  0.10943589302E+02  0.32683733768E+02  0.47000000000E+01 0.  1.
<mgrwt>
<rscale>  0 0.10709319E+03</rscale>
<asrwt>0</asrwt>
<pdfrwt beam="1">  1        1 0.26848682E-01 0.10728362E+03</pdfrwt>
<pdfrwt beam="2">  1       -1 0.10360513E-01 0.10728362E+03</pdfrwt>
<totfact> 0.93147100E+03</totfact>
</mgrwt>
</event>
<event>
 8    1  0.2964543E-004  0.1034974E+03  0.7546771E-02  0.1274334E+00
         -1   -1    0    0    0  501 -0.00000000000E+00  0.00000000000E+00  0.65167802771E+03  0.65167802771E+03  0.00000000000E+00 0.  1.
          1   -1    0    0  501    0  0.00000000000E+00 -0.00000000000E+00 -0.27311017946E+02  0.27311017946E+02  0.00000000000E+00 0. -1.
         23    2    1    2    0    0  0.41668088265E+02 -0.23119592198E+02  0.92096389039E+02  0.13674949767E+03  0.89151192459E+02 0.  0.
         23    2    1    2    0    0 -0.41668088265E+02  0.23119592198E+02  0.53227062072E+03  0.54223954798E+03  0.91874744001E+02 0.  0.
          5    1    3    3  502    0  0.64400850991E+02 -0.25164174952E+02  0.89656798039E+02  0.11331873960E+03  0.47000000000E+01 0. -1.
         -5    1    3    3    0  502 -0.22732762726E+02  0.20445827541E+01  0.24395910003E+01  0.23430758076E+02  0.47000000000E+01 0.  1.
          5    1    4    4  503    0  0.28026066756E+02 -0.21960479805E+01  0.12099975328E+03  0.12431135643E+03  0.47000000000E+01 0. -1.
         -5    1    4    4    0  503 -0.69694155021E+02  0.25315640179E+02  0.41127086745E+03  0.41792819155E+03  0.47000000000E+01 0.  1.
<mgrwt>
<rscale>  0 0.10288960E+03</rscale>
<asrwt>0</asrwt>
<pdfrwt beam="1">  1        1 0.42016956E-02 0.10349741E+03</pdfrwt>
<pdfrwt beam="2">  1       -1 0.10025815E+00 0.10349741E+03</pdfrwt>
<totfact> 0.20351661E+03</totfact>
</mgrwt>
</event>
<event>
 8    1  0.2964543E-004  0.1184658E+03  0.7546771E-02  0.1246733E+00
         -1   -1    0    0    0  501 -0.00000000000E+00  0.00000000000E+00  0.19652567442E+03  0.19652567442E+03  0.00000000000E+00 0.  1.
          1   -1    0    0  501    0  0.00000000000E+00 -0.00000000000E+00 -0.75708196777E+02  0.75708196777E+02  0.00000000000E+00 0. -1.
         23    2    1    2    0    0  0.71969325096E+02 -0.57217809974E+01  0.97561005286E+02  0.15150691076E+03  0.90685565132E+02 0.  0.
         23    2    1    2    0    0 -0.71969325096E+02  0.57217809974E+01  0.23256472352E+02  0.12072696043E+03  0.93924506580E+02 0.  0.
          5    1    4    4  502    0 -0.67488842498E+02  0.42380034931E+02  0.71069313682E+01  0.80146177051E+02  0.47000000000E+01 0. -1.
         -5    1    4    4    0  502 -0.44804825982E+01 -0.36658253934E+02  0.16149540984E+02  0.40580783381E+02  0.47000000000E+01 0.  1.
          5    1    3    3  503    0 -0.11271900624E+02 -0.20204158289E+02  0.17453671630E+01  0.23672770484E+02  0.47000000000E+01 0. -1.
         -5    1    3    3    0  503  0.83241225720E+02  0.14482377292E+02  0.95815638123E+02  0.12783414028E+03  0.47000000000E+01 0.  1.
<mgrwt>
<rscale>  0 0.11782275E+03</rscale>
<asrwt>0</asrwt>
<pdfrwt beam="1">  1        1 0.11647415E-01 0.11846576E+03</pdfrwt>
<pdfrwt beam="2">  1       -1 0.30234719E-01 0.11846576E+03</pdfrwt>
<totfact> 0.49768320E+03</totfact>
</mgrwt>
</event>
<event>
 8    1  0.2964543E-004  0.1060842E+03  0.7546771E-02  0.1268861E+00
          2   -1    0    0  501    0  0.00000000000E+00  0.00000000000E+00  0.25261162547E+03  0.25261162547E+03  0.00000000000E+00 0. -1.
         -2   -1    0    0    0  501 -0.00000000000E+00 -0.00000000000E+00 -0.12044291604E+03  0.12044291604E+03  0.00000000000E+00 0.  1.
         23    2    1    2    0    0  0.48800401561E+02  0.30412579552E+01 -0.82494067762E+02  0.13438427806E+03  0.94144221969E+02 0.  0.
         23    2    1    2    0    0 -0.48800401561E+02 -0.30412579552E+01  0.21466277720E+03  0.23867026346E+03  0.92155620022E+02 0.  0.
          5    1    3    3  502    0  0.41714396374E+01 -0.27793317464E+02  0.72608840319E+01  0.29405438973E+02  0.47000000000E+01 0. -1.
         -5    1    4    4    0  503 -0.10882619412E+02  0.42587888115E+02  0.79001009248E+02  0.90528498726E+02  0.47000000000E+01 0.  1.
          5    1    4    4  503    0 -0.37917782150E+02 -0.45629146070E+02  0.13566176795E+03  0.14814176473E+03  0.47000000000E+01 0. -1.
         -5    1    3    3    0  502  0.44628961924E+02  0.30834575419E+02 -0.89754951794E+02  0.10497883908E+03  0.47000000000E+01 0.  1.
<mgrwt>
<rscale>  0 0.10564127E+03</rscale>
<asrwt>0</asrwt>
<pdfrwt beam="1">  1        2 0.38863327E-01 0.10608423E+03</pdfrwt>
<pdfrwt beam="2">  1       -2 0.18529679E-01 0.10608423E+03</pdfrwt>
<totfact> 0.30190127E+03</totfact>
</mgrwt>
</event>
<event>
 8    1  0.2964543E-004  0.1368735E+03  0.7546771E-02  0.1218952E+00
          2   -1    0    0  501    0  0.00000000000E+00  0.00000000000E+00  0.68229489647E+03  0.68229489647E+03  0.00000000000E+00 0. -1.
         -2   -1    0    0    0  501 -0.00000000000E+00 -0.00000000000E+00 -0.28077760753E+02  0.28077760753E+02  0.00000000000E+00 0.  1.
         23    2    1    2    0    0 -0.94993951848E+02  0.30495137445E+02  0.40157940121E+03  0.42303976230E+03  0.87993299240E+02 0.  0.
         23    2    1    2    0    0  0.94993951848E+02 -0.30495137445E+02  0.25263773450E+03  0.28733289492E+03  0.93704660052E+02 0.  0.
          5    1    3    3  502    0 -0.22524747786E+02  0.18853457294E+02  0.27530543416E+03  0.27690790742E+03  0.47000000000E+01 0. -1.
         -5    1    3    3    0  502 -0.72469204062E+02  0.11641680151E+02  0.12627396705E+03  0.14613185487E+03  0.47000000000E+01 0.  1.
          5    1    4    4  503    0  0.80082629138E+02  0.19374081625E+02  0.17818157887E+03  0.19636534210E+03  0.47000000000E+01 0. -1.
         -5    1    4    4    0  503  0.14911322709E+02 -0.49869219070E+02  0.74456155628E+02  0.90967552823E+02  0.47000000000E+01 0.  1.
<mgrwt>
<rscale>  0 0.13590203E+03</rscale>
<asrwt>0</asrwt>
<pdfrwt beam="1">  1        2 0.10496843E+00 0.13687355E+03</pdfrwt>
<pdfrwt beam="2">  1       -2 0.43196560E-02 0.13687355E+03</pdfrwt>
<totfact> 0.10136386E+04</totfact>
</mgrwt>
</event>
<event>
 8    1  0.2964543E-004  0.1223290E+03  0.7546771E-02  0.1239333E+00
          1   -1    0    0  501    0  0.00000000000E+00  0.00000000000E+00  0.24473228350E+02  0.24473228350E+02  0.00000000000E+00 0. -1.
         -1   -1    0    0    0  501 -0.00000000000E+00 -0.00000000000E+00 -0.72146781630E+03  0.72146781630E+03  0.00000000000E+00 0.  1.
         23    2    1    2    0    0  0.80674188142E+02 -0.85233134215E+01 -0.49446111002E+03  0.50936840084E+03  0.91560946608E+02 0.  0.
         23    2    1    2    0    0 -0.80674188142E+02  0.85233134215E+01 -0.20253347793E+03  0.23657264381E+03  0.91464936532E+02 0.  0.
          5    1    3    3  502    0  0.37083726179E+02  0.29461385920E+02 -0.10098086745E+03  0.11163512708E+03  0.47000000000E+01 0. -1.
         -5    1    4    4    0  503 -0.25228299225E+02 -0.21762344533E+02 -0.15158647519E+03  0.15527593562E+03  0.47000000000E+01 0.  1.
          5    1    4    4  503    0 -0.55445888917E+02  0.30285657954E+02 -0.50947002741E+02  0.81296708198E+02  0.47000000000E+01 0. -1.
         -5    1    3    3    0  502  0.43590461963E+02 -0.37984699341E+02 -0.39348024257E+03  0.39773327375E+03  0.47000000000E+01 0.  1.
<mgrwt>
<rscale>  0 0.12231101E+03</rscale>
<asrwt>0</asrwt>
<pdfrwt beam="1">  1        1 0.37651121E-02 0.12232898E+03</pdfrwt>
<pdfrwt beam="2">  1       -1 0.11099505E+00 0.12232898E+03</pdfrwt>
<totfact> 0.19009841E+03</totfact>
</mgrwt>
</event>
<event>
 8    1  0.2964543E-004  0.9838221E+02  0.7546771E-02  0.1285834E+00
          2   -1    0    0  501    0  0.00000000000E+00  0.00000000000E+00  0.46061880953E+03  0.46061880953E+03  0.00000000000E+00 0. -1.
         -2   -1    0    0    0  501 -0.00000000000E+00 -0.00000000000E+00 -0.67003146970E+02  0.67003146970E+02  0.00000000000E+00 0.  1.
         23    2    1    2    0    0 -0.26334713886E+02 -0.98763206069E+01 -0.22479324994E+02  0.10091768401E+03  0.94276190157E+02 0.  0.
         23    2    1    2    0    0  0.26334713886E+02  0.98763206069E+01  0.41609498756E+03  0.42670427249E+03  0.90279779717E+02 0.  0.
          5    1    3    3  502    0 -0.39111937617E+02  0.33921037353E+02 -0.17167212764E+02  0.54746539921E+02  0.47000000000E+01 0. -1.
         -5    1    3    3    0  502  0.12777223731E+02 -0.43797357960E+02 -0.53121122298E+01  0.46171144093E+02  0.47000000000E+01 0.  1.
          5    1    4    4  503    0  0.24276954153E+02  0.44847296737E+02  0.32467916695E+03  0.32869332513E+03  0.47000000000E+01 0. -1.
         -5    1    4    4    0  503  0.20577597331E+01 -0.34970976130E+02  0.91415820603E+02  0.98010947364E+02  0.47000000000E+01 0.  1.
<mgrwt>
<rscale>  0 0.97412280E+02</rscale>
<asrwt>0</asrwt>
<pdfrwt beam="1">  1        2 0.70864430E-01 0.98382208E+02</pdfrwt>
<pdfrwt beam="2">  1       -2 0.10308177E-01 0.98382208E+02</pdfrwt>
<totfact> 0.41022254E+03</totfact>
</mgrwt>
</event>
<event>
 8    1  0.2964543E-004  0.9094506E+02  0.7546771E-02  0.1301149E+00
         -2   -1    0    0    0  501 -0.00000000000E+00  0.00000000000E+00  0.16128944147E+03  0.16128944147E+03  0.00000000000E+00 0.  1.
          2   -1    0    0  501    0  0.00000000000E+00 -0.00000000000E+00 -0.57830658234E+02  0.57830658234E+02  0.00000000000E+00 0. -1.
         23    2    1    2    0    0 -0.38603020442E+00 -0.33625094587E+01  0.13147168223E+02  0.90951489896E+02  0.89932585823E+02 0.  0.
         23    2    1    2    0    0  0.38603020442E+00  0.33625094587E+01  0.90311615017E+02  0.12816860981E+03  0.90882062284E+02 0.  0.
          5    1    4    4  502    0  0.34165826999E+02 -0.21797470684E+02  0.70343472766E+02  0.81318679425E+02  0.47000000000E+01 0. -1.
         -5    1    3    3    0  503  0.26837663820E+02  0.12767998513E+02 -0.26438919904E+02  0.40054818325E+02  0.47000000000E+01 0.  1.
          5    1    3    3  503    0 -0.27223694025E+02 -0.16130507971E+02  0.39586088128E+02  0.50896671571E+02  0.47000000000E+01 0. -1.
         -5    1    4    4    0  502 -0.33779796795E+02  0.25159980143E+02  0.19968142252E+02  0.46849930387E+02  0.47000000000E+01 0.  1.
<mgrwt>
<rscale>  0 0.90706928E+02</rscale>
<asrwt>0</asrwt>
<pdfrwt beam="1">  1        2 0.88970244E-02 0.90945064E+02</pdfrwt>
<pdfrwt beam="2">  1       -2 0.24813760E-01 0.90945064E+02</pdfrwt>
<totfact> 0.96699605E+03</totfact>
</mgrwt>
</event>
<event>
 8    1  0.2964543E-004  0.1105966E+03  0.7546771E-02  0.1271584E+00
          2   -1    0    0  501    0  0.00000000000E+00  0.00000000000E+00  0.85387985237E+02  0.85387985237E+02  0.00000000000E+00 0. -1.
         -2   -1    0    0    0  501 -0.00000000000E+00 -0.00000000000E+00 -0.11694575929E+03  0.11694575929E+03  0.00000000000E+00 0.  1.
         23    2    1    2    0    0  0.87711557624E+01 -0.37921041070E+01 -0.37227931060E+01  0.11065925445E+03  0.11018302129E+03 0.  0.
         23    2    1    2    0    0 -0.87711557624E+01  0.37921041070E+01 -0.27834980949E+02  0.91674490076E+02  0.86822305540E+02 0.  0.
          5    1    4    4  502    0  0.26288863133E+02 -0.12906126593E+02  0.15358240000E+02  0.33401167111E+02  0.47000000000E+01 0. -1.
         -5    1    3    3    0  503  0.57553647870E+02  0.69453059937E+01  0.91166112698E+01  0.58871574291E+02  0.47000000000E+01 0.  1.
          5    1    3    3  503    0 -0.48782492107E+02 -0.10737410101E+02 -0.12839404376E+02  0.51787680162E+02  0.47000000000E+01 0. -1.
         -5    1    4    4    0  502 -0.35060018895E+02  0.16698230700E+02 -0.43193220949E+02  0.58273322965E+02  0.47000000000E+01 0.  1.
<mgrwt>
<rscale>  0 0.10426003E+03</rscale>
<asrwt>0</asrwt>
<pdfrwt beam="1">  1        2 0.13136613E-01 0.11059662E+03</pdfrwt>
<pdfrwt beam="2">  1       -2 0.17991655E-01 0.11059662E+03</pdfrwt>
<totfact> 0.10614942E+04</totfact>
</mgrwt>
</event>
<event>
 8    1  0.2964543E-004  0.1054503E+03  0.7546771E-02  0.1272744E+00
          3   -1    0    0  501    0  0.00000000000E+00  0.00000000000E+00  0.72947350609E+03  0.72947350609E+03  0.00000000000E+00 0. -1.
         -3   -1    0    0    0  501 -0.00000000000E+00 -0.00000000000E+00 -0.14635764153E+02  0.14635764153E+02  0.00000000000E+00 0.  1.
         23    2    1    2    0    0 -0.50654961526E+02 -0.12654142485E+02  0.30973679061E+03  0.32719512647E+03  0.91617241178E+02 0.  0.
         23    2    1    2    0    0  0.50654961526E+02  0.12654142485E+02  0.40510095133E+03  0.41691414377E+03  0.83573740251E+02 0.  0.
          5    1    4    4  502    0  0.28716503182E+02  0.40746733870E+02  0.12724368439E+03  0.13674055394E+03  0.47000000000E+01 0. -1.
         -5    1    3    3    0  503 -0.50827863089E+02 -0.46069402995E+02  0.16863836760E+03  0.18211768334E+03  0.47000000000E+01 0.  1.
          5    1    3    3  503    0  0.17290156346E+00  0.33415260510E+02  0.14109842301E+03  0.14507744313E+03  0.47000000000E+01 0. -1.
         -5    1    4    4    0  502  0.21938458344E+02 -0.28092591385E+02  0.27785726694E+03  0.28017358983E+03  0.47000000000E+01 0.  1.
<mgrwt>
<rscale>  0 0.10367925E+03</rscale>
<asrwt>0</asrwt>
<pdfrwt beam="1">  1        3 0.11222667E+00 0.10545033E+03</pdfrwt>
<pdfrwt beam="2">  1       -3 0.22516566E-02 0.10545033E+03</pdfrwt>
<totfact> 0.12180917E+03</totfact>
</mgrwt>
</event>
<event>
 8    1  0.2964543E-004  0.9386039E+02  0.7546771E-02  0.1294493E+00
         -2   -1    0    0    0  501 -0.00000000000E+00  0.00000000000E+00  0.46447413048E+02  0.46447413048E+02  0.00000000000E+00 0.  1.
          2   -1    0    0  501    0  0.00000000000E+00 -0.00000000000E+00 -0.19244181635E+03  0.19244181635E+03  0.00000000000E+00 0. -1.
         23    2    1    2    0    0  0.72788535482E+00  0.36396912361E+01 -0.93335652956E+02  0.13236811037E+03  0.93786967971E+02 0.  0.
         23    2    1    2    0    0 -0.72788535482E+00 -0.36396912361E+01 -0.52658750347E+02  0.10652111903E+03  0.92520417430E+02 0.  0.
          5    1    4    4  502    0 -0.23764528064E+02  0.32956661556E+02 -0.47554220276E+02  0.62724701682E+02  0.47000000000E+01 0. -1.
         -5    1    3    3    0  503 -0.33945370470E+02 -0.27147511662E+02 -0.63269335002E+02  0.76904969394E+02  0.47000000000E+01 0.  1.
          5    1    3    3  503    0  0.34673255825E+02  0.30787202899E+02 -0.30066317953E+02  0.55463140977E+02  0.47000000000E+01 0. -1.
         -5    1    4    4    0  502  0.23036642709E+02 -0.36596352793E+02 -0.51045300704E+01  0.43796417345E+02  0.47000000000E+01 0.  1.
<mgrwt>
<rscale>  0 0.93542390E+02</rscale>
<asrwt>0</asrwt>
<pdfrwt beam="1">  1        2 0.29606433E-01 0.93860389E+02</pdfrwt>
<pdfrwt beam="2">  1       -2 0.71457559E-02 0.93860389E+02</pdfrwt>
<totfact> 0.18042174E+04</totfact>
</mgrwt>
</event>
<event>
 8    1  0.2964543E-004  0.9812141E+02  0.7546771E-02  0.1287787E+00
          1   -1    0    0  501    0  0.00000000000E+00  0.00000000000E+00  0.34556276106E+02  0.34556276106E+02  0.00000000000E+00 0. -1.
         -1   -1    0    0    0  501 -0.00000000000E+00 -0.00000000000E+00 -0.36631357543E+03  0.36631357543E+03  0.00000000000E+00 0.  1.
         23    2    1    2    0    0 -0.29074213765E+02 -0.16370620008E+02 -0.26933939210E+03  0.28457795196E+03  0.85601375547E+02 0.  0.
         23    2    1    2    0    0  0.29074213765E+02  0.16370620008E+02 -0.62417907226E+02  0.11629189959E+03  0.92274068194E+02 0.  0.
          5    1    4    4  502    0  0.44688796733E+02 -0.22762642492E+02 -0.14724365193E+02  0.52479742539E+02  0.47000000000E+01 0. -1.
         -5    1    4    4    0  502 -0.15614582968E+02  0.39133262500E+02 -0.47693542033E+02  0.63812157046E+02  0.47000000000E+01 0.  1.
          5    1    3    3  503    0  0.28966081919E+02  0.50277435821E+01 -0.92393838703E+02  0.97072259361E+02  0.47000000000E+01 0. -1.
         -5    1    3    3    0  503 -0.58040295683E+02 -0.21398363591E+02 -0.17694555340E+03  0.18750569259E+03  0.47000000000E+01 0.  1.
<mgrwt>
<rscale>  0 0.96520917E+02</rscale>
<asrwt>0</asrwt>
<pdfrwt beam="1">  1        1 0.53163500E-02 0.98121408E+02</pdfrwt>
<pdfrwt beam="2">  1       -1 0.56355937E-01 0.98121408E+02</pdfrwt>
<totfact> 0.46749634E+03</totfact>
</mgrwt>
</event>
<event>
 8    1  0.2964543E-004  0.1231767E+03  0.7546771E-02  0.1238327E+00
          1   -1    0    0  501    0  0.00000000000E+00  0.00000000000E+00  0.13046327592E+03  0.13046327592E+03  0.00000000000E+00 0. -1.
         -1   -1    0    0    0  501 -0.00000000000E+00 -0.00000000000E+00 -0.12891600021E+03  0.12891600021E+03  0.00000000000E+00 0.  1.
         23    2    1    2    0    0 -0.59155086443E+02 -0.56818369357E+02 -0.41221147524E+02  0.12898894381E+03  0.90616296949E+02 0.  0.
         23    2    1    2    0    0  0.59155086443E+02  0.56818369357E+02  0.42768423236E+02  0.13039033232E+03  0.91895861646E+02 0.  0.
          5    1    4    4  502    0  0.62348496631E+02  0.17490558362E+02  0.58749853183E+02  0.87560778394E+02  0.47000000000E+01 0. -1.
         -5    1    3    3    0  503 -0.41635810215E+02 -0.80920827916E+02 -0.37710999689E+02  0.98620132734E+02  0.47000000000E+01 0.  1.
          5    1    3    3  503    0 -0.17519276228E+02  0.24102458559E+02 -0.35101478349E+01  0.30368811073E+02  0.47000000000E+01 0. -1.
         -5    1    4    4    0  502 -0.31934101880E+01  0.39327810995E+02 -0.15981429947E+02  0.42829553925E+02  0.47000000000E+01 0.  1.
<mgrwt>
<rscale>  0 0.12293810E+03</rscale>
<asrwt>0</asrwt>
<pdfrwt beam="1">  1        1 0.20071273E-01 0.12317671E+03</pdfrwt>
<pdfrwt beam="2">  1       -1 0.19833231E-01 0.12317671E+03</pdfrwt>
<totfact> 0.49323031E+03</totfact>
</mgrwt>
</event>
<event>
 8    1  0.2964543E-004  0.1020379E+03  0.7546771E-02  0.1277804E+00
         -2   -1    0    0    0  501 -0.00000000000E+00  0.00000000000E+00  0.33801713562E+03  0.33801713562E+03  0.00000000000E+00 0.  1.
          2   -1    0    0  501    0  0.00000000000E+00 -0.00000000000E+00 -0.12935844917E+03  0.12935844917E+03  0.00000000000E+00 0. -1.
         23    2    1    2    0    0  0.20024989663E+02  0.27101585572E+02  0.30893005801E+03  0.32431590038E+03  0.92776755421E+02 0.  0.
         23    2    1    2    0    0 -0.20024989663E+02 -0.27101585572E+02 -0.10027137156E+03  0.14305968441E+03  0.96313182883E+02 0.  0.
          5    1    3    3  502    0  0.45404359738E+02  0.13154711188E+02  0.76556625794E+02  0.90097776125E+02  0.47000000000E+01 0. -1.
         -5    1    4    4    0  503  0.19176601814E+02  0.26533822844E+02 -0.48501209207E+02  0.58704711109E+02  0.47000000000E+01 0.  1.
          5    1    4    4  503    0 -0.39201591477E+02 -0.53635408416E+02 -0.51770162354E+02  0.84354973300E+02  0.47000000000E+01 0. -1.
         -5    1    3    3    0  502 -0.25379370074E+02  0.13946874384E+02  0.23237343221E+03  0.23421812425E+03  0.47000000000E+01 0.  1.
<mgrwt>
<rscale>  0 0.10119469E+03</rscale>
<asrwt>0</asrwt>
<pdfrwt beam="1">  1        2 0.19901300E-01 0.10203786E+03</pdfrwt>
<pdfrwt beam="2">  1       -2 0.52002636E-01 0.10203786E+03</pdfrwt>
<totfact> 0.96525066E+02</totfact>
</mgrwt>
</event>
<event>
 8    1  0.2964543E-004  0.1168890E+03  0.7546771E-02  0.1250527E+00
         -1   -1    0    0    0  501 -0.00000000000E+00  0.00000000000E+00  0.28924929528E+02  0.28924929528E+02  0.00000000000E+00 0.  1.
          1   -1    0    0  501    0  0.00000000000E+00 -0.00000000000E+00 -0.45318787667E+03  0.45318787667E+03  0.00000000000E+00 0. -1.
         23    2    1    2    0    0  0.85823671237E+01  0.65104330471E+02 -0.21881020639E+03  0.24573626683E+03  0.90532731905E+02 0.  0.
         23    2    1    2    0    0 -0.85823671237E+01 -0.65104330471E+02 -0.20545274075E+03  0.23637653936E+03  0.96699580181E+02 0.  0.
          5    1    3    3  502    0  0.38720866858E+02  0.74676756989E+01 -0.12742538992E+03  0.13347056494E+03  0.47000000000E+01 0. -1.
         -5    1    4    4    0  503 -0.27793872781E+02  0.16316580138E+02 -0.68024502715E+02  0.75419845672E+02  0.47000000000E+01 0.  1.
          5    1    4    4  503    0  0.19211505657E+02 -0.81420910609E+02 -0.13742823804E+03  0.16095669369E+03  0.47000000000E+01 0. -1.
         -5    1    3    3    0  502 -0.30138499734E+02  0.57636654772E+02 -0.91384816468E+02  0.11226570189E+03  0.47000000000E+01 0.  1.
<mgrwt>
<rscale>  0 0.11560603E+03</rscale>
<asrwt>0</asrwt>
<pdfrwt beam="1">  1        1 0.69721204E-01 0.11688901E+03</pdfrwt>
<pdfrwt beam="2">  1       -1 0.44499896E-02 0.11688901E+03</pdfrwt>
<totfact> 0.10143339E+04</totfact>
</mgrwt>
</event>
<event>
 8    1  0.2964543E-004  0.1489929E+03  0.7546771E-02  0.1204678E+00
         -1   -1    0    0    0  501 -0.00000000000E+00  0.00000000000E+00  0.34649929959E+02  0.34649929959E+02  0.00000000000E+00 0.  1.
          1   -1    0    0  501    0  0.00000000000E+00 -0.00000000000E+00 -0.70347511179E+03  0.70347511179E+03  0.00000000000E+00 0. -1.
         23    2    1    2    0    0 -0.99914686756E+02  0.58636226005E+02 -0.18485842082E+03  0.23174305367E+03  0.78173240617E+02 0.  0.
         23    2    1    2    0    0  0.99914686756E+02 -0.58636226005E+02 -0.48396676101E+03  0.50638198807E+03  0.93689596286E+02 0.  0.
          5    1    4    4  502    0  0.85221216080E+02 -0.11119037795E+02 -0.39574440270E+03  0.40499630979E+03  0.47000000000E+01 0. -1.
         -5    1    3    3    0  503 -0.24627160211E+02 -0.18969120917E+01 -0.99878492269E+02  0.10299465284E+03  0.47000000000E+01 0.  1.
          5    1    3    3  503    0 -0.75287526545E+02  0.60533138096E+02 -0.84979928551E+02  0.12874840084E+03  0.47000000000E+01 0. -1.
         -5    1    4    4    0  502  0.14693470677E+02 -0.47517188209E+02 -0.88222358305E+02  0.10138567828E+03  0.47000000000E+01 0.  1.
<mgrwt>
<rscale>  0 0.14662842E+03</rscale>
<asrwt>0</asrwt>
<pdfrwt beam="1">  1        1 0.10822694E+00 0.14899293E+03</pdfrwt>
<pdfrwt beam="2">  1       -1 0.53307586E-02 0.14899293E+03</pdfrwt>
<totfact> 0.43634538E+03</totfact>
</mgrwt>
</event>
<event>
 8    1  0.2964543E-004  0.1280677E+03  0.7546771E-02  0.1231657E+00
         -1   -1    0    0    0  501 -0.00000000000E+00  0.00000000000E+00  0.71324476681E+02  0.71324476681E+02  0.00000000000E+00 0.  1.
          1   -1    0    0  501    0  0.00000000000E+00 -0.00000000000E+00 -0.24005258777E+03  0.24005258777E+03  0.00000000000E+00 0. -1.
         23    2    1    2    0    0 -0.64786011796E+02 -0.53866559106E+02 -0.12370233030E+03  0.17562491893E+03  0.91885864606E+02 0.  0.
         23    2    1    2    0    0  0.64786011796E+02  0.53866559106E+02 -0.45025780786E+02  0.13575214551E+03  0.96449419708E+02 0.  0.
          5    1    3    3  502    0 -0.40395959260E+02 -0.77701456823E+02 -0.71796216997E+02  0.11334079889E+03  0.47000000000E+01 0. -1.
         -5    1    4    4    0  503  0.44864481239E+02  0.80591183087E+02 -0.21920149433E+02  0.94922828758E+02  0.47000000000E+01 0.  1.
          5    1    4    4  503    0  0.19921530557E+02 -0.26724623980E+02 -0.23105631353E+02  0.40829316757E+02  0.47000000000E+01 0. -1.
         -5    1    3    3    0  502 -0.24390052536E+02  0.23834897717E+02 -0.51906113305E+02  0.62284120050E+02  0.47000000000E+01 0.  1.
<mgrwt>
<rscale>  0 0.12720888E+03</rscale>
<asrwt>0</asrwt>
<pdfrwt beam="1">  1        1 0.36931168E-01 0.12806765E+03</pdfrwt>
<pdfrwt beam="2">  1       -1 0.10972996E-01 0.12806765E+03</pdfrwt>
<totfact> 0.58283566E+03</totfact>
</mgrwt>
</event>
<event>
 8    1  0.2964543E-004  0.1217413E+03  0.7546771E-02  0.1241001E+00
          1   -1    0    0  501    0  0.00000000000E+00  0.00000000000E+00  0.87887487463E+03  0.87887487463E+03  0.00000000000E+00 0. -1.
         -1   -1    0    0    0  501 -0.00000000000E+00 -0.00000000000E+00 -0.17046973109E+02  0.17046973109E+02  0.00000000000E+00 0.  1.
         23    2    1    2    0    0 -0.36814898449E+01 -0.78469034033E+02  0.50581197158E+03  0.52025636661E+03  0.93005342506E+02 0.  0.
         23    2    1    2    0    0  0.36814898449E+01  0.78469034033E+02  0.35601592994E+03  0.37566548113E+03  0.90588457715E+02 0.  0.
          5    1    4    4  502    0  0.43293681175E+02  0.17475528939E+02  0.13194983657E+03  0.14004494390E+03  0.47000000000E+01 0. -1.
         -5    1    3    3    0  503  0.14766897963E+02 -0.90710084145E+02  0.46051427934E+03  0.46961885835E+03  0.47000000000E+01 0.  1.
          5    1    3    3  503    0 -0.18448387808E+02  0.12241050113E+02  0.45297692240E+02  0.50637508261E+02  0.47000000000E+01 0. -1.
         -5    1    4    4    0  502 -0.39612191330E+02  0.60993505093E+02  0.22406609337E+03  0.23562053723E+03  0.47000000000E+01 0.  1.
<mgrwt>
<rscale>  0 0.12127958E+03</rscale>
<asrwt>0</asrwt>
<pdfrwt beam="1">  1        1 0.13521148E+00 0.12174127E+03</pdfrwt>
<pdfrwt beam="2">  1       -1 0.26226119E-02 0.12174127E+03</pdfrwt>
<totfact> 0.87520798E+03</totfact>
</mgrwt>
</event>
<event>
 8    1  0.2964543E-004  0.9189423E+02  0.7546771E-02  0.1299096E+00
          3   -1    0    0  501    0  0.00000000000E+00  0.00000000000E+00  0.32462044938E+03  0.32462044938E+03  0.00000000000E+00 0. -1.
         -3   -1    0    0    0  501 -0.00000000000E+00 -0.00000000000E+00 -0.25648773032E+02  0.25648773032E+02  0.00000000000E+00 0.  1.
         23    2    1    2    0    0  0.15696041069E+01  0.44946852134E+01  0.15015232178E+03  0.17604053106E+03  0.91770817733E+02 0.  0.
         23    2    1    2    0    0 -0.15696041069E+01 -0.44946852134E+01  0.14881935457E+03  0.17422869135E+03  0.90475249346E+02 0.  0.
          5    1    3    3  502    0 -0.23750122372E+01 -0.40525743675E+02  0.41373020924E+02  0.58153189456E+02  0.47000000000E+01 0.  1.
         -5    1    4    4    0  503 -0.38568618977E+02  0.16304194373E+01  0.28779547673E+02  0.48379220763E+02  0.47000000000E+01 0.  1.
          5    1    4    4  503    0  0.36999014870E+02 -0.61251046507E+01  0.12003980690E+03  0.12584947059E+03  0.47000000000E+01 0. -1.
         -5    1    3    3    0  502  0.39446163441E+01  0.45020428889E+02  0.10877930085E+03  0.11788734160E+03  0.47000000000E+01 0. -1.
<mgrwt>
<rscale>  0 0.91569054E+02</rscale>
<asrwt>0</asrwt>
<pdfrwt beam="1">  1        3 0.49941605E-01 0.91894226E+02</pdfrwt>
<pdfrwt beam="2">  1       -3 0.39459653E-02 0.91894226E+02</pdfrwt>
<totfact> 0.28155524E+03</totfact>
</mgrwt>
</event>
<event>
 8    1  0.2964543E-004  0.1266171E+03  0.7546771E-02  0.1233913E+00
         -1   -1    0    0    0  501 -0.00000000000E+00  0.00000000000E+00  0.23834644574E+02  0.23834644574E+02  0.00000000000E+00 0.  1.
          1   -1    0    0  501    0  0.00000000000E+00 -0.00000000000E+00 -0.65531451659E+03  0.65531451659E+03  0.00000000000E+00 0. -1.
         23    2    1    2    0    0 -0.85932043352E+02 -0.76239455585E+01 -0.30721720721E+03  0.33228646920E+03  0.92679256538E+02 0.  0.
         23    2    1    2    0    0  0.85932043352E+02  0.76239455585E+01 -0.32426266481E+03  0.34686269196E+03  0.87892039815E+02 0.  0.
          5    1    3    3  502    0 -0.88604794685E+02 -0.37405328233E+02 -0.22940382011E+03  0.24879343018E+03  0.47000000000E+01 0. -1.
         -5    1    4    4    0  503  0.91682795341E+02 -0.18617492585E+02 -0.27553393170E+03  0.29102127673E+03  0.47000000000E+01 0.  1.
          5    1    4    4  503    0 -0.57507519883E+01  0.26241438144E+02 -0.48728733113E+02  0.55841415232E+02  0.47000000000E+01 0. -1.
         -5    1    3    3    0  502  0.26727513322E+01  0.29781382674E+02 -0.77813387100E+02  0.83493039025E+02  0.47000000000E+01 0.  1.
<mgrwt>
<rscale>  0 0.12574285E+03</rscale>
<asrwt>0</asrwt>
<pdfrwt beam="1">  1        1 0.10081762E+00 0.12661708E+03</pdfrwt>
<pdfrwt beam="2">  1       -1 0.36668685E-02 0.12661708E+03</pdfrwt>
<totfact> 0.83024670E+03</totfact>
</mgrwt>
</event>
<event>
 8    1  0.2964543E-004  0.1105660E+03  0.7546771E-02  0.1261685E+00
         -1   -1    0    0    0  501 -0.00000000000E+00  0.00000000000E+00  0.16209866546E+02  0.16209866546E+02  0.00000000000E+00 0.  1.
          1   -1    0    0  501    0  0.00000000000E+00 -0.00000000000E+00 -0.73705195110E+03  0.73705195110E+03  0.00000000000E+00 0. -1.
         23    2    1    2    0    0  0.46295873477E+02 -0.34461811991E+02 -0.41959791433E+03  0.43392078510E+03  0.94307548179E+02 0.  0.
         23    2    1    2    0    0 -0.46295873477E+02  0.34461811991E+02 -0.30124417022E+03  0.31934103254E+03  0.88880372343E+02 0.  0.
          5    1    3    3  502    0  0.33263535136E+02 -0.60268563478E+02 -0.18404620869E+03  0.19655497818E+03  0.47000000000E+01 0.  1.
         -5    1    3    3    0  502  0.13032338342E+02  0.25806751487E+02 -0.23555170564E+03  0.23736580692E+03  0.47000000000E+01 0. -1.
          5    1    4    4  503    0 -0.56956939705E+02 -0.55504064441E+01 -0.11557745260E+03  0.12905478504E+03  0.47000000000E+01 0. -1.
         -5    1    4    4    0  503  0.10661066227E+02  0.40012218435E+02 -0.18566671762E+03  0.19028624750E+03  0.47000000000E+01 0.  1.
<mgrwt>
<rscale>  0 0.10939986E+03</rscale>
<asrwt>0</asrwt>
<pdfrwt beam="1">  1        1 0.11339259E+00 0.11056599E+03</pdfrwt>
<pdfrwt beam="2">  1       -1 0.24938259E-02 0.11056599E+03</pdfrwt>
<totfact> 0.12182951E+04</totfact>
</mgrwt>
</event>
<event>
 8    1  0.2964543E-004  0.1099269E+03  0.7546771E-02  0.1261607E+00
         -2   -1    0    0    0  501 -0.00000000000E+00  0.00000000000E+00  0.68773711033E+02  0.68773711033E+02  0.00000000000E+00 0.  1.
          2   -1    0    0  501    0  0.00000000000E+00 -0.00000000000E+00 -0.18601663875E+03  0.18601663875E+03  0.00000000000E+00 0. -1.
         23    2    1    2    0    0 -0.44302140108E+02 -0.27654297768E+02 -0.92304550030E+02  0.14207009782E+03  0.94532232256E+02 0.  0.
         23    2    1    2    0    0  0.44302140108E+02  0.27654297768E+02 -0.24938377684E+02  0.11272025196E+03  0.96728965243E+02 0.  0.
          5    1    4    4  502    0  0.31886772004E+02  0.50239246202E+02  0.18066909537E+02  0.62363862196E+02  0.47000000000E+01 0. -1.
         -5    1    3    3    0  503 -0.18108359124E+02 -0.46485738378E+02 -0.68088877868E+01  0.50569630171E+02  0.47000000000E+01 0.  1.
          5    1    3    3  503    0 -0.26193780984E+02  0.18831440610E+02 -0.85495662243E+02  0.91500467649E+02  0.47000000000E+01 0. -1.
         -5    1    4    4    0  502  0.12415368104E+02 -0.22584948435E+02 -0.43005287221E+02  0.50356389763E+02  0.47000000000E+01 0.  1.
<mgrwt>
<rscale>  0 0.10944175E+03</rscale>
<asrwt>0</asrwt>
<pdfrwt beam="1">  1        2 0.28617945E-01 0.10992694E+03</pdfrwt>
<pdfrwt beam="2">  1       -2 0.10580571E-01 0.10992694E+03</pdfrwt>
<totfact> 0.10367258E+04</totfact>
</mgrwt>
</event>
<event>
 8    1  0.2964543E-004  0.1008046E+03  0.7546771E-02  0.1279344E+00
         -3   -1    0    0    0  501 -0.00000000000E+00  0.00000000000E+00  0.67850219724E+02  0.67850219724E+02  0.00000000000E+00 0.  1.
          3   -1    0    0  501    0  0.00000000000E+00 -0.00000000000E+00 -0.14864334178E+03  0.14864334178E+03  0.00000000000E+00 0. -1.
         23    2    1    2    0    0 -0.20755811907E+02  0.38847902741E+02 -0.32048752158E+02  0.10577659021E+03  0.90673045862E+02 0.  0.
         23    2    1    2    0    0  0.20755811907E+02 -0.38847902741E+02 -0.48744369900E+02  0.11071697130E+03  0.89119419100E+02 0.  0.
          5    1    4    4  502    0  0.27206100057E+02 -0.65099349187E+02 -0.26938706118E+02  0.75669551553E+02  0.47000000000E+01 0. -1.
         -5    1    4    4    0  502 -0.64502881498E+01  0.26251446446E+02 -0.21805663782E+02  0.35047419744E+02  0.47000000000E+01 0.  1.
          5    1    3    3  503    0  0.25806041810E+02 -0.14259233623E+02 -0.12286077276E+02  0.32284907190E+02  0.47000000000E+01 0. -1.
         -5    1    3    3    0  503 -0.46561853717E+02  0.53107136365E+02 -0.19762674882E+02  0.73491683019E+02  0.47000000000E+01 0.  1.
<mgrwt>
<rscale>  0 0.10045397E+03</rscale>
<asrwt>0</asrwt>
<pdfrwt beam="1">  1        3 0.22868206E-01 0.10080459E+03</pdfrwt>
<pdfrwt beam="2">  1       -3 0.10438495E-01 0.10080459E+03</pdfrwt>
<totfact> 0.26196580E+03</totfact>
</mgrwt>
</event>
<event>
 8    1  0.2964543E-004  0.1012150E+03  0.7546771E-02  0.1277920E+00
          1   -1    0    0  501    0  0.00000000000E+00  0.00000000000E+00  0.11968631049E+03  0.11968631049E+03  0.00000000000E+00 0. -1.
         -1   -1    0    0    0  501 -0.00000000000E+00 -0.00000000000E+00 -0.10045773889E+03  0.10045773889E+03  0.00000000000E+00 0.  1.
         23    2    1    2    0    0 -0.33906562964E+02 -0.21135505985E+02  0.52307399578E+02  0.11366075991E+03  0.92662504102E+02 0.  0.
         23    2    1    2    0    0  0.33906562964E+02  0.21135505985E+02 -0.33078827977E+02  0.10648328947E+03  0.92995254988E+02 0.  0.
          5    1    4    4  502    0  0.41329947545E+02  0.40895935581E+02  0.91432587934E+01  0.59045163159E+02  0.47000000000E+01 0. -1.
         -5    1    4    4    0  502 -0.74233845810E+01 -0.19760429595E+02 -0.42222086771E+02  0.47438126309E+02  0.47000000000E+01 0.  1.
          5    1    3    3  503    0  0.12617597748E+02 -0.37014256386E+02 -0.30164185213E+01  0.39502502824E+02  0.47000000000E+01 0. -1.
         -5    1    3    3    0  503 -0.46524160712E+02  0.15878750400E+02  0.55323818100E+02  0.74158257081E+02  0.47000000000E+01 0.  1.
<mgrwt>
<rscale>  0 0.10113853E+03</rscale>
<asrwt>0</asrwt>
<pdfrwt beam="1">  1        1 0.18413279E-01 0.10121503E+03</pdfrwt>
<pdfrwt beam="2">  1       -1 0.15455037E-01 0.10121503E+03</pdfrwt>
<totfact> 0.80385685E+03</totfact>
</mgrwt>
</event>
<event>
 8    1  0.2964543E-004  0.9518710E+02  0.7546771E-02  0.1291997E+00
          1   -1    0    0  501    0  0.00000000000E+00  0.00000000000E+00  0.25292417876E+03  0.25292417876E+03  0.00000000000E+00 0. -1.
         -1   -1    0    0    0  501 -0.00000000000E+00 -0.00000000000E+00 -0.41358828764E+02  0.41358828764E+02  0.00000000000E+00 0.  1.
         23    2    1    2    0    0  0.28133620309E+02 -0.11213773737E+02  0.47081324406E+02  0.10424201300E+03  0.87934616924E+02 0.  0.
         23    2    1    2    0    0 -0.28133620309E+02  0.11213773737E+02  0.16448402559E+03  0.19004099452E+03  0.90240432245E+02 0.  0.
          5    1    3    3  502    0 -0.18951107251E+02 -0.11239443187E+02  0.51997750799E+02  0.56668559513E+02  0.47000000000E+01 0. -1.
         -5    1    3    3    0  502  0.47084727560E+02  0.25669450368E-01 -0.49164263923E+01  0.47573453488E+02  0.47000000000E+01 0.  1.
          5    1    4    4  503    0 -0.42154798487E+02 -0.79805170900E+01  0.15958767085E+03  0.16532099194E+03  0.47000000000E+01 0. -1.
         -5    1    4    4    0  503  0.14021178177E+02  0.19194290827E+02  0.48963547360E+01  0.24720002579E+02  0.47000000000E+01 0.  1.
<mgrwt>
<rscale>  0 0.94636574E+02</rscale>
<asrwt>0</asrwt>
<pdfrwt beam="1">  1        1 0.38911411E-01 0.95187105E+02</pdfrwt>
<pdfrwt beam="2">  1       -1 0.63628969E-02 0.95187105E+02</pdfrwt>
<totfact> 0.12122551E+04</totfact>
</mgrwt>
</event>
<event>
 8    1  0.2964543E-004  0.1012223E+03  0.7546771E-02  0.1280933E+00
         -2   -1    0    0    0  501 -0.00000000000E+00  0.00000000000E+00  0.26063050708E+02  0.26063050708E+02  0.00000000000E+00 0.  1.
          2   -1    0    0  501    0  0.00000000000E+00 -0.00000000000E+00 -0.51890474175E+03  0.51890474175E+03  0.00000000000E+00 0. -1.
         23    2    1    2    0    0 -0.23852609622E+02 -0.81138723098E+01 -0.95315560493E+02  0.13475690011E+03  0.91867209298E+02 0.  0.
         23    2    1    2    0    0  0.23852609622E+02  0.81138723098E+01 -0.39752613055E+03  0.41021089236E+03  0.98036573922E+02 0.  0.
          5    1    4    4  502    0  0.49167975578E+02 -0.14701018700E+02 -0.33414387107E+03  0.33809440449E+03  0.47000000000E+01 0. -1.
         -5    1    3    3    0  503 -0.21897542405E+02  0.40000575361E+02 -0.36509497684E+02  0.58605305338E+02  0.47000000000E+01 0.  1.
          5    1    3    3  503    0 -0.19550672169E+01 -0.48114447671E+02 -0.58806062809E+02  0.76151594767E+02  0.47000000000E+01 0. -1.
         -5    1    4    4    0  502 -0.25315365956E+02  0.22814891009E+02 -0.63382259482E+02  0.72116487867E+02  0.47000000000E+01 0.  1.
<mgrwt>
<rscale>  0 0.99697473E+02</rscale>
<asrwt>0</asrwt>
<pdfrwt beam="1">  1        2 0.79831499E-01 0.10122229E+03</pdfrwt>
<pdfrwt beam="2">  1       -2 0.40097001E-02 0.10122229E+03</pdfrwt>
<totfact> 0.15079840E+04</totfact>
</mgrwt>
</event>
<event>
 7    1  0.2964543E-004  0.1397092E+03  0.7546771E-02  0.1233174E+00
          3   -1    0    0  501    0  0.00000000000E+00  0.00000000000E+00  0.22105609265E+03  0.22105609265E+03  0.00000000000E+00 0. -1.
         -3   -1    0    0    0  501 -0.00000000000E+00 -0.00000000000E+00 -0.86839809819E+02  0.86839809819E+02  0.00000000000E+00 0.  1.
         23    2    1    2    0    0 -0.19338772212E+02  0.11773962671E+02 -0.24700041163E+02  0.96299433086E+02  0.90282193547E+02 0.  0.
          5    1    3    3  502    0  0.27499401888E+02  0.31408563728E+01  0.17001822445E+02  0.32821243873E+02  0.47000000000E+01 0. -1.
         -5    1    1    2    0  503 -0.57175889506E+02  0.13601642632E+02  0.67336165783E+02  0.89500481817E+02  0.47000000000E+01 0.  1.
          5    1    1    2  503    0  0.76514661718E+02 -0.25375605303E+02  0.91580158215E+02  0.12209598757E+03  0.47000000000E+01 0. -1.
         -5    1    3    3    0  502 -0.46838174100E+02  0.86331062979E+01 -0.41701863608E+02  0.63478189213E+02  0.47000000000E+01 0.  1.
<mgrwt>
<rscale>  0 0.12622065E+03</rscale>
<asrwt>0</asrwt>
<pdfrwt beam="1">  1        3 0.34008629E-01 0.13970923E+03</pdfrwt>
<pdfrwt beam="2">  1       -3 0.13359971E-01 0.13970923E+03</pdfrwt>
<totfact> 0.89031902E+02</totfact>
</mgrwt>
</event>
<event>
 8    1  0.2964543E-004  0.1126871E+03  0.7546771E-02  0.1257357E+00
          1   -1    0    0  501    0  0.00000000000E+00  0.00000000000E+00  0.65642131638E+02  0.65642131638E+02  0.00000000000E+00 0. -1.
         -1   -1    0    0    0  501 -0.00000000000E+00 -0.00000000000E+00 -0.18733761482E+03  0.18733761482E+03  0.00000000000E+00 0.  1.
         23    2    1    2    0    0 -0.56265719402E+02 -0.20181584558E+02 -0.58066973448E+02  0.12676816304E+03  0.95526259328E+02 0.  0.
         23    2    1    2    0    0  0.56265719402E+02  0.20181584558E+02 -0.63628509731E+02  0.12621158341E+03  0.91146305474E+02 0.  0.
          5    1    3    3  502    0 -0.83183527695E+01 -0.47949613982E+02 -0.37512609269E+01  0.49035930015E+02  0.47000000000E+01 0. -1.
         -5    1    3    3    0  502 -0.47947366632E+02  0.27768029424E+02 -0.54315712521E+02  0.77732233030E+02  0.47000000000E+01 0. -1.
          5    1    4    4  503    0  0.65153538696E+02 -0.17889693676E+02 -0.28635029421E+02  0.73532847452E+02  0.47000000000E+01 0. -1.
         -5    1    4    4    0  503 -0.88878192941E+01  0.38071278233E+02 -0.34993480310E+02  0.52678735960E+02  0.47000000000E+01 0.  1.
<mgrwt>
<rscale>  0 0.11175357E+03</rscale>
<asrwt>0</asrwt>
<pdfrwt beam="1">  1        1 0.10098790E-01 0.11268715E+03</pdfrwt>
<pdfrwt beam="2">  1       -1 0.28821171E-01 0.11268715E+03</pdfrwt>
<totfact> 0.64787267E+03</totfact>
</mgrwt>
</event>
<event>
 8    1  0.2964543E-004  0.1005427E+03  0.7546771E-02  0.1280756E+00
         -1   -1    0    0    0  501 -0.00000000000E+00  0.00000000000E+00  0.39553606416E+03  0.39553606416E+03  0.00000000000E+00 0.  1.
          1   -1    0    0  501    0  0.00000000000E+00 -0.00000000000E+00 -0.42432185971E+02  0.42432185971E+02  0.00000000000E+00 0. -1.
         23    2    1    2    0    0 -0.26707571730E+02  0.29019068976E+02  0.36958664600E+02  0.10712035553E+03  0.92484738897E+02 0.  0.
         23    2    1    2    0    0  0.26707571730E+02 -0.29019068976E+02  0.31614521359E+03  0.33084789460E+03  0.89202760787E+02 0.  0.
          5    1    3    3  502    0 -0.39110265085E+02  0.47863329900E+02 -0.18155919646E+01  0.62015301002E+02  0.47000000000E+01 0. -1.
         -5    1    3    3    0  502  0.12402693356E+02 -0.18844260924E+02  0.38774256564E+02  0.45105054532E+02  0.47000000000E+01 0.  1.
          5    1    4    4  503    0  0.18945201282E+02  0.29460862377E+02  0.81073712096E+02  0.88441505283E+02  0.47000000000E+01 0. -1.
         -5    1    4    4    0  503  0.77623704473E+01 -0.58479931354E+02  0.23507150150E+03  0.24240638932E+03  0.47000000000E+01 0.  1.
<mgrwt>
<rscale>  0 0.99781452E+02</rscale>
<asrwt>0</asrwt>
<pdfrwt beam="1">  1        1 0.65280289E-02 0.10054267E+03</pdfrwt>
<pdfrwt beam="2">  1       -1 0.60851700E-01 0.10054267E+03</pdfrwt>
<totfact> 0.30762285E+03</totfact>
</mgrwt>
</event>
<event>
 8    1  0.2964543E-004  0.2470863E+03  0.7546771E-02  0.1115898E+00
         -2   -1    0    0    0  501 -0.00000000000E+00  0.00000000000E+00  0.14726559100E+03  0.14726559100E+03  0.00000000000E+00 0.  1.
          2   -1    0    0  501    0  0.00000000000E+00 -0.00000000000E+00 -0.52725877022E+03  0.52725877022E+03  0.00000000000E+00 0. -1.
         23    2    1    2    0    0  0.22426369045E+03 -0.77354727569E+01 -0.30272343047E+02  0.24893379010E+03  0.10342909023E+03 0.  0.
         23    2    1    2    0    0 -0.22426369045E+03  0.77354727569E+01 -0.34972083617E+03  0.42559057111E+03  0.92025162729E+02 0.  0.
          5    1    4    4  502    0 -0.16042528437E+03 -0.17817588352E+01 -0.31153244634E+03  0.35044828670E+03  0.47000000000E+01 0. -1.
         -5    1    3    3    0  503  0.16431238639E+03 -0.27621096808E+02 -0.62315592848E+02  0.17795170250E+03  0.47000000000E+01 0.  1.
          5    1    3    3  503    0  0.59951304057E+02  0.19885624051E+02  0.32043249801E+02  0.70982087599E+02  0.47000000000E+01 0. -1.
         -5    1    4    4    0  502 -0.63838406086E+02  0.95172315921E+01 -0.38188389825E+02  0.75142284409E+02  0.47000000000E+01 0.  1.
<mgrwt>
<rscale>  0 0.24594021E+03</rscale>
<asrwt>0</asrwt>
<pdfrwt beam="1">  1        2 0.81116733E-01 0.24708625E+03</pdfrwt>
<pdfrwt beam="2">  1       -2 0.22656245E-01 0.24708625E+03</pdfrwt>
<totfact> 0.99283810E+02</totfact>
</mgrwt>
</event>
<event>
 8    1  0.2964543E-004  0.9772022E+02  0.7546771E-02  0.1285969E+00
         -2   -1    0    0    0  501 -0.00000000000E+00  0.00000000000E+00  0.95354957324E+02  0.95354957324E+02  0.00000000000E+00 0.  1.
          2   -1    0    0  501    0  0.00000000000E+00 -0.00000000000E+00 -0.99553750797E+02  0.99553750797E+02  0.00000000000E+00 0. -1.
         23    2    1    2    0    0  0.17102439387E+02 -0.29591229818E+02  0.72138247978E+01  0.97986124057E+02  0.91548385701E+02 0.  0.
         23    2    1    2    0    0 -0.17102439387E+02  0.29591229818E+02 -0.11412618271E+02  0.96922584064E+02  0.89975580746E+02 0.  0.
          5    1    4    4  502    0 -0.25645163273E+01 -0.29255360813E+02 -0.19537310602E+02  0.35584398068E+02  0.47000000000E+01 0. -1.
         -5    1    4    4    0  502 -0.14537923060E+02  0.58846590631E+02  0.81246923306E+01  0.61338185996E+02  0.47000000000E+01 0.  1.
          5    1    3    3  503    0 -0.19263483797E+02 -0.38846906822E+02  0.30819596437E+02  0.53405070004E+02  0.47000000000E+01 0. -1.
         -5    1    3    3    0  503  0.36365923184E+02  0.92556770042E+01 -0.23605771639E+02  0.44581054053E+02  0.47000000000E+01 0.  1.
<mgrwt>
<rscale>  0 0.97350148E+02</rscale>
<asrwt>0</asrwt>
<pdfrwt beam="1">  1        2 0.15315962E-01 0.97720219E+02</pdfrwt>
<pdfrwt beam="2">  1       -2 0.14669994E-01 0.97720219E+02</pdfrwt>
<totfact> 0.12249358E+04</totfact>
</mgrwt>
</event>
<event>
 8    1  0.2964543E-004  0.1017390E+03  0.7546771E-02  0.1279861E+00
          1   -1    0    0  501    0  0.00000000000E+00  0.00000000000E+00  0.13191477339E+03  0.13191477339E+03  0.00000000000E+00 0. -1.
         -1   -1    0    0    0  501 -0.00000000000E+00 -0.00000000000E+00 -0.78195386158E+02  0.78195386158E+02  0.00000000000E+00 0.  1.
         23    2    1    2    0    0  0.18120163843E+02 -0.15804421687E+02  0.50661719715E+02  0.10832525361E+03  0.92680260262E+02 0.  0.
         23    2    1    2    0    0 -0.18120163843E+02  0.15804421687E+02  0.30576675137E+01  0.10178490594E+03  0.98856955563E+02 0.  0.
          5    1    3    3  502    0  0.17173217407E+02  0.11144914530E+02  0.71116892927E+02  0.74154102892E+02  0.47000000000E+01 0. -1.
         -5    1    3    3    0  502  0.94694643539E+00 -0.26949336218E+02 -0.20455173213E+02  0.34171150716E+02  0.47000000000E+01 0.  1.
          5    1    4    4  503    0 -0.39966645000E+02  0.41417259636E+02 -0.19544286545E+02  0.60965492246E+02  0.47000000000E+01 0. -1.
         -5    1    4    4    0  503  0.21846481157E+02 -0.25612837949E+02  0.22601954058E+02  0.40819413690E+02  0.47000000000E+01 0.  1.
<mgrwt>
<rscale>  0 0.10020707E+03</rscale>
<asrwt>0</asrwt>
<pdfrwt beam="1">  1        1 0.20294580E-01 0.10173897E+03</pdfrwt>
<pdfrwt beam="2">  1       -1 0.12030059E-01 0.10173897E+03</pdfrwt>
<totfact> 0.10473127E+04</totfact>
</mgrwt>
</event>
<event>
 8    1  0.2964543E-004  0.9746984E+02  0.7546771E-02  0.1285752E+00
          1   -1    0    0  501    0  0.00000000000E+00  0.00000000000E+00  0.70036345659E+03  0.70036345659E+03  0.00000000000E+00 0. -1.
         -1   -1    0    0    0  501 -0.00000000000E+00 -0.00000000000E+00 -0.13558588719E+02  0.13558588719E+02  0.00000000000E+00 0.  1.
         23    2    1    2    0    0 -0.50201197744E+01  0.37089595778E+02  0.35035558117E+03  0.36366111005E+03  0.89997388816E+02 0.  0.
         23    2    1    2    0    0  0.50201197744E+01 -0.37089595778E+02  0.33644928670E+03  0.35026093525E+03  0.89909735422E+02 0.  0.
          5    1    4    4  502    0  0.24645394831E+02 -0.57177757899E+02  0.28184221408E+03  0.28867596908E+03  0.47000000000E+01 0. -1.
         -5    1    4    4    0  502 -0.19625275057E+02  0.20088162121E+02  0.54607072622E+02  0.61584966175E+02  0.47000000000E+01 0.  1.
          5    1    3    3  503    0 -0.20479262830E+02 -0.24742551083E+02  0.14509037672E+03  0.14867717194E+03  0.47000000000E+01 0. -1.
         -5    1    3    3    0  503  0.15459143056E+02  0.61832146860E+02  0.20526520445E+03  0.21498393811E+03  0.47000000000E+01 0.  1.
<mgrwt>
<rscale>  0 0.97449602E+02</rscale>
<asrwt>0</asrwt>
<pdfrwt beam="1">  1        1 0.10774820E+00 0.97469840E+02</pdfrwt>
<pdfrwt beam="2">  1       -1 0.20859373E-02 0.97469840E+02</pdfrwt>
<totfact> 0.16762185E+04</totfact>
</mgrwt>
</event>
<event>
 8    1  0.2964543E-004  0.9931271E+02  0.7546771E-02  0.1282349E+00
          4   -1    0    0  501    0  0.00000000000E+00  0.00000000000E+00  0.40945130170E+02  0.40945130170E+02  0.00000000000E+00 0. -1.
         -4   -1    0    0    0  501 -0.00000000000E+00 -0.00000000000E+00 -0.24990784736E+03  0.24990784736E+03  0.00000000000E+00 0.  1.
         23    2    1    2    0    0 -0.37060762242E+00 -0.31957667391E+02 -0.13544168506E+03  0.16728778451E+03  0.92840308818E+02 0.  0.
         23    2    1    2    0    0  0.37060762242E+00  0.31957667391E+02 -0.73521032139E+02  0.12356519302E+03  0.94029702245E+02 0.  0.
          5    1    3    3  502    0 -0.91350400052E+01  0.24951353458E+02 -0.89490459681E+02  0.93470056003E+02  0.47000000000E+01 0. -1.
         -5    1    4    4    0  503  0.12188367661E+02 -0.22176993356E+02 -0.61504880073E+02  0.66673200113E+02  0.47000000000E+01 0.  1.
          5    1    4    4  503    0 -0.11817760039E+02  0.54134660747E+02 -0.12016152065E+02  0.56891992907E+02  0.47000000000E+01 0. -1.
         -5    1    3    3    0  502  0.87644323828E+01 -0.56909020849E+02 -0.45951225375E+02  0.73817728511E+02  0.47000000000E+01 0.  1.
<mgrwt>
<rscale>  0 0.99030164E+02</rscale>
<asrwt>0</asrwt>
<pdfrwt beam="1">  1        4 0.62992507E-02 0.99312712E+02</pdfrwt>
<pdfrwt beam="2">  1       -4 0.38447362E-01 0.99312712E+02</pdfrwt>
<totfact> 0.16485558E+03</totfact>
</mgrwt>
</event>
<event>
 8    1  0.2964543E-004  0.9199224E+02  0.7546771E-02  0.1300434E+00
         -1   -1    0    0    0  501 -0.00000000000E+00  0.00000000000E+00  0.15461657892E+03  0.15461657892E+03  0.00000000000E+00 0.  1.
          1   -1    0    0  501    0  0.00000000000E+00 -0.00000000000E+00 -0.60163516841E+02  0.60163516841E+02  0.00000000000E+00 0. -1.
         23    2    1    2    0    0 -0.54986982897E+01 -0.17229449418E+02  0.96611337214E+01  0.92498156240E+02  0.90196905672E+02 0.  0.
         23    2    1    2    0    0  0.54986982897E+01  0.17229449418E+02  0.84791928359E+02  0.12228193952E+03  0.86232894005E+02 0.  0.
          5    1    3    3  502    0  0.15004181494E+01  0.25957528303E+02 -0.25083444119E+02  0.36432316686E+02  0.47000000000E+01 0. -1.
         -5    1    4    4    0  503  0.42205389505E+02  0.26371156194E+02  0.48517190034E+02  0.69661614331E+02  0.47000000000E+01 0. -1.
          5    1    4    4  503    0 -0.36706691216E+02 -0.91417067764E+01  0.36274738325E+02  0.52620325192E+02  0.47000000000E+01 0.  1.
         -5    1    3    3    0  502 -0.69991164391E+01 -0.43186977720E+02  0.34744577841E+02  0.56065839554E+02  0.47000000000E+01 0.  1.
<mgrwt>
<rscale>  0 0.91005678E+02</rscale>
<asrwt>0</asrwt>
<pdfrwt beam="1">  1        1 0.92559257E-02 0.91992236E+02</pdfrwt>
<pdfrwt beam="2">  1       -1 0.23787166E-01 0.91992236E+02</pdfrwt>
<totfact> 0.97814359E+03</totfact>
</mgrwt>
</event>
<event>
 8    1  0.2964543E-004  0.1053298E+03  0.7546771E-02  0.1270093E+00
          1   -1    0    0  501    0  0.00000000000E+00  0.00000000000E+00  0.69046702277E+02  0.69046702277E+02  0.00000000000E+00 0. -1.
         -1   -1    0    0    0  501 -0.00000000000E+00 -0.00000000000E+00 -0.21036029464E+03  0.21036029464E+03  0.00000000000E+00 0.  1.
         23    2    1    2    0    0  0.42610604167E+02  0.27862949670E+02 -0.13952378607E+03  0.17406199932E+03  0.90767203199E+02 0.  0.
         23    2    1    2    0    0 -0.42610604167E+02 -0.27862949670E+02 -0.17898062967E+01  0.10534499760E+03  0.92208229356E+02 0.  0.
          5    1    3    3  502    0 -0.13526379158E+02  0.26405854394E+02 -0.81689744928E+01  0.31129635778E+02  0.47000000000E+01 0. -1.
         -5    1    3    3    0  502  0.56136983325E+02  0.14570952756E+01 -0.13135481158E+03  0.14293236354E+03  0.47000000000E+01 0.  1.
          5    1    4    4  503    0 -0.40929569677E+02 -0.57842073764E+02  0.11913539480E+02  0.72006649652E+02  0.47000000000E+01 0. -1.
         -5    1    4    4    0  503 -0.16810344906E+01  0.29979124094E+02 -0.13703345777E+02  0.33338347948E+02  0.47000000000E+01 0.  1.
<mgrwt>
<rscale>  0 0.10501358E+03</rscale>
<asrwt>0</asrwt>
<pdfrwt beam="1">  1        1 0.10622570E-01 0.10532979E+03</pdfrwt>
<pdfrwt beam="2">  1       -1 0.32363122E-01 0.10532979E+03</pdfrwt>
<totfact> 0.49674956E+03</totfact>
</mgrwt>
</event>
<event>
 8    1  0.2964543E-004  0.1062966E+03  0.7546771E-02  0.1269509E+00
         -1   -1    0    0    0  501 -0.00000000000E+00  0.00000000000E+00  0.12725160193E+03  0.12725160193E+03  0.00000000000E+00 0.  1.
          1   -1    0    0  501    0  0.00000000000E+00 -0.00000000000E+00 -0.12156552297E+03  0.12156552297E+03  0.00000000000E+00 0. -1.
         23    2    1    2    0    0  0.39236180034E+02 -0.37004447378E+02 -0.64806017616E+02  0.12449416714E+03  0.91597875424E+02 0.  0.
         23    2    1    2    0    0 -0.39236180034E+02  0.37004447378E+02  0.70492096576E+02  0.12432295777E+03  0.87053174556E+02 0.  0.
          5    1    3    3  502    0  0.23971877536E+02 -0.56386677424E+02 -0.74754490087E+01  0.61903801510E+02  0.47000000000E+01 0. -1.
         -5    1    3    3    0  502  0.15264302499E+02  0.19382230046E+02 -0.57330568608E+02  0.62590365626E+02  0.47000000000E+01 0.  1.
          5    1    4    4  503    0  0.27796526959E+02  0.12243794472E+02  0.19278798169E+02  0.36281117305E+02  0.47000000000E+01 0. -1.
         -5    1    4    4    0  503 -0.67032706994E+02  0.24760652907E+02  0.51213298407E+02  0.88041840468E+02  0.47000000000E+01 0.  1.
<mgrwt>
<rscale>  0 0.10531044E+03</rscale>
<asrwt>0</asrwt>
<pdfrwt beam="1">  1        1 0.18702388E-01 0.10629665E+03</pdfrwt>
<pdfrwt beam="2">  1       -1 0.19577170E-01 0.10629665E+03</pdfrwt>
<totfact> 0.54524217E+03</totfact>
</mgrwt>
</event>
<event>
 7    1  0.2964543E-004  0.1707103E+03  0.7546771E-02  0.1191922E+00
          1   -1    0    0  501    0  0.00000000000E+00  0.00000000000E+00  0.19209683394E+03  0.19209683394E+03  0.00000000000E+00 0. -1.
         -1   -1    0    0    0  501 -0.00000000000E+00 -0.00000000000E+00 -0.12947044527E+03  0.12947044527E+03  0.00000000000E+00 0.  1.
         23    2    1    2    0    0 -0.64969022552E+02 -0.54486577802E+02  0.85211675885E+02  0.14936946628E+03  0.88659160266E+02 0.  0.
          5    1    1    2  502    0  0.48607331695E+02  0.10042076240E+03  0.11888759582E+02  0.11229619237E+03  0.47000000000E+01 0. -1.
         -5    1    3    3    0  503 -0.29597031174E+02 -0.23437318632E+02 -0.13127823267E+02  0.40245768756E+02  0.47000000000E+01 0.  1.
          5    1    3    3  503    0 -0.35371991377E+02 -0.31049259169E+02  0.98339499152E+02  0.10912369753E+03  0.47000000000E+01 0. -1.
         -5    1    1    2    0  502  0.16361690857E+02 -0.45934184603E+02 -0.34474046794E+02  0.59901620555E+02  0.47000000000E+01 0.  1.
<mgrwt>
<rscale>  0 0.15717647E+03</rscale>
<asrwt>0</asrwt>
<pdfrwt beam="1">  1        1 0.29553359E-01 0.17071026E+03</pdfrwt>
<pdfrwt beam="2">  1       -1 0.19918530E-01 0.17071026E+03</pdfrwt>
<totfact> 0.30622261E+03</totfact>
</mgrwt>
</event>
<event>
 8    1  0.2964543E-004  0.1125554E+03  0.7546771E-02  0.1256206E+00
         -1   -1    0    0    0  501 -0.00000000000E+00  0.00000000000E+00  0.54265125544E+02  0.54265125544E+02  0.00000000000E+00 0.  1.
          1   -1    0    0  501    0  0.00000000000E+00 -0.00000000000E+00 -0.23237864602E+03  0.23237864602E+03  0.00000000000E+00 0. -1.
         23    2    1    2    0    0 -0.54615671729E+02 -0.36035677633E+02 -0.93778643206E+02  0.14599849377E+03  0.90772708464E+02 0.  0.
         23    2    1    2    0    0  0.54615671729E+02  0.36035677633E+02 -0.84334877270E+02  0.14064527779E+03  0.91582099668E+02 0.  0.
          5    1    3    3  502    0  0.20878546640E+02 -0.14268669861E+02 -0.49259099177E+02  0.55570293333E+02  0.47000000000E+01 0. -1.
         -5    1    3    3    0  502 -0.75494218369E+02 -0.21767007771E+02 -0.44519544029E+02  0.90428200441E+02  0.47000000000E+01 0.  1.
          5    1    4    4  503    0  0.44844124370E+02  0.57463746294E+02 -0.90060208732E+02  0.11595692660E+03  0.47000000000E+01 0. -1.
         -5    1    4    4    0  503  0.97715473589E+01 -0.21428068661E+02  0.57253314620E+01  0.24688351194E+02  0.47000000000E+01 0.  1.
<mgrwt>
<rscale>  0 0.11239066E+03</rscale>
<asrwt>0</asrwt>
<pdfrwt beam="1">  1        1 0.35750561E-01 0.11255542E+03</pdfrwt>
<pdfrwt beam="2">  1       -1 0.83484809E-02 0.11255542E+03</pdfrwt>
<totfact> 0.91010930E+03</totfact>
</mgrwt>
</event>
<event>
 8    1  0.2964543E-004  0.1066176E+03  0.7546771E-02  0.1266976E+00
          1   -1    0    0  501    0  0.00000000000E+00  0.00000000000E+00  0.72921094724E+02  0.72921094724E+02  0.00000000000E+00 0. -1.
         -1   -1    0    0    0  501 -0.00000000000E+00 -0.00000000000E+00 -0.19612402100E+03  0.19612402100E+03  0.00000000000E+00 0.  1.
         23    2    1    2    0    0  0.65777119465E+01  0.55736369411E+02 -0.12255555775E+03  0.16242554632E+03  0.90622205841E+02 0.  0.
         23    2    1    2    0    0 -0.65777119465E+01 -0.55736369411E+02 -0.64736852990E+00  0.10661956941E+03  0.90650451327E+02 0.  0.
          5    1    4    4  502    0  0.28999629755E+02  0.10493603292E+02  0.18487012234E+01  0.31250630909E+02  0.47000000000E+01 0. -1.
         -5    1    4    4    0  502 -0.35577341702E+02 -0.66229972703E+02 -0.24960697533E+01  0.75368938502E+02  0.47000000000E+01 0.  1.
          5    1    3    3  503    0  0.47797411930E+02  0.20941449495E+02 -0.62812493258E+02  0.81796309229E+02  0.47000000000E+01 0. -1.
         -5    1    3    3    0  503 -0.41219699983E+02  0.34794919916E+02 -0.59743064491E+02  0.80629237088E+02  0.47000000000E+01 0.  1.
<mgrwt>
<rscale>  0 0.10661160E+03</rscale>
<asrwt>0</asrwt>
<pdfrwt beam="1">  1        1 0.11218630E-01 0.10661760E+03</pdfrwt>
<pdfrwt beam="2">  1       -1 0.30172926E-01 0.10661760E+03</pdfrwt>
<totfact> 0.52064582E+03</totfact>
</mgrwt>
</event>
<event>
 8    1  0.2964543E-004  0.1049362E+03  0.7546771E-02  0.1270249E+00
         -1   -1    0    0    0  501 -0.00000000000E+00  0.00000000000E+00  0.34358817853E+02  0.34358817853E+02  0.00000000000E+00 0.  1.
          1   -1    0    0  501    0  0.00000000000E+00 -0.00000000000E+00 -0.32094415048E+03  0.32094415048E+03  0.00000000000E+00 0. -1.
         23    2    1    2    0    0  0.47080603201E+02 -0.19885953999E+02 -0.13640792167E+03  0.17209579083E+03  0.91639542559E+02 0.  0.
         23    2    1    2    0    0 -0.47080603201E+02  0.19885953999E+02 -0.15017741096E+03  0.18320717751E+03  0.91649226757E+02 0.  0.
          5    1    4    4  502    0  0.25805792439E+02 -0.62614872427E+01 -0.32080988129E+02  0.41909723755E+02  0.47000000000E+01 0. -1.
         -5    1    4    4    0  502 -0.72886395640E+02  0.26147441241E+02 -0.11809642283E+03  0.14129745375E+03  0.47000000000E+01 0.  1.
          5    1    3    3  503    0  0.42014235030E+02 -0.51135919000E+02 -0.60801740319E+02  0.89994554184E+02  0.47000000000E+01 0. -1.
         -5    1    3    3    0  503  0.50663681714E+01  0.31249965001E+02 -0.75606181356E+02  0.82101236642E+02  0.47000000000E+01 0.  1.
<mgrwt>
<rscale>  0 0.10493413E+03</rscale>
<asrwt>0</asrwt>
<pdfrwt beam="1">  1        1 0.49376021E-01 0.10493624E+03</pdfrwt>
<pdfrwt beam="2">  1       -1 0.52859722E-02 0.10493624E+03</pdfrwt>
<totfact> 0.12010333E+04</totfact>
</mgrwt>
</event>
<event>
 8    1  0.2964543E-004  0.1293951E+03  0.7546771E-02  0.1230492E+00
         -1   -1    0    0    0  501 -0.00000000000E+00  0.00000000000E+00  0.54279464334E+02  0.54279464334E+02  0.00000000000E+00 0.  1.
          1   -1    0    0  501    0  0.00000000000E+00 -0.00000000000E+00 -0.29619086616E+03  0.29619086616E+03  0.00000000000E+00 0. -1.
         23    2    1    2    0    0 -0.55295930812E+02  0.65142746517E+02 -0.12799699948E+03  0.17807666716E+03  0.89592690107E+02 0.  0.
         23    2    1    2    0    0  0.55295930812E+02 -0.65142746517E+02 -0.11391440235E+03  0.17239366334E+03  0.97169268343E+02 0.  0.
          5    1    3    3  502    0 -0.25309065301E+02  0.10477889540E+01 -0.97556469620E+02  0.10090094852E+03  0.47000000000E+01 0. -1.
         -5    1    4    4    0  503 -0.16962308977E+02 -0.51651626409E+02 -0.60068273722E+02  0.81153545483E+02  0.47000000000E+01 0.  1.
          5    1    4    4  503    0  0.72258239788E+02 -0.13491120108E+02 -0.53846128627E+02  0.91240117860E+02  0.47000000000E+01 0. -1.
         -5    1    3    3    0  502 -0.29986865511E+02  0.64094957563E+02 -0.30440529862E+02  0.77175718633E+02  0.47000000000E+01 0.  1.
<mgrwt>
<rscale>  0 0.12797473E+03</rscale>
<asrwt>0</asrwt>
<pdfrwt beam="1">  1        1 0.45567825E-01 0.12939507E+03</pdfrwt>
<pdfrwt beam="2">  1       -1 0.83506870E-02 0.12939507E+03</pdfrwt>
<totfact> 0.68165634E+03</totfact>
</mgrwt>
</event>
<event>
 8    1  0.2964543E-004  0.4397479E+03  0.7546771E-02  0.1030876E+00
          2   -1    0    0  501    0  0.00000000000E+00  0.00000000000E+00  0.16675696305E+04  0.16675696305E+04  0.00000000000E+00 0.  1.
         -2   -1    0    0    0  501 -0.00000000000E+00 -0.00000000000E+00 -0.15130806841E+03  0.15130806841E+03  0.00000000000E+00 0. -1.
         23    2    1    2    0    0 -0.14734504187E+03  0.40351947402E+03  0.11983366000E+04  0.12762411227E+04  0.90786944015E+02 0.  0.
         23    2    1    2    0    0  0.14734504187E+03 -0.40351947402E+03  0.31792496206E+03  0.54263657614E+03  0.94019386234E+02 0.  0.
          5    1    4    4  502    0  0.84529759193E+02 -0.28490778637E+03  0.16823367354E+03  0.34152948018E+03  0.47000000000E+01 0. -1.
         -5    1    3    3    0  503 -0.10647378959E+03  0.36620675890E+03  0.99964759600E+03  0.10699352617E+04  0.47000000000E+01 0.  1.
          5    1    3    3  503    0 -0.40871252282E+02  0.37312715125E+02  0.19868900399E+03  0.20630586099E+03  0.47000000000E+01 0. -1.
         -5    1    4    4    0  502  0.62815282679E+02 -0.11861168765E+03  0.14969128852E+03  0.20110709596E+03  0.47000000000E+01 0.  1.
<mgrwt>
<rscale>  0 0.43957781E+03</rscale>
<asrwt>0</asrwt>
<pdfrwt beam="1">  1        2 0.25654916E+00 0.43974785E+03</pdfrwt>
<pdfrwt beam="2">  1       -2 0.23278166E-01 0.43974785E+03</pdfrwt>
<totfact> 0.17542585E+02</totfact>
</mgrwt>
</event>
<event>
 8    1  0.2964543E-004  0.9374648E+02  0.7546771E-02  0.1298850E+00
          3   -1    0    0  501    0  0.00000000000E+00  0.00000000000E+00  0.91316534174E+02  0.91316534174E+02  0.00000000000E+00 0. -1.
         -3   -1    0    0    0  501 -0.00000000000E+00 -0.00000000000E+00 -0.10633542197E+03  0.10633542197E+03  0.00000000000E+00 0.  1.
         23    2    1    2    0    0 -0.80503754747E+01 -0.15163889351E+02  0.33569381993E+02  0.92062076259E+02  0.83986727476E+02 0.  0.
         23    2    1    2    0    0  0.80503754747E+01  0.15163889351E+02 -0.48588269786E+02  0.10558987988E+03  0.92161004155E+02 0.  0.
          5    1    3    3  502    0 -0.19341477571E+02  0.25792545000E+02  0.36857082410E+02  0.49192302812E+02  0.47000000000E+01 0. -1.
         -5    1    4    4    0  503 -0.34266443113E+02 -0.65675483246E+01 -0.45717002751E+02  0.57701439801E+02  0.47000000000E+01 0.  1.
          5    1    4    4  503    0  0.42316818588E+02  0.21731437676E+02 -0.28712670349E+01  0.47888440079E+02  0.47000000000E+01 0. -1.
         -5    1    3    3    0  502  0.11291102096E+02 -0.40956434351E+02 -0.32877004169E+01  0.42869773447E+02  0.47000000000E+01 0.  1.
<mgrwt>
<rscale>  0 0.91672956E+02</rscale>
<asrwt>0</asrwt>
<pdfrwt beam="1">  1        3 0.14048698E-01 0.93746481E+02</pdfrwt>
<pdfrwt beam="2">  1       -3 0.16359296E-01 0.93746481E+02</pdfrwt>
<totfact> 0.28205613E+03</totfact>
</mgrwt>
</event>
<event>
 8    1  0.2964543E-004  0.9221125E+02  0.7546771E-02  0.1297663E+00
          3   -1    0    0  501    0  0.00000000000E+00  0.00000000000E+00  0.13391753577E+03  0.13391753577E+03  0.00000000000E+00 0. -1.
         -3   -1    0    0    0  501 -0.00000000000E+00 -0.00000000000E+00 -0.11105820906E+03  0.11105820906E+03  0.00000000000E+00 0.  1.
         23    2    1    2    0    0 -0.33457671659E+01  0.53294485235E+01  0.91673341007E+02  0.13002660110E+03  0.91996295368E+02 0.  0.
         23    2    1    2    0    0  0.33457671659E+01 -0.53294485235E+01 -0.68814014299E+02  0.11494914373E+03  0.91860437086E+02 0.  0.
          5    1    3    3  502    0 -0.25742805371E+02  0.37556703279E+02  0.73347330242E+02  0.86458769614E+02  0.47000000000E+01 0. -1.
         -5    1    4    4    0  503  0.47368065350E+02 -0.39938253719E+01 -0.34662995028E+02  0.59019466961E+02  0.47000000000E+01 0.  1.
          5    1    4    4  503    0 -0.44022298184E+02 -0.13356231516E+01 -0.34151019271E+02  0.55929676772E+02  0.47000000000E+01 0. -1.
         -5    1    3    3    0  502  0.22397038205E+02 -0.32227254755E+02  0.18326010765E+02  0.43567831481E+02  0.47000000000E+01 0.  1.
<mgrwt>
<rscale>  0 0.92177351E+02</rscale>
<asrwt>0</asrwt>
<pdfrwt beam="1">  1        3 0.20602698E-01 0.92211255E+02</pdfrwt>
<pdfrwt beam="2">  1       -3 0.17085878E-01 0.92211255E+02</pdfrwt>
<totfact> 0.13526061E+03</totfact>
</mgrwt>
</event>
<event>
 8    1  0.2964543E-004  0.1062287E+03  0.7546771E-02  0.1272245E+00
          4   -1    0    0  501    0  0.00000000000E+00  0.00000000000E+00  0.66503861713E+03  0.66503861713E+03  0.00000000000E+00 0. -1.
         -4   -1    0    0    0  501 -0.00000000000E+00 -0.00000000000E+00 -0.18166293792E+02  0.18166293792E+02  0.00000000000E+00 0.  1.
         23    2    1    2    0    0  0.34910238251E+02  0.38200717980E+01  0.18240162104E+03  0.20674129229E+03  0.90765042256E+02 0.  0.
         23    2    1    2    0    0 -0.34910238251E+02 -0.38200717980E+01  0.46447070230E+03  0.47646361863E+03  0.10025581731E+03 0.  0.
          5    1    4    4  502    0 -0.67159322705E+02 -0.19444185613E+02  0.30301683564E+03  0.31101405702E+03  0.47000000000E+01 0. -1.
         -5    1    3    3    0  503  0.40728540431E+01 -0.34217104695E+02  0.13122815396E+03  0.13575830282E+03  0.47000000000E+01 0.  1.
          5    1    3    3  503    0  0.30837384208E+02  0.38037176493E+02  0.51173467079E+02  0.70982989464E+02  0.47000000000E+01 0. -1.
         -5    1    4    4    0  502  0.32249084454E+02  0.15624113815E+02  0.16145386666E+03  0.16544956161E+03  0.47000000000E+01 0.  1.
<mgrwt>
<rscale>  0 0.10392847E+03</rscale>
<asrwt>0</asrwt>
<pdfrwt beam="1">  1        4 0.10231361E+00 0.10622875E+03</pdfrwt>
<pdfrwt beam="2">  1       -4 0.27948149E-02 0.10622875E+03</pdfrwt>
<totfact> 0.76958864E+02</totfact>
</mgrwt>
</event>
<event>
 8    1  0.2964543E-004  0.9655982E+02  0.7546771E-02  0.1287932E+00
         -1   -1    0    0    0  501 -0.00000000000E+00  0.00000000000E+00  0.69787658160E+02  0.69787658160E+02  0.00000000000E+00 0.  1.
          1   -1    0    0  501    0  0.00000000000E+00 -0.00000000000E+00 -0.16177614949E+03  0.16177614949E+03  0.00000000000E+00 0. -1.
         23    2    1    2    0    0  0.46456784710E+01  0.27408074372E+02 -0.94723264266E+02  0.13496527277E+03  0.92034467403E+02 0.  0.
         23    2    1    2    0    0 -0.46456784710E+01 -0.27408074372E+02  0.27347729378E+01  0.96598534884E+02  0.92471688042E+02 0.  0.
          5    1    3    3  502    0 -0.41207122712E+02  0.17995260913E+02 -0.65485009243E+02  0.79575327917E+02  0.47000000000E+01 0.  1.
         -5    1    4    4    0  503 -0.24991780198E+02  0.12905206482E+02  0.31782431181E+02  0.42700659990E+02  0.47000000000E+01 0.  1.
          5    1    4    4  503    0  0.20346101727E+02 -0.40313280854E+02 -0.29047658243E+02  0.53897874894E+02  0.47000000000E+01 0. -1.
         -5    1    3    3    0  502  0.45852801183E+02  0.94128134586E+01 -0.29238255023E+02  0.55389944848E+02  0.47000000000E+01 0. -1.
<mgrwt>
<rscale>  0 0.96454988E+02</rscale>
<asrwt>0</asrwt>
<pdfrwt beam="1">  1        1 0.24888638E-01 0.96559815E+02</pdfrwt>
<pdfrwt beam="2">  1       -1 0.10736563E-01 0.96559815E+02</pdfrwt>
<totfact> 0.96068923E+03</totfact>
</mgrwt>
</event>
<event>
 8    1  0.2964543E-004  0.1068302E+03  0.7546771E-02  0.1266970E+00
          1   -1    0    0  501    0  0.00000000000E+00  0.00000000000E+00  0.52496939108E+03  0.52496939108E+03  0.00000000000E+00 0. -1.
         -1   -1    0    0    0  501 -0.00000000000E+00 -0.00000000000E+00 -0.26158279579E+02  0.26158279579E+02  0.00000000000E+00 0.  1.
         23    2    1    2    0    0 -0.17411599552E+02  0.51293824265E+02  0.36404243459E+03  0.37915302422E+03  0.91081838952E+02 0.  0.
         23    2    1    2    0    0  0.17411599552E+02 -0.51293824265E+02  0.13476867691E+03  0.17197464644E+03  0.92078567186E+02 0.  0.
          5    1    3    3  502    0 -0.44823635178E+02  0.56360208735E+02  0.30852630218E+03  0.31685359479E+03  0.47000000000E+01 0. -1.
         -5    1    4    4    0  503  0.42533666566E+02 -0.15336933292E+02  0.21238296172E+02  0.50174590568E+02  0.47000000000E+01 0.  1.
          5    1    4    4  503    0 -0.25122067014E+02 -0.35956890973E+02  0.11353038074E+03  0.12180005587E+03  0.47000000000E+01 0. -1.
         -5    1    3    3    0  502  0.27412035626E+02 -0.50663844696E+01  0.55516132414E+02  0.62299429427E+02  0.47000000000E+01 0.  1.
<mgrwt>
<rscale>  0 0.10661504E+03</rscale>
<asrwt>0</asrwt>
<pdfrwt beam="1">  1        1 0.80764514E-01 0.10683016E+03</pdfrwt>
<pdfrwt beam="2">  1       -1 0.40243511E-02 0.10683016E+03</pdfrwt>
<totfact> 0.96564529E+03</totfact>
</mgrwt>
</event>
<event>
 8    1  0.2964543E-004  0.1050297E+03  0.7546771E-02  0.1272125E+00
          1   -1    0    0  501    0  0.00000000000E+00  0.00000000000E+00  0.40180973903E+02  0.40180973903E+02  0.00000000000E+00 0. -1.
         -1   -1    0    0    0  501 -0.00000000000E+00 -0.00000000000E+00 -0.28624551119E+03  0.28624551119E+03  0.00000000000E+00 0.  1.
         23    2    1    2    0    0 -0.36715075721E+02 -0.26936580083E+02 -0.16634430503E+03  0.19456843199E+03  0.90071475954E+02 0.  0.
         23    2    1    2    0    0  0.36715075721E+02  0.26936580083E+02 -0.79720232259E+02  0.13185805310E+03  0.94644886838E+02 0.  0.
          5    1    4    4  502    0  0.69833693566E+01  0.50103739254E+02 -0.78927494101E+02  0.93865816247E+02  0.47000000000E+01 0.  1.
         -5    1    3    3    0  503 -0.61041441465E+02 -0.34068987149E+02 -0.14521709346E+03  0.16123537978E+03  0.47000000000E+01 0.  1.
          5    1    3    3  503    0  0.24326365744E+02  0.71324070655E+01 -0.21127211574E+02  0.33333052212E+02  0.47000000000E+01 0. -1.
         -5    1    4    4    0  502  0.29731706365E+02 -0.23167159171E+02 -0.79273815822E+00  0.37992236854E+02  0.47000000000E+01 0. -1.
<mgrwt>
<rscale>  0 0.10398886E+03</rscale>
<asrwt>0</asrwt>
<pdfrwt beam="1">  1        1 0.61816887E-02 0.10502967E+03</pdfrwt>
<pdfrwt beam="2">  1       -1 0.44037768E-01 0.10502967E+03</pdfrwt>
<totfact> 0.59950556E+03</totfact>
</mgrwt>
</event>
<event>
 8    1  0.2964543E-004  0.1012667E+03  0.7546771E-02  0.1280707E+00
          2   -1    0    0  501    0  0.00000000000E+00  0.00000000000E+00  0.46796752485E+03  0.46796752485E+03  0.00000000000E+00 0. -1.
         -2   -1    0    0    0  501 -0.00000000000E+00 -0.00000000000E+00 -0.23046911879E+02  0.23046911879E+02  0.00000000000E+00 0.  1.
         23    2    1    2    0    0  0.69343062609E+00 -0.26972494203E+02  0.29508279999E+03  0.31016554000E+03  0.91655916671E+02 0.  0.
         23    2    1    2    0    0 -0.69343062609E+00  0.26972494203E+02  0.14983781298E+03  0.18084889673E+03  0.97606131781E+02 0.  0.
          5    1    3    3  502    0  0.33416514523E+02 -0.46144366887E+02  0.18560430097E+03  0.19420868306E+03  0.47000000000E+01 0. -1.
         -5    1    4    4    0  503 -0.33978847770E+02  0.37704371208E+02  0.38007397617E+02  0.63583283791E+02  0.47000000000E+01 0.  1.
          5    1    4    4  503    0  0.33285417144E+02 -0.10731877005E+02  0.11183041536E+03  0.11726561294E+03  0.47000000000E+01 0. -1.
         -5    1    3    3    0  502 -0.32723083897E+02  0.19171872685E+02  0.10947849903E+03  0.11595685694E+03  0.47000000000E+01 0.  1.
<mgrwt>
<rscale>  0 0.99804900E+02</rscale>
<asrwt>0</asrwt>
<pdfrwt beam="1">  1        2 0.71994997E-01 0.10126674E+03</pdfrwt>
<pdfrwt beam="2">  1       -2 0.35456791E-02 0.10126674E+03</pdfrwt>
<totfact> 0.20211164E+04</totfact>
</mgrwt>
</event>
<event>
 8    1  0.2964543E-004  0.9151459E+02  0.7546771E-02  0.1299365E+00
         -1   -1    0    0    0  501 -0.00000000000E+00  0.00000000000E+00  0.44693304148E+03  0.44693304148E+03  0.00000000000E+00 0.  1.
          1   -1    0    0  501    0  0.00000000000E+00 -0.00000000000E+00 -0.41847425096E+02  0.41847425096E+02  0.00000000000E+00 0. -1.
         23    2    1    2    0    0 -0.10292325625E+02 -0.12376125623E+02  0.38445879402E+03  0.39520056304E+03  0.90087847537E+02 0.  0.
         23    2    1    2    0    0  0.10292325625E+02  0.12376125623E+02  0.20626822362E+02  0.93579903536E+02  0.89847827424E+02 0.  0.
          5    1    4    4  502    0  0.41531573411E+02  0.31871394702E+02  0.34456473159E+01  0.52674660661E+02  0.47000000000E+01 0. -1.
         -5    1    3    3    0  503 -0.33592074976E+02 -0.35718262155E+02  0.30634002682E+03  0.31027491646E+03  0.47000000000E+01 0.  1.
          5    1    3    3  503    0  0.23299749350E+02  0.23342136532E+02  0.78118767200E+02  0.84925646577E+02  0.47000000000E+01 0. -1.
         -5    1    4    4    0  502 -0.31239247786E+02 -0.19495269079E+02  0.17181175046E+02  0.40905242875E+02  0.47000000000E+01 0.  1.
<mgrwt>
<rscale>  0 0.91455469E+02</rscale>
<asrwt>0</asrwt>
<pdfrwt beam="1">  1        1 0.64380657E-02 0.91514593E+02</pdfrwt>
<pdfrwt beam="2">  1       -1 0.68758926E-01 0.91514593E+02</pdfrwt>
<totfact> 0.24654000E+03</totfact>
</mgrwt>
</event>
<event>
 8    1  0.2964543E-004  0.1288298E+03  0.7546771E-02  0.1229423E+00
         -2   -1    0    0    0  501 -0.00000000000E+00  0.00000000000E+00  0.28184942589E+02  0.28184942589E+02  0.00000000000E+00 0.  1.
          2   -1    0    0  501    0  0.00000000000E+00 -0.00000000000E+00 -0.86638976150E+03  0.86638976150E+03  0.00000000000E+00 0. -1.
         23    2    1    2    0    0 -0.66971730162E+02 -0.63208714784E+02 -0.67282403950E+03  0.68493708778E+03  0.89252853298E+02 0.  0.
         23    2    1    2    0    0  0.66971730162E+02  0.63208714784E+02 -0.16538077941E+03  0.20963761630E+03  0.90092029099E+02 0.  0.
          5    1    4    4  502    0  0.88618785080E+02  0.42925531074E+02 -0.13174029325E+03  0.16454022351E+03  0.47000000000E+01 0. -1.
         -5    1    4    4    0  502 -0.21647054918E+02  0.20283183709E+02 -0.33640486154E+02  0.45097392793E+02  0.47000000000E+01 0.  1.
          5    1    3    3  503    0 -0.28975312772E+02  0.25913771910E-01 -0.51882014939E+02  0.59610426067E+02  0.47000000000E+01 0. -1.
         -5    1    3    3    0  503 -0.37996417390E+02 -0.63234628555E+02 -0.62094202456E+03  0.62532666172E+03  0.47000000000E+01 0.  1.
<mgrwt>
<rscale>  0 0.12868323E+03</rscale>
<asrwt>0</asrwt>
<pdfrwt beam="1">  1        2 0.13329075E+00 0.12882984E+03</pdfrwt>
<pdfrwt beam="2">  1       -2 0.43361446E-02 0.12882984E+03</pdfrwt>
<totfact> 0.74934370E+03</totfact>
</mgrwt>
</event>
<event>
 8    1  0.2964543E-004  0.9779122E+02  0.7546771E-02  0.1285195E+00
         -1   -1    0    0    0  501 -0.00000000000E+00  0.00000000000E+00  0.46088358986E+02  0.46088358986E+02  0.00000000000E+00 0.  1.
          1   -1    0    0  501    0  0.00000000000E+00 -0.00000000000E+00 -0.24351835276E+03  0.24351835276E+03  0.00000000000E+00 0. -1.
         23    2    1    2    0    0  0.34849042936E+02 -0.82973758709E+01 -0.42322786442E+02  0.10624540586E+03  0.90628724880E+02 0.  0.
         23    2    1    2    0    0 -0.34849042936E+02  0.82973758709E+01 -0.15510720734E+03  0.18336130589E+03  0.90993518955E+02 0.  0.
          5    1    3    3  502    0  0.52880925585E+02 -0.21902849451E+02 -0.55339814330E+02  0.79754072967E+02  0.47000000000E+01 0. -1.
         -5    1    4    4    0  503 -0.22754157707E+02  0.46885159866E+02 -0.11435420857E+03  0.12575748457E+03  0.47000000000E+01 0.  1.
          5    1    4    4  503    0 -0.12094885229E+02 -0.38587783995E+02 -0.40752998766E+02  0.57603821321E+02  0.47000000000E+01 0. -1.
         -5    1    3    3    0  502 -0.18031882649E+02  0.13605473580E+02  0.13017027888E+02  0.26491332889E+02  0.47000000000E+01 0.  1.
<mgrwt>
<rscale>  0 0.97706273E+02</rscale>
<asrwt>0</asrwt>
<pdfrwt beam="1">  1        1 0.37464362E-01 0.97791220E+02</pdfrwt>
<pdfrwt beam="2">  1       -1 0.70905167E-02 0.97791220E+02</pdfrwt>
<totfact> 0.10840376E+04</totfact>
</mgrwt>
</event>
<event>
 8    1  0.2964543E-004  0.9273678E+02  0.7546771E-02  0.1296950E+00
          1   -1    0    0  501    0  0.00000000000E+00  0.00000000000E+00  0.20013021742E+02  0.20013021742E+02  0.00000000000E+00 0. -1.
         -1   -1    0    0    0  501 -0.00000000000E+00 -0.00000000000E+00 -0.45703524886E+03  0.45703524886E+03  0.00000000000E+00 0.  1.
         23    2    1    2    0    0 -0.91822194633E+01 -0.10335920433E+02 -0.28050346808E+03  0.29511907397E+03  0.90674846615E+02 0.  0.
         23    2    1    2    0    0  0.91822194633E+01  0.10335920433E+02 -0.15651875904E+03  0.18192919663E+03  0.91700415769E+02 0.  0.
          5    1    3    3  502    0  0.24647743208E+02  0.29145273437E+02 -0.97361661105E+02  0.10468209619E+03  0.47000000000E+01 0. -1.
         -5    1    4    4    0  503 -0.37768176533E+02 -0.12509859363E+02 -0.61249747964E+02  0.73188478366E+02  0.47000000000E+01 0.  1.
          5    1    4    4  503    0  0.46950395996E+02  0.22845779796E+02 -0.95269011072E+02  0.10874071827E+03  0.47000000000E+01 0. -1.
         -5    1    3    3    0  502 -0.33829962672E+02 -0.39481193870E+02 -0.18314180697E+03  0.19043697778E+03  0.47000000000E+01 0.  1.
<mgrwt>
<rscale>  0 0.92482240E+02</rscale>
<asrwt>0</asrwt>
<pdfrwt beam="1">  1        1 0.30789263E-02 0.92736782E+02</pdfrwt>
<pdfrwt beam="2">  1       -1 0.70313119E-01 0.92736782E+02</pdfrwt>
<totfact> 0.64202823E+03</totfact>
</mgrwt>
</event>
<event>
 8    1  0.2964543E-004  0.9947483E+02  0.7546771E-02  0.1283856E+00
         -2   -1    0    0    0  501 -0.00000000000E+00  0.00000000000E+00  0.25025189990E+02  0.25025189990E+02  0.00000000000E+00 0.  1.
          2   -1    0    0  501    0  0.00000000000E+00 -0.00000000000E+00 -0.38256231828E+03  0.38256231828E+03  0.00000000000E+00 0. -1.
         23    2    1    2    0    0 -0.14703908853E+02  0.28952410353E+02 -0.15161686454E+03  0.17889907917E+03  0.89234297866E+02 0.  0.
         23    2    1    2    0    0  0.14703908853E+02 -0.28952410353E+02 -0.20592026375E+03  0.22868842910E+03  0.94025504938E+02 0.  0.
          5    1    4    4  502    0 -0.17799608904E+02 -0.20511778527E+02 -0.18861655687E+03  0.19061965969E+03  0.47000000000E+01 0. -1.
         -5    1    4    4    0  502  0.32503517757E+02 -0.84406318264E+01 -0.17303706881E+02  0.38068769406E+02  0.47000000000E+01 0.  1.
          5    1    3    3  503    0  0.32078979575E+02 -0.88878620325E+01 -0.42341326755E+02  0.54064156088E+02  0.47000000000E+01 0. -1.
         -5    1    3    3    0  503 -0.46782888428E+02  0.37840272386E+02 -0.10927553778E+03  0.12483492308E+03  0.47000000000E+01 0.  1.
<mgrwt>
<rscale>  0 0.98326124E+02</rscale>
<asrwt>0</asrwt>
<pdfrwt beam="1">  1        2 0.58855737E-01 0.99474834E+02</pdfrwt>
<pdfrwt beam="2">  1       -2 0.38500295E-02 0.99474834E+02</pdfrwt>
<totfact> 0.22144994E+04</totfact>
</mgrwt>
</event>
<event>
 8    1  0.2964543E-004  0.1172799E+03  0.7546771E-02  0.1260887E+00
          1   -1    0    0  501    0  0.00000000000E+00  0.00000000000E+00  0.36667809297E+02  0.36667809297E+02  0.00000000000E+00 0. -1.
         -1   -1    0    0    0  501 -0.00000000000E+00 -0.00000000000E+00 -0.32943882410E+03  0.32943882410E+03  0.00000000000E+00 0.  1.
         23    2    1    2    0    0 -0.21526714074E+01  0.16446069535E+01 -0.22341601626E+03  0.25232776689E+03  0.11724865412E+03 0.  0.
         23    2    1    2    0    0  0.21526714074E+01 -0.16446069535E+01 -0.69354998536E+02  0.11377886651E+03  0.90156396977E+02 0.  0.
          5    1    4    4  502    0  0.25659953907E+02  0.32579570249E+02 -0.13181817999E+02  0.43768846888E+02  0.47000000000E+01 0. -1.
         -5    1    4    4    0  502 -0.23507282500E+02 -0.34224177202E+02 -0.56173180537E+02  0.70010019621E+02  0.47000000000E+01 0.  1.
          5    1    3    3  503    0 -0.12920211981E+02  0.48470139314E+02 -0.45191678782E+02  0.67680603675E+02  0.47000000000E+01 0. -1.
         -5    1    3    3    0  503  0.10767540573E+02 -0.46825532360E+02 -0.17822433748E+03  0.18464716321E+03  0.47000000000E+01 0.  1.
<mgrwt>
<rscale>  0 0.10982873E+03</rscale>
<asrwt>0</asrwt>
<pdfrwt beam="1">  1        1 0.56412015E-02 0.11727995E+03</pdfrwt>
<pdfrwt beam="2">  1       -1 0.50682895E-01 0.11727995E+03</pdfrwt>
<totfact> 0.53149169E+03</totfact>
</mgrwt>
</event>
<event>
 8    1  0.2964543E-004  0.1573956E+03  0.7546771E-02  0.1191674E+00
         -1   -1    0    0    0  501 -0.00000000000E+00  0.00000000000E+00  0.72604376705E+02  0.72604376705E+02  0.00000000000E+00 0.  1.
          1   -1    0    0  501    0  0.00000000000E+00 -0.00000000000E+00 -0.34366181646E+03  0.34366181646E+03  0.00000000000E+00 0. -1.
         23    2    1    2    0    0  0.87693336309E+02  0.91300170033E+02 -0.11781528218E+03  0.19659251653E+03  0.93500452201E+02 0.  0.
         23    2    1    2    0    0 -0.87693336309E+02 -0.91300170033E+02 -0.15324215758E+03  0.21967367663E+03  0.93528193952E+02 0.  0.
          5    1    3    3  502    0  0.84899797206E+02  0.22250172291E+02 -0.60708336486E+02  0.10682058721E+03  0.47000000000E+01 0. -1.
         -5    1    3    3    0  502  0.27935391033E+01  0.69049997742E+02 -0.57106945691E+02  0.89771929327E+02  0.47000000000E+01 0.  1.
          5    1    4    4  503    0 -0.21094510533E+02 -0.60039699173E+02 -0.12571300226E+03  0.14098082419E+03  0.47000000000E+01 0. -1.
         -5    1    4    4    0  503 -0.66598825776E+02 -0.31260470860E+02 -0.27529155319E+02  0.78692852444E+02  0.47000000000E+01 0.  1.
<mgrwt>
<rscale>  0 0.15739145E+03</rscale>
<asrwt>0</asrwt>
<pdfrwt beam="1">  1        1 0.52871047E-01 0.15739557E+03</pdfrwt>
<pdfrwt beam="2">  1       -1 0.11169904E-01 0.15739557E+03</pdfrwt>
<totfact> 0.36759362E+03</totfact>
</mgrwt>
</event>
<event>
 8    1  0.2964543E-004  0.1251057E+03  0.7546771E-02  0.1235610E+00
         -3   -1    0    0    0  501 -0.00000000000E+00  0.00000000000E+00  0.31334575672E+02  0.31334575672E+02  0.00000000000E+00 0.  1.
          3   -1    0    0  501    0  0.00000000000E+00 -0.00000000000E+00 -0.49963466267E+03  0.49963466267E+03  0.00000000000E+00 0. -1.
         23    2    1    2    0    0  0.79936294558E+02 -0.30647240074E+02 -0.20044313127E+03  0.23533639642E+03  0.88750808977E+02 0.  0.
         23    2    1    2    0    0 -0.79936294558E+02  0.30647240074E+02 -0.26785695573E+03  0.29563284192E+03  0.91226991513E+02 0.  0.
          5    1    4    4  502    0 -0.38266434243E+02  0.50121301273E+02 -0.22074507875E+03  0.22962348447E+03  0.47000000000E+01 0. -1.
         -5    1    3    3    0  503  0.89059947756E+02 -0.95496774269E+01 -0.11017206227E+03  0.14206633640E+03  0.47000000000E+01 0.  1.
          5    1    3    3  503    0 -0.91236531983E+01 -0.21097562647E+02 -0.90271069005E+02  0.93270060022E+02  0.47000000000E+01 0. -1.
         -5    1    4    4    0  502 -0.41669860315E+02 -0.19474061199E+02 -0.47111876978E+02  0.66009357448E+02  0.47000000000E+01 0.  1.
<mgrwt>
<rscale>  0 0.12465474E+03</rscale>
<asrwt>0</asrwt>
<pdfrwt beam="1">  1        3 0.76866872E-01 0.12510567E+03</pdfrwt>
<pdfrwt beam="2">  1       -3 0.48207039E-02 0.12510567E+03</pdfrwt>
<totfact> 0.89686523E+02</totfact>
</mgrwt>
</event>
<event>
 8    1  0.2964543E-004  0.9526548E+02  0.7546771E-02  0.1291811E+00
         -2   -1    0    0    0  501 -0.00000000000E+00  0.00000000000E+00  0.39680632421E+02  0.39680632421E+02  0.00000000000E+00 0.  1.
          2   -1    0    0  501    0  0.00000000000E+00 -0.00000000000E+00 -0.25195887380E+03  0.25195887380E+03  0.00000000000E+00 0. -1.
         23    2    1    2    0    0  0.83550677511E+01 -0.19910556503E+02 -0.58251816221E+02  0.11166371596E+03  0.92786173282E+02 0.  0.
         23    2    1    2    0    0 -0.83550677511E+01  0.19910556503E+02 -0.15402642516E+03  0.17997579026E+03  0.90558864916E+02 0.  0.
          5    1    4    4  502    0 -0.26041944330E+02  0.50052711533E+02 -0.80330589856E+02  0.98277924596E+02  0.47000000000E+01 0. -1.
         -5    1    3    3    0  503 -0.32253936561E+02 -0.12963427782E+02  0.56069412849E+01  0.35523156871E+02  0.47000000000E+01 0.  1.
          5    1    3    3  503    0  0.40609004312E+02 -0.69471287214E+01 -0.63858757506E+02  0.76140559092E+02  0.47000000000E+01 0. -1.
         -5    1    4    4    0  502  0.17686876579E+02 -0.30142155030E+02 -0.73695835304E+02  0.81697865664E+02  0.47000000000E+01 0.  1.
<mgrwt>
<rscale>  0 0.94718797E+02</rscale>
<asrwt>0</asrwt>
<pdfrwt beam="1">  1        2 0.38762903E-01 0.95265478E+02</pdfrwt>
<pdfrwt beam="2">  1       -2 0.61047128E-02 0.95265478E+02</pdfrwt>
<totfact> 0.17220739E+04</totfact>
</mgrwt>
</event>
<event>
 8    1  0.2964543E-004  0.1175713E+03  0.7546771E-02  0.1247647E+00
          2   -1    0    0  501    0  0.00000000000E+00  0.00000000000E+00  0.20636887784E+02  0.20636887784E+02  0.00000000000E+00 0. -1.
         -2   -1    0    0    0  501 -0.00000000000E+00 -0.00000000000E+00 -0.77110263462E+03  0.77110263462E+03  0.00000000000E+00 0.  1.
         23    2    1    2    0    0  0.69885113797E+02 -0.25318299079E+02 -0.52482827277E+03  0.53783616095E+03  0.91093768834E+02 0.  0.
         23    2    1    2    0    0 -0.69885113797E+02  0.25318299079E+02 -0.22563747407E+03  0.25390336146E+03  0.89608603714E+02 0.  0.
          5    1    4    4  502    0 -0.51294203778E+02 -0.12779730432E+02 -0.49146441622E+02  0.72331732838E+02  0.47000000000E+01 0. -1.
         -5    1    4    4    0  502 -0.18590910019E+02  0.38098029510E+02 -0.17649103244E+03  0.18157162862E+03  0.47000000000E+01 0.  1.
          5    1    3    3  503    0 -0.92096502501E+00  0.23918889412E+02 -0.55464976952E+02  0.60592203423E+02  0.47000000000E+01 0. -1.
         -5    1    3    3    0  503  0.70806078822E+02 -0.49237188491E+02 -0.46936329582E+03  0.47724395752E+03  0.47000000000E+01 0.  1.
<mgrwt>
<rscale>  0 0.11728356E+03</rscale>
<asrwt>0</asrwt>
<pdfrwt beam="1">  1        2 0.31749057E-02 0.11757134E+03</pdfrwt>
<pdfrwt beam="2">  1       -2 0.11863118E+00 0.11757134E+03</pdfrwt>
<totfact> 0.15777028E+03</totfact>
</mgrwt>
</event>
<event>
 8    1  0.2964543E-004  0.9317362E+02  0.7546771E-02  0.1295421E+00
         -1   -1    0    0    0  501 -0.00000000000E+00  0.00000000000E+00  0.22572918046E+02  0.22572918046E+02  0.00000000000E+00 0.  1.
          1   -1    0    0  501    0  0.00000000000E+00 -0.00000000000E+00 -0.41049862378E+03  0.41049862378E+03  0.00000000000E+00 0. -1.
         23    2    1    2    0    0  0.17340969391E+02  0.24016338370E+02 -0.24906803738E+03  0.26592519596E+03  0.88339282710E+02 0.  0.
         23    2    1    2    0    0 -0.17340969391E+02 -0.24016338370E+02 -0.13885766835E+03  0.16714634587E+03  0.88198385190E+02 0.  0.
          5    1    4    4  502    0 -0.42585290300E+01 -0.54998809111E+02 -0.61999631084E+02  0.83120685318E+02  0.47000000000E+01 0. -1.
         -5    1    4    4    0  502 -0.13082440361E+02  0.30982470741E+02 -0.76858037262E+02  0.84025660550E+02  0.47000000000E+01 0.  1.
          5    1    3    3  503    0 -0.16669479988E+02 -0.26133683629E+02 -0.10448812177E+03  0.10909032301E+03  0.47000000000E+01 0. -1.
         -5    1    3    3    0  503  0.34010449379E+02  0.50150021999E+02 -0.14457991561E+03  0.15683487295E+03  0.47000000000E+01 0.  1.
<mgrwt>
<rscale>  0 0.93140203E+02</rscale>
<asrwt>0</asrwt>
<pdfrwt beam="1">  1        1 0.63153626E-01 0.93173615E+02</pdfrwt>
<pdfrwt beam="2">  1       -1 0.34727571E-02 0.93173615E+02</pdfrwt>
<totfact> 0.16173637E+04</totfact>
</mgrwt>
</event>
<event>
 8    1  0.2964543E-004  0.9515569E+02  0.7546771E-02  0.1291636E+00
          1   -1    0    0  501    0  0.00000000000E+00  0.00000000000E+00  0.61148427061E+02  0.61148427061E+02  0.00000000000E+00 0. -1.
         -1   -1    0    0    0  501 -0.00000000000E+00 -0.00000000000E+00 -0.14605398669E+03  0.14605398669E+03  0.00000000000E+00 0.  1.
         23    2    1    2    0    0 -0.21745501289E+02 -0.13011135757E+02 -0.38332165430E+02  0.10126051656E+03  0.90234033644E+02 0.  0.
         23    2    1    2    0    0  0.21745501289E+02  0.13011135757E+02 -0.46573394202E+02  0.10594189719E+03  0.91719398456E+02 0.  0.
          5    1    4    4  502    0  0.50090797786E+02  0.29838652657E+02 -0.15771789350E+02  0.60582774405E+02  0.47000000000E+01 0. -1.
         -5    1    4    4    0  502 -0.28345296498E+02 -0.16827516900E+02 -0.30801604853E+02  0.45359122788E+02  0.47000000000E+01 0.  1.
          5    1    3    3  503    0 -0.97689908293E+00  0.27350380624E+02  0.14600075619E+02  0.31372756656E+02  0.47000000000E+01 0. -1.
         -5    1    3    3    0  503 -0.20768602206E+02 -0.40361516381E+02 -0.52932241049E+02  0.69887759905E+02  0.47000000000E+01 0.  1.
<mgrwt>
<rscale>  0 0.94795928E+02</rscale>
<asrwt>0</asrwt>
<pdfrwt beam="1">  1        1 0.94074504E-02 0.95155686E+02</pdfrwt>
<pdfrwt beam="2">  1       -1 0.22469844E-01 0.95155686E+02</pdfrwt>
<totfact> 0.10529587E+04</totfact>
</mgrwt>
</event>
<event>
 8    1  0.2964543E-004  0.1188601E+03  0.7546771E-02  0.1251601E+00
         -1   -1    0    0    0  501 -0.00000000000E+00  0.00000000000E+00  0.16947372667E+02  0.16947372667E+02  0.00000000000E+00 0.  1.
          1   -1    0    0  501    0  0.00000000000E+00 -0.00000000000E+00 -0.77011088524E+03  0.77011088524E+03  0.00000000000E+00 0. -1.
         23    2    1    2    0    0 -0.43549043984E+02 -0.25395731249E+02 -0.31457014477E+03  0.33627682053E+03  0.10763949853E+03 0.  0.
         23    2    1    2    0    0  0.43549043984E+02  0.25395731249E+02 -0.43859336780E+03  0.45078143738E+03  0.91095003207E+02 0.  0.
          5    1    4    4  502    0  0.63828653608E+02 -0.80843970534E+01 -0.25919011113E+03  0.26709746948E+03  0.47000000000E+01 0. -1.
         -5    1    4    4    0  502 -0.20279609625E+02  0.33480128303E+02 -0.17940325668E+03  0.18368396790E+03  0.47000000000E+01 0.  1.
          5    1    3    3  503    0  0.22305064517E+02  0.22146213039E+02 -0.14167775916E+03  0.14519865046E+03  0.47000000000E+01 0. -1.
         -5    1    3    3    0  503 -0.65854108501E+02 -0.47541944289E+02 -0.17289238561E+03  0.19107817007E+03  0.47000000000E+01 0.  1.
<mgrwt>
<rscale>  0 0.11498854E+03</rscale>
<asrwt>0</asrwt>
<pdfrwt beam="1">  1        1 0.11847858E+00 0.11886010E+03</pdfrwt>
<pdfrwt beam="2">  1       -1 0.26072884E-02 0.11886010E+03</pdfrwt>
<totfact> 0.10771674E+04</totfact>
</mgrwt>
</event>
<event>
 8    1  0.2964543E-004  0.1090101E+03  0.7546771E-02  0.1262590E+00
          2   -1    0    0  501    0  0.00000000000E+00  0.00000000000E+00  0.44444887233E+03  0.44444887233E+03  0.00000000000E+00 0. -1.
         -2   -1    0    0    0  501 -0.00000000000E+00 -0.00000000000E+00 -0.29210595655E+02  0.29210595655E+02  0.00000000000E+00 0.  1.
         23    2    1    2    0    0  0.47727193622E+02  0.37562549947E+02  0.13776042894E+03  0.17567341293E+03  0.90522826181E+02 0.  0.
         23    2    1    2    0    0 -0.47727193622E+02 -0.37562549947E+02  0.27747784774E+03  0.29798605506E+03  0.90071653988E+02 0.  0.
          5    1    4    4  502    0 -0.59667504090E+02  0.22317592884E+00  0.10414359600E+03  0.12011760670E+03  0.47000000000E+01 0. -1.
         -5    1    3    3    0  503  0.37231375648E+02  0.11399170922E+02  0.46095051447E+01  0.39489922360E+02  0.47000000000E+01 0.  1.
          5    1    3    3  503    0  0.10495817974E+02  0.26163379026E+02  0.13315092379E+03  0.13618349057E+03  0.47000000000E+01 0. -1.
         -5    1    4    4    0  502  0.11940310468E+02 -0.37785725876E+02  0.17333425174E+03  0.17786844836E+03  0.47000000000E+01 0.  1.
<mgrwt>
<rscale>  0 0.10891644E+03</rscale>
<asrwt>0</asrwt>
<pdfrwt beam="1">  1        2 0.68376745E-01 0.10901015E+03</pdfrwt>
<pdfrwt beam="2">  1       -2 0.44939381E-02 0.10901015E+03</pdfrwt>
<totfact> 0.15158903E+04</totfact>
</mgrwt>
</event>
<event>
 8    1  0.2964543E-004  0.1073464E+03  0.7546771E-02  0.1266554E+00
          1   -1    0    0  501    0  0.00000000000E+00  0.00000000000E+00  0.16104395521E+03  0.16104395521E+03  0.00000000000E+00 0. -1.
         -1   -1    0    0    0  501 -0.00000000000E+00 -0.00000000000E+00 -0.46382682943E+03  0.46382682943E+03  0.00000000000E+00 0.  1.
         23    2    1    2    0    0 -0.13051773110E+02 -0.55912040743E+02 -0.43943470696E+03  0.45235618458E+03  0.90701438593E+02 0.  0.
         23    2    1    2    0    0  0.13051773110E+02  0.55912040743E+02  0.13665183274E+03  0.17251460007E+03  0.88266974364E+02 0.  0.
          5    1    3    3  502    0 -0.47018257014E+02 -0.38437447729E+02 -0.17869094488E+03  0.18878744043E+03  0.47000000000E+01 0. -1.
         -5    1    4    4    0  503 -0.17616861370E+02  0.32005075758E+02  0.75479029418E+01  0.37599727627E+02  0.47000000000E+01 0.  1.
          5    1    4    4  503    0  0.30668634481E+02  0.23906964985E+02  0.12910392980E+03  0.13491487244E+03  0.47000000000E+01 0. -1.
         -5    1    3    3    0  502  0.33966483903E+02 -0.17474593013E+02 -0.26074376208E+03  0.26356874415E+03  0.47000000000E+01 0.  1.
<mgrwt>
<rscale>  0 0.10683049E+03</rscale>
<asrwt>0</asrwt>
<pdfrwt beam="1">  1        1 0.24775993E-01 0.10734643E+03</pdfrwt>
<pdfrwt beam="2">  1       -1 0.71357973E-01 0.10734643E+03</pdfrwt>
<totfact> 0.40251646E+02</totfact>
</mgrwt>
</event>
<event>
 8    1  0.2964543E-004  0.1124847E+03  0.7546771E-02  0.1256331E+00
         -2   -1    0    0    0  501 -0.00000000000E+00  0.00000000000E+00  0.47339762972E+03  0.47339762972E+03  0.00000000000E+00 0.  1.
          2   -1    0    0  501    0  0.00000000000E+00 -0.00000000000E+00 -0.47542935658E+02  0.47542935658E+02  0.00000000000E+00 0. -1.
         23    2    1    2    0    0  0.64654465096E+02 -0.22217464410E+01  0.38556860361E+03  0.40145931531E+03  0.91221147452E+02 0.  0.
         23    2    1    2    0    0 -0.64654465096E+02  0.22217464410E+01  0.40286090452E+02  0.11948125007E+03  0.92019911000E+02 0.  0.
          5    1    3    3  502    0 -0.18130950020E+02  0.14035922440E+02  0.46995556991E+02  0.52501531828E+02  0.47000000000E+01 0. -1.
         -5    1    3    3    0  502  0.82785415116E+02 -0.16257668881E+02  0.33857304662E+03  0.34895778348E+03  0.47000000000E+01 0.  1.
          5    1    4    4  503    0 -0.75269502573E+02  0.26244575522E+02  0.12263301594E+02  0.80788330394E+02  0.47000000000E+01 0. -1.
         -5    1    4    4    0  503  0.10615037477E+02 -0.24022829081E+02  0.28022788857E+02  0.38692919676E+02  0.47000000000E+01 0.  1.
<mgrwt>
<rscale>  0 0.11232119E+03</rscale>
<asrwt>0</asrwt>
<pdfrwt beam="1">  1        2 0.73142981E-02 0.11248467E+03</pdfrwt>
<pdfrwt beam="2">  1       -2 0.72830401E-01 0.11248467E+03</pdfrwt>
<totfact> 0.15989187E+03</totfact>
</mgrwt>
</event>
<event>
 8    1  0.2964543E-004  0.1025577E+03  0.7546771E-02  0.1277113E+00
          4   -1    0    0  501    0  0.00000000000E+00  0.00000000000E+00  0.52407159861E+03  0.52407159861E+03  0.00000000000E+00 0. -1.
         -4   -1    0    0    0  501 -0.00000000000E+00 -0.00000000000E+00 -0.95341340720E+02  0.95341340720E+02  0.00000000000E+00 0.  1.
         23    2    1    2    0    0  0.16349869285E+02  0.42494853679E+02 -0.63114337138E+02  0.11698961940E+03  0.87349989588E+02 0.  0.
         23    2    1    2    0    0 -0.16349869285E+02 -0.42494853679E+02  0.49184459503E+03  0.50242331993E+03  0.91896441351E+02 0.  0.
          5    1    4    4  502    0 -0.51442355776E+02 -0.13949041551E+02  0.19898957492E+03  0.20605783813E+03  0.47000000000E+01 0. -1.
         -5    1    4    4    0  502  0.35092486490E+02 -0.28545812128E+02  0.29285502011E+03  0.29636548179E+03  0.47000000000E+01 0.  1.
          5    1    3    3  503    0  0.50077406147E+01 -0.24546707426E+02 -0.22084843020E+01  0.25584872766E+02  0.47000000000E+01 0. -1.
         -5    1    3    3    0  503  0.11342128671E+02  0.67041561105E+02 -0.60905852836E+02  0.91404746638E+02  0.47000000000E+01 0.  1.
<mgrwt>
<rscale>  0 0.10152906E+03</rscale>
<asrwt>0</asrwt>
<pdfrwt beam="1">  1        4 0.80626398E-01 0.10255772E+03</pdfrwt>
<pdfrwt beam="2">  1       -4 0.14667899E-01 0.10255772E+03</pdfrwt>
<totfact> 0.87699756E+01</totfact>
</mgrwt>
</event>
<event>
 8    1  0.2964543E-004  0.2222044E+03  0.7546771E-02  0.1132900E+00
          4   -1    0    0  501    0  0.00000000000E+00  0.00000000000E+00  0.10797351484E+04  0.10797351484E+04  0.00000000000E+00 0. -1.
         -4   -1    0    0    0  501 -0.00000000000E+00 -0.00000000000E+00 -0.86701952016E+02  0.86701952016E+02  0.00000000000E+00 0.  1.
         23    2    1    2    0    0 -0.19604908238E+03  0.12707618486E+02  0.89888938553E+03  0.92511186694E+03  0.96089087135E+02 0.  0.
         23    2    1    2    0    0  0.19604908238E+03 -0.12707618486E+02  0.94143810832E+02  0.24132523345E+03  0.10381755590E+03 0.  0.
          5    1    4    4  502    0  0.19527278741E+02  0.22013299748E+02 -0.12299095656E+02  0.32237520605E+02  0.47000000000E+01 0. -1.
         -5    1    3    3    0  503 -0.39732590405E+02  0.43340745026E+02  0.26696270526E+03  0.27340130746E+03  0.47000000000E+01 0.  1.
          5    1    3    3  503    0 -0.15631649197E+03 -0.30633126540E+02  0.63192668027E+03  0.65171055948E+03  0.47000000000E+01 0. -1.
         -5    1    4    4    0  502  0.17652180364E+03 -0.34720918234E+02  0.10644290649E+03  0.20908771285E+03  0.47000000000E+01 0.  1.
<mgrwt>
<rscale>  0 0.22132318E+03</rscale>
<asrwt>0</asrwt>
<pdfrwt beam="1">  1        4 0.16611309E+00 0.22220444E+03</pdfrwt>
<pdfrwt beam="2">  1       -4 0.13338763E-01 0.22220444E+03</pdfrwt>
<totfact> 0.20153452E+01</totfact>
</mgrwt>
</event>
<event>
 8    1  0.2964543E-004  0.9177124E+02  0.7546771E-02  0.1299597E+00
         -3   -1    0    0    0  501 -0.00000000000E+00  0.00000000000E+00  0.26579373431E+03  0.26579373431E+03  0.00000000000E+00 0.  1.
          3   -1    0    0  501    0  0.00000000000E+00 -0.00000000000E+00 -0.32322161103E+02  0.32322161103E+02  0.00000000000E+00 0. -1.
         23    2    1    2    0    0  0.88169019785E+01  0.11871621600E+02  0.89017257909E+02  0.12785160375E+03  0.90572000180E+02 0.  0.
         23    2    1    2    0    0 -0.88169019785E+01 -0.11871621600E+02  0.14445431530E+03  0.17026429166E+03  0.88905605259E+02 0.  0.
          5    1    4    4  502    0  0.20207243946E+02  0.29461271695E+02  0.83648398231E+02  0.91079326767E+02  0.47000000000E+01 0. -1.
         -5    1    4    4    0  502 -0.29024145924E+02 -0.41332893295E+02  0.60805917070E+02  0.79184964896E+02  0.47000000000E+01 0.  1.
          5    1    3    3  503    0 -0.25330617330E+02  0.32334720500E+02  0.15571103214E+02  0.44178315715E+02  0.47000000000E+01 0. -1.
         -5    1    3    3    0  503  0.34147519309E+02 -0.20463098900E+02  0.73446154695E+02  0.83673288038E+02  0.47000000000E+01 0.  1.
<mgrwt>
<rscale>  0 0.91357394E+02</rscale>
<asrwt>0</asrwt>
<pdfrwt beam="1">  1        3 0.49726403E-02 0.91771239E+02</pdfrwt>
<pdfrwt beam="2">  1       -3 0.40891342E-01 0.91771239E+02</pdfrwt>
<totfact> 0.28954471E+03</totfact>
</mgrwt>
</event>
<event>
 8    1  0.2964543E-004  0.1223383E+03  0.7546771E-02  0.1239326E+00
          2   -1    0    0  501    0  0.00000000000E+00  0.00000000000E+00  0.13140916665E+04  0.13140916665E+04  0.00000000000E+00 0. -1.
         -2   -1    0    0    0  501 -0.00000000000E+00 -0.00000000000E+00 -0.11618709535E+02  0.11618709535E+02  0.00000000000E+00 0.  1.
         23    2    1    2    0    0  0.43626562998E+02 -0.67855303507E+02  0.74635156571E+03  0.75631165938E+03  0.91973078954E+02 0.  0.
         23    2    1    2    0    0 -0.43626562998E+02  0.67855303507E+02  0.55612139128E+03  0.56939871669E+03  0.91849210736E+02 0.  0.
          5    1    4    4  502    0 -0.33009300183E+00 -0.21714313203E+02  0.84217410700E+02  0.87099268794E+02  0.47000000000E+01 0. -1.
         -5    1    4    4    0  502 -0.43296469996E+02  0.89569616711E+02  0.47190398058E+03  0.48229944789E+03  0.47000000000E+01 0.  1.
          5    1    3    3  503    0  0.77198032288E+01 -0.71079035319E+02  0.63827098549E+03  0.64228013012E+03  0.47000000000E+01 0. -1.
         -5    1    3    3    0  503  0.35906759769E+02  0.32237318119E+01  0.10808058022E+03  0.11403152926E+03  0.47000000000E+01 0.  1.
<mgrwt>
<rscale>  0 0.12231505E+03</rscale>
<asrwt>0</asrwt>
<pdfrwt beam="1">  1        2 0.20216783E+00 0.12233833E+03</pdfrwt>
<pdfrwt beam="2">  1       -2 0.17874948E-02 0.12233833E+03</pdfrwt>
<totfact> 0.15075340E+04</totfact>
</mgrwt>
</event>
<event>
 8    1  0.2964543E-004  0.9254506E+02  0.7546771E-02  0.1297105E+00
          1   -1    0    0  501    0  0.00000000000E+00  0.00000000000E+00  0.40134280412E+02  0.40134280412E+02  0.00000000000E+00 0. -1.
         -1   -1    0    0    0  501 -0.00000000000E+00 -0.00000000000E+00 -0.32611622650E+03  0.32611622650E+03  0.00000000000E+00 0.  1.
         23    2    1    2    0    0  0.34930181716E+01  0.17618986119E+02 -0.25147952337E+03  0.26796742059E+03  0.90785229940E+02 0.  0.
         23    2    1    2    0    0 -0.34930181716E+01 -0.17618986119E+02 -0.34502422721E+02  0.98283086326E+02  0.90258063552E+02 0.  0.
          5    1    3    3  502    0 -0.27313962213E+02  0.22040507749E+02 -0.37089604238E+02  0.51279286814E+02  0.47000000000E+01 0. -1.
         -5    1    4    4    0  503  0.42756276019E+02 -0.22778151546E+01 -0.16301589221E+02  0.46055611949E+02  0.47000000000E+01 0.  1.
          5    1    4    4  503    0 -0.46249294190E+02 -0.15341170964E+02 -0.18200833501E+02  0.52227474377E+02  0.47000000000E+01 0. -1.
         -5    1    3    3    0  502  0.30806980384E+02 -0.44215216305E+01 -0.21438991913E+03  0.21668813377E+03  0.47000000000E+01 0.  1.
<mgrwt>
<rscale>  0 0.92415515E+02</rscale>
<asrwt>0</asrwt>
<pdfrwt beam="1">  1        1 0.61745048E-02 0.92545058E+02</pdfrwt>
<pdfrwt beam="2">  1       -1 0.50171726E-01 0.92545058E+02</pdfrwt>
<totfact> 0.47080904E+03</totfact>
</mgrwt>
</event>
<event>
 8    1  0.2964543E-004  0.1670831E+03  0.7546771E-02  0.1183950E+00
          2   -1    0    0  501    0  0.00000000000E+00  0.00000000000E+00  0.35213487645E+03  0.35213487645E+03  0.00000000000E+00 0. -1.
         -2   -1    0    0    0  501 -0.00000000000E+00 -0.00000000000E+00 -0.78559266365E+02  0.78559266365E+02  0.00000000000E+00 0.  1.
         23    2    1    2    0    0 -0.39224093460E+02 -0.11885137789E+03  0.19201767512E+03  0.25453397187E+03  0.11069135352E+03 0.  0.
         23    2    1    2    0    0  0.39224093460E+02  0.11885137789E+03  0.81557934972E+02  0.17616017095E+03  0.93362356117E+02 0.  0.
          5    1    3    3  502    0 -0.43445069047E+02  0.41723166218E+01  0.50412949867E+02  0.66846374358E+02  0.47000000000E+01 0. -1.
         -5    1    3    3    0  502  0.42209755874E+01 -0.12302369451E+03  0.14160472525E+03  0.18768759751E+03  0.47000000000E+01 0.  1.
          5    1    4    4  503    0  0.62183206844E+02  0.94551694497E+02  0.34802566650E+02  0.11849085531E+03  0.47000000000E+01 0. -1.
         -5    1    4    4    0  503 -0.22959113384E+02  0.24299683390E+02  0.46755368322E+02  0.57669315647E+02  0.47000000000E+01 0.  1.
<mgrwt>
<rscale>  0 0.16427828E+03</rscale>
<asrwt>0</asrwt>
<pdfrwt beam="1">  1        2 0.54174595E-01 0.16708308E+03</pdfrwt>
<pdfrwt beam="2">  1       -2 0.12086041E-01 0.16708308E+03</pdfrwt>
<totfact> 0.43657960E+03</totfact>
</mgrwt>
</event>
<event>
 8    1  0.2964543E-004  0.1336227E+03  0.7546771E-02  0.1224872E+00
         -2   -1    0    0    0  501 -0.00000000000E+00  0.00000000000E+00  0.33469749572E+03  0.33469749572E+03  0.00000000000E+00 0.  1.
          2   -1    0    0  501    0  0.00000000000E+00 -0.00000000000E+00 -0.52930874510E+02  0.52930874510E+02  0.00000000000E+00 0. -1.
         23    2    1    2    0    0  0.15903040329E+02 -0.87374893782E+02  0.10287885020E+03  0.16863892443E+03  0.99838621082E+02 0.  0.
         23    2    1    2    0    0 -0.15903040329E+02  0.87374893782E+02  0.17888777101E+03  0.21898944580E+03  0.89823515850E+02 0.  0.
          5    1    4    4  502    0  0.28906587600E+02  0.17275416323E+02  0.19664601894E+02  0.39278714126E+02  0.47000000000E+01 0. -1.
         -5    1    3    3    0  503 -0.30662211024E+02 -0.60912982601E+02  0.90591912447E+02  0.11348809292E+03  0.47000000000E+01 0.  1.
          5    1    3    3  503    0  0.46565251353E+02 -0.26461911181E+02  0.12286937757E+02  0.55150831511E+02  0.47000000000E+01 0. -1.
         -5    1    4    4    0  502 -0.44809627929E+02  0.70099477459E+02  0.15922316911E+03  0.17971073167E+03  0.47000000000E+01 0.  1.
<mgrwt>
<rscale>  0 0.13175714E+03</rscale>
<asrwt>0</asrwt>
<pdfrwt beam="1">  1        2 0.81432117E-02 0.13362271E+03</pdfrwt>
<pdfrwt beam="2">  1       -2 0.51491921E-01 0.13362271E+03</pdfrwt>
<totfact> 0.28835181E+03</totfact>
</mgrwt>
</event>
<event>
 8    1  0.2964543E-004  0.9274436E+02  0.7546771E-02  0.1296910E+00
          2   -1    0    0  501    0  0.00000000000E+00  0.00000000000E+00  0.69082422887E+02  0.69082422887E+02  0.00000000000E+00 0. -1.
         -2   -1    0    0    0  501 -0.00000000000E+00 -0.00000000000E+00 -0.16897361203E+03  0.16897361203E+03  0.00000000000E+00 0.  1.
         23    2    1    2    0    0  0.72910377753E-01  0.13771919573E+02  0.11809630500E+02  0.93493223962E+02  0.91716108016E+02 0.  0.
         23    2    1    2    0    0 -0.72910377753E-01 -0.13771919573E+02 -0.11170081964E+03  0.14456281096E+03  0.90728507747E+02 0.  0.
          5    1    3    3  502    0 -0.41740386393E+02 -0.52652709047E+01 -0.82715526765E+01  0.43133415325E+02  0.47000000000E+01 0. -1.
         -5    1    4    4    0  503  0.59175119807E+01  0.25177301072E+02 -0.99691660230E+02  0.10309912976E+03  0.47000000000E+01 0.  1.
          5    1    4    4  503    0 -0.59904223585E+01 -0.38949220645E+02 -0.12009159415E+02  0.41463681201E+02  0.47000000000E+01 0. -1.
         -5    1    3    3    0  502  0.41813296771E+02  0.19037190477E+02  0.20081183177E+02  0.50359808636E+02  0.47000000000E+01 0.  1.
<mgrwt>
<rscale>  0 0.92499253E+02</rscale>
<asrwt>0</asrwt>
<pdfrwt beam="1">  1        2 0.10628065E-01 0.92744356E+02</pdfrwt>
<pdfrwt beam="2">  1       -2 0.25995940E-01 0.92744356E+02</pdfrwt>
<totfact> 0.71988792E+03</totfact>
</mgrwt>
</event>
<event>
 8    1  0.2964543E-004  0.1146092E+03  0.7546771E-02  0.1252445E+00
          4   -1    0    0  501    0  0.00000000000E+00  0.00000000000E+00  0.12392048362E+03  0.12392048362E+03  0.00000000000E+00 0. -1.
         -4   -1    0    0    0  501 -0.00000000000E+00 -0.00000000000E+00 -0.10612152086E+03  0.10612152086E+03  0.00000000000E+00 0.  1.
         23    2    1    2    0    0 -0.51131551691E+02  0.46626914288E+02  0.16798520536E+02  0.11542846207E+03  0.90846215388E+02 0.  0.
         23    2    1    2    0    0  0.51131551691E+02 -0.46626914288E+02  0.10004422244E+01  0.11461354242E+03  0.91360596025E+02 0.  0.
          5    1    4    4  502    0  0.35560707769E+02 -0.68391174349E+02 -0.20572724370E+02  0.79920233069E+02  0.47000000000E+01 0. -1.
         -5    1    3    3    0  503 -0.67547616732E+02  0.41678324739E+01  0.42347888258E+01  0.67971132035E+02  0.47000000000E+01 0.  1.
          5    1    3    3  503    0  0.16416065041E+02  0.42459081814E+02  0.12563731710E+02  0.47457330039E+02  0.47000000000E+01 0. -1.
         -5    1    4    4    0  502  0.15570843922E+02  0.21764260061E+02  0.21573166594E+02  0.34693309346E+02  0.47000000000E+01 0.  1.
<mgrwt>
<rscale>  0 0.11450663E+03</rscale>
<asrwt>0</asrwt>
<pdfrwt beam="1">  1        4 0.19064690E-01 0.11460918E+03</pdfrwt>
<pdfrwt beam="2">  1       -4 0.16326388E-01 0.11460918E+03</pdfrwt>
<totfact> 0.12669844E+03</totfact>
</mgrwt>
</event>
<event>
 8    1  0.2964543E-004  0.1078063E+03  0.7546771E-02  0.1270850E+00
          1   -1    0    0  501    0  0.00000000000E+00  0.00000000000E+00  0.57556406049E+03  0.57556406049E+03  0.00000000000E+00 0. -1.
         -1   -1    0    0    0  501 -0.00000000000E+00 -0.00000000000E+00 -0.18322156036E+02  0.18322156036E+02  0.00000000000E+00 0.  1.
         23    2    1    2    0    0 -0.56104866960E+02 -0.96832212877E+01  0.30276730176E+03  0.31751775126E+03  0.76863271329E+02 0.  0.
         23    2    1    2    0    0  0.56104866960E+02  0.96832212877E+01  0.25447460270E+03  0.27636846527E+03  0.91546077503E+02 0.  0.
          5    1    4    4  502    0  0.65740321329E+02  0.36382257594E+02  0.21282506674E+03  0.22574777418E+03  0.47000000000E+01 0. -1.
         -5    1    3    3    0  503 -0.38941137993E+02  0.31351687323E+02  0.17929937020E+03  0.18619799860E+03  0.47000000000E+01 0.  1.
          5    1    3    3  503    0 -0.17163728967E+02 -0.41034908611E+02  0.12346793156E+03  0.13131975266E+03  0.47000000000E+01 0. -1.
         -5    1    4    4    0  502 -0.96354543681E+01 -0.26699036306E+02  0.41649535960E+02  0.50620691088E+02  0.47000000000E+01 0.  1.
<mgrwt>
<rscale>  0 0.10463037E+03</rscale>
<asrwt>0</asrwt>
<pdfrwt beam="1">  1        1 0.88548304E-01 0.10780633E+03</pdfrwt>
<pdfrwt beam="2">  1       -1 0.28187937E-02 0.10780633E+03</pdfrwt>
<totfact> 0.14351534E+04</totfact>
</mgrwt>
</event>
<event>
 8    1  0.2964543E-004  0.1029346E+03  0.7546771E-02  0.1275139E+00
          2   -1    0    0  501    0  0.00000000000E+00  0.00000000000E+00  0.31287686160E+03  0.31287686160E+03  0.00000000000E+00 0. -1.
         -2   -1    0    0    0  501 -0.00000000000E+00 -0.00000000000E+00 -0.30575651486E+03  0.30575651486E+03  0.00000000000E+00 0.  1.
         23    2    1    2    0    0 -0.28912888693E+02  0.30756700087E+02 -0.28843479244E+03  0.30566634600E+03  0.91953008922E+02 0.  0.
         23    2    1    2    0    0  0.28912888693E+02 -0.30756700087E+02  0.29555513918E+03  0.31296703046E+03  0.93880733512E+02 0.  0.
          5    1    4    4  502    0 -0.32153866956E+02 -0.25347515459E+02  0.10834623890E+03  0.11591964969E+03  0.47000000000E+01 0. -1.
         -5    1    4    4    0  502  0.61066755649E+02 -0.54091846280E+01  0.18720890028E+03  0.19704738077E+03  0.47000000000E+01 0.  1.
          5    1    3    3  503    0  0.99293534944E+00 -0.23449364853E+02 -0.23463754262E+02  0.33518597773E+02  0.47000000000E+01 0. -1.
         -5    1    3    3    0  503 -0.29905824042E+02  0.54206064939E+02 -0.26497103818E+03  0.27214774822E+03  0.47000000000E+01 0.  1.
<mgrwt>
<rscale>  0 0.10249295E+03</rscale>
<asrwt>0</asrwt>
<pdfrwt beam="1">  1        2 0.48134902E-01 0.10293455E+03</pdfrwt>
<pdfrwt beam="2">  1       -2 0.47039464E-01 0.10293455E+03</pdfrwt>
<totfact> 0.45455389E+02</totfact>
</mgrwt>
</event>
<event>
 8    1  0.2964543E-004  0.1339093E+03  0.7546771E-02  0.1237028E+00
          1   -1    0    0  501    0  0.00000000000E+00  0.00000000000E+00  0.25384121560E+03  0.25384121560E+03  0.00000000000E+00 0. -1.
         -1   -1    0    0    0  501 -0.00000000000E+00 -0.00000000000E+00 -0.53764661134E+02  0.53764661134E+02  0.00000000000E+00 0.  1.
         23    2    1    2    0    0 -0.41280190305E+02  0.62652430877E+01  0.64554317308E+02  0.11708559746E+03  0.88308945566E+02 0.  0.
         23    2    1    2    0    0  0.41280190305E+02 -0.62652430877E+01  0.13552223716E+03  0.19052027928E+03  0.12723361454E+03 0.  0.
          5    1    4    4  502    0  0.69869639363E+02 -0.22655528822E+02  0.13876377163E+03  0.15707486689E+03  0.47000000000E+01 0. -1.
         -5    1    4    4    0  502 -0.28589449058E+02  0.16390285734E+02 -0.32415344725E+01  0.33445412385E+02  0.47000000000E+01 0.  1.
          5    1    3    3  503    0  0.13700239772E+02  0.15274132409E+02  0.56879845075E+02  0.60649834842E+02  0.47000000000E+01 0. -1.
         -5    1    3    3    0  503 -0.54980430077E+02 -0.90088893216E+01  0.76744722337E+01  0.56435762618E+02  0.47000000000E+01 0.  1.
<mgrwt>
<rscale>  0 0.12375470E+03</rscale>
<asrwt>0</asrwt>
<pdfrwt beam="1">  1        1 0.39052494E-01 0.13390930E+03</pdfrwt>
<pdfrwt beam="2">  1       -1 0.82714865E-02 0.13390930E+03</pdfrwt>
<totfact> 0.83867427E+03</totfact>
</mgrwt>
</event>
<event>
 8    1  0.2964543E-004  0.1178025E+03  0.7546771E-02  0.1247404E+00
         -3   -1    0    0    0  501 -0.00000000000E+00  0.00000000000E+00  0.41223917007E+02  0.41223917007E+02  0.00000000000E+00 0.  1.
          3   -1    0    0  501    0  0.00000000000E+00 -0.00000000000E+00 -0.62973695288E+03  0.62973695288E+03  0.00000000000E+00 0. -1.
         23    2    1    2    0    0 -0.69750398551E+02  0.21314529836E+02 -0.64718811546E+02  0.13440967899E+03  0.92509512799E+02 0.  0.
         23    2    1    2    0    0  0.69750398551E+02 -0.21314529836E+02 -0.52379422432E+03  0.53655119089E+03  0.90594501672E+02 0.  0.
          5    1    3    3  502    0 -0.13175782737E+02  0.48077430187E+02 -0.98190340372E+01  0.51024934822E+02  0.47000000000E+01 0. -1.
         -5    1    4    4    0  503  0.90205353995E+02 -0.25161596185E+02 -0.39323177508E+03  0.40425663970E+03  0.47000000000E+01 0.  1.
          5    1    4    4  503    0 -0.20454955444E+02  0.38470663486E+01 -0.13056244924E+03  0.13229455119E+03  0.47000000000E+01 0. -1.
         -5    1    3    3    0  502 -0.56574615814E+02 -0.26762900351E+02 -0.54899777509E+02  0.83384744170E+02  0.47000000000E+01 0.  1.
<mgrwt>
<rscale>  0 0.11742629E+03</rscale>
<asrwt>0</asrwt>
<pdfrwt beam="1">  1        3 0.96882603E-01 0.11780253E+03</pdfrwt>
<pdfrwt beam="2">  1       -3 0.63421414E-02 0.11780253E+03</pdfrwt>
<totfact> 0.34611965E+02</totfact>
</mgrwt>
</event>
<event>
 8    1  0.2964543E-004  0.1193868E+03  0.7546771E-02  0.1254092E+00
          1   -1    0    0  501    0  0.00000000000E+00  0.00000000000E+00  0.83051799128E+02  0.83051799128E+02  0.00000000000E+00 0. -1.
         -1   -1    0    0    0  501 -0.00000000000E+00 -0.00000000000E+00 -0.17013909673E+03  0.17013909673E+03  0.00000000000E+00 0.  1.
         23    2    1    2    0    0  0.37640997877E+02 -0.66711685726E+02  0.11377807019E+02  0.98437586341E+02  0.60771787685E+02 0.  0.
         23    2    1    2    0    0 -0.37640997877E+02  0.66711685726E+02 -0.98465104620E+02  0.15475330952E+03  0.91574648484E+02 0.  0.
          5    1    4    4  502    0 -0.61963416197E+02  0.55839378998E+02 -0.45141683931E+02  0.94959795818E+02  0.47000000000E+01 0. -1.
         -5    1    4    4    0  502  0.24322418319E+02  0.10872306729E+02 -0.53323420689E+02  0.59793513699E+02  0.47000000000E+01 0.  1.
          5    1    3    3  503    0  0.14955503858E+02 -0.42126676657E+02  0.35208587882E+02  0.57096923231E+02  0.47000000000E+01 0. -1.
         -5    1    3    3    0  503  0.22685494020E+02 -0.24585009069E+02 -0.23830780863E+02  0.41340663110E+02  0.47000000000E+01 0.  1.
<mgrwt>
<rscale>  0 0.11357359E+03</rscale>
<asrwt>0</asrwt>
<pdfrwt beam="1">  1        1 0.12777200E-01 0.11938681E+03</pdfrwt>
<pdfrwt beam="2">  1       -1 0.26175245E-01 0.11938681E+03</pdfrwt>
<totfact> 0.56060775E+03</totfact>
</mgrwt>
</event>
<event>
 8    1  0.2964543E-004  0.1399264E+03  0.7546771E-02  0.1213803E+00
          3   -1    0    0  501    0  0.00000000000E+00  0.00000000000E+00  0.77587736420E+03  0.77587736420E+03  0.00000000000E+00 0. -1.
         -3   -1    0    0    0  501 -0.00000000000E+00 -0.00000000000E+00 -0.77322681280E+02  0.77322681280E+02  0.00000000000E+00 0.  1.
         23    2    1    2    0    0 -0.66967401577E+02  0.80570422047E+02 -0.10761337044E+01  0.13993054179E+03  0.92753289316E+02 0.  0.
         23    2    1    2    0    0  0.66967401577E+02 -0.80570422047E+02  0.69963081663E+03  0.71326950369E+03  0.91070739222E+02 0.  0.
          5    1    4    4  502    0  0.64347848878E+02 -0.45753281063E+02  0.63277387746E+03  0.63769810912E+03  0.47000000000E+01 0. -1.
         -5    1    4    4    0  502  0.26195526991E+01 -0.34817140984E+02  0.66856939170E+02  0.75571394574E+02  0.47000000000E+01 0.  1.
          5    1    3    3  503    0 -0.60443473092E+02  0.50366874164E+02  0.39942087607E+02  0.88361166894E+02  0.47000000000E+01 0. -1.
         -5    1    3    3    0  503 -0.65239284844E+01  0.30203547883E+02 -0.41018221311E+02  0.51569374895E+02  0.47000000000E+01 0.  1.
<mgrwt>
<rscale>  0 0.13964818E+03</rscale>
<asrwt>0</asrwt>
<pdfrwt beam="1">  1        3 0.11936574E+00 0.13992640E+03</pdfrwt>
<pdfrwt beam="2">  1       -3 0.11895798E-01 0.13992640E+03</pdfrwt>
<totfact> 0.78262317E+01</totfact>
</mgrwt>
</event>
<event>
 8    1  0.2964543E-004  0.1182759E+03  0.7546771E-02  0.1249509E+00
          2   -1    0    0  501    0  0.00000000000E+00  0.00000000000E+00  0.19308522711E+03  0.19308522711E+03  0.00000000000E+00 0. -1.
         -2   -1    0    0    0  501 -0.00000000000E+00 -0.00000000000E+00 -0.73860008877E+02  0.73860008877E+02  0.00000000000E+00 0.  1.
         23    2    1    2    0    0 -0.35869656834E+02 -0.57094843563E+02  0.18751022643E+02  0.11175420014E+03  0.87126040625E+02 0.  0.
         23    2    1    2    0    0  0.35869656834E+02  0.57094843563E+02  0.10047419559E+03  0.15519103585E+03  0.97173762847E+02 0.  0.
          5    1    4    4  502    0 -0.59210394324E+01  0.65175833057E+02  0.89516909331E+02  0.11098790465E+03  0.47000000000E+01 0. -1.
         -5    1    4    4    0  502  0.41790696266E+02 -0.80809894941E+01  0.10957286259E+02  0.44203131199E+02  0.47000000000E+01 0.  1.
          5    1    3    3  503    0 -0.44154153930E+02 -0.33457603424E+02  0.47650534387E+02  0.73223383994E+02  0.47000000000E+01 0. -1.
         -5    1    3    3    0  503  0.82844970964E+01 -0.23637240139E+02 -0.28899511744E+02  0.38530816142E+02  0.47000000000E+01 0.  1.
<mgrwt>
<rscale>  0 0.11619514E+03</rscale>
<asrwt>0</asrwt>
<pdfrwt beam="1">  1        2 0.29705419E-01 0.11827592E+03</pdfrwt>
<pdfrwt beam="2">  1       -2 0.11363078E-01 0.11827592E+03</pdfrwt>
<totfact> 0.89511751E+03</totfact>
</mgrwt>
</event>
<event>
 8    1  0.2964543E-004  0.1002151E+03  0.7546771E-02  0.1282714E+00
         -1   -1    0    0    0  501 -0.00000000000E+00  0.00000000000E+00  0.33330497859E+03  0.33330497859E+03  0.00000000000E+00 0.  1.
          1   -1    0    0  501    0  0.00000000000E+00 -0.00000000000E+00 -0.32559578220E+02  0.32559578220E+02  0.00000000000E+00 0. -1.
         23    2    1    2    0    0 -0.31438165413E+02  0.11812943623E+02  0.21810202361E+03  0.24002406763E+03  0.94420106209E+02 0.  0.
         23    2    1    2    0    0  0.31438165413E+02 -0.11812943623E+02  0.82643376760E+02  0.12584048918E+03  0.88758081963E+02 0.  0.
          5    1    3    3  502    0 -0.26395642396E+00 -0.23539694116E+02  0.90214883437E+01  0.25644962937E+02  0.47000000000E+01 0. -1.
         -5    1    3    3    0  502 -0.31174208989E+02  0.35352637739E+02  0.20908053527E+03  0.21437910469E+03  0.47000000000E+01 0.  1.
          5    1    4    4  503    0  0.49457643025E+02 -0.32846163372E+02  0.31219194993E+02  0.67243267603E+02  0.47000000000E+01 0. -1.
         -5    1    4    4    0  503 -0.18019477612E+02  0.21033219749E+02  0.51424181767E+02  0.58597221580E+02  0.47000000000E+01 0.  1.
<mgrwt>
<rscale>  0 0.98858877E+02</rscale>
<asrwt>0</asrwt>
<pdfrwt beam="1">  1        1 0.50091661E-02 0.10021507E+03</pdfrwt>
<pdfrwt beam="2">  1       -1 0.51277687E-01 0.10021507E+03</pdfrwt>
<totfact> 0.60371703E+03</totfact>
</mgrwt>
</event>
<event>
 8    1  0.2964543E-004  0.1179024E+03  0.7546771E-02  0.1247052E+00
          1   -1    0    0  501    0  0.00000000000E+00  0.00000000000E+00  0.69146897906E+03  0.69146897906E+03  0.00000000000E+00 0. -1.
         -1   -1    0    0    0  501 -0.00000000000E+00 -0.00000000000E+00 -0.21414059743E+02  0.21414059743E+02  0.00000000000E+00 0.  1.
         23    2    1    2    0    0  0.63526423361E+02  0.35921908060E+02  0.43055472384E+03  0.44640604211E+03  0.92601264923E+02 0.  0.
         23    2    1    2    0    0 -0.63526423361E+02 -0.35921908060E+02  0.23950019547E+03  0.26647699669E+03  0.91234073623E+02 0.  0.
          5    1    4    4  502    0 -0.65542200761E+02 -0.84723813948E+01  0.22590681536E+03  0.23542204772E+03  0.47000000000E+01 0. -1.
         -5    1    4    4    0  502  0.20157773998E+01 -0.27449526665E+02  0.13593380115E+02  0.31054948971E+02  0.47000000000E+01 0.  1.
          5    1    3    3  503    0 -0.11643129633E+02  0.31950020041E+02  0.68991240758E+02  0.77060025627E+02  0.47000000000E+01 0. -1.
         -5    1    3    3    0  503  0.75169552994E+02  0.39718880190E+01  0.36156348308E+03  0.36934601648E+03  0.47000000000E+01 0.  1.
<mgrwt>
<rscale>  0 0.11763383E+03</rscale>
<asrwt>0</asrwt>
<pdfrwt beam="1">  1        1 0.10637983E+00 0.11790244E+03</pdfrwt>
<pdfrwt beam="2">  1       -1 0.32944713E-02 0.11790244E+03</pdfrwt>
<totfact> 0.89590581E+03</totfact>
</mgrwt>
</event>
<event>
 8    1  0.2964543E-004  0.9261446E+02  0.7546771E-02  0.1297119E+00
         -1   -1    0    0    0  501 -0.00000000000E+00  0.00000000000E+00  0.68104798478E+02  0.68104798478E+02  0.00000000000E+00 0.  1.
          1   -1    0    0  501    0  0.00000000000E+00 -0.00000000000E+00 -0.13314229982E+03  0.13314229982E+03  0.00000000000E+00 0. -1.
         23    2    1    2    0    0 -0.11654084513E+02  0.12357816729E+02 -0.72519690976E+01  0.92083889480E+02  0.90212628417E+02 0.  0.
         23    2    1    2    0    0  0.11654084513E+02 -0.12357816729E+02 -0.57785532244E+02  0.10916320882E+03  0.91043424267E+02 0.  0.
          5    1    3    3  502    0 -0.89028798100E+01 -0.35156802389E+02 -0.21193985496E+02  0.42267446627E+02  0.47000000000E+01 0. -1.
         -5    1    4    4    0  503 -0.26966070078E+02  0.26147128544E+02 -0.22444259497E+02  0.44007681726E+02  0.47000000000E+01 0.  1.
          5    1    4    4  503    0  0.38620154591E+02 -0.38504945273E+02 -0.35341272747E+02  0.65155527091E+02  0.47000000000E+01 0. -1.
         -5    1    3    3    0  502 -0.27512047034E+01  0.47514619118E+02  0.13942016399E+02  0.49816442853E+02  0.47000000000E+01 0.  1.
<mgrwt>
<rscale>  0 0.92409639E+02</rscale>
<asrwt>0</asrwt>
<pdfrwt beam="1">  1        1 0.20483431E-01 0.92614461E+02</pdfrwt>
<pdfrwt beam="2">  1       -1 0.10477661E-01 0.92614461E+02</pdfrwt>
<totfact> 0.12664445E+04</totfact>
</mgrwt>
</event>
<event>
 8    1  0.2964543E-004  0.9159842E+02  0.7546771E-02  0.1307984E+00
          1   -1    0    0  501    0  0.00000000000E+00  0.00000000000E+00  0.35725912487E+03  0.35725912487E+03  0.00000000000E+00 0. -1.
         -1   -1    0    0    0  501 -0.00000000000E+00 -0.00000000000E+00 -0.23349138803E+02  0.23349138803E+02  0.00000000000E+00 0.  1.
         23    2    1    2    0    0 -0.80444504192E+01  0.98345696716E+00  0.22639008133E+03  0.23936095833E+03  0.77301481729E+02 0.  0.
         23    2    1    2    0    0  0.80444504192E+01 -0.98345696716E+00  0.10751990473E+03  0.14124730534E+03  0.91239196523E+02 0.  0.
          5    1    4    4  502    0  0.22542039895E+02 -0.36046595549E+02  0.89044422838E+02  0.98785119587E+02  0.47000000000E+01 0. -1.
         -5    1    4    4    0  502 -0.14497589476E+02  0.35063138581E+02  0.18475481897E+02  0.42462185755E+02  0.47000000000E+01 0.  1.
          5    1    3    3  503    0 -0.29168533288E+02  0.26626281850E+02  0.82175826456E+02  0.91294680420E+02  0.47000000000E+01 0. -1.
         -5    1    3    3    0  503  0.21124082869E+02 -0.25642824882E+02  0.14421425487E+03  0.14806627791E+03  0.47000000000E+01 0.  1.
<mgrwt>
<rscale>  0 0.87913668E+02</rscale>
<asrwt>0</asrwt>
<pdfrwt beam="1">  1        1 0.54962938E-01 0.91598424E+02</pdfrwt>
<pdfrwt beam="2">  1       -1 0.35921755E-02 0.91598424E+02</pdfrwt>
<totfact> 0.18262670E+04</totfact>
</mgrwt>
</event>
<event>
 8    1  0.2964543E-004  0.1639352E+03  0.7546771E-02  0.1184974E+00
          2   -1    0    0  501    0  0.00000000000E+00  0.00000000000E+00  0.18086938673E+03  0.18086938673E+03  0.00000000000E+00 0. -1.
         -2   -1    0    0    0  501 -0.00000000000E+00 -0.00000000000E+00 -0.31833793257E+03  0.31833793257E+03  0.00000000000E+00 0.  1.
         23    2    1    2    0    0 -0.41581898069E+02  0.12744630588E+03 -0.25236956914E+03  0.30094043428E+03  0.94356401098E+02 0.  0.
         23    2    1    2    0    0  0.41581898069E+02 -0.12744630588E+03  0.11490102330E+03  0.19826688502E+03  0.90199209601E+02 0.  0.
          5    1    3    3  502    0  0.17613625233E+02  0.79478781904E+02 -0.89541025250E+02  0.12110657195E+03  0.47000000000E+01 0. -1.
         -5    1    4    4    0  503 -0.22129130131E+02 -0.30486872143E+02  0.48235157801E+01  0.38268839516E+02  0.47000000000E+01 0.  1.
          5    1    4    4  503    0  0.63711028200E+02 -0.96959433734E+02  0.11007750752E+03  0.15999804551E+03  0.47000000000E+01 0. -1.
         -5    1    3    3    0  502 -0.59195523302E+02  0.47967523973E+02 -0.16282854389E+03  0.17983386233E+03  0.47000000000E+01 0.  1.
<mgrwt>
<rscale>  0 0.16334273E+03</rscale>
<asrwt>0</asrwt>
<pdfrwt beam="1">  1        2 0.27826060E-01 0.16393519E+03</pdfrwt>
<pdfrwt beam="2">  1       -2 0.48975066E-01 0.16393519E+03</pdfrwt>
<totfact> 0.75910861E+02</totfact>
</mgrwt>
</event>
<event>
 8    1  0.2964543E-004  0.9287227E+02  0.7546771E-02  0.1297862E+00
         -2   -1    0    0    0  501 -0.00000000000E+00  0.00000000000E+00  0.21252887834E+02  0.21252887834E+02  0.00000000000E+00 0.  1.
          2   -1    0    0  501    0  0.00000000000E+00 -0.00000000000E+00 -0.39449769373E+03  0.39449769373E+03  0.00000000000E+00 0. -1.
         23    2    1    2    0    0  0.11399462765E+02 -0.26895987551E+01 -0.19829837243E+03  0.21768111725E+03  0.89026078237E+02 0.  0.
         23    2    1    2    0    0 -0.11399462765E+02  0.26895987551E+01 -0.17494643346E+03  0.19806946431E+03  0.92130757176E+02 0.  0.
          5    1    4    4  502    0  0.18877897916E+02  0.34992051845E+02 -0.42719018124E+02  0.58547615080E+02  0.47000000000E+01 0. -1.
         -5    1    4    4    0  502 -0.30277360681E+02 -0.32302453090E+02 -0.13222741534E+03  0.13952184923E+03  0.47000000000E+01 0.  1.
          5    1    3    3  503    0 -0.28203271118E+02 -0.97492897808E+01 -0.15684235750E+03  0.15972503955E+03  0.47000000000E+01 0. -1.
         -5    1    3    3    0  503  0.39602733883E+02  0.70596910257E+01 -0.41456014924E+02  0.57956077695E+02  0.47000000000E+01 0.  1.
<mgrwt>
<rscale>  0 0.92092749E+02</rscale>
<asrwt>0</asrwt>
<pdfrwt beam="1">  1        2 0.60691955E-01 0.92872268E+02</pdfrwt>
<pdfrwt beam="2">  1       -2 0.32696749E-02 0.92872268E+02</pdfrwt>
<totfact> 0.27043923E+04</totfact>
</mgrwt>
</event>
<event>
 8    1  0.2964543E-004  0.1114876E+03  0.7546771E-02  0.1259415E+00
         -1   -1    0    0    0  501 -0.00000000000E+00  0.00000000000E+00  0.19023162946E+03  0.19023162946E+03  0.00000000000E+00 0.  1.
          1   -1    0    0  501    0  0.00000000000E+00 -0.00000000000E+00 -0.89644797342E+02  0.89644797342E+02  0.00000000000E+00 0. -1.
         23    2    1    2    0    0  0.36094794705E+02  0.38259643100E+02 -0.26029559191E+02  0.11117193842E+03  0.94419423032E+02 0.  0.
         23    2    1    2    0    0 -0.36094794705E+02 -0.38259643100E+02  0.12661639131E+03  0.16870448838E+03  0.98299844133E+02 0.  0.
          5    1    3    3  502    0  0.35985259235E+02  0.67650218440E+02 -0.27034714522E+02  0.81390765609E+02  0.47000000000E+01 0. -1.
         -5    1    4    4    0  503 -0.69608234898E+02 -0.19483034412E+02  0.76037521632E+02  0.10501756849E+03  0.47000000000E+01 0.  1.
          5    1    4    4  503    0  0.33513440193E+02 -0.18776608688E+02  0.50578869676E+02  0.63686919890E+02  0.47000000000E+01 0. -1.
         -5    1    3    3    0  502  0.10953546987E+00 -0.29390575340E+02  0.10051553308E+01  0.29781172812E+02  0.47000000000E+01 0.  1.
<mgrwt>
<rscale>  0 0.11062623E+03</rscale>
<asrwt>0</asrwt>
<pdfrwt beam="1">  1        1 0.13791507E-01 0.11148764E+03</pdfrwt>
<pdfrwt beam="2">  1       -1 0.29266404E-01 0.11148764E+03</pdfrwt>
<totfact> 0.42009268E+03</totfact>
</mgrwt>
</event>
<event>
 8    1  0.2964543E-004  0.9385212E+02  0.7546771E-02  0.1293905E+00
         -1   -1    0    0    0  501 -0.00000000000E+00  0.00000000000E+00  0.38743938365E+02  0.38743938365E+02  0.00000000000E+00 0.  1.
          1   -1    0    0  501    0  0.00000000000E+00 -0.00000000000E+00 -0.24234779357E+03  0.24234779357E+03  0.00000000000E+00 0. -1.
         23    2    1    2    0    0  0.15915819757E+02  0.12192784386E+02 -0.13726099487E+03  0.16615873081E+03  0.91466746967E+02 0.  0.
         23    2    1    2    0    0 -0.15915819757E+02 -0.12192784386E+02 -0.66342860326E+02  0.11493300112E+03  0.91685562227E+02 0.  0.
          5    1    4    4  502    0 -0.12497356276E+02  0.37602271209E+02 -0.13577872125E+02  0.42149298042E+02  0.47000000000E+01 0. -1.
         -5    1    4    4    0  502 -0.34184634810E+01 -0.49795055595E+02 -0.52764988201E+02  0.72783703080E+02  0.47000000000E+01 0.  1.
          5    1    3    3  503    0  0.41824525125E+02 -0.24206743366E+02 -0.66424304613E+02  0.82277187419E+02  0.47000000000E+01 0. -1.
         -5    1    3    3    0  503 -0.25908705367E+02  0.36399527752E+02 -0.70836690261E+02  0.83881543391E+02  0.47000000000E+01 0.  1.
<mgrwt>
<rscale>  0 0.93798632E+02</rscale>
<asrwt>0</asrwt>
<pdfrwt beam="1">  1        1 0.37284276E-01 0.93852116E+02</pdfrwt>
<pdfrwt beam="2">  1       -1 0.59606059E-02 0.93852116E+02</pdfrwt>
<totfact> 0.14047040E+04</totfact>
</mgrwt>
</event>
<event>
 8    1  0.2964543E-004  0.9293744E+02  0.7546771E-02  0.1298362E+00
          1   -1    0    0  501    0  0.00000000000E+00  0.00000000000E+00  0.49271647785E+02  0.49271647785E+02  0.00000000000E+00 0. -1.
         -1   -1    0    0    0  501 -0.00000000000E+00 -0.00000000000E+00 -0.18110771120E+03  0.18110771120E+03  0.00000000000E+00 0.  1.
         23    2    1    2    0    0 -0.10134079415E+02 -0.11320328966E+02 -0.35799685616E+02  0.99594106609E+02  0.91687071976E+02 0.  0.
         23    2    1    2    0    0  0.10134079415E+02  0.11320328966E+02 -0.96036377797E+02  0.13078525237E+03  0.87469691693E+02 0.  0.
          5    1    4    4  502    0 -0.29818498497E+02  0.31427703894E+02 -0.42567968640E+02  0.60917693479E+02  0.47000000000E+01 0. -1.
         -5    1    4    4    0  502  0.39952577911E+02 -0.20107374929E+02 -0.53468409158E+02  0.69867558896E+02  0.47000000000E+01 0.  1.
          5    1    3    3  503    0 -0.27423931407E+02  0.22929554602E+02  0.12111746892E+02  0.38034469903E+02  0.47000000000E+01 0. -1.
         -5    1    3    3    0  503  0.17289851992E+02 -0.34249883568E+02 -0.47911432508E+02  0.61559636705E+02  0.47000000000E+01 0.  1.
<mgrwt>
<rscale>  0 0.91880044E+02</rscale>
<asrwt>0</asrwt>
<pdfrwt beam="1">  1        1 0.75802535E-02 0.92937444E+02</pdfrwt>
<pdfrwt beam="2">  1       -1 0.27862725E-01 0.92937444E+02</pdfrwt>
<totfact> 0.98506981E+03</totfact>
</mgrwt>
</event>
<event>
 8    1  0.2964543E-004  0.1063770E+03  0.7546771E-02  0.1270367E+00
          1   -1    0    0  501    0  0.00000000000E+00  0.00000000000E+00  0.31722251541E+02  0.31722251541E+02  0.00000000000E+00 0. -1.
         -1   -1    0    0    0  501 -0.00000000000E+00 -0.00000000000E+00 -0.35115169598E+03  0.35115169598E+03  0.00000000000E+00 0.  1.
         23    2    1    2    0    0  0.12277999824E+02 -0.43850569327E+02 -0.20213006916E+03  0.22841327204E+03  0.96137590338E+02 0.  0.
         23    2    1    2    0    0 -0.12277999824E+02  0.43850569327E+02 -0.11729937528E+03  0.15446067548E+03  0.89584234767E+02 0.  0.
          5    1    4    4  502    0 -0.33898752392E+02  0.48795738718E+01 -0.10103721227E+03  0.10678737714E+03  0.47000000000E+01 0. -1.
         -5    1    4    4    0  502  0.21620752567E+02  0.38970995456E+02 -0.16262163015E+02  0.47673298337E+02  0.47000000000E+01 0.  1.
          5    1    3    3  503    0 -0.31820727838E+02 -0.47492037829E+02 -0.80071813326E+02  0.98496891660E+02  0.47000000000E+01 0. -1.
         -5    1    3    3    0  503  0.44098727662E+02  0.36414685019E+01 -0.12205825583E+03  0.12991638038E+03  0.47000000000E+01 0.  1.
<mgrwt>
<rscale>  0 0.10487458E+03</rscale>
<asrwt>0</asrwt>
<pdfrwt beam="1">  1        1 0.48803462E-02 0.10637696E+03</pdfrwt>
<pdfrwt beam="2">  1       -1 0.54023340E-01 0.10637696E+03</pdfrwt>
<totfact> 0.57123191E+03</totfact>
</mgrwt>
</event>
<event>
 8    1  0.2964543E-004  0.1096256E+03  0.7546771E-02  0.1261943E+00
         -1   -1    0    0    0  501 -0.00000000000E+00  0.00000000000E+00  0.27890008754E+02  0.27890008754E+02  0.00000000000E+00 0.  1.
          1   -1    0    0  501    0  0.00000000000E+00 -0.00000000000E+00 -0.42834376061E+03  0.42834376061E+03  0.00000000000E+00 0. -1.
         23    2    1    2    0    0 -0.41956711171E+01  0.61024981443E+02 -0.21836237620E+03  0.24368957008E+03  0.89223467821E+02 0.  0.
         23    2    1    2    0    0  0.41956711171E+01 -0.61024981443E+02 -0.18209137565E+03  0.21254419928E+03  0.90973158372E+02 0.  0.
          5    1    4    4  502    0 -0.11723485803E+02 -0.81866100989E+02 -0.14238489654E+03  0.16472719075E+03  0.47000000000E+01 0. -1.
         -5    1    4    4    0  502  0.15919156920E+02  0.20841119546E+02 -0.39706479111E+02  0.47817008526E+02  0.47000000000E+01 0.  1.
          5    1    3    3  503    0 -0.22776771170E+02  0.69908499482E+02 -0.20696218448E+03  0.21968480924E+03  0.47000000000E+01 0. -1.
         -5    1    3    3    0  503  0.18581100053E+02 -0.88835180394E+01 -0.11400191722E+02  0.24004760846E+02  0.47000000000E+01 0.  1.
<mgrwt>
<rscale>  0 0.10926188E+03</rscale>
<asrwt>0</asrwt>
<pdfrwt beam="1">  1        1 0.65899037E-01 0.10962558E+03</pdfrwt>
<pdfrwt beam="2">  1       -1 0.42907708E-02 0.10962558E+03</pdfrwt>
<totfact> 0.11435653E+04</totfact>
</mgrwt>
</event>
<event>
 8    1  0.2964543E-004  0.1018442E+03  0.7546771E-02  0.1288097E+00
          3   -1    0    0  501    0  0.00000000000E+00  0.00000000000E+00  0.81136609824E+02  0.81136609824E+02  0.00000000000E+00 0. -1.
         -3   -1    0    0    0  501 -0.00000000000E+00 -0.00000000000E+00 -0.16043153865E+03  0.16043153865E+03  0.00000000000E+00 0.  1.
         23    2    1    2    0    0  0.81032272045E+01 -0.28229502831E+02 -0.10832098016E+03  0.13566842447E+03  0.76222828154E+02 0.  0.
         23    2    1    2    0    0 -0.81032272045E+01  0.28229502831E+02  0.29026051337E+02  0.10589972401E+03  0.97517551076E+02 0.  0.
          5    1    3    3  502    0 -0.24076747015E+02  0.10531616720E+02 -0.18182580969E+02  0.32300169477E+02  0.47000000000E+01 0. -1.
         -5    1    4    4    0  503 -0.23648832731E+02 -0.72341772689E+01 -0.27461638697E+02  0.37253620095E+02  0.47000000000E+01 0.  1.
          5    1    4    4  503    0  0.15545605526E+02  0.35463680100E+02  0.56487690033E+02  0.68646103915E+02  0.47000000000E+01 0. -1.
         -5    1    3    3    0  502  0.32179974220E+02 -0.38761119551E+02 -0.90138399196E+02  0.10336825499E+03  0.47000000000E+01 0.  1.
<mgrwt>
<rscale>  0 0.96380277E+02</rscale>
<asrwt>0</asrwt>
<pdfrwt beam="1">  1        3 0.12482555E-01 0.10184419E+03</pdfrwt>
<pdfrwt beam="2">  1       -3 0.24681775E-01 0.10184419E+03</pdfrwt>
<totfact> 0.17028195E+03</totfact>
</mgrwt>
</event>
<event>
 8    1  0.2964543E-004  0.1035777E+03  0.7546771E-02  0.1273956E+00
          2   -1    0    0  501    0  0.00000000000E+00  0.00000000000E+00  0.20564794448E+03  0.20564794448E+03  0.00000000000E+00 0. -1.
         -2   -1    0    0    0  501 -0.00000000000E+00 -0.00000000000E+00 -0.18254547326E+03  0.18254547326E+03  0.00000000000E+00 0.  1.
         23    2    1    2    0    0  0.35685251125E+02 -0.31410715339E+02 -0.15313789534E+03  0.18376983061E+03  0.89777867348E+02 0.  0.
         23    2    1    2    0    0 -0.35685251125E+02  0.31410715339E+02  0.17624036657E+03  0.20442358713E+03  0.92023181770E+02 0.  0.
          5    1    4    4  502    0 -0.37219829773E+00  0.52885648033E+02  0.13822762002E+03  0.14807428959E+03  0.47000000000E+01 0. -1.
         -5    1    4    4    0  502 -0.35313052827E+02 -0.21474932694E+02  0.38012746541E+02  0.56349297544E+02  0.47000000000E+01 0.  1.
          5    1    3    3  503    0  0.23863592705E+02  0.28839523339E+02 -0.40166087657E+02  0.55105297031E+02  0.47000000000E+01 0. -1.
         -5    1    3    3    0  503  0.11821658420E+02 -0.60250238678E+02 -0.11297180769E+03  0.12866453358E+03  0.47000000000E+01 0.  1.
<mgrwt>
<rscale>  0 0.10307665E+03</rscale>
<asrwt>0</asrwt>
<pdfrwt beam="1">  1        2 0.31638145E-01 0.10357768E+03</pdfrwt>
<pdfrwt beam="2">  1       -2 0.28083919E-01 0.10357768E+03</pdfrwt>
<totfact> 0.18395388E+03</totfact>
</mgrwt>
</event>
<event>
 8    1  0.2964543E-004  0.1034379E+03  0.7546771E-02  0.1275478E+00
          1   -1    0    0  501    0  0.00000000000E+00  0.00000000000E+00  0.32949548630E+03  0.32949548630E+03  0.00000000000E+00 0. -1.
         -1   -1    0    0    0  501 -0.00000000000E+00 -0.00000000000E+00 -0.33709914159E+02  0.33709914159E+02  0.00000000000E+00 0.  1.
         23    2    1    2    0    0 -0.41109598782E+02 -0.21819334476E+02  0.20122981731E+03  0.22625833410E+03  0.92375927084E+02 0.  0.
         23    2    1    2    0    0  0.41109598782E+02  0.21819334476E+02  0.94555754826E+02  0.13694706636E+03  0.87450704653E+02 0.  0.
          5    1    4    4  502    0 -0.10837936218E+02 -0.25838404016E+02  0.27124620633E+02  0.39280007994E+02  0.47000000000E+01 0. -1.
         -5    1    4    4    0  502  0.51947535000E+02  0.47657738492E+02  0.67431134193E+02  0.97667058363E+02  0.47000000000E+01 0.  1.
          5    1    3    3  503    0 -0.41527647993E+02 -0.55077372646E+02  0.12254561420E+03  0.14070387374E+03  0.47000000000E+01 0. -1.
         -5    1    3    3    0  503  0.41804921094E+00  0.33258038170E+02  0.78684203110E+02  0.85554460358E+02  0.47000000000E+01 0.  1.
<mgrwt>
<rscale>  0 0.10232667E+03</rscale>
<asrwt>0</asrwt>
<pdfrwt beam="1">  1        1 0.50691611E-01 0.10343788E+03</pdfrwt>
<pdfrwt beam="2">  1       -1 0.51861409E-02 0.10343788E+03</pdfrwt>
<totfact> 0.11943538E+04</totfact>
</mgrwt>
</event>
<event>
 8    1  0.2964543E-004  0.9858538E+02  0.7546771E-02  0.1283853E+00
         -1   -1    0    0    0  501 -0.00000000000E+00  0.00000000000E+00  0.10050100252E+02  0.10050100252E+02  0.00000000000E+00 0.  1.
          1   -1    0    0  501    0  0.00000000000E+00 -0.00000000000E+00 -0.97828508522E+03  0.97828508522E+03  0.00000000000E+00 0. -1.
         23    2    1    2    0    0 -0.32895949954E+02 -0.13113467428E+02 -0.40875847261E+03  0.42023920318E+03  0.90903203525E+02 0.  0.
         23    2    1    2    0    0  0.32895949954E+02  0.13113467428E+02 -0.55947651236E+03  0.56809598229E+03  0.92005275170E+02 0.  0.
          5    1    3    3  502    0  0.16381933721E+02 -0.38361685827E+02 -0.17916500156E+03  0.18401677770E+03  0.47000000000E+01 0. -1.
         -5    1    3    3    0  502 -0.49277883675E+02  0.25248218399E+02 -0.22959347105E+03  0.23622242548E+03  0.47000000000E+01 0.  1.
          5    1    4    4  503    0  0.62765832034E+02  0.18923906540E+02 -0.32263950724E+03  0.32926585845E+03  0.47000000000E+01 0. -1.
         -5    1    4    4    0  503 -0.29869882080E+02 -0.58104391122E+01 -0.23683700512E+03  0.23883012384E+03  0.47000000000E+01 0.  1.
<mgrwt>
<rscale>  0 0.98327442E+02</rscale>
<asrwt>0</asrwt>
<pdfrwt beam="1">  1        1 0.15050539E+00 0.98585380E+02</pdfrwt>
<pdfrwt beam="2">  1       -1 0.15461693E-02 0.98585380E+02</pdfrwt>
<totfact> 0.15501273E+04</totfact>
</mgrwt>
</event>
<event>
 8    1  0.2964543E-004  0.9360823E+02  0.7546771E-02  0.1296219E+00
          1   -1    0    0  501    0  0.00000000000E+00  0.00000000000E+00  0.32310231218E+03  0.32310231218E+03  0.00000000000E+00 0. -1.
         -1   -1    0    0    0  501 -0.00000000000E+00 -0.00000000000E+00 -0.29270383646E+02  0.29270383646E+02  0.00000000000E+00 0.  1.
         23    2    1    2    0    0  0.59752180802E+01 -0.84499000279E+01  0.87555638828E+02  0.12585027333E+03  0.89806443895E+02 0.  0.
         23    2    1    2    0    0 -0.59752180802E+01  0.84499000279E+01  0.20627628971E+03  0.22652242250E+03  0.93034381587E+02 0.  0.
          5    1    3    3  502    0 -0.15511419442E+02 -0.40421512269E+02  0.19957519647E+02  0.47905066305E+02  0.47000000000E+01 0. -1.
         -5    1    4    4    0  503 -0.31964314223E+02  0.34149602637E+02  0.16319096037E+03  0.16982724248E+03  0.47000000000E+01 0.  1.
          5    1    4    4  503    0  0.25989096143E+02 -0.25699702609E+02  0.43085329338E+02  0.56695180012E+02  0.47000000000E+01 0. -1.
         -5    1    3    3    0  502  0.21486637522E+02  0.31971612241E+02  0.67598119181E+02  0.77945207025E+02  0.47000000000E+01 0.  1.
<mgrwt>
<rscale>  0 0.92795852E+02</rscale>
<asrwt>0</asrwt>
<pdfrwt beam="1">  1        1 0.49708046E-01 0.93608227E+02</pdfrwt>
<pdfrwt beam="2">  1       -1 0.45031362E-02 0.93608227E+02</pdfrwt>
<totfact> 0.14909264E+04</totfact>
</mgrwt>
</event>
<event>
 8    1  0.2964543E-004  0.1224237E+03  0.7546771E-02  0.1239379E+00
         -1   -1    0    0    0  501 -0.00000000000E+00  0.00000000000E+00  0.10272954516E+03  0.10272954516E+03  0.00000000000E+00 0.  1.
          1   -1    0    0  501    0  0.00000000000E+00 -0.00000000000E+00 -0.24588574029E+03  0.24588574029E+03  0.00000000000E+00 0. -1.
         23    2    1    2    0    0  0.74787189845E+02 -0.37937473566E+02  0.40049677078E+02  0.12827021521E+03  0.88413210616E+02 0.  0.
         23    2    1    2    0    0 -0.74787189845E+02  0.37937473566E+02 -0.18320587220E+03  0.22034507023E+03  0.89191830910E+02 0.  0.
          5    1    4    4  502    0 -0.85160755384E+02  0.18110069186E+02 -0.17592795692E+03  0.19634934400E+03  0.47000000000E+01 0. -1.
         -5    1    4    4    0  502  0.10373565539E+02  0.19827404380E+02 -0.72779152799E+01  0.23995726230E+02  0.47000000000E+01 0.  1.
          5    1    3    3  503    0 -0.70266311314E+01 -0.29439573996E+02 -0.95751662820E+01  0.32091055941E+02  0.47000000000E+01 0. -1.
         -5    1    3    3    0  503  0.81813820976E+02 -0.84978995704E+01  0.49624843360E+02  0.96179159272E+02  0.47000000000E+01 0.  1.
<mgrwt>
<rscale>  0 0.12228191E+03</rscale>
<asrwt>0</asrwt>
<pdfrwt beam="1">  1        1 0.37828575E-01 0.12242368E+03</pdfrwt>
<pdfrwt beam="2">  1       -1 0.15804546E-01 0.12242368E+03</pdfrwt>
<totfact> 0.32062272E+03</totfact>
</mgrwt>
</event>
<event>
 8    1  0.2964543E-004  0.1070801E+03  0.7546771E-02  0.1266375E+00
          4   -1    0    0  501    0  0.00000000000E+00  0.00000000000E+00  0.10298295390E+03  0.10298295390E+03  0.00000000000E+00 0. -1.
         -4   -1    0    0    0  501 -0.00000000000E+00 -0.00000000000E+00 -0.17024802208E+03  0.17024802208E+03  0.00000000000E+00 0.  1.
         23    2    1    2    0    0 -0.14415256044E+02  0.55462831648E+02  0.47105455073E+02  0.11698318360E+03  0.90455602632E+02 0.  0.
         23    2    1    2    0    0  0.14415256044E+02 -0.55462831648E+02 -0.11437052326E+03  0.15624779238E+03  0.89715275910E+02 0.  0.
          5    1    4    4  502    0 -0.22929977188E+02  0.42361839910E+01 -0.24214590767E+01  0.23909884414E+02  0.47000000000E+01 0. -1.
         -5    1    3    3    0  503  0.28456468468E+02  0.11587702947E+02 -0.10392848470E+02  0.32774178199E+02  0.47000000000E+01 0.  1.
          5    1    3    3  503    0 -0.42871724512E+02  0.43875128701E+02  0.57498303543E+02  0.84209005406E+02  0.47000000000E+01 0. -1.
         -5    1    4    4    0  502  0.37345233232E+02 -0.59699015639E+02 -0.11194906418E+03  0.13233790796E+03  0.47000000000E+01 0.  1.
<mgrwt>
<rscale>  0 0.10692356E+03</rscale>
<asrwt>0</asrwt>
<pdfrwt beam="1">  1        4 0.15843531E-01 0.10708007E+03</pdfrwt>
<pdfrwt beam="2">  1       -4 0.26192003E-01 0.10708007E+03</pdfrwt>
<totfact> 0.73905625E+02</totfact>
</mgrwt>
</event>
<event>
 8    1  0.2964543E-004  0.9802766E+02  0.7546771E-02  0.1284570E+00
          1   -1    0    0  501    0  0.00000000000E+00  0.00000000000E+00  0.28143938951E+02  0.28143938951E+02  0.00000000000E+00 0. -1.
         -1   -1    0    0    0  501 -0.00000000000E+00 -0.00000000000E+00 -0.35468280804E+03  0.35468280804E+03  0.00000000000E+00 0.  1.
         23    2    1    2    0    0 -0.36224126169E+02 -0.94334874379E+01 -0.12575471316E+03  0.15944801883E+03  0.90599364367E+02 0.  0.
         23    2    1    2    0    0  0.36224126169E+02  0.94334874379E+01 -0.20078415592E+03  0.22337872816E+03  0.90457730032E+02 0.  0.
          5    1    3    3  502    0  0.25285752947E+02 -0.13085286508E+02 -0.14765480025E+02  0.32414555765E+02  0.47000000000E+01 0. -1.
         -5    1    3    3    0  502 -0.61509879116E+02  0.36517990698E+01 -0.11098923314E+03  0.12703346306E+03  0.47000000000E+01 0.  1.
          5    1    4    4  503    0  0.14217776142E+02 -0.28166816286E+02 -0.20670958448E+02  0.38011751094E+02  0.47000000000E+01 0. -1.
         -5    1    4    4    0  503  0.22006350027E+02  0.37600303723E+02 -0.18011319748E+03  0.18536697707E+03  0.47000000000E+01 0.  1.
<mgrwt>
<rscale>  0 0.97994926E+02</rscale>
<asrwt>0</asrwt>
<pdfrwt beam="1">  1        1 0.43298366E-02 0.98027664E+02</pdfrwt>
<pdfrwt beam="2">  1       -1 0.54566587E-01 0.98027664E+02</pdfrwt>
<totfact> 0.65537399E+03</totfact>
</mgrwt>
</event>
<event>
 8    1  0.2964543E-004  0.1163359E+03  0.7546771E-02  0.1250825E+00
         -1   -1    0    0    0  501 -0.00000000000E+00  0.00000000000E+00  0.23305761991E+02  0.23305761991E+02  0.00000000000E+00 0.  1.
          1   -1    0    0  501    0  0.00000000000E+00 -0.00000000000E+00 -0.56834614730E+03  0.56834614730E+03  0.00000000000E+00 0. -1.
         23    2    1    2    0    0  0.33021969620E+02 -0.56356569619E+02 -0.24817745316E+03  0.27409137909E+03  0.96267971930E+02 0.  0.
         23    2    1    2    0    0 -0.33021969620E+02  0.56356569619E+02 -0.29686293215E+03  0.31756053020E+03  0.91927016912E+02 0.  0.
          5    1    3    3  502    0  0.51218946597E+02 -0.89022058581E+01 -0.18835346072E+03  0.19545266927E+03  0.47000000000E+01 0. -1.
         -5    1    3    3    0  502 -0.18196976977E+02 -0.47454363761E+02 -0.59823992435E+02  0.78638709818E+02  0.47000000000E+01 0.  1.
          5    1    4    4  503    0 -0.45833759380E+02  0.75835191172E+02 -0.22505356946E+03  0.24191508602E+03  0.47000000000E+01 0. -1.
         -5    1    4    4    0  503  0.12811789760E+02 -0.19478621553E+02 -0.71809362697E+02  0.75645444182E+02  0.47000000000E+01 0.  1.
<mgrwt>
<rscale>  0 0.11543399E+03</rscale>
<asrwt>0</asrwt>
<pdfrwt beam="1">  1        1 0.87437867E-01 0.11633588E+03</pdfrwt>
<pdfrwt beam="2">  1       -1 0.35855019E-02 0.11633588E+03</pdfrwt>
<totfact> 0.10355791E+04</totfact>
</mgrwt>
</event>
<event>
 8    1  0.2964543E-004  0.9823310E+02  0.7546771E-02  0.1285328E+00
          1   -1    0    0  501    0  0.00000000000E+00  0.00000000000E+00  0.14877477386E+03  0.14877477386E+03  0.00000000000E+00 0. -1.
         -1   -1    0    0    0  501 -0.00000000000E+00 -0.00000000000E+00 -0.70278924450E+02  0.70278924450E+02  0.00000000000E+00 0.  1.
         23    2    1    2    0    0 -0.30369375786E+02 -0.86174890527E+01  0.74108771834E+02  0.12305223224E+03  0.93022479502E+02 0.  0.
         23    2    1    2    0    0  0.30369375786E+02  0.86174890527E+01  0.43870775725E+01  0.96001466069E+02  0.90556473731E+02 0.  0.
          5    1    4    4  502    0  0.55038834394E+02 -0.13119847692E+02  0.18782327260E+02  0.59801918968E+02  0.47000000000E+01 0. -1.
         -5    1    3    3    0  503 -0.29103705852E+02  0.22817242192E+02  0.82175390819E+02  0.90236007734E+02  0.47000000000E+01 0.  1.
          5    1    3    3  503    0 -0.12656699340E+01 -0.31434731245E+02 -0.80666189844E+01  0.32816224503E+02  0.47000000000E+01 0. -1.
         -5    1    4    4    0  502 -0.24669458608E+02  0.21737336745E+02 -0.14395249687E+02  0.36199547101E+02  0.47000000000E+01 0.  1.
<mgrwt>
<rscale>  0 0.97644855E+02</rscale>
<asrwt>0</asrwt>
<pdfrwt beam="1">  1        1 0.22888427E-01 0.98233099E+02</pdfrwt>
<pdfrwt beam="2">  1       -1 0.10812142E-01 0.98233099E+02</pdfrwt>
<totfact> 0.10566530E+04</totfact>
</mgrwt>
</event>
<event>
 8    1  0.2964543E-004  0.1033002E+03  0.7546771E-02  0.1273569E+00
          3   -1    0    0  501    0  0.00000000000E+00  0.00000000000E+00  0.69558090853E+02  0.69558090853E+02  0.00000000000E+00 0. -1.
         -3   -1    0    0    0  501 -0.00000000000E+00 -0.00000000000E+00 -0.15436657235E+03  0.15436657235E+03  0.00000000000E+00 0.  1.
         23    2    1    2    0    0 -0.48347778118E+02  0.11065651110E+02 -0.32785010627E+02  0.10837802892E+03  0.90614479784E+02 0.  0.
         23    2    1    2    0    0  0.48347778118E+02 -0.11065651110E+02 -0.52023470868E+02  0.11554663428E+03  0.90468927759E+02 0.  0.
          5    1    3    3  502    0  0.25590925705E+02  0.13012026373E+02 -0.71574996197E+01  0.29958773499E+02  0.47000000000E+01 0. -1.
         -5    1    3    3    0  502 -0.73938703823E+02 -0.19463752634E+01 -0.25627511007E+02  0.78419255417E+02  0.47000000000E+01 0.  1.
          5    1    4    4  503    0  0.69611218662E+02 -0.25241745582E+02 -0.50027407455E+02  0.89485747358E+02  0.47000000000E+01 0. -1.
         -5    1    4    4    0  503 -0.21263440544E+02  0.14176094472E+02 -0.19960634129E+01  0.26060886926E+02  0.47000000000E+01 0.  1.
<mgrwt>
<rscale>  0 0.10326831E+03</rscale>
<asrwt>0</asrwt>
<pdfrwt beam="1">  1        3 0.10701245E-01 0.10330024E+03</pdfrwt>
<pdfrwt beam="2">  1       -3 0.23748704E-01 0.10330024E+03</pdfrwt>
<totfact> 0.23623037E+03</totfact>
</mgrwt>
</event>
<event>
 8    1  0.2964543E-004  0.1246834E+03  0.7546771E-02  0.1237130E+00
          1   -1    0    0  501    0  0.00000000000E+00  0.00000000000E+00  0.20914125507E+03  0.20914125507E+03  0.00000000000E+00 0. -1.
         -1   -1    0    0    0  501 -0.00000000000E+00 -0.00000000000E+00 -0.20722589845E+03  0.20722589845E+03  0.00000000000E+00 0.  1.
         23    2    1    2    0    0  0.82181753887E+02  0.17594973651E+02 -0.16719449372E+03  0.20856638974E+03  0.92100577799E+02 0.  0.
         23    2    1    2    0    0 -0.82181753887E+02 -0.17594973651E+02  0.16910985034E+03  0.20780076378E+03  0.86715582093E+02 0.  0.
          5    1    3    3  502    0  0.31046860071E+02  0.66233270332E+00  0.14749983353E+01  0.31442198158E+02  0.47000000000E+01 0. -1.
         -5    1    3    3    0  502  0.51134893815E+02  0.16932640948E+02 -0.16866949205E+03  0.17712419158E+03  0.47000000000E+01 0.  1.
          5    1    4    4  503    0 -0.61741952851E+02 -0.33810140891E+02  0.16689977983E+03  0.18119829159E+03  0.47000000000E+01 0. -1.
         -5    1    4    4    0  503 -0.20439801036E+02  0.16215167240E+02  0.22100705086E+01  0.26602472191E+02  0.47000000000E+01 0.  1.
<mgrwt>
<rscale>  0 0.12369077E+03</rscale>
<asrwt>0</asrwt>
<pdfrwt beam="1">  1        1 0.32175578E-01 0.12468336E+03</pdfrwt>
<pdfrwt beam="2">  1       -1 0.31880907E-01 0.12468336E+03</pdfrwt>
<totfact> 0.12545378E+03</totfact>
</mgrwt>
</event>
<event>
 8    1  0.2964543E-004  0.9323636E+02  0.7546771E-02  0.1297005E+00
          2   -1    0    0  501    0  0.00000000000E+00  0.00000000000E+00  0.29356677417E+03  0.29356677417E+03  0.00000000000E+00 0. -1.
         -2   -1    0    0    0  501 -0.00000000000E+00 -0.00000000000E+00 -0.11923066885E+03  0.11923066885E+03  0.00000000000E+00 0.  1.
         23    2    1    2    0    0  0.78340918345E+01 -0.10405470401E+02 -0.93082838471E+02  0.12959096388E+03  0.89217466291E+02 0.  0.
         23    2    1    2    0    0 -0.78340918345E+01  0.10405470401E+02  0.26741894379E+03  0.28320647915E+03  0.92322107458E+02 0.  0.
          5    1    3    3  502    0  0.19601746988E+02 -0.31879152539E+02 -0.50002309923E+01  0.38047354199E+02  0.47000000000E+01 0. -1.
         -5    1    4    4    0  503  0.26095035490E+02 -0.29768648918E+02  0.13086168629E+03  0.13679910188E+03  0.47000000000E+01 0.  1.
          5    1    4    4  503    0 -0.33929127324E+02  0.40174119319E+02  0.13655725750E+03  0.14640737727E+03  0.47000000000E+01 0. -1.
         -5    1    3    3    0  502 -0.11767655153E+02  0.21473682139E+02 -0.88082607479E+02  0.91543609677E+02  0.47000000000E+01 0.  1.
<mgrwt>
<rscale>  0 0.92458386E+02</rscale>
<asrwt>0</asrwt>
<pdfrwt beam="1">  1        2 0.45164119E-01 0.93236357E+02</pdfrwt>
<pdfrwt beam="2">  1       -2 0.18343180E-01 0.93236357E+02</pdfrwt>
<totfact> 0.26047309E+03</totfact>
</mgrwt>
</event>
<event>
 8    1  0.2964543E-004  0.9399067E+02  0.7546771E-02  0.1294673E+00
          2   -1    0    0  501    0  0.00000000000E+00  0.00000000000E+00  0.13652100264E+03  0.13652100264E+03  0.00000000000E+00 0. -1.
         -2   -1    0    0    0  501 -0.00000000000E+00 -0.00000000000E+00 -0.63431276685E+02  0.63431276685E+02  0.00000000000E+00 0.  1.
         23    2    1    2    0    0 -0.40605226326E+01  0.16279234221E+02  0.41839363106E+02  0.10288235071E+03  0.92481049254E+02 0.  0.
         23    2    1    2    0    0  0.40605226326E+01 -0.16279234221E+02  0.31250362852E+02  0.97069928620E+02  0.90357537334E+02 0.  0.
          5    1    4    4  502    0  0.14969362811E+02 -0.48301034753E+02  0.36464155509E+02  0.62520368026E+02  0.47000000000E+01 0. -1.
         -5    1    4    4    0  502 -0.10908840179E+02  0.32021800532E+02 -0.52137926571E+01  0.34549560594E+02  0.47000000000E+01 0.  1.
          5    1    3    3  503    0  0.19924638630E+02 -0.50719670957E+01  0.61446662488E+02  0.64965363123E+02  0.47000000000E+01 0. -1.
         -5    1    3    3    0  503 -0.23985161263E+02  0.21351201316E+02 -0.19607299382E+02  0.37916987585E+02  0.47000000000E+01 0.  1.
<mgrwt>
<rscale>  0 0.93464104E+02</rscale>
<asrwt>0</asrwt>
<pdfrwt beam="1">  1        2 0.21003231E-01 0.93990669E+02</pdfrwt>
<pdfrwt beam="2">  1       -2 0.97586580E-02 0.93990669E+02</pdfrwt>
<totfact> 0.16265922E+04</totfact>
</mgrwt>
</event>
<event>
 8    1  0.2964543E-004  0.9456282E+02  0.7546771E-02  0.1294009E+00
         -1   -1    0    0    0  501 -0.00000000000E+00  0.00000000000E+00  0.18522550070E+02  0.18522550070E+02  0.00000000000E+00 0.  1.
          1   -1    0    0  501    0  0.00000000000E+00 -0.00000000000E+00 -0.50602329783E+03  0.50602329783E+03  0.00000000000E+00 0. -1.
         23    2    1    2    0    0 -0.22860640058E+02 -0.11347734739E+02 -0.16667639532E+03  0.19007553277E+03  0.87728601122E+02 0.  0.
         23    2    1    2    0    0  0.22860640058E+02  0.11347734739E+02 -0.32082435245E+03  0.33447031513E+03  0.91053537190E+02 0.  0.
          5    1    3    3  502    0 -0.41250926195E+02  0.17126939618E+02 -0.13896185800E+03  0.14603923771E+03  0.47000000000E+01 0. -1.
         -5    1    4    4    0  503  0.33206048727E+02  0.46537022325E+02 -0.18372167598E+03  0.19246838790E+03  0.47000000000E+01 0.  1.
          5    1    4    4  503    0 -0.10345408669E+02 -0.35189287586E+02 -0.13710267647E+03  0.14200192723E+03  0.47000000000E+01 0. -1.
         -5    1    3    3    0  502  0.18390286137E+02 -0.28474674357E+02 -0.27714537320E+02  0.44036295062E+02  0.47000000000E+01 0.  1.
<mgrwt>
<rscale>  0 0.93753195E+02</rscale>
<asrwt>0</asrwt>
<pdfrwt beam="1">  1        1 0.77849733E-01 0.94562818E+02</pdfrwt>
<pdfrwt beam="2">  1       -1 0.28496233E-02 0.94562818E+02</pdfrwt>
<totfact> 0.16531677E+04</totfact>
</mgrwt>
</event>
<event>
 8    1  0.2964543E-004  0.9675695E+02  0.7546771E-02  0.1290030E+00
          4   -1    0    0  501    0  0.00000000000E+00  0.00000000000E+00  0.25182692800E+02  0.25182692800E+02  0.00000000000E+00 0. -1.
         -4   -1    0    0    0  501 -0.00000000000E+00 -0.00000000000E+00 -0.39710782121E+03  0.39710782121E+03  0.00000000000E+00 0.  1.
         23    2    1    2    0    0  0.83735063947E+01 -0.91459109641E+01 -0.26043167482E+03  0.27782470252E+03  0.95959078682E+02 0.  0.
         23    2    1    2    0    0 -0.83735063947E+01  0.91459109641E+01 -0.11149345359E+03  0.14446581149E+03  0.91026464288E+02 0.  0.
          5    1    4    4  502    0  0.69914903728E+01 -0.37429458267E+02 -0.27916397997E+02  0.47447450521E+02  0.47000000000E+01 0. -1.
         -5    1    3    3    0  503 -0.41364890989E+02  0.10068352194E+02 -0.12839386218E+03  0.13534954661E+03  0.47000000000E+01 0.  1.
          5    1    3    3  503    0  0.49738397384E+02 -0.19214263158E+02 -0.13203781264E+03  0.14247515591E+03  0.47000000000E+01 0. -1.
         -5    1    4    4    0  502 -0.15364996768E+02  0.46575369231E+02 -0.83577055591E+02  0.97018360973E+02  0.47000000000E+01 0.  1.
<mgrwt>
<rscale>  0 0.95510638E+02</rscale>
<asrwt>0</asrwt>
<pdfrwt beam="1">  1        4 0.38742602E-02 0.96756954E+02</pdfrwt>
<pdfrwt beam="2">  1       -4 0.61093515E-01 0.96756954E+02</pdfrwt>
<totfact> 0.13998868E+03</totfact>
</mgrwt>
</event>
<event>
 8    1  0.2964543E-004  0.9844426E+02  0.7546771E-02  0.1285043E+00
          4   -1    0    0  501    0  0.00000000000E+00  0.00000000000E+00  0.15409683418E+02  0.15409683418E+02  0.00000000000E+00 0. -1.
         -4   -1    0    0    0  501 -0.00000000000E+00 -0.00000000000E+00 -0.68130798977E+03  0.68130798977E+03  0.00000000000E+00 0.  1.
         23    2    1    2    0    0  0.86575509929E+00 -0.33258638974E+02 -0.44802285677E+03  0.45871096812E+03  0.92651958909E+02 0.  0.
         23    2    1    2    0    0 -0.86575509929E+00  0.33258638974E+02 -0.21787544959E+03  0.23800670507E+03  0.89836482165E+02 0.  0.
          5    1    4    4  502    0 -0.11820502754E+02  0.62667033787E+02 -0.15116722260E+03  0.16413561648E+03  0.47000000000E+01 0. -1.
         -5    1    4    4    0  502  0.10954747655E+02 -0.29408394814E+02 -0.66708226985E+02  0.73871088588E+02  0.47000000000E+01 0.  1.
          5    1    3    3  503    0 -0.31470430784E+02 -0.48015765856E+02 -0.20068890000E+03  0.20879182543E+03  0.47000000000E+01 0. -1.
         -5    1    3    3    0  503  0.32336185883E+02  0.14757126882E+02 -0.24733395677E+03  0.24991914269E+03  0.47000000000E+01 0.  1.
<mgrwt>
<rscale>  0 0.97776216E+02</rscale>
<asrwt>0</asrwt>
<pdfrwt beam="1">  1        4 0.23707209E-02 0.98444259E+02</pdfrwt>
<pdfrwt beam="2">  1       -4 0.10481660E+00 0.98444259E+02</pdfrwt>
<totfact> 0.92230594E+02</totfact>
</mgrwt>
</event>
<event>
 8    1  0.3305540E-004  0.9483955E+02  0.7546771E-02  0.1292195E+00
         -2   -1    0    0    0  501 -0.00000000000E+00  0.00000000000E+00  0.33837984858E+02  0.33837984858E+02  0.00000000000E+00 0.  1.
          2   -1    0    0  501    0  0.00000000000E+00 -0.00000000000E+00 -0.65824336183E+03  0.65824336183E+03  0.00000000000E+00 0. -1.
         23    2    1    2    0    0 -0.55874754973E+01 -0.24733889115E+02 -0.58124897269E+03  0.58893540321E+03  0.91386846677E+02 0.  0.
         23    2    1    2    0    0  0.55874754973E+01  0.24733889115E+02 -0.43156404286E+02  0.10314594348E+03  0.90186613602E+02 0.  0.
          5    1    3    3  502    0 -0.33646207553E+02 -0.35902856337E+02 -0.49441486202E+03  0.49687949058E+03  0.47000000000E+01 0. -1.
         -5    1    4    4    0  503  0.19611822221E+02  0.54742069342E+02 -0.17258624270E+02  0.60838045978E+02  0.47000000000E+01 0.  1.
          5    1    4    4  503    0 -0.14024346724E+02 -0.30008180227E+02 -0.25897780016E+02  0.42307897505E+02  0.47000000000E+01 0. -1.
         -5    1    3    3    0  502  0.28058732056E+02  0.11168967222E+02 -0.86834110670E+02  0.92055912625E+02  0.47000000000E+01 0.  1.
<mgrwt>
<rscale>  0 0.94549226E+02</rscale>
<asrwt>0</asrwt>
<pdfrwt beam="1">  1        2 0.10126821E+00 0.94839553E+02</pdfrwt>
<pdfrwt beam="2">  1       -2 0.52058440E-02 0.94839553E+02</pdfrwt>
<totfact> 0.78116959E+03</totfact>
</mgrwt>
</event>
<event>
 7    1  0.2964543E-004  0.1377096E+03  0.7546771E-02  0.1233899E+00
          1   -1    0    0  501    0  0.00000000000E+00  0.00000000000E+00  0.69809771241E+02  0.69809771241E+02  0.00000000000E+00 0. -1.
         -1   -1    0    0    0  501 -0.00000000000E+00 -0.00000000000E+00 -0.32112143619E+03  0.32112143619E+03  0.00000000000E+00 0.  1.
         23    2    1    2    0    0 -0.10741521932E+02 -0.27357682405E+02 -0.23312624267E+03  0.25202603460E+03  0.91134263668E+02 0.  0.
          5    1    3    3  502    0 -0.19422878839E+02  0.29086260758E+02 -0.59379727741E+02  0.69074603537E+02  0.47000000000E+01 0. -1.
         -5    1    3    3    0  502  0.86813569069E+01 -0.56443943163E+02 -0.17374651493E+03  0.18295143106E+03  0.47000000000E+01 0.  1.
          5    1    1    2  503    0  0.46062252509E+02  0.64370176144E+02  0.10625545143E+02  0.80001518065E+02  0.47000000000E+01 0. -1.
         -5    1    1    2    0  503 -0.35320730577E+02 -0.37012493739E+02 -0.28810967426E+02  0.58903654770E+02  0.47000000000E+01 0.  1.
<mgrwt>
<rscale>  0 0.12575205E+03</rscale>
<asrwt>0</asrwt>
<pdfrwt beam="1">  1        1 0.10739965E-01 0.13770961E+03</pdfrwt>
<pdfrwt beam="2">  1       -1 0.49403297E-01 0.13770961E+03</pdfrwt>
<totfact> 0.23733609E+03</totfact>
</mgrwt>
</event>
<event>
 8    1  0.2964543E-004  0.9879781E+02  0.7546771E-02  0.1285224E+00
         -1   -1    0    0    0  501 -0.00000000000E+00  0.00000000000E+00  0.89428910856E+02  0.89428910856E+02  0.00000000000E+00 0.  1.
          1   -1    0    0  501    0  0.00000000000E+00 -0.00000000000E+00 -0.15541426491E+03  0.15541426491E+03  0.00000000000E+00 0. -1.
         23    2    1    2    0    0  0.27282470672E+02  0.10939611707E+02  0.36635884305E+02  0.10537170220E+03  0.94323906280E+02 0.  0.
         23    2    1    2    0    0 -0.27282470672E+02 -0.10939611707E+02 -0.10262123836E+03  0.13947147356E+03  0.89761712689E+02 0.  0.
          5    1    4    4  502    0  0.44990784096E+00 -0.45353244757E+02 -0.30855245058E+02  0.55056837674E+02  0.47000000000E+01 0. -1.
         -5    1    4    4    0  502 -0.27732378513E+02  0.34413633050E+02 -0.71765993299E+02  0.84414635886E+02  0.47000000000E+01 0.  1.
          5    1    3    3  503    0  0.50077993640E+02  0.23911506559E+02 -0.50246704919E+01  0.55918716960E+02  0.47000000000E+01 0. -1.
         -5    1    3    3    0  503 -0.22795522968E+02 -0.12971894852E+02  0.41660554797E+02  0.49452985243E+02  0.47000000000E+01 0.  1.
<mgrwt>
<rscale>  0 0.97692954E+02</rscale>
<asrwt>0</asrwt>
<pdfrwt beam="1">  1        1 0.23909887E-01 0.98797812E+02</pdfrwt>
<pdfrwt beam="2">  1       -1 0.13758294E-01 0.98797812E+02</pdfrwt>
<totfact> 0.69216467E+03</totfact>
</mgrwt>
</event>
<event>
 8    1  0.2964543E-004  0.9742731E+02  0.7546771E-02  0.1285842E+00
         -1   -1    0    0    0  501 -0.00000000000E+00  0.00000000000E+00  0.41564090848E+02  0.41564090848E+02  0.00000000000E+00 0.  1.
          1   -1    0    0  501    0  0.00000000000E+00 -0.00000000000E+00 -0.22991469975E+03  0.22991469975E+03  0.00000000000E+00 0. -1.
         23    2    1    2    0    0 -0.21164317037E+02  0.28036824576E+02 -0.10588135791E+03  0.14383374503E+03  0.90792579046E+02 0.  0.
         23    2    1    2    0    0  0.21164317037E+02 -0.28036824576E+02 -0.82469250990E+02  0.12764504556E+03  0.90874025164E+02 0.  0.
          5    1    4    4  502    0  0.48328837399E+02 -0.94380212179E+01 -0.80307748604E+02  0.94319548635E+02  0.47000000000E+01 0. -1.
         -5    1    3    3    0  503 -0.34923664114E+02  0.55809137157E+02 -0.71796836880E+02  0.97525370501E+02  0.47000000000E+01 0.  1.
          5    1    3    3  503    0  0.13759347077E+02 -0.27772312581E+02 -0.34084521031E+02  0.46308374534E+02  0.47000000000E+01 0. -1.
         -5    1    4    4    0  502 -0.27164520362E+02 -0.18598803358E+02 -0.21615023865E+01  0.33325496927E+02  0.47000000000E+01 0.  1.
<mgrwt>
<rscale>  0 0.97408311E+02</rscale>
<asrwt>0</asrwt>
<pdfrwt beam="1">  1        1 0.35371492E-01 0.97427308E+02</pdfrwt>
<pdfrwt beam="2">  1       -1 0.63944756E-02 0.97427308E+02</pdfrwt>
<totfact> 0.13553171E+04</totfact>
</mgrwt>
</event>
<event>
 8    1  0.2964543E-004  0.9359877E+02  0.7546771E-02  0.1294900E+00
          1   -1    0    0  501    0  0.00000000000E+00  0.00000000000E+00  0.14165480650E+03  0.14165480650E+03  0.00000000000E+00 0. -1.
         -1   -1    0    0    0  501 -0.00000000000E+00 -0.00000000000E+00 -0.11741817082E+03  0.11741817082E+03  0.00000000000E+00 0.  1.
         23    2    1    2    0    0  0.82551575623E+01 -0.12926991093E+02  0.10169169271E+03  0.13758216937E+03  0.91391456040E+02 0.  0.
         23    2    1    2    0    0 -0.82551575623E+01  0.12926991093E+02 -0.77455057037E+02  0.12149080795E+03  0.92333503288E+02 0.  0.
          5    1    3    3  502    0  0.37387246398E+02 -0.38317021042E+02  0.59117882236E+02  0.79893768811E+02  0.47000000000E+01 0. -1.
         -5    1    3    3    0  502 -0.29132088836E+02  0.25390029949E+02  0.42573810477E+02  0.57688400561E+02  0.47000000000E+01 0.  1.
          5    1    4    4  503    0  0.36657987656E+02  0.19545194018E+02 -0.15608201837E+02  0.44626546279E+02  0.47000000000E+01 0. -1.
         -5    1    4    4    0  503 -0.44913145219E+02 -0.66182029245E+01 -0.61846855201E+02  0.76864261667E+02  0.47000000000E+01 0.  1.
<mgrwt>
<rscale>  0 0.93365608E+02</rscale>
<asrwt>0</asrwt>
<pdfrwt beam="1">  1        1 0.21793047E-01 0.93598774E+02</pdfrwt>
<pdfrwt beam="2">  1       -1 0.18064334E-01 0.93598774E+02</pdfrwt>
<totfact> 0.50622828E+03</totfact>
</mgrwt>
</event>
<event>
 8    1  0.2964543E-004  0.1610260E+03  0.7546771E-02  0.1187616E+00
          2   -1    0    0  501    0  0.00000000000E+00  0.00000000000E+00  0.17128747545E+03  0.17128747545E+03  0.00000000000E+00 0. -1.
         -2   -1    0    0    0  501 -0.00000000000E+00 -0.00000000000E+00 -0.15229313682E+03  0.15229313682E+03  0.00000000000E+00 0.  1.
         23    2    1    2    0    0  0.12895808456E+03 -0.31242323440E+02  0.23600579559E+02  0.16248873034E+03  0.90770754017E+02 0.  0.
         23    2    1    2    0    0 -0.12895808456E+03  0.31242323440E+02 -0.46062409373E+01  0.16109188193E+03  0.91231061720E+02 0.  0.
          5    1    3    3  502    0  0.57735506822E+02 -0.37549704565E+02  0.50942390886E+02  0.85793859046E+02  0.47000000000E+01 0. -1.
         -5    1    3    3    0  502  0.71222577735E+02  0.63073811249E+01 -0.27341811326E+02  0.76694871292E+02  0.47000000000E+01 0.  1.
          5    1    4    4  503    0 -0.10797054233E+03  0.60370828229E+02 -0.11166168659E+02  0.12429420032E+03  0.47000000000E+01 0. -1.
         -5    1    4    4    0  503 -0.20987542230E+02 -0.29128504790E+02  0.65599277218E+01  0.36797681610E+02  0.47000000000E+01 0.  1.
<mgrwt>
<rscale>  0 0.16096089E+03</rscale>
<asrwt>0</asrwt>
<pdfrwt beam="1">  1        2 0.26351919E-01 0.16102601E+03</pdfrwt>
<pdfrwt beam="2">  1       -2 0.23429713E-01 0.16102601E+03</pdfrwt>
<totfact> 0.31442305E+03</totfact>
</mgrwt>
</event>
<event>
 8    1  0.2964543E-004  0.1131928E+03  0.7546771E-02  0.1255617E+00
         -1   -1    0    0    0  501 -0.00000000000E+00  0.00000000000E+00  0.22647518566E+02  0.22647518566E+02  0.00000000000E+00 0.  1.
          1   -1    0    0  501    0  0.00000000000E+00 -0.00000000000E+00 -0.59089612984E+03  0.59089612984E+03  0.00000000000E+00 0. -1.
         23    2    1    2    0    0  0.25539931567E+02  0.56265142259E+02 -0.35604597493E+03  0.37303884122E+03  0.92580702427E+02 0.  0.
         23    2    1    2    0    0 -0.25539931567E+02 -0.56265142259E+02 -0.21220263635E+03  0.24050480718E+03  0.94839596515E+02 0.  0.
          5    1    3    3  502    0 -0.65440620365E+01  0.45977195752E+02 -0.32033344576E+03  0.32371644035E+03  0.47000000000E+01 0. -1.
         -5    1    3    3    0  502  0.32083993603E+02  0.10287946506E+02 -0.35712529164E+02  0.49322400876E+02  0.47000000000E+01 0.  1.
          5    1    4    4  503    0 -0.58804240304E+02 -0.18541614407E+02 -0.13120000785E+03  0.14504227729E+03  0.47000000000E+01 0. -1.
         -5    1    4    4    0  503  0.33264308737E+02 -0.37723527852E+02 -0.81002628500E+02  0.95462529891E+02  0.47000000000E+01 0.  1.
<mgrwt>
<rscale>  0 0.11271835E+03</rscale>
<asrwt>0</asrwt>
<pdfrwt beam="1">  1        1 0.90907085E-01 0.11319277E+03</pdfrwt>
<pdfrwt beam="2">  1       -1 0.34842341E-02 0.11319277E+03</pdfrwt>
<totfact> 0.10228142E+04</totfact>
</mgrwt>
</event>
<event>
 8    1  0.2964543E-004  0.1287085E+03  0.7546771E-02  0.1229774E+00
         -3   -1    0    0    0  501 -0.00000000000E+00  0.00000000000E+00  0.10137244840E+03  0.10137244840E+03  0.00000000000E+00 0.  1.
          3   -1    0    0  501    0  0.00000000000E+00 -0.00000000000E+00 -0.22512449080E+03  0.22512449080E+03  0.00000000000E+00 0. -1.
         23    2    1    2    0    0  0.62804072551E+02  0.60123084145E+02  0.24671125276E+02  0.13004001037E+03  0.93501888203E+02 0.  0.
         23    2    1    2    0    0 -0.62804072551E+02 -0.60123084145E+02 -0.14842316767E+03  0.19645692883E+03  0.94903906176E+02 0.  0.
          5    1    3    3  502    0  0.16465976818E+02  0.41512946580E+02 -0.31410982597E+02  0.54801395548E+02  0.47000000000E+01 0. -1.
         -5    1    4    4    0  503  0.23461665885E+02 -0.23087888134E+02 -0.52594205673E+02  0.62223314079E+02  0.47000000000E+01 0.  1.
          5    1    4    4  503    0 -0.86265738435E+02 -0.37035196011E+02 -0.95828961999E+02  0.13423361475E+03  0.47000000000E+01 0. -1.
         -5    1    3    3    0  502  0.46338095733E+02  0.18610137565E+02  0.56082107872E+02  0.75238614818E+02  0.47000000000E+01 0.  1.
<mgrwt>
<rscale>  0 0.12845019E+03</rscale>
<asrwt>0</asrwt>
<pdfrwt beam="1">  1        3 0.34634537E-01 0.12870854E+03</pdfrwt>
<pdfrwt beam="2">  1       -3 0.15595761E-01 0.12870854E+03</pdfrwt>
<totfact> 0.65271974E+02</totfact>
</mgrwt>
</event>
<event>
 8    1  0.2964543E-004  0.1052858E+03  0.7546771E-02  0.1269859E+00
          1   -1    0    0  501    0  0.00000000000E+00  0.00000000000E+00  0.47374885590E+02  0.47374885590E+02  0.00000000000E+00 0. -1.
         -1   -1    0    0    0  501 -0.00000000000E+00 -0.00000000000E+00 -0.23358067671E+03  0.23358067671E+03  0.00000000000E+00 0.  1.
         23    2    1    2    0    0 -0.46039765981E+01  0.51357914738E+02 -0.83853388304E+02  0.13411850251E+03  0.91090888558E+02 0.  0.
         23    2    1    2    0    0  0.46039765981E+01 -0.51357914738E+02 -0.10235240282E+03  0.14683705979E+03  0.91794747993E+02 0.  0.
          5    1    3    3  502    0 -0.17340566744E+02  0.72481239284E+02 -0.78691620490E+02  0.10848357681E+03  0.47000000000E+01 0. -1.
         -5    1    4    4    0  503  0.37844632916E+02  0.35570016815E+01 -0.54597314530E+02  0.66692017929E+02  0.47000000000E+01 0.  1.
          5    1    4    4  503    0 -0.33240656318E+02 -0.54914916420E+02 -0.47755088286E+02  0.80145041862E+02  0.47000000000E+01 0. -1.
         -5    1    3    3    0  502  0.12736590145E+02 -0.21123324545E+02 -0.51617678139E+01  0.25634925694E+02  0.47000000000E+01 0.  1.
<mgrwt>
<rscale>  0 0.10513223E+03</rscale>
<asrwt>0</asrwt>
<pdfrwt beam="1">  1        1 0.72884439E-02 0.10528584E+03</pdfrwt>
<pdfrwt beam="2">  1       -1 0.35935489E-01 0.10528584E+03</pdfrwt>
<totfact> 0.68481415E+03</totfact>
</mgrwt>
</event>
<event>
 8    1  0.2964543E-004  0.1032984E+03  0.7546771E-02  0.1274374E+00
         -1   -1    0    0    0  501 -0.00000000000E+00  0.00000000000E+00  0.14875309868E+03  0.14875309868E+03  0.00000000000E+00 0.  1.
          1   -1    0    0  501    0  0.00000000000E+00 -0.00000000000E+00 -0.70781789493E+02  0.70781789493E+02  0.00000000000E+00 0. -1.
         23    2    1    2    0    0  0.47478353899E+02 -0.13669766468E+02  0.32463973143E+02  0.10665673305E+03  0.88773264832E+02 0.  0.
         23    2    1    2    0    0 -0.47478353899E+02  0.13669766468E+02  0.45507336045E+02  0.11287815512E+03  0.90716611850E+02 0.  0.
          5    1    4    4  502    0 -0.26325776872E+02  0.16049496220E+02 -0.24433063454E+02  0.39619407449E+02  0.47000000000E+01 0. -1.
         -5    1    4    4    0  502 -0.21152577027E+02 -0.23797297525E+01  0.69940399499E+02  0.73258747673E+02  0.47000000000E+01 0.  1.
          5    1    3    3  503    0 -0.20568668240E+02 -0.14196958761E+02  0.28694139729E+02  0.38341458058E+02  0.47000000000E+01 0. -1.
         -5    1    3    3    0  503  0.68047022139E+02  0.52719229320E+00  0.37698334142E+01  0.68315274995E+02  0.47000000000E+01 0.  1.
<mgrwt>
<rscale>  0 0.10287015E+03</rscale>
<asrwt>0</asrwt>
<pdfrwt beam="1">  1        1 0.10889506E-01 0.10329840E+03</pdfrwt>
<pdfrwt beam="2">  1       -1 0.22885092E-01 0.10329840E+03</pdfrwt>
<totfact> 0.85008575E+03</totfact>
</mgrwt>
</event>
<event>
 8    1  0.2964543E-004  0.9656487E+02  0.7546771E-02  0.1289533E+00
         -2   -1    0    0    0  501 -0.00000000000E+00  0.00000000000E+00  0.33289218903E+02  0.33289218903E+02  0.00000000000E+00 0.  1.
          2   -1    0    0  501    0  0.00000000000E+00 -0.00000000000E+00 -0.28302376358E+03  0.28302376358E+03  0.00000000000E+00 0. -1.
         23    2    1    2    0    0  0.64371371286E+01  0.30328362306E+02 -0.15584230391E+03  0.18162620807E+03  0.87977323648E+02 0.  0.
         23    2    1    2    0    0 -0.64371371286E+01 -0.30328362306E+02 -0.93892240765E+02  0.13468677441E+03  0.91452326542E+02 0.  0.
          5    1    3    3  502    0 -0.24252707041E+02  0.27508235857E+02 -0.19568697514E+02  0.41832054230E+02  0.47000000000E+01 0. -1.
         -5    1    4    4    0  503  0.32465174956E+02  0.13946210670E+02 -0.23206582162E+02  0.42533749336E+02  0.47000000000E+01 0.  1.
          5    1    4    4  503    0 -0.38902312084E+02 -0.44274572976E+02 -0.70685658603E+02  0.92153025072E+02  0.47000000000E+01 0. -1.
         -5    1    3    3    0  502  0.30689844169E+02  0.28201264493E+01 -0.13627360640E+03  0.13979415384E+03  0.47000000000E+01 0.  1.
<mgrwt>
<rscale>  0 0.95733099E+02</rscale>
<asrwt>0</asrwt>
<pdfrwt beam="1">  1        2 0.43542119E-01 0.96564871E+02</pdfrwt>
<pdfrwt beam="2">  1       -2 0.51214182E-02 0.96564871E+02</pdfrwt>
<totfact> 0.19852392E+04</totfact>
</mgrwt>
</event>
<event>
 7    1  0.2964543E-004  0.2167603E+03  0.7546771E-02  0.1156309E+00
          3   -1    0    0  501    0  0.00000000000E+00  0.00000000000E+00  0.11114945054E+03  0.11114945054E+03  0.00000000000E+00 0. -1.
         -3   -1    0    0    0  501 -0.00000000000E+00 -0.00000000000E+00 -0.30152718910E+03  0.30152718910E+03  0.00000000000E+00 0.  1.
         23    2    1    2    0    0  0.51983736706E+02 -0.83510579212E+02 -0.13130184852E+03  0.18801024080E+03  0.91822380148E+02 0.  0.
          5    1    3    3  502    0  0.21870499350E+02 -0.51606507642E+00 -0.85613668092E+02  0.88489407440E+02  0.47000000000E+01 0. -1.
         -5    1    1    2    0  503  0.27799906542E+02 -0.16979296656E+02  0.47508598404E+02  0.57795226801E+02  0.47000000000E+01 0.  1.
          5    1    1    2  503    0 -0.79783643248E+02  0.10048987587E+03 -0.10658448845E+03  0.16687117204E+03  0.47000000000E+01 0. -1.
         -5    1    3    3    0  502  0.30113237355E+02 -0.82994514135E+02 -0.45688180432E+02  0.99520833355E+02  0.47000000000E+01 0.  1.
<mgrwt>
<rscale>  0 0.19240558E+03</rscale>
<asrwt>0</asrwt>
<pdfrwt beam="1">  1        3 0.17099916E-01 0.21676031E+03</pdfrwt>
<pdfrwt beam="2">  1       -3 0.46388797E-01 0.21676031E+03</pdfrwt>
<totfact> 0.33815719E+02</totfact>
</mgrwt>
</event>
<event>
 8    1  0.2964543E-004  0.1087359E+03  0.7546771E-02  0.1264032E+00
          2   -1    0    0  501    0  0.00000000000E+00  0.00000000000E+00  0.18689569703E+03  0.18689569703E+03  0.00000000000E+00 0.  1.
         -2   -1    0    0    0  501 -0.00000000000E+00 -0.00000000000E+00 -0.69354816225E+02  0.69354816225E+02  0.00000000000E+00 0. -1.
         23    2    1    2    0    0  0.89707092534E+01  0.52796685027E+02  0.10128105480E+03  0.14859795584E+03  0.94633698240E+02 0.  0.
         23    2    1    2    0    0 -0.89707092534E+01 -0.52796685027E+02  0.16259826000E+02  0.10765255742E+03  0.91960467605E+02 0.  0.
          5    1    3    3  502    0 -0.27882081633E+02  0.57030063467E+02  0.88637953990E+02  0.10912660309E+03  0.47000000000E+01 0.  1.
         -5    1    3    3    0  502  0.36852790886E+02 -0.42333784403E+01  0.12643100811E+02  0.39471352741E+02  0.47000000000E+01 0. -1.
          5    1    4    4  503    0  0.25617082969E+02 -0.58186483670E+02 -0.87889994669E+01  0.64352453980E+02  0.47000000000E+01 0. -1.
         -5    1    4    4    0  503 -0.34587792222E+02  0.53897986427E+01  0.25048825467E+02  0.43300103435E+02  0.47000000000E+01 0.  1.
<mgrwt>
<rscale>  0 0.10815163E+03</rscale>
<asrwt>0</asrwt>
<pdfrwt beam="1">  1        2 0.28753184E-01 0.10873592E+03</pdfrwt>
<pdfrwt beam="2">  1       -2 0.10669972E-01 0.10873592E+03</pdfrwt>
<totfact> 0.10169565E+04</totfact>
</mgrwt>
</event>
<event>
 8    1  0.2964543E-004  0.9094616E+02  0.7546771E-02  0.1300651E+00
         -2   -1    0    0    0  501 -0.00000000000E+00  0.00000000000E+00  0.20881077442E+03  0.20881077442E+03  0.00000000000E+00 0.  1.
          2   -1    0    0  501    0  0.00000000000E+00 -0.00000000000E+00 -0.76333499873E+02  0.76333499873E+02  0.00000000000E+00 0. -1.
         23    2    1    2    0    0 -0.17442626329E+01  0.60866781445E+01  0.16522378565E+03  0.18860038231E+03  0.90725491240E+02 0.  0.
         23    2    1    2    0    0  0.17442626329E+01 -0.60866781445E+01 -0.32746511100E+02  0.96543891985E+02  0.90599663285E+02 0.  0.
          5    1    3    3  502    0 -0.41791449076E+02 -0.15184573769E+02  0.93033237843E+02  0.10322000697E+03  0.47000000000E+01 0. -1.
         -5    1    4    4    0  503  0.16440558654E+01 -0.40434688955E+02  0.95604601470E+01  0.41846856379E+02  0.47000000000E+01 0.  1.
          5    1    4    4  503    0  0.10020676743E+00  0.34348010810E+02 -0.42306971247E+02  0.54697035606E+02  0.47000000000E+01 0. -1.
         -5    1    3    3    0  502  0.40047186443E+02  0.21271251913E+02  0.72190547808E+02  0.85380375338E+02  0.47000000000E+01 0.  1.
<mgrwt>
<rscale>  0 0.90914768E+02</rscale>
<asrwt>0</asrwt>
<pdfrwt beam="1">  1        2 0.11743615E-01 0.90946165E+02</pdfrwt>
<pdfrwt beam="2">  1       -2 0.32124734E-01 0.90946165E+02</pdfrwt>
<totfact> 0.43830732E+03</totfact>
</mgrwt>
</event>
<event>
 8    1  0.2964543E-004  0.1015251E+03  0.7546771E-02  0.1285361E+00
         -1   -1    0    0    0  501 -0.00000000000E+00  0.00000000000E+00  0.26930128957E+02  0.26930128957E+02  0.00000000000E+00 0.  1.
          1   -1    0    0  501    0  0.00000000000E+00 -0.00000000000E+00 -0.40136503446E+03  0.40136503446E+03  0.00000000000E+00 0. -1.
         23    2    1    2    0    0  0.23712042073E+02 -0.39156226216E+02 -0.84710567405E+02  0.12129754037E+03  0.73768164400E+02 0.  0.
         23    2    1    2    0    0 -0.23712042073E+02  0.39156226216E+02 -0.28972433810E+03  0.30699762305E+03  0.90619410060E+02 0.  0.
          5    1    3    3  502    0 -0.20816383296E+02 -0.36094505409E+02 -0.40228729314E+02  0.58108310907E+02  0.47000000000E+01 0. -1.
         -5    1    4    4    0  503  0.13653615445E+02 -0.15927183144E+02 -0.20781883013E+02  0.29901054149E+02  0.47000000000E+01 0.  1.
          5    1    4    4  503    0 -0.37365657519E+02  0.55083409359E+02 -0.26894245508E+03  0.27709656890E+03  0.47000000000E+01 0. -1.
         -5    1    3    3    0  502  0.44528425369E+02 -0.30617208065E+01 -0.44481838091E+02  0.63189229463E+02  0.47000000000E+01 0.  1.
<mgrwt>
<rscale>  0 0.97629588E+02</rscale>
<asrwt>0</asrwt>
<pdfrwt beam="1">  1        1 0.61748465E-01 0.10152511E+03</pdfrwt>
<pdfrwt beam="2">  1       -1 0.41430969E-02 0.10152511E+03</pdfrwt>
<totfact> 0.12974009E+04</totfact>
</mgrwt>
</event>
<event>
 8    1  0.2964543E-004  0.9760668E+02  0.7546771E-02  0.1286282E+00
          1   -1    0    0  501    0  0.00000000000E+00  0.00000000000E+00  0.13345303562E+03  0.13345303562E+03  0.00000000000E+00 0. -1.
         -1   -1    0    0    0  501 -0.00000000000E+00 -0.00000000000E+00 -0.75621879070E+02  0.75621879070E+02  0.00000000000E+00 0.  1.
         23    2    1    2    0    0 -0.29335073434E+02  0.59625452153E+01  0.12257143352E+01  0.97614372274E+02  0.92902986066E+02 0.  0.
         23    2    1    2    0    0  0.29335073434E+02 -0.59625452153E+01  0.56605442214E+02  0.11146054241E+03  0.91231452626E+02 0.  0.
          5    1    4    4  502    0  0.28236738796E+02  0.38314888212E+02  0.14023517358E+02  0.49840677319E+02  0.47000000000E+01 0. -1.
         -5    1    3    3    0  503 -0.21537495987E+02 -0.41303609371E+02 -0.10697155660E+02  0.48024691771E+02  0.47000000000E+01 0.  1.
          5    1    3    3  503    0 -0.77975774469E+01  0.47266154587E+02  0.11922869995E+02  0.49589680503E+02  0.47000000000E+01 0. -1.
         -5    1    4    4    0  502  0.10983346381E+01 -0.44277433428E+02  0.42581924856E+02  0.61619865095E+02  0.47000000000E+01 0.  1.
<mgrwt>
<rscale>  0 0.97206823E+02</rscale>
<asrwt>0</asrwt>
<pdfrwt beam="1">  1        1 0.20531236E-01 0.97606677E+02</pdfrwt>
<pdfrwt beam="2">  1       -1 0.11634135E-01 0.97606677E+02</pdfrwt>
<totfact> 0.10822425E+04</totfact>
</mgrwt>
</event>
<event>
 8    1  0.2964543E-004  0.9328911E+02  0.7546771E-02  0.1296410E+00
         -2   -1    0    0    0  501 -0.00000000000E+00  0.00000000000E+00  0.16383221154E+03  0.16383221154E+03  0.00000000000E+00 0.  1.
          2   -1    0    0  501    0  0.00000000000E+00 -0.00000000000E+00 -0.59721854366E+02  0.59721854366E+02  0.00000000000E+00 0. -1.
         23    2    1    2    0    0  0.34766789625E+01 -0.56640635040E+01  0.92126461059E+02  0.12949837849E+03  0.90765501668E+02 0.  0.
         23    2    1    2    0    0 -0.34766789625E+01  0.56640635040E+01  0.11983896118E+02  0.94055687416E+02  0.93052080348E+02 0.  0.
          5    1    3    3  502    0 -0.11082738061E+02 -0.27227280038E+02  0.97993695623E+02  0.10241584957E+03  0.47000000000E+01 0. -1.
         -5    1    3    3    0  502  0.14559417024E+02  0.21563216534E+02 -0.58672345648E+01  0.27082528922E+02  0.47000000000E+01 0.  1.
          5    1    4    4  503    0  0.90511578395E+01  0.46749277903E+02 -0.39281755210E+01  0.48009780312E+02  0.47000000000E+01 0. -1.
         -5    1    4    4    0  503 -0.12527836802E+02 -0.41085214399E+02  0.15912071639E+02  0.46045907104E+02  0.47000000000E+01 0.  1.
<mgrwt>
<rscale>  0 0.92713654E+02</rscale>
<asrwt>0</asrwt>
<pdfrwt beam="1">  1        2 0.91879777E-02 0.93289113E+02</pdfrwt>
<pdfrwt beam="2">  1       -2 0.25204955E-01 0.93289113E+02</pdfrwt>
<totfact> 0.90696875E+03</totfact>
</mgrwt>
</event>
<event>
 8    1  0.2964543E-004  0.1077259E+03  0.7546771E-02  0.1265767E+00
          1   -1    0    0  501    0  0.00000000000E+00  0.00000000000E+00  0.22190181114E+03  0.22190181114E+03  0.00000000000E+00 0. -1.
         -1   -1    0    0    0  501 -0.00000000000E+00 -0.00000000000E+00 -0.51762690879E+02  0.51762690879E+02  0.00000000000E+00 0.  1.
         23    2    1    2    0    0 -0.54368581609E+02  0.90042436291E+01  0.72320142999E+02  0.12815357267E+03  0.90311217656E+02 0.  0.
         23    2    1    2    0    0  0.54368581609E+02 -0.90042436291E+01  0.97818977259E+02  0.14551092935E+03  0.92562731046E+02 0.  0.
          5    1    3    3  502    0 -0.25952172186E+02  0.10263044147E+02  0.89992900260E+02  0.94337995599E+02  0.47000000000E+01 0. -1.
         -5    1    3    3    0  502 -0.28416409423E+02 -0.12588005182E+01 -0.17672757261E+02  0.33815577068E+02  0.47000000000E+01 0.  1.
          5    1    4    4  503    0  0.53532042095E+02  0.20761971016E+02  0.99870039838E+02  0.11529463920E+03  0.47000000000E+01 0. -1.
         -5    1    4    4    0  503  0.83653951452E+00 -0.29766214645E+02 -0.20510625787E+01  0.30216290149E+02  0.47000000000E+01 0.  1.
<mgrwt>
<rscale>  0 0.10724059E+03</rscale>
<asrwt>0</asrwt>
<pdfrwt beam="1">  1        1 0.34138740E-01 0.10772594E+03</pdfrwt>
<pdfrwt beam="2">  1       -1 0.79634910E-02 0.10772594E+03</pdfrwt>
<totfact> 0.10302996E+04</totfact>
</mgrwt>
</event>
<event>
 8    1  0.2964543E-004  0.9165546E+02  0.7546771E-02  0.1300338E+00
          1   -1    0    0  501    0  0.00000000000E+00  0.00000000000E+00  0.27309229506E+03  0.27309229506E+03  0.00000000000E+00 0. -1.
         -1   -1    0    0    0  501 -0.00000000000E+00 -0.00000000000E+00 -0.30643446411E+02  0.30643446411E+02  0.00000000000E+00 0.  1.
         23    2    1    2    0    0  0.10456268421E+02 -0.15585228130E+02  0.14237604318E+03  0.16803279293E+03  0.87245910743E+02 0.  0.
         23    2    1    2    0    0 -0.10456268421E+02  0.15585228130E+02  0.10007280546E+03  0.13570294854E+03  0.89713382303E+02 0.  0.
          5    1    3    3  502    0  0.11200719768E+02 -0.49413743543E+02  0.58894654887E+02  0.77832156263E+02  0.47000000000E+01 0. -1.
         -5    1    3    3    0  502 -0.74445134736E+00  0.33828515413E+02  0.83481388297E+02  0.90200636666E+02  0.47000000000E+01 0.  1.
          5    1    4    4  503    0 -0.36221797933E+02  0.13850357143E+02  0.10215832394E+03  0.10937213625E+03  0.47000000000E+01 0. -1.
         -5    1    4    4    0  503  0.25765529512E+02  0.17348709872E+01 -0.20855184773E+01  0.26330812287E+02  0.47000000000E+01 0.  1.
<mgrwt>
<rscale>  0 0.91045971E+02</rscale>
<asrwt>0</asrwt>
<pdfrwt beam="1">  1        1 0.42014198E-01 0.91655463E+02</pdfrwt>
<pdfrwt beam="2">  1       -1 0.47143765E-02 0.91655463E+02</pdfrwt>
<totfact> 0.17089575E+04</totfact>
</mgrwt>
</event>
<event>
 8    1  0.3359649E-004  0.1713636E+03  0.7546771E-02  0.1176715E+00
          1   -1    0    0  501    0  0.00000000000E+00  0.00000000000E+00  0.60826225894E+03  0.60826225894E+03  0.00000000000E+00 0. -1.
         -1   -1    0    0    0  501 -0.00000000000E+00 -0.00000000000E+00 -0.12094610066E+03  0.12094610066E+03  0.00000000000E+00 0.  1.
         23    2    1    2    0    0  0.68937838114E+02  0.12635771515E+03  0.52717582633E+03  0.55432827143E+03  0.92988079556E+02 0.  0.
         23    2    1    2    0    0 -0.68937838114E+02 -0.12635771515E+03 -0.39859668055E+02  0.17488008817E+03  0.90970074194E+02 0.  0.
          5    1    3    3  502    0  0.25911131256E+02  0.11216152355E+03  0.45179308994E+03  0.46625173480E+03  0.47000000000E+01 0. -1.
         -5    1    3    3    0  502  0.43026706858E+02  0.14196191601E+02  0.75382736387E+02  0.88076536627E+02  0.47000000000E+01 0.  1.
          5    1    4    4  503    0 -0.50356363463E+01 -0.19729870788E+02 -0.45796956172E+02  0.50339612924E+02  0.47000000000E+01 0. -1.
         -5    1    4    4    0  503 -0.63902201767E+02 -0.10662784437E+03  0.59372881165E+01  0.12454047525E+03  0.47000000000E+01 0.  1.
<mgrwt>
<rscale>  0 0.17109129E+03</rscale>
<asrwt>0</asrwt>
<pdfrwt beam="1">  1        1 0.93578808E-01 0.17136359E+03</pdfrwt>
<pdfrwt beam="2">  1       -1 0.18607093E-01 0.17136359E+03</pdfrwt>
<totfact> 0.78660846E+02</totfact>
</mgrwt>
</event>
<event>
 8    1  0.2964543E-004  0.1079966E+03  0.7546771E-02  0.1264803E+00
         -1   -1    0    0    0  501 -0.00000000000E+00  0.00000000000E+00  0.40784151921E+02  0.40784151921E+02  0.00000000000E+00 0.  1.
          1   -1    0    0  501    0  0.00000000000E+00 -0.00000000000E+00 -0.28467347107E+03  0.28467347107E+03  0.00000000000E+00 0. -1.
         23    2    1    2    0    0 -0.42841230967E+01 -0.53514656216E+02 -0.13256610063E+03  0.17035728822E+03  0.92550864261E+02 0.  0.
         23    2    1    2    0    0  0.42841230967E+01  0.53514656216E+02 -0.11132321852E+03  0.15510033477E+03  0.93707431519E+02 0.  0.
          5    1    4    4  502    0 -0.14966503896E+02 -0.19337216964E+02 -0.61746801121E+01  0.25654256436E+02  0.47000000000E+01 0. -1.
         -5    1    4    4    0  502  0.19250626993E+02  0.72851873179E+02 -0.10514853841E+03  0.12944607833E+03  0.47000000000E+01 0.  1.
          5    1    3    3  503    0 -0.22164290586E+02 -0.67237946313E+02 -0.12876765150E+03  0.14702175103E+03  0.47000000000E+01 0. -1.
         -5    1    3    3    0  503  0.17880167489E+02  0.13723290097E+02 -0.37984491225E+01  0.23335537197E+02  0.47000000000E+01 0.  1.
<mgrwt>
<rscale>  0 0.10774517E+03</rscale>
<asrwt>0</asrwt>
<pdfrwt beam="1">  1        1 0.43795918E-01 0.10799655E+03</pdfrwt>
<pdfrwt beam="2">  1       -1 0.62744850E-02 0.10799655E+03</pdfrwt>
<totfact> 0.10829418E+04</totfact>
</mgrwt>
</event>
<event>
 8    1  0.2964543E-004  0.2189571E+03  0.7546771E-02  0.1134738E+00
         -2   -1    0    0    0  501 -0.00000000000E+00  0.00000000000E+00  0.39384284799E+02  0.39384284799E+02  0.00000000000E+00 0.  1.
          2   -1    0    0  501    0  0.00000000000E+00 -0.00000000000E+00 -0.12180110532E+04  0.12180110532E+04  0.00000000000E+00 0. -1.
         23    2    1    2    0    0 -0.13339709071E+03 -0.14763300846E+03 -0.62076962904E+03  0.65825310717E+03  0.91388903882E+02 0.  0.
         23    2    1    2    0    0  0.13339709071E+03  0.14763300846E+03 -0.55785713935E+03  0.59914223082E+03  0.90424199385E+02 0.  0.
          5    1    3    3  502    0 -0.61514418604E+02 -0.12979166158E+03 -0.43876411364E+03  0.46169896743E+03  0.47000000000E+01 0. -1.
         -5    1    4    4    0  503  0.81098935203E+02  0.13605930336E+03 -0.34589224427E+03  0.38046380375E+03  0.47000000000E+01 0.  1.
          5    1    4    4  503    0  0.52298155510E+02  0.11573705107E+02 -0.21196489508E+03  0.21867842707E+03  0.47000000000E+01 0. -1.
         -5    1    3    3    0  502 -0.71882672110E+02 -0.17841346880E+02 -0.18200551541E+03  0.19655413973E+03  0.47000000000E+01 0.  1.
<mgrwt>
<rscale>  0 0.21885683E+03</rscale>
<asrwt>0</asrwt>
<pdfrwt beam="1">  1        2 0.18738629E+00 0.21895712E+03</pdfrwt>
<pdfrwt beam="2">  1       -2 0.60591217E-02 0.21895712E+03</pdfrwt>
<totfact> 0.28371369E+03</totfact>
</mgrwt>
</event>
<event>
 8    1  0.2964543E-004  0.1048153E+03  0.7546771E-02  0.1271640E+00
          2   -1    0    0  501    0  0.00000000000E+00  0.00000000000E+00  0.51090955685E+02  0.51090955685E+02  0.00000000000E+00 0. -1.
         -2   -1    0    0    0  501 -0.00000000000E+00 -0.00000000000E+00 -0.38194938218E+03  0.38194938218E+03  0.00000000000E+00 0.  1.
         23    2    1    2    0    0  0.24297282736E+02  0.39219351799E+02 -0.21306235240E+02  0.10695883743E+03  0.94115470251E+02 0.  0.
         23    2    1    2    0    0 -0.24297282736E+02 -0.39219351799E+02 -0.30955219125E+03  0.32608150043E+03  0.91531799453E+02 0.  0.
          5    1    4    4  502    0 -0.30980669365E+02  0.22505461085E+02 -0.14801538065E+03  0.15296058499E+03  0.47000000000E+01 0. -1.
         -5    1    3    3    0  503 -0.33252939126E+02  0.12655979281E+01 -0.17163115091E+02  0.37736218918E+02  0.47000000000E+01 0.  1.
          5    1    3    3  503    0  0.57550221862E+02  0.37953753871E+02 -0.41431201495E+01  0.69222618513E+02  0.47000000000E+01 0. -1.
         -5    1    4    4    0  502  0.66833866293E+01 -0.61724812884E+02 -0.16153681061E+03  0.17312091544E+03  0.47000000000E+01 0.  1.
<mgrwt>
<rscale>  0 0.10423200E+03</rscale>
<asrwt>0</asrwt>
<pdfrwt beam="1">  1        2 0.78601470E-02 0.10481525E+03</pdfrwt>
<pdfrwt beam="2">  1       -2 0.58761443E-01 0.10481525E+03</pdfrwt>
<totfact> 0.22755078E+03</totfact>
</mgrwt>
</event>
<event>
 8    1  0.2964543E-004  0.2057218E+03  0.7546771E-02  0.1145229E+00
          4   -1    0    0  501    0  0.00000000000E+00  0.00000000000E+00  0.11696900638E+03  0.11696900638E+03  0.00000000000E+00 0. -1.
         -4   -1    0    0    0  501 -0.00000000000E+00 -0.00000000000E+00 -0.49049214726E+03  0.49049214726E+03  0.00000000000E+00 0.  1.
         23    2    1    2    0    0 -0.19201297958E+02  0.18241506603E+03 -0.34314399084E+03  0.39950834437E+03  0.90637589410E+02 0.  0.
         23    2    1    2    0    0  0.19201297958E+02 -0.18241506603E+03 -0.30379150045E+02  0.20795280927E+03  0.93153271365E+02 0.  0.
          5    1    4    4  502    0  0.13472477328E+02 -0.10075422196E+03 -0.63025559727E+02  0.11969641627E+03  0.47000000000E+01 0. -1.
         -5    1    4    4    0  502  0.57288206305E+01 -0.81660844074E+02  0.32646409682E+02  0.88256393002E+02  0.47000000000E+01 0.  1.
          5    1    3    3  503    0  0.24251802841E+02  0.99839826991E+01 -0.48217613321E+02  0.55089546068E+02  0.47000000000E+01 0. -1.
         -5    1    3    3    0  503 -0.43453100800E+02  0.17243108333E+03 -0.29492637752E+03  0.34441879831E+03  0.47000000000E+01 0.  1.
<mgrwt>
<rscale>  0 0.20543956E+03</rscale>
<asrwt>0</asrwt>
<pdfrwt beam="1">  1        4 0.17995232E-01 0.20572185E+03</pdfrwt>
<pdfrwt beam="2">  1       -4 0.75460330E-01 0.20572185E+03</pdfrwt>
<totfact> 0.78703208E+01</totfact>
</mgrwt>
</event>
<event>
 8    1  0.2964543E-004  0.1105145E+03  0.7546771E-02  0.1262641E+00
          2   -1    0    0  501    0  0.00000000000E+00  0.00000000000E+00  0.14014068478E+03  0.14014068478E+03  0.00000000000E+00 0. -1.
         -2   -1    0    0    0  501 -0.00000000000E+00 -0.00000000000E+00 -0.87386947572E+02  0.87386947572E+02  0.00000000000E+00 0.  1.
         23    2    1    2    0    0 -0.46692963988E+02 -0.24540755246E+02 -0.56865745899E+00  0.11051593764E+03  0.97113168767E+02 0.  0.
         23    2    1    2    0    0  0.46692963988E+02  0.24540755246E+02  0.53322394665E+02  0.11701169471E+03  0.89810786498E+02 0.  0.
          5    1    4    4  502    0  0.28249376509E+02 -0.98656155304E+01  0.68473519411E+02  0.74873697007E+02  0.47000000000E+01 0. -1.
         -5    1    4    4    0  502  0.18443587479E+02  0.34406370776E+02 -0.15151124747E+02  0.42137997700E+02  0.47000000000E+01 0.  1.
          5    1    3    3  503    0 -0.39498875160E+02 -0.51598978977E+02 -0.28114646851E+02  0.70958714319E+02  0.47000000000E+01 0. -1.
         -5    1    3    3    0  503 -0.71940888285E+01  0.27058223731E+02  0.27545989392E+02  0.39557223324E+02  0.47000000000E+01 0.  1.
<mgrwt>
<rscale>  0 0.10888934E+03</rscale>
<asrwt>0</asrwt>
<pdfrwt beam="1">  1        2 0.21560105E-01 0.11051447E+03</pdfrwt>
<pdfrwt beam="2">  1       -2 0.13444146E-01 0.11051447E+03</pdfrwt>
<totfact> 0.96734516E+03</totfact>
</mgrwt>
</event>
<event>
 8    1  0.2964543E-004  0.9785343E+02  0.7546771E-02  0.1285915E+00
         -3   -1    0    0    0  501 -0.00000000000E+00  0.00000000000E+00  0.48296488356E+02  0.48296488356E+02  0.00000000000E+00 0.  1.
          3   -1    0    0  501    0  0.00000000000E+00 -0.00000000000E+00 -0.24373108772E+03  0.24373108772E+03  0.00000000000E+00 0. -1.
         23    2    1    2    0    0 -0.30840148025E+02  0.27393710448E+01 -0.16414932079E+03  0.19110283264E+03  0.92826042897E+02 0.  0.
         23    2    1    2    0    0  0.30840148025E+02 -0.27393710448E+01 -0.31285278569E+02  0.10092474344E+03  0.90820792219E+02 0.  0.
          5    1    3    3  502    0  0.27643714310E+02  0.14920906809E+02 -0.27971993557E+02  0.42324116346E+02  0.47000000000E+01 0. -1.
         -5    1    3    3    0  502 -0.58483862336E+02 -0.12181535764E+02 -0.13617732724E+03  0.14877871629E+03  0.47000000000E+01 0.  1.
          5    1    4    4  503    0  0.88052502148E+01  0.30445496059E+02 -0.47802201769E+02  0.57546512975E+02  0.47000000000E+01 0. -1.
         -5    1    4    4    0  503  0.22034897811E+02 -0.33184867104E+02  0.16516923200E+02  0.43378230464E+02  0.47000000000E+01 0.  1.
<mgrwt>
<rscale>  0 0.97374895E+02</rscale>
<asrwt>0</asrwt>
<pdfrwt beam="1">  1        3 0.37497091E-01 0.97853427E+02</pdfrwt>
<pdfrwt beam="2">  1       -3 0.74302288E-02 0.97853427E+02</pdfrwt>
<totfact> 0.18299747E+03</totfact>
</mgrwt>
</event>
<event>
 8    1  0.2964543E-004  0.9734045E+02  0.7546771E-02  0.1286228E+00
          1   -1    0    0  501    0  0.00000000000E+00  0.00000000000E+00  0.25380106101E+03  0.25380106101E+03  0.00000000000E+00 0. -1.
         -1   -1    0    0    0  501 -0.00000000000E+00 -0.00000000000E+00 -0.37169014033E+02  0.37169014033E+02  0.00000000000E+00 0.  1.
         23    2    1    2    0    0  0.17865693803E+02 -0.29574185576E+02  0.10681412550E+03  0.14422152088E+03  0.90536038193E+02 0.  0.
         23    2    1    2    0    0 -0.17865693803E+02  0.29574185576E+02  0.10981792147E+03  0.14674855416E+03  0.91001905490E+02 0.  0.
          5    1    4    4  502    0 -0.50451714723E+02  0.24309300661E+02  0.94743139003E+02  0.11015747821E+03  0.47000000000E+01 0. -1.
         -5    1    3    3    0  503  0.43709450546E+02 -0.36861824032E+02  0.34512180585E+02  0.66951405861E+02  0.47000000000E+01 0.  1.
          5    1    3    3  503    0 -0.25843756743E+02  0.72876384568E+01  0.72301944915E+02  0.77270115021E+02  0.47000000000E+01 0. -1.
         -5    1    4    4    0  502  0.32586020920E+02  0.52648849146E+01  0.15074782472E+02  0.36591075949E+02  0.47000000000E+01 0.  1.
<mgrwt>
<rscale>  0 0.97231415E+02</rscale>
<asrwt>0</asrwt>
<pdfrwt beam="1">  1        1 0.39046316E-01 0.97340445E+02</pdfrwt>
<pdfrwt beam="2">  1       -1 0.57183100E-02 0.97340445E+02</pdfrwt>
<totfact> 0.14162422E+04</totfact>
</mgrwt>
</event>
<event>
 8    1  0.2964543E-004  0.9819536E+02  0.7546771E-02  0.1284374E+00
          3   -1    0    0  501    0  0.00000000000E+00  0.00000000000E+00  0.16304165449E+02  0.16304165449E+02  0.00000000000E+00 0. -1.
         -3   -1    0    0    0  501 -0.00000000000E+00 -0.00000000000E+00 -0.59652552902E+03  0.59652552902E+03  0.00000000000E+00 0.  1.
         23    2    1    2    0    0  0.27480624338E+02  0.17275610182E+02 -0.25451397044E+03  0.27264204834E+03  0.92210053399E+02 0.  0.
         23    2    1    2    0    0 -0.27480624338E+02 -0.17275610182E+02 -0.32570739313E+03  0.34018764614E+03  0.92675224433E+02 0.  0.
          5    1    3    3  502    0  0.40977990958E+02  0.39368121997E+02 -0.22899647963E+03  0.23598839474E+03  0.47000000000E+01 0. -1.
         -5    1    3    3    0  502 -0.13497366620E+02 -0.22092511815E+02 -0.25517490819E+02  0.36653653592E+02  0.47000000000E+01 0.  1.
          5    1    4    4  503    0  0.75469000160E+01  0.28806305964E+02 -0.49633514736E+02  0.58071806827E+02  0.47000000000E+01 0. -1.
         -5    1    4    4    0  503 -0.35027524354E+02 -0.46081916146E+02 -0.27607387839E+03  0.28211583931E+03  0.47000000000E+01 0.  1.
<mgrwt>
<rscale>  0 0.98085450E+02</rscale>
<asrwt>0</asrwt>
<pdfrwt beam="1">  1        3 0.25083334E-02 0.98195360E+02</pdfrwt>
<pdfrwt beam="2">  1       -3 0.91773150E-01 0.98195360E+02</pdfrwt>
<totfact> 0.16037543E+03</totfact>
</mgrwt>
</event>
<event>
 8    1  0.2964543E-004  0.1199364E+03  0.7546771E-02  0.1259762E+00
          2   -1    0    0  501    0  0.00000000000E+00  0.00000000000E+00  0.46140802778E+03  0.46140802778E+03  0.00000000000E+00 0. -1.
         -2   -1    0    0    0  501 -0.00000000000E+00 -0.00000000000E+00 -0.25909226345E+02  0.25909226345E+02  0.00000000000E+00 0.  1.
         23    2    1    2    0    0  0.31554296293E+02 -0.36055326046E+02  0.32968351352E+03  0.35082181805E+03  0.10995030142E+03 0.  0.
         23    2    1    2    0    0 -0.31554296293E+02  0.36055326046E+02  0.10581528791E+03  0.13649543607E+03  0.71683113501E+02 0.  0.
          5    1    4    4  502    0  0.22010777704E+02  0.68192680555E+01  0.41579794470E+02  0.47769719071E+02  0.47000000000E+01 0. -1.
         -5    1    4    4    0  502 -0.53565073998E+02  0.29236057991E+02  0.64235493443E+02  0.88725717000E+02  0.47000000000E+01 0.  1.
          5    1    3    3  503    0  0.18611249327E+02 -0.72404679691E+02  0.26475569443E+03  0.27514811280E+03  0.47000000000E+01 0. -1.
         -5    1    3    3    0  503  0.12943046966E+02  0.36349353645E+02  0.64927819087E+02  0.75673705252E+02  0.47000000000E+01 0.  1.
<mgrwt>
<rscale>  0 0.11043758E+03</rscale>
<asrwt>0</asrwt>
<pdfrwt beam="1">  1        2 0.70985844E-01 0.11993635E+03</pdfrwt>
<pdfrwt beam="2">  1       -2 0.39860352E-02 0.11993635E+03</pdfrwt>
<totfact> 0.17539910E+04</totfact>
</mgrwt>
</event>
<event>
 8    1  0.2964543E-004  0.1081444E+03  0.7546771E-02  0.1264724E+00
         -1   -1    0    0    0  501 -0.00000000000E+00  0.00000000000E+00  0.13532845644E+03  0.13532845644E+03  0.00000000000E+00 0.  1.
          1   -1    0    0  501    0  0.00000000000E+00 -0.00000000000E+00 -0.10615006032E+03  0.10615006032E+03  0.00000000000E+00 0. -1.
         23    2    1    2    0    0  0.60900561444E+01 -0.55383051678E+02 -0.39014293551E+02  0.11362919128E+03  0.91022562113E+02 0.  0.
         23    2    1    2    0    0 -0.60900561444E+01  0.55383051678E+02  0.68192689672E+02  0.12784932548E+03  0.92686762296E+02 0.  0.
          5    1    3    3  502    0  0.54797880010E+01  0.22245870661E+02 -0.25656839225E+02  0.34717002132E+02  0.47000000000E+01 0. -1.
         -5    1    3    3    0  502  0.61026814337E+00 -0.77628922339E+02 -0.13357454325E+02  0.78912189152E+02  0.47000000000E+01 0.  1.
          5    1    4    4  503    0  0.24186743997E+02 -0.54376616716E+01 -0.72126896621E+01  0.26242706449E+02  0.47000000000E+01 0. -1.
         -5    1    4    4    0  503 -0.30276800141E+02  0.60820713350E+02  0.75405379334E+02  0.10160661903E+03  0.47000000000E+01 0.  1.
<mgrwt>
<rscale>  0 0.10778689E+03</rscale>
<asrwt>0</asrwt>
<pdfrwt beam="1">  1        1 0.16330778E-01 0.10814438E+03</pdfrwt>
<pdfrwt beam="2">  1       -1 0.20819763E-01 0.10814438E+03</pdfrwt>
<totfact> 0.58807420E+03</totfact>
</mgrwt>
</event>
<event>
 8    1  0.2964543E-004  0.1206558E+03  0.7546771E-02  0.1249759E+00
         -1   -1    0    0    0  501 -0.00000000000E+00  0.00000000000E+00  0.18953569999E+03  0.18953569999E+03  0.00000000000E+00 0.  1.
          1   -1    0    0  501    0  0.00000000000E+00 -0.00000000000E+00 -0.95244648629E+02  0.95244648629E+02  0.00000000000E+00 0. -1.
         23    2    1    2    0    0  0.42903121996E+02  0.26086506265E+02 -0.33953235394E+02  0.10869964284E+03  0.90230851006E+02 0.  0.
         23    2    1    2    0    0 -0.42903121996E+02 -0.26086506265E+02  0.12824428676E+03  0.17608070578E+03  0.10971159545E+03 0.  0.
          5    1    3    3  502    0  0.65764099839E+02  0.21230060823E+02 -0.26020965053E+01  0.69314451714E+02  0.47000000000E+01 0. -1.
         -5    1    4    4    0  503 -0.55537326297E+00 -0.26321729813E+02  0.13069371200E+03  0.13340194248E+03  0.47000000000E+01 0.  1.
          5    1    4    4  503    0 -0.42347748733E+02  0.23522354767E+00 -0.24494252484E+01  0.42678763301E+02  0.47000000000E+01 0. -1.
         -5    1    3    3    0  502 -0.22860977843E+02  0.48564454421E+01 -0.31351138889E+02  0.39385191124E+02  0.47000000000E+01 0.  1.
<mgrwt>
<rscale>  0 0.11604995E+03</rscale>
<asrwt>0</asrwt>
<pdfrwt beam="1">  1        1 0.14653023E-01 0.12065578E+03</pdfrwt>
<pdfrwt beam="2">  1       -1 0.29159338E-01 0.12065578E+03</pdfrwt>
<totfact> 0.39274185E+03</totfact>
</mgrwt>
</event>
<event>
 8    1  0.2964543E-004  0.9658959E+02  0.7546771E-02  0.1288727E+00
          1   -1    0    0  501    0  0.00000000000E+00  0.00000000000E+00  0.51673058428E+02  0.51673058428E+02  0.00000000000E+00 0. -1.
         -1   -1    0    0    0  501 -0.00000000000E+00 -0.00000000000E+00 -0.18462991575E+03  0.18462991575E+03  0.00000000000E+00 0.  1.
         23    2    1    2    0    0  0.42831854926E+01  0.34804087483E+02 -0.89991859126E+02  0.13058855071E+03  0.87892916008E+02 0.  0.
         23    2    1    2    0    0 -0.42831854926E+01 -0.34804087483E+02 -0.42964998199E+02  0.10571442347E+03  0.89999322641E+02 0.  0.
          5    1    4    4  502    0  0.32486632083E+02 -0.47208901826E+02 -0.25806242558E+02  0.63024708097E+02  0.47000000000E+01 0. -1.
         -5    1    3    3    0  503  0.77506713054E+01  0.60799302428E+02 -0.82553938411E+02  0.10292653122E+03  0.47000000000E+01 0.  1.
          5    1    3    3  503    0 -0.34674858128E+01 -0.25995214945E+02 -0.74379207151E+01  0.27662019493E+02  0.47000000000E+01 0. -1.
         -5    1    4    4    0  502 -0.36769817576E+02  0.12404814344E+02 -0.17158755641E+02  0.42689715373E+02  0.47000000000E+01 0.  1.
<mgrwt>
<rscale>  0 0.96095915E+02</rscale>
<asrwt>0</asrwt>
<pdfrwt beam="1">  1        1 0.79497013E-02 0.96589587E+02</pdfrwt>
<pdfrwt beam="2">  1       -1 0.28404603E-01 0.96589587E+02</pdfrwt>
<totfact> 0.89900168E+03</totfact>
</mgrwt>
</event>
<event>
 8    1  0.2964543E-004  0.9393018E+02  0.7546771E-02  0.1294010E+00
         -4   -1    0    0    0  501 -0.00000000000E+00  0.00000000000E+00  0.14913524777E+03  0.14913524777E+03  0.00000000000E+00 0.  1.
          4   -1    0    0  501    0  0.00000000000E+00 -0.00000000000E+00 -0.11798701231E+03  0.11798701231E+03  0.00000000000E+00 0. -1.
         23    2    1    2    0    0 -0.17725464442E+02 -0.11904991105E+02  0.11026748696E+03  0.14485094968E+03  0.91471077607E+02 0.  0.
         23    2    1    2    0    0  0.17725464442E+02  0.11904991105E+02 -0.79119251502E+02  0.12227131041E+03  0.90744126464E+02 0.  0.
          5    1    3    3  502    0  0.24975381346E+02 -0.36399660242E+02  0.49089111185E+02  0.66185616081E+02  0.47000000000E+01 0. -1.
         -5    1    4    4    0  503  0.42410487104E+02  0.24829868215E+02 -0.14046562825E+02  0.51328040087E+02  0.47000000000E+01 0.  1.
          5    1    4    4  503    0 -0.24685022662E+02 -0.12924877110E+02 -0.65072688677E+02  0.70943270321E+02  0.47000000000E+01 0. -1.
         -5    1    3    3    0  502 -0.42700845788E+02  0.24494669137E+02  0.61178375775E+02  0.78665333595E+02  0.47000000000E+01 0.  1.
<mgrwt>
<rscale>  0 0.93752736E+02</rscale>
<asrwt>0</asrwt>
<pdfrwt beam="1">  1        4 0.18151848E-01 0.93930181E+02</pdfrwt>
<pdfrwt beam="2">  1       -4 0.22943884E-01 0.93930181E+02</pdfrwt>
<totfact> 0.71962960E+02</totfact>
</mgrwt>
</event>
<event>
 8    1  0.2964543E-004  0.1022593E+03  0.7546771E-02  0.1278410E+00
         -1   -1    0    0    0  501 -0.00000000000E+00  0.00000000000E+00  0.96914336106E+02  0.96914336106E+02  0.00000000000E+00 0.  1.
          1   -1    0    0  501    0  0.00000000000E+00 -0.00000000000E+00 -0.10565931399E+03  0.10565931399E+03  0.00000000000E+00 0. -1.
         23    2    1    2    0    0  0.33357130725E+02 -0.16289292842E+02  0.13411838601E+02  0.10313508134E+03  0.95283410713E+02 0.  0.
         23    2    1    2    0    0 -0.33357130725E+02  0.16289292842E+02 -0.22156816481E+02  0.99438568751E+02  0.89549233426E+02 0.  0.
          5    1    3    3  502    0 -0.14719013518E+02  0.19462929939E+02 -0.22163301409E+02  0.33298001894E+02  0.47000000000E+01 0. -1.
         -5    1    4    4    0  503 -0.36876444653E+02 -0.21417652658E+02  0.15699652779E+02  0.45685414664E+02  0.47000000000E+01 0.  1.
          5    1    4    4  503    0  0.35193139283E+01  0.37706945500E+02 -0.37856469261E+02  0.53753154087E+02  0.47000000000E+01 0. -1.
         -5    1    3    3    0  502  0.48076144243E+02 -0.35752222781E+02  0.35575140010E+02  0.69837079448E+02  0.47000000000E+01 0.  1.
<mgrwt>
<rscale>  0 0.10090238E+03</rscale>
<asrwt>0</asrwt>
<pdfrwt beam="1">  1        1 0.16255279E-01 0.10225932E+03</pdfrwt>
<pdfrwt beam="2">  1       -1 0.14909898E-01 0.10225932E+03</pdfrwt>
<totfact> 0.99699417E+03</totfact>
</mgrwt>
</event>
<event>
 8    1  0.2964543E-004  0.1139317E+03  0.7546771E-02  0.1254498E+00
         -2   -1    0    0    0  501 -0.00000000000E+00  0.00000000000E+00  0.10914761074E+02  0.10914761074E+02  0.00000000000E+00 0.  1.
          2   -1    0    0  501    0  0.00000000000E+00 -0.00000000000E+00 -0.11654704346E+04  0.11654704346E+04  0.00000000000E+00 0. -1.
         23    2    1    2    0    0  0.27553642274E+02  0.61837956902E+02 -0.56049032537E+03  0.57149340806E+03  0.88725275485E+02 0.  0.
         23    2    1    2    0    0 -0.27553642274E+02 -0.61837956902E+02 -0.59406534816E+03  0.60489178762E+03  0.91636786949E+02 0.  0.
          5    1    4    4  502    0 -0.71582762682E+01 -0.74091391763E+02 -0.54583163205E+03  0.55090383534E+03  0.47000000000E+01 0. -1.
         -5    1    3    3    0  503  0.52362236972E+02  0.13641875303E+02 -0.34450432209E+03  0.34875954835E+03  0.47000000000E+01 0.  1.
          5    1    3    3  503    0 -0.24808594699E+02  0.48196081599E+02 -0.21598600327E+03  0.22273385971E+03  0.47000000000E+01 0. -1.
         -5    1    4    4    0  502 -0.20395366006E+02  0.12253434861E+02 -0.48233716116E+02  0.53987952274E+02  0.47000000000E+01 0.  1.
<mgrwt>
<rscale>  0 0.11334512E+03</rscale>
<asrwt>0</asrwt>
<pdfrwt beam="1">  1        2 0.17930315E+00 0.11393172E+03</pdfrwt>
<pdfrwt beam="2">  1       -2 0.16791940E-02 0.11393172E+03</pdfrwt>
<totfact> 0.19778639E+04</totfact>
</mgrwt>
</event>
<event>
 8    1  0.2964543E-004  0.9663860E+02  0.7546771E-02  0.1289423E+00
         -1   -1    0    0    0  501 -0.00000000000E+00  0.00000000000E+00  0.17191205810E+03  0.17191205810E+03  0.00000000000E+00 0.  1.
          1   -1    0    0  501    0  0.00000000000E+00 -0.00000000000E+00 -0.56914339678E+02  0.56914339678E+02  0.00000000000E+00 0. -1.
         23    2    1    2    0    0  0.31206284228E+01  0.29889242719E+02  0.24488752219E+02  0.96422123160E+02  0.88286022095E+02 0.  0.
         23    2    1    2    0    0 -0.31206284228E+01 -0.29889242719E+02  0.90508966202E+02  0.13240427462E+03  0.91847230887E+02 0.  0.
          5    1    4    4  502    0 -0.13735575036E+02 -0.58506382372E+02  0.37314228478E+02  0.70895024132E+02  0.47000000000E+01 0. -1.
         -5    1    4    4    0  502  0.10614946614E+02  0.28617139653E+02  0.53194737725E+02  0.61509250484E+02  0.47000000000E+01 0.  1.
          5    1    3    3  503    0  0.38757823457E+02 -0.34005166049E+01  0.26631990148E+02  0.47382331006E+02  0.47000000000E+01 0. -1.
         -5    1    3    3    0  503 -0.35637195034E+02  0.33289759324E+02 -0.21432379290E+01  0.49039792155E+02  0.47000000000E+01 0.  1.
<mgrwt>
<rscale>  0 0.95782781E+02</rscale>
<asrwt>0</asrwt>
<pdfrwt beam="1">  1        1 0.87560523E-02 0.96638600E+02</pdfrwt>
<pdfrwt beam="2">  1       -1 0.26448009E-01 0.96638600E+02</pdfrwt>
<totfact> 0.88964087E+03</totfact>
</mgrwt>
</event>
<event>
 8    1  0.2964543E-004  0.9395509E+02  0.7546771E-02  0.1294534E+00
         -1   -1    0    0    0  501 -0.00000000000E+00  0.00000000000E+00  0.42456776311E+02  0.42456776311E+02  0.00000000000E+00 0.  1.
          1   -1    0    0  501    0  0.00000000000E+00 -0.00000000000E+00 -0.23899132835E+03  0.23899132835E+03  0.00000000000E+00 0. -1.
         23    2    1    2    0    0  0.46459565666E+01  0.82558401826E+01 -0.15276598607E+03  0.17934604720E+03  0.93476276852E+02 0.  0.
         23    2    1    2    0    0 -0.46459565666E+01 -0.82558401826E+01 -0.43768565963E+02  0.10210205746E+03  0.91757282883E+02 0.  0.
          5    1    3    3  502    0  0.38564467240E+02  0.31157716908E+02 -0.10539273952E+03  0.11656646602E+03  0.47000000000E+01 0. -1.
         -5    1    4    4    0  503 -0.37228894397E+02 -0.13882941201E+02  0.77027429838E+01  0.40744924640E+02  0.47000000000E+01 0.  1.
          5    1    4    4  503    0  0.32582937831E+02  0.56271010182E+01 -0.51471308947E+02  0.61357132823E+02  0.47000000000E+01 0. -1.
         -5    1    3    3    0  502 -0.33918510674E+02 -0.22901876726E+02 -0.47373246558E+02  0.62779581181E+02  0.47000000000E+01 0.  1.
<mgrwt>
<rscale>  0 0.93524619E+02</rscale>
<asrwt>0</asrwt>
<pdfrwt beam="1">  1        1 0.36767896E-01 0.93955086E+02</pdfrwt>
<pdfrwt beam="2">  1       -1 0.65318119E-02 0.93955086E+02</pdfrwt>
<totfact> 0.12483163E+04</totfact>
</mgrwt>
</event>
<event>
 8    1  0.2964543E-004  0.1113340E+03  0.7546771E-02  0.1258826E+00
          1   -1    0    0  501    0  0.00000000000E+00  0.00000000000E+00  0.55279007444E+02  0.55279007444E+02  0.00000000000E+00 0. -1.
         -1   -1    0    0    0  501 -0.00000000000E+00 -0.00000000000E+00 -0.32261657699E+03  0.32261657699E+03  0.00000000000E+00 0.  1.
         23    2    1    2    0    0  0.38412425587E+02  0.47838714815E+02 -0.28339647179E+02  0.11488427776E+03  0.92904276547E+02 0.  0.
         23    2    1    2    0    0 -0.38412425587E+02 -0.47838714815E+02 -0.23899792237E+03  0.26301130667E+03  0.91054288563E+02 0.  0.
          5    1    4    4  502    0  0.17230641908E+02 -0.44593134342E+02 -0.69210772951E+02  0.84247633459E+02  0.47000000000E+01 0. -1.
         -5    1    4    4    0  502 -0.55643067495E+02 -0.32455804737E+01 -0.16978714942E+03  0.17876367321E+03  0.47000000000E+01 0.  1.
          5    1    3    3  503    0  0.45572156149E+02  0.72201168978E+02 -0.21859292493E+02  0.88259554078E+02  0.47000000000E+01 0. -1.
         -5    1    3    3    0  503 -0.71597305621E+01 -0.24362454162E+02 -0.64803546861E+01  0.26624723687E+02  0.47000000000E+01 0.  1.
<mgrwt>
<rscale>  0 0.11094724E+03</rscale>
<asrwt>0</asrwt>
<pdfrwt beam="1">  1        1 0.85044627E-02 0.11133401E+03</pdfrwt>
<pdfrwt beam="2">  1       -1 0.49633320E-01 0.11133401E+03</pdfrwt>
<totfact> 0.31706653E+03</totfact>
</mgrwt>
</event>
<event>
 8    1  0.2964543E-004  0.1676332E+03  0.7546771E-02  0.1180633E+00
          1   -1    0    0  501    0  0.00000000000E+00  0.00000000000E+00  0.14084045900E+03  0.14084045900E+03  0.00000000000E+00 0. -1.
         -1   -1    0    0    0  501 -0.00000000000E+00 -0.00000000000E+00 -0.21097088829E+03  0.21097088829E+03  0.00000000000E+00 0.  1.
         23    2    1    2    0    0 -0.91189229996E+02 -0.10486209113E+03 -0.78432308574E+02  0.18507438250E+03  0.93751619755E+02 0.  0.
         23    2    1    2    0    0  0.91189229996E+02  0.10486209113E+03  0.83018792810E+01  0.16673696479E+03  0.91764701297E+02 0.  0.
          5    1    3    3  502    0 -0.10832418481E+03 -0.92663517941E+02 -0.79880152126E+02  0.16347350022E+03  0.47000000000E+01 0. -1.
         -5    1    3    3    0  502  0.17134954812E+02 -0.12198573184E+02  0.14478435524E+01  0.21600882276E+02  0.47000000000E+01 0.  1.
          5    1    4    4  503    0 -0.14834990044E+02  0.36735840103E+02 -0.36316173521E+01  0.40060922634E+02  0.47000000000E+01 0. -1.
         -5    1    4    4    0  503  0.10602422004E+03  0.68126251022E+02  0.11933496633E+02  0.12667604215E+03  0.47000000000E+01 0.  1.
<mgrwt>
<rscale>  0 0.16735678E+03</rscale>
<asrwt>0</asrwt>
<pdfrwt beam="1">  1        1 0.21667763E-01 0.16763323E+03</pdfrwt>
<pdfrwt beam="2">  1       -1 0.32457060E-01 0.16763323E+03</pdfrwt>
<totfact> 0.20163657E+03</totfact>
</mgrwt>
</event>
<event>
 8    1  0.2964543E-004  0.1378457E+03  0.7546771E-02  0.1216525E+00
          2   -1    0    0  501    0  0.00000000000E+00  0.00000000000E+00  0.68091942862E+03  0.68091942862E+03  0.00000000000E+00 0. -1.
         -2   -1    0    0    0  501 -0.00000000000E+00 -0.00000000000E+00 -0.32882251664E+02  0.32882251664E+02  0.00000000000E+00 0.  1.
         23    2    1    2    0    0 -0.10040096451E+03  0.26404591264E+02  0.18222377781E+03  0.22802028826E+03  0.89499667849E+02 0.  0.
         23    2    1    2    0    0  0.10040096451E+03 -0.26404591264E+02  0.46581339915E+03  0.48578139202E+03  0.90685621227E+02 0.  0.
          5    1    3    3  502    0 -0.21996784479E+02  0.12512519295E+02  0.13036167249E+03  0.13287843061E+03  0.47000000000E+01 0. -1.
         -5    1    4    4    0  503  0.82560075724E+01 -0.28204493393E+02  0.38743411467E+02  0.48854856879E+02  0.47000000000E+01 0.  1.
          5    1    4    4  503    0  0.92144956938E+02  0.17999021283E+01  0.42706998768E+03  0.43692653514E+03  0.47000000000E+01 0. -1.
         -5    1    3    3    0  502 -0.78404180031E+02  0.13892071970E+02  0.51862105327E+02  0.95141857659E+02  0.47000000000E+01 0.  1.
<mgrwt>
<rscale>  0 0.13765097E+03</rscale>
<asrwt>0</asrwt>
<pdfrwt beam="1">  1        2 0.10475682E+00 0.13784570E+03</pdfrwt>
<pdfrwt beam="2">  1       -2 0.50588085E-02 0.13784570E+03</pdfrwt>
<totfact> 0.80241638E+03</totfact>
</mgrwt>
</event>
<event>
 8    1  0.2964543E-004  0.1322234E+03  0.7546771E-02  0.1225516E+00
          1   -1    0    0  501    0  0.00000000000E+00  0.00000000000E+00  0.43306757174E+03  0.43306757174E+03  0.00000000000E+00 0. -1.
         -1   -1    0    0    0  501 -0.00000000000E+00 -0.00000000000E+00 -0.39342251965E+02  0.39342251965E+02  0.00000000000E+00 0.  1.
         23    2    1    2    0    0  0.26219398108E+02  0.90165252161E+02  0.19023890651E+03  0.23167620877E+03  0.93090249894E+02 0.  0.
         23    2    1    2    0    0 -0.26219398108E+02 -0.90165252161E+02  0.20348641327E+03  0.24073361494E+03  0.87913158523E+02 0.  0.
          5    1    4    4  502    0 -0.52076926397E+02 -0.61267576062E+02  0.17417520788E+03  0.19189792907E+03  0.47000000000E+01 0. -1.
         -5    1    3    3    0  503 -0.26307812932E+01  0.94536229750E+02  0.17363603600E+03  0.19777659806E+03  0.47000000000E+01 0.  1.
          5    1    3    3  503    0  0.28850179401E+02 -0.43709775893E+01  0.16602870510E+02  0.33899610702E+02  0.47000000000E+01 0. -1.
         -5    1    4    4    0  502  0.25857528289E+02 -0.28897676098E+02  0.29311205384E+02  0.48835685868E+02  0.47000000000E+01 0.  1.
<mgrwt>
<rscale>  0 0.13131601E+03</rscale>
<asrwt>0</asrwt>
<pdfrwt beam="1">  1        1 0.66625777E-01 0.13222339E+03</pdfrwt>
<pdfrwt beam="2">  1       -1 0.60526545E-02 0.13222339E+03</pdfrwt>
<totfact> 0.68798443E+03</totfact>
</mgrwt>
</event>
<event>
 8    1  0.2964543E-004  0.3240943E+03  0.7546771E-02  0.1073812E+00
         -1   -1    0    0    0  501 -0.00000000000E+00  0.00000000000E+00  0.25841076909E+03  0.25841076909E+03  0.00000000000E+00 0.  1.
          1   -1    0    0  501    0  0.00000000000E+00 -0.00000000000E+00 -0.49042269875E+03  0.49042269875E+03  0.00000000000E+00 0. -1.
         23    2    1    2    0    0  0.27319059983E+03 -0.14876990939E+03  0.39264794636E+02  0.32618918819E+03  0.89955948240E+02 0.  0.
         23    2    1    2    0    0 -0.27319059983E+03  0.14876990939E+03 -0.27127672429E+03  0.42264427965E+03  0.90947986256E+02 0.  0.
          5    1    3    3  502    0  0.29235086499E+02 -0.41370015352E+02 -0.17161332544E+02  0.53691431230E+02  0.47000000000E+01 0. -1.
         -5    1    4    4    0  503 -0.44040454120E+02  0.51503099036E+02 -0.24847230751E+02  0.72329839523E+02  0.47000000000E+01 0.  1.
          5    1    4    4  503    0 -0.22915014571E+03  0.97266810349E+02 -0.24642949354E+03  0.35031444013E+03  0.47000000000E+01 0. -1.
         -5    1    3    3    0  502  0.24395551333E+03 -0.10739989403E+03  0.56426127179E+02  0.27249775696E+03  0.47000000000E+01 0.  1.
<mgrwt>
<rscale>  0 0.32402505E+03</rscale>
<asrwt>0</asrwt>
<pdfrwt beam="1">  1        1 0.75449646E-01 0.32409432E+03</pdfrwt>
<pdfrwt beam="2">  1       -1 0.39755503E-01 0.32409432E+03</pdfrwt>
<totfact> 0.29029011E+02</totfact>
</mgrwt>
</event>
<event>
 8    1  0.2964543E-004  0.1461271E+03  0.7546771E-02  0.1206996E+00
         -2   -1    0    0    0  501 -0.00000000000E+00  0.00000000000E+00  0.19671446902E+02  0.19671446902E+02  0.00000000000E+00 0.  1.
          2   -1    0    0  501    0  0.00000000000E+00 -0.00000000000E+00 -0.10917478500E+04  0.10917478500E+04  0.00000000000E+00 0. -1.
         23    2    1    2    0    0  0.58628777449E+02  0.90164053023E+02 -0.63886068455E+03  0.65422240022E+03  0.91088334570E+02 0.  0.
         23    2    1    2    0    0 -0.58628777449E+02 -0.90164053023E+02 -0.43321571851E+03  0.45719689663E+03  0.98925494820E+02 0.  0.
          5    1    4    4  502    0  0.11633649589E+02 -0.23668174004E+02 -0.21809392872E+02  0.34543651817E+02  0.47000000000E+01 0. -1.
         -5    1    3    3    0  503 -0.10565485044E+02  0.43085503363E+02 -0.10905166055E+03  0.11782336247E+03  0.47000000000E+01 0.  1.
          5    1    3    3  503    0  0.69194262493E+02  0.47078549660E+02 -0.52980902400E+03  0.53639903776E+03  0.47000000000E+01 0. -1.
         -5    1    4    4    0  502 -0.70262427038E+02 -0.66495879020E+02 -0.41140632563E+03  0.42265324481E+03  0.47000000000E+01 0.  1.
<mgrwt>
<rscale>  0 0.14481263E+03</rscale>
<asrwt>0</asrwt>
<pdfrwt beam="1">  1        2 0.16796125E+00 0.14612715E+03</pdfrwt>
<pdfrwt beam="2">  1       -2 0.30263756E-02 0.14612715E+03</pdfrwt>
<totfact> 0.93804497E+03</totfact>
</mgrwt>
</event>
<event>
 8    1  0.2964543E-004  0.1282387E+03  0.7546771E-02  0.1230513E+00
         -3   -1    0    0    0  501 -0.00000000000E+00  0.00000000000E+00  0.56526851958E+02  0.56526851958E+02  0.00000000000E+00 0.  1.
          3   -1    0    0  501    0  0.00000000000E+00 -0.00000000000E+00 -0.35137685652E+03  0.35137685652E+03  0.00000000000E+00 0. -1.
         23    2    1    2    0    0  0.66405703038E+02  0.55586955556E+02 -0.61620072575E+02  0.14227508008E+03  0.94580854528E+02 0.  0.
         23    2    1    2    0    0 -0.66405703038E+02 -0.55586955556E+02 -0.23322993199E+03  0.26562862840E+03  0.93073841798E+02 0.  0.
          5    1    4    4  502    0 -0.70895328704E+02 -0.32090999548E+02 -0.22763645096E+03  0.24061675687E+03  0.47000000000E+01 0. -1.
         -5    1    4    4    0  502  0.44896256661E+01 -0.23495956007E+02 -0.55934810335E+01  0.25011871529E+02  0.47000000000E+01 0.  1.
          5    1    3    3  503    0 -0.42168139952E+01  0.23183355469E+02 -0.59759639691E+02  0.64409269730E+02  0.47000000000E+01 0. -1.
         -5    1    3    3    0  503  0.70622517033E+02  0.32403600087E+02 -0.18604328833E+01  0.77865810349E+02  0.47000000000E+01 0.  1.
<mgrwt>
<rscale>  0 0.12796095E+03</rscale>
<asrwt>0</asrwt>
<pdfrwt beam="1">  1        3 0.54057978E-01 0.12823870E+03</pdfrwt>
<pdfrwt beam="2">  1       -3 0.86964388E-02 0.12823870E+03</pdfrwt>
<totfact> 0.72759658E+02</totfact>
</mgrwt>
</event>
<event>
 8    1  0.2964543E-004  0.1206188E+03  0.7546771E-02  0.1242292E+00
          1   -1    0    0  501    0  0.00000000000E+00  0.00000000000E+00  0.84709581835E+02  0.84709581835E+02  0.00000000000E+00 0. -1.
         -1   -1    0    0    0  501 -0.00000000000E+00 -0.00000000000E+00 -0.17381122645E+03  0.17381122645E+03  0.00000000000E+00 0.  1.
         23    2    1    2    0    0 -0.31569248545E+02 -0.73176778415E+02 -0.61036469864E+02  0.13518267790E+03  0.90539755896E+02 0.  0.
         23    2    1    2    0    0  0.31569248545E+02  0.73176778415E+02 -0.28065174750E+02  0.12333813038E+03  0.89850887698E+02 0.  0.
          5    1    3    3  502    0 -0.49520725522E+01 -0.50879876024E+02  0.13275270557E+02  0.53024594436E+02  0.47000000000E+01 0. -1.
         -5    1    4    4    0  503  0.98118917872E+01 -0.18964098259E+02 -0.17412771093E+02  0.27950041867E+02  0.47000000000E+01 0.  1.
          5    1    4    4  503    0  0.21757356757E+02  0.92140876674E+02 -0.10652403657E+02  0.95388088517E+02  0.47000000000E+01 0. -1.
         -5    1    3    3    0  502 -0.26617175992E+02 -0.22296902391E+02 -0.74311740421E+02  0.82158083463E+02  0.47000000000E+01 0.  1.
<mgrwt>
<rscale>  0 0.12048958E+03</rscale>
<asrwt>0</asrwt>
<pdfrwt beam="1">  1        1 0.13032243E-01 0.12061884E+03</pdfrwt>
<pdfrwt beam="2">  1       -1 0.26740188E-01 0.12061884E+03</pdfrwt>
<totfact> 0.52785420E+03</totfact>
</mgrwt>
</event>
<event>
 8    1  0.2964543E-004  0.1145428E+03  0.7546771E-02  0.1259381E+00
          2   -1    0    0  501    0  0.00000000000E+00  0.00000000000E+00  0.32780513906E+03  0.32780513906E+03  0.00000000000E+00 0. -1.
         -2   -1    0    0    0  501 -0.00000000000E+00 -0.00000000000E+00 -0.16330558685E+03  0.16330558685E+03  0.00000000000E+00 0.  1.
         23    2    1    2    0    0  0.34068224647E+02 -0.28203516741E+02 -0.13650228780E+03  0.16905146006E+03  0.89383663417E+02 0.  0.
         23    2    1    2    0    0 -0.34068224647E+02  0.28203516741E+02  0.30100184001E+03  0.32205926586E+03  0.10565974043E+03 0.  0.
          5    1    4    4  502    0  0.13154931740E+02  0.57061468888E+02  0.16542588638E+03  0.17554736496E+03  0.47000000000E+01 0. -1.
         -5    1    4    4    0  502 -0.47223156387E+02 -0.28857952147E+02  0.13557595363E+03  0.14651190090E+03  0.47000000000E+01 0.  1.
          5    1    3    3  503    0 -0.28837203081E+02 -0.38400054506E+01 -0.24993085219E+02  0.38640318738E+02  0.47000000000E+01 0. -1.
         -5    1    3    3    0  503  0.62905427728E+02 -0.24363511290E+02 -0.11150920258E+03  0.13041114132E+03  0.47000000000E+01 0.  1.
<mgrwt>
<rscale>  0 0.11064439E+03</rscale>
<asrwt>0</asrwt>
<pdfrwt beam="1">  1        2 0.50431560E-01 0.11454284E+03</pdfrwt>
<pdfrwt beam="2">  1       -2 0.25123936E-01 0.11454284E+03</pdfrwt>
<totfact> 0.13709319E+03</totfact>
</mgrwt>
</event>
<event>
 8    1  0.2964543E-004  0.1082032E+03  0.7546771E-02  0.1265659E+00
         -2   -1    0    0    0  501 -0.00000000000E+00  0.00000000000E+00  0.32600512981E+03  0.32600512981E+03  0.00000000000E+00 0.  1.
          2   -1    0    0  501    0  0.00000000000E+00 -0.00000000000E+00 -0.75019982615E+02  0.75019982615E+02  0.00000000000E+00 0. -1.
         23    2    1    2    0    0  0.47464013536E+02  0.23613914738E+02  0.27339515376E+03  0.29402862535E+03  0.94326416631E+02 0.  0.
         23    2    1    2    0    0 -0.47464013536E+02 -0.23613914738E+02 -0.22410006565E+02  0.10699648708E+03  0.90197507184E+02 0.  0.
          5    1    3    3  502    0 -0.26343440353E+02  0.12448258281E+02  0.46048274258E+02  0.54694328281E+02  0.47000000000E+01 0. -1.
         -5    1    4    4    0  503  0.23554259621E+02  0.81728131882E+01  0.16330633701E+01  0.25423511120E+02  0.47000000000E+01 0.  1.
          5    1    4    4  503    0 -0.71018273157E+02 -0.31786727926E+02 -0.24043069936E+02  0.81572975957E+02  0.47000000000E+01 0. -1.
         -5    1    3    3    0  502  0.73807453890E+02  0.11165656457E+02  0.22734687950E+03  0.23933429707E+03  0.47000000000E+01 0.  1.
<mgrwt>
<rscale>  0 0.10729687E+03</rscale>
<asrwt>0</asrwt>
<pdfrwt beam="1">  1        2 0.11541536E-01 0.10820315E+03</pdfrwt>
<pdfrwt beam="2">  1       -2 0.50154634E-01 0.10820315E+03</pdfrwt>
<totfact> 0.19562717E+03</totfact>
</mgrwt>
</event>
<event>
 8    1  0.2964543E-004  0.1087120E+03  0.7546771E-02  0.1263114E+00
         -1   -1    0    0    0  501 -0.00000000000E+00  0.00000000000E+00  0.11896580630E+03  0.11896580630E+03  0.00000000000E+00 0.  1.
          1   -1    0    0  501    0  0.00000000000E+00 -0.00000000000E+00 -0.15085831343E+03  0.15085831343E+03  0.00000000000E+00 0. -1.
         23    2    1    2    0    0  0.53528506045E+02 -0.27256978557E+02 -0.94977943174E+02  0.14413378424E+03  0.90252391827E+02 0.  0.
         23    2    1    2    0    0 -0.53528506045E+02  0.27256978557E+02  0.63085436038E+02  0.12569033549E+03  0.90609295091E+02 0.  0.
          5    1    4    4  502    0  0.12670793882E+02  0.37947019061E+02  0.14758582101E+02  0.42900244974E+02  0.47000000000E+01 0. -1.
         -5    1    4    4    0  502 -0.66199299927E+02 -0.10690040504E+02  0.48326853938E+02  0.82790090520E+02  0.47000000000E+01 0.  1.
          5    1    3    3  503    0  0.41660632739E+02  0.79667040100E+00 -0.10390384834E+03  0.11204616327E+03  0.47000000000E+01 0. -1.
         -5    1    3    3    0  503  0.11867873306E+02 -0.28053648958E+02  0.89259051630E+01  0.32087620972E+02  0.47000000000E+01 0.  1.
<mgrwt>
<rscale>  0 0.10863755E+03</rscale>
<asrwt>0</asrwt>
<pdfrwt beam="1">  1        1 0.23208971E-01 0.10871195E+03</pdfrwt>
<pdfrwt beam="2">  1       -1 0.18302432E-01 0.10871195E+03</pdfrwt>
<totfact> 0.46307338E+03</totfact>
</mgrwt>
</event>
<event>
 8    1  0.2964543E-004  0.1417852E+03  0.7546771E-02  0.1211265E+00
          1   -1    0    0  501    0  0.00000000000E+00  0.00000000000E+00  0.23872832128E+03  0.23872832128E+03  0.00000000000E+00 0. -1.
         -1   -1    0    0    0  501 -0.00000000000E+00 -0.00000000000E+00 -0.84467831276E+02  0.84467831276E+02  0.00000000000E+00 0.  1.
         23    2    1    2    0    0  0.10577985858E+03  0.15979682991E+01  0.60879423881E+02  0.15342260302E+03  0.92952992852E+02 0.  0.
         23    2    1    2    0    0 -0.10577985858E+03 -0.15979682991E+01  0.93381066127E+02  0.16977354954E+03  0.94398636795E+02 0.  0.
          5    1    3    3  502    0  0.46164931500E+02 -0.30595087456E+02  0.64827722263E+02  0.85393113602E+02  0.47000000000E+01 0. -1.
         -5    1    3    3    0  502  0.59614927082E+02  0.32193055755E+02 -0.39482983825E+01  0.68029489415E+02  0.47000000000E+01 0.  1.
          5    1    4    4  503    0 -0.44924467157E+02 -0.47204410381E+02  0.38020310293E+02  0.75591653663E+02  0.47000000000E+01 0. -1.
         -5    1    4    4    0  503 -0.60855391425E+02  0.45606442081E+02  0.55360755834E+02  0.94181895879E+02  0.47000000000E+01 0.  1.
<mgrwt>
<rscale>  0 0.14154497E+03</rscale>
<asrwt>0</asrwt>
<pdfrwt beam="1">  1        1 0.36727434E-01 0.14178517E+03</pdfrwt>
<pdfrwt beam="2">  1       -1 0.12995051E-01 0.14178517E+03</pdfrwt>
<totfact> 0.45486802E+03</totfact>
</mgrwt>
</event>
<event>
 8    1  0.2964543E-004  0.1048541E+03  0.7546771E-02  0.1271443E+00
         -3   -1    0    0    0  501 -0.00000000000E+00  0.00000000000E+00  0.41109843551E+03  0.41109843551E+03  0.00000000000E+00 0.  1.
          3   -1    0    0  501    0  0.00000000000E+00 -0.00000000000E+00 -0.34240138714E+02  0.34240138714E+02  0.00000000000E+00 0. -1.
         23    2    1    2    0    0 -0.41833139481E+02 -0.35495749740E+02  0.29476952748E+03  0.31217349115E+03  0.86909461171E+02 0.  0.
         23    2    1    2    0    0  0.41833139481E+02  0.35495749740E+02  0.82088769318E+02  0.13316508307E+03  0.89355545392E+02 0.  0.
          5    1    3    3  502    0  0.21934940388E+01 -0.38280251377E+02  0.48820513419E+02  0.62255293687E+02  0.47000000000E+01 0. -1.
         -5    1    4    4    0  503 -0.17627107995E+02  0.40934596565E+02  0.31684252630E+02  0.54884770173E+02  0.47000000000E+01 0.  1.
          5    1    4    4  503    0  0.59460247476E+02 -0.54388468252E+01  0.50404516689E+02  0.78280312897E+02  0.47000000000E+01 0. -1.
         -5    1    3    3    0  502 -0.44026633520E+02  0.27845016369E+01  0.24594901406E+03  0.24991819747E+03  0.47000000000E+01 0.  1.
<mgrwt>
<rscale>  0 0.10433102E+03</rscale>
<asrwt>0</asrwt>
<pdfrwt beam="1">  1        3 0.52677140E-02 0.10485406E+03</pdfrwt>
<pdfrwt beam="2">  1       -3 0.63245909E-01 0.10485406E+03</pdfrwt>
<totfact> 0.11402321E+03</totfact>
</mgrwt>
</event>
<event>
 8    1  0.2964543E-004  0.1668184E+03  0.7546771E-02  0.1181831E+00
          2   -1    0    0  501    0  0.00000000000E+00  0.00000000000E+00  0.27465713765E+03  0.27465713765E+03  0.00000000000E+00 0. -1.
         -2   -1    0    0    0  501 -0.00000000000E+00 -0.00000000000E+00 -0.10050745109E+03  0.10050745109E+03  0.00000000000E+00 0.  1.
         23    2    1    2    0    0 -0.67422967587E+02  0.11973387618E+03  0.73315094777E+02  0.18221820211E+03  0.94584948039E+02 0.  0.
         23    2    1    2    0    0  0.67422967587E+02 -0.11973387618E+03  0.10083459178E+03  0.19294638663E+03  0.90435809017E+02 0.  0.
          5    1    3    3  502    0 -0.44757465843E+02  0.10611747435E+03  0.93664529885E+02  0.14852367915E+03  0.47000000000E+01 0. -1.
         -5    1    3    3    0  502 -0.22665501744E+02  0.13616401827E+02 -0.20349435108E+02  0.33694522956E+02  0.47000000000E+01 0.  1.
          5    1    4    4  503    0  0.35534506146E+02 -0.82753234501E+00  0.36656995163E+01  0.36040439644E+02  0.47000000000E+01 0. -1.
         -5    1    4    4    0  503  0.31888461442E+02 -0.11890634383E+03  0.97168892266E+02  0.15690594699E+03  0.47000000000E+01 0.  1.
<mgrwt>
<rscale>  0 0.16623608E+03</rscale>
<asrwt>0</asrwt>
<pdfrwt beam="1">  1        2 0.42254944E-01 0.16681837E+03</pdfrwt>
<pdfrwt beam="2">  1       -2 0.15462685E-01 0.16681837E+03</pdfrwt>
<totfact> 0.38128684E+03</totfact>
</mgrwt>
</event>
<event>
 8    1  0.2964543E-004  0.1016715E+03  0.7546771E-02  0.1282283E+00
          2   -1    0    0  501    0  0.00000000000E+00  0.00000000000E+00  0.54715927366E+03  0.54715927366E+03  0.00000000000E+00 0.  1.
         -2   -1    0    0    0  501 -0.00000000000E+00 -0.00000000000E+00 -0.24763677503E+02  0.24763677503E+02  0.00000000000E+00 0. -1.
         23    2    1    2    0    0  0.16150520357E+02 -0.20132568352E+02  0.42978260522E+03  0.44164486894E+03  0.98340952273E+02 0.  0.
         23    2    1    2    0    0 -0.16150520357E+02  0.20132568352E+02  0.92612990945E+02  0.13027808223E+03  0.87915032855E+02 0.  0.
          5    1    4    4  502    0  0.30012155795E+02 -0.59920585629E+01  0.60848766320E+02  0.68273689105E+02  0.47000000000E+01 0. -1.
         -5    1    4    4    0  502 -0.46162676152E+02  0.26124626915E+02  0.31764224625E+02  0.62004393127E+02  0.47000000000E+01 0.  1.
          5    1    3    3  503    0  0.11375342753E+02  0.34595996479E+02  0.86633695663E+02  0.94094466465E+02  0.47000000000E+01 0. -1.
         -5    1    3    3    0  503  0.47751776043E+01 -0.54728564831E+02  0.34314890955E+03  0.34755040247E+03  0.47000000000E+01 0.  1.
<mgrwt>
<rscale>  0 0.99061186E+02</rscale>
<asrwt>0</asrwt>
<pdfrwt beam="1">  1        2 0.84178341E-01 0.10167154E+03</pdfrwt>
<pdfrwt beam="2">  1       -2 0.38097970E-02 0.10167154E+03</pdfrwt>
<totfact> 0.15346866E+04</totfact>
</mgrwt>
</event>
<event>
 8    1  0.2964543E-004  0.1016383E+03  0.7546771E-02  0.1277545E+00
          3   -1    0    0  501    0  0.00000000000E+00  0.00000000000E+00  0.44660608607E+02  0.44660608607E+02  0.00000000000E+00 0. -1.
         -3   -1    0    0    0  501 -0.00000000000E+00 -0.00000000000E+00 -0.26261381261E+03  0.26261381261E+03  0.00000000000E+00 0.  1.
         23    2    1    2    0    0 -0.17063860998E+02  0.33425071468E+02 -0.52951145781E+02  0.11348064271E+03  0.93089320959E+02 0.  0.
         23    2    1    2    0    0  0.17063860998E+02 -0.33425071468E+02 -0.16500205823E+03  0.19379377851E+03  0.94456014179E+02 0.  0.
          5    1    3    3  502    0 -0.30396306470E+02  0.56899760869E+02 -0.14536993879E+02  0.66294286519E+02  0.47000000000E+01 0. -1.
         -5    1    4    4    0  503 -0.27365628908E+02 -0.47283969528E+02 -0.91265747863E+02  0.10647148986E+03  0.47000000000E+01 0.  1.
          5    1    4    4  503    0  0.44429489907E+02  0.13858898060E+02 -0.73736310363E+02  0.87322288648E+02  0.47000000000E+01 0. -1.
         -5    1    3    3    0  502  0.13332445472E+02 -0.23474689401E+02 -0.38414151902E+02  0.47186356196E+02  0.47000000000E+01 0.  1.
<mgrwt>
<rscale>  0 0.10131962E+03</rscale>
<asrwt>0</asrwt>
<pdfrwt beam="1">  1        3 0.68708632E-02 0.10163833E+03</pdfrwt>
<pdfrwt beam="2">  1       -3 0.40402123E-01 0.10163833E+03</pdfrwt>
<totfact> 0.18124648E+03</totfact>
</mgrwt>
</event>
<event>
 8    1  0.2964543E-004  0.1159966E+03  0.7546771E-02  0.1251418E+00
         -1   -1    0    0    0  501 -0.00000000000E+00  0.00000000000E+00  0.48479874384E+02  0.48479874384E+02  0.00000000000E+00 0.  1.
          1   -1    0    0  501    0  0.00000000000E+00 -0.00000000000E+00 -0.34914643297E+03  0.34914643297E+03  0.00000000000E+00 0. -1.
         23    2    1    2    0    0  0.70566067678E+02 -0.35740851969E+01 -0.56937179624E+02  0.12921706435E+03  0.91993822095E+02 0.  0.
         23    2    1    2    0    0 -0.70566067678E+02  0.35740851969E+01 -0.24372937896E+03  0.26840924300E+03  0.87448084984E+02 0.  0.
          5    1    3    3  502    0  0.91546632325E+02  0.71891543244E+01 -0.45554622984E+02  0.10261473337E+03  0.47000000000E+01 0. -1.
         -5    1    3    3    0  502 -0.20980564647E+02 -0.10763239521E+02 -0.11382556640E+02  0.26602330980E+02  0.47000000000E+01 0.  1.
          5    1    4    4  503    0  0.12148762271E+02  0.21713248166E+02 -0.35809284080E+02  0.43857181817E+02  0.47000000000E+01 0. -1.
         -5    1    4    4    0  503 -0.82714829949E+02 -0.18139162969E+02 -0.20792009488E+03  0.22455206118E+03  0.47000000000E+01 0.  1.
<mgrwt>
<rscale>  0 0.11509334E+03</rscale>
<asrwt>0</asrwt>
<pdfrwt beam="1">  1        1 0.53714837E-01 0.11599658E+03</pdfrwt>
<pdfrwt beam="2">  1       -1 0.74584420E-02 0.11599658E+03</pdfrwt>
<totfact> 0.65429076E+03</totfact>
</mgrwt>
</event>
<event>
 8    1  0.2964543E-004  0.9709654E+02  0.7546771E-02  0.1288670E+00
         -2   -1    0    0    0  501 -0.00000000000E+00  0.00000000000E+00  0.15599742252E+02  0.15599742252E+02  0.00000000000E+00 0.  1.
          2   -1    0    0  501    0  0.00000000000E+00 -0.00000000000E+00 -0.70328015177E+03  0.70328015177E+03  0.00000000000E+00 0. -1.
         23    2    1    2    0    0 -0.11411842803E+02  0.39896188927E+01 -0.49961929319E+03  0.50896677385E+03  0.96341016904E+02 0.  0.
         23    2    1    2    0    0  0.11411842803E+02 -0.39896188927E+01 -0.18806111633E+03  0.20991312018E+03  0.92468304473E+02 0.  0.
          5    1    3    3  502    0 -0.19630176735E+02 -0.42980325266E+02 -0.20133992908E+03  0.20686350388E+03  0.47000000000E+01 0. -1.
         -5    1    4    4    0  503  0.19071198012E+02  0.20365018335E+02 -0.10059952318E+02  0.30028939476E+02  0.47000000000E+01 0.  1.
          5    1    4    4  503    0 -0.76593552091E+01 -0.24354637228E+02 -0.17800116401E+03  0.17988418070E+03  0.47000000000E+01 0. -1.
         -5    1    3    3    0  502  0.82183339311E+01  0.46969944158E+02 -0.29827936412E+03  0.30210326997E+03  0.47000000000E+01 0.  1.
<mgrwt>
<rscale>  0 0.96121625E+02</rscale>
<asrwt>0</asrwt>
<pdfrwt beam="1">  1        2 0.10819691E+00 0.97096543E+02</pdfrwt>
<pdfrwt beam="2">  1       -2 0.23999612E-02 0.97096543E+02</pdfrwt>
<totfact> 0.22557026E+04</totfact>
</mgrwt>
</event>
<event>
 8    1  0.2964543E-004  0.2557525E+03  0.7546771E-02  0.1109976E+00
         -1   -1    0    0    0  501 -0.00000000000E+00  0.00000000000E+00  0.12287455973E+03  0.12287455973E+03  0.00000000000E+00 0.  1.
          1   -1    0    0  501    0  0.00000000000E+00 -0.00000000000E+00 -0.56322908658E+03  0.56322908658E+03  0.00000000000E+00 0. -1.
         23    2    1    2    0    0 -0.18626683460E+03 -0.14626984174E+03 -0.30553326000E+03  0.39844688111E+03  0.96535712683E+02 0.  0.
         23    2    1    2    0    0  0.18626683460E+03  0.14626984174E+03 -0.13482126685E+03  0.28765676521E+03  0.92083876445E+02 0.  0.
          5    1    3    3  502    0 -0.11268103618E+03 -0.13735438001E+03 -0.18253640360E+03  0.25476434260E+03  0.47000000000E+01 0. -1.
         -5    1    4    4    0  503  0.13820956610E+03  0.54535461532E+02 -0.62514164634E+02  0.16126410483E+03  0.47000000000E+01 0.  1.
          5    1    4    4  503    0  0.48057268502E+02  0.91734380204E+02 -0.72307102216E+02  0.12639266038E+03  0.47000000000E+01 0. -1.
         -5    1    3    3    0  502 -0.73585798419E+02 -0.89154617293E+01 -0.12299685640E+03  0.14368253850E+03  0.47000000000E+01 0.  1.
<mgrwt>
<rscale>  0 0.25533977E+03</rscale>
<asrwt>0</asrwt>
<pdfrwt beam="1">  1        1 0.86650627E-01 0.25575251E+03</pdfrwt>
<pdfrwt beam="2">  1       -1 0.18903779E-01 0.25575251E+03</pdfrwt>
<totfact> 0.85163321E+02</totfact>
</mgrwt>
</event>
<event>
 8    1  0.2964543E-004  0.9733053E+02  0.7546771E-02  0.1288451E+00
         -1   -1    0    0    0  501 -0.00000000000E+00  0.00000000000E+00  0.41461961332E+02  0.41461961332E+02  0.00000000000E+00 0.  1.
          1   -1    0    0  501    0  0.00000000000E+00 -0.00000000000E+00 -0.38565143222E+03  0.38565143222E+03  0.00000000000E+00 0. -1.
         23    2    1    2    0    0 -0.27506161315E+02  0.19607745883E+02 -0.31049772304E+03  0.32411647101E+03  0.86611766840E+02 0.  0.
         23    2    1    2    0    0  0.27506161315E+02 -0.19607745883E+02 -0.33691747847E+02  0.10299692255E+03  0.91280773287E+02 0.  0.
          5    1    3    3  502    0 -0.24955647313E+02  0.48845946979E+02 -0.25781484378E+03  0.26362718854E+03  0.47000000000E+01 0. -1.
         -5    1    3    3    0  502 -0.25505140015E+01 -0.29238201096E+02 -0.52682879267E+02  0.60489282463E+02  0.47000000000E+01 0.  1.
          5    1    4    4  503    0 -0.90680255877E+01  0.30707423144E+02 -0.23010211216E+02  0.39708119376E+02  0.47000000000E+01 0. -1.
         -5    1    4    4    0  503  0.36574186902E+02 -0.50315169027E+02 -0.10681536631E+02  0.63288803169E+02  0.47000000000E+01 0.  1.
<mgrwt>
<rscale>  0 0.96220518E+02</rscale>
<asrwt>0</asrwt>
<pdfrwt beam="1">  1        1 0.59330991E-01 0.97330531E+02</pdfrwt>
<pdfrwt beam="2">  1       -1 0.63787631E-02 0.97330531E+02</pdfrwt>
<totfact> 0.72098782E+03</totfact>
</mgrwt>
</event>
<event>
 8    1  0.2964543E-004  0.1123466E+03  0.7546771E-02  0.1259597E+00
         -2   -1    0    0    0  501 -0.00000000000E+00  0.00000000000E+00  0.12237897778E+03  0.12237897778E+03  0.00000000000E+00 0.  1.
          2   -1    0    0  501    0  0.00000000000E+00 -0.00000000000E+00 -0.23113697966E+03  0.23113697966E+03  0.00000000000E+00 0. -1.
         23    2    1    2    0    0  0.25995535373E+02  0.45494682234E+02  0.79643124089E+02  0.13771269782E+03  0.99379202825E+02 0.  0.
         23    2    1    2    0    0 -0.25995535373E+02 -0.45494682234E+02 -0.18840112597E+03  0.21580325963E+03  0.91271729627E+02 0.  0.
          5    1    4    4  502    0 -0.20926382400E+01 -0.22247760279E+02 -0.17953693734E+03  0.18098326951E+03  0.47000000000E+01 0. -1.
         -5    1    3    3    0  503  0.45233787327E+02 -0.13757981895E+02  0.20717957315E+02  0.51833399822E+02  0.47000000000E+01 0.  1.
          5    1    3    3  503    0 -0.19238251954E+02  0.59252664129E+02  0.58925166774E+02  0.85879297994E+02  0.47000000000E+01 0. -1.
         -5    1    4    4    0  502 -0.23902897133E+02 -0.23246921955E+02 -0.88641886234E+01  0.34819990116E+02  0.47000000000E+01 0.  1.
<mgrwt>
<rscale>  0 0.11052694E+03</rscale>
<asrwt>0</asrwt>
<pdfrwt beam="1">  1        2 0.35559536E-01 0.11234661E+03</pdfrwt>
<pdfrwt beam="2">  1       -2 0.18827535E-01 0.11234661E+03</pdfrwt>
<totfact> 0.32400343E+03</totfact>
</mgrwt>
</event>
<event>
 8    1  0.2964543E-004  0.1010598E+03  0.7546771E-02  0.1278916E+00
         -2   -1    0    0    0  501 -0.00000000000E+00  0.00000000000E+00  0.18383871606E+03  0.18383871606E+03  0.00000000000E+00 0.  1.
          2   -1    0    0  501    0  0.00000000000E+00 -0.00000000000E+00 -0.22355422344E+03  0.22355422344E+03  0.00000000000E+00 0. -1.
         23    2    1    2    0    0  0.22067494330E+01 -0.38355837601E+02 -0.19685780339E+03  0.22055936671E+03  0.91746386660E+02 0.  0.
         23    2    1    2    0    0 -0.22067494330E+01  0.38355837601E+02  0.15714229601E+03  0.18683357279E+03  0.93472149359E+02 0.  0.
          5    1    4    4  502    0 -0.44533227338E+02  0.12566192596E+02  0.10446884208E+03  0.11435447739E+03  0.47000000000E+01 0. -1.
         -5    1    4    4    0  502  0.42326477905E+02  0.25789645005E+02  0.52673453924E+02  0.72479095397E+02  0.47000000000E+01 0.  1.
          5    1    3    3  503    0 -0.35674821521E+02 -0.33402656837E+02 -0.55710023866E+02  0.74257168903E+02  0.47000000000E+01 0. -1.
         -5    1    3    3    0  503  0.37881570954E+02 -0.49531807640E+01 -0.14114777952E+03  0.14630219780E+03  0.47000000000E+01 0.  1.
<mgrwt>
<rscale>  0 0.10065891E+03</rscale>
<asrwt>0</asrwt>
<pdfrwt beam="1">  1        2 0.34392958E-01 0.10105980E+03</pdfrwt>
<pdfrwt beam="2">  1       -2 0.28282879E-01 0.10105980E+03</pdfrwt>
<totfact> 0.16603315E+03</totfact>
</mgrwt>
</event>
<event>
 8    1  0.2964543E-004  0.1739790E+03  0.7546771E-02  0.1174449E+00
          1   -1    0    0  501    0  0.00000000000E+00  0.00000000000E+00  0.10559430945E+03  0.10559430945E+03  0.00000000000E+00 0. -1.
         -1   -1    0    0    0  501 -0.00000000000E+00 -0.00000000000E+00 -0.28813592968E+03  0.28813592968E+03  0.00000000000E+00 0.  1.
         23    2    1    2    0    0  0.34486339103E+02  0.13214510802E+03 -0.63769180866E+02  0.18529756600E+03  0.10778238435E+03 0.  0.
         23    2    1    2    0    0 -0.34486339103E+02 -0.13214510802E+03 -0.11877243936E+03  0.20843267313E+03  0.10337141634E+03 0.  0.
          5    1    4    4  502    0  0.28485950172E+02 -0.50343592875E+01 -0.18599474677E+02  0.34710583240E+02  0.47000000000E+01 0. -1.
         -5    1    3    3    0  503 -0.21575125869E+02  0.12018154190E+02 -0.44702044733E+02  0.51286303139E+02  0.47000000000E+01 0.  1.
          5    1    3    3  503    0  0.56061464972E+02  0.12012695384E+03 -0.19067136133E+02  0.13401126286E+03  0.47000000000E+01 0. -1.
         -5    1    4    4    0  502 -0.62972289274E+02 -0.12711074874E+03 -0.10017296469E+03  0.17372208989E+03  0.47000000000E+01 0.  1.
<mgrwt>
<rscale>  0 0.17330059E+03</rscale>
<asrwt>0</asrwt>
<pdfrwt beam="1">  1        1 0.16245279E-01 0.17397896E+03</pdfrwt>
<pdfrwt beam="2">  1       -1 0.44328604E-01 0.17397896E+03</pdfrwt>
<totfact> 0.16946918E+03</totfact>
</mgrwt>
</event>
<event>
 8    1  0.2964543E-004  0.9709232E+02  0.7546771E-02  0.1293385E+00
         -1   -1    0    0    0  501 -0.00000000000E+00  0.00000000000E+00  0.83335801427E+02  0.83335801427E+02  0.00000000000E+00 0.  1.
          1   -1    0    0  501    0  0.00000000000E+00 -0.00000000000E+00 -0.10186670138E+03  0.10186670138E+03  0.00000000000E+00 0. -1.
         23    2    1    2    0    0 -0.11933070551E+02 -0.25054318687E+02  0.41509953764E+01  0.85496000641E+02  0.80760252014E+02 0.  0.
         23    2    1    2    0    0  0.11933070551E+02  0.25054318687E+02 -0.22681895331E+02  0.99706502167E+02  0.93041932165E+02 0.  0.
          5    1    3    3  502    0 -0.41854174065E+02 -0.31359694812E+02  0.11371712465E+02  0.53727164356E+02  0.47000000000E+01 0. -1.
         -5    1    4    4    0  503  0.33653606208E+02 -0.25059438792E+02 -0.82704303672E+01  0.43023606332E+02  0.47000000000E+01 0.  1.
          5    1    4    4  503    0 -0.21720535657E+02  0.50113757479E+02 -0.14411464964E+02  0.56682895835E+02  0.47000000000E+01 0. -1.
         -5    1    3    3    0  502  0.29921103515E+02  0.63053761253E+01 -0.72207170881E+01  0.31768836285E+02  0.47000000000E+01 0.  1.
<mgrwt>
<rscale>  0 0.94025788E+02</rscale>
<asrwt>0</asrwt>
<pdfrwt beam="1">  1        1 0.15671800E-01 0.97092318E+02</pdfrwt>
<pdfrwt beam="2">  1       -1 0.12820893E-01 0.97092318E+02</pdfrwt>
<totfact> 0.13126270E+04</totfact>
</mgrwt>
</event>
<event>
 8    1  0.2964543E-004  0.1034119E+03  0.7546771E-02  0.1274257E+00
         -2   -1    0    0    0  501 -0.00000000000E+00  0.00000000000E+00  0.18850240231E+03  0.18850240231E+03  0.00000000000E+00 0.  1.
          2   -1    0    0  501    0  0.00000000000E+00 -0.00000000000E+00 -0.59049253021E+02  0.59049253021E+02  0.00000000000E+00 0. -1.
         23    2    1    2    0    0  0.30369581905E+02 -0.33977665298E+02  0.35741776305E+02  0.10941430237E+03  0.92828991949E+02 0.  0.
         23    2    1    2    0    0 -0.30369581905E+02  0.33977665298E+02  0.93711372981E+02  0.13813735295E+03  0.90682487897E+02 0.  0.
          5    1    3    3  502    0 -0.23061211841E+02 -0.37730233050E+02 -0.67555287269E+00  0.44473996326E+02  0.47000000000E+01 0. -1.
         -5    1    3    3    0  502  0.53430793746E+02  0.37525677522E+01  0.36417329178E+02  0.64940306047E+02  0.47000000000E+01 0.  1.
          5    1    4    4  503    0 -0.17218279906E+02  0.63931057655E+02  0.75020494006E+02  0.10016892640E+03  0.47000000000E+01 0. -1.
         -5    1    4    4    0  503 -0.13151301999E+02 -0.29953392357E+02  0.18690878974E+02  0.37968426551E+02  0.47000000000E+01 0.  1.
<mgrwt>
<rscale>  0 0.10292788E+03</rscale>
<asrwt>0</asrwt>
<pdfrwt beam="1">  1        2 0.90845005E-02 0.10341187E+03</pdfrwt>
<pdfrwt beam="2">  1       -2 0.29000369E-01 0.10341187E+03</pdfrwt>
<totfact> 0.72573403E+03</totfact>
</mgrwt>
</event>
<event>
 8    1  0.2964543E-004  0.9761032E+02  0.7546771E-02  0.1285601E+00
         -1   -1    0    0    0  501 -0.00000000000E+00  0.00000000000E+00  0.58696752144E+02  0.58696752144E+02  0.00000000000E+00 0.  1.
          1   -1    0    0  501    0  0.00000000000E+00 -0.00000000000E+00 -0.16265167861E+03  0.16265167861E+03  0.00000000000E+00 0. -1.
         23    2    1    2    0    0 -0.17943418302E+02  0.30844357178E+02 -0.43684044675E+02  0.10693956695E+03  0.90853918954E+02 0.  0.
         23    2    1    2    0    0  0.17943418302E+02 -0.30844357178E+02 -0.60270881792E+02  0.11440886381E+03  0.90462524262E+02 0.  0.
          5    1    4    4  502    0  0.22694692155E+02 -0.55932506281E+02 -0.64091341777E+02  0.88166231640E+02  0.47000000000E+01 0. -1.
         -5    1    3    3    0  503 -0.45618952170E+02  0.27747410308E+02  0.15376797032E+01  0.53623334797E+02  0.47000000000E+01 0.  1.
          5    1    3    3  503    0  0.27675533868E+02  0.30969468697E+01 -0.45221724378E+02  0.53316232149E+02  0.47000000000E+01 0. -1.
         -5    1    4    4    0  502 -0.47512738528E+01  0.25088149103E+02  0.38204599846E+01  0.26242632168E+02  0.47000000000E+01 0.  1.
<mgrwt>
<rscale>  0 0.97519146E+02</rscale>
<asrwt>0</asrwt>
<pdfrwt beam="1">  1        1 0.25023335E-01 0.97610323E+02</pdfrwt>
<pdfrwt beam="2">  1       -1 0.90302697E-02 0.97610323E+02</pdfrwt>
<totfact> 0.12407963E+04</totfact>
</mgrwt>
</event>
<event>
 8    1  0.2964543E-004  0.1263047E+03  0.7546771E-02  0.1233703E+00
          1   -1    0    0  501    0  0.00000000000E+00  0.00000000000E+00  0.57325643933E+02  0.57325643933E+02  0.00000000000E+00 0. -1.
         -1   -1    0    0    0  501 -0.00000000000E+00 -0.00000000000E+00 -0.27742862556E+03  0.27742862556E+03  0.00000000000E+00 0.  1.
         23    2    1    2    0    0 -0.20057090786E+01 -0.86597332577E+02 -0.93759555455E+02  0.15730144323E+03  0.91922624668E+02 0.  0.
         23    2    1    2    0    0  0.20057090786E+01  0.86597332577E+02 -0.12634342618E+03  0.17745282626E+03  0.89575238391E+02 0.  0.
          5    1    3    3  502    0  0.42958989619E+02 -0.55012037695E+02 -0.41589755156E+02  0.81385482824E+02  0.47000000000E+01 0. -1.
         -5    1    3    3    0  502 -0.44964698698E+02 -0.31585294882E+02 -0.52169800299E+02  0.75915960410E+02  0.47000000000E+01 0.  1.
          5    1    4    4  503    0  0.35116738822E+02  0.46901381860E+01 -0.30117112695E+02  0.46736636793E+02  0.47000000000E+01 0. -1.
         -5    1    4    4    0  503 -0.33111029743E+02  0.81907194391E+02 -0.96226313481E+02  0.13071618947E+03  0.47000000000E+01 0.  1.
<mgrwt>
<rscale>  0 0.12587809E+03</rscale>
<asrwt>0</asrwt>
<pdfrwt beam="1">  1        1 0.88193301E-02 0.12630475E+03</pdfrwt>
<pdfrwt beam="2">  1       -1 0.42681326E-01 0.12630475E+03</pdfrwt>
<totfact> 0.39887553E+03</totfact>
</mgrwt>
</event>
<event>
 8    1  0.2964543E-004  0.1153179E+03  0.7546771E-02  0.1251030E+00
          2   -1    0    0  501    0  0.00000000000E+00  0.00000000000E+00  0.53448192069E+03  0.53448192069E+03  0.00000000000E+00 0. -1.
         -2   -1    0    0    0  501 -0.00000000000E+00 -0.00000000000E+00 -0.25173003813E+02  0.25173003813E+02  0.00000000000E+00 0.  1.
         23    2    1    2    0    0  0.13524456137E+02 -0.69593747321E+02  0.28488409628E+03  0.30733885669E+03  0.90950667602E+02 0.  0.
         23    2    1    2    0    0 -0.13524456137E+02  0.69593747321E+02  0.22442482060E+03  0.25231606782E+03  0.90943374675E+02 0.  0.
          5    1    3    3  502    0 -0.25582522838E+02  0.81204012154E+01  0.85848444533E+02  0.90069150209E+02  0.47000000000E+01 0. -1.
         -5    1    4    4    0  503  0.27193149815E+02  0.24652172691E+02  0.27201411507E+02  0.45926068885E+02  0.47000000000E+01 0.  1.
          5    1    4    4  503    0 -0.40717605952E+02  0.44941574630E+02  0.19722340909E+03  0.20638999893E+03  0.47000000000E+01 0. -1.
         -5    1    3    3    0  502  0.39106978975E+02 -0.77714148536E+02  0.19903565175E+03  0.21726970648E+03  0.47000000000E+01 0.  1.
<mgrwt>
<rscale>  0 0.11531649E+03</rscale>
<asrwt>0</asrwt>
<pdfrwt beam="1">  1        2 0.82227979E-01 0.11531793E+03</pdfrwt>
<pdfrwt beam="2">  1       -2 0.38727702E-02 0.11531793E+03</pdfrwt>
<totfact> 0.15538900E+04</totfact>
</mgrwt>
</event>
<event>
 8    1  0.2964543E-004  0.9329357E+02  0.7546771E-02  0.1295848E+00
         -1   -1    0    0    0  501 -0.00000000000E+00  0.00000000000E+00  0.30704848722E+02  0.30704848722E+02  0.00000000000E+00 0.  1.
          1   -1    0    0  501    0  0.00000000000E+00 -0.00000000000E+00 -0.54527094552E+03  0.54527094552E+03  0.00000000000E+00 0. -1.
         23    2    1    2    0    0  0.90660494482E+01 -0.13889030848E+02 -0.57143985044E+02  0.10940349536E+03  0.91807359942E+02 0.  0.
         23    2    1    2    0    0 -0.90660494482E+01  0.13889030848E+02 -0.45742211175E+03  0.46657229888E+03  0.90441270078E+02 0.  0.
          5    1    4    4  502    0 -0.44358916594E+02 -0.40948176035E+01 -0.33071374096E+03  0.33373365049E+03  0.47000000000E+01 0. -1.
         -5    1    4    4    0  502  0.35292867146E+02  0.17983848451E+02 -0.12670837079E+03  0.13283864839E+03  0.47000000000E+01 0.  1.
          5    1    3    3  503    0 -0.17996047068E+02 -0.45495697536E+02 -0.42700118298E+02  0.65108419632E+02  0.47000000000E+01 0. -1.
         -5    1    3    3    0  503  0.27062096516E+02  0.31606666688E+02 -0.14443866746E+02  0.44295075726E+02  0.47000000000E+01 0.  1.
<mgrwt>
<rscale>  0 0.92955735E+02</rscale>
<asrwt>0</asrwt>
<pdfrwt beam="1">  1        1 0.83887831E-01 0.93293568E+02</pdfrwt>
<pdfrwt beam="2">  1       -1 0.47238233E-02 0.93293568E+02</pdfrwt>
<totfact> 0.72006826E+03</totfact>
</mgrwt>
</event>
<event>
 8    1  0.2964543E-004  0.9488517E+02  0.7546771E-02  0.1291971E+00
         -1   -1    0    0    0  501 -0.00000000000E+00  0.00000000000E+00  0.37983915981E+02  0.37983915981E+02  0.00000000000E+00 0.  1.
          1   -1    0    0  501    0  0.00000000000E+00 -0.00000000000E+00 -0.35651694856E+03  0.35651694856E+03  0.00000000000E+00 0. -1.
         23    2    1    2    0    0 -0.91867818097E+01  0.14789692351E+02 -0.27405501948E+03  0.28970826221E+03  0.92312466814E+02 0.  0.
         23    2    1    2    0    0  0.91867818097E+01 -0.14789692351E+02 -0.44478013096E+02  0.10479260233E+03  0.93274133041E+02 0.  0.
          5    1    4    4  502    0 -0.71690466635E+01 -0.44447547693E+02  0.40284871265E+01  0.45445554618E+02  0.47000000000E+01 0. -1.
         -5    1    4    4    0  502  0.16355828473E+02  0.29657855342E+02 -0.48506500222E+02  0.59347047714E+02  0.47000000000E+01 0.  1.
          5    1    3    3  503    0 -0.42854162904E+02  0.33414350759E+02 -0.17645664135E+03  0.18469443519E+03  0.47000000000E+01 0. -1.
         -5    1    3    3    0  503  0.33667381094E+02 -0.18624658408E+02 -0.97598378131E+02  0.10501382702E+03  0.47000000000E+01 0.  1.
<mgrwt>
<rscale>  0 0.94647991E+02</rscale>
<asrwt>0</asrwt>
<pdfrwt beam="1">  1        1 0.54848763E-01 0.94885172E+02</pdfrwt>
<pdfrwt beam="2">  1       -1 0.58436792E-02 0.94885172E+02</pdfrwt>
<totfact> 0.90257988E+03</totfact>
</mgrwt>
</event>
<event>
 8    1  0.2964543E-004  0.1009613E+03  0.7546771E-02  0.1280685E+00
          2   -1    0    0  501    0  0.00000000000E+00  0.00000000000E+00  0.39779506740E+03  0.39779506740E+03  0.00000000000E+00 0. -1.
         -2   -1    0    0    0  501 -0.00000000000E+00 -0.00000000000E+00 -0.28950846763E+02  0.28950846763E+02  0.00000000000E+00 0.  1.
         23    2    1    2    0    0 -0.21358445538E+02  0.27484781192E+02  0.27169178811E+03  0.28984410494E+03  0.94771203716E+02 0.  0.
         23    2    1    2    0    0  0.21358445538E+02 -0.27484781192E+02  0.97152432531E+02  0.13690180922E+03  0.89955065602E+02 0.  0.
          5    1    3    3  502    0  0.35904676318E+02 -0.39572593208E+00  0.11738466782E+03  0.12284361042E+03  0.47000000000E+01 0. -1.
         -5    1    3    3    0  502 -0.57263121856E+02  0.27880507124E+02  0.15430712028E+03  0.16700049453E+03  0.47000000000E+01 0.  1.
          5    1    4    4  503    0 -0.13591788126E+01  0.29387784629E+02  0.12487684118E+02  0.32303583502E+02  0.47000000000E+01 0. -1.
         -5    1    4    4    0  503  0.22717624351E+02 -0.56872565821E+02  0.84664748413E+02  0.10459822572E+03  0.47000000000E+01 0.  1.
<mgrwt>
<rscale>  0 0.99815262E+02</rscale>
<asrwt>0</asrwt>
<pdfrwt beam="1">  1        2 0.61199237E-01 0.10096127E+03</pdfrwt>
<pdfrwt beam="2">  1       -2 0.44539767E-02 0.10096127E+03</pdfrwt>
<totfact> 0.17162711E+04</totfact>
</mgrwt>
</event>
<event>
 8    1  0.2964543E-004  0.1058853E+03  0.7546771E-02  0.1268536E+00
         -1   -1    0    0    0  501 -0.00000000000E+00  0.00000000000E+00  0.93858425369E+02  0.93858425369E+02  0.00000000000E+00 0.  1.
          1   -1    0    0  501    0  0.00000000000E+00 -0.00000000000E+00 -0.32821800279E+03  0.32821800279E+03  0.00000000000E+00 0. -1.
         23    2    1    2    0    0 -0.50005988085E+02 -0.12280137893E+02 -0.28556767547E+03  0.30445855292E+03  0.92166764836E+02 0.  0.
         23    2    1    2    0    0  0.50005988085E+02  0.12280137893E+02  0.51208098048E+02  0.11761787524E+03  0.92521860336E+02 0.  0.
          5    1    4    4  502    0 -0.26012254038E+02  0.13836020438E+01  0.25691984329E+01  0.26594031198E+02  0.47000000000E+01 0. -1.
         -5    1    4    4    0  502  0.76018242123E+02  0.10896535849E+02  0.48638899615E+02  0.91023844045E+02  0.47000000000E+01 0.  1.
          5    1    3    3  503    0 -0.40692905309E+02 -0.40403262800E+02 -0.25583080118E+03  0.26222094695E+03  0.47000000000E+01 0. -1.
         -5    1    3    3    0  503 -0.93130827760E+01  0.28123124907E+02 -0.29736874293E+02  0.42237605970E+02  0.47000000000E+01 0.  1.
<mgrwt>
<rscale>  0 0.10580767E+03</rscale>
<asrwt>0</asrwt>
<pdfrwt beam="1">  1        1 0.50495078E-01 0.10588529E+03</pdfrwt>
<pdfrwt beam="2">  1       -1 0.14439758E-01 0.10588529E+03</pdfrwt>
<totfact> 0.25700441E+03</totfact>
</mgrwt>
</event>
<event>
 8    1  0.2964543E-004  0.9518505E+02  0.7546771E-02  0.1290773E+00
         -2   -1    0    0    0  501 -0.00000000000E+00  0.00000000000E+00  0.41413465337E+03  0.41413465337E+03  0.00000000000E+00 0.  1.
          2   -1    0    0  501    0  0.00000000000E+00 -0.00000000000E+00 -0.22252715407E+02  0.22252715407E+02  0.00000000000E+00 0. -1.
         23    2    1    2    0    0 -0.15179246488E+02 -0.19506595267E+02  0.22445430978E+03  0.24379400475E+03  0.91895934561E+02 0.  0.
         23    2    1    2    0    0  0.15179246488E+02  0.19506595267E+02  0.16742762818E+03  0.19259336403E+03  0.91919945641E+02 0.  0.
          5    1    4    4  502    0  0.47364019638E+02 -0.28105162203E+01  0.51708097345E+02  0.70335387173E+02  0.47000000000E+01 0.  1.
         -5    1    3    3    0  503  0.26332258539E+02 -0.28358654638E+02  0.17094204457E+03  0.17533075524E+03  0.47000000000E+01 0.  1.
          5    1    3    3  503    0 -0.41511505027E+02  0.88520593709E+01  0.53512265215E+02  0.68463249508E+02  0.47000000000E+01 0. -1.
         -5    1    4    4    0  502 -0.32184773150E+02  0.22317111488E+02  0.11571953084E+03  0.12225797686E+03  0.47000000000E+01 0.  1.
<mgrwt>
<rscale>  0 0.95179250E+02</rscale>
<asrwt>0</asrwt>
<pdfrwt beam="1">  1        2 0.34234950E-02 0.95185047E+02</pdfrwt>
<pdfrwt beam="2">  1       -2 0.63713018E-01 0.95185047E+02</pdfrwt>
<totfact> 0.55801217E+03</totfact>
</mgrwt>
</event>
<event>
 8    1  0.2964543E-004  0.1072162E+03  0.7546771E-02  0.1266020E+00
          1   -1    0    0  501    0  0.00000000000E+00  0.00000000000E+00  0.13680103914E+03  0.13680103914E+03  0.00000000000E+00 0. -1.
         -1   -1    0    0    0  501 -0.00000000000E+00 -0.00000000000E+00 -0.91964809528E+02  0.91964809528E+02  0.00000000000E+00 0.  1.
         23    2    1    2    0    0  0.42312036216E+02 -0.36634473041E+02 -0.11928110847E+02  0.10745015670E+03  0.90944286912E+02 0.  0.
         23    2    1    2    0    0 -0.42312036216E+02  0.36634473041E+02  0.56764340462E+02  0.12131569198E+03  0.91448967996E+02 0.  0.
          5    1    3    3  502    0  0.11194626033E+02 -0.57792281272E+02  0.15013646182E+02  0.60932479010E+02  0.47000000000E+01 0. -1.
         -5    1    4    4    0  503  0.22754915032E+01  0.56417136386E+02  0.20118685867E+02  0.60124226902E+02  0.47000000000E+01 0.  1.
          5    1    4    4  503    0 -0.44587527719E+02 -0.19782663344E+02  0.36645654595E+02  0.61191465073E+02  0.47000000000E+01 0. -1.
         -5    1    3    3    0  502  0.31117410183E+02  0.21157808230E+02 -0.26941757029E+02  0.46517677687E+02  0.47000000000E+01 0.  1.
<mgrwt>
<rscale>  0 0.10710847E+03</rscale>
<asrwt>0</asrwt>
<pdfrwt beam="1">  1        1 0.21046314E-01 0.10721617E+03</pdfrwt>
<pdfrwt beam="2">  1       -1 0.14148432E-01 0.10721617E+03</pdfrwt>
<totfact> 0.78275470E+03</totfact>
</mgrwt>
</event>
<event>
 8    1  0.2964543E-004  0.1482687E+03  0.7546771E-02  0.1203963E+00
         -2   -1    0    0    0  501 -0.00000000000E+00  0.00000000000E+00  0.39610219467E+03  0.39610219467E+03  0.00000000000E+00 0.  1.
          2   -1    0    0  501    0  0.00000000000E+00 -0.00000000000E+00 -0.54076745564E+02  0.54076745564E+02  0.00000000000E+00 0. -1.
         23    2    1    2    0    0  0.12748902513E+02 -0.11391945496E+03  0.18558751295E+03  0.23754230532E+03  0.94039593366E+02 0.  0.
         23    2    1    2    0    0 -0.12748902513E+02  0.11391945496E+03  0.15643793616E+03  0.21263663491E+03  0.87185628994E+02 0.  0.
          5    1    4    4  502    0 -0.30329209213E+02  0.15879593111E+02  0.10935011318E+02  0.36244818684E+02  0.47000000000E+01 0. -1.
         -5    1    4    4    0  502  0.17580306701E+02  0.98039861853E+02  0.14550292484E+03  0.17639181623E+03  0.47000000000E+01 0.  1.
          5    1    3    3  503    0  0.67011497750E+01 -0.29593893807E+02 -0.29676709395E+01  0.30848031214E+02  0.47000000000E+01 0. -1.
         -5    1    3    3    0  503  0.60477527376E+01 -0.84325561157E+02  0.18855518389E+03  0.20669427411E+03  0.47000000000E+01 0.  1.
<mgrwt>
<rscale>  0 0.14719473E+03</rscale>
<asrwt>0</asrwt>
<pdfrwt beam="1">  1        2 0.83194995E-02 0.14826875E+03</pdfrwt>
<pdfrwt beam="2">  1       -2 0.60938798E-01 0.14826875E+03</pdfrwt>
<totfact> 0.20072577E+03</totfact>
</mgrwt>
</event>
<event>
 8    1  0.2964543E-004  0.9499698E+02  0.7546771E-02  0.1293246E+00
          3   -1    0    0  501    0  0.00000000000E+00  0.00000000000E+00  0.32329841677E+02  0.32329841677E+02  0.00000000000E+00 0. -1.
         -3   -1    0    0    0  501 -0.00000000000E+00 -0.00000000000E+00 -0.29160124654E+03  0.29160124654E+03  0.00000000000E+00 0.  1.
         23    2    1    2    0    0 -0.10623221920E+02  0.20963041710E+02 -0.17272582230E+03  0.19542208619E+03  0.88336176739E+02 0.  0.
         23    2    1    2    0    0  0.10623221920E+02 -0.20963041710E+02 -0.86545582568E+02  0.12850900203E+03  0.92044140383E+02 0.  0.
          5    1    4    4  502    0  0.24394778616E+02 -0.49776350852E+02 -0.29513216300E+02  0.62975473514E+02  0.47000000000E+01 0. -1.
         -5    1    4    4    0  502 -0.13771556696E+02  0.28813309143E+02 -0.57032366268E+02  0.65533528515E+02  0.47000000000E+01 0.  1.
          5    1    3    3  503    0 -0.38353274296E+02 -0.17164083461E+02 -0.62642935729E+02  0.75576496393E+02  0.47000000000E+01 0. -1.
         -5    1    3    3    0  503  0.27730052376E+02  0.38127125171E+02 -0.11008288657E+03  0.11984558980E+03  0.47000000000E+01 0.  1.
<mgrwt>
<rscale>  0 0.94086959E+02</rscale>
<asrwt>0</asrwt>
<pdfrwt beam="1">  1        3 0.49738216E-02 0.94996978E+02</pdfrwt>
<pdfrwt beam="2">  1       -3 0.44861732E-01 0.94996978E+02</pdfrwt>
<totfact> 0.24373874E+03</totfact>
</mgrwt>
</event>
<event>
 8    1  0.2964543E-004  0.9165049E+02  0.7546771E-02  0.1323971E+00
         -1   -1    0    0    0  501 -0.00000000000E+00  0.00000000000E+00  0.19822758416E+02  0.19822758416E+02  0.00000000000E+00 0.  1.
          1   -1    0    0  501    0  0.00000000000E+00 -0.00000000000E+00 -0.31545997863E+03  0.31545997863E+03  0.00000000000E+00 0. -1.
         23    2    1    2    0    0  0.11265775586E+01 -0.17536075165E+02 -0.65828441003E+02  0.87872373788E+02  0.55492227574E+02 0.  0.
         23    2    1    2    0    0 -0.11265775586E+01  0.17536075165E+02 -0.22980877921E+03  0.24741036325E+03  0.89950151391E+02 0.  0.
          5    1    3    3  502    0  0.10411786811E+02  0.17758183115E+02 -0.19828531005E+02  0.28965824932E+02  0.47000000000E+01 0. -1.
         -5    1    3    3    0  502 -0.92852092526E+01 -0.35294258280E+02 -0.45999909997E+02  0.58906548856E+02  0.47000000000E+01 0.  1.
          5    1    4    4  503    0  0.25568225426E+02  0.44195349262E+02 -0.15868011748E+03  0.16675860617E+03  0.47000000000E+01 0. -1.
         -5    1    4    4    0  503 -0.26694802985E+02 -0.26659274097E+02 -0.71128661726E+02  0.80651757084E+02  0.47000000000E+01 0.  1.
<mgrwt>
<rscale>  0 0.81817604E+02</rscale>
<asrwt>0</asrwt>
<pdfrwt beam="1">  1        1 0.48532303E-01 0.91650493E+02</pdfrwt>
<pdfrwt beam="2">  1       -1 0.30496552E-02 0.91650493E+02</pdfrwt>
<totfact> 0.26955449E+04</totfact>
</mgrwt>
</event>
<event>
 8    1  0.2964543E-004  0.1317461E+03  0.7546771E-02  0.1224993E+00
          2   -1    0    0  501    0  0.00000000000E+00  0.00000000000E+00  0.11756488396E+03  0.11756488396E+03  0.00000000000E+00 0. -1.
         -2   -1    0    0    0  501 -0.00000000000E+00 -0.00000000000E+00 -0.15953256803E+03  0.15953256803E+03  0.00000000000E+00 0.  1.
         23    2    1    2    0    0  0.82535271995E+02  0.47190199709E+02 -0.59345663519E+02  0.14449545802E+03  0.91203308805E+02 0.  0.
         23    2    1    2    0    0 -0.82535271995E+02 -0.47190199709E+02  0.17377979442E+02  0.13260199398E+03  0.90787160795E+02 0.  0.
          5    1    4    4  502    0 -0.75057129129E+02 -0.50434880351E+01  0.38502142175E+02  0.84637546968E+02  0.47000000000E+01 0. -1.
         -5    1    3    3    0  503  0.44404690432E+02 -0.22659348718E+02 -0.11013447627E+02  0.51269958507E+02  0.47000000000E+01 0.  1.
          5    1    3    3  503    0  0.38130581562E+02  0.69849548427E+02 -0.48332215892E+02  0.93225499509E+02  0.47000000000E+01 0. -1.
         -5    1    4    4    0  502 -0.74781428653E+01 -0.42146711674E+02 -0.21124162733E+02  0.47964447009E+02  0.47000000000E+01 0.  1.
<mgrwt>
<rscale>  0 0.13167409E+03</rscale>
<asrwt>0</asrwt>
<pdfrwt beam="1">  1        2 0.18086905E-01 0.13174608E+03</pdfrwt>
<pdfrwt beam="2">  1       -2 0.24543472E-01 0.13174608E+03</pdfrwt>
<totfact> 0.43757095E+03</totfact>
</mgrwt>
</event>
<event>
 8    1  0.2964543E-004  0.1115033E+03  0.7546771E-02  0.1259298E+00
          1   -1    0    0  501    0  0.00000000000E+00  0.00000000000E+00  0.12818287696E+03  0.12818287696E+03  0.00000000000E+00 0. -1.
         -1   -1    0    0    0  501 -0.00000000000E+00 -0.00000000000E+00 -0.11587607591E+03  0.11587607591E+03  0.00000000000E+00 0.  1.
         23    2    1    2    0    0 -0.28634529915E+02  0.57201397716E+02 -0.46529958745E+02  0.12082229344E+03  0.91329367272E+02 0.  0.
         23    2    1    2    0    0  0.28634529915E+02 -0.57201397716E+02  0.58836759804E+02  0.12323665943E+03  0.87370325167E+02 0.  0.
          5    1    3    3  502    0 -0.49073946138E+02  0.20378836115E+02  0.56040648759E+01  0.53638089956E+02  0.47000000000E+01 0. -1.
         -5    1    3    3    0  502  0.20439416223E+02  0.36822561602E+02 -0.52134023621E+02  0.67184203481E+02  0.47000000000E+01 0.  1.
          5    1    4    4  503    0  0.10043097996E+02 -0.78059828244E+02  0.35226364404E+02  0.86355007683E+02  0.47000000000E+01 0. -1.
         -5    1    4    4    0  503  0.18591431919E+02  0.20858430527E+02  0.23610395400E+02  0.36881651750E+02  0.47000000000E+01 0.  1.
<mgrwt>
<rscale>  0 0.11068972E+03</rscale>
<asrwt>0</asrwt>
<pdfrwt beam="1">  1        1 0.19720443E-01 0.11150332E+03</pdfrwt>
<pdfrwt beam="2">  1       -1 0.17827089E-01 0.11150332E+03</pdfrwt>
<totfact> 0.59357119E+03</totfact>
</mgrwt>
</event>
<event>
 8    1  0.2964543E-004  0.1036487E+03  0.7546771E-02  0.1272887E+00
          1   -1    0    0  501    0  0.00000000000E+00  0.00000000000E+00  0.23261777720E+02  0.23261777720E+02  0.00000000000E+00 0. -1.
         -1   -1    0    0    0  501 -0.00000000000E+00 -0.00000000000E+00 -0.46766534311E+03  0.46766534311E+03  0.00000000000E+00 0.  1.
         23    2    1    2    0    0  0.36166952928E+02 -0.32273457309E+02 -0.19330101845E+03  0.21933611332E+03  0.91615622799E+02 0.  0.
         23    2    1    2    0    0 -0.36166952928E+02  0.32273457309E+02 -0.25110254694E+03  0.27159100751E+03  0.91430639018E+02 0.  0.
          5    1    4    4  502    0 -0.55505366634E+02  0.23594310421E+02 -0.23940275682E+03  0.24692773676E+03  0.47000000000E+01 0.  1.
         -5    1    4    4    0  502  0.19338413706E+02  0.86791468886E+01 -0.11699790124E+02  0.24663270754E+02  0.47000000000E+01 0. -1.
          5    1    3    3  503    0  0.50588218396E+02  0.13390720600E+02 -0.12678492984E+03  0.13724061962E+03  0.47000000000E+01 0. -1.
         -5    1    3    3    0  503 -0.14421265468E+02 -0.45664177909E+02 -0.66516088611E+02  0.82095493701E+02  0.47000000000E+01 0.  1.
<mgrwt>
<rscale>  0 0.10360778E+03</rscale>
<asrwt>0</asrwt>
<pdfrwt beam="1">  1        1 0.35787352E-02 0.10364867E+03</pdfrwt>
<pdfrwt beam="2">  1       -1 0.71948511E-01 0.10364867E+03</pdfrwt>
<totfact> 0.50411012E+03</totfact>
</mgrwt>
</event>
<event>
 8    1  0.2964543E-004  0.1014211E+03  0.7546771E-02  0.1277336E+00
         -2   -1    0    0    0  501 -0.00000000000E+00  0.00000000000E+00  0.35830712217E+03  0.35830712217E+03  0.00000000000E+00 0.  1.
          2   -1    0    0  501    0  0.00000000000E+00 -0.00000000000E+00 -0.30401105432E+02  0.30401105432E+02  0.00000000000E+00 0. -1.
         23    2    1    2    0    0  0.22751606313E+02 -0.34698749094E+02  0.20982612059E+03  0.23305201032E+03  0.92545123324E+02 0.  0.
         23    2    1    2    0    0 -0.22751606313E+02  0.34698749094E+02  0.11807989615E+03  0.15565621729E+03  0.92543813016E+02 0.  0.
          5    1    3    3  502    0 -0.63610746539E+01  0.24697758232E+02  0.22496267163E+02  0.34330956420E+02  0.47000000000E+01 0. -1.
         -5    1    4    4    0  503  0.12437081748E+02  0.33576494516E+02  0.11437948739E+03  0.11994506710E+03  0.47000000000E+01 0.  1.
          5    1    4    4  503    0 -0.35188688061E+02  0.11222545788E+01  0.37004087599E+01  0.35711150189E+02  0.47000000000E+01 0. -1.
         -5    1    3    3    0  502  0.29112680967E+02 -0.59396507326E+02  0.18732985343E+03  0.19872105390E+03  0.47000000000E+01 0.  1.
<mgrwt>
<rscale>  0 0.10142080E+03</rscale>
<asrwt>0</asrwt>
<pdfrwt beam="1">  1        2 0.46770934E-02 0.10142110E+03</pdfrwt>
<pdfrwt beam="2">  1       -2 0.55124170E-01 0.10142110E+03</pdfrwt>
<totfact> 0.50067936E+03</totfact>
</mgrwt>
</event>
<event>
 8    1  0.2964543E-004  0.9359112E+02  0.7546771E-02  0.1296500E+00
          1   -1    0    0  501    0  0.00000000000E+00  0.00000000000E+00  0.56267697750E+03  0.56267697750E+03  0.00000000000E+00 0. -1.
         -1   -1    0    0    0  501 -0.00000000000E+00 -0.00000000000E+00 -0.15907670693E+02  0.15907670693E+02  0.00000000000E+00 0.  1.
         23    2    1    2    0    0 -0.19287231905E+01  0.19447030400E+02  0.20831594769E+03  0.22837432247E+03  0.91528083860E+02 0.  0.
         23    2    1    2    0    0  0.19287231905E+01 -0.19447030400E+02  0.33845335912E+03  0.35021032573E+03  0.87833302254E+02 0.  0.
          5    1    4    4  502    0 -0.25500881167E+02  0.12827032993E+02  0.43802076884E+02  0.52493234374E+02  0.47000000000E+01 0. -1.
         -5    1    3    3    0  503 -0.35360399507E+02 -0.18586610940E+02  0.66534932942E+02  0.77748358575E+02  0.47000000000E+01 0.  1.
          5    1    3    3  503    0  0.33431676317E+02  0.38033641340E+02  0.14178101475E+03  0.15062596389E+03  0.47000000000E+01 0. -1.
         -5    1    4    4    0  502  0.27429604357E+02 -0.32274063393E+02  0.29465128223E+03  0.29771709135E+03  0.47000000000E+01 0.  1.
<mgrwt>
<rscale>  0 0.92675253E+02</rscale>
<asrwt>0</asrwt>
<pdfrwt beam="1">  1        1 0.86565674E-01 0.93591117E+02</pdfrwt>
<pdfrwt beam="2">  1       -1 0.24473344E-02 0.93591117E+02</pdfrwt>
<totfact> 0.17897003E+04</totfact>
</mgrwt>
</event>
<event>
 8    1  0.2964543E-004  0.1055602E+03  0.7546771E-02  0.1270402E+00
          1   -1    0    0  501    0  0.00000000000E+00  0.00000000000E+00  0.32739300350E+03  0.32739300350E+03  0.00000000000E+00 0. -1.
         -1   -1    0    0    0  501 -0.00000000000E+00 -0.00000000000E+00 -0.53484261350E+02  0.53484261350E+02  0.00000000000E+00 0.  1.
         23    2    1    2    0    0  0.46327813033E+02  0.23874188996E+01  0.20651640555E+02  0.10756134000E+03  0.94820807719E+02 0.  0.
         23    2    1    2    0    0 -0.46327813033E+02 -0.23874188996E+01  0.25325710160E+03  0.27331592485E+03  0.91708610481E+02 0.  0.
          5    1    3    3  502    0 -0.16314375861E+02 -0.15632207985E+02  0.33773281773E+02  0.40905370649E+02  0.47000000000E+01 0. -1.
         -5    1    4    4    0  503 -0.13413824636E+02 -0.35039137863E+02  0.40065945560E+02  0.55091214065E+02  0.47000000000E+01 0.  1.
          5    1    4    4  503    0 -0.32913988397E+02  0.32651718964E+02  0.21319115604E+03  0.21822471078E+03  0.47000000000E+01 0. -1.
         -5    1    3    3    0  502  0.62642188893E+02  0.18019626885E+02 -0.13121641218E+02  0.66655969355E+02  0.47000000000E+01 0.  1.
<mgrwt>
<rscale>  0 0.10485656E+03</rscale>
<asrwt>0</asrwt>
<pdfrwt beam="1">  1        1 0.50368153E-01 0.10556018E+03</pdfrwt>
<pdfrwt beam="2">  1       -1 0.82283481E-02 0.10556018E+03</pdfrwt>
<totfact> 0.60756793E+03</totfact>
</mgrwt>
</event>
<event>
 8    1  0.2964543E-004  0.1252569E+03  0.7546771E-02  0.1235007E+00
          1   -1    0    0  501    0  0.00000000000E+00  0.00000000000E+00  0.14647240937E+04  0.14647240937E+04  0.00000000000E+00 0. -1.
         -1   -1    0    0    0  501 -0.00000000000E+00 -0.00000000000E+00 -0.10845812560E+02  0.10845812560E+02  0.00000000000E+00 0.  1.
         23    2    1    2    0    0  0.51786756163E+02 -0.69004750328E+02  0.62223319744E+03  0.63454504052E+03  0.89608776192E+02 0.  0.
         23    2    1    2    0    0 -0.51786756163E+02  0.69004750328E+02  0.83164508370E+03  0.84102486574E+03  0.90806144442E+02 0.  0.
          5    1    4    4  502    0  0.22961963220E+02  0.10710277469E+02  0.10074574970E+03  0.10398922002E+03  0.47000000000E+01 0. -1.
         -5    1    4    4    0  502 -0.74748719383E+02  0.58294472859E+02  0.73089933400E+03  0.73703564571E+03  0.47000000000E+01 0.  1.
          5    1    3    3  503    0  0.69954487907E+02 -0.22201624481E+02  0.39443040974E+03  0.40122809054E+03  0.47000000000E+01 0. -1.
         -5    1    3    3    0  503 -0.18167731744E+02 -0.46803125847E+02  0.22780278770E+03  0.23331694998E+03  0.47000000000E+01 0.  1.
<mgrwt>
<rscale>  0 0.12503996E+03</rscale>
<asrwt>0</asrwt>
<pdfrwt beam="1">  1        1 0.22534201E+00 0.12525685E+03</pdfrwt>
<pdfrwt beam="2">  1       -1 0.16685877E-02 0.12525685E+03</pdfrwt>
<totfact> 0.65858163E+03</totfact>
</mgrwt>
</event>
<event>
 8    1  0.2964543E-004  0.9943715E+02  0.7546771E-02  0.1286111E+00
         -2   -1    0    0    0  501 -0.00000000000E+00  0.00000000000E+00  0.29023186275E+03  0.29023186275E+03  0.00000000000E+00 0.  1.
          2   -1    0    0  501    0  0.00000000000E+00 -0.00000000000E+00 -0.32703064483E+02  0.32703064483E+02  0.00000000000E+00 0. -1.
         23    2    1    2    0    0  0.17283392785E+02  0.35549303740E+02  0.16788288641E+03  0.19512152946E+03  0.91242967117E+02 0.  0.
         23    2    1    2    0    0 -0.17283392785E+02 -0.35549303740E+02  0.89645911855E+02  0.12781339777E+03  0.82081706086E+02 0.  0.
          5    1    4    4  502    0 -0.38445801712E+02 -0.10281902546E+01  0.75148358061E+02  0.84548817637E+02  0.47000000000E+01 0. -1.
         -5    1    3    3    0  503  0.51821631439E+02  0.68290091145E+01  0.10839473425E+03  0.12043099793E+03  0.47000000000E+01 0.  1.
          5    1    3    3  503    0 -0.34538238654E+02  0.28720294626E+02  0.59488152165E+02  0.74690531533E+02  0.47000000000E+01 0. -1.
         -5    1    4    4    0  502  0.21162408927E+02 -0.34521113486E+02  0.14497553793E+02  0.43264580130E+02  0.47000000000E+01 0.  1.
<mgrwt>
<rscale>  0 0.97284905E+02</rscale>
<asrwt>0</asrwt>
<pdfrwt beam="1">  1        2 0.50312409E-02 0.99437155E+02</pdfrwt>
<pdfrwt beam="2">  1       -2 0.44651054E-01 0.99437155E+02</pdfrwt>
<totfact> 0.68757933E+03</totfact>
</mgrwt>
</event>
<event>
 8    1  0.2964543E-004  0.1095640E+03  0.7546771E-02  0.1261424E+00
         -2   -1    0    0    0  501 -0.00000000000E+00  0.00000000000E+00  0.17342634490E+02  0.17342634490E+02  0.00000000000E+00 0.  1.
          2   -1    0    0  501    0  0.00000000000E+00 -0.00000000000E+00 -0.69425585057E+03  0.69425585057E+03  0.00000000000E+00 0. -1.
         23    2    1    2    0    0 -0.58958195546E+02 -0.11942551555E+02 -0.36037888965E+03  0.37663842793E+03  0.91459651908E+02 0.  0.
         23    2    1    2    0    0  0.58958195546E+02  0.11942551555E+02 -0.31653432643E+03  0.33496005714E+03  0.91572739971E+02 0.  0.
          5    1    3    3  502    0  0.64985521410E+01 -0.36883288960E+02 -0.97640169155E+02  0.10468190301E+03  0.47000000000E+01 0. -1.
         -5    1    4    4    0  503  0.42416788879E+02  0.47109163779E+02 -0.13450037115E+03  0.14876456947E+03  0.47000000000E+01 0.  1.
          5    1    4    4  503    0  0.16541406666E+02 -0.35166612224E+02 -0.18203395529E+03  0.18619548767E+03  0.47000000000E+01 0. -1.
         -5    1    3    3    0  502 -0.65456747686E+02  0.24940737405E+02 -0.26273872050E+03  0.27195652492E+03  0.47000000000E+01 0.  1.
<mgrwt>
<rscale>  0 0.10954032E+03</rscale>
<asrwt>0</asrwt>
<pdfrwt beam="1">  1        2 0.10680858E+00 0.10956395E+03</pdfrwt>
<pdfrwt beam="2">  1       -2 0.26680978E-02 0.10956395E+03</pdfrwt>
<totfact> 0.19856588E+04</totfact>
</mgrwt>
</event>
<event>
 8    1  0.2964543E-004  0.1046150E+03  0.7546771E-02  0.1271928E+00
          2   -1    0    0  501    0  0.00000000000E+00  0.00000000000E+00  0.68005536795E+03  0.68005536795E+03  0.00000000000E+00 0. -1.
         -2   -1    0    0    0  501 -0.00000000000E+00 -0.00000000000E+00 -0.16308602521E+02  0.16308602521E+02  0.00000000000E+00 0.  1.
         23    2    1    2    0    0  0.12133737618E+02  0.47737441656E+02  0.39823165739E+03  0.41174354837E+03  0.92294126336E+02 0.  0.
         23    2    1    2    0    0 -0.12133737618E+02 -0.47737441656E+02  0.26551510804E+03  0.28462042210E+03  0.89913409195E+02 0.  0.
          5    1    4    4  502    0 -0.40271115349E+02  0.66442041994E+01  0.10956935017E+03  0.11701897572E+03  0.47000000000E+01 0. -1.
         -5    1    3    3    0  503  0.33800579065E+02  0.65426036618E+02  0.32353768484E+03  0.33184600182E+03  0.47000000000E+01 0.  1.
          5    1    3    3  503    0 -0.21666841447E+02 -0.17688594962E+02  0.74693972546E+02  0.79897546550E+02  0.47000000000E+01 0. -1.
         -5    1    4    4    0  502  0.28137377732E+02 -0.54381645855E+02  0.15594575787E+03  0.16760144638E+03  0.47000000000E+01 0.  1.
<mgrwt>
<rscale>  0 0.10408746E+03</rscale>
<asrwt>0</asrwt>
<pdfrwt beam="1">  1        2 0.10462388E+00 0.10461499E+03</pdfrwt>
<pdfrwt beam="2">  1       -2 0.25090163E-02 0.10461499E+03</pdfrwt>
<totfact> 0.22150169E+04</totfact>
</mgrwt>
</event>
<event>
 8    1  0.2964543E-004  0.9532486E+02  0.7546771E-02  0.1292265E+00
          2   -1    0    0  501    0  0.00000000000E+00  0.00000000000E+00  0.59981248272E+03  0.59981248272E+03  0.00000000000E+00 0. -1.
         -2   -1    0    0    0  501 -0.00000000000E+00 -0.00000000000E+00 -0.24564263783E+02  0.24564263783E+02  0.00000000000E+00 0.  1.
         23    2    1    2    0    0 -0.52881173197E+01 -0.12595253303E+02  0.48305213137E+03  0.49176095766E+03  0.91120103526E+02 0.  0.
         23    2    1    2    0    0  0.52881173197E+01  0.12595253303E+02  0.92196087572E+02  0.13261578885E+03  0.94341000089E+02 0.  0.
          5    1    3    3  502    0  0.36693287066E+02  0.14096750263E+02  0.15765739779E+03  0.16255171719E+03  0.47000000000E+01 0. -1.
         -5    1    4    4    0  503 -0.37529669002E+02 -0.23867203244E+01  0.10955870229E+02  0.39449886968E+02  0.47000000000E+01 0.  1.
          5    1    4    4  503    0  0.42817786322E+02  0.14981973627E+02  0.81240217343E+02  0.93165901881E+02  0.47000000000E+01 0. -1.
         -5    1    3    3    0  502 -0.41981404386E+02 -0.26692003566E+02  0.32539473357E+03  0.32920924046E+03  0.47000000000E+01 0.  1.
<mgrwt>
<rscale>  0 0.94518050E+02</rscale>
<asrwt>0</asrwt>
<pdfrwt beam="1">  1        2 0.92278832E-01 0.95324860E+02</pdfrwt>
<pdfrwt beam="2">  1       -2 0.37791180E-02 0.95324860E+02</pdfrwt>
<totfact> 0.13945909E+04</totfact>
</mgrwt>
</event>
<event>
 8    1  0.2964543E-004  0.1126059E+03  0.7546771E-02  0.1256142E+00
          3   -1    0    0  501    0  0.00000000000E+00  0.00000000000E+00  0.17554282771E+03  0.17554282771E+03  0.00000000000E+00 0. -1.
         -3   -1    0    0    0  501 -0.00000000000E+00 -0.00000000000E+00 -0.77905384604E+02  0.77905384604E+02  0.00000000000E+00 0.  1.
         23    2    1    2    0    0  0.45623365493E+02  0.46362087440E+02  0.84226146643E+02  0.14004651950E+03  0.91038723705E+02 0.  0.
         23    2    1    2    0    0 -0.45623365493E+02 -0.46362087440E+02  0.13411296461E+02  0.11340169282E+03  0.91919238628E+02 0.  0.
          5    1    4    4  502    0 -0.52677656302E+02 -0.68405092558E+02  0.45962688232E+00  0.86466718558E+02  0.47000000000E+01 0. -1.
         -5    1    3    3    0  503  0.58460658940E+02  0.15018067565E+02  0.14300808509E+02  0.62207669311E+02  0.47000000000E+01 0.  1.
          5    1    3    3  503    0 -0.12837293447E+02  0.31344019876E+02  0.69925338134E+02  0.77838850185E+02  0.47000000000E+01 0. -1.
         -5    1    4    4    0  502  0.70542908091E+01  0.22043005117E+02  0.12951669578E+02  0.26934974258E+02  0.47000000000E+01 0.  1.
<mgrwt>
<rscale>  0 0.11242604E+03</rscale>
<asrwt>0</asrwt>
<pdfrwt beam="1">  1        3 0.27006589E-01 0.11260587E+03</pdfrwt>
<pdfrwt beam="2">  1       -3 0.11985444E-01 0.11260587E+03</pdfrwt>
<totfact> 0.15786496E+03</totfact>
</mgrwt>
</event>
<event>
 8    1  0.2964543E-004  0.9636846E+02  0.7546771E-02  0.1289353E+00
          2   -1    0    0  501    0  0.00000000000E+00  0.00000000000E+00  0.44427600579E+03  0.44427600579E+03  0.00000000000E+00 0. -1.
         -2   -1    0    0    0  501 -0.00000000000E+00 -0.00000000000E+00 -0.22226001297E+02  0.22226001297E+02  0.00000000000E+00 0.  1.
         23    2    1    2    0    0 -0.18360354669E+02  0.22982227453E+01  0.14247121906E+03  0.17078055537E+03  0.92333988221E+02 0.  0.
         23    2    1    2    0    0  0.18360354669E+02 -0.22982227453E+01  0.27957878544E+03  0.29572145172E+03  0.94575341869E+02 0.  0.
          5    1    4    4  502    0  0.93809692658E+01 -0.47174197515E+02  0.11286586251E+03  0.12277703538E+03  0.47000000000E+01 0. -1.
         -5    1    3    3    0  503  0.22813790235E+02  0.29051011210E+02  0.96172427864E+02  0.10312931765E+03  0.47000000000E+01 0.  1.
          5    1    3    3  503    0 -0.41174144904E+02 -0.26752788465E+02  0.46298791196E+02  0.67651237723E+02  0.47000000000E+01 0. -1.
         -5    1    4    4    0  502  0.89793854037E+01  0.44875974770E+02  0.16671292292E+03  0.17294441634E+03  0.47000000000E+01 0.  1.
<mgrwt>
<rscale>  0 0.95814025E+02</rscale>
<asrwt>0</asrwt>
<pdfrwt beam="1">  1        2 0.68350148E-01 0.96368458E+02</pdfrwt>
<pdfrwt beam="2">  1       -2 0.34193851E-02 0.96368458E+02</pdfrwt>
<totfact> 0.22422874E+04</totfact>
</mgrwt>
</event>
<event>
 8    1  0.3661564E-004  0.1543536E+03  0.7546771E-02  0.1199425E+00
         -2   -1    0    0    0  501 -0.00000000000E+00  0.00000000000E+00  0.17003605406E+03  0.17003605406E+03  0.00000000000E+00 0.  1.
          2   -1    0    0  501    0  0.00000000000E+00 -0.00000000000E+00 -0.32865179549E+03  0.32865179549E+03  0.00000000000E+00 0. -1.
         23    2    1    2    0    0  0.33440570600E+02  0.10324320223E+03 -0.27258595444E+03  0.30681746913E+03  0.89757597123E+02 0.  0.
         23    2    1    2    0    0 -0.33440570600E+02 -0.10324320223E+03  0.11397021300E+03  0.19187038041E+03  0.10976157278E+03 0.  0.
          5    1    3    3  502    0 -0.68114474343E+01  0.94353933031E+02 -0.15000204594E+03  0.17740283054E+03  0.47000000000E+01 0. -1.
         -5    1    4    4    0  503  0.14396285302E+02 -0.77514678386E+02  0.11234155644E+03  0.13732623092E+03  0.47000000000E+01 0.  1.
          5    1    4    4  503    0 -0.47836855902E+02 -0.25728523847E+02  0.16286565676E+01  0.54544149495E+02  0.47000000000E+01 0. -1.
         -5    1    3    3    0  502  0.40252018034E+02  0.88892692018E+01 -0.12258390849E+03  0.12941463860E+03  0.47000000000E+01 0.  1.
<mgrwt>
<rscale>  0 0.15085631E+03</rscale>
<asrwt>0</asrwt>
<pdfrwt beam="1">  1        2 0.50561814E-01 0.15435360E+03</pdfrwt>
<pdfrwt beam="2">  1       -2 0.26159393E-01 0.15435360E+03</pdfrwt>
<totfact> 0.12837694E+03</totfact>
</mgrwt>
</event>
<event>
 8    1  0.2964543E-004  0.9205510E+02  0.7546771E-02  0.1298836E+00
          2   -1    0    0  501    0  0.00000000000E+00  0.00000000000E+00  0.50836882529E+02  0.50836882529E+02  0.00000000000E+00 0. -1.
         -2   -1    0    0    0  501 -0.00000000000E+00 -0.00000000000E+00 -0.17380100557E+03  0.17380100557E+03  0.00000000000E+00 0.  1.
         23    2    1    2    0    0 -0.59968562712E+01 -0.30296409106E+01 -0.87682762081E+02  0.12605333030E+03  0.90310765162E+02 0.  0.
         23    2    1    2    0    0  0.59968562712E+01  0.30296409106E+01 -0.35281360955E+02  0.98584557796E+02  0.91809583355E+02 0.  0.
          5    1    4    4  502    0 -0.35602065739E+02  0.11904451876E+02  0.69448957970E+01  0.38464849369E+02  0.47000000000E+01 0. -1.
         -5    1    4    4    0  502  0.41598922010E+02 -0.88748109653E+01 -0.42226256752E+02  0.60119708427E+02  0.47000000000E+01 0.  1.
          5    1    3    3  503    0  0.11007291819E+02  0.32190479441E+02 -0.78386309438E+02  0.85579734442E+02  0.47000000000E+01 0. -1.
         -5    1    3    3    0  503 -0.17004148090E+02 -0.35220120352E+02 -0.92964526433E+01  0.40473595857E+02  0.47000000000E+01 0.  1.
<mgrwt>
<rscale>  0 0.91679110E+02</rscale>
<asrwt>0</asrwt>
<pdfrwt beam="1">  1        2 0.78210587E-02 0.92055095E+02</pdfrwt>
<pdfrwt beam="2">  1       -2 0.26738617E-01 0.92055095E+02</pdfrwt>
<totfact> 0.99695647E+03</totfact>
</mgrwt>
</event>
<event>
 8    1  0.2964543E-004  0.1594916E+03  0.7546771E-02  0.1190601E+00
          1   -1    0    0  501    0  0.00000000000E+00  0.00000000000E+00  0.22408390659E+03  0.22408390659E+03  0.00000000000E+00 0. -1.
         -1   -1    0    0    0  501 -0.00000000000E+00 -0.00000000000E+00 -0.19838217292E+03  0.19838217292E+03  0.00000000000E+00 0.  1.
         23    2    1    2    0    0  0.23863646988E+02 -0.12871875343E+03  0.15373425972E+03  0.22152150943E+03  0.91101950568E+02 0.  0.
         23    2    1    2    0    0 -0.23863646988E+02  0.12871875343E+03 -0.12803252604E+03  0.20094457008E+03  0.82755068649E+02 0.  0.
          5    1    3    3  502    0 -0.18039999455E+02 -0.26595442057E+02  0.85992914363E+02  0.91921871386E+02  0.47000000000E+01 0. -1.
         -5    1    4    4    0  503 -0.51076216219E+02  0.10945034212E+03 -0.94570625945E+02  0.15347263777E+03  0.47000000000E+01 0.  1.
          5    1    4    4  503    0  0.27212569231E+02  0.19268411305E+02 -0.33461900100E+02  0.47471932304E+02  0.47000000000E+01 0. -1.
         -5    1    3    3    0  502  0.41903646443E+02 -0.10212331137E+03  0.67741345354E+02  0.12959963804E+03  0.47000000000E+01 0.  1.
<mgrwt>
<rscale>  0 0.15832478E+03</rscale>
<asrwt>0</asrwt>
<pdfrwt beam="1">  1        1 0.34474447E-01 0.15949156E+03</pdfrwt>
<pdfrwt beam="2">  1       -1 0.30520334E-01 0.15949156E+03</pdfrwt>
<totfact> 0.12469699E+03</totfact>
</mgrwt>
</event>
<event>
 8    1  0.2964543E-004  0.9109600E+02  0.7546771E-02  0.1302075E+00
         -2   -1    0    0    0  501 -0.00000000000E+00  0.00000000000E+00  0.17583192262E+02  0.17583192262E+02  0.00000000000E+00 0.  1.
          2   -1    0    0  501    0  0.00000000000E+00 -0.00000000000E+00 -0.45938527856E+03  0.45938527856E+03  0.00000000000E+00 0. -1.
         23    2    1    2    0    0  0.37588455346E+01  0.79064636577E+00 -0.19742131873E+03  0.21616118267E+03  0.87952974710E+02 0.  0.
         23    2    1    2    0    0 -0.37588455346E+01 -0.79064636577E+00 -0.24438076756E+03  0.26080728815E+03  0.91014987541E+02 0.  0.
          5    1    4    4  502    0  0.62430238208E+01  0.39177917661E+02 -0.61885771205E+02  0.73660187729E+02  0.47000000000E+01 0. -1.
         -5    1    4    4    0  502 -0.10001869355E+02 -0.39968564027E+02 -0.18249499636E+03  0.18714710042E+03  0.47000000000E+01 0.  1.
          5    1    3    3  503    0 -0.94251621053E+01  0.34502044816E+02 -0.15949285138E+03  0.16352151057E+03  0.47000000000E+01 0. -1.
         -5    1    3    3    0  503  0.13184007640E+02 -0.33711398450E+02 -0.37928467353E+02  0.52639672099E+02  0.47000000000E+01 0.  1.
<mgrwt>
<rscale>  0 0.90321381E+02</rscale>
<asrwt>0</asrwt>
<pdfrwt beam="1">  1        2 0.70674660E-01 0.91096004E+02</pdfrwt>
<pdfrwt beam="2">  1       -2 0.27051064E-02 0.91096004E+02</pdfrwt>
<totfact> 0.30254293E+04</totfact>
</mgrwt>
</event>
<event>
 8    1  0.2964543E-004  0.1140072E+03  0.7546771E-02  0.1261786E+00
          2   -1    0    0  501    0  0.00000000000E+00  0.00000000000E+00  0.85944707754E+03  0.85944707754E+03  0.00000000000E+00 0. -1.
         -2   -1    0    0    0  501 -0.00000000000E+00 -0.00000000000E+00 -0.14215961132E+02  0.14215961132E+02  0.00000000000E+00 0.  1.
         23    2    1    2    0    0 -0.24904702763E+02 -0.16524681952E+02  0.58767494396E+03  0.59863134341E+03  0.11001970836E+03 0.  0.
         23    2    1    2    0    0  0.24904702763E+02  0.16524681952E+02  0.25755617245E+03  0.27503169526E+03  0.91727542739E+02 0.  0.
          5    1    3    3  502    0  0.17649438889E+02 -0.51361272098E+02  0.21071848539E+03  0.21765535382E+03  0.47000000000E+01 0. -1.
         -5    1    4    4    0  503  0.29687909936E+02  0.50309502397E+02  0.12472214391E+03  0.13780464872E+03  0.47000000000E+01 0.  1.
          5    1    4    4  503    0 -0.47832071728E+01 -0.33784820445E+02  0.13283402853E+03  0.13722704653E+03  0.47000000000E+01 0. -1.
         -5    1    3    3    0  502 -0.42554141651E+02  0.34836590146E+02  0.37695645857E+03  0.38097598959E+03  0.47000000000E+01 0.  1.
<mgrwt>
<rscale>  0 0.10934576E+03</rscale>
<asrwt>0</asrwt>
<pdfrwt beam="1">  1        2 0.13222259E+00 0.11400722E+03</pdfrwt>
<pdfrwt beam="2">  1       -2 0.21870716E-02 0.11400722E+03</pdfrwt>
<totfact> 0.20500295E+04</totfact>
</mgrwt>
</event>
<event>
 8    1  0.2964543E-004  0.9634937E+02  0.7546771E-02  0.1290850E+00
         -3   -1    0    0    0  501 -0.00000000000E+00  0.00000000000E+00  0.24899754019E+02  0.24899754019E+02  0.00000000000E+00 0.  1.
          3   -1    0    0  501    0  0.00000000000E+00 -0.00000000000E+00 -0.38669255598E+03  0.38669255598E+03  0.00000000000E+00 0. -1.
         23    2    1    2    0    0 -0.86246550126E+01  0.13726762902E+02 -0.24419663315E+03  0.26251704042E+03  0.94975745196E+02 0.  0.
         23    2    1    2    0    0  0.86246550126E+01 -0.13726762902E+02 -0.11759616882E+03  0.14907526958E+03  0.90176318327E+02 0.  0.
          5    1    3    3  502    0  0.26635126075E+02 -0.20895318311E+02 -0.16894899511E+03  0.17237139327E+03  0.47000000000E+01 0. -1.
         -5    1    4    4    0  503 -0.25080581752E+02 -0.21654524884E+02 -0.85139019473E+01  0.34533035710E+02  0.47000000000E+01 0.  1.
          5    1    4    4  503    0  0.33705236765E+02  0.79277619822E+01 -0.10908226687E+03  0.11454223387E+03  0.47000000000E+01 0. -1.
         -5    1    3    3    0  502 -0.35259781088E+02  0.34622081213E+02 -0.75247638035E+02  0.90145647148E+02  0.47000000000E+01 0.  1.
<mgrwt>
<rscale>  0 0.95145118E+02</rscale>
<asrwt>0</asrwt>
<pdfrwt beam="1">  1        3 0.59491160E-01 0.96349369E+02</pdfrwt>
<pdfrwt beam="2">  1       -3 0.38307316E-02 0.96349369E+02</pdfrwt>
<totfact> 0.20947891E+03</totfact>
</mgrwt>
</event>
<event>
 8    1  0.2964543E-004  0.9862543E+02  0.7546771E-02  0.1283777E+00
         -2   -1    0    0    0  501 -0.00000000000E+00  0.00000000000E+00  0.10864789122E+02  0.10864789122E+02  0.00000000000E+00 0.  1.
          2   -1    0    0  501    0  0.00000000000E+00 -0.00000000000E+00 -0.10054058182E+04  0.10054058182E+04  0.00000000000E+00 0. -1.
         23    2    1    2    0    0 -0.41402918727E+00 -0.35634856797E+02 -0.67487227482E+03  0.68204073427E+03  0.91961739027E+02 0.  0.
         23    2    1    2    0    0  0.41402918727E+00  0.35634856797E+02 -0.31966875424E+03  0.33422987303E+03  0.90837663727E+02 0.  0.
          5    1    3    3  502    0  0.24044597794E+02  0.23297771965E+02 -0.27730588816E+03  0.27935922120E+03  0.47000000000E+01 0. -1.
         -5    1    3    3    0  502 -0.24458626981E+02 -0.58932628762E+02 -0.39756638666E+03  0.40268151307E+03  0.47000000000E+01 0.  1.
          5    1    4    4  503    0  0.29828306431E+02  0.54309545925E+02 -0.21608740837E+03  0.22484464125E+03  0.47000000000E+01 0. -1.
         -5    1    4    4    0  503 -0.29414277244E+02 -0.18674689128E+02 -0.10358134586E+03  0.10938523178E+03  0.47000000000E+01 0.  1.
<mgrwt>
<rscale>  0 0.98362563E+02</rscale>
<asrwt>0</asrwt>
<pdfrwt beam="1">  1        2 0.15467780E+00 0.98625432E+02</pdfrwt>
<pdfrwt beam="2">  1       -2 0.16715062E-02 0.98625432E+02</pdfrwt>
<totfact> 0.24277797E+04</totfact>
</mgrwt>
</event>
<event>
 8    1  0.2964543E-004  0.9617095E+02  0.7546771E-02  0.1291244E+00
          1   -1    0    0  501    0  0.00000000000E+00  0.00000000000E+00  0.29711855567E+02  0.29711855567E+02  0.00000000000E+00 0. -1.
         -1   -1    0    0    0  501 -0.00000000000E+00 -0.00000000000E+00 -0.47828824597E+03  0.47828824597E+03  0.00000000000E+00 0.  1.
         23    2    1    2    0    0 -0.12245442863E+02  0.33975838780E+01 -0.71091464857E+02  0.11959451485E+03  0.95327630621E+02 0.  0.
         23    2    1    2    0    0  0.12245442863E+02 -0.33975838780E+01 -0.37748492554E+03  0.38840558668E+03  0.90567854715E+02 0.  0.
          5    1    3    3  502    0 -0.33446566512E+02 -0.33763069092E+02 -0.56876306162E+02  0.74267232670E+02  0.47000000000E+01 0. -1.
         -5    1    3    3    0  502  0.21201123649E+02  0.37160652970E+02 -0.14215158695E+02  0.45327282180E+02  0.47000000000E+01 0.  1.
          5    1    4    4  503    0 -0.29616482628E+02 -0.22896865555E+01 -0.50958496817E+02  0.59171252358E+02  0.47000000000E+01 0. -1.
         -5    1    4    4    0  503  0.41861925491E+02 -0.11078973225E+01 -0.32652642872E+03  0.32923433432E+03  0.47000000000E+01 0.  1.
<mgrwt>
<rscale>  0 0.94969660E+02</rscale>
<asrwt>0</asrwt>
<pdfrwt beam="1">  1        1 0.45710548E-02 0.96170950E+02</pdfrwt>
<pdfrwt beam="2">  1       -1 0.73582806E-01 0.96170950E+02</pdfrwt>
<totfact> 0.34350778E+03</totfact>
</mgrwt>
</event>
<event>
 8    1  0.2964543E-004  0.9342754E+02  0.7546771E-02  0.1295522E+00
          1   -1    0    0  501    0  0.00000000000E+00  0.00000000000E+00  0.44670320671E+03  0.44670320671E+03  0.00000000000E+00 0. -1.
         -1   -1    0    0    0  501 -0.00000000000E+00 -0.00000000000E+00 -0.26929411129E+02  0.26929411129E+02  0.00000000000E+00 0.  1.
         23    2    1    2    0    0  0.11382724646E+02 -0.16054058166E+02  0.33515140157E+03  0.34757844724E+03  0.89983419622E+02 0.  0.
         23    2    1    2    0    0 -0.11382724646E+02  0.16054058166E+02  0.84622394011E+02  0.12605417060E+03  0.91331293395E+02 0.  0.
          5    1    4    4  502    0  0.39018310341E+02  0.47850864303E+01  0.24083837355E+02  0.46340552605E+02  0.47000000000E+01 0. -1.
         -5    1    3    3    0  503 -0.27237169660E+02 -0.37832892963E+02  0.15074542352E+03  0.15785900010E+03  0.47000000000E+01 0.  1.
          5    1    3    3  503    0  0.38619894306E+02  0.21778834797E+02  0.18440597805E+03  0.18971944714E+03  0.47000000000E+01 0. -1.
         -5    1    4    4    0  502 -0.50401034987E+02  0.11268971736E+02  0.60538556656E+02  0.79713617994E+02  0.47000000000E+01 0.  1.
<mgrwt>
<rscale>  0 0.93096481E+02</rscale>
<asrwt>0</asrwt>
<pdfrwt beam="1">  1        1 0.68723565E-01 0.93427535E+02</pdfrwt>
<pdfrwt beam="2">  1       -1 0.41429866E-02 0.93427535E+02</pdfrwt>
<totfact> 0.11263471E+04</totfact>
</mgrwt>
</event>
<event>
 8    1  0.2964543E-004  0.9668848E+02  0.7546771E-02  0.1287454E+00
         -1   -1    0    0    0  501 -0.00000000000E+00  0.00000000000E+00  0.24302676549E+03  0.24302676549E+03  0.00000000000E+00 0.  1.
          1   -1    0    0  501    0  0.00000000000E+00 -0.00000000000E+00 -0.10064732556E+03  0.10064732556E+03  0.00000000000E+00 0. -1.
         23    2    1    2    0    0 -0.17293457028E+02  0.27964521634E+02 -0.63893738355E+02  0.11589250527E+03  0.90926260507E+02 0.  0.
         23    2    1    2    0    0  0.17293457028E+02 -0.27964521634E+02  0.20627317829E+03  0.22778158578E+03  0.90855647111E+02 0.  0.
          5    1    4    4  502    0  0.43611548949E+02  0.12210548297E+02  0.72947539973E+02  0.85991268624E+02  0.47000000000E+01 0. -1.
         -5    1    3    3    0  503 -0.11207580807E+02 -0.29661698992E+02 -0.44016169553E+02  0.54451257439E+02  0.47000000000E+01 0.  1.
          5    1    3    3  503    0 -0.60858762212E+01  0.57626220627E+02 -0.19877568803E+02  0.61441247827E+02  0.47000000000E+01 0. -1.
         -5    1    4    4    0  502 -0.26318091921E+02 -0.40175069931E+02  0.13332563832E+03  0.14179031716E+03  0.47000000000E+01 0.  1.
<mgrwt>
<rscale>  0 0.96671879E+02</rscale>
<asrwt>0</asrwt>
<pdfrwt beam="1">  1        1 0.15484204E-01 0.96688484E+02</pdfrwt>
<pdfrwt beam="2">  1       -1 0.37388733E-01 0.96688484E+02</pdfrwt>
<totfact> 0.23723879E+03</totfact>
</mgrwt>
</event>
<event>
 8    1  0.2964543E-004  0.1046509E+03  0.7546771E-02  0.1271161E+00
          2   -1    0    0  501    0  0.00000000000E+00  0.00000000000E+00  0.47286693262E+03  0.47286693262E+03  0.00000000000E+00 0. -1.
         -2   -1    0    0    0  501 -0.00000000000E+00 -0.00000000000E+00 -0.31510525656E+02  0.31510525656E+02  0.00000000000E+00 0.  1.
         23    2    1    2    0    0 -0.37245695743E+00  0.48271841702E+02  0.35225821667E+03  0.36747470749E+03  0.92852032852E+02 0.  0.
         23    2    1    2    0    0  0.37245695743E+00 -0.48271841702E+02  0.89098190292E+02  0.13690275079E+03  0.92051975723E+02 0.  0.
          5    1    3    3  502    0 -0.42497661663E+02  0.41579187456E+02  0.23986183474E+03  0.24716526828E+03  0.47000000000E+01 0. -1.
         -5    1    3    3    0  502  0.42125204706E+02  0.66926542457E+01  0.11239638193E+03  0.12030943921E+03  0.47000000000E+01 0.  1.
          5    1    4    4  503    0  0.44727408016E+02 -0.13137163988E+02  0.45559094746E+02  0.65351719332E+02  0.47000000000E+01 0. -1.
         -5    1    4    4    0  503 -0.44354951059E+02 -0.35134677714E+02  0.43539095546E+02  0.71551031456E+02  0.47000000000E+01 0.  1.
<mgrwt>
<rscale>  0 0.10447314E+03</rscale>
<asrwt>0</asrwt>
<pdfrwt beam="1">  1        2 0.72748754E-01 0.10465089E+03</pdfrwt>
<pdfrwt beam="2">  1       -2 0.48477735E-02 0.10465089E+03</pdfrwt>
<totfact> 0.12625936E+04</totfact>
</mgrwt>
</event>
<event>
 8    1  0.2964543E-004  0.1048205E+03  0.7546771E-02  0.1270723E+00
          1   -1    0    0  501    0  0.00000000000E+00  0.00000000000E+00  0.13284571370E+03  0.13284571370E+03  0.00000000000E+00 0. -1.
         -1   -1    0    0    0  501 -0.00000000000E+00 -0.00000000000E+00 -0.91077405624E+02  0.91077405624E+02  0.00000000000E+00 0.  1.
         23    2    1    2    0    0  0.33237582625E+02 -0.39935952549E+02 -0.13896641990E+02  0.10523902342E+03  0.90457272712E+02 0.  0.
         23    2    1    2    0    0 -0.33237582625E+02  0.39935952549E+02  0.55664950068E+02  0.11868409591E+03  0.91036864790E+02 0.  0.
          5    1    4    4  502    0  0.24549556533E+02 -0.75107622657E+01  0.29358078786E+02  0.39282045082E+02  0.47000000000E+01 0.  1.
         -5    1    3    3    0  503 -0.23796454179E+02  0.11360872831E+02 -0.88970156377E+01  0.28223882621E+02  0.47000000000E+01 0.  1.
          5    1    3    3  503    0  0.57034036804E+02 -0.51296825380E+02 -0.49996263528E+01  0.77015140796E+02  0.47000000000E+01 0. -1.
         -5    1    4    4    0  502 -0.57787139159E+02  0.47446714815E+02  0.26306871281E+02  0.79402050827E+02  0.47000000000E+01 0.  1.
<mgrwt>
<rscale>  0 0.10469448E+03</rscale>
<asrwt>0</asrwt>
<pdfrwt beam="1">  1        1 0.20437802E-01 0.10482046E+03</pdfrwt>
<pdfrwt beam="2">  1       -1 0.14011909E-01 0.10482046E+03</pdfrwt>
<totfact> 0.82295705E+03</totfact>
</mgrwt>
</event>
<event>
 8    1  0.2964543E-004  0.1054883E+03  0.7546771E-02  0.1269352E+00
          2   -1    0    0  501    0  0.00000000000E+00  0.00000000000E+00  0.12409290901E+03  0.12409290901E+03  0.00000000000E+00 0. -1.
         -2   -1    0    0    0  501 -0.00000000000E+00 -0.00000000000E+00 -0.11241760270E+03  0.11241760270E+03  0.00000000000E+00 0.  1.
         23    2    1    2    0    0 -0.53358860062E+02 -0.12205070004E+02 -0.47749595641E+02  0.11543573981E+03  0.89717637401E+02 0.  0.
         23    2    1    2    0    0  0.53358860062E+02  0.12205070004E+02  0.59424901958E+02  0.12107477190E+03  0.90175660447E+02 0.  0.
          5    1    3    3  502    0 -0.58520875743E+00  0.26835183916E+02 -0.41066078599E+02  0.49284707330E+02  0.47000000000E+01 0. -1.
         -5    1    3    3    0  502 -0.52773651305E+02 -0.39040253920E+02 -0.66835170422E+01  0.66151032481E+02  0.47000000000E+01 0.  1.
          5    1    4    4  503    0  0.49750526815E+02 -0.32605278804E+02  0.27274062714E+02  0.65606277300E+02  0.47000000000E+01 0. -1.
         -5    1    4    4    0  503  0.36083332472E+01  0.44810348808E+02  0.32150839243E+02  0.55468494600E+02  0.47000000000E+01 0.  1.
<mgrwt>
<rscale>  0 0.10539035E+03</rscale>
<asrwt>0</asrwt>
<pdfrwt beam="1">  1        2 0.19091217E-01 0.10548830E+03</pdfrwt>
<pdfrwt beam="2">  1       -2 0.17295016E-01 0.10548830E+03</pdfrwt>
<totfact> 0.73280018E+03</totfact>
</mgrwt>
</event>
<event>
 8    1  0.2964543E-004  0.1172995E+03  0.7546771E-02  0.1248339E+00
          1   -1    0    0  501    0  0.00000000000E+00  0.00000000000E+00  0.28583781285E+03  0.28583781285E+03  0.00000000000E+00 0. -1.
         -1   -1    0    0    0  501 -0.00000000000E+00 -0.00000000000E+00 -0.95530587467E+02  0.95530587467E+02  0.00000000000E+00 0.  1.
         23    2    1    2    0    0 -0.13080619480E+01 -0.70463364196E+02 -0.40463988977E+02  0.12249674591E+03  0.91658723724E+02 0.  0.
         23    2    1    2    0    0  0.13080619480E+01  0.70463364196E+02  0.23077121436E+03  0.25887165441E+03  0.93767709576E+02 0.  0.
          5    1    3    3  502    0 -0.78617987004E+01  0.20552002846E+02  0.15931188748E+00  0.22501290631E+02  0.47000000000E+01 0. -1.
         -5    1    4    4    0  503  0.24580568988E+02  0.78670103883E+02  0.21201694165E+03  0.22752244541E+03  0.47000000000E+01 0. -1.
          5    1    4    4  503    0 -0.23272507040E+02 -0.82067396876E+01  0.18754272710E+02  0.31349209003E+02  0.47000000000E+01 0.  1.
         -5    1    3    3    0  502  0.65537367524E+01 -0.91015367042E+02 -0.40623300864E+02  0.99995455278E+02  0.47000000000E+01 0.  1.
<mgrwt>
<rscale>  0 0.11687752E+03</rscale>
<asrwt>0</asrwt>
<pdfrwt beam="1">  1        1 0.43975048E-01 0.11729953E+03</pdfrwt>
<pdfrwt beam="2">  1       -1 0.14697014E-01 0.11729953E+03</pdfrwt>
<totfact> 0.29782001E+03</totfact>
</mgrwt>
</event>
<event>
 8    1  0.2964543E-004  0.9761066E+02  0.7546771E-02  0.1292855E+00
         -2   -1    0    0    0  501 -0.00000000000E+00  0.00000000000E+00  0.87190101477E+02  0.87190101477E+02  0.00000000000E+00 0.  1.
          2   -1    0    0  501    0  0.00000000000E+00 -0.00000000000E+00 -0.16231636553E+03  0.16231636553E+03  0.00000000000E+00 0. -1.
         23    2    1    2    0    0  0.32314182182E+02  0.14023008561E+02  0.40829667396E+02  0.10580596254E+03  0.91032899716E+02 0.  0.
         23    2    1    2    0    0 -0.32314182182E+02 -0.14023008561E+02 -0.11595593145E+03  0.14370050447E+03  0.77221796183E+02 0.  0.
          5    1    3    3  502    0  0.41309645997E+00  0.46838767948E+02  0.47032935852E+01  0.47310165949E+02  0.47000000000E+01 0. -1.
         -5    1    3    3    0  502  0.31901085722E+02 -0.32815759387E+02  0.36126373811E+02  0.58495796594E+02  0.47000000000E+01 0.  1.
          5    1    4    4  503    0  0.20102351295E+02  0.13190372532E+02 -0.45227295659E+02  0.51436258881E+02  0.47000000000E+01 0. -1.
         -5    1    4    4    0  503 -0.52416533477E+02 -0.27213381092E+02 -0.70728635793E+02  0.92264245585E+02  0.47000000000E+01 0.  1.
<mgrwt>
<rscale>  0 0.94258400E+02</rscale>
<asrwt>0</asrwt>
<pdfrwt beam="1">  1        2 0.24971749E-01 0.97610655E+02</pdfrwt>
<pdfrwt beam="2">  1       -2 0.13413862E-01 0.97610655E+02</pdfrwt>
<totfact> 0.81698449E+03</totfact>
</mgrwt>
</event>
<event>
 8    1  0.2964543E-004  0.9527637E+02  0.7546771E-02  0.1291112E+00
         -3   -1    0    0    0  501 -0.00000000000E+00  0.00000000000E+00  0.29158655008E+03  0.29158655008E+03  0.00000000000E+00 0.  1.
          3   -1    0    0  501    0  0.00000000000E+00 -0.00000000000E+00 -0.67842007904E+02  0.67842007904E+02  0.00000000000E+00 0. -1.
         23    2    1    2    0    0 -0.70655304783E+01 -0.22710545499E+02  0.24491264292E+03  0.26279229148E+03  0.92259932791E+02 0.  0.
         23    2    1    2    0    0  0.70655304783E+01  0.22710545499E+02 -0.21168100745E+02  0.96636266509E+02  0.91240281224E+02 0.  0.
          5    1    3    3  502    0 -0.47290238411E+02  0.24352430220E+01  0.12509334098E+03  0.13383845118E+03  0.47000000000E+01 0. -1.
         -5    1    4    4    0  503  0.36254357462E+02  0.14282712626E+01  0.19975339261E+02  0.41683600761E+02  0.47000000000E+01 0.  1.
          5    1    4    4  503    0 -0.29188826983E+02  0.21282274237E+02 -0.41143440006E+02  0.54952665749E+02  0.47000000000E+01 0. -1.
         -5    1    3    3    0  502  0.40224707932E+02 -0.25145788521E+02  0.11981930195E+03  0.12895384030E+03  0.47000000000E+01 0.  1.
<mgrwt>
<rscale>  0 0.95028644E+02</rscale>
<asrwt>0</asrwt>
<pdfrwt beam="1">  1        3 0.10437232E-01 0.95276365E+02</pdfrwt>
<pdfrwt beam="2">  1       -3 0.44859468E-01 0.95276365E+02</pdfrwt>
<totfact> 0.74305820E+02</totfact>
</mgrwt>
</event>
<event>
 8    1  0.2964543E-004  0.1660495E+03  0.7546771E-02  0.1184129E+00
          1   -1    0    0  501    0  0.00000000000E+00  0.00000000000E+00  0.21574212808E+03  0.21574212808E+03  0.00000000000E+00 0. -1.
         -1   -1    0    0    0  501 -0.00000000000E+00 -0.00000000000E+00 -0.13495943842E+03  0.13495943842E+03  0.00000000000E+00 0.  1.
         23    2    1    2    0    0 -0.10683618280E+03  0.70069433987E+02 -0.13045019695E+02  0.16656109761E+03  0.10606003567E+03 0.  0.
         23    2    1    2    0    0  0.10683618280E+03 -0.70069433987E+02  0.93827709350E+02  0.18414046888E+03  0.93703669642E+02 0.  0.
          5    1    3    3  502    0 -0.86284704700E+02  0.59052932117E+02 -0.55073099875E+02  0.11826848856E+03  0.47000000000E+01 0. -1.
         -5    1    4    4    0  503  0.81247301305E+02 -0.93188311306E+00  0.30752235755E+02  0.87004496317E+02  0.47000000000E+01 0.  1.
          5    1    4    4  503    0  0.25588881492E+02 -0.69137550874E+02  0.63075473595E+02  0.97135972565E+02  0.47000000000E+01 0. -1.
         -5    1    3    3    0  502 -0.20551478097E+02  0.11016501870E+02  0.42028080180E+02  0.48292609052E+02  0.47000000000E+01 0.  1.
<mgrwt>
<rscale>  0 0.16411419E+03</rscale>
<asrwt>0</asrwt>
<pdfrwt beam="1">  1        1 0.33191097E-01 0.16604947E+03</pdfrwt>
<pdfrwt beam="2">  1       -1 0.20762991E-01 0.16604947E+03</pdfrwt>
<totfact> 0.24739099E+03</totfact>
</mgrwt>
</event>
<event>
 8    1  0.2964543E-004  0.1683420E+03  0.7546771E-02  0.1179602E+00
         -1   -1    0    0    0  501 -0.00000000000E+00  0.00000000000E+00  0.38524183300E+02  0.38524183300E+02  0.00000000000E+00 0.  1.
          1   -1    0    0  501    0  0.00000000000E+00 -0.00000000000E+00 -0.73788105511E+03  0.73788105511E+03  0.00000000000E+00 0. -1.
         23    2    1    2    0    0 -0.81516714157E+02 -0.11548429718E+03 -0.37217672676E+03  0.40845701810E+03  0.91323721546E+02 0.  0.
         23    2    1    2    0    0  0.81516714157E+02  0.11548429718E+03 -0.32718014505E+03  0.36794822030E+03  0.91419078579E+02 0.  0.
          5    1    4    4  502    0  0.58233556642E+02  0.88605788684E+01 -0.11709783463E+03  0.13116268468E+03  0.47000000000E+01 0. -1.
         -5    1    4    4    0  502  0.23283157515E+02  0.10662371831E+03 -0.21008231042E+03  0.23678553563E+03  0.47000000000E+01 0.  1.
          5    1    3    3  503    0 -0.31597165616E+02 -0.10961135027E+03 -0.29407267345E+03  0.31545816878E+03  0.47000000000E+01 0. -1.
         -5    1    3    3    0  503 -0.49919548540E+02 -0.58729469108E+01 -0.78104053309E+02  0.92998849322E+02  0.47000000000E+01 0.  1.
<mgrwt>
<rscale>  0 0.16832911E+03</rscale>
<asrwt>0</asrwt>
<pdfrwt beam="1">  1        1 0.11352016E+00 0.16834205E+03</pdfrwt>
<pdfrwt beam="2">  1       -1 0.59267978E-02 0.16834205E+03</pdfrwt>
<totfact> 0.34914653E+03</totfact>
</mgrwt>
</event>
<event>
 8    1  0.2983585E-004  0.1667891E+03  0.7546771E-02  0.1182945E+00
          1   -1    0    0  501    0  0.00000000000E+00  0.00000000000E+00  0.56925443660E+03  0.56925443660E+03  0.00000000000E+00 0. -1.
         -1   -1    0    0    0  501 -0.00000000000E+00 -0.00000000000E+00 -0.84987518908E+02  0.84987518908E+02  0.00000000000E+00 0.  1.
         23    2    1    2    0    0  0.39806932627E+02  0.12480179615E+03  0.45809850870E+03  0.48541248576E+03  0.92795244731E+02 0.  0.
         23    2    1    2    0    0 -0.39806932627E+02 -0.12480179615E+03  0.26168408993E+02  0.16882946975E+03  0.10324012795E+03 0.  0.
          5    1    3    3  502    0  0.12418863112E+02  0.13063254961E+03  0.39408804193E+03  0.41538724820E+03  0.47000000000E+01 0. -1.
         -5    1    3    3    0  502  0.27388069515E+02 -0.58307534599E+01  0.64010466775E+02  0.70025237554E+02  0.47000000000E+01 0.  1.
          5    1    4    4  503    0 -0.20912950797E+02  0.78087087875E+01  0.26276085345E+02  0.34797271517E+02  0.47000000000E+01 0. -1.
         -5    1    4    4    0  503 -0.18893981830E+02 -0.13261050494E+03 -0.10767635168E+00  0.13403219824E+03  0.47000000000E+01 0.  1.
<mgrwt>
<rscale>  0 0.16520274E+03</rscale>
<asrwt>0</asrwt>
<pdfrwt beam="1">  1        1 0.87577603E-01 0.16678910E+03</pdfrwt>
<pdfrwt beam="2">  1       -1 0.13075003E-01 0.16678910E+03</pdfrwt>
<totfact> 0.15038920E+03</totfact>
</mgrwt>
</event>
<event>
 8    1  0.2964543E-004  0.9990122E+02  0.7546771E-02  0.1280682E+00
         -3   -1    0    0    0  501 -0.00000000000E+00  0.00000000000E+00  0.37635588548E+02  0.37635588548E+02  0.00000000000E+00 0.  1.
          3   -1    0    0  501    0  0.00000000000E+00 -0.00000000000E+00 -0.27011041799E+03  0.27011041799E+03  0.00000000000E+00 0. -1.
         23    2    1    2    0    0  0.35951968105E+02 -0.11923557529E+02 -0.13902320029E+03  0.17119492986E+03  0.92442082171E+02 0.  0.
         23    2    1    2    0    0 -0.35951968105E+02  0.11923557529E+02 -0.93451629160E+02  0.13655107669E+03  0.92077545127E+02 0.  0.
          5    1    3    3  502    0 -0.11986335460E+01 -0.31610299185E+02 -0.72429188165E+01  0.32790206006E+02  0.47000000000E+01 0. -1.
         -5    1    4    4    0  503 -0.14930325924E+02 -0.25151039850E+02  0.41812314719E+01  0.29917589047E+02  0.47000000000E+01 0.  1.
          5    1    4    4  503    0 -0.21021642181E+02  0.37074597379E+02 -0.97632860632E+02  0.10663348764E+03  0.47000000000E+01 0. -1.
         -5    1    3    3    0  502  0.37150601651E+02  0.19686741656E+02 -0.13178028147E+03  0.13840472385E+03  0.47000000000E+01 0.  1.
<mgrwt>
<rscale>  0 0.99816808E+02</rscale>
<asrwt>0</asrwt>
<pdfrwt beam="1">  1        3 0.41555446E-01 0.99901220E+02</pdfrwt>
<pdfrwt beam="2">  1       -3 0.57900909E-02 0.99901220E+02</pdfrwt>
<totfact> 0.22478287E+03</totfact>
</mgrwt>
</event>
<event>
 8    1  0.2964543E-004  0.9908240E+02  0.7546771E-02  0.1286328E+00
         -4   -1    0    0    0  501 -0.00000000000E+00  0.00000000000E+00  0.32652778583E+03  0.32652778583E+03  0.00000000000E+00 0.  1.
          4   -1    0    0  501    0  0.00000000000E+00 -0.00000000000E+00 -0.60653636713E+02  0.60653636713E+02  0.00000000000E+00 0. -1.
         23    2    1    2    0    0 -0.67476990870E+01  0.21986488768E+01  0.27285313206E+03  0.28785353566E+03  0.91435555523E+02 0.  0.
         23    2    1    2    0    0  0.67476990870E+01 -0.21986488768E+01 -0.69789829520E+01  0.99327886879E+02  0.98827918166E+02 0.  0.
          5    1    3    3  502    0 -0.47359630473E+02  0.82263756083E+00  0.18365157562E+03  0.18971980012E+03  0.47000000000E+01 0. -1.
         -5    1    4    4    0  503  0.22718368283E+02  0.31487531562E+02  0.27913366471E+02  0.48050337450E+02  0.47000000000E+01 0.  1.
          5    1    4    4  503    0 -0.15970669196E+02 -0.33686180439E+02 -0.34892349423E+02  0.51277549429E+02  0.47000000000E+01 0. -1.
         -5    1    3    3    0  502  0.40611931386E+02  0.13760113160E+01  0.89201556447E+02  0.98133735538E+02  0.47000000000E+01 0.  1.
<mgrwt>
<rscale>  0 0.97185671E+02</rscale>
<asrwt>0</asrwt>
<pdfrwt beam="1">  1        4 0.93313289E-02 0.99082405E+02</pdfrwt>
<pdfrwt beam="2">  1       -4 0.50235043E-01 0.99082405E+02</pdfrwt>
<totfact> 0.50880525E+02</totfact>
</mgrwt>
</event>
<event>
 8    1  0.2964543E-004  0.9245206E+02  0.7546771E-02  0.1298354E+00
         -1   -1    0    0    0  501 -0.00000000000E+00  0.00000000000E+00  0.17596903184E+02  0.17596903184E+02  0.00000000000E+00 0.  1.
          1   -1    0    0  501    0  0.00000000000E+00 -0.00000000000E+00 -0.47416104010E+03  0.47416104010E+03  0.00000000000E+00 0. -1.
         23    2    1    2    0    0 -0.15017233536E+02 -0.10803419504E+01 -0.22044387021E+03  0.23818317322E+03  0.88932781642E+02 0.  0.
         23    2    1    2    0    0  0.15017233536E+02  0.10803419504E+01 -0.23612026671E+03  0.25357477007E+03  0.91217866786E+02 0.  0.
          5    1    4    4  502    0  0.43546244528E+02  0.16631628977E+02 -0.19704601784E+03  0.20253915582E+03  0.47000000000E+01 0. -1.
         -5    1    4    4    0  502 -0.28529010992E+02 -0.15551287027E+02 -0.39074248872E+02  0.51035614244E+02  0.47000000000E+01 0.  1.
          5    1    3    3  503    0 -0.97476772474E+01  0.43500934809E+02 -0.11842554595E+03  0.12662562330E+03  0.47000000000E+01 0. -1.
         -5    1    3    3    0  503 -0.52695562887E+01 -0.44581276759E+02 -0.10201832425E+03  0.11155754992E+03  0.47000000000E+01 0.  1.
<mgrwt>
<rscale>  0 0.91883383E+02</rscale>
<asrwt>0</asrwt>
<pdfrwt beam="1">  1        1 0.72947846E-01 0.92452061E+02</pdfrwt>
<pdfrwt beam="2">  1       -1 0.27072161E-02 0.92452061E+02</pdfrwt>
<totfact> 0.19301374E+04</totfact>
</mgrwt>
</event>
<event>
 8    1  0.2964543E-004  0.1108434E+03  0.7546771E-02  0.1266721E+00
         -2   -1    0    0    0  501 -0.00000000000E+00  0.00000000000E+00  0.74912790845E+02  0.74912790845E+02  0.00000000000E+00 0.  1.
          2   -1    0    0  501    0  0.00000000000E+00 -0.00000000000E+00 -0.41550968968E+03  0.41550968968E+03  0.00000000000E+00 0. -1.
         23    2    1    2    0    0 -0.28579644301E+02  0.15686240918E+02  0.32879702844E+02  0.10084445365E+03  0.89586130351E+02 0.  0.
         23    2    1    2    0    0  0.28579644301E+02 -0.15686240918E+02 -0.37347660168E+03  0.38957802687E+03  0.10594060976E+03 0.  0.
          5    1    3    3  502    0 -0.36820928131E+02 -0.28199630398E+02  0.26001987310E+01  0.46688873797E+02  0.47000000000E+01 0. -1.
         -5    1    4    4    0  503  0.14739104444E+02  0.40881768530E+02 -0.88891048444E+02  0.99056896234E+02  0.47000000000E+01 0.  1.
          5    1    4    4  503    0  0.13840539858E+02 -0.56568009448E+02 -0.28458555323E+03  0.29052113063E+03  0.47000000000E+01 0. -1.
         -5    1    3    3    0  502  0.82412838299E+01  0.43885871316E+02  0.30279504113E+02  0.54155579857E+02  0.47000000000E+01 0.  1.
<mgrwt>
<rscale>  0 0.10674417E+03</rscale>
<asrwt>0</asrwt>
<pdfrwt beam="1">  1        2 0.63924567E-01 0.11084343E+03</pdfrwt>
<pdfrwt beam="2">  1       -2 0.11525045E-01 0.11084343E+03</pdfrwt>
<totfact> 0.38673047E+03</totfact>
</mgrwt>
</event>
<event>
 8    1  0.2964543E-004  0.9237881E+02  0.7546771E-02  0.1297327E+00
          2   -1    0    0  501    0  0.00000000000E+00  0.00000000000E+00  0.55586346698E+02  0.55586346698E+02  0.00000000000E+00 0. -1.
         -2   -1    0    0    0  501 -0.00000000000E+00 -0.00000000000E+00 -0.36983758347E+03  0.36983758347E+03  0.00000000000E+00 0.  1.
         23    2    1    2    0    0  0.97535746453E+01 -0.10456374016E+02 -0.32003001833E+03  0.33309616712E+03  0.91265414843E+02 0.  0.
         23    2    1    2    0    0 -0.97535746453E+01  0.10456374016E+02  0.57787815563E+01  0.92327763043E+02  0.91030508821E+02 0.  0.
          5    1    3    3  502    0 -0.34068104851E+02 -0.28549692301E+02 -0.15004540762E+03  0.15656128208E+03  0.47000000000E+01 0. -1.
         -5    1    4    4    0  503  0.17498467430E+02  0.23288161176E+02 -0.32168377837E+02  0.43651223878E+02  0.47000000000E+01 0.  1.
          5    1    4    4  503    0 -0.27252042075E+02 -0.12831787160E+02  0.37947159394E+02  0.48676539165E+02  0.47000000000E+01 0. -1.
         -5    1    3    3    0  502  0.43821679496E+02  0.18093318285E+02 -0.16998461070E+03  0.17653488504E+03  0.47000000000E+01 0.  1.
<mgrwt>
<rscale>  0 0.92320735E+02</rscale>
<asrwt>0</asrwt>
<pdfrwt beam="1">  1        2 0.85517459E-02 0.92378807E+02</pdfrwt>
<pdfrwt beam="2">  1       -2 0.56898088E-01 0.92378807E+02</pdfrwt>
<totfact> 0.21700328E+03</totfact>
</mgrwt>
</event>
<event>
 8    1  0.2964543E-004  0.1707715E+03  0.7546771E-02  0.1177322E+00
          2   -1    0    0  501    0  0.00000000000E+00  0.00000000000E+00  0.15980517713E+04  0.15980517713E+04  0.00000000000E+00 0. -1.
         -2   -1    0    0    0  501 -0.00000000000E+00 -0.00000000000E+00 -0.20788765329E+02  0.20788765329E+02  0.00000000000E+00 0.  1.
         23    2    1    2    0    0  0.14384428801E+03  0.11306733877E+02  0.49731883052E+03  0.52547768066E+03  0.89340652876E+02 0.  0.
         23    2    1    2    0    0 -0.14384428801E+03 -0.11306733877E+02  0.10799441754E+04  0.10933628560E+04  0.91344902991E+02 0.  0.
          5    1    4    4  502    0 -0.11532023573E+03 -0.30932463080E+02  0.98448532003E+03  0.99171014384E+03  0.47000000000E+01 0. -1.
         -5    1    4    4    0  502 -0.28524052280E+02  0.19625729203E+02  0.95458855415E+02  0.10165271213E+03  0.47000000000E+01 0.  1.
          5    1    3    3  503    0  0.45764455672E+02 -0.38130718990E+02  0.17893414560E+03  0.18864743729E+03  0.47000000000E+01 0. -1.
         -5    1    3    3    0  503  0.98079832339E+02  0.49437452867E+02  0.31838468492E+03  0.33683024337E+03  0.47000000000E+01 0.  1.
<mgrwt>
<rscale>  0 0.17050499E+03</rscale>
<asrwt>0</asrwt>
<pdfrwt beam="1">  1        2 0.24585402E+00 0.17077152E+03</pdfrwt>
<pdfrwt beam="2">  1       -2 0.31982728E-02 0.17077152E+03</pdfrwt>
<totfact> 0.46238147E+03</totfact>
</mgrwt>
</event>
<event>
 8    1  0.2964543E-004  0.9729515E+02  0.7546771E-02  0.1287165E+00
          1   -1    0    0  501    0  0.00000000000E+00  0.00000000000E+00  0.71728336641E+02  0.71728336641E+02  0.00000000000E+00 0. -1.
         -1   -1    0    0    0  501 -0.00000000000E+00 -0.00000000000E+00 -0.12934057301E+03  0.12934057301E+03  0.00000000000E+00 0.  1.
         23    2    1    2    0    0  0.16624337859E+02  0.22985252665E+02 -0.29236141962E+02  0.10159280829E+03  0.93068019480E+02 0.  0.
         23    2    1    2    0    0 -0.16624337859E+02 -0.22985252665E+02 -0.28376094410E+02  0.99476101364E+02  0.91025279782E+02 0.  0.
          5    1    3    3  502    0  0.40347624098E+02 -0.20078312162E+02 -0.25661678607E+02  0.52073804726E+02  0.47000000000E+01 0. -1.
         -5    1    4    4    0  503 -0.52189950155E+02 -0.26413631458E+02 -0.12021855094E+02  0.59900632918E+02  0.47000000000E+01 0.  1.
          5    1    4    4  503    0  0.35565612296E+02  0.34283787929E+01 -0.16354239316E+02  0.39575468447E+02  0.47000000000E+01 0. -1.
         -5    1    3    3    0  502 -0.23723286239E+02  0.43063564828E+02 -0.35744633541E+01  0.49519003564E+02  0.47000000000E+01 0.  1.
<mgrwt>
<rscale>  0 0.96803405E+02</rscale>
<asrwt>0</asrwt>
<pdfrwt beam="1">  1        1 0.11035129E-01 0.97295152E+02</pdfrwt>
<pdfrwt beam="2">  1       -1 0.19898550E-01 0.97295152E+02</pdfrwt>
<totfact> 0.10396974E+04</totfact>
</mgrwt>
</event>
<event>
 8    1  0.2964543E-004  0.9595806E+02  0.7546771E-02  0.1289635E+00
          2   -1    0    0  501    0  0.00000000000E+00  0.00000000000E+00  0.17752814991E+03  0.17752814991E+03  0.00000000000E+00 0. -1.
         -2   -1    0    0    0  501 -0.00000000000E+00 -0.00000000000E+00 -0.52035706479E+02  0.52035706479E+02  0.00000000000E+00 0.  1.
         23    2    1    2    0    0 -0.21547600624E+02  0.15991955462E+02  0.76865781782E+02  0.12294835462E+03  0.92129841864E+02 0.  0.
         23    2    1    2    0    0  0.21547600624E+02 -0.15991955462E+02  0.48626661653E+02  0.10661550178E+03  0.91006984695E+02 0.  0.
          5    1    4    4  502    0 -0.17479237573E+02  0.25379268080E+02  0.36989604655E+02  0.48373048767E+02  0.47000000000E+01 0. -1.
         -5    1    3    3    0  503 -0.48902167186E+02 -0.15237206231E+02  0.27675109963E+02  0.58408870223E+02  0.47000000000E+01 0.  1.
          5    1    3    3  503    0  0.27354566562E+02  0.31229161692E+02  0.49190671819E+02  0.64539484394E+02  0.47000000000E+01 0. -1.
         -5    1    4    4    0  502  0.39026838197E+02 -0.41371223542E+02  0.11637056998E+02  0.58242453010E+02  0.47000000000E+01 0.  1.
<mgrwt>
<rscale>  0 0.95687534E+02</rscale>
<asrwt>0</asrwt>
<pdfrwt beam="1">  1        2 0.27312023E-01 0.95958061E+02</pdfrwt>
<pdfrwt beam="2">  1       -2 0.80054934E-02 0.95958061E+02</pdfrwt>
<totfact> 0.16586473E+04</totfact>
</mgrwt>
</event>
<event>
 8    1  0.2964543E-004  0.9708356E+02  0.7546771E-02  0.1286737E+00
         -1   -1    0    0    0  501 -0.00000000000E+00  0.00000000000E+00  0.66840233763E+02  0.66840233763E+02  0.00000000000E+00 0.  1.
          1   -1    0    0  501    0  0.00000000000E+00 -0.00000000000E+00 -0.14865711224E+03  0.14865711224E+03  0.00000000000E+00 0. -1.
         23    2    1    2    0    0 -0.15188895861E+02  0.25558190113E+02 -0.66050082693E+02  0.11714181808E+03  0.92063393808E+02 0.  0.
         23    2    1    2    0    0  0.15188895861E+02 -0.25558190113E+02 -0.15766795786E+02  0.98355527926E+02  0.92419123481E+02 0.  0.
          5    1    3    3  502    0 -0.11890219142E+02 -0.32886860507E+02 -0.11835698955E+02  0.37216886960E+02  0.47000000000E+01 0. -1.
         -5    1    3    3    0  502 -0.32986767197E+01  0.58445050620E+02 -0.54214383737E+02  0.79924931117E+02  0.47000000000E+01 0.  1.
          5    1    4    4  503    0  0.37556890794E+02 -0.10342262229E+02  0.26931346037E+02  0.47590648592E+02  0.47000000000E+01 0. -1.
         -5    1    4    4    0  503 -0.22367994932E+02 -0.15215927884E+02 -0.42698141823E+02  0.50764879334E+02  0.47000000000E+01 0.  1.
<mgrwt>
<rscale>  0 0.96998807E+02</rscale>
<asrwt>0</asrwt>
<pdfrwt beam="1">  1        1 0.22870325E-01 0.97083562E+02</pdfrwt>
<pdfrwt beam="2">  1       -1 0.10283113E-01 0.97083562E+02</pdfrwt>
<totfact> 0.11401296E+04</totfact>
</mgrwt>
</event>
<event>
 8    1  0.2964543E-004  0.1870393E+03  0.7546771E-02  0.1161894E+00
         -1   -1    0    0    0  501 -0.00000000000E+00  0.00000000000E+00  0.12585415772E+03  0.12585415772E+03  0.00000000000E+00 0.  1.
          1   -1    0    0  501    0  0.00000000000E+00 -0.00000000000E+00 -0.27351964154E+03  0.27351964154E+03  0.00000000000E+00 0. -1.
         23    2    1    2    0    0  0.58858057281E+02  0.15672386289E+03 -0.67421199465E+02  0.19584774229E+03  0.76053138764E+02 0.  0.
         23    2    1    2    0    0 -0.58858057281E+02 -0.15672386289E+03 -0.80244284360E+02  0.20352605698E+03  0.83409055809E+02 0.  0.
          5    1    3    3  502    0 -0.25276627148E+01  0.69544076158E+02 -0.54145716975E+02  0.88298450011E+02  0.47000000000E+01 0. -1.
         -5    1    3    3    0  502  0.61385719996E+02  0.87179786729E+02 -0.13275482490E+02  0.10754929228E+03  0.47000000000E+01 0.  1.
          5    1    4    4  503    0 -0.64743033620E+02 -0.59276520073E+02 -0.50419026071E+02  0.10133871138E+03  0.47000000000E+01 0. -1.
         -5    1    4    4    0  503  0.58849763386E+01 -0.97447342815E+02 -0.29825258289E+02  0.10218734560E+03  0.47000000000E+01 0.  1.
<mgrwt>
<rscale>  0 0.18624366E+03</rscale>
<asrwt>0</asrwt>
<pdfrwt beam="1">  1        1 0.42079945E-01 0.18703933E+03</pdfrwt>
<pdfrwt beam="2">  1       -1 0.19362178E-01 0.18703933E+03</pdfrwt>
<totfact> 0.20685665E+03</totfact>
</mgrwt>
</event>
<event>
 8    1  0.2964543E-004  0.1098244E+03  0.7546771E-02  0.1261150E+00
         -1   -1    0    0    0  501 -0.00000000000E+00  0.00000000000E+00  0.45389783884E+03  0.45389783884E+03  0.00000000000E+00 0.  1.
          1   -1    0    0  501    0  0.00000000000E+00 -0.00000000000E+00 -0.26785110275E+02  0.26785110275E+02  0.00000000000E+00 0. -1.
         23    2    1    2    0    0 -0.30871502904E+02 -0.47530015487E+02  0.18683107747E+03  0.21671926488E+03  0.94070378956E+02 0.  0.
         23    2    1    2    0    0  0.30871502904E+02  0.47530015487E+02  0.24028165110E+03  0.26396368424E+03  0.93431272493E+02 0.  0.
          5    1    4    4  502    0  0.32239437708E+02  0.74032187134E+01  0.17833485134E+02  0.37872314203E+02  0.47000000000E+01 0. -1.
         -5    1    4    4    0  502 -0.13679348038E+01  0.40126796774E+02  0.22244816596E+03  0.22609137004E+03  0.47000000000E+01 0.  1.
          5    1    3    3  503    0  0.15747403218E+02  0.19851892377E+02  0.28798135625E+02  0.38645840067E+02  0.47000000000E+01 0. -1.
         -5    1    3    3    0  503 -0.46618906122E+02 -0.67381907864E+02  0.15803294184E+03  0.17807342481E+03  0.47000000000E+01 0.  1.
<mgrwt>
<rscale>  0 0.10968736E+03</rscale>
<asrwt>0</asrwt>
<pdfrwt beam="1">  1        1 0.41207865E-02 0.10982435E+03</pdfrwt>
<pdfrwt beam="2">  1       -1 0.69830431E-01 0.10982435E+03</pdfrwt>
<totfact> 0.44280224E+03</totfact>
</mgrwt>
</event>
<event>
 8    1  0.2964543E-004  0.1081890E+03  0.7546771E-02  0.1264303E+00
         -2   -1    0    0    0  501 -0.00000000000E+00  0.00000000000E+00  0.65707909400E+03  0.65707909400E+03  0.00000000000E+00 0.  1.
          2   -1    0    0  501    0  0.00000000000E+00 -0.00000000000E+00 -0.20648781134E+02  0.20648781134E+02  0.00000000000E+00 0. -1.
         23    2    1    2    0    0 -0.31093224189E+02 -0.47938804780E+02  0.18913748677E+03  0.21753690404E+03  0.91018669085E+02 0.  0.
         23    2    1    2    0    0  0.31093224189E+02  0.47938804780E+02  0.44729282609E+03  0.46019097110E+03  0.91869146112E+02 0.  0.
          5    1    3    3  502    0 -0.19147478208E+02 -0.73362092349E+02  0.11220196315E+03  0.13549905184E+03  0.47000000000E+01 0. -1.
         -5    1    4    4    0  503  0.37365138533E+02  0.67955309998E+02  0.25163732315E+03  0.26335814044E+03  0.47000000000E+01 0.  1.
          5    1    4    4  503    0 -0.62719143434E+01 -0.20016505218E+02  0.19565550295E+03  0.19683283066E+03  0.47000000000E+01 0. -1.
         -5    1    3    3    0  502 -0.11945745981E+02  0.25423287569E+02  0.76935523622E+02  0.82037852196E+02  0.47000000000E+01 0.  1.
<mgrwt>
<rscale>  0 0.10800823E+03</rscale>
<asrwt>0</asrwt>
<pdfrwt beam="1">  1        2 0.31767361E-02 0.10818899E+03</pdfrwt>
<pdfrwt beam="2">  1       -2 0.10108908E+00 0.10818899E+03</pdfrwt>
<totfact> 0.22795408E+03</totfact>
</mgrwt>
</event>
<event>
 8    1  0.2964543E-004  0.9588459E+02  0.7546771E-02  0.1289200E+00
          2   -1    0    0  501    0  0.00000000000E+00  0.00000000000E+00  0.38575233748E+03  0.38575233748E+03  0.00000000000E+00 0. -1.
         -2   -1    0    0    0  501 -0.00000000000E+00 -0.00000000000E+00 -0.44367353733E+02  0.44367353733E+02  0.00000000000E+00 0.  1.
         23    2    1    2    0    0 -0.23007539380E+00  0.25500196100E+02  0.24376241292E+02  0.98927303855E+02  0.92423467651E+02 0.  0.
         23    2    1    2    0    0  0.23007539380E+00 -0.25500196100E+02  0.31700874245E+03  0.33119238736E+03  0.92431281043E+02 0.  0.
          5    1    4    4  502    0  0.13626741606E+02  0.27683874735E+02  0.53012563228E+02  0.61518345777E+02  0.47000000000E+01 0. -1.
         -5    1    3    3    0  503  0.11392562637E+02  0.54244586992E+02  0.35111486667E+02  0.65781245027E+02  0.47000000000E+01 0. -1.
          5    1    3    3  503    0 -0.11622638031E+02 -0.28744390892E+02 -0.10735245376E+02  0.33146058828E+02  0.47000000000E+01 0.  1.
         -5    1    4    4    0  502 -0.13396666213E+02 -0.53184070835E+02  0.26399617923E+03  0.26967404158E+03  0.47000000000E+01 0.  1.
<mgrwt>
<rscale>  0 0.95882707E+02</rscale>
<asrwt>0</asrwt>
<pdfrwt beam="1">  1        2 0.59346511E-01 0.95884590E+02</pdfrwt>
<pdfrwt beam="2">  1       -2 0.68257470E-02 0.95884590E+02</pdfrwt>
<totfact> 0.93148576E+03</totfact>
</mgrwt>
</event>
<event>
 8    1  0.2964543E-004  0.1010891E+03  0.7546771E-02  0.1279022E+00
         -2   -1    0    0    0  501 -0.00000000000E+00  0.00000000000E+00  0.23114320641E+02  0.23114320641E+02  0.00000000000E+00 0.  1.
          2   -1    0    0  501    0  0.00000000000E+00 -0.00000000000E+00 -0.44541138146E+03  0.44541138146E+03  0.00000000000E+00 0. -1.
         23    2    1    2    0    0  0.38466444841E+02 -0.70827972876E+01 -0.25093441557E+03  0.27053110987E+03  0.93215701974E+02 0.  0.
         23    2    1    2    0    0 -0.38466444841E+02  0.70827972876E+01 -0.17136264525E+03  0.19799459223E+03  0.91142026364E+02 0.  0.
          5    1    3    3  502    0  0.17900385399E+02 -0.40132852974E+02 -0.20691206884E+03  0.21157921428E+03  0.47000000000E+01 0. -1.
         -5    1    3    3    0  502  0.20566059442E+02  0.33050055686E+02 -0.44022346733E+02  0.58951895590E+02  0.47000000000E+01 0.  1.
          5    1    4    4  503    0 -0.67528044034E+02  0.13470716305E+02 -0.12176119158E+03  0.13996204737E+03  0.47000000000E+01 0. -1.
         -5    1    4    4    0  503  0.29061599193E+02 -0.63879190170E+01 -0.49601453673E+02  0.58032544865E+02  0.47000000000E+01 0.  1.
<mgrwt>
<rscale>  0 0.10060842E+03</rscale>
<asrwt>0</asrwt>
<pdfrwt beam="1">  1        2 0.68524826E-01 0.10108907E+03</pdfrwt>
<pdfrwt beam="2">  1       -2 0.35560494E-02 0.10108907E+03</pdfrwt>
<totfact> 0.21215166E+04</totfact>
</mgrwt>
</event>
<event>
 8    1  0.2964543E-004  0.9163165E+02  0.7546771E-02  0.1299033E+00
          1   -1    0    0  501    0  0.00000000000E+00  0.00000000000E+00  0.33174777277E+03  0.33174777277E+03  0.00000000000E+00 0. -1.
         -1   -1    0    0    0  501 -0.00000000000E+00 -0.00000000000E+00 -0.26038556449E+02  0.26038556449E+02  0.00000000000E+00 0.  1.
         23    2    1    2    0    0  0.82332443497E+01  0.56970969106E+01  0.18347494277E+03  0.20501991405E+03  0.90938810797E+02 0.  0.
         23    2    1    2    0    0 -0.82332443497E+01 -0.56970969106E+01  0.12223427356E+03  0.15276641517E+03  0.91083021171E+02 0.  0.
          5    1    3    3  502    0 -0.39440173791E+02 -0.24352716803E+01  0.10957193135E+03  0.11657425100E+03  0.47000000000E+01 0. -1.
         -5    1    3    3    0  502  0.47673418141E+02  0.81323685909E+01  0.73903011422E+02  0.88445663056E+02  0.47000000000E+01 0.  1.
          5    1    4    4  503    0  0.15811392169E+02 -0.37292553462E+02  0.97672985239E+02  0.10584345380E+03  0.47000000000E+01 0. -1.
         -5    1    4    4    0  503 -0.24044636519E+02  0.31595456551E+02  0.24561288317E+02  0.46922961371E+02  0.47000000000E+01 0.  1.
<mgrwt>
<rscale>  0 0.91595796E+02</rscale>
<asrwt>0</asrwt>
<pdfrwt beam="1">  1        1 0.51038116E-01 0.91631654E+02</pdfrwt>
<pdfrwt beam="2">  1       -1 0.40059320E-02 0.91631654E+02</pdfrwt>
<totfact> 0.17079298E+04</totfact>
</mgrwt>
</event>
<event>
 8    1  0.2964543E-004  0.1014443E+03  0.7546771E-02  0.1277422E+00
          2   -1    0    0  501    0  0.00000000000E+00  0.00000000000E+00  0.30906933820E+03  0.30906933820E+03  0.00000000000E+00 0. -1.
         -2   -1    0    0    0  501 -0.00000000000E+00 -0.00000000000E+00 -0.33241282738E+02  0.33241282738E+02  0.00000000000E+00 0.  1.
         23    2    1    2    0    0  0.90575469941E+01 -0.42009926875E+02  0.14322600498E+03  0.17551250256E+03  0.91891658692E+02 0.  0.
         23    2    1    2    0    0 -0.90575469941E+01  0.42009926875E+02  0.13260205048E+03  0.16679811838E+03  0.91604778206E+02 0.  0.
          5    1    3    3  502    0  0.32993497747E+02 -0.61021344878E+02  0.10990166378E+03  0.13004861063E+03  0.47000000000E+01 0. -1.
         -5    1    4    4    0  503 -0.78786904272E+01 -0.24211618300E+02  0.10759699123E+02  0.28038140965E+02  0.47000000000E+01 0.  1.
          5    1    4    4  503    0 -0.11788565669E+01  0.66221545175E+02  0.12184235136E+03  0.13875997742E+03  0.47000000000E+01 0. -1.
         -5    1    3    3    0  502 -0.23935950753E+02  0.19011418003E+02  0.33324341202E+02  0.45463891930E+02  0.47000000000E+01 0.  1.
<mgrwt>
<rscale>  0 0.10137931E+03</rscale>
<asrwt>0</asrwt>
<pdfrwt beam="1">  1        2 0.47549127E-01 0.10144432E+03</pdfrwt>
<pdfrwt beam="2">  1       -2 0.51140437E-02 0.10144432E+03</pdfrwt>
<totfact> 0.18231877E+04</totfact>
</mgrwt>
</event>
<event>
 8    1  0.2964543E-004  0.9388808E+02  0.7546771E-02  0.1296266E+00
          1   -1    0    0  501    0  0.00000000000E+00  0.00000000000E+00  0.13859205258E+03  0.13859205258E+03  0.00000000000E+00 0. -1.
         -1   -1    0    0    0  501 -0.00000000000E+00 -0.00000000000E+00 -0.12482375385E+03  0.12482375385E+03  0.00000000000E+00 0.  1.
         23    2    1    2    0    0 -0.17442935672E+02 -0.54512327275E+01  0.10120842226E+03  0.13511636196E+03  0.87631698543E+02 0.  0.
         23    2    1    2    0    0  0.17442935672E+02  0.54512327275E+01 -0.87440123534E+02  0.12829944447E+03  0.92092346614E+02 0.  0.
          5    1    4    4  502    0  0.54998106013E+02  0.85021217246E+01 -0.54430212209E+02  0.77985997076E+02  0.47000000000E+01 0.  1.
         -5    1    4    4    0  502 -0.37555170342E+02 -0.30508889971E+01 -0.33009911325E+02  0.50313447395E+02  0.47000000000E+01 0. -1.
          5    1    3    3  503    0 -0.13541846050E+02 -0.30631949314E+02  0.10370987885E+03  0.10908495260E+03  0.47000000000E+01 0. -1.
         -5    1    3    3    0  503 -0.39010896216E+01  0.25180716587E+02 -0.25014565888E+01  0.26031409357E+02  0.47000000000E+01 0.  1.
<mgrwt>
<rscale>  0 0.92775689E+02</rscale>
<asrwt>0</asrwt>
<pdfrwt beam="1">  1        1 0.21321854E-01 0.93888084E+02</pdfrwt>
<pdfrwt beam="2">  1       -1 0.19203655E-01 0.93888084E+02</pdfrwt>
<totfact> 0.47245900E+03</totfact>
</mgrwt>
</event>
<event>
 8    1  0.2964543E-004  0.1032222E+03  0.7546771E-02  0.1274892E+00
         -1   -1    0    0    0  501 -0.00000000000E+00  0.00000000000E+00  0.91948198202E+02  0.91948198202E+02  0.00000000000E+00 0.  1.
          1   -1    0    0  501    0  0.00000000000E+00 -0.00000000000E+00 -0.11496840463E+03  0.11496840463E+03  0.00000000000E+00 0. -1.
         23    2    1    2    0    0  0.27493942992E+02 -0.30934206102E+02 -0.24507401181E+02  0.10609163014E+03  0.94562039239E+02 0.  0.
         23    2    1    2    0    0 -0.27493942992E+02  0.30934206102E+02  0.14871947551E+01  0.10082497269E+03  0.91927261251E+02 0.  0.
          5    1    3    3  502    0 -0.21343880973E+02  0.22015480918E+02 -0.81743228343E+01  0.32080402255E+02  0.47000000000E+01 0. -1.
         -5    1    4    4    0  503 -0.25220438362E+02 -0.28566482688E+01  0.41076816888E+02  0.48514181804E+02  0.47000000000E+01 0.  1.
          5    1    4    4  503    0 -0.22735046299E+01  0.33790854370E+02 -0.39589622132E+02  0.52310790885E+02  0.47000000000E+01 0. -1.
         -5    1    3    3    0  502  0.48837823965E+02 -0.52949687019E+02 -0.16333078347E+02  0.74011227887E+02  0.47000000000E+01 0.  1.
<mgrwt>
<rscale>  0 0.10261481E+03</rscale>
<asrwt>0</asrwt>
<pdfrwt beam="1">  1        1 0.17687447E-01 0.10322219E+03</pdfrwt>
<pdfrwt beam="2">  1       -1 0.14145877E-01 0.10322219E+03</pdfrwt>
<totfact> 0.97229499E+03</totfact>
</mgrwt>
</event>
<event>
 8    1  0.2964543E-004  0.1146418E+03  0.7546771E-02  0.1253746E+00
          3   -1    0    0  501    0  0.00000000000E+00  0.00000000000E+00  0.21862526688E+03  0.21862526688E+03  0.00000000000E+00 0. -1.
         -3   -1    0    0    0  501 -0.00000000000E+00 -0.00000000000E+00 -0.61136851728E+02  0.61136851728E+02  0.00000000000E+00 0.  1.
         23    2    1    2    0    0 -0.14408622805E+02  0.68795366822E+02  0.10762710319E+03  0.15474650722E+03  0.86153799977E+02 0.  0.
         23    2    1    2    0    0  0.14408622805E+02 -0.68795366822E+02  0.49861311960E+02  0.12501561138E+03  0.90566780613E+02 0.  0.
          5    1    3    3  502    0 -0.49068857236E+02  0.27800987415E+02  0.46402809530E+02  0.73184413532E+02  0.47000000000E+01 0. -1.
         -5    1    3    3    0  502  0.34660234431E+02  0.40994379407E+02  0.61224293657E+02  0.81562093693E+02  0.47000000000E+01 0.  1.
          5    1    4    4  503    0 -0.35405480071E+02 -0.26550988238E+02  0.37885593221E+02  0.58445796848E+02  0.47000000000E+01 0. -1.
         -5    1    4    4    0  503  0.49814102876E+02 -0.42244378584E+02  0.11975718739E+02  0.66569814530E+02  0.47000000000E+01 0.  1.
<mgrwt>
<rscale>  0 0.11376859E+03</rscale>
<asrwt>0</asrwt>
<pdfrwt beam="1">  1        3 0.33634656E-01 0.11464185E+03</pdfrwt>
<pdfrwt beam="2">  1       -3 0.94056696E-02 0.11464185E+03</pdfrwt>
<totfact> 0.15778667E+03</totfact>
</mgrwt>
</event>
<event>
 8    1  0.2964543E-004  0.9926532E+02  0.7546771E-02  0.1282525E+00
          2   -1    0    0  501    0  0.00000000000E+00  0.00000000000E+00  0.46788360384E+03  0.46788360384E+03  0.00000000000E+00 0. -1.
         -2   -1    0    0    0  501 -0.00000000000E+00 -0.00000000000E+00 -0.28109222301E+02  0.28109222301E+02  0.00000000000E+00 0.  1.
         23    2    1    2    0    0  0.23263977469E+01  0.41316314020E+02  0.94405504686E+02  0.13698905924E+03  0.90228338707E+02 0.  0.
         23    2    1    2    0    0 -0.23263977469E+01 -0.41316314020E+02  0.34536887686E+03  0.35900376690E+03  0.88834642002E+02 0.  0.
          5    1    3    3  502    0 -0.91170971736E+01 -0.19849174207E+02  0.63570592329E+02  0.67382649003E+02  0.47000000000E+01 0. -1.
         -5    1    3    3    0  502  0.11443494920E+02  0.61165488228E+02  0.30834912357E+02  0.69606410238E+02  0.47000000000E+01 0.  1.
          5    1    4    4  503    0 -0.34570793158E+02 -0.24703833925E+02  0.28668594197E+03  0.28985572009E+03  0.47000000000E+01 0. -1.
         -5    1    4    4    0  503  0.32244395411E+02 -0.16612480095E+02  0.58682934889E+02  0.69148046809E+02  0.47000000000E+01 0.  1.
<mgrwt>
<rscale>  0 0.98947520E+02</rscale>
<asrwt>0</asrwt>
<pdfrwt beam="1">  1        2 0.71982087E-01 0.99265316E+02</pdfrwt>
<pdfrwt beam="2">  1       -2 0.43244961E-02 0.99265316E+02</pdfrwt>
<totfact> 0.15060749E+04</totfact>
</mgrwt>
</event>
<event>
 8    1  0.2964543E-004  0.1049339E+03  0.7546771E-02  0.1270378E+00
          4   -1    0    0  501    0  0.00000000000E+00  0.00000000000E+00  0.68230457891E+02  0.68230457891E+02  0.00000000000E+00 0. -1.
         -4   -1    0    0    0  501 -0.00000000000E+00 -0.00000000000E+00 -0.25534599524E+03  0.25534599524E+03  0.00000000000E+00 0.  1.
         23    2    1    2    0    0  0.42236428168E+02  0.31447158885E+02 -0.19183722941E+03  0.21853636654E+03  0.90464253975E+02 0.  0.
         23    2    1    2    0    0 -0.42236428168E+02 -0.31447158885E+02  0.47216920620E+01  0.10504008659E+03  0.90765002883E+02 0.  0.
          5    1    3    3  502    0  0.66189205905E+01  0.37573371475E+02 -0.20894918382E+02  0.43752211006E+02  0.47000000000E+01 0. -1.
         -5    1    4    4    0  503  0.90191202190E+01 -0.35912466150E+02 -0.25483287755E+02  0.45194443346E+02  0.47000000000E+01 0.  1.
          5    1    4    4  503    0 -0.51255548387E+02  0.44653072654E+01  0.30204979817E+02  0.59845643243E+02  0.47000000000E+01 0. -1.
         -5    1    3    3    0  502  0.35617507578E+02 -0.61262125898E+01 -0.17094231103E+03  0.17478415553E+03  0.47000000000E+01 0.  1.
<mgrwt>
<rscale>  0 0.10486884E+03</rscale>
<asrwt>0</asrwt>
<pdfrwt beam="1">  1        4 0.10496993E-01 0.10493391E+03</pdfrwt>
<pdfrwt beam="2">  1       -4 0.39283999E-01 0.10493391E+03</pdfrwt>
<totfact> 0.68999550E+02</totfact>
</mgrwt>
</event>
<event>
 8    1  0.2964543E-004  0.9249759E+02  0.7546771E-02  0.1298681E+00
          1   -1    0    0  501    0  0.00000000000E+00  0.00000000000E+00  0.61240360722E+02  0.61240360722E+02  0.00000000000E+00 0. -1.
         -1   -1    0    0    0  501 -0.00000000000E+00 -0.00000000000E+00 -0.31245604465E+03  0.31245604465E+03  0.00000000000E+00 0.  1.
         23    2    1    2    0    0  0.89842940789E+01 -0.12007728449E+02 -0.26542343728E+03  0.28011400919E+03  0.88257316986E+02 0.  0.
         23    2    1    2    0    0 -0.89842940789E+01  0.12007728449E+02  0.14207753352E+02  0.93582396187E+02  0.91273772455E+02 0.  0.
          5    1    3    3  502    0  0.17614197236E+02 -0.44403987606E+02 -0.20788818672E+03  0.21335782675E+03  0.47000000000E+01 0. -1.
         -5    1    4    4    0  503  0.28760122736E+02  0.35006731219E+02  0.17990388437E+02  0.48973053474E+02  0.47000000000E+01 0.  1.
          5    1    4    4  503    0 -0.37744416815E+02 -0.22999002770E+02 -0.37826350850E+01  0.44609342713E+02  0.47000000000E+01 0. -1.
         -5    1    3    3    0  502 -0.86299031569E+01  0.32396259156E+02 -0.57535250566E+02  0.66756182437E+02  0.47000000000E+01 0.  1.
<mgrwt>
<rscale>  0 0.91744646E+02</rscale>
<asrwt>0</asrwt>
<pdfrwt beam="1">  1        1 0.94215940E-02 0.92497593E+02</pdfrwt>
<pdfrwt beam="2">  1       -1 0.48070160E-01 0.92497593E+02</pdfrwt>
<totfact> 0.29007986E+03</totfact>
</mgrwt>
</event>
<event>
 8    1  0.2964543E-004  0.1141550E+03  0.7546771E-02  0.1253299E+00
          3   -1    0    0  501    0  0.00000000000E+00  0.00000000000E+00  0.35713218684E+03  0.35713218684E+03  0.00000000000E+00 0. -1.
         -3   -1    0    0    0  501 -0.00000000000E+00 -0.00000000000E+00 -0.36997773304E+02  0.36997773304E+02  0.00000000000E+00 0.  1.
         23    2    1    2    0    0  0.55189125274E+02  0.40562588756E+02  0.13299636302E+03  0.17492228231E+03  0.90656544815E+02 0.  0.
         23    2    1    2    0    0 -0.55189125274E+02 -0.40562588756E+02  0.18713805051E+03  0.21920767783E+03  0.91324656658E+02 0.  0.
          5    1    3    3  502    0 -0.17469132657E+01 -0.25387028443E+02  0.37562702879E+02  0.45613589715E+02  0.47000000000E+01 0. -1.
         -5    1    4    4    0  503  0.12162145109E+01 -0.23452708580E+02  0.10741081719E+01  0.23973994783E+02  0.47000000000E+01 0.  1.
          5    1    4    4  503    0 -0.56405339785E+02 -0.17109880176E+02  0.18606394234E+03  0.19523368305E+03  0.47000000000E+01 0. -1.
         -5    1    3    3    0  502  0.56936038539E+02  0.65949617199E+02  0.95433660140E+02  0.12930869260E+03  0.47000000000E+01 0.  1.
<mgrwt>
<rscale>  0 0.11402128E+03</rscale>
<asrwt>0</asrwt>
<pdfrwt beam="1">  1        3 0.54943411E-01 0.11415497E+03</pdfrwt>
<pdfrwt beam="2">  1       -3 0.56919654E-02 0.11415497E+03</pdfrwt>
<totfact> 0.13661449E+03</totfact>
</mgrwt>
</event>
<event>
 8    1  0.2964543E-004  0.9823028E+02  0.7546771E-02  0.1284594E+00
          1   -1    0    0  501    0  0.00000000000E+00  0.00000000000E+00  0.17333257960E+03  0.17333257960E+03  0.00000000000E+00 0. -1.
         -1   -1    0    0    0  501 -0.00000000000E+00 -0.00000000000E+00 -0.20048426005E+03  0.20048426005E+03  0.00000000000E+00 0.  1.
         23    2    1    2    0    0  0.80205245409E+01 -0.30955263490E+02 -0.17275203930E+03  0.19872708771E+03  0.92879659543E+02 0.  0.
         23    2    1    2    0    0 -0.80205245409E+01  0.30955263490E+02  0.14560035885E+03  0.17508975194E+03  0.91838987286E+02 0.  0.
          5    1    4    4  502    0 -0.38710132213E+02  0.39352256270E+02  0.12544440761E+03  0.13713301503E+03  0.47000000000E+01 0. -1.
         -5    1    3    3    0  503  0.31432460842E+02 -0.12140307882E+02 -0.16342338003E+03  0.16692716319E+03  0.47000000000E+01 0.  1.
          5    1    3    3  503    0 -0.23411936301E+02 -0.18814955608E+02 -0.93286592696E+01  0.31799924523E+02  0.47000000000E+01 0. -1.
         -5    1    4    4    0  502  0.30689607672E+02 -0.83969927796E+01  0.20155951240E+02  0.37956736915E+02  0.47000000000E+01 0.  1.
<mgrwt>
<rscale>  0 0.97983505E+02</rscale>
<asrwt>0</asrwt>
<pdfrwt beam="1">  1        1 0.26666551E-01 0.98230282E+02</pdfrwt>
<pdfrwt beam="2">  1       -1 0.30843732E-01 0.98230282E+02</pdfrwt>
<totfact> 0.16602331E+03</totfact>
</mgrwt>
</event>
<event>
 8    1  0.2964543E-004  0.1180166E+03  0.7546771E-02  0.1246496E+00
          4   -1    0    0  501    0  0.00000000000E+00  0.00000000000E+00  0.60263393449E+03  0.60263393449E+03  0.00000000000E+00 0. -1.
         -4   -1    0    0    0  501 -0.00000000000E+00 -0.00000000000E+00 -0.23804777915E+02  0.23804777915E+02  0.00000000000E+00 0.  1.
         23    2    1    2    0    0  0.27831457140E+02 -0.69343394721E+02  0.34420043974E+03  0.36380103873E+03  0.91072260694E+02 0.  0.
         23    2    1    2    0    0 -0.27831457140E+02  0.69343394721E+02  0.23462871683E+03  0.26263767367E+03  0.91349966995E+02 0.  0.
          5    1    3    3  502    0 -0.20738935189E+02 -0.54958957821E+02  0.24880226181E+03  0.25568583449E+03  0.47000000000E+01 0. -1.
         -5    1    3    3    0  502  0.48570392329E+02 -0.14384436900E+02  0.95398177933E+02  0.10811520424E+03  0.47000000000E+01 0.  1.
          5    1    4    4  503    0 -0.43120496810E+02  0.12726008081E+02  0.16695034921E+03  0.17296195428E+03  0.47000000000E+01 0. -1.
         -5    1    4    4    0  503  0.15289039670E+02  0.56617386640E+02  0.67678367621E+02  0.89675719389E+02  0.47000000000E+01 0.  1.
<mgrwt>
<rscale>  0 0.11796284E+03</rscale>
<asrwt>0</asrwt>
<pdfrwt beam="1">  1        4 0.92712902E-01 0.11801658E+03</pdfrwt>
<pdfrwt beam="2">  1       -4 0.36622740E-02 0.11801658E+03</pdfrwt>
<totfact> 0.64614472E+02</totfact>
</mgrwt>
</event>
<event>
 8    1  0.2964543E-004  0.1126956E+03  0.7546771E-02  0.1256443E+00
          1   -1    0    0  501    0  0.00000000000E+00  0.00000000000E+00  0.95529262003E+03  0.95529262003E+03  0.00000000000E+00 0. -1.
         -1   -1    0    0    0  501 -0.00000000000E+00 -0.00000000000E+00 -0.28458052762E+02  0.28458052762E+02  0.00000000000E+00 0.  1.
         23    2    1    2    0    0 -0.23455592169E+02 -0.55694789575E+02  0.10031410986E+03  0.14958260915E+03  0.93058916462E+02 0.  0.
         23    2    1    2    0    0  0.23455592169E+02  0.55694789575E+02  0.82652045741E+03  0.83416806365E+03  0.95122118865E+02 0.  0.
          5    1    3    3  502    0  0.45054696951E+01 -0.55760264762E+02  0.12786006227E+02  0.57576716985E+02  0.47000000000E+01 0.  1.
         -5    1    3    3    0  502 -0.27961061864E+02  0.65475187190E-01  0.87528103629E+02  0.92005892161E+02  0.47000000000E+01 0. -1.
          5    1    4    4  503    0  0.14012373639E+02  0.80773694505E+02  0.69703864823E+03  0.70185874894E+03  0.47000000000E+01 0. -1.
         -5    1    4    4    0  503  0.94432185296E+01 -0.25078904930E+02  0.12948180918E+03  0.13230931470E+03  0.47000000000E+01 0.  1.
<mgrwt>
<rscale>  0 0.11225905E+03</rscale>
<asrwt>0</asrwt>
<pdfrwt beam="1">  1        1 0.14696807E+00 0.11269557E+03</pdfrwt>
<pdfrwt beam="2">  1       -1 0.43781627E-02 0.11269557E+03</pdfrwt>
<totfact> 0.36198977E+03</totfact>
</mgrwt>
</event>
<event>
 8    1  0.2964543E-004  0.1608717E+03  0.7546771E-02  0.1190700E+00
          1   -1    0    0  501    0  0.00000000000E+00  0.00000000000E+00  0.29805931667E+03  0.29805931667E+03  0.00000000000E+00 0. -1.
         -1   -1    0    0    0  501 -0.00000000000E+00 -0.00000000000E+00 -0.84575277841E+02  0.84575277841E+02  0.00000000000E+00 0.  1.
         23    2    1    2    0    0  0.49683365921E+02  0.10806114905E+03  0.72897903228E+02  0.17661771415E+03  0.10832388414E+03 0.  0.
         23    2    1    2    0    0 -0.49683365921E+02 -0.10806114905E+03  0.14058613560E+03  0.20601688036E+03  0.92373398154E+02 0.  0.
          5    1    4    4  502    0 -0.18493575954E+02  0.14493148143E+02  0.24954902774E+02  0.34596255102E+02  0.47000000000E+01 0. -1.
         -5    1    3    3    0  503 -0.19212167902E+02  0.30423944153E+02  0.62399442068E+02  0.72183821897E+02  0.47000000000E+01 0.  1.
          5    1    3    3  503    0  0.68895533823E+02  0.77637204895E+02  0.10498461160E+02  0.10443389225E+03  0.47000000000E+01 0. -1.
         -5    1    4    4    0  502 -0.31189789967E+02 -0.12255429719E+03  0.11563123283E+03  0.17142062525E+03  0.47000000000E+01 0.  1.
<mgrwt>
<rscale>  0 0.15823829E+03</rscale>
<asrwt>0</asrwt>
<pdfrwt beam="1">  1        1 0.45855279E-01 0.16087173E+03</pdfrwt>
<pdfrwt beam="2">  1       -1 0.13011581E-01 0.16087173E+03</pdfrwt>
<totfact> 0.34692090E+03</totfact>
</mgrwt>
</event>
<event>
 8    1  0.2964543E-004  0.9461187E+02  0.7546771E-02  0.1292284E+00
          1   -1    0    0  501    0  0.00000000000E+00  0.00000000000E+00  0.34572619808E+03  0.34572619808E+03  0.00000000000E+00 0. -1.
         -1   -1    0    0    0  501 -0.00000000000E+00 -0.00000000000E+00 -0.29414438394E+02  0.29414438394E+02  0.00000000000E+00 0.  1.
         23    2    1    2    0    0 -0.15103117315E+02 -0.22620062388E+02  0.92522531425E+02  0.13233225022E+03  0.90618068021E+02 0.  0.
         23    2    1    2    0    0  0.15103117315E+02  0.22620062388E+02  0.22378922827E+03  0.24280838626E+03  0.90191587052E+02 0.  0.
          5    1    4    4  502    0 -0.46456979553E+01 -0.21917203506E+02  0.16376802111E+03  0.16536021607E+03  0.47000000000E+01 0. -1.
         -5    1    4    4    0  502  0.19748815270E+02  0.44537265893E+02  0.60021207153E+02  0.77448170191E+02  0.47000000000E+01 0.  1.
          5    1    3    3  503    0  0.38038542455E+02 -0.10335990834E+02  0.42828057606E+02  0.58396026722E+02  0.47000000000E+01 0. -1.
         -5    1    3    3    0  503 -0.53141659770E+02 -0.12284071553E+02  0.49694473820E+02  0.73936223498E+02  0.47000000000E+01 0.  1.
<mgrwt>
<rscale>  0 0.94509603E+02</rscale>
<asrwt>0</asrwt>
<pdfrwt beam="1">  1        1 0.53188643E-01 0.94611868E+02</pdfrwt>
<pdfrwt beam="2">  1       -1 0.45252985E-02 0.94611868E+02</pdfrwt>
<totfact> 0.13635661E+04</totfact>
</mgrwt>
</event>
<event>
 8    1  0.2964543E-004  0.1059438E+03  0.7546771E-02  0.1272487E+00
          1   -1    0    0  501    0  0.00000000000E+00  0.00000000000E+00  0.36091614808E+03  0.36091614808E+03  0.00000000000E+00 0. -1.
         -1   -1    0    0    0  501 -0.00000000000E+00 -0.00000000000E+00 -0.39977720766E+02  0.39977720766E+02  0.00000000000E+00 0.  1.
         23    2    1    2    0    0 -0.20081036113E+02 -0.30537499370E+02  0.49436757565E+02  0.10945391370E+03  0.90555945945E+02 0.  0.
         23    2    1    2    0    0  0.20081036113E+02  0.30537499370E+02  0.27150166975E+03  0.29143995515E+03  0.99439951234E+02 0.  0.
          5    1    3    3  502    0 -0.20264796034E+02  0.11521085757E+02  0.61092440235E+02  0.65557407127E+02  0.47000000000E+01 0. -1.
         -5    1    4    4    0  503 -0.17209492507E+02 -0.25098855760E+02  0.40490719608E+02  0.50869515106E+02  0.47000000000E+01 0.  1.
          5    1    4    4  503    0  0.37290528621E+02  0.55636355130E+02  0.23101095014E+03  0.24057044005E+03  0.47000000000E+01 0. -1.
         -5    1    3    3    0  502  0.18375992087E+00 -0.42058585127E+02 -0.11655682670E+02  0.43896506570E+02  0.47000000000E+01 0.  1.
<mgrwt>
<rscale>  0 0.10380742E+03</rscale>
<asrwt>0</asrwt>
<pdfrwt beam="1">  1        1 0.55525559E-01 0.10594381E+03</pdfrwt>
<pdfrwt beam="2">  1       -1 0.61504188E-02 0.10594381E+03</pdfrwt>
<totfact> 0.83143759E+03</totfact>
</mgrwt>
</event>
<event>
 8    1  0.2964543E-004  0.1031076E+03  0.7546771E-02  0.1273928E+00
          1   -1    0    0  501    0  0.00000000000E+00  0.00000000000E+00  0.22131188717E+03  0.22131188717E+03  0.00000000000E+00 0. -1.
         -1   -1    0    0    0  501 -0.00000000000E+00 -0.00000000000E+00 -0.57591056564E+02  0.57591056564E+02  0.00000000000E+00 0.  1.
         23    2    1    2    0    0  0.56478512036E+00 -0.49106309481E+02  0.24991025186E+02  0.10609297077E+03  0.90661008671E+02 0.  0.
         23    2    1    2    0    0 -0.56478512036E+00  0.49106309481E+02  0.13872980542E+03  0.17280997297E+03  0.90584652296E+02 0.  0.
          5    1    4    4  502    0 -0.32432397028E+02  0.57574646569E+02  0.69675912345E+02  0.96143242434E+02  0.47000000000E+01 0. -1.
         -5    1    3    3    0  503  0.33603907843E+02  0.92295610483E+01  0.14657413910E+02  0.38096419806E+02  0.47000000000E+01 0. -1.
          5    1    3    3  503    0 -0.33039122723E+02 -0.58335870529E+02  0.10333611276E+02  0.67996550961E+02  0.47000000000E+01 0.  1.
         -5    1    4    4    0  502  0.31867611908E+02 -0.84683370882E+01  0.69053893075E+02  0.76666730532E+02  0.47000000000E+01 0.  1.
<mgrwt>
<rscale>  0 0.10309076E+03</rscale>
<asrwt>0</asrwt>
<pdfrwt beam="1">  1        1 0.34047982E-01 0.10310755E+03</pdfrwt>
<pdfrwt beam="2">  1       -1 0.88601627E-02 0.10310755E+03</pdfrwt>
<totfact> 0.87735565E+03</totfact>
</mgrwt>
</event>
<event>
 8    1  0.2964543E-004  0.9141263E+02  0.7546771E-02  0.1300244E+00
          2   -1    0    0  501    0  0.00000000000E+00  0.00000000000E+00  0.57589920939E+03  0.57589920939E+03  0.00000000000E+00 0. -1.
         -2   -1    0    0    0  501 -0.00000000000E+00 -0.00000000000E+00 -0.23234836197E+02  0.23234836197E+02  0.00000000000E+00 0.  1.
         23    2    1    2    0    0 -0.13235085404E+01 -0.16970069320E+02  0.46327128293E+03  0.47220392973E+03  0.89813889429E+02 0.  0.
         23    2    1    2    0    0  0.13235085404E+01  0.16970069320E+02  0.89393090263E+02  0.12693011586E+03  0.88489518012E+02 0.  0.
          5    1    4    4  502    0 -0.30098127326E+02 -0.12046197844E+02  0.74524169559E+02  0.81406080851E+02  0.47000000000E+01 0. -1.
         -5    1    4    4    0  502  0.31421635867E+02  0.29016267163E+02  0.14868920704E+02  0.45524035010E+02  0.47000000000E+01 0.  1.
          5    1    3    3  503    0  0.26201799966E+02 -0.37437735303E+02  0.14617436481E+03  0.15322256125E+03  0.47000000000E+01 0. -1.
         -5    1    3    3    0  503 -0.27525308506E+02  0.20467665983E+02  0.31709691812E+03  0.31898136848E+03  0.47000000000E+01 0.  1.
<mgrwt>
<rscale>  0 0.91085666E+02</rscale>
<asrwt>0</asrwt>
<pdfrwt beam="1">  1        2 0.88599867E-01 0.91412634E+02</pdfrwt>
<pdfrwt beam="2">  1       -2 0.35745906E-02 0.91412634E+02</pdfrwt>
<totfact> 0.15776298E+04</totfact>
</mgrwt>
</event>
<event>
 8    1  0.2964543E-004  0.1155764E+03  0.7546771E-02  0.1251326E+00
         -1   -1    0    0    0  501 -0.00000000000E+00  0.00000000000E+00  0.62942794716E+03  0.62942794716E+03  0.00000000000E+00 0.  1.
          1   -1    0    0  501    0  0.00000000000E+00 -0.00000000000E+00 -0.14920720284E+03  0.14920720284E+03  0.00000000000E+00 0. -1.
         23    2    1    2    0    0 -0.11140602968E+02  0.67157384782E+02  0.60136988318E+03  0.61237541587E+03  0.93400675572E+02 0.  0.
         23    2    1    2    0    0  0.11140602968E+02 -0.67157384782E+02 -0.12114913886E+03  0.16625973413E+03  0.91274081661E+02 0.  0.
          5    1    3    3  502    0  0.28305387836E+02 -0.23637190059E+01  0.82850761111E+02  0.87710437035E+02  0.47000000000E+01 0. -1.
         -5    1    3    3    0  502 -0.39445990804E+02  0.69521103788E+02  0.51851912207E+03  0.52466497884E+03  0.47000000000E+01 0.  1.
          5    1    4    4  503    0  0.29076241486E+01 -0.34579942417E+02 -0.12707981619E+03  0.13181652544E+03  0.47000000000E+01 0. -1.
         -5    1    4    4    0  503  0.82329788193E+01 -0.32577442365E+02  0.59306773371E+01  0.34443208691E+02  0.47000000000E+01 0.  1.
<mgrwt>
<rscale>  0 0.11514612E+03</rscale>
<asrwt>0</asrwt>
<pdfrwt beam="1">  1        1 0.22954955E-01 0.11557644E+03</pdfrwt>
<pdfrwt beam="2">  1       -1 0.96835067E-01 0.11557644E+03</pdfrwt>
<totfact> 0.23581966E+02</totfact>
</mgrwt>
</event>
<event>
 8    1  0.2964543E-004  0.1230364E+03  0.7546771E-02  0.1239519E+00
         -2   -1    0    0    0  501 -0.00000000000E+00  0.00000000000E+00  0.22120913029E+02  0.22120913029E+02  0.00000000000E+00 0.  1.
          2   -1    0    0  501    0  0.00000000000E+00 -0.00000000000E+00 -0.10798378599E+04  0.10798378599E+04  0.00000000000E+00 0. -1.
         23    2    1    2    0    0  0.72924734919E+02  0.31346894290E+02 -0.86548563856E+03  0.87372459644E+03  0.89602651269E+02 0.  0.
         23    2    1    2    0    0 -0.72924734919E+02 -0.31346894290E+02 -0.19223130831E+03  0.22823417649E+03  0.94007014000E+02 0.  0.
          5    1    4    4  502    0  0.21941273348E+02 -0.90145560372E+01 -0.26193380747E+02  0.35649192019E+02  0.47000000000E+01 0. -1.
         -5    1    4    4    0  502 -0.94866008267E+02 -0.22332338253E+02 -0.16603792756E+03  0.19258498447E+03  0.47000000000E+01 0.  1.
          5    1    3    3  503    0  0.79360527283E+02  0.51387945450E+02 -0.77207339867E+03  0.77785489467E+03  0.47000000000E+01 0. -1.
         -5    1    3    3    0  503 -0.64357923636E+01 -0.20041051160E+02 -0.93412239893E+02  0.95869701767E+02  0.47000000000E+01 0.  1.
<mgrwt>
<rscale>  0 0.12219497E+03</rscale>
<asrwt>0</asrwt>
<pdfrwt beam="1">  1        2 0.16612885E+00 0.12303643E+03</pdfrwt>
<pdfrwt beam="2">  1       -2 0.34032184E-02 0.12303643E+03</pdfrwt>
<totfact> 0.79490993E+03</totfact>
</mgrwt>
</event>
<event>
 7    1  0.2964543E-004  0.1742961E+03  0.7546771E-02  0.1183669E+00
         -2   -1    0    0    0  501 -0.00000000000E+00  0.00000000000E+00  0.85804647687E+02  0.85804647687E+02  0.00000000000E+00 0.  1.
          2   -1    0    0  501    0  0.00000000000E+00 -0.00000000000E+00 -0.70114751484E+03  0.70114751484E+03  0.00000000000E+00 0. -1.
         23    2    1    2    0    0  0.60512765883E+02  0.69661535383E+02  0.90295125330E+01  0.13870837260E+03  0.10316955068E+03 0.  0.
          5    1    3    3  502    0 -0.21772108441E+02  0.21444464640E+02 -0.22401608904E+02  0.38181302377E+02  0.47000000000E+01 0. -1.
         -5    1    1    2    0  503 -0.34321214507E+02  0.44737429467E+02 -0.18668903459E+03  0.19507503427E+03  0.47000000000E+01 0.  1.
          5    1    1    2  503    0 -0.26191551376E+02 -0.11439896485E+03 -0.43768334510E+03  0.45316875565E+03  0.47000000000E+01 0. -1.
         -5    1    3    3    0  502  0.82284874324E+02  0.48217070743E+02  0.31431121437E+02  0.10052707023E+03  0.47000000000E+01 0.  1.
<mgrwt>
<rscale>  0 0.16453601E+03</rscale>
<asrwt>0</asrwt>
<pdfrwt beam="1">  1        2 0.10786886E+00 0.17429613E+03</pdfrwt>
<pdfrwt beam="2">  1       -2 0.13200714E-01 0.17429613E+03</pdfrwt>
<totfact> 0.17588160E+03</totfact>
</mgrwt>
</event>
<event>
 8    1  0.2964543E-004  0.9192083E+02  0.7546771E-02  0.1299877E+00
         -1   -1    0    0    0  501 -0.00000000000E+00  0.00000000000E+00  0.70671523990E+02  0.70671523990E+02  0.00000000000E+00 0.  1.
          1   -1    0    0  501    0  0.00000000000E+00 -0.00000000000E+00 -0.19990793214E+03  0.19990793214E+03  0.00000000000E+00 0. -1.
         23    2    1    2    0    0  0.17710978301E+01 -0.63102089529E+01 -0.15277881421E+03  0.17829975992E+03  0.91686873597E+02 0.  0.
         23    2    1    2    0    0 -0.17710978301E+01  0.63102089529E+01  0.23542406066E+02  0.92279696208E+02  0.88985065737E+02 0.  0.
          5    1    4    4  502    0  0.22605599128E+02 -0.11042769963E+02  0.47302864689E+02  0.53782960946E+02  0.47000000000E+01 0. -1.
         -5    1    3    3    0  503 -0.19371358484E+02  0.15381556457E+02 -0.29300979127E+01  0.25347924616E+02  0.47000000000E+01 0.  1.
          5    1    3    3  503    0  0.21142456314E+02 -0.21691765410E+02 -0.14984871630E+03  0.15295183530E+03  0.47000000000E+01 0. -1.
         -5    1    4    4    0  502 -0.24376696958E+02  0.17352978916E+02 -0.23760458623E+02  0.38496735261E+02  0.47000000000E+01 0.  1.
<mgrwt>
<rscale>  0 0.91239610E+02</rscale>
<asrwt>0</asrwt>
<pdfrwt beam="1">  1        1 0.30755066E-01 0.91920826E+02</pdfrwt>
<pdfrwt beam="2">  1       -1 0.10872542E-01 0.91920826E+02</pdfrwt>
<totfact> 0.72285912E+03</totfact>
</mgrwt>
</event>
<event>
 8    1  0.2964543E-004  0.1056818E+03  0.7546771E-02  0.1279789E+00
         -1   -1    0    0    0  501 -0.00000000000E+00  0.00000000000E+00  0.61942795991E+02  0.61942795991E+02  0.00000000000E+00 0.  1.
          1   -1    0    0  501    0  0.00000000000E+00 -0.00000000000E+00 -0.15171753398E+03  0.15171753398E+03  0.00000000000E+00 0. -1.
         23    2    1    2    0    0 -0.49101064174E+02  0.18271424945E+02 -0.67022515308E+02  0.12514253229E+03  0.91781677678E+02 0.  0.
         23    2    1    2    0    0  0.49101064174E+02 -0.18271424945E+02 -0.22752222685E+02  0.88517797684E+02  0.67623793130E+02 0.  0.
          5    1    3    3  502    0  0.58304313930E+01  0.39381711948E+02 -0.65276670676E+01  0.40615435533E+02  0.47000000000E+01 0. -1.
         -5    1    3    3    0  502 -0.54931495567E+02 -0.21110287003E+02 -0.60494848240E+02  0.84527096757E+02  0.47000000000E+01 0.  1.
          5    1    4    4  503    0  0.25262185595E+02 -0.31532193524E+02 -0.39057335151E+02  0.56391689801E+02  0.47000000000E+01 0. -1.
         -5    1    4    4    0  503  0.23838878578E+02  0.13260768579E+02  0.16305112466E+02  0.32126107883E+02  0.47000000000E+01 0.  1.
<mgrwt>
<rscale>  0 0.10024141E+03</rscale>
<asrwt>0</asrwt>
<pdfrwt beam="1">  1        1 0.23341159E-01 0.10568177E+03</pdfrwt>
<pdfrwt beam="2">  1       -1 0.95296611E-02 0.10568177E+03</pdfrwt>
<totfact> 0.12570805E+04</totfact>
</mgrwt>
</event>
<event>
 8    1  0.2964543E-004  0.1841620E+03  0.7546771E-02  0.1164064E+00
         -2   -1    0    0    0  501 -0.00000000000E+00  0.00000000000E+00  0.18308445482E+02  0.18308445482E+02  0.00000000000E+00 0.  1.
          2   -1    0    0  501    0  0.00000000000E+00 -0.00000000000E+00 -0.19654983255E+04  0.19654983255E+04  0.00000000000E+00 0. -1.
         23    2    1    2    0    0  0.14731355130E+02  0.15827566741E+03 -0.72808039348E+03  0.75101044222E+03  0.92991533142E+02 0.  0.
         23    2    1    2    0    0 -0.14731355130E+02 -0.15827566741E+03 -0.12191094866E+04  0.12327963288E+04  0.91052997305E+02 0.  0.
          5    1    3    3  502    0  0.24326485102E+02  0.35050711079E+02 -0.75825223441E+02  0.87131422199E+02  0.47000000000E+01 0. -1.
         -5    1    3    3    0  502 -0.95951299720E+01  0.12322495634E+03 -0.65225517004E+03  0.66387902002E+03  0.47000000000E+01 0.  1.
          5    1    4    4  503    0  0.22657105561E+02 -0.84971076619E+02 -0.85245063154E+03  0.85698751304E+03  0.47000000000E+01 0. -1.
         -5    1    4    4    0  503 -0.37388460691E+02 -0.73304590795E+02 -0.36665885502E+03  0.37580881574E+03  0.47000000000E+01 0.  1.
<mgrwt>
<rscale>  0 0.18391867E+03</rscale>
<asrwt>0</asrwt>
<pdfrwt beam="1">  1        2 0.30238430E+00 0.18416195E+03</pdfrwt>
<pdfrwt beam="2">  1       -2 0.28166845E-02 0.18416195E+03</pdfrwt>
<totfact> 0.36033436E+03</totfact>
</mgrwt>
</event>
<event>
 8    1  0.2964543E-004  0.1067190E+03  0.7546771E-02  0.1267029E+00
         -1   -1    0    0    0  501 -0.00000000000E+00  0.00000000000E+00  0.20600155559E+02  0.20600155559E+02  0.00000000000E+00 0.  1.
          1   -1    0    0  501    0  0.00000000000E+00 -0.00000000000E+00 -0.94117035586E+03  0.94117035586E+03  0.00000000000E+00 0. -1.
         23    2    1    2    0    0 -0.36027611210E+02 -0.40468526130E+02 -0.15097513356E+03  0.18488491571E+03  0.91941561476E+02 0.  0.
         23    2    1    2    0    0  0.36027611210E+02  0.40468526130E+02 -0.76959506673E+03  0.77688559570E+03  0.91317970278E+02 0.  0.
          5    1    4    4  502    0  0.36588784873E+02  0.68309380709E+02 -0.58945183120E+03  0.59454222892E+03  0.47000000000E+01 0. -1.
         -5    1    3    3    0  503 -0.61252066262E+02 -0.38667727374E+02 -0.13833963581E+03  0.15622724986E+03  0.47000000000E+01 0.  1.
          5    1    3    3  503    0  0.25224455052E+02 -0.18007987556E+01 -0.12635497754E+02  0.28657665856E+02  0.47000000000E+01 0. -1.
         -5    1    4    4    0  502 -0.56117366302E+00 -0.27840854579E+02 -0.18014323553E+03  0.18234336678E+03  0.47000000000E+01 0.  1.
<mgrwt>
<rscale>  0 0.10658454E+03</rscale>
<asrwt>0</asrwt>
<pdfrwt beam="1">  1        1 0.14479547E+00 0.10671898E+03</pdfrwt>
<pdfrwt beam="2">  1       -1 0.31692541E-02 0.10671898E+03</pdfrwt>
<totfact> 0.59239193E+03</totfact>
</mgrwt>
</event>
<event>
 8    1  0.2964543E-004  0.9858143E+02  0.7546771E-02  0.1286697E+00
         -1   -1    0    0    0  501 -0.00000000000E+00  0.00000000000E+00  0.15116320843E+03  0.15116320843E+03  0.00000000000E+00 0.  1.
          1   -1    0    0  501    0  0.00000000000E+00 -0.00000000000E+00 -0.14623300198E+03  0.14623300198E+03  0.00000000000E+00 0. -1.
         23    2    1    2    0    0  0.29891399454E+02 -0.20058762442E+02  0.11635339336E+03  0.14862314651E+03  0.85175570565E+02 0.  0.
         23    2    1    2    0    0 -0.29891399454E+02  0.20058762442E+02 -0.11142318690E+03  0.14877306390E+03  0.91773897430E+02 0.  0.
          5    1    3    3  502    0 -0.23084874477E+01 -0.41343036478E+02  0.23236385914E+02  0.47713681579E+02  0.47000000000E+01 0. -1.
         -5    1    3    3    0  502  0.32199886901E+02  0.21284274036E+02  0.93117007444E+02  0.10090946493E+03  0.47000000000E+01 0.  1.
          5    1    4    4  503    0 -0.55973986671E+02  0.36849764606E+02 -0.77590362514E+02  0.10263209386E+03  0.47000000000E+01 0. -1.
         -5    1    4    4    0  503  0.26082587217E+02 -0.16791002164E+02 -0.33832824390E+02  0.46140970035E+02  0.47000000000E+01 0.  1.
<mgrwt>
<rscale>  0 0.97016748E+02</rscale>
<asrwt>0</asrwt>
<pdfrwt beam="1">  1        1 0.22497385E-01 0.98581428E+02</pdfrwt>
<pdfrwt beam="2">  1       -1 0.23255878E-01 0.98581428E+02</pdfrwt>
<totfact> 0.32624730E+03</totfact>
</mgrwt>
</event>
<event>
 8    1  0.2964543E-004  0.9462210E+02  0.7546771E-02  0.1293828E+00
          2   -1    0    0  501    0  0.00000000000E+00  0.00000000000E+00  0.34842242651E+03  0.34842242651E+03  0.00000000000E+00 0. -1.
         -2   -1    0    0    0  501 -0.00000000000E+00 -0.00000000000E+00 -0.40945315931E+02  0.40945315931E+02  0.00000000000E+00 0.  1.
         23    2    1    2    0    0  0.16375015205E+02 -0.18553373292E+02  0.33277085846E+02  0.10030306770E+03  0.91328922933E+02 0.  0.
         23    2    1    2    0    0 -0.16375015205E+02  0.18553373292E+02  0.27420002474E+03  0.28906467474E+03  0.88092927279E+02 0.  0.
          5    1    4    4  502    0 -0.28484333863E+02  0.49788844529E+02  0.16543264807E+03  0.17515803540E+03  0.47000000000E+01 0. -1.
         -5    1    4    4    0  502  0.12109318658E+02 -0.31235471237E+02  0.10876737666E+03  0.11390663935E+03  0.47000000000E+01 0.  1.
          5    1    3    3  503    0  0.20372840472E+02  0.25702163938E+02  0.43287433955E+02  0.54511886762E+02  0.47000000000E+01 0. -1.
         -5    1    3    3    0  503 -0.39978252666E+01 -0.44255537230E+02 -0.10010348109E+02  0.45791180937E+02  0.47000000000E+01 0.  1.
<mgrwt>
<rscale>  0 0.93832400E+02</rscale>
<asrwt>0</asrwt>
<pdfrwt beam="1">  1        2 0.53603448E-01 0.94622095E+02</pdfrwt>
<pdfrwt beam="2">  1       -2 0.62992796E-02 0.94622095E+02</pdfrwt>
<totfact> 0.11689224E+04</totfact>
</mgrwt>
</event>
<event>
 8    1  0.2964543E-004  0.9491337E+02  0.7546771E-02  0.1292984E+00
          1   -1    0    0  501    0  0.00000000000E+00  0.00000000000E+00  0.37929153266E+03  0.37929153266E+03  0.00000000000E+00 0. -1.
         -1   -1    0    0    0  501 -0.00000000000E+00 -0.00000000000E+00 -0.23193727495E+02  0.23193727495E+02  0.00000000000E+00 0.  1.
         23    2    1    2    0    0 -0.14730989004E+02 -0.30736974327E+01  0.15964575401E+03  0.18430653523E+03  0.90860786373E+02 0.  0.
         23    2    1    2    0    0  0.14730989004E+02  0.30736974327E+01  0.19645205116E+03  0.21817872493E+03  0.93712848407E+02 0.  0.
          5    1    3    3  502    0  0.24253754316E+02  0.29668338437E+01  0.13560734432E+03  0.13787127524E+03  0.47000000000E+01 0. -1.
         -5    1    3    3    0  502 -0.38984743319E+02 -0.60405312764E+01  0.24038409688E+02  0.46435259987E+02  0.47000000000E+01 0.  1.
          5    1    4    4  503    0  0.13998514853E+01  0.43176766674E+02  0.14531235946E+03  0.15167057914E+03  0.47000000000E+01 0. -1.
         -5    1    4    4    0  503  0.13331137518E+02 -0.40103069242E+02  0.51139691702E+02  0.66508145798E+02  0.47000000000E+01 0.  1.
<mgrwt>
<rscale>  0 0.94201685E+02</rscale>
<asrwt>0</asrwt>
<pdfrwt beam="1">  1        1 0.58352539E-01 0.94913369E+02</pdfrwt>
<pdfrwt beam="2">  1       -1 0.35682660E-02 0.94913369E+02</pdfrwt>
<totfact> 0.17186497E+04</totfact>
</mgrwt>
</event>
<event>
 8    1  0.2964543E-004  0.1027909E+03  0.7546771E-02  0.1276035E+00
          1   -1    0    0  501    0  0.00000000000E+00  0.00000000000E+00  0.25640826637E+03  0.25640826637E+03  0.00000000000E+00 0. -1.
         -1   -1    0    0    0  501 -0.00000000000E+00 -0.00000000000E+00 -0.41965855876E+02  0.41965855876E+02  0.00000000000E+00 0.  1.
         23    2    1    2    0    0 -0.38377041370E+02  0.28991114048E+02  0.13764784549E+03  0.17006446381E+03  0.87531197207E+02 0.  0.
         23    2    1    2    0    0  0.38377041370E+02 -0.28991114048E+02  0.76794565004E+02  0.12830965844E+03  0.90844269141E+02 0.  0.
          5    1    4    4  502    0  0.34580445865E+02  0.12866417342E+01  0.88616263746E+02  0.95249120119E+02  0.47000000000E+01 0. -1.
         -5    1    3    3    0  503 -0.37398016409E+02 -0.35223875594E+01  0.11292636952E+02  0.39504841409E+02  0.47000000000E+01 0.  1.
          5    1    3    3  503    0 -0.97902496093E+00  0.32513501608E+02  0.12635520853E+03  0.13055962240E+03  0.47000000000E+01 0. -1.
         -5    1    4    4    0  502  0.37965955052E+01 -0.30277755782E+02 -0.11821698742E+02  0.33060538317E+02  0.47000000000E+01 0.  1.
<mgrwt>
<rscale>  0 0.10205399E+03</rscale>
<asrwt>0</asrwt>
<pdfrwt beam="1">  1        1 0.39447425E-01 0.10279087E+03</pdfrwt>
<pdfrwt beam="2">  1       -1 0.64562857E-02 0.10279087E+03</pdfrwt>
<totfact> 0.11748048E+04</totfact>
</mgrwt>
</event>
<event>
 8    1  0.2964543E-004  0.1052656E+03  0.7546771E-02  0.1274363E+00
         -2   -1    0    0    0  501 -0.00000000000E+00  0.00000000000E+00  0.29386250631E+02  0.29386250631E+02  0.00000000000E+00 0.  1.
          2   -1    0    0  501    0  0.00000000000E+00 -0.00000000000E+00 -0.49840005372E+03  0.49840005372E+03  0.00000000000E+00 0. -1.
         23    2    1    2    0    0 -0.33527980143E+01  0.35830084703E+02 -0.80623533471E+02  0.12538370070E+03  0.89027422900E+02 0.  0.
         23    2    1    2    0    0  0.33527980143E+01 -0.35830084703E+02 -0.38839026962E+03  0.40240260365E+03  0.98923291824E+02 0.  0.
          5    1    3    3  502    0 -0.47821913116E+00 -0.21061201030E+02 -0.61394779973E+02  0.65078505594E+02  0.47000000000E+01 0. -1.
         -5    1    3    3    0  502 -0.28745788832E+01  0.56891285732E+02 -0.19228753498E+02  0.60305195109E+02  0.47000000000E+01 0.  1.
          5    1    4    4  503    0 -0.42890229966E+02 -0.25937703852E+02 -0.27311301021E+03  0.27771413837E+03  0.47000000000E+01 0. -1.
         -5    1    4    4    0  503  0.46243027981E+02 -0.98923808509E+01 -0.11527725941E+03  0.12468846528E+03  0.47000000000E+01 0.  1.
<mgrwt>
<rscale>  0 0.10287545E+03</rscale>
<asrwt>0</asrwt>
<pdfrwt beam="1">  1        2 0.76676925E-01 0.10526563E+03</pdfrwt>
<pdfrwt beam="2">  1       -2 0.45209620E-02 0.10526563E+03</pdfrwt>
<totfact> 0.13238027E+04</totfact>
</mgrwt>
</event>
<event>
 8    1  0.2964543E-004  0.9510321E+02  0.7546771E-02  0.1292246E+00
         -2   -1    0    0    0  501 -0.00000000000E+00  0.00000000000E+00  0.21923817127E+02  0.21923817127E+02  0.00000000000E+00 0.  1.
          2   -1    0    0  501    0  0.00000000000E+00 -0.00000000000E+00 -0.55267036512E+03  0.55267036512E+03  0.00000000000E+00 0. -1.
         23    2    1    2    0    0  0.68102819747E+01 -0.19148315943E+02 -0.41738006265E+03  0.42807795637E+03  0.92906308120E+02 0.  0.
         23    2    1    2    0    0 -0.68102819747E+01  0.19148315943E+02 -0.11336648535E+03  0.14651622588E+03  0.90564929760E+02 0.  0.
          5    1    4    4  502    0  0.20805778433E+01  0.48706498898E+02 -0.29854908839E+02  0.57359022140E+02  0.47000000000E+01 0.  1.
         -5    1    3    3    0  503  0.78614974542E+00  0.32645810034E+02 -0.26301607246E+03  0.26507717992E+03  0.47000000000E+01 0.  1.
          5    1    3    3  503    0  0.60241322292E+01 -0.51794125977E+02 -0.15436399019E+03  0.16300077645E+03  0.47000000000E+01 0. -1.
         -5    1    4    4    0  502 -0.88908598179E+01 -0.29558182956E+02 -0.83511576510E+02  0.89157203742E+02  0.47000000000E+01 0. -1.
<mgrwt>
<rscale>  0 0.94526497E+02</rscale>
<asrwt>0</asrwt>
<pdfrwt beam="1">  1        2 0.85026212E-01 0.95103207E+02</pdfrwt>
<pdfrwt beam="2">  1       -2 0.33728949E-02 0.95103207E+02</pdfrwt>
<totfact> 0.18039171E+04</totfact>
</mgrwt>
</event>
<event>
 8    1  0.2964543E-004  0.9262599E+02  0.7546771E-02  0.1297008E+00
          1   -1    0    0  501    0  0.00000000000E+00  0.00000000000E+00  0.49824574957E+02  0.49824574957E+02  0.00000000000E+00 0. -1.
         -1   -1    0    0    0  501 -0.00000000000E+00 -0.00000000000E+00 -0.48608804390E+03  0.48608804390E+03  0.00000000000E+00 0.  1.
         23    2    1    2    0    0 -0.28845475782E+01  0.10441726618E+02 -0.26578411201E+01  0.92664111588E+02  0.91990342903E+02 0.  0.
         23    2    1    2    0    0  0.28845475782E+01 -0.10441726618E+02 -0.43360562783E+03  0.44324850727E+03  0.91312915005E+02 0.  0.
          5    1    3    3  502    0  0.38883749034E+02  0.35490928170E+01 -0.22896572659E+02  0.45506977908E+02  0.47000000000E+01 0. -1.
         -5    1    3    3    0  502 -0.41768296612E+02  0.68926338008E+01  0.20238731539E+02  0.47157133680E+02  0.47000000000E+01 0.  1.
          5    1    4    4  503    0  0.81485301613E+01  0.30956406882E+02 -0.68734054334E+02  0.75968137373E+02  0.47000000000E+01 0. -1.
         -5    1    4    4    0  503 -0.52639825831E+01 -0.41398133500E+02 -0.36487157349E+03  0.36728036990E+03  0.47000000000E+01 0.  1.
<mgrwt>
<rscale>  0 0.92457341E+02</rscale>
<asrwt>0</asrwt>
<pdfrwt beam="1">  1        1 0.76653189E-02 0.92625987E+02</pdfrwt>
<pdfrwt beam="2">  1       -1 0.74782779E-01 0.92625987E+02</pdfrwt>
<totfact> 0.16573971E+03</totfact>
</mgrwt>
</event>
<event>
 8    1  0.2964543E-004  0.1334563E+03  0.7546771E-02  0.1224340E+00
         -1   -1    0    0    0  501 -0.00000000000E+00  0.00000000000E+00  0.15517569902E+03  0.15517569902E+03  0.00000000000E+00 0.  1.
          1   -1    0    0  501    0  0.00000000000E+00 -0.00000000000E+00 -0.11357900177E+03  0.11357900177E+03  0.00000000000E+00 0. -1.
         23    2    1    2    0    0 -0.15965299543E+02 -0.91573860211E+02  0.44024501170E+02  0.14053022481E+03  0.95759723891E+02 0.  0.
         23    2    1    2    0    0  0.15965299543E+02  0.91573860211E+02 -0.24278039204E+01  0.12822447599E+03  0.88289066970E+02 0.  0.
          5    1    3    3  502    0  0.17924809087E+02 -0.74772516321E+02 -0.64226851840E+01  0.77301803748E+02  0.47000000000E+01 0. -1.
         -5    1    4    4    0  503 -0.91757196873E+01  0.71842071617E+02 -0.36528911095E+02  0.81252251856E+02  0.47000000000E+01 0.  1.
          5    1    4    4  503    0  0.25141019231E+02  0.19731788594E+02  0.34101107175E+02  0.46972224129E+02  0.47000000000E+01 0. -1.
         -5    1    3    3    0  502 -0.33890108630E+02 -0.16801343890E+02  0.50447186354E+02  0.63228421066E+02  0.47000000000E+01 0.  1.
<mgrwt>
<rscale>  0 0.13212275E+03</rscale>
<asrwt>0</asrwt>
<pdfrwt beam="1">  1        1 0.17473693E-01 0.13345631E+03</pdfrwt>
<pdfrwt beam="2">  1       -1 0.23873184E-01 0.13345631E+03</pdfrwt>
<totfact> 0.43831702E+03</totfact>
</mgrwt>
</event>
<event>
 8    1  0.2964543E-004  0.9729681E+02  0.7546771E-02  0.1287188E+00
         -4   -1    0    0    0  501 -0.00000000000E+00  0.00000000000E+00  0.85944600342E+03  0.85944600342E+03  0.00000000000E+00 0.  1.
          4   -1    0    0  501    0  0.00000000000E+00 -0.00000000000E+00 -0.13590912247E+02  0.13590912247E+02  0.00000000000E+00 0. -1.
         23    2    1    2    0    0 -0.24737454427E+02 -0.13294229112E+02  0.22824405613E+03  0.24811694568E+03  0.93155737305E+02 0.  0.
         23    2    1    2    0    0  0.24737454427E+02  0.13294229112E+02  0.61761103504E+03  0.62491996999E+03  0.91065361751E+02 0.  0.
          5    1    4    4  502    0  0.27538903843E+02  0.49935757194E+02  0.41824331675E+03  0.42213923423E+03  0.47000000000E+01 0. -1.
         -5    1    3    3    0  503 -0.37870823718E+02  0.35820298594E+01  0.22209065017E+03  0.22537386078E+03  0.47000000000E+01 0.  1.
          5    1    3    3  503    0  0.13133369291E+02 -0.16876258972E+02  0.61534059579E+01  0.22743084899E+02  0.47000000000E+01 0. -1.
         -5    1    4    4    0  502 -0.28014494160E+01 -0.36641528082E+02  0.19936771829E+03  0.20278073576E+03  0.47000000000E+01 0.  1.
<mgrwt>
<rscale>  0 0.96793039E+02</rscale>
<asrwt>0</asrwt>
<pdfrwt beam="1">  1        4 0.20909103E-02 0.97296812E+02</pdfrwt>
<pdfrwt beam="2">  1       -4 0.13222242E+00 0.97296812E+02</pdfrwt>
<totfact> 0.64300607E+02</totfact>
</mgrwt>
</event>
<event>
 8    1  0.2964543E-004  0.1102941E+03  0.7546771E-02  0.1261388E+00
          1   -1    0    0  501    0  0.00000000000E+00  0.00000000000E+00  0.44567140222E+02  0.44567140222E+02  0.00000000000E+00 0. -1.
         -1   -1    0    0    0  501 -0.00000000000E+00 -0.00000000000E+00 -0.29440136223E+03  0.29440136223E+03  0.00000000000E+00 0.  1.
         23    2    1    2    0    0 -0.51091221394E+02 -0.17211538707E+02 -0.17623229704E+03  0.20637128424E+03  0.92869448525E+02 0.  0.
         23    2    1    2    0    0  0.51091221394E+02  0.17211538707E+02 -0.73601924966E+02  0.13259721821E+03  0.96219691077E+02 0.  0.
          5    1    3    3  502    0 -0.18745365893E+02 -0.15995151482E+02  0.19969051838E+01  0.25165675904E+02  0.47000000000E+01 0. -1.
         -5    1    3    3    0  502 -0.32345855502E+02 -0.12163872252E+01 -0.17822920222E+03  0.18120560833E+03  0.47000000000E+01 0.  1.
          5    1    4    4  503    0  0.23618278190E+02  0.40684845416E+02 -0.82500464346E+02  0.95086783143E+02  0.47000000000E+01 0. -1.
         -5    1    4    4    0  503  0.27472943204E+02 -0.23473306708E+02  0.88985393793E+01  0.37510435071E+02  0.47000000000E+01 0.  1.
<mgrwt>
<rscale>  0 0.10955919E+03</rscale>
<asrwt>0</asrwt>
<pdfrwt beam="1">  1        1 0.68564830E-02 0.11029406E+03</pdfrwt>
<pdfrwt beam="2">  1       -1 0.45292518E-01 0.11029406E+03</pdfrwt>
<totfact> 0.49807373E+03</totfact>
</mgrwt>
</event>
<event>
 8    1  0.2964543E-004  0.9566519E+02  0.7546771E-02  0.1290918E+00
          1   -1    0    0  501    0  0.00000000000E+00  0.00000000000E+00  0.28388758947E+03  0.28388758947E+03  0.00000000000E+00 0. -1.
         -1   -1    0    0    0  501 -0.00000000000E+00 -0.00000000000E+00 -0.31612846578E+02  0.31612846578E+02  0.00000000000E+00 0.  1.
         23    2    1    2    0    0  0.23657955485E+02  0.64617517283E+01  0.13385043568E+03  0.16326329912E+03  0.90208162670E+02 0.  0.
         23    2    1    2    0    0 -0.23657955485E+02 -0.64617517283E+01  0.11842430720E+03  0.15223713693E+03  0.92468244441E+02 0.  0.
          5    1    3    3  502    0  0.24153757909E+02 -0.32954311927E+02  0.26799615797E+02  0.49088696281E+02  0.47000000000E+01 0. -1.
         -5    1    4    4    0  503 -0.21089118864E+02 -0.29877068723E+02  0.60988747684E+01  0.37372134584E+02  0.47000000000E+01 0.  1.
          5    1    4    4  503    0 -0.25688366208E+01  0.23415316994E+02  0.11232543244E+03  0.11486500234E+03  0.47000000000E+01 0. -1.
         -5    1    3    3    0  502 -0.49580242429E+00  0.39416063655E+02  0.10705081989E+03  0.11417460284E+03  0.47000000000E+01 0.  1.
<mgrwt>
<rscale>  0 0.95114772E+02</rscale>
<asrwt>0</asrwt>
<pdfrwt beam="1">  1        1 0.43675012E-01 0.95665194E+02</pdfrwt>
<pdfrwt beam="2">  1       -1 0.48635150E-02 0.95665194E+02</pdfrwt>
<totfact> 0.15640287E+04</totfact>
</mgrwt>
</event>
<event>
 8    1  0.2964543E-004  0.1306365E+03  0.7546771E-02  0.1227016E+00
         -3   -1    0    0    0  501 -0.00000000000E+00  0.00000000000E+00  0.74333072026E+03  0.74333072026E+03  0.00000000000E+00 0.  1.
          3   -1    0    0  501    0  0.00000000000E+00 -0.00000000000E+00 -0.23299606484E+02  0.23299606484E+02  0.00000000000E+00 0. -1.
         23    2    1    2    0    0 -0.15045653125E+02  0.92805398367E+02  0.42223089417E+03  0.44197831484E+03  0.90701097891E+02 0.  0.
         23    2    1    2    0    0  0.15045653125E+02 -0.92805398367E+02  0.29780021961E+03  0.32465201190E+03  0.88739756521E+02 0.  0.
          5    1    4    4  502    0 -0.24306333043E+02 -0.53593831491E+02  0.77599224627E+02  0.97502955148E+02  0.47000000000E+01 0. -1.
         -5    1    3    3    0  503 -0.45110135958E+02  0.20249883672E+02  0.12490105474E+03  0.13441482668E+03  0.47000000000E+01 0.  1.
          5    1    3    3  503    0  0.30064482833E+02  0.72555514695E+02  0.29732983942E+03  0.30756348817E+03  0.47000000000E+01 0. -1.
         -5    1    4    4    0  502  0.39351986169E+02 -0.39211566876E+02  0.22020099498E+03  0.22714905675E+03  0.47000000000E+01 0.  1.
<mgrwt>
<rscale>  0 0.13029669E+03</rscale>
<asrwt>0</asrwt>
<pdfrwt beam="1">  1        3 0.35845554E-02 0.13063653E+03</pdfrwt>
<pdfrwt beam="2">  1       -3 0.11435855E+00 0.13063653E+03</pdfrwt>
<totfact> 0.58945853E+02</totfact>
</mgrwt>
</event>
<event>
 8    1  0.2964543E-004  0.1402099E+03  0.7546771E-02  0.1213641E+00
          1   -1    0    0  501    0  0.00000000000E+00  0.00000000000E+00  0.40372451104E+02  0.40372451104E+02  0.00000000000E+00 0. -1.
         -1   -1    0    0    0  501 -0.00000000000E+00 -0.00000000000E+00 -0.48833562328E+03  0.48833562328E+03  0.00000000000E+00 0.  1.
         23    2    1    2    0    0 -0.52816796308E+02  0.88899762767E+02 -0.18987421459E+03  0.23499267881E+03  0.92068235218E+02 0.  0.
         23    2    1    2    0    0  0.52816796308E+02 -0.88899762767E+02 -0.25808895759E+03  0.29371539558E+03  0.94689185111E+02 0.  0.
          5    1    4    4  502    0  0.51614173785E+02 -0.58971966461E+02 -0.76517170804E+02  0.10962975505E+03  0.47000000000E+01 0. -1.
         -5    1    3    3    0  503 -0.39162251954E+02  0.10520978407E+03 -0.13311524494E+03  0.17419684004E+03  0.47000000000E+01 0.  1.
          5    1    3    3  503    0 -0.13654544354E+02 -0.16310021308E+02 -0.56758969646E+02  0.60795838771E+02  0.47000000000E+01 0. -1.
         -5    1    4    4    0  502  0.12026225230E+01 -0.29927796306E+02 -0.18157178679E+03  0.18408564053E+03  0.47000000000E+01 0.  1.
<mgrwt>
<rscale>  0 0.13976871E+03</rscale>
<asrwt>0</asrwt>
<pdfrwt beam="1">  1        1 0.62111463E-02 0.14020993E+03</pdfrwt>
<pdfrwt beam="2">  1       -1 0.75128558E-01 0.14020993E+03</pdfrwt>
<totfact> 0.22215956E+03</totfact>
</mgrwt>
</event>
<event>
 8    1  0.2964543E-004  0.9738575E+02  0.7546771E-02  0.1286188E+00
          1   -1    0    0  501    0  0.00000000000E+00  0.00000000000E+00  0.87627359615E+03  0.87627359615E+03  0.00000000000E+00 0. -1.
         -1   -1    0    0    0  501 -0.00000000000E+00 -0.00000000000E+00 -0.11297890199E+02  0.11297890199E+02  0.00000000000E+00 0.  1.
         23    2    1    2    0    0  0.24586974088E+02  0.31648912445E+02  0.33475444688E+03  0.34848098614E+03  0.88160564002E+02 0.  0.
         23    2    1    2    0    0 -0.24586974088E+02 -0.31648912445E+02  0.53022125908E+03  0.53909050021E+03  0.88757032875E+02 0.  0.
          5    1    4    4  502    0 -0.40785173146E+02 -0.50990612650E+02  0.27972817585E+03  0.28728629500E+03  0.47000000000E+01 0. -1.
         -5    1    3    3    0  503  0.19524640241E+02 -0.26771025628E+02  0.74669499158E+02  0.81826178539E+02  0.47000000000E+01 0.  1.
          5    1    3    3  503    0  0.50623338471E+01  0.58419938073E+02  0.26008494772E+03  0.26665480760E+03  0.47000000000E+01 0. -1.
         -5    1    4    4    0  502  0.16198199058E+02  0.19341700205E+02  0.25049308322E+03  0.25180420521E+03  0.47000000000E+01 0.  1.
<mgrwt>
<rscale>  0 0.97249635E+02</rscale>
<asrwt>0</asrwt>
<pdfrwt beam="1">  1        1 0.13481127E+00 0.97385748E+02</pdfrwt>
<pdfrwt beam="2">  1       -1 0.17381377E-02 0.97385748E+02</pdfrwt>
<totfact> 0.15625464E+04</totfact>
</mgrwt>
</event>
<event>
 8    1  0.2964543E-004  0.9700187E+02  0.7546771E-02  0.1291436E+00
         -2   -1    0    0    0  501 -0.00000000000E+00  0.00000000000E+00  0.42278189118E+03  0.42278189118E+03  0.00000000000E+00 0.  1.
          2   -1    0    0  501    0  0.00000000000E+00 -0.00000000000E+00 -0.23328606515E+02  0.23328606515E+02  0.00000000000E+00 0. -1.
         23    2    1    2    0    0  0.11910463850E+02 -0.27937510664E+02  0.28619612895E+03  0.30218799885E+03  0.92124908532E+02 0.  0.
         23    2    1    2    0    0 -0.11910463850E+02  0.27937510664E+02  0.11325715572E+03  0.14392249885E+03  0.83451415218E+02 0.  0.
          5    1    3    3  502    0 -0.36537949619E+02 -0.20805200322E+02  0.83493377385E+02  0.93600812977E+02  0.47000000000E+01 0. -1.
         -5    1    3    3    0  502  0.48448413469E+02 -0.71323103421E+01  0.20270275157E+03  0.20858718588E+03  0.47000000000E+01 0.  1.
          5    1    4    4  503    0 -0.17550965682E+02  0.53336415452E+02  0.49882300499E+02  0.75253860451E+02  0.47000000000E+01 0. -1.
         -5    1    4    4    0  503  0.56405018321E+01 -0.25398904788E+02  0.63374855217E+02  0.68668638395E+02  0.47000000000E+01 0.  1.
<mgrwt>
<rscale>  0 0.94884578E+02</rscale>
<asrwt>0</asrwt>
<pdfrwt beam="1">  1        2 0.35890167E-02 0.97001868E+02</pdfrwt>
<pdfrwt beam="2">  1       -2 0.65043362E-01 0.97001868E+02</pdfrwt>
<totfact> 0.50321988E+03</totfact>
</mgrwt>
</event>
<event>
 8    1  0.2964543E-004  0.1004744E+03  0.7546771E-02  0.1284413E+00
         -1   -1    0    0    0  501 -0.00000000000E+00  0.00000000000E+00  0.13389485834E+02  0.13389485834E+02  0.00000000000E+00 0.  1.
          1   -1    0    0  501    0  0.00000000000E+00 -0.00000000000E+00 -0.75002248803E+03  0.75002248803E+03  0.00000000000E+00 0. -1.
         23    2    1    2    0    0  0.17751075836E+01 -0.94096965080E+01 -0.24048496968E+03  0.25719267677E+03  0.90682737874E+02 0.  0.
         23    2    1    2    0    0 -0.17751075836E+01  0.94096965080E+01 -0.49614803252E+03  0.50621929709E+03  0.10001706446E+03 0.  0.
          5    1    3    3  502    0  0.43614409576E+02  0.82754028469E+01 -0.13672775884E+03  0.14383069579E+03  0.47000000000E+01 0. -1.
         -5    1    4    4    0  503 -0.44534384453E+02  0.27579479808E+02 -0.22377490214E+03  0.22987221653E+03  0.47000000000E+01 0.  1.
          5    1    4    4  503    0  0.42759276869E+02 -0.18169783300E+02 -0.27237313038E+03  0.27634708057E+03  0.47000000000E+01 0. -1.
         -5    1    3    3    0  502 -0.41839301992E+02 -0.17685099355E+02 -0.10375721084E+03  0.11336198098E+03  0.47000000000E+01 0.  1.
<mgrwt>
<rscale>  0 0.98067412E+02</rscale>
<asrwt>0</asrwt>
<pdfrwt beam="1">  1        1 0.11538806E+00 0.10047441E+03</pdfrwt>
<pdfrwt beam="2">  1       -1 0.20599211E-02 0.10047441E+03</pdfrwt>
<totfact> 0.15514679E+04</totfact>
</mgrwt>
</event>
<event>
 8    1  0.2964543E-004  0.9348855E+02  0.7546771E-02  0.1294619E+00
         -1   -1    0    0    0  501 -0.00000000000E+00  0.00000000000E+00  0.10157325886E+03  0.10157325886E+03  0.00000000000E+00 0.  1.
          1   -1    0    0  501    0  0.00000000000E+00 -0.00000000000E+00 -0.11783350928E+03  0.11783350928E+03  0.00000000000E+00 0. -1.
         23    2    1    2    0    0 -0.25928707160E+01 -0.21519536508E+02 -0.65110561702E+02  0.11392758227E+03  0.90941164098E+02 0.  0.
         23    2    1    2    0    0  0.25928707160E+01  0.21519536508E+02  0.48850311280E+02  0.10547918586E+03  0.90937848598E+02 0.  0.
          5    1    4    4  502    0  0.29922596923E+02 -0.19433423727E+02  0.42381364211E+02  0.55599368672E+02  0.47000000000E+01 0. -1.
         -5    1    3    3    0  503 -0.44776619851E+02 -0.22016020826E+02 -0.43160068617E+02  0.66140247817E+02  0.47000000000E+01 0.  1.
          5    1    3    3  503    0  0.42183749135E+02  0.49648431805E+00 -0.21950493085E+02  0.47787334456E+02  0.47000000000E+01 0. -1.
         -5    1    4    4    0  502 -0.27329726207E+02  0.40952960235E+02  0.64689470684E+01  0.49879817188E+02  0.47000000000E+01 0.  1.
<mgrwt>
<rscale>  0 0.93487743E+02</rscale>
<asrwt>0</asrwt>
<pdfrwt beam="1">  1        1 0.18128232E-01 0.93488549E+02</pdfrwt>
<pdfrwt beam="2">  1       -1 0.15626655E-01 0.93488549E+02</pdfrwt>
<totfact> 0.80054921E+03</totfact>
</mgrwt>
</event>
<event>
 8    1  0.2964543E-004  0.1085519E+03  0.7546771E-02  0.1264020E+00
          3   -1    0    0  501    0  0.00000000000E+00  0.00000000000E+00  0.41639231998E+02  0.41639231998E+02  0.00000000000E+00 0. -1.
         -3   -1    0    0    0  501 -0.00000000000E+00 -0.00000000000E+00 -0.37021225492E+03  0.37021225492E+03  0.00000000000E+00 0.  1.
         23    2    1    2    0    0  0.58405364474E+02 -0.19973751353E+02 -0.62928342604E+02  0.12547306590E+03  0.89293765850E+02 0.  0.
         23    2    1    2    0    0 -0.58405364474E+02  0.19973751353E+02 -0.26564468032E+03  0.28637842103E+03  0.87380584254E+02 0.  0.
          5    1    4    4  502    0 -0.80043417949E+02  0.24162739609E+02 -0.19484809676E+03  0.21208172376E+03  0.47000000000E+01 0. -1.
         -5    1    3    3    0  503  0.59790939103E+01 -0.47290219824E+02 -0.18385407017E+02  0.51305239948E+02  0.47000000000E+01 0.  1.
          5    1    3    3  503    0  0.52426270564E+02  0.27316468470E+02 -0.44542935587E+02  0.74167825947E+02  0.47000000000E+01 0. -1.
         -5    1    4    4    0  502  0.21638053475E+02 -0.41889882557E+01 -0.70796583557E+02  0.74296697263E+02  0.47000000000E+01 0.  1.
<mgrwt>
<rscale>  0 0.10815769E+03</rscale>
<asrwt>0</asrwt>
<pdfrwt beam="1">  1        3 0.64060356E-02 0.10855190E+03</pdfrwt>
<pdfrwt beam="2">  1       -3 0.56955732E-01 0.10855190E+03</pdfrwt>
<totfact> 0.10426003E+03</totfact>
</mgrwt>
</event>
<event>
 8    1  0.2964543E-004  0.1216529E+03  0.7546771E-02  0.1241188E+00
         -1   -1    0    0    0  501 -0.00000000000E+00  0.00000000000E+00  0.26052133349E+03  0.26052133349E+03  0.00000000000E+00 0.  1.
          1   -1    0    0  501    0  0.00000000000E+00 -0.00000000000E+00 -0.57943193439E+02  0.57943193439E+02  0.00000000000E+00 0. -1.
         23    2    1    2    0    0 -0.72465473140E+01  0.79918283842E+02  0.13037054798E+03  0.17699592252E+03  0.88834859529E+02 0.  0.
         23    2    1    2    0    0  0.72465473140E+01 -0.79918283842E+02  0.72207592079E+02  0.14146860442E+03  0.91432954353E+02 0.  0.
          5    1    4    4  502    0  0.37834561753E+02 -0.14058591752E+02  0.51909196699E+02  0.65922323738E+02  0.47000000000E+01 0. -1.
         -5    1    3    3    0  503 -0.37117666785E+02  0.49553371564E+02  0.11639564369E+03  0.13192154370E+03  0.47000000000E+01 0.  1.
          5    1    3    3  503    0  0.29871119471E+02  0.30364912277E+02  0.13974904282E+02  0.45074378818E+02  0.47000000000E+01 0. -1.
         -5    1    4    4    0  502 -0.30588014439E+02 -0.65859692090E+02  0.20298395381E+02  0.75546280679E+02  0.47000000000E+01 0.  1.
<mgrwt>
<rscale>  0 0.12116487E+03</rscale>
<asrwt>0</asrwt>
<pdfrwt beam="1">  1        1 0.89143376E-02 0.12165291E+03</pdfrwt>
<pdfrwt beam="2">  1       -1 0.40080204E-01 0.12165291E+03</pdfrwt>
<totfact> 0.43815320E+03</totfact>
</mgrwt>
</event>
<event>
 8    1  0.2964543E-004  0.1084875E+03  0.7546771E-02  0.1264877E+00
          1   -1    0    0  501    0  0.00000000000E+00  0.00000000000E+00  0.28402323814E+02  0.28402323814E+02  0.00000000000E+00 0. -1.
         -1   -1    0    0    0  501 -0.00000000000E+00 -0.00000000000E+00 -0.42450798445E+03  0.42450798445E+03  0.00000000000E+00 0.  1.
         23    2    1    2    0    0  0.15529178622E+02  0.53354925160E+02 -0.24670369631E+03  0.26827423351E+03  0.89556949273E+02 0.  0.
         23    2    1    2    0    0 -0.15529178622E+02 -0.53354925160E+02 -0.14940196432E+03  0.18463607476E+03  0.93175263508E+02 0.  0.
          5    1    3    3  502    0  0.34740838909E+02 -0.11966590022E+02 -0.81211698363E+02  0.89261162417E+02  0.47000000000E+01 0. -1.
         -5    1    3    3    0  502 -0.19211660287E+02  0.65321515182E+02 -0.16549199795E+03  0.17901307109E+03  0.47000000000E+01 0.  1.
          5    1    4    4  503    0 -0.24544639832E+02 -0.76829224778E+02 -0.96362029813E+02  0.12574935353E+03  0.47000000000E+01 0. -1.
         -5    1    4    4    0  503  0.90154612092E+01  0.23474299618E+02 -0.53039934510E+02  0.58886721221E+02  0.47000000000E+01 0.  1.
<mgrwt>
<rscale>  0 0.10770625E+03</rscale>
<asrwt>0</asrwt>
<pdfrwt beam="1">  1        1 0.43695882E-02 0.10848748E+03</pdfrwt>
<pdfrwt beam="2">  1       -1 0.65308921E-01 0.10848748E+03</pdfrwt>
<totfact> 0.46513353E+03</totfact>
</mgrwt>
</event>
<event>
 8    1  0.2964543E-004  0.1060428E+03  0.7546771E-02  0.1269182E+00
          2   -1    0    0  501    0  0.00000000000E+00  0.00000000000E+00  0.21550375831E+03  0.21550375831E+03  0.00000000000E+00 0. -1.
         -2   -1    0    0    0  501 -0.00000000000E+00 -0.00000000000E+00 -0.83423370675E+02  0.83423370675E+02  0.00000000000E+00 0.  1.
         23    2    1    2    0    0  0.15451804897E+02  0.48478528033E+02 -0.26585187136E+02  0.10932448839E+03  0.93038409449E+02 0.  0.
         23    2    1    2    0    0 -0.15451804897E+02 -0.48478528033E+02  0.15866557477E+03  0.18960264059E+03  0.90473591430E+02 0.  0.
          5    1    3    3  502    0  0.53146601690E+02  0.31901002885E+02 -0.44129772160E+01  0.62320138191E+02  0.47000000000E+01 0. -1.
         -5    1    4    4    0  503  0.24980424809E+02 -0.45518317596E+02  0.12903339902E+03  0.13916769353E+03  0.47000000000E+01 0. -1.
          5    1    4    4  503    0 -0.40432229706E+02 -0.29602104379E+01  0.29632175747E+02  0.50434947055E+02  0.47000000000E+01 0.  1.
         -5    1    3    3    0  502 -0.37694796793E+02  0.16577525148E+02 -0.22172209920E+02  0.47004350203E+02  0.47000000000E+01 0.  1.
<mgrwt>
<rscale>  0 0.10547753E+03</rscale>
<asrwt>0</asrwt>
<pdfrwt beam="1">  1        2 0.33154424E-01 0.10604278E+03</pdfrwt>
<pdfrwt beam="2">  1       -2 0.12834365E-01 0.10604278E+03</pdfrwt>
<totfact> 0.65017849E+03</totfact>
</mgrwt>
</event>
<event>
 8    1  0.2964543E-004  0.8889292E+02  0.7546771E-02  0.1308197E+00
          3   -1    0    0  501    0  0.00000000000E+00  0.00000000000E+00  0.11438298878E+03  0.11438298878E+03  0.00000000000E+00 0. -1.
         -3   -1    0    0    0  501 -0.00000000000E+00 -0.00000000000E+00 -0.66079720384E+02  0.66079720384E+02  0.00000000000E+00 0.  1.
         23    2    1    2    0    0 -0.11639868702E+02 -0.60116148657E+01  0.18509583127E+02  0.86709760935E+02  0.83692006292E+02 0.  0.
         23    2    1    2    0    0  0.11639868702E+02  0.60116148657E+01  0.29793685266E+02  0.93752948226E+02  0.87922270004E+02 0.  0.
          5    1    4    4  502    0 -0.23299515649E+02  0.35333714493E+02  0.96230140591E+01  0.43658117332E+02  0.47000000000E+01 0.  1.
         -5    1    3    3    0  503 -0.46306016864E+02  0.42806042602E+01  0.22816509409E+01  0.46796011600E+02  0.47000000000E+01 0.  1.
          5    1    3    3  503    0  0.34666148162E+02 -0.10292219126E+02  0.16227932186E+02  0.39913749335E+02  0.47000000000E+01 0. -1.
         -5    1    4    4    0  502  0.34939384352E+02 -0.29322099627E+02  0.20170671207E+02  0.50094830895E+02  0.47000000000E+01 0. -1.
<mgrwt>
<rscale>  0 0.87828512E+02</rscale>
<asrwt>0</asrwt>
<pdfrwt beam="1">  1        3 0.17597383E-01 0.88892922E+02</pdfrwt>
<pdfrwt beam="2">  1       -3 0.10166111E-01 0.88892922E+02</pdfrwt>
<totfact> 0.42109991E+03</totfact>
</mgrwt>
</event>
<event>
 8    1  0.2964543E-004  0.9541286E+02  0.7546771E-02  0.1290995E+00
          1   -1    0    0  501    0  0.00000000000E+00  0.00000000000E+00  0.15214284642E+03  0.15214284642E+03  0.00000000000E+00 0. -1.
         -1   -1    0    0    0  501 -0.00000000000E+00 -0.00000000000E+00 -0.74960441928E+02  0.74960441928E+02  0.00000000000E+00 0.  1.
         23    2    1    2    0    0  0.33414314868E+01 -0.25311083920E+02 -0.14001467562E+02  0.95125592023E+02  0.90559488902E+02 0.  0.
         23    2    1    2    0    0 -0.33414314868E+01  0.25311083920E+02  0.91183872055E+02  0.13197769633E+03  0.91933659075E+02 0.  0.
          5    1    4    4  502    0 -0.36017580010E+02  0.38380458905E+02  0.77766973197E+02  0.94021900724E+02  0.47000000000E+01 0. -1.
         -5    1    3    3    0  503 -0.17875913458E+02 -0.18501528663E+02 -0.47731985800E+02  0.54426898802E+02  0.47000000000E+01 0.  1.
          5    1    3    3  503    0  0.21217344945E+02 -0.68095552569E+01  0.33730518238E+02  0.40698693221E+02  0.47000000000E+01 0. -1.
         -5    1    4    4    0  502  0.32676148523E+02 -0.13069374985E+02  0.13416898858E+02  0.37955795602E+02  0.47000000000E+01 0.  1.
<mgrwt>
<rscale>  0 0.95080289E+02</rscale>
<asrwt>0</asrwt>
<pdfrwt beam="1">  1        1 0.23406592E-01 0.95412860E+02</pdfrwt>
<pdfrwt beam="2">  1       -1 0.11532376E-01 0.95412860E+02</pdfrwt>
<totfact> 0.92907868E+03</totfact>
</mgrwt>
</event>
<event>
 8    1  0.2964543E-004  0.9780193E+02  0.7546771E-02  0.1288077E+00
         -1   -1    0    0    0  501 -0.00000000000E+00  0.00000000000E+00  0.20154033347E+02  0.20154033347E+02  0.00000000000E+00 0.  1.
          1   -1    0    0  501    0  0.00000000000E+00 -0.00000000000E+00 -0.44988732396E+03  0.44988732396E+03  0.00000000000E+00 0. -1.
         23    2    1    2    0    0 -0.14192715866E+02  0.15719141870E+02 -0.22321148474E+03  0.24153211693E+03  0.89810199756E+02 0.  0.
         23    2    1    2    0    0  0.14192715866E+02 -0.15719141870E+02 -0.20652180587E+03  0.22850924038E+03  0.95481370096E+02 0.  0.
          5    1    3    3  502    0  0.24496226547E+02  0.23588374634E+01 -0.18034350225E+03  0.18207552838E+03  0.47000000000E+01 0. -1.
         -5    1    4    4    0  503  0.28156721794E+02  0.17244996694E+02 -0.20789749781E+02  0.39300058385E+02  0.47000000000E+01 0.  1.
          5    1    4    4  503    0 -0.13964005927E+02 -0.32964138564E+02 -0.18573205609E+03  0.18920918200E+03  0.47000000000E+01 0. -1.
         -5    1    3    3    0  502 -0.38688942413E+02  0.13360304407E+02 -0.42867982489E+02  0.59456588546E+02  0.47000000000E+01 0.  1.
<mgrwt>
<rscale>  0 0.96389514E+02</rscale>
<asrwt>0</asrwt>
<pdfrwt beam="1">  1        1 0.69213432E-01 0.97801926E+02</pdfrwt>
<pdfrwt beam="2">  1       -1 0.31006206E-02 0.97801926E+02</pdfrwt>
<totfact> 0.17061394E+04</totfact>
</mgrwt>
</event>
<event>
 8    1  0.2964543E-004  0.9512659E+02  0.7546771E-02  0.1291062E+00
         -2   -1    0    0    0  501 -0.00000000000E+00  0.00000000000E+00  0.34340256077E+02  0.34340256077E+02  0.00000000000E+00 0.  1.
          2   -1    0    0  501    0  0.00000000000E+00 -0.00000000000E+00 -0.33578780322E+03  0.33578780322E+03  0.00000000000E+00 0. -1.
         23    2    1    2    0    0  0.24193064343E+02  0.72993825845E+01 -0.64556240614E+02  0.11496337051E+03  0.91708685563E+02 0.  0.
         23    2    1    2    0    0 -0.24193064343E+02 -0.72993825845E+01 -0.23689130653E+03  0.25516468879E+03  0.91394430616E+02 0.  0.
          5    1    4    4  502    0 -0.57196646077E+02 -0.90803377923E+00 -0.11346681593E+03  0.12715773341E+03  0.47000000000E+01 0. -1.
         -5    1    3    3    0  503  0.10910311660E+02 -0.28178827789E+02  0.91825295456E+01  0.31929454817E+02  0.47000000000E+01 0.  1.
          5    1    3    3  503    0  0.13282752683E+02  0.35478210373E+02 -0.73738770160E+02  0.83033915690E+02  0.47000000000E+01 0. -1.
         -5    1    4    4    0  502  0.33003581734E+02 -0.63913488053E+01 -0.12342449060E+03  0.12800695538E+03  0.47000000000E+01 0.  1.
<mgrwt>
<rscale>  0 0.95050769E+02</rscale>
<asrwt>0</asrwt>
<pdfrwt beam="1">  1        2 0.51659662E-01 0.95126591E+02</pdfrwt>
<pdfrwt beam="2">  1       -2 0.52831163E-02 0.95126591E+02</pdfrwt>
<totfact> 0.15823900E+04</totfact>
</mgrwt>
</event>
<event>
 8    1  0.2964543E-004  0.1720309E+03  0.7546771E-02  0.1175857E+00
          2   -1    0    0  501    0  0.00000000000E+00  0.00000000000E+00  0.11799522405E+03  0.11799522405E+03  0.00000000000E+00 0. -1.
         -2   -1    0    0    0  501 -0.00000000000E+00 -0.00000000000E+00 -0.27682527835E+03  0.27682527835E+03  0.00000000000E+00 0.  1.
         23    2    1    2    0    0  0.45856150725E+02 -0.13879588687E+03 -0.14056252697E+03  0.22182247775E+03  0.89890504926E+02 0.  0.
         23    2    1    2    0    0 -0.45856150725E+02  0.13879588687E+03 -0.18267527325E+02  0.17299802466E+03  0.90705728647E+02 0.  0.
          5    1    3    3  502    0  0.46405180222E+02 -0.37651809764E+02 -0.17473724685E+02  0.62438134055E+02  0.47000000000E+01 0. -1.
         -5    1    3    3    0  502 -0.54902949759E+00 -0.10114407710E+03 -0.12308880229E+03  0.15938434370E+03  0.47000000000E+01 0.  1.
          5    1    4    4  503    0  0.27599822481E+02  0.37960258207E+02 -0.61918146543E+01  0.47572680951E+02  0.47000000000E+01 0. -1.
         -5    1    4    4    0  503 -0.73455973205E+02  0.10083562866E+03 -0.12075712671E+02  0.12542534371E+03  0.47000000000E+01 0.  1.
<mgrwt>
<rscale>  0 0.17192364E+03</rscale>
<asrwt>0</asrwt>
<pdfrwt beam="1">  1        2 0.18153111E-01 0.17203085E+03</pdfrwt>
<pdfrwt beam="2">  1       -2 0.42588505E-01 0.17203085E+03</pdfrwt>
<totfact> 0.16126781E+03</totfact>
</mgrwt>
</event>
<event>
 8    1  0.2964543E-004  0.1017092E+03  0.7546771E-02  0.1283963E+00
          2   -1    0    0  501    0  0.00000000000E+00  0.00000000000E+00  0.18037232365E+03  0.18037232365E+03  0.00000000000E+00 0. -1.
         -2   -1    0    0    0  501 -0.00000000000E+00 -0.00000000000E+00 -0.52417450279E+02  0.52417450279E+02  0.00000000000E+00 0.  1.
         23    2    1    2    0    0  0.11227568178E+02  0.11734892887E+02  0.44450916776E+02  0.11099840131E+03  0.10040415874E+03 0.  0.
         23    2    1    2    0    0 -0.11227568178E+02 -0.11734892887E+02  0.83503956599E+02  0.12179137263E+03  0.87157682853E+02 0.  0.
          5    1    4    4  502    0 -0.30284064508E+02 -0.25407944984E+02  0.88779189436E+02  0.97296057003E+02  0.47000000000E+01 0. -1.
         -5    1    4    4    0  502  0.19056496330E+02  0.13673052097E+02 -0.52752328371E+01  0.24495315624E+02  0.47000000000E+01 0.  1.
          5    1    3    3  503    0  0.31507451673E+02 -0.12364468632E+02  0.64763819938E+02  0.73225965125E+02  0.47000000000E+01 0. -1.
         -5    1    3    3    0  503 -0.20279883496E+02  0.24099361519E+02 -0.20312903163E+02  0.37772436182E+02  0.47000000000E+01 0.  1.
<mgrwt>
<rscale>  0 0.98276474E+02</rscale>
<asrwt>0</asrwt>
<pdfrwt beam="1">  1        2 0.27749588E-01 0.10170920E+03</pdfrwt>
<pdfrwt beam="2">  1       -2 0.80642232E-02 0.10170920E+03</pdfrwt>
<totfact> 0.16216945E+04</totfact>
</mgrwt>
</event>
<event>
 8    1  0.2964543E-004  0.1216643E+03  0.7546771E-02  0.1242250E+00
         -3   -1    0    0    0  501 -0.00000000000E+00  0.00000000000E+00  0.63669299477E+02  0.63669299477E+02  0.00000000000E+00 0.  1.
          3   -1    0    0  501    0  0.00000000000E+00 -0.00000000000E+00 -0.38168593615E+03  0.38168593615E+03  0.00000000000E+00 0. -1.
         23    2    1    2    0    0  0.54114669485E+02  0.39501890191E+02 -0.17624199830E+02  0.12293415874E+03  0.10155490231E+03 0.  0.
         23    2    1    2    0    0 -0.54114669485E+02 -0.39501890191E+02 -0.30039243685E+03  0.32242107689E+03  0.96077770204E+02 0.  0.
          5    1    3    3  502    0 -0.27833742563E+02  0.28716604358E+01 -0.16940701793E+02  0.33046044180E+02  0.47000000000E+01 0. -1.
         -5    1    3    3    0  502  0.81948412048E+02  0.36630229755E+02 -0.68349803676E+00  0.89888114557E+02  0.47000000000E+01 0.  1.
          5    1    4    4  503    0 -0.77268626494E+02 -0.38552373701E+02 -0.27229619426E+03  0.28569920120E+03  0.47000000000E+01 0. -1.
         -5    1    4    4    0  503  0.23153957009E+02 -0.94951649029E+00 -0.28096242584E+02  0.36721875688E+02  0.47000000000E+01 0.  1.
<mgrwt>
<rscale>  0 0.12051483E+03</rscale>
<asrwt>0</asrwt>
<pdfrwt beam="1">  1        3 0.58720912E-01 0.12166427E+03</pdfrwt>
<pdfrwt beam="2">  1       -3 0.97952770E-02 0.12166427E+03</pdfrwt>
<totfact> 0.50193365E+02</totfact>
</mgrwt>
</event>
<event>
 8    1  0.2964543E-004  0.1904599E+03  0.7546771E-02  0.1158279E+00
         -1   -1    0    0    0  501 -0.00000000000E+00  0.00000000000E+00  0.26667718490E+02  0.26667718490E+02  0.00000000000E+00 0.  1.
          1   -1    0    0  501    0  0.00000000000E+00 -0.00000000000E+00 -0.14261871095E+04  0.14261871095E+04  0.00000000000E+00 0. -1.
         23    2    1    2    0    0 -0.69677045249E+02 -0.15073104032E+03 -0.86260956764E+03  0.88316445243E+03  0.91156166529E+02 0.  0.
         23    2    1    2    0    0  0.69677045249E+02  0.15073104032E+03 -0.53690982337E+03  0.56969037556E+03  0.93275015022E+02 0.  0.
          5    1    4    4  502    0  0.50698010009E+02  0.50918363757E+02 -0.34562265261E+03  0.35304401423E+03  0.47000000000E+01 0. -1.
         -5    1    4    4    0  502  0.18979035240E+02  0.99812676561E+02 -0.19128717076E+03  0.21664636133E+03  0.47000000000E+01 0.  1.
          5    1    3    3  503    0 -0.37738662630E+02 -0.11248172456E+03 -0.75746345234E+03  0.76671332103E+03  0.47000000000E+01 0. -1.
         -5    1    3    3    0  503 -0.31938382619E+02 -0.38249315761E+02 -0.10514611530E+03  0.11645113139E+03  0.47000000000E+01 0.  1.
<mgrwt>
<rscale>  0 0.19020219E+03</rscale>
<asrwt>0</asrwt>
<pdfrwt beam="1">  1        1 0.21941341E+00 0.19045988E+03</pdfrwt>
<pdfrwt beam="2">  1       -1 0.41027258E-02 0.19045988E+03</pdfrwt>
<totfact> 0.18983085E+03</totfact>
</mgrwt>
</event>
<event>
 8    1  0.2964543E-004  0.1850410E+03  0.7546771E-02  0.1163044E+00
          2   -1    0    0  501    0  0.00000000000E+00  0.00000000000E+00  0.11129209947E+04  0.11129209947E+04  0.00000000000E+00 0. -1.
         -2   -1    0    0    0  501 -0.00000000000E+00 -0.00000000000E+00 -0.42744573072E+02  0.42744573072E+02  0.00000000000E+00 0.  1.
         23    2    1    2    0    0  0.81894063338E+02  0.13913033775E+03  0.22876631285E+03  0.29414879715E+03  0.90142112688E+02 0.  0.
         23    2    1    2    0    0 -0.81894063338E+02 -0.13913033775E+03  0.84141010874E+03  0.86151677058E+03  0.90422820169E+02 0.  0.
          5    1    4    4  502    0 -0.50795712476E+02 -0.34022949344E+02  0.47771099924E+03  0.48163020492E+03  0.47000000000E+01 0. -1.
         -5    1    3    3    0  503  0.91641584824E+02  0.78815621384E+02  0.12723520146E+03  0.17555901781E+03  0.47000000000E+01 0.  1.
          5    1    3    3  503    0 -0.97475214856E+01  0.60314716367E+02  0.10153111139E+03  0.11858977934E+03  0.47000000000E+01 0. -1.
         -5    1    4    4    0  502 -0.31098350862E+02 -0.10510738841E+03  0.36369910950E+03  0.37988656567E+03  0.47000000000E+01 0.  1.
<mgrwt>
<rscale>  0 0.18500675E+03</rscale>
<asrwt>0</asrwt>
<pdfrwt beam="1">  1        2 0.17121859E+00 0.18504101E+03</pdfrwt>
<pdfrwt beam="2">  1       -2 0.65760890E-02 0.18504101E+03</pdfrwt>
<totfact> 0.28653162E+03</totfact>
</mgrwt>
</event>
<event>
 8    1  0.2964543E-004  0.9540223E+02  0.7546771E-02  0.1291110E+00
         -1   -1    0    0    0  501 -0.00000000000E+00  0.00000000000E+00  0.12595355243E+02  0.12595355243E+02  0.00000000000E+00 0.  1.
          1   -1    0    0  501    0  0.00000000000E+00 -0.00000000000E+00 -0.85309817484E+03  0.85309817484E+03  0.00000000000E+00 0. -1.
         23    2    1    2    0    0  0.21929212450E+02  0.68467341757E+01 -0.24111568994E+03  0.25876147803E+03  0.91065682059E+02 0.  0.
         23    2    1    2    0    0 -0.21929212450E+02 -0.68467341757E+01 -0.59938712966E+03  0.60693205205E+03  0.92594905283E+02 0.  0.
          5    1    4    4  502    0 -0.39150040046E+02  0.29490923690E+02 -0.42824480169E+03  0.43106628306E+03  0.47000000000E+01 0. -1.
         -5    1    4    4    0  502  0.17220827596E+02 -0.36337657866E+02 -0.17114232797E+03  0.17586576899E+03  0.47000000000E+01 0.  1.
          5    1    3    3  503    0  0.26972590653E+02 -0.37570370228E+02 -0.92939547509E+02  0.10391776969E+03  0.47000000000E+01 0. -1.
         -5    1    3    3    0  503 -0.50433782033E+01  0.44417104403E+02 -0.14817614243E+03  0.15484370834E+03  0.47000000000E+01 0.  1.
<mgrwt>
<rscale>  0 0.95029167E+02</rscale>
<asrwt>0</asrwt>
<pdfrwt beam="1">  1        1 0.13124591E+00 0.95402225E+02</pdfrwt>
<pdfrwt beam="2">  1       -1 0.19377464E-02 0.95402225E+02</pdfrwt>
<totfact> 0.13921060E+04</totfact>
</mgrwt>
</event>
<event>
 8    1  0.2964543E-004  0.1046693E+03  0.7546771E-02  0.1271656E+00
          3   -1    0    0  501    0  0.00000000000E+00  0.00000000000E+00  0.22646106345E+03  0.22646106345E+03  0.00000000000E+00 0. -1.
         -3   -1    0    0    0  501 -0.00000000000E+00 -0.00000000000E+00 -0.17301835155E+03  0.17301835155E+03  0.00000000000E+00 0.  1.
         23    2    1    2    0    0 -0.51316432599E+02 -0.33988104052E+01 -0.14342342701E+03  0.17651766683E+03  0.89125075706E+02 0.  0.
         23    2    1    2    0    0  0.51316432599E+02  0.33988104052E+01  0.19686613891E+03  0.22296174817E+03  0.91163240005E+02 0.  0.
          5    1    3    3  502    0  0.14334528104E+02  0.21277059787E+02 -0.14927480626E+02  0.30051816035E+02  0.47000000000E+01 0. -1.
         -5    1    3    3    0  502 -0.65650960703E+02 -0.24675870192E+02 -0.12849594639E+03  0.14646585079E+03  0.47000000000E+01 0.  1.
          5    1    4    4  503    0  0.45225239431E+02 -0.39552715893E+02  0.10063516384E+03  0.11729989692E+03  0.47000000000E+01 0. -1.
         -5    1    4    4    0  503  0.60911931682E+01  0.42951526298E+02  0.96230975076E+02  0.10566185125E+03  0.47000000000E+01 0.  1.
<mgrwt>
<rscale>  0 0.10422390E+03</rscale>
<asrwt>0</asrwt>
<pdfrwt beam="1">  1        3 0.34840164E-01 0.10466931E+03</pdfrwt>
<pdfrwt beam="2">  1       -3 0.26618208E-01 0.10466931E+03</pdfrwt>
<totfact> 0.24446355E+02</totfact>
</mgrwt>
</event>
<event>
 8    1  0.2964543E-004  0.1028407E+03  0.7546771E-02  0.1278690E+00
         -2   -1    0    0    0  501 -0.00000000000E+00  0.00000000000E+00  0.72018824172E+01  0.72018824172E+01  0.00000000000E+00 0.  1.
          2   -1    0    0  501    0  0.00000000000E+00 -0.00000000000E+00 -0.13560086754E+04  0.13560086754E+04  0.00000000000E+00 0. -1.
         23    2    1    2    0    0  0.19986506394E+02 -0.87457173189E+01 -0.69568961052E+03  0.70324977325E+03  0.10050005659E+03 0.  0.
         23    2    1    2    0    0 -0.19986506394E+02  0.87457173189E+01 -0.65311718243E+03  0.65996078454E+03  0.92250935684E+02 0.  0.
          5    1    3    3  502    0 -0.38525944467E+02 -0.14644955942E+02 -0.36379109066E+03  0.36614856381E+03  0.47000000000E+01 0. -1.
         -5    1    4    4    0  503 -0.76175284999E+01 -0.41660434157E+02 -0.28119433024E+03  0.28440457077E+03  0.47000000000E+01 0.  1.
          5    1    4    4  503    0 -0.12368977895E+02  0.50406151476E+02 -0.37192285219E+03  0.37555621377E+03  0.47000000000E+01 0. -1.
         -5    1    3    3    0  502  0.58512450861E+02  0.58992386234E+01 -0.33189851986E+03  0.33710120944E+03  0.47000000000E+01 0.  1.
<mgrwt>
<rscale>  0 0.10076754E+03</rscale>
<asrwt>0</asrwt>
<pdfrwt beam="1">  1        2 0.20861655E+00 0.10284070E+03</pdfrwt>
<pdfrwt beam="2">  1       -2 0.11079828E-02 0.10284070E+03</pdfrwt>
<totfact> 0.28078562E+04</totfact>
</mgrwt>
</event>
<event>
 8    1  0.2964543E-004  0.1174734E+03  0.7546771E-02  0.1251417E+00
          1   -1    0    0  501    0  0.00000000000E+00  0.00000000000E+00  0.48707441584E+03  0.48707441584E+03  0.00000000000E+00 0. -1.
         -1   -1    0    0    0  501 -0.00000000000E+00 -0.00000000000E+00 -0.26585334384E+02  0.26585334384E+02  0.00000000000E+00 0.  1.
         23    2    1    2    0    0 -0.33746955486E+01 -0.60942975586E+02  0.18813424793E+03  0.21705031913E+03  0.89391895302E+02 0.  0.
         23    2    1    2    0    0  0.33746955486E+01  0.60942975586E+02  0.27235483353E+03  0.29660943110E+03  0.10037212973E+03 0.  0.
          5    1    4    4  502    0  0.36249798936E+02  0.31438283921E+02  0.23079402272E+03  0.23577613226E+03  0.47000000000E+01 0. -1.
         -5    1    4    4    0  502 -0.32875103387E+02  0.29504691665E+02  0.41560810809E+02  0.60833298843E+02  0.47000000000E+01 0.  1.
          5    1    3    3  503    0 -0.45145728168E+01  0.20583157826E+02  0.71332139994E+02  0.74527927315E+02  0.47000000000E+01 0. -1.
         -5    1    3    3    0  503  0.11398772681E+01 -0.81526133412E+02  0.11680210793E+03  0.14252239181E+03  0.47000000000E+01 0.  1.
<mgrwt>
<rscale>  0 0.11509426E+03</rscale>
<asrwt>0</asrwt>
<pdfrwt beam="1">  1        1 0.74934519E-01 0.11747340E+03</pdfrwt>
<pdfrwt beam="2">  1       -1 0.40900518E-02 0.11747340E+03</pdfrwt>
<totfact> 0.10467951E+04</totfact>
</mgrwt>
</event>
<event>
 8    1  0.2964543E-004  0.1090001E+03  0.7546771E-02  0.1266754E+00
         -2   -1    0    0    0  501 -0.00000000000E+00  0.00000000000E+00  0.20059634970E+02  0.20059634970E+02  0.00000000000E+00 0.  1.
          2   -1    0    0  501    0  0.00000000000E+00 -0.00000000000E+00 -0.55061621217E+03  0.55061621217E+03  0.00000000000E+00 0. -1.
         23    2    1    2    0    0 -0.17652399244E+01  0.42560143499E+02 -0.30417125761E+03  0.32311172141E+03  0.10033219159E+03 0.  0.
         23    2    1    2    0    0  0.17652399244E+01 -0.42560143499E+02 -0.22638531959E+03  0.24756412573E+03  0.90681869943E+02 0.  0.
          5    1    3    3  502    0  0.18355929049E+02 -0.28912323032E+02 -0.92843585271E+02  0.99070095793E+02  0.47000000000E+01 0. -1.
         -5    1    4    4    0  503 -0.21207747571E+02 -0.60683802390E+02 -0.11026348790E+03  0.12772008140E+03  0.47000000000E+01 0.  1.
          5    1    4    4  503    0  0.22972987495E+02  0.18123658891E+02 -0.11612183169E+03  0.11984404433E+03  0.47000000000E+01 0. -1.
         -5    1    3    3    0  502 -0.20121168974E+02  0.71472466531E+02 -0.21132767234E+03  0.22404162562E+03  0.47000000000E+01 0.  1.
<mgrwt>
<rscale>  0 0.10672704E+03</rscale>
<asrwt>0</asrwt>
<pdfrwt beam="1">  1        2 0.84710175E-01 0.10900014E+03</pdfrwt>
<pdfrwt beam="2">  1       -2 0.30860981E-02 0.10900014E+03</pdfrwt>
<totfact> 0.20891702E+04</totfact>
</mgrwt>
</event>
<event>
 8    1  0.2964543E-004  0.1079632E+03  0.7546771E-02  0.1264862E+00
          3   -1    0    0  501    0  0.00000000000E+00  0.00000000000E+00  0.13855141122E+02  0.13855141122E+02  0.00000000000E+00 0. -1.
         -3   -1    0    0    0  501 -0.00000000000E+00 -0.00000000000E+00 -0.92439195702E+03  0.92439195702E+03  0.00000000000E+00 0.  1.
         23    2    1    2    0    0 -0.56065111298E+02 -0.10687089439E+02 -0.60421549789E+03  0.61378531976E+03  0.91643550125E+02 0.  0.
         23    2    1    2    0    0  0.56065111298E+02  0.10687089439E+02 -0.30632131801E+03  0.32446177838E+03  0.90472013229E+02 0.  0.
          5    1    4    4  502    0  0.29142261713E+02 -0.33593229573E+02 -0.74662535489E+02  0.87030803148E+02  0.47000000000E+01 0. -1.
         -5    1    4    4    0  502  0.26922849585E+02  0.44280319012E+02 -0.23165878252E+03  0.23743097523E+03  0.47000000000E+01 0.  1.
          5    1    3    3  503    0 -0.21164103197E+02 -0.48607341832E+02 -0.37782905657E+03  0.38155927316E+03  0.47000000000E+01 0. -1.
         -5    1    3    3    0  503 -0.34901008101E+02  0.37920252393E+02 -0.22638644131E+03  0.23222604660E+03  0.47000000000E+01 0.  1.
<mgrwt>
<rscale>  0 0.10771417E+03</rscale>
<asrwt>0</asrwt>
<pdfrwt beam="1">  1        3 0.21315596E-02 0.10796319E+03</pdfrwt>
<pdfrwt beam="2">  1       -3 0.14221419E+00 0.10796319E+03</pdfrwt>
<totfact> 0.75623618E+02</totfact>
</mgrwt>
</event>
<event>
 8    1  0.2964543E-004  0.1020130E+03  0.7546771E-02  0.1277943E+00
         -1   -1    0    0    0  501 -0.00000000000E+00  0.00000000000E+00  0.12107882916E+03  0.12107882916E+03  0.00000000000E+00 0.  1.
          1   -1    0    0  501    0  0.00000000000E+00 -0.00000000000E+00 -0.11584673024E+03  0.11584673024E+03  0.00000000000E+00 0. -1.
         23    2    1    2    0    0  0.36790816739E+02  0.70818608720E+00 -0.60396637785E+02  0.11855132127E+03  0.95145132278E+02 0.  0.
         23    2    1    2    0    0 -0.36790816739E+02 -0.70818608720E+00  0.65628736698E+02  0.11837423812E+03  0.91385247424E+02 0.  0.
          5    1    3    3  502    0  0.42649217625E+02 -0.35116600329E+02 -0.60342316005E+02  0.81947644771E+02  0.47000000000E+01 0. -1.
         -5    1    3    3    0  502 -0.58584008858E+01  0.35824786416E+02 -0.54321779999E-01  0.36603676503E+02  0.47000000000E+01 0.  1.
          5    1    4    4  503    0  0.24971040874E+02  0.13821152977E+02  0.40946213770E+02  0.50132420389E+02  0.47000000000E+01 0. -1.
         -5    1    4    4    0  503 -0.61761857614E+02 -0.14529339064E+02  0.24682522928E+02  0.68241817734E+02  0.47000000000E+01 0.  1.
<mgrwt>
<rscale>  0 0.10112722E+03</rscale>
<asrwt>0</asrwt>
<pdfrwt beam="1">  1        1 0.17822574E-01 0.10201305E+03</pdfrwt>
<pdfrwt beam="2">  1       -1 0.18627512E-01 0.10201305E+03</pdfrwt>
<totfact> 0.62528810E+03</totfact>
</mgrwt>
</event>
<event>
 8    1  0.2964543E-004  0.1039497E+03  0.7546771E-02  0.1274279E+00
          1   -1    0    0  501    0  0.00000000000E+00  0.00000000000E+00  0.18748574614E+03  0.18748574614E+03  0.00000000000E+00 0. -1.
         -1   -1    0    0    0  501 -0.00000000000E+00 -0.00000000000E+00 -0.71534465967E+02  0.71534465967E+02  0.00000000000E+00 0.  1.
         23    2    1    2    0    0  0.42210772670E+02 -0.16500914589E+02 -0.44190364069E+01  0.99977627951E+02  0.89005441947E+02 0.  0.
         23    2    1    2    0    0 -0.42210772670E+02  0.16500914589E+02  0.12037031658E+03  0.15904258416E+03  0.93549457240E+02 0.  0.
          5    1    3    3  502    0  0.49942193139E+02  0.15957628292E+02  0.22106863734E+02  0.57093537116E+02  0.47000000000E+01 0. -1.
         -5    1    4    4    0  503 -0.36417072322E+02 -0.31877786566E+02  0.87424521163E+02  0.10003765958E+03  0.47000000000E+01 0.  1.
          5    1    4    4  503    0 -0.57937003483E+01  0.48378701155E+02  0.32945795421E+02  0.59004924583E+02  0.47000000000E+01 0. -1.
         -5    1    3    3    0  502 -0.77314204691E+01 -0.32458542881E+02 -0.26525900141E+02  0.42884090835E+02  0.47000000000E+01 0.  1.
<mgrwt>
<rscale>  0 0.10291693E+03</rscale>
<asrwt>0</asrwt>
<pdfrwt beam="1">  1        1 0.28843961E-01 0.10394965E+03</pdfrwt>
<pdfrwt beam="2">  1       -1 0.11005303E-01 0.10394965E+03</pdfrwt>
<totfact> 0.77550668E+03</totfact>
</mgrwt>
</event>
<event>
 8    1  0.2964543E-004  0.9723255E+02  0.7546771E-02  0.1286283E+00
         -1   -1    0    0    0  501 -0.00000000000E+00  0.00000000000E+00  0.78023071425E+03  0.78023071425E+03  0.00000000000E+00 0.  1.
          1   -1    0    0  501    0  0.00000000000E+00 -0.00000000000E+00 -0.16542153430E+02  0.16542153430E+02  0.00000000000E+00 0. -1.
         23    2    1    2    0    0 -0.18104378960E+02  0.27285490201E+02  0.17534304558E+03  0.20044693771E+03  0.91441372966E+02 0.  0.
         23    2    1    2    0    0  0.18104378960E+02 -0.27285490201E+02  0.58834551524E+03  0.59632592997E+03  0.91552733118E+02 0.  0.
          5    1    3    3  502    0  0.25244265890E+02  0.16395758789E+02  0.15065171487E+02  0.33987398526E+02  0.47000000000E+01 0. -1.
         -5    1    4    4    0  503 -0.30492066148E+02 -0.35954231366E+02  0.26535022342E+03  0.26954647822E+03  0.47000000000E+01 0.  1.
          5    1    4    4  503    0  0.48596445107E+02  0.86687411657E+01  0.32299529181E+03  0.32677945175E+03  0.47000000000E+01 0. -1.
         -5    1    3    3    0  502 -0.43348644850E+02  0.10889731412E+02  0.16027787410E+03  0.16645953918E+03  0.47000000000E+01 0.  1.
<mgrwt>
<rscale>  0 0.97206331E+02</rscale>
<asrwt>0</asrwt>
<pdfrwt beam="1">  1        1 0.25449473E-02 0.97232553E+02</pdfrwt>
<pdfrwt beam="2">  1       -1 0.12003547E+00 0.97232553E+02</pdfrwt>
<totfact> 0.26849700E+03</totfact>
</mgrwt>
</event>
<event>
 8    1  0.2964543E-004  0.9515608E+02  0.7546771E-02  0.1292768E+00
         -1   -1    0    0    0  501 -0.00000000000E+00  0.00000000000E+00  0.54142206455E+02  0.54142206455E+02  0.00000000000E+00 0.  1.
          1   -1    0    0  501    0  0.00000000000E+00 -0.00000000000E+00 -0.18900152048E+03  0.18900152048E+03  0.00000000000E+00 0. -1.
         23    2    1    2    0    0 -0.68242389287E+00  0.27542024714E+02 -0.21964633917E+02  0.97658201281E+02  0.91080460619E+02 0.  0.
         23    2    1    2    0    0  0.68242389287E+00 -0.27542024714E+02 -0.11289468011E+03  0.14548552566E+03  0.87531711684E+02 0.  0.
          5    1    3    3  502    0  0.13481084033E+02 -0.28420848554E+02  0.74975019804E+01  0.32677007133E+02  0.47000000000E+01 0. -1.
         -5    1    4    4    0  503 -0.37355558553E+02  0.91061272260E+01 -0.47900533692E+02  0.61602844381E+02  0.47000000000E+01 0.  1.
          5    1    4    4  503    0  0.38037982446E+02 -0.36648151940E+02 -0.64994146420E+02  0.83882681276E+02  0.47000000000E+01 0. -1.
         -5    1    3    3    0  502 -0.14163507926E+02  0.55962873268E+02 -0.29462135897E+02  0.64981194147E+02  0.47000000000E+01 0.  1.
<mgrwt>
<rscale>  0 0.94296757E+02</rscale>
<asrwt>0</asrwt>
<pdfrwt beam="1">  1        1 0.29077157E-01 0.95156078E+02</pdfrwt>
<pdfrwt beam="2">  1       -1 0.83295703E-02 0.95156078E+02</pdfrwt>
<totfact> 0.11605584E+04</totfact>
</mgrwt>
</event>
<event>
 8    1  0.2964543E-004  0.1192873E+03  0.7546771E-02  0.1244340E+00
          1   -1    0    0  501    0  0.00000000000E+00  0.00000000000E+00  0.12429391133E+04  0.12429391133E+04  0.00000000000E+00 0. -1.
         -1   -1    0    0    0  501 -0.00000000000E+00 -0.00000000000E+00 -0.11632618547E+02  0.11632618547E+02  0.00000000000E+00 0.  1.
         23    2    1    2    0    0 -0.60184658417E+02 -0.47114774998E+02  0.69804104014E+03  0.70816012023E+03  0.91583115410E+02 0.  0.
         23    2    1    2    0    0  0.60184658417E+02  0.47114774998E+02  0.53326545463E+03  0.54641161163E+03  0.91387138578E+02 0.  0.
          5    1    3    3  502    0 -0.41127541999E+00 -0.57150516836E+02  0.38806817874E+03  0.39228223522E+03  0.47000000000E+01 0. -1.
         -5    1    4    4    0  503  0.11601582620E+02  0.54115960442E+02  0.40844399792E+03  0.41220349747E+03  0.47000000000E+01 0.  1.
          5    1    4    4  503    0  0.48583075797E+02 -0.70011854440E+01  0.12482145671E+03  0.13420811416E+03  0.47000000000E+01 0. -1.
         -5    1    3    3    0  502 -0.59773382997E+02  0.10035741838E+02  0.30997286141E+03  0.31587788501E+03  0.47000000000E+01 0.  1.
<mgrwt>
<rscale>  0 0.11924969E+03</rscale>
<asrwt>0</asrwt>
<pdfrwt beam="1">  1        1 0.19122130E+00 0.11928731E+03</pdfrwt>
<pdfrwt beam="2">  1       -1 0.17896346E-02 0.11928731E+03</pdfrwt>
<totfact> 0.83240440E+03</totfact>
</mgrwt>
</event>
<event>
 8    1  0.2964543E-004  0.1135218E+03  0.7546771E-02  0.1254192E+00
         -2   -1    0    0    0  501 -0.00000000000E+00  0.00000000000E+00  0.81080205906E+03  0.81080205906E+03  0.00000000000E+00 0.  1.
          2   -1    0    0  501    0  0.00000000000E+00 -0.00000000000E+00 -0.16471885297E+02  0.16471885297E+02  0.00000000000E+00 0. -1.
         23    2    1    2    0    0  0.45721827246E+02 -0.49441397218E+02  0.31950193114E+03  0.33906388930E+03  0.91366841801E+02 0.  0.
         23    2    1    2    0    0 -0.45721827246E+02  0.49441397218E+02  0.47482824262E+03  0.48821005506E+03  0.91390703135E+02 0.  0.
          5    1    3    3  502    0 -0.90937295190E+01 -0.55542538822E+02  0.13233053799E+03  0.14387887552E+03  0.47000000000E+01 0. -1.
         -5    1    4    4    0  503 -0.31400534573E+02 -0.14944680236E+02  0.28585859870E+03  0.28800445394E+03  0.47000000000E+01 0. -1.
          5    1    4    4  503    0 -0.14321292673E+02  0.64386077453E+02  0.18896964393E+03  0.20020560112E+03  0.47000000000E+01 0.  1.
         -5    1    3    3    0  502  0.54815556765E+02  0.61011416047E+01  0.18717139315E+03  0.19518501379E+03  0.47000000000E+01 0.  1.
<mgrwt>
<rscale>  0 0.11351699E+03</rscale>
<asrwt>0</asrwt>
<pdfrwt beam="1">  1        2 0.25341368E-02 0.11352179E+03</pdfrwt>
<pdfrwt beam="2">  1       -2 0.12473875E+00 0.11352179E+03</pdfrwt>
<totfact> 0.18867345E+03</totfact>
</mgrwt>
</event>
<event>
 8    1  0.2964543E-004  0.1063665E+03  0.7546771E-02  0.1268820E+00
         -1   -1    0    0    0  501 -0.00000000000E+00  0.00000000000E+00  0.32822624621E+03  0.32822624621E+03  0.00000000000E+00 0.  1.
          1   -1    0    0  501    0  0.00000000000E+00 -0.00000000000E+00 -0.70741698036E+02  0.70741698036E+02  0.00000000000E+00 0. -1.
         23    2    1    2    0    0 -0.41605025485E+02  0.23029468769E+02  0.27414663734E+03  0.29405816820E+03  0.95144589656E+02 0.  0.
         23    2    1    2    0    0  0.41605025485E+02 -0.23029468769E+02 -0.16662089172E+02  0.10490977605E+03  0.92016853439E+02 0.  0.
          5    1    3    3  502    0  0.27895233563E+01 -0.32956523418E+02  0.11029795712E+03  0.11524601173E+03  0.47000000000E+01 0. -1.
         -5    1    4    4    0  503  0.32521251688E+02  0.29115081421E+02  0.10632669514E+02  0.45171489222E+02  0.47000000000E+01 0.  1.
          5    1    4    4  503    0  0.90837737971E+01 -0.52144550190E+02 -0.27294758685E+02  0.59738286823E+02  0.47000000000E+01 0. -1.
         -5    1    3    3    0  502 -0.44394548842E+02  0.55985992187E+02  0.16384868023E+03  0.17881215647E+03  0.47000000000E+01 0.  1.
<mgrwt>
<rscale>  0 0.10566244E+03</rscale>
<asrwt>0</asrwt>
<pdfrwt beam="1">  1        1 0.10883338E-01 0.10636648E+03</pdfrwt>
<pdfrwt beam="2">  1       -1 0.50496345E-01 0.10636648E+03</pdfrwt>
<totfact> 0.22135474E+03</totfact>
</mgrwt>
</event>
<event>
 8    1  0.2964543E-004  0.2505192E+03  0.7546771E-02  0.1114480E+00
          1   -1    0    0  501    0  0.00000000000E+00  0.00000000000E+00  0.63917882351E+03  0.63917882351E+03  0.00000000000E+00 0. -1.
         -1   -1    0    0    0  501 -0.00000000000E+00 -0.00000000000E+00 -0.10671376339E+03  0.10671376339E+03  0.00000000000E+00 0.  1.
         23    2    1    2    0    0  0.13800538849E+03 -0.17540182065E+03  0.38759319451E+03  0.45650062115E+03  0.91395003927E+02 0.  0.
         23    2    1    2    0    0 -0.13800538849E+03  0.17540182065E+03  0.14487186561E+03  0.28939196574E+03  0.11379176795E+03 0.  0.
          5    1    3    3  502    0  0.10281240997E+03 -0.16402854576E+03  0.36421985746E+03  0.41249721216E+03  0.47000000000E+01 0. -1.
         -5    1    4    4    0  503 -0.10024020677E+03  0.17789212602E+03  0.91523013787E+02  0.22381300142E+03  0.47000000000E+01 0.  1.
          5    1    4    4  503    0 -0.37765181716E+02 -0.24903053672E+01  0.53348851820E+02  0.65578964321E+02  0.47000000000E+01 0. -1.
         -5    1    3    3    0  502  0.35192978512E+02 -0.11373274893E+02  0.23373337048E+02  0.44003408994E+02  0.47000000000E+01 0.  1.
<mgrwt>
<rscale>  0 0.24814916E+03</rscale>
<asrwt>0</asrwt>
<pdfrwt beam="1">  1        1 0.98335201E-01 0.25051917E+03</pdfrwt>
<pdfrwt beam="2">  1       -1 0.16417502E-01 0.25051917E+03</pdfrwt>
<totfact> 0.89635545E+02</totfact>
</mgrwt>
</event>
<event>
 8    1  0.2964543E-004  0.9622163E+02  0.7546771E-02  0.1288863E+00
          3   -1    0    0  501    0  0.00000000000E+00  0.00000000000E+00  0.23093594829E+03  0.23093594829E+03  0.00000000000E+00 0. -1.
         -3   -1    0    0    0  501 -0.00000000000E+00 -0.00000000000E+00 -0.51768720612E+02  0.51768720612E+02  0.00000000000E+00 0.  1.
         23    2    1    2    0    0 -0.25551335441E+02 -0.14211664114E+02  0.21295371729E+02  0.97820581437E+02  0.90887464239E+02 0.  0.
         23    2    1    2    0    0  0.25551335441E+02  0.14211664114E+02  0.15787185595E+03  0.18488408746E+03  0.91672028216E+02 0.  0.
          5    1    4    4  502    0  0.27651507948E+02 -0.25306751593E+02  0.13216954752E+03  0.13746241981E+03  0.47000000000E+01 0. -1.
         -5    1    4    4    0  502 -0.21001725076E+01  0.39518415707E+02  0.25702308424E+02  0.47421667652E+02  0.47000000000E+01 0.  1.
          5    1    3    3  503    0  0.24987477861E+02 -0.28208118529E+02  0.24297732533E+02  0.45083719978E+02  0.47000000000E+01 0. -1.
         -5    1    3    3    0  503 -0.50538813302E+02  0.13996454414E+02 -0.30023608042E+01  0.52736861459E+02  0.47000000000E+01 0.  1.
<mgrwt>
<rscale>  0 0.96034295E+02</rscale>
<asrwt>0</asrwt>
<pdfrwt beam="1">  1        3 0.35528607E-01 0.96221634E+02</pdfrwt>
<pdfrwt beam="2">  1       -3 0.79644187E-02 0.96221634E+02</pdfrwt>
<totfact> 0.18057150E+03</totfact>
</mgrwt>
</event>
<event>
 8    1  0.2964543E-004  0.9285642E+02  0.7546771E-02  0.1296249E+00
          2   -1    0    0  501    0  0.00000000000E+00  0.00000000000E+00  0.10102341376E+04  0.10102341376E+04  0.00000000000E+00 0. -1.
         -2   -1    0    0    0  501 -0.00000000000E+00 -0.00000000000E+00 -0.10609987481E+02  0.10609987481E+02  0.00000000000E+00 0.  1.
         23    2    1    2    0    0  0.10338222575E+01  0.22103277218E+02  0.27325757475E+03  0.28860356387E+03  0.90181435287E+02 0.  0.
         23    2    1    2    0    0 -0.10338222575E+01 -0.22103277218E+02  0.72636657533E+03  0.73224056117E+03  0.89878885234E+02 0.  0.
          5    1    3    3  502    0  0.37798749518E+02  0.35952497261E+02  0.13531420724E+03  0.14509773329E+03  0.47000000000E+01 0. -1.
         -5    1    3    3    0  502 -0.36764927260E+02 -0.13849220044E+02  0.13794336750E+03  0.14350583058E+03  0.47000000000E+01 0.  1.
          5    1    4    4  503    0 -0.30826390118E+02  0.21735031380E+02  0.24315381471E+03  0.24610677667E+03  0.47000000000E+01 0. -1.
         -5    1    4    4    0  503  0.29792567861E+02 -0.43838308598E+02  0.48321276063E+03  0.48613378450E+03  0.47000000000E+01 0.  1.
<mgrwt>
<rscale>  0 0.92782882E+02</rscale>
<asrwt>0</asrwt>
<pdfrwt beam="1">  1        2 0.15542056E+00 0.92856421E+02</pdfrwt>
<pdfrwt beam="2">  1       -2 0.16323066E-02 0.92856421E+02</pdfrwt>
<totfact> 0.24821360E+04</totfact>
</mgrwt>
</event>
<event>
 8    1  0.2964543E-004  0.1186392E+03  0.7546771E-02  0.1248019E+00
          3   -1    0    0  501    0  0.00000000000E+00  0.00000000000E+00  0.14082720990E+03  0.14082720990E+03  0.00000000000E+00 0. -1.
         -3   -1    0    0    0  501 -0.00000000000E+00 -0.00000000000E+00 -0.10149837091E+03  0.10149837091E+03  0.00000000000E+00 0.  1.
         23    2    1    2    0    0 -0.66614382514E+02  0.61068021910E+00  0.51237315908E+02  0.12923048070E+03  0.98170289352E+02 0.  0.
         23    2    1    2    0    0  0.66614382514E+02 -0.61068021910E+00 -0.11908476913E+02  0.11309510011E+03  0.90613690792E+02 0.  0.
          5    1    3    3  502    0  0.11179880508E+02 -0.28599060746E+02  0.30328334466E+02  0.43414212825E+02  0.47000000000E+01 0. -1.
         -5    1    3    3    0  502 -0.77794263022E+02  0.29209740965E+02  0.20908981442E+02  0.85816267871E+02  0.47000000000E+01 0.  1.
          5    1    4    4  503    0  0.34202568436E+02  0.34386413745E+02  0.22917737498E+02  0.53847505326E+02  0.47000000000E+01 0. -1.
         -5    1    4    4    0  503  0.32411814078E+02 -0.34997093964E+02 -0.34826214411E+02  0.59247594786E+02  0.47000000000E+01 0.  1.
<mgrwt>
<rscale>  0 0.11706492E+03</rscale>
<asrwt>0</asrwt>
<pdfrwt beam="1">  1        3 0.21665725E-01 0.11863918E+03</pdfrwt>
<pdfrwt beam="2">  1       -3 0.15615134E-01 0.11863918E+03</pdfrwt>
<totfact> 0.15124978E+03</totfact>
</mgrwt>
</event>
<event>
 8    1  0.2964543E-004  0.1022083E+03  0.7546771E-02  0.1278183E+00
         -1   -1    0    0    0  501 -0.00000000000E+00  0.00000000000E+00  0.11159343675E+02  0.11159343675E+02  0.00000000000E+00 0.  1.
          1   -1    0    0  501    0  0.00000000000E+00 -0.00000000000E+00 -0.93091575261E+03  0.93091575261E+03  0.00000000000E+00 0. -1.
         23    2    1    2    0    0  0.74981987727E+01  0.47236924217E+02 -0.35513284777E+03  0.36827522233E+03  0.84969110997E+02 0.  0.
         23    2    1    2    0    0 -0.74981987727E+01 -0.47236924217E+02 -0.56462356117E+03  0.57379987395E+03  0.90327069764E+02 0.  0.
          5    1    3    3  502    0 -0.46357211968E+01 -0.19536081188E+02 -0.32072079914E+02  0.38129472711E+02  0.47000000000E+01 0. -1.
         -5    1    3    3    0  502  0.12133919970E+02  0.66773005405E+02 -0.32306076785E+03  0.33014574962E+03  0.47000000000E+01 0.  1.
          5    1    4    4  503    0 -0.30377906628E+02 -0.53932557028E+02 -0.51301688680E+03  0.51675908706E+03  0.47000000000E+01 0. -1.
         -5    1    4    4    0  503  0.22879707855E+02  0.66956328117E+01 -0.51606674370E+02  0.57040786897E+02  0.47000000000E+01 0.  1.
<mgrwt>
<rscale>  0 0.10101170E+03</rscale>
<asrwt>0</asrwt>
<pdfrwt beam="1">  1        1 0.14321781E+00 0.10220827E+03</pdfrwt>
<pdfrwt beam="2">  1       -1 0.17168220E-02 0.10220827E+03</pdfrwt>
<totfact> 0.14512765E+04</totfact>
</mgrwt>
</event>
<event>
 8    1  0.2964543E-004  0.8856123E+02  0.7546771E-02  0.1319989E+00
         -1   -1    0    0    0  501 -0.00000000000E+00  0.00000000000E+00  0.71767105978E+03  0.71767105978E+03  0.00000000000E+00 0.  1.
          1   -1    0    0  501    0  0.00000000000E+00 -0.00000000000E+00 -0.87267050033E+01  0.87267050033E+01  0.00000000000E+00 0. -1.
         23    2    1    2    0    0  0.45189514211E+01  0.20862599988E+02  0.33881187018E+03  0.34581774895E+03  0.65884467958E+02 0.  0.
         23    2    1    2    0    0 -0.45189514211E+01 -0.20862599988E+02  0.37013248460E+03  0.38058001583E+03  0.85950120960E+02 0.  0.
          5    1    3    3  502    0 -0.23973302352E+02  0.18378661824E+02  0.84509867952E+02  0.89869361950E+02  0.47000000000E+01 0. -1.
         -5    1    3    3    0  502  0.28492253773E+02  0.24839381640E+01  0.25430200222E+03  0.25594838700E+03  0.47000000000E+01 0.  1.
          5    1    4    4  503    0 -0.25907675611E+02  0.91301822425E+01  0.42327528705E+02  0.50678176463E+02  0.47000000000E+01 0. -1.
         -5    1    4    4    0  503  0.21388724190E+02 -0.29992782230E+02  0.32780495590E+03  0.32990183937E+03  0.47000000000E+01 0.  1.
<mgrwt>
<rscale>  0 0.83281308E+02</rscale>
<asrwt>0</asrwt>
<pdfrwt beam="1">  1        1 0.13425706E-02 0.88561235E+02</pdfrwt>
<pdfrwt beam="2">  1       -1 0.11041089E+00 0.88561235E+02</pdfrwt>
<totfact> 0.77969010E+03</totfact>
</mgrwt>
</event>
<event>
 8    1  0.2964543E-004  0.9276968E+02  0.7546771E-02  0.1296346E+00
          2   -1    0    0  501    0  0.00000000000E+00  0.00000000000E+00  0.69261518098E+03  0.69261518098E+03  0.00000000000E+00 0. -1.
         -2   -1    0    0    0  501 -0.00000000000E+00 -0.00000000000E+00 -0.13247157612E+02  0.13247157612E+02  0.00000000000E+00 0.  1.
         23    2    1    2    0    0 -0.15940240518E+02 -0.31795232524E+01  0.42858154764E+03  0.43850696322E+03  0.91334622024E+02 0.  0.
         23    2    1    2    0    0  0.15940240518E+02  0.31795232524E+01  0.25078647572E+03  0.26735537537E+03  0.91218636778E+02 0.  0.
          5    1    4    4  502    0  0.48461966538E+02 -0.18130810589E+02  0.16641733554E+03  0.17433906063E+03  0.47000000000E+01 0. -1.
         -5    1    4    4    0  502 -0.32521726020E+02  0.21310333841E+02  0.84369140183E+02  0.93016314735E+02  0.47000000000E+01 0.  1.
          5    1    3    3  503    0  0.26095361600E+02 -0.30835994432E+02  0.15201009484E+03  0.15735623719E+03  0.47000000000E+01 0. -1.
         -5    1    3    3    0  503 -0.42035602118E+02  0.27656471179E+02  0.27657145280E+03  0.28115072603E+03  0.47000000000E+01 0.  1.
<mgrwt>
<rscale>  0 0.92741121E+02</rscale>
<asrwt>0</asrwt>
<pdfrwt beam="1">  1        2 0.10655615E+00 0.92769682E+02</pdfrwt>
<pdfrwt beam="2">  1       -2 0.20380248E-02 0.92769682E+02</pdfrwt>
<totfact> 0.28938114E+04</totfact>
</mgrwt>
</event>
<event>
 8    1  0.2964543E-004  0.9449126E+02  0.7546771E-02  0.1292483E+00
         -2   -1    0    0    0  501 -0.00000000000E+00  0.00000000000E+00  0.20665098780E+03  0.20665098780E+03  0.00000000000E+00 0.  1.
          2   -1    0    0  501    0  0.00000000000E+00 -0.00000000000E+00 -0.74774819779E+02  0.74774819779E+02  0.00000000000E+00 0. -1.
         23    2    1    2    0    0 -0.10597322944E+02  0.22335960623E+02 -0.25617745026E+02  0.97902336081E+02  0.91199781576E+02 0.  0.
         23    2    1    2    0    0  0.10597322944E+02 -0.22335960623E+02  0.15749391304E+03  0.18352347150E+03  0.90913879871E+02 0.  0.
          5    1    4    4  502    0  0.21438983372E+02  0.10671592578E+02  0.24071940267E+01  0.24523406763E+02  0.47000000000E+01 0. -1.
         -5    1    3    3    0  503  0.21010998899E+02  0.45916997135E+02 -0.13305768980E+00  0.50714301779E+02  0.47000000000E+01 0.  1.
          5    1    3    3  503    0 -0.31608321843E+02 -0.23581036512E+02 -0.25484687336E+02  0.47188034302E+02  0.47000000000E+01 0. -1.
         -5    1    4    4    0  502 -0.10841660429E+02 -0.33007553202E+02  0.15508671902E+03  0.15900006473E+03  0.47000000000E+01 0.  1.
<mgrwt>
<rscale>  0 0.94422208E+02</rscale>
<asrwt>0</asrwt>
<pdfrwt beam="1">  1        2 0.11503818E-01 0.94491262E+02</pdfrwt>
<pdfrwt beam="2">  1       -2 0.31792459E-01 0.94491262E+02</pdfrwt>
<totfact> 0.45904126E+03</totfact>
</mgrwt>
</event>
<event>
 8    1  0.2964543E-004  0.9667440E+02  0.7546771E-02  0.1289590E+00
         -1   -1    0    0    0  501 -0.00000000000E+00  0.00000000000E+00  0.21105962466E+02  0.21105962466E+02  0.00000000000E+00 0.  1.
          1   -1    0    0  501    0  0.00000000000E+00 -0.00000000000E+00 -0.45456509777E+03  0.45456509777E+03  0.00000000000E+00 0. -1.
         23    2    1    2    0    0  0.12661851567E+02 -0.24822791299E+02 -0.15255660047E+03  0.17859838462E+03  0.88585400550E+02 0.  0.
         23    2    1    2    0    0 -0.12661851567E+02  0.24822791299E+02 -0.28090253484E+03  0.29707267562E+03  0.92571308007E+02 0.  0.
          5    1    4    4  502    0  0.53100386088E+01  0.49910511671E+02 -0.24199532912E+03  0.24719038210E+03  0.47000000000E+01 0. -1.
         -5    1    3    3    0  503  0.26767643333E+02 -0.41411857110E+02 -0.39462353170E+02  0.63331003124E+02  0.47000000000E+01 0.  1.
          5    1    3    3  503    0 -0.14105791766E+02  0.16589065811E+02 -0.11309424730E+03  0.11526738150E+03  0.47000000000E+01 0. -1.
         -5    1    4    4    0  502 -0.17971890176E+02 -0.25087720372E+02 -0.38907205719E+02  0.49882293520E+02  0.47000000000E+01 0.  1.
<mgrwt>
<rscale>  0 0.95707591E+02</rscale>
<asrwt>0</asrwt>
<pdfrwt beam="1">  1        1 0.69933098E-01 0.96674405E+02</pdfrwt>
<pdfrwt beam="2">  1       -1 0.32470709E-02 0.96674405E+02</pdfrwt>
<totfact> 0.15735691E+04</totfact>
</mgrwt>
</event>
<event>
 8    1  0.2964543E-004  0.1284712E+03  0.7546771E-02  0.1232745E+00
         -2   -1    0    0    0  501 -0.00000000000E+00  0.00000000000E+00  0.34935515013E+03  0.34935515013E+03  0.00000000000E+00 0.  1.
          2   -1    0    0  501    0  0.00000000000E+00 -0.00000000000E+00 -0.52751896639E+02  0.52751896639E+02  0.00000000000E+00 0. -1.
         23    2    1    2    0    0  0.69525312053E+02 -0.56508988977E+02  0.23188565802E+03  0.26509586632E+03  0.92075105730E+02 0.  0.
         23    2    1    2    0    0 -0.69525312053E+02  0.56508988977E+02  0.64717595472E+02  0.13701118045E+03  0.80973215029E+02 0.  0.
          5    1    3    3  502    0  0.12414188657E+02  0.19322653668E+02  0.13813251391E+02  0.27209794906E+02  0.47000000000E+01 0. -1.
         -5    1    3    3    0  502  0.57111123396E+02 -0.75831642645E+02  0.21807240663E+03  0.23788607142E+03  0.47000000000E+01 0.  1.
          5    1    4    4  503    0 -0.63446744884E+02  0.24782159732E+02  0.43900827654E+01  0.68417890234E+02  0.47000000000E+01 0. -1.
         -5    1    4    4    0  503 -0.60785671695E+01  0.31726829245E+02  0.60327512707E+02  0.68593290212E+02  0.47000000000E+01 0.  1.
<mgrwt>
<rscale>  0 0.12649923E+03</rscale>
<asrwt>0</asrwt>
<pdfrwt beam="1">  1        2 0.81156766E-02 0.12847124E+03</pdfrwt>
<pdfrwt beam="2">  1       -2 0.53746945E-01 0.12847124E+03</pdfrwt>
<totfact> 0.26516794E+03</totfact>
</mgrwt>
</event>
<event>
 8    1  0.2964543E-004  0.1336742E+03  0.7546771E-02  0.1224104E+00
         -1   -1    0    0    0  501 -0.00000000000E+00  0.00000000000E+00  0.55428384674E+02  0.55428384674E+02  0.00000000000E+00 0.  1.
          1   -1    0    0  501    0  0.00000000000E+00 -0.00000000000E+00 -0.53502777215E+03  0.53502777215E+03  0.00000000000E+00 0. -1.
         23    2    1    2    0    0 -0.11990814860E+02 -0.86087578710E+02 -0.45175291033E+02  0.13593104684E+03  0.94242197163E+02 0.  0.
         23    2    1    2    0    0  0.11990814860E+02  0.86087578710E+02 -0.43442409644E+03  0.45452510998E+03  0.10155751664E+03 0.  0.
          5    1    4    4  502    0 -0.12314365105E+02  0.52851717559E+02 -0.38994733071E+03  0.39373335947E+03  0.47000000000E+01 0. -1.
         -5    1    4    4    0  502  0.24305179965E+02  0.33235861150E+02 -0.44476765732E+02  0.60791750505E+02  0.47000000000E+01 0.  1.
          5    1    3    3  503    0  0.35954960639E+02 -0.19903837325E+02  0.20678318590E+01  0.41416033893E+02  0.47000000000E+01 0. -1.
         -5    1    3    3    0  503 -0.47945775499E+02 -0.66183741384E+02 -0.47243122892E+02  0.94515012948E+02  0.47000000000E+01 0.  1.
<mgrwt>
<rscale>  0 0.13228529E+03</rscale>
<asrwt>0</asrwt>
<pdfrwt beam="1">  1        1 0.82311968E-01 0.13367416E+03</pdfrwt>
<pdfrwt beam="2">  1       -1 0.85274435E-02 0.13367416E+03</pdfrwt>
<totfact> 0.31299909E+03</totfact>
</mgrwt>
</event>
<event>
 8    1  0.2964543E-004  0.9380075E+02  0.7546771E-02  0.1296249E+00
         -4   -1    0    0    0  501 -0.00000000000E+00  0.00000000000E+00  0.10829370558E+03  0.10829370558E+03  0.00000000000E+00 0.  1.
          4   -1    0    0  501    0  0.00000000000E+00 -0.00000000000E+00 -0.80185180264E+02  0.80185180264E+02  0.00000000000E+00 0. -1.
         23    2    1    2    0    0  0.12134172271E+02  0.31703349980E+01  0.29955348132E+02  0.94659958840E+02  0.88915104258E+02 0.  0.
         23    2    1    2    0    0 -0.12134172271E+02 -0.31703349980E+01 -0.18468228174E+01  0.93818927002E+02  0.92958545323E+02 0.  0.
          5    1    4    4  502    0 -0.15173980125E+02  0.22631571952E+02 -0.39265143269E+02  0.48023735775E+02  0.47000000000E+01 0. -1.
         -5    1    4    4    0  502  0.30398078542E+01 -0.25801906950E+02  0.37418320452E+02  0.45795191227E+02  0.47000000000E+01 0.  1.
          5    1    3    3  503    0 -0.29896297724E+02 -0.17898076373E+02 -0.54993941993E+01  0.35587400749E+02  0.47000000000E+01 0. -1.
         -5    1    3    3    0  503  0.42030469995E+02  0.21068411371E+02  0.35454742331E+02  0.59072558092E+02  0.47000000000E+01 0.  1.
<mgrwt>
<rscale>  0 0.92782924E+02</rscale>
<asrwt>0</asrwt>
<pdfrwt beam="1">  1        4 0.12336182E-01 0.93800748E+02</pdfrwt>
<pdfrwt beam="2">  1       -4 0.16660570E-01 0.93800748E+02</pdfrwt>
<totfact> 0.24826761E+03</totfact>
</mgrwt>
</event>
<event>
 7    1  0.2964543E-004  0.1944068E+03  0.7546771E-02  0.1169009E+00
         -1   -1    0    0    0  501 -0.00000000000E+00  0.00000000000E+00  0.11036092224E+03  0.11036092224E+03  0.00000000000E+00 0.  1.
          1   -1    0    0  501    0  0.00000000000E+00 -0.00000000000E+00 -0.27372394889E+03  0.27372394889E+03  0.00000000000E+00 0. -1.
         23    2    1    2    0    0  0.21776751319E+02 -0.11872755183E+03 -0.15503970522E+02  0.13983848122E+03  0.68876478328E+02 0.  0.
          5    1    3    3  502    0  0.42729766150E+02 -0.94093513880E+02 -0.23739721639E+02  0.10613711252E+03  0.47000000000E+01 0. -1.
         -5    1    1    2    0  503 -0.66456531144E+02  0.43508786604E+02 -0.90290574267E+01  0.80081826412E+02  0.47000000000E+01 0.  1.
          5    1    1    2  503    0  0.44679779825E+02  0.75218765223E+02 -0.13882999870E+03  0.16416456349E+03  0.47000000000E+01 0. -1.
         -5    1    3    3    0  502 -0.20953014831E+02 -0.24634037946E+02  0.82357511175E+01  0.33701368704E+02  0.47000000000E+01 0.  1.
<mgrwt>
<rscale>  0 0.17875936E+03</rscale>
<asrwt>0</asrwt>
<pdfrwt beam="1">  1        1 0.42111376E-01 0.19440679E+03</pdfrwt>
<pdfrwt beam="2">  1       -1 0.16978604E-01 0.19440679E+03</pdfrwt>
<totfact> 0.25548734E+03</totfact>
</mgrwt>
</event>
<event>
 8    1  0.2964543E-004  0.1126619E+03  0.7546771E-02  0.1266951E+00
          1   -1    0    0  501    0  0.00000000000E+00  0.00000000000E+00  0.33226894172E+03  0.33226894172E+03  0.00000000000E+00 0. -1.
         -1   -1    0    0    0  501 -0.00000000000E+00 -0.00000000000E+00 -0.36749843618E+02  0.36749843618E+02  0.00000000000E+00 0.  1.
         23    2    1    2    0    0 -0.10178945704E+02 -0.46576312974E+01  0.61594937498E+02  0.10937821841E+03  0.89690322060E+02 0.  0.
         23    2    1    2    0    0  0.10178945704E+02  0.46576312974E+01  0.23392416061E+03  0.25964056694E+03  0.11210444513E+03 0.  0.
          5    1    4    4  502    0  0.53209640100E+02 -0.13607948399E+02  0.17934455092E+03  0.18762462526E+03  0.47000000000E+01 0. -1.
         -5    1    3    3    0  503 -0.43419708205E+02 -0.11879058887E+02  0.83552201385E+01  0.46024806401E+02  0.47000000000E+01 0.  1.
          5    1    3    3  503    0  0.33240762501E+02  0.72214275894E+01  0.53239717360E+02  0.63353412005E+02  0.47000000000E+01 0. -1.
         -5    1    4    4    0  502 -0.43030694396E+02  0.18265579696E+02  0.54579609687E+02  0.72015941676E+02  0.47000000000E+01 0.  1.
<mgrwt>
<rscale>  0 0.10662484E+03</rscale>
<asrwt>0</asrwt>
<pdfrwt beam="1">  1        1 0.51118297E-01 0.11266193E+03</pdfrwt>
<pdfrwt beam="2">  1       -1 0.56538223E-02 0.11266193E+03</pdfrwt>
<totfact> 0.10482867E+04</totfact>
</mgrwt>
</event>
<event>
 8    1  0.2964543E-004  0.9721158E+02  0.7546771E-02  0.1287611E+00
          2   -1    0    0  501    0  0.00000000000E+00  0.00000000000E+00  0.31069490750E+02  0.31069490750E+02  0.00000000000E+00 0. -1.
         -2   -1    0    0    0  501 -0.00000000000E+00 -0.00000000000E+00 -0.44132876768E+03  0.44132876768E+03  0.00000000000E+00 0.  1.
         23    2    1    2    0    0  0.25921676475E+02  0.91716269136E+01 -0.33863081563E+03  0.35164757452E+03  0.90714581633E+02 0.  0.
         23    2    1    2    0    0 -0.25921676475E+02 -0.91716269136E+01 -0.71628461297E+02  0.12075068391E+03  0.93241831516E+02 0.  0.
          5    1    4    4  502    0 -0.59831134015E+02 -0.10467490202E+02 -0.57241015688E+02  0.83593999938E+02  0.47000000000E+01 0. -1.
         -5    1    3    3    0  503  0.32615075084E+02 -0.35764014719E+02 -0.19234433174E+03  0.19839667292E+03  0.47000000000E+01 0.  1.
          5    1    3    3  503    0 -0.66933986089E+01  0.44935641633E+02 -0.14628648389E+03  0.15325090160E+03  0.47000000000E+01 0. -1.
         -5    1    4    4    0  502  0.33909457540E+02  0.12958632884E+01 -0.14387445609E+02  0.37156683968E+02  0.47000000000E+01 0.  1.
<mgrwt>
<rscale>  0 0.96600504E+02</rscale>
<asrwt>0</asrwt>
<pdfrwt beam="1">  1        2 0.47799220E-02 0.97211580E+02</pdfrwt>
<pdfrwt beam="2">  1       -2 0.67896728E-01 0.97211580E+02</pdfrwt>
<totfact> 0.31634119E+03</totfact>
</mgrwt>
</event>
<event>
 8    1  0.2964543E-004  0.1459167E+03  0.7546771E-02  0.1206078E+00
         -3   -1    0    0    0  501 -0.00000000000E+00  0.00000000000E+00  0.32369227688E+03  0.32369227688E+03  0.00000000000E+00 0.  1.
          3   -1    0    0  501    0  0.00000000000E+00 -0.00000000000E+00 -0.50729776241E+03  0.50729776241E+03  0.00000000000E+00 0. -1.
         23    2    1    2    0    0  0.86420598344E+02 -0.70642550830E+02  0.29618740012E+03  0.32949936090E+03  0.91563983275E+02 0.  0.
         23    2    1    2    0    0 -0.86420598344E+02  0.70642550830E+02 -0.47979288565E+03  0.50149067839E+03  0.93982964347E+02 0.  0.
          5    1    4    4  502    0 -0.77354847477E+02  0.12808316782E+02 -0.35476175955E+03  0.36335357635E+03  0.47000000000E+01 0. -1.
         -5    1    3    3    0  503  0.78044080470E+01 -0.64011144776E+02  0.14929445857E+03  0.16269376386E+03  0.47000000000E+01 0.  1.
          5    1    3    3  503    0  0.78616190297E+02 -0.66314060532E+01  0.14689294155E+03  0.16680559703E+03  0.47000000000E+01 0. -1.
         -5    1    4    4    0  502 -0.90657508668E+01  0.57834234048E+02 -0.12503112610E+03  0.13813710204E+03  0.47000000000E+01 0.  1.
<mgrwt>
<rscale>  0 0.14552862E+03</rscale>
<asrwt>0</asrwt>
<pdfrwt beam="1">  1        3 0.78045809E-01 0.14591671E+03</pdfrwt>
<pdfrwt beam="2">  1       -3 0.49798812E-01 0.14591671E+03</pdfrwt>
<totfact> 0.15228460E+01</totfact>
</mgrwt>
</event>
<event>
 8    1  0.2964543E-004  0.9879594E+02  0.7546771E-02  0.1294052E+00
         -1   -1    0    0    0  501 -0.00000000000E+00  0.00000000000E+00  0.62792106943E+02  0.62792106943E+02  0.00000000000E+00 0.  1.
          1   -1    0    0  501    0  0.00000000000E+00 -0.00000000000E+00 -0.16506802327E+03  0.16506802327E+03  0.00000000000E+00 0. -1.
         23    2    1    2    0    0 -0.14067081049E+02 -0.34089635630E+02 -0.10122991641E+03  0.12905865162E+03  0.71053877821E+02 0.  0.
         23    2    1    2    0    0  0.14067081049E+02  0.34089635630E+02 -0.10459999147E+01  0.98801478597E+02  0.91655070948E+02 0.  0.
          5    1    3    3  502    0 -0.31527375225E+02  0.83306302178E+01 -0.32392524186E+02  0.46203251093E+02  0.47000000000E+01 0. -1.
         -5    1    4    4    0  503  0.52934517177E+02  0.16548539335E+02  0.27909865707E+01  0.55729676735E+02  0.47000000000E+01 0.  1.
          5    1    4    4  503    0 -0.38867436128E+02  0.17541096295E+02 -0.38369864855E+01  0.43071801862E+02  0.47000000000E+01 0. -1.
         -5    1    3    3    0  502  0.17460294176E+02 -0.42420265848E+02 -0.68837392225E+02  0.82855400522E+02  0.47000000000E+01 0.  1.
<mgrwt>
<rscale>  0 0.93734628E+02</rscale>
<asrwt>0</asrwt>
<pdfrwt beam="1">  1        1 0.25395081E-01 0.98795942E+02</pdfrwt>
<pdfrwt beam="2">  1       -1 0.96603240E-02 0.98795942E+02</pdfrwt>
<totfact> 0.11017317E+04</totfact>
</mgrwt>
</event>
<event>
 8    1  0.2964543E-004  0.9823760E+02  0.7546771E-02  0.1285123E+00
          2   -1    0    0  501    0  0.00000000000E+00  0.00000000000E+00  0.24236390702E+02  0.24236390702E+02  0.00000000000E+00 0. -1.
         -2   -1    0    0    0  501 -0.00000000000E+00 -0.00000000000E+00 -0.40935325611E+03  0.40935325611E+03  0.00000000000E+00 0.  1.
         23    2    1    2    0    0  0.15731653488E+02  0.24391690426E+02 -0.24130442387E+03  0.26053493289E+03  0.93851940808E+02 0.  0.
         23    2    1    2    0    0 -0.15731653488E+02 -0.24391690426E+02 -0.14381244154E+03  0.17305471392E+03  0.91779497637E+02 0.  0.
          5    1    3    3  502    0 -0.15288847424E+02  0.41286193971E+02 -0.53809864529E+02  0.69684217645E+02  0.47000000000E+01 0. -1.
         -5    1    3    3    0  502  0.31020500912E+02 -0.16894503546E+02 -0.18749455934E+03  0.19085071524E+03  0.47000000000E+01 0.  1.
          5    1    4    4  503    0 -0.29368853903E+02  0.14647896827E+02 -0.12713310983E+02  0.35507868666E+02  0.47000000000E+01 0. -1.
         -5    1    4    4    0  503  0.13637200415E+02 -0.39039587253E+02 -0.13109913055E+03  0.13754684526E+03  0.47000000000E+01 0.  1.
<mgrwt>
<rscale>  0 0.97739329E+02</rscale>
<asrwt>0</asrwt>
<pdfrwt beam="1">  1        2 0.37286752E-02 0.98237601E+02</pdfrwt>
<pdfrwt beam="2">  1       -2 0.62977428E-01 0.98237601E+02</pdfrwt>
<totfact> 0.51219378E+03</totfact>
</mgrwt>
</event>
<event>
 8    1  0.2964543E-004  0.9384609E+02  0.7546771E-02  0.1294059E+00
          3   -1    0    0  501    0  0.00000000000E+00  0.00000000000E+00  0.22431548450E+03  0.22431548450E+03  0.00000000000E+00 0. -1.
         -3   -1    0    0    0  501 -0.00000000000E+00 -0.00000000000E+00 -0.40399591277E+02  0.40399591277E+02  0.00000000000E+00 0.  1.
         23    2    1    2    0    0 -0.10918016382E+02 -0.16207647932E+02  0.11617650033E+03  0.14934546230E+03  0.91788871584E+02 0.  0.
         23    2    1    2    0    0  0.10918016382E+02  0.16207647932E+02  0.67739392891E+02  0.11536961348E+03  0.91321582508E+02 0.  0.
          5    1    4    4  502    0  0.22358512783E+02  0.46007757051E+02  0.65200670299E+02  0.83005025211E+02  0.47000000000E+01 0. -1.
         -5    1    3    3    0  503 -0.33000343432E+02 -0.37442868783E+02  0.31576554953E+02  0.59246602536E+02  0.47000000000E+01 0.  1.
          5    1    3    3  503    0  0.22082327051E+02  0.21235220851E+02  0.84599945378E+02  0.90098859762E+02  0.47000000000E+01 0. -1.
         -5    1    4    4    0  502 -0.11440496401E+02 -0.29800109119E+02  0.25387225918E+01  0.32364588268E+02  0.47000000000E+01 0.  1.
<mgrwt>
<rscale>  0 0.93731628E+02</rscale>
<asrwt>0</asrwt>
<pdfrwt beam="1">  1        3 0.34510074E-01 0.93846086E+02</pdfrwt>
<pdfrwt beam="2">  1       -3 0.62153218E-02 0.93846086E+02</pdfrwt>
<totfact> 0.28212381E+03</totfact>
</mgrwt>
</event>
<event>
 8    1  0.2964543E-004  0.1037531E+03  0.7546771E-02  0.1273733E+00
         -1   -1    0    0    0  501 -0.00000000000E+00  0.00000000000E+00  0.30829842202E+02  0.30829842202E+02  0.00000000000E+00 0.  1.
          1   -1    0    0  501    0  0.00000000000E+00 -0.00000000000E+00 -0.55483857665E+03  0.55483857665E+03  0.00000000000E+00 0. -1.
         23    2    1    2    0    0 -0.20911107069E+02  0.41158843517E+02 -0.82257922809E+02  0.13240494442E+03  0.92915976253E+02 0.  0.
         23    2    1    2    0    0  0.20911107069E+02 -0.41158843517E+02 -0.44175081164E+03  0.45326347443E+03  0.90402836645E+02 0.  0.
          5    1    4    4  502    0  0.46556683319E+02 -0.11432498517E+02 -0.12343075785E+03  0.13249705192E+03  0.47000000000E+01 0. -1.
         -5    1    4    4    0  502 -0.25645576249E+02 -0.29726345000E+02 -0.31832005379E+03  0.32076642252E+03  0.47000000000E+01 0.  1.
          5    1    3    3  503    0  0.81321094660E+01  0.65129462973E+02 -0.52138430489E+02  0.83955250493E+02  0.47000000000E+01 0. -1.
         -5    1    3    3    0  503 -0.29043216535E+02 -0.23970619456E+02 -0.30119492320E+02  0.48449693925E+02  0.47000000000E+01 0.  1.
<mgrwt>
<rscale>  0 0.10318736E+03</rscale>
<asrwt>0</asrwt>
<pdfrwt beam="1">  1        1 0.85359778E-01 0.10375309E+03</pdfrwt>
<pdfrwt beam="2">  1       -1 0.47430528E-02 0.10375309E+03</pdfrwt>
<totfact> 0.70468015E+03</totfact>
</mgrwt>
</event>
<event>
 8    1  0.2964543E-004  0.1384258E+03  0.7546771E-02  0.1219042E+00
          2   -1    0    0  501    0  0.00000000000E+00  0.00000000000E+00  0.49369439925E+03  0.49369439925E+03  0.00000000000E+00 0. -1.
         -2   -1    0    0    0  501 -0.00000000000E+00 -0.00000000000E+00 -0.36041614206E+02  0.36041614206E+02  0.00000000000E+00 0.  1.
         23    2    1    2    0    0 -0.87561312977E+02  0.16964155074E+02  0.23743193546E+03  0.27483746012E+03  0.10586283306E+03 0.  0.
         23    2    1    2    0    0  0.87561312977E+02 -0.16964155074E+02  0.22022084958E+03  0.25489855333E+03  0.92310800085E+02 0.  0.
          5    1    3    3  502    0  0.12770493851E+02  0.33204984162E+02  0.49627333969E+02  0.61242295542E+02  0.47000000000E+01 0. -1.
         -5    1    3    3    0  502 -0.10033180683E+03 -0.16240829088E+02  0.18780460149E+03  0.21359516458E+03  0.47000000000E+01 0.  1.
          5    1    4    4  503    0  0.59384615041E+02 -0.13593182492E+02  0.21759926298E+03  0.22601512419E+03  0.47000000000E+01 0. -1.
         -5    1    4    4    0  503  0.28176697936E+02 -0.33709725822E+01  0.26215866041E+01  0.28883429142E+02  0.47000000000E+01 0.  1.
<mgrwt>
<rscale>  0 0.13583743E+03</rscale>
<asrwt>0</asrwt>
<pdfrwt beam="1">  1        2 0.75952979E-01 0.13842581E+03</pdfrwt>
<pdfrwt beam="2">  1       -2 0.55448641E-02 0.13842581E+03</pdfrwt>
<totfact> 0.10060076E+04</totfact>
</mgrwt>
</event>
<event>
 8    1  0.2964543E-004  0.1037472E+03  0.7546771E-02  0.1272706E+00
         -2   -1    0    0    0  501 -0.00000000000E+00  0.00000000000E+00  0.30280978450E+02  0.30280978450E+02  0.00000000000E+00 0.  1.
          2   -1    0    0  501    0  0.00000000000E+00 -0.00000000000E+00 -0.50220252539E+03  0.50220252539E+03  0.00000000000E+00 0. -1.
         23    2    1    2    0    0 -0.45629209442E+02 -0.91601223962E+01 -0.38036994668E+03  0.39426485579E+03  0.92722961437E+02 0.  0.
         23    2    1    2    0    0  0.45629209442E+02  0.91601223962E+01 -0.91551600264E+02  0.13821864805E+03  0.92502792185E+02 0.  0.
          5    1    3    3  502    0 -0.62354604825E+02  0.23461351764E+02 -0.24495994422E+03  0.25390154793E+03  0.47000000000E+01 0. -1.
         -5    1    3    3    0  502  0.16725395382E+02 -0.32621474161E+02 -0.13541000246E+03  0.14036330786E+03  0.47000000000E+01 0.  1.
          5    1    4    4  503    0 -0.20049410454E+02 -0.19227775833E+02 -0.43763325318E+02  0.52048101463E+02  0.47000000000E+01 0. -1.
         -5    1    4    4    0  503  0.65678619896E+02  0.28387898229E+02 -0.47788274946E+02  0.86170546590E+02  0.47000000000E+01 0.  1.
<mgrwt>
<rscale>  0 0.10369798E+03</rscale>
<asrwt>0</asrwt>
<pdfrwt beam="1">  1        2 0.77261921E-01 0.10374719E+03</pdfrwt>
<pdfrwt beam="2">  1       -2 0.46586124E-02 0.10374719E+03</pdfrwt>
<totfact> 0.12541908E+04</totfact>
</mgrwt>
</event>
<event>
 8    1  0.2964543E-004  0.1036543E+03  0.7546771E-02  0.1273014E+00
         -1   -1    0    0    0  501 -0.00000000000E+00  0.00000000000E+00  0.24011940876E+02  0.24011940876E+02  0.00000000000E+00 0.  1.
          1   -1    0    0  501    0  0.00000000000E+00 -0.00000000000E+00 -0.56686162808E+03  0.56686162808E+03  0.00000000000E+00 0. -1.
         23    2    1    2    0    0  0.18077160137E+02  0.43759258630E+02 -0.13521321977E+03  0.17037260854E+03  0.92209297279E+02 0.  0.
         23    2    1    2    0    0 -0.18077160137E+02 -0.43759258630E+02 -0.40763646743E+03  0.42050096042E+03  0.91716474515E+02 0.  0.
          5    1    3    3  502    0 -0.29477679114E+00  0.70333058849E+02 -0.10008047503E+03  0.12241330623E+03  0.47000000000E+01 0. -1.
         -5    1    4    4    0  503  0.28322838233E+02  0.11129050623E+02 -0.13962191374E+03  0.14297694824E+03  0.47000000000E+01 0.  1.
          5    1    4    4  503    0 -0.46399998369E+02 -0.54888309253E+02 -0.26801455369E+03  0.27752401217E+03  0.47000000000E+01 0. -1.
         -5    1    3    3    0  502  0.18371936928E+02 -0.26573800219E+02 -0.35132744739E+02  0.47959302304E+02  0.47000000000E+01 0.  1.
<mgrwt>
<rscale>  0 0.10354457E+03</rscale>
<asrwt>0</asrwt>
<pdfrwt beam="1">  1        1 0.87209473E-01 0.10365429E+03</pdfrwt>
<pdfrwt beam="2">  1       -1 0.36941451E-02 0.10365429E+03</pdfrwt>
<totfact> 0.98650505E+03</totfact>
</mgrwt>
</event>
<event>
 8    1  0.2964543E-004  0.1082929E+03  0.7546771E-02  0.1265133E+00
         -1   -1    0    0    0  501 -0.00000000000E+00  0.00000000000E+00  0.13484337709E+03  0.13484337709E+03  0.00000000000E+00 0.  1.
          1   -1    0    0  501    0  0.00000000000E+00 -0.00000000000E+00 -0.85249779611E+02  0.85249779611E+02  0.00000000000E+00 0. -1.
         23    2    1    2    0    0  0.18303458408E+01  0.53919754301E+02  0.15570066837E+02  0.10658128023E+03  0.90589470935E+02 0.  0.
         23    2    1    2    0    0 -0.18303458408E+01 -0.53919754301E+02  0.34023530640E+02  0.11351187647E+03  0.93897046773E+02 0.  0.
          5    1    4    4  502    0 -0.18081098092E+02  0.12853831460E+02 -0.16535583438E+02  0.28065327560E+02  0.47000000000E+01 0. -1.
         -5    1    3    3    0  503 -0.20948189088E+02  0.88350797922E+01 -0.30311240716E+02  0.38180447545E+02  0.47000000000E+01 0.  1.
          5    1    3    3  503    0  0.22778534929E+02  0.45084674509E+02  0.45881307553E+02  0.68400832684E+02  0.47000000000E+01 0. -1.
         -5    1    4    4    0  502  0.16250752251E+02 -0.66773585761E+02  0.50559114079E+02  0.85446548910E+02  0.47000000000E+01 0.  1.
<mgrwt>
<rscale>  0 0.10757195E+03</rscale>
<asrwt>0</asrwt>
<pdfrwt beam="1">  1        1 0.13115351E-01 0.10829287E+03</pdfrwt>
<pdfrwt beam="2">  1       -1 0.20745135E-01 0.10829287E+03</pdfrwt>
<totfact> 0.78449048E+03</totfact>
</mgrwt>
</event>
<event>
 8    1  0.2964543E-004  0.9282715E+02  0.7546771E-02  0.1296403E+00
          1   -1    0    0  501    0  0.00000000000E+00  0.00000000000E+00  0.30823961428E+03  0.30823961428E+03  0.00000000000E+00 0. -1.
         -1   -1    0    0    0  501 -0.00000000000E+00 -0.00000000000E+00 -0.42418050904E+02  0.42418050904E+02  0.00000000000E+00 0.  1.
         23    2    1    2    0    0 -0.23657523397E+02 -0.43868875893E+01  0.23596485839E+03  0.25356714014E+03  0.89654653920E+02 0.  0.
         23    2    1    2    0    0  0.23657523397E+02  0.43868875893E+01  0.29856704988E+02  0.97090525043E+02  0.89197668268E+02 0.  0.
          5    1    3    3  502    0 -0.39902651783E+02  0.10831079107E+02  0.45152671230E+02  0.61403482093E+02  0.47000000000E+01 0. -1.
         -5    1    3    3    0  502  0.16245128386E+02 -0.15217966696E+02  0.19081218716E+03  0.19216365805E+03  0.47000000000E+01 0.  1.
          5    1    4    4  503    0  0.24796886400E+02  0.26328702478E+02  0.53322557914E+02  0.64602409644E+02  0.47000000000E+01 0. -1.
         -5    1    4    4    0  503 -0.11393630026E+01 -0.21941814889E+02 -0.23465852926E+02  0.32488115400E+02  0.47000000000E+01 0.  1.
<mgrwt>
<rscale>  0 0.92716632E+02</rscale>
<asrwt>0</asrwt>
<pdfrwt beam="1">  1        1 0.47421478E-01 0.92827152E+02</pdfrwt>
<pdfrwt beam="2">  1       -1 0.65258542E-02 0.92827152E+02</pdfrwt>
<totfact> 0.91516315E+03</totfact>
</mgrwt>
</event>
<event>
 8    1  0.2964543E-004  0.1599204E+03  0.7546771E-02  0.1188928E+00
         -2   -1    0    0    0  501 -0.00000000000E+00  0.00000000000E+00  0.34949485830E+02  0.34949485830E+02  0.00000000000E+00 0.  1.
          2   -1    0    0  501    0  0.00000000000E+00 -0.00000000000E+00 -0.11010548255E+04  0.11010548255E+04  0.00000000000E+00 0. -1.
         23    2    1    2    0    0 -0.64748701645E+02 -0.11420480949E+03 -0.20363727443E+03  0.25892601512E+03  0.91320364064E+02 0.  0.
         23    2    1    2    0    0  0.64748701645E+02  0.11420480949E+03 -0.86246806526E+03  0.87707829623E+03  0.90443580467E+02 0.  0.
          5    1    4    4  502    0  0.43481863705E+02  0.12248570343E+03 -0.79798461928E+03  0.80851404602E+03  0.47000000000E+01 0. -1.
         -5    1    4    4    0  502  0.21266837940E+02 -0.82808939366E+01 -0.64483445981E+02  0.68564250203E+02  0.47000000000E+01 0.  1.
          5    1    3    3  503    0  0.18061689846E+02 -0.25927134664E+02 -0.78567656916E+02  0.84813959141E+02  0.47000000000E+01 0. -1.
         -5    1    3    3    0  503 -0.82810391491E+02 -0.88277674827E+02 -0.12506961751E+03  0.17411205597E+03  0.47000000000E+01 0.  1.
<mgrwt>
<rscale>  0 0.15979551E+03</rscale>
<asrwt>0</asrwt>
<pdfrwt beam="1">  1        2 0.16939307E+00 0.15992042E+03</pdfrwt>
<pdfrwt beam="2">  1       -2 0.53768434E-02 0.15992042E+03</pdfrwt>
<totfact> 0.39446303E+03</totfact>
</mgrwt>
</event>
<event>
 8    1  0.2964543E-004  0.9206131E+02  0.7546771E-02  0.1298605E+00
          1   -1    0    0  501    0  0.00000000000E+00  0.00000000000E+00  0.39237036060E+02  0.39237036060E+02  0.00000000000E+00 0. -1.
         -1   -1    0    0    0  501 -0.00000000000E+00 -0.00000000000E+00 -0.22552304049E+03  0.22552304049E+03  0.00000000000E+00 0.  1.
         23    2    1    2    0    0 -0.35531169742E+01  0.99459958801E+01 -0.12334816560E+03  0.15324121683E+03  0.90313637420E+02 0.  0.
         23    2    1    2    0    0  0.35531169742E+01 -0.99459958801E+01 -0.62937838820E+02  0.11151885971E+03  0.91453469273E+02 0.  0.
          5    1    4    4  502    0  0.15971958082E+02  0.27566621309E+02  0.51909473549E+01  0.32619901744E+02  0.47000000000E+01 0. -1.
         -5    1    4    4    0  502 -0.12418841108E+02 -0.37512617189E+02 -0.68128786175E+02  0.78898957969E+02  0.47000000000E+01 0.  1.
          5    1    3    3  503    0  0.41804912041E+01  0.34984292821E+02 -0.12145598858E+03  0.12655048168E+03  0.47000000000E+01 0. -1.
         -5    1    3    3    0  503 -0.77336081783E+01 -0.25038296941E+02 -0.18921770226E+01  0.26690735153E+02  0.47000000000E+01 0.  1.
<mgrwt>
<rscale>  0 0.91776941E+02</rscale>
<asrwt>0</asrwt>
<pdfrwt beam="1">  1        1 0.60364671E-02 0.92061308E+02</pdfrwt>
<pdfrwt beam="2">  1       -1 0.34695853E-01 0.92061308E+02</pdfrwt>
<totfact> 0.92469608E+03</totfact>
</mgrwt>
</event>
<event>
 8    1  0.2964543E-004  0.1215783E+03  0.7546771E-02  0.1240626E+00
         -1   -1    0    0    0  501 -0.00000000000E+00  0.00000000000E+00  0.47880417186E+02  0.47880417186E+02  0.00000000000E+00 0.  1.
          1   -1    0    0  501    0  0.00000000000E+00 -0.00000000000E+00 -0.32327173811E+03  0.32327173811E+03  0.00000000000E+00 0. -1.
         23    2    1    2    0    0  0.71955967944E+02  0.35721801211E+02 -0.97540984335E+02  0.15587019720E+03  0.91255500356E+02 0.  0.
         23    2    1    2    0    0 -0.71955967944E+02 -0.35721801211E+02 -0.17785033659E+03  0.21528195810E+03  0.90894834025E+02 0.  0.
          5    1    4    4  502    0 -0.81771411436E+02  0.31424204625E+00 -0.10390558121E+03  0.13230692455E+03  0.47000000000E+01 0. -1.
         -5    1    3    3    0  503  0.31554566289E+02  0.45630147730E+01  0.12435962569E+02  0.34543522150E+02  0.47000000000E+01 0.  1.
          5    1    3    3  503    0  0.40401401656E+02  0.31158786438E+02 -0.10997694690E+03  0.12132667505E+03  0.47000000000E+01 0. -1.
         -5    1    4    4    0  502  0.98154434920E+01 -0.36036043257E+02 -0.73944755377E+02  0.82975033548E+02  0.47000000000E+01 0.  1.
<mgrwt>
<rscale>  0 0.12151059E+03</rscale>
<asrwt>0</asrwt>
<pdfrwt beam="1">  1        1 0.49734112E-01 0.12157827E+03</pdfrwt>
<pdfrwt beam="2">  1       -1 0.73662182E-02 0.12157827E+03</pdfrwt>
<totfact> 0.73565138E+03</totfact>
</mgrwt>
</event>
<event>
 8    1  0.2964543E-004  0.2267328E+03  0.7546771E-02  0.1129094E+00
         -2   -1    0    0    0  501 -0.00000000000E+00  0.00000000000E+00  0.25852685125E+03  0.25852685125E+03  0.00000000000E+00 0.  1.
          2   -1    0    0  501    0  0.00000000000E+00 -0.00000000000E+00 -0.21913935513E+03  0.21913935513E+03  0.00000000000E+00 0. -1.
         23    2    1    2    0    0 -0.81378432232E+02 -0.19036321367E+03 -0.54108558365E+02  0.23309977593E+03  0.92450890200E+02 0.  0.
         23    2    1    2    0    0  0.81378432232E+02  0.19036321367E+03  0.93496054486E+02  0.24456643044E+03  0.90612495529E+02 0.  0.
          5    1    3    3  502    0 -0.37126893188E+02 -0.16935384711E+03 -0.23191343381E+02  0.17498302814E+03  0.47000000000E+01 0. -1.
         -5    1    4    4    0  503  0.28176243551E+02  0.15180081212E+03  0.89609973147E+02  0.17857610296E+03  0.47000000000E+01 0.  1.
          5    1    4    4  503    0  0.53202188681E+02  0.38562401551E+02  0.38860813387E+01  0.65990327488E+02  0.47000000000E+01 0. -1.
         -5    1    3    3    0  502 -0.44251539044E+02 -0.21009366553E+02 -0.30917214983E+02  0.58116747784E+02  0.47000000000E+01 0.  1.
<mgrwt>
<rscale>  0 0.22654674E+03</rscale>
<asrwt>0</asrwt>
<pdfrwt beam="1">  1        2 0.33713747E-01 0.22673282E+03</pdfrwt>
<pdfrwt beam="2">  1       -2 0.39773362E-01 0.22673282E+03</pdfrwt>
<totfact> 0.92712305E+02</totfact>
</mgrwt>
</event>
<event>
 8    1  0.2964543E-004  0.1015362E+03  0.7546771E-02  0.1278267E+00
          2   -1    0    0  501    0  0.00000000000E+00  0.00000000000E+00  0.17762911735E+03  0.17762911735E+03  0.00000000000E+00 0. -1.
         -2   -1    0    0    0  501 -0.00000000000E+00 -0.00000000000E+00 -0.59386188701E+02  0.59386188701E+02  0.00000000000E+00 0.  1.
         23    2    1    2    0    0  0.35597970386E+02 -0.19296736341E+02  0.34858985228E+02  0.10735339111E+03  0.93112954004E+02 0.  0.
         23    2    1    2    0    0 -0.35597970386E+02  0.19296736341E+02  0.83383943418E+02  0.12966191493E+03  0.90662840434E+02 0.  0.
          5    1    3    3  502    0 -0.30914705073E+02 -0.69342666459E+01  0.22574732922E+01  0.32109020996E+02  0.47000000000E+01 0. -1.
         -5    1    4    4    0  503 -0.36828586704E+02 -0.30375076900E+02  0.51795925221E+02  0.70596727720E+02  0.47000000000E+01 0.  1.
          5    1    4    4  503    0  0.12306163173E+01  0.49671813241E+02  0.31588018197E+02  0.59065187215E+02  0.47000000000E+01 0. -1.
         -5    1    3    3    0  502  0.66512675460E+02 -0.12362469695E+02  0.32601511936E+02  0.75244370117E+02  0.47000000000E+01 0.  1.
<mgrwt>
<rscale>  0 0.10097099E+03</rscale>
<asrwt>0</asrwt>
<pdfrwt beam="1">  1        2 0.27327556E-01 0.10153621E+03</pdfrwt>
<pdfrwt beam="2">  1       -2 0.91363368E-02 0.10153621E+03</pdfrwt>
<totfact> 0.13600892E+04</totfact>
</mgrwt>
</event>
<event>
 8    1  0.2964543E-004  0.1514910E+03  0.7546771E-02  0.1198784E+00
         -1   -1    0    0    0  501 -0.00000000000E+00  0.00000000000E+00  0.64205907146E+03  0.64205907146E+03  0.00000000000E+00 0.  1.
          1   -1    0    0  501    0  0.00000000000E+00 -0.00000000000E+00 -0.47062335517E+02  0.47062335517E+02  0.00000000000E+00 0. -1.
         23    2    1    2    0    0 -0.11702616662E+03 -0.29516194555E+02  0.12808543561E+03  0.19838198431E+03  0.91559835456E+02 0.  0.
         23    2    1    2    0    0  0.11702616662E+03  0.29516194555E+02  0.46691130033E+03  0.49073942267E+03  0.90844312802E+02 0.  0.
          5    1    3    3  502    0 -0.21023786351E+02  0.54474374507E+01 -0.11748105029E+02  0.25135276786E+02  0.47000000000E+01 0. -1.
         -5    1    3    3    0  502 -0.96002380268E+02 -0.34963632006E+02  0.13983354064E+03  0.17324670753E+03  0.47000000000E+01 0.  1.
          5    1    4    4  503    0  0.27485426787E+01  0.35950172498E+02  0.10354551115E+03  0.10974393956E+03  0.47000000000E+01 0. -1.
         -5    1    4    4    0  503  0.11427762394E+03 -0.64339779430E+01  0.36336578918E+03  0.38099548311E+03  0.47000000000E+01 0.  1.
<mgrwt>
<rscale>  0 0.15138307E+03</rscale>
<asrwt>0</asrwt>
<pdfrwt beam="1">  1        1 0.72403598E-02 0.15149103E+03</pdfrwt>
<pdfrwt beam="2">  1       -1 0.98778312E-01 0.15149103E+03</pdfrwt>
<totfact> 0.10193054E+03</totfact>
</mgrwt>
</event>
<event>
 8    1  0.2964543E-004  0.9120790E+02  0.7546771E-02  0.1303235E+00
         -1   -1    0    0    0  501 -0.00000000000E+00  0.00000000000E+00  0.95725489369E+02  0.95725489369E+02  0.00000000000E+00 0.  1.
          1   -1    0    0  501    0  0.00000000000E+00 -0.00000000000E+00 -0.15849240092E+03  0.15849240092E+03  0.00000000000E+00 0. -1.
         23    2    1    2    0    0  0.65537873924E+01  0.12167924893E+01 -0.12022109551E+03  0.15090391736E+03  0.90963991534E+02 0.  0.
         23    2    1    2    0    0 -0.65537873924E+01 -0.12167924893E+01  0.57454183959E+02  0.10331397293E+03  0.85605846966E+02 0.  0.
          5    1    4    4  502    0  0.32201173030E+02 -0.16155052706E+02  0.56806492489E+01  0.36773102240E+02  0.47000000000E+01 0. -1.
         -5    1    3    3    0  503  0.76968334849E+01 -0.42282683752E+02 -0.82424521661E+02  0.93075014703E+02  0.47000000000E+01 0.  1.
          5    1    3    3  503    0 -0.11430460925E+01  0.43499476241E+02 -0.37796573844E+02  0.57828902653E+02  0.47000000000E+01 0. -1.
         -5    1    4    4    0  502 -0.38754960423E+02  0.14938260217E+02  0.51773534710E+02  0.66540870689E+02  0.47000000000E+01 0.  1.
<mgrwt>
<rscale>  0 0.89841779E+02</rscale>
<asrwt>0</asrwt>
<pdfrwt beam="1">  1        1 0.24383446E-01 0.91207897E+02</pdfrwt>
<pdfrwt beam="2">  1       -1 0.14726999E-01 0.91207897E+02</pdfrwt>
<totfact> 0.60431362E+03</totfact>
</mgrwt>
</event>
<event>
 8    1  0.2964543E-004  0.9150911E+02  0.7546771E-02  0.1299449E+00
          1   -1    0    0  501    0  0.00000000000E+00  0.00000000000E+00  0.26306202134E+03  0.26306202134E+03  0.00000000000E+00 0. -1.
         -1   -1    0    0    0  501 -0.00000000000E+00 -0.00000000000E+00 -0.31712629363E+02  0.31712629363E+02  0.00000000000E+00 0.  1.
         23    2    1    2    0    0  0.70818901487E+00 -0.94232739144E+01  0.11431497955E+03  0.14643029509E+03  0.91019872270E+02 0.  0.
         23    2    1    2    0    0 -0.70818901487E+00  0.94232739144E+01  0.11703441243E+03  0.14834435562E+03  0.90662530997E+02 0.  0.
          5    1    4    4  502    0 -0.24883392078E+02 -0.23014637760E+02  0.97192418057E+02  0.10304034589E+03  0.47000000000E+01 0. -1.
         -5    1    3    3    0  503  0.35618116681E+02  0.23752435588E+02  0.51370385026E+02  0.67036071558E+02  0.47000000000E+01 0.  1.
          5    1    3    3  503    0 -0.34909927666E+02 -0.33175709503E+02  0.62944594519E+02  0.79394223529E+02  0.47000000000E+01 0. -1.
         -5    1    4    4    0  502  0.24175203063E+02  0.32437911674E+02  0.19841994378E+02  0.45304009732E+02  0.47000000000E+01 0.  1.
<mgrwt>
<rscale>  0 0.91420122E+02</rscale>
<asrwt>0</asrwt>
<pdfrwt beam="1">  1        1 0.40471079E-01 0.91509108E+02</pdfrwt>
<pdfrwt beam="2">  1       -1 0.48788662E-02 0.91509108E+02</pdfrwt>
<totfact> 0.17010085E+04</totfact>
</mgrwt>
</event>
<event>
 8    1  0.2964543E-004  0.9628210E+02  0.7546771E-02  0.1289588E+00
          1   -1    0    0  501    0  0.00000000000E+00  0.00000000000E+00  0.88777083465E+03  0.88777083465E+03  0.00000000000E+00 0. -1.
         -1   -1    0    0    0  501 -0.00000000000E+00 -0.00000000000E+00 -0.14418231977E+02  0.14418231977E+02  0.00000000000E+00 0.  1.
         23    2    1    2    0    0 -0.39438402533E+01  0.29863493863E+02  0.19629972125E+03  0.21864085298E+03  0.91448673519E+02 0.  0.
         23    2    1    2    0    0  0.39438402533E+01 -0.29863493863E+02  0.67705288143E+03  0.68354821365E+03  0.89051524359E+02 0.  0.
          5    1    3    3  502    0 -0.12833025751E+02 -0.29281526065E+02  0.10087125582E+03  0.10592069943E+03  0.47000000000E+01 0. -1.
         -5    1    3    3    0  502  0.88891854978E+01  0.59145019927E+02  0.95428465434E+02  0.11272015355E+03  0.47000000000E+01 0.  1.
          5    1    4    4  503    0 -0.38676367954E+02 -0.25332514911E+02  0.24655744395E+03  0.25089890577E+03  0.47000000000E+01 0. -1.
         -5    1    4    4    0  503  0.42620208207E+02 -0.45309789517E+01  0.43049543748E+03  0.43264930788E+03  0.47000000000E+01 0.  1.
<mgrwt>
<rscale>  0 0.95708537E+02</rscale>
<asrwt>0</asrwt>
<pdfrwt beam="1">  1        1 0.13658009E+00 0.96282096E+02</pdfrwt>
<pdfrwt beam="2">  1       -1 0.22181902E-02 0.96282096E+02</pdfrwt>
<totfact> 0.10797191E+04</totfact>
</mgrwt>
</event>
<event>
 8    1  0.2964543E-004  0.9147262E+02  0.7546771E-02  0.1299507E+00
          1   -1    0    0  501    0  0.00000000000E+00  0.00000000000E+00  0.78771403684E+03  0.78771403684E+03  0.00000000000E+00 0. -1.
         -1   -1    0    0    0  501 -0.00000000000E+00 -0.00000000000E+00 -0.10596789547E+02  0.10596789547E+02  0.00000000000E+00 0.  1.
         23    2    1    2    0    0 -0.93726085109E+01  0.11734149294E+01  0.40035134598E+03  0.41059987202E+03  0.90674318202E+02 0.  0.
         23    2    1    2    0    0  0.93726085109E+01 -0.11734149294E+01  0.37676590131E+03  0.38771095436E+03  0.90983608698E+02 0.  0.
          5    1    3    3  502    0 -0.53195968145E+01  0.45679184377E+02  0.20403889192E+03  0.20921005093E+03  0.47000000000E+01 0. -1.
         -5    1    4    4    0  503 -0.12318835062E+02 -0.39023253656E+02  0.11200521531E+03  0.11933912301E+03  0.47000000000E+01 0.  1.
          5    1    4    4  503    0  0.21691443573E+02  0.37849838726E+02  0.26476068600E+03  0.26837183136E+03  0.47000000000E+01 0. -1.
         -5    1    3    3    0  502 -0.40530116965E+01 -0.44505769448E+02  0.19631245407E+03  0.20138982109E+03  0.47000000000E+01 0.  1.
<mgrwt>
<rscale>  0 0.91395612E+02</rscale>
<asrwt>0</asrwt>
<pdfrwt beam="1">  1        1 0.12118673E+00 0.91472617E+02</pdfrwt>
<pdfrwt beam="2">  1       -1 0.16302759E-02 0.91472617E+02</pdfrwt>
<totfact> 0.19997102E+04</totfact>
</mgrwt>
</event>
<event>
 8    1  0.2964543E-004  0.3045020E+03  0.7546771E-02  0.1083080E+00
          1   -1    0    0  501    0  0.00000000000E+00  0.00000000000E+00  0.62048728389E+03  0.62048728389E+03  0.00000000000E+00 0. -1.
         -1   -1    0    0    0  501 -0.00000000000E+00 -0.00000000000E+00 -0.76770464579E+03  0.76770464579E+03  0.00000000000E+00 0.  1.
         23    2    1    2    0    0 -0.20093909259E+03 -0.21028866080E+03 -0.69662428055E+03  0.76004432942E+03  0.88227856409E+02 0.  0.
         23    2    1    2    0    0  0.20093909259E+03  0.21028866080E+03  0.54940691865E+03  0.62814760026E+03  0.90131047196E+02 0.  0.
          5    1    4    4  502    0  0.16943054077E+03  0.21012550894E+03  0.46171099432E+03  0.53484443526E+03  0.47000000000E+01 0. -1.
         -5    1    4    4    0  502  0.31508551820E+02  0.16315186249E+00  0.87695924330E+02  0.93303165008E+02  0.47000000000E+01 0.  1.
          5    1    3    3  503    0 -0.21770748575E+02 -0.52134854345E+02 -0.74777482618E+02  0.93839066693E+02  0.47000000000E+01 0. -1.
         -5    1    3    3    0  503 -0.17916834401E+03 -0.15815380646E+03 -0.62184679793E+03  0.66620526273E+03  0.47000000000E+01 0.  1.
<mgrwt>
<rscale>  0 0.30436239E+03</rscale>
<asrwt>0</asrwt>
<pdfrwt beam="1">  1        1 0.95459581E-01 0.30450196E+03</pdfrwt>
<pdfrwt beam="2">  1       -1 0.11810841E+00 0.30450196E+03</pdfrwt>
<totfact> 0.23200342E+01</totfact>
</mgrwt>
</event>
<event>
 8    1  0.2964543E-004  0.1124232E+03  0.7546771E-02  0.1256853E+00
         -2   -1    0    0    0  501 -0.00000000000E+00  0.00000000000E+00  0.76403485822E+02  0.76403485822E+02  0.00000000000E+00 0.  1.
          2   -1    0    0  501    0  0.00000000000E+00 -0.00000000000E+00 -0.16418361704E+03  0.16418361704E+03  0.00000000000E+00 0. -1.
         23    2    1    2    0    0  0.54145368211E+02  0.34212137980E+02 -0.53779286105E+02  0.12462422992E+03  0.92394782239E+02 0.  0.
         23    2    1    2    0    0 -0.54145368211E+02 -0.34212137980E+02 -0.34000845117E+02  0.11596287295E+03  0.90493862498E+02 0.  0.
          5    1    4    4  502    0 -0.65021804173E+02 -0.13922682917E+02 -0.53464089260E+02  0.85452764484E+02  0.47000000000E+01 0. -1.
         -5    1    4    4    0  502  0.10876435962E+02 -0.20289455063E+02  0.19463244142E+02  0.30510108465E+02  0.47000000000E+01 0.  1.
          5    1    3    3  503    0 -0.22289415485E+02  0.10760392170E+02 -0.33664069605E+02  0.42047160007E+02  0.47000000000E+01 0. -1.
         -5    1    3    3    0  503  0.76434783696E+02  0.23451745810E+02 -0.20115216501E+02  0.82577069911E+02  0.47000000000E+01 0.  1.
<mgrwt>
<rscale>  0 0.11203197E+03</rscale>
<asrwt>0</asrwt>
<pdfrwt beam="1">  1        2 0.25259018E-01 0.11242325E+03</pdfrwt>
<pdfrwt beam="2">  1       -2 0.11754382E-01 0.11242325E+03</pdfrwt>
<totfact> 0.10077551E+04</totfact>
</mgrwt>
</event>
<event>
 8    1  0.2964543E-004  0.1480677E+03  0.7546771E-02  0.1203267E+00
         -1   -1    0    0    0  501 -0.00000000000E+00  0.00000000000E+00  0.22295125598E+03  0.22295125598E+03  0.00000000000E+00 0.  1.
          1   -1    0    0  501    0  0.00000000000E+00 -0.00000000000E+00 -0.97986098002E+02  0.97986098002E+02  0.00000000000E+00 0. -1.
         23    2    1    2    0    0  0.20865936018E+02 -0.11406049818E+03  0.74132928950E+02  0.16558908720E+03  0.92080780375E+02 0.  0.
         23    2    1    2    0    0 -0.20865936018E+02  0.11406049818E+03  0.50832229030E+02  0.15534826678E+03  0.90022130346E+02 0.  0.
          5    1    3    3  502    0 -0.26448054364E+02 -0.83102251316E+02  0.25830516278E+02  0.91075734005E+02  0.47000000000E+01 0. -1.
         -5    1    4    4    0  503  0.23400791539E+02  0.13065262164E+02  0.34243593982E+02  0.43737990910E+02  0.47000000000E+01 0.  1.
          5    1    4    4  503    0 -0.44266727557E+02  0.10099523602E+03  0.16588635048E+02  0.11161027587E+03  0.47000000000E+01 0. -1.
         -5    1    3    3    0  502  0.47313990382E+02 -0.30958246867E+02  0.48302412672E+02  0.74513353198E+02  0.47000000000E+01 0.  1.
<mgrwt>
<rscale>  0 0.14774886E+03</rscale>
<asrwt>0</asrwt>
<pdfrwt beam="1">  1        1 0.15074784E-01 0.14806774E+03</pdfrwt>
<pdfrwt beam="2">  1       -1 0.34300193E-01 0.14806774E+03</pdfrwt>
<totfact> 0.29089181E+03</totfact>
</mgrwt>
</event>
<event>
 8    1  0.2964543E-004  0.9842019E+02  0.7546771E-02  0.1284449E+00
          2   -1    0    0  501    0  0.00000000000E+00  0.00000000000E+00  0.17733565802E+03  0.17733565802E+03  0.00000000000E+00 0. -1.
         -2   -1    0    0    0  501 -0.00000000000E+00 -0.00000000000E+00 -0.56539625421E+02  0.56539625421E+02  0.00000000000E+00 0.  1.
         23    2    1    2    0    0  0.32026526330E+02  0.46738400983E+00  0.85656198211E+02  0.12937006251E+03  0.91507988424E+02 0.  0.
         23    2    1    2    0    0 -0.32026526330E+02 -0.46738400983E+00  0.35139834385E+02  0.10450522093E+03  0.93062432827E+02 0.  0.
          5    1    4    4  502    0  0.15624930394E+01 -0.31049714062E+02  0.47709644185E+02  0.57138658333E+02  0.47000000000E+01 0. -1.
         -5    1    3    3    0  503  0.13847442067E+02  0.37676793736E+02  0.79464771248E+01  0.41188941923E+02  0.47000000000E+01 0.  1.
          5    1    3    3  503    0  0.18179084263E+02 -0.37209409726E+02  0.77709721086E+02  0.88181120588E+02  0.47000000000E+01 0. -1.
         -5    1    4    4    0  502 -0.33589019369E+02  0.30582330052E+02 -0.12569809800E+02  0.47366562594E+02  0.47000000000E+01 0.  1.
<mgrwt>
<rscale>  0 0.98050989E+02</rscale>
<asrwt>0</asrwt>
<pdfrwt beam="1">  1        2 0.27282409E-01 0.98420187E+02</pdfrwt>
<pdfrwt beam="2">  1       -2 0.86984040E-02 0.98420187E+02</pdfrwt>
<totfact> 0.14655190E+04</totfact>
</mgrwt>
</event>
<event>
 8    1  0.2964543E-004  0.1030341E+03  0.7546771E-02  0.1277942E+00
         -1   -1    0    0    0  501 -0.00000000000E+00  0.00000000000E+00  0.94873360541E+02  0.94873360541E+02  0.00000000000E+00 0.  1.
          1   -1    0    0  501    0  0.00000000000E+00 -0.00000000000E+00 -0.16025702931E+03  0.16025702931E+03  0.00000000000E+00 0. -1.
         23    2    1    2    0    0  0.25382052904E+02  0.16351812830E+02  0.42071229445E+02  0.11129248546E+03  0.98510905901E+02 0.  0.
         23    2    1    2    0    0 -0.25382052904E+02 -0.16351812830E+02 -0.10745489821E+03  0.14383790438E+03  0.90725725103E+02 0.  0.
          5    1    3    3  502    0  0.61411975160E+02 -0.31383050568E+01  0.22461571682E+02  0.65634532482E+02  0.47000000000E+01 0. -1.
         -5    1    3    3    0  502 -0.36029922256E+02  0.19490117887E+02  0.19609657763E+02  0.45657952983E+02  0.47000000000E+01 0.  1.
          5    1    4    4  503    0 -0.85505618327E+01 -0.53429673955E+02 -0.55413885938E+02  0.77592724667E+02  0.47000000000E+01 0. -1.
         -5    1    4    4    0  503 -0.16831491072E+02  0.37077861124E+02 -0.52041012273E+02  0.66245179716E+02  0.47000000000E+01 0.  1.
<mgrwt>
<rscale>  0 0.10112781E+03</rscale>
<asrwt>0</asrwt>
<pdfrwt beam="1">  1        1 0.24654927E-01 0.10303412E+03</pdfrwt>
<pdfrwt beam="2">  1       -1 0.14595902E-01 0.10303412E+03</pdfrwt>
<totfact> 0.60990962E+03</totfact>
</mgrwt>
</event>
<event>
 8    1  0.2964543E-004  0.1111429E+03  0.7546771E-02  0.1265280E+00
         -1   -1    0    0    0  501 -0.00000000000E+00  0.00000000000E+00  0.39815719109E+02  0.39815719109E+02  0.00000000000E+00 0.  1.
          1   -1    0    0  501    0  0.00000000000E+00 -0.00000000000E+00 -0.33769663211E+03  0.33769663211E+03  0.00000000000E+00 0. -1.
         23    2    1    2    0    0  0.16428465259E+02  0.25521402931E+02 -0.23962124074E+03  0.26414215973E+03  0.10691821666E+03 0.  0.
         23    2    1    2    0    0 -0.16428465259E+02 -0.25521402931E+02 -0.58259672269E+02  0.11337019150E+03  0.92397913553E+02 0.  0.
          5    1    4    4  502    0 -0.47798419765E+02 -0.13023291766E+02 -0.61513203722E+02  0.79121800363E+02  0.47000000000E+01 0.  1.
         -5    1    4    4    0  502  0.31369954506E+02 -0.12498111165E+02  0.32535314530E+01  0.34248391135E+02  0.47000000000E+01 0. -1.
          5    1    3    3  503    0  0.43219768836E+02 -0.13313565272E+02 -0.19058070517E+03  0.19592931027E+03  0.47000000000E+01 0. -1.
         -5    1    3    3    0  503 -0.26791303577E+02  0.38834968203E+02 -0.49040535563E+02  0.68212849457E+02  0.47000000000E+01 0.  1.
<mgrwt>
<rscale>  0 0.10749535E+03</rscale>
<asrwt>0</asrwt>
<pdfrwt beam="1">  1        1 0.51953326E-01 0.11114289E+03</pdfrwt>
<pdfrwt beam="2">  1       -1 0.61254955E-02 0.11114289E+03</pdfrwt>
<totfact> 0.91158359E+03</totfact>
</mgrwt>
</event>
<event>
 8    1  0.2964543E-004  0.1076318E+03  0.7546771E-02  0.1265190E+00
         -1   -1    0    0    0  501 -0.00000000000E+00  0.00000000000E+00  0.12054216608E+02  0.12054216608E+02  0.00000000000E+00 0.  1.
          1   -1    0    0  501    0  0.00000000000E+00 -0.00000000000E+00 -0.97078906367E+03  0.97078906367E+03  0.00000000000E+00 0. -1.
         23    2    1    2    0    0  0.34402726501E+02 -0.44956255780E+02 -0.53532669292E+03  0.54596906857E+03  0.91120486995E+02 0.  0.
         23    2    1    2    0    0 -0.34402726501E+02  0.44956255780E+02 -0.42340815414E+03  0.43687421171E+03  0.91542336343E+02 0.  0.
          5    1    3    3  502    0 -0.28681374304E+02 -0.42742713402E+01 -0.10128128587E+03  0.10545558067E+03  0.47000000000E+01 0. -1.
         -5    1    4    4    0  503 -0.81308928595E+01 -0.20267942054E+02 -0.31126329557E+02  0.38312390757E+02  0.47000000000E+01 0.  1.
          5    1    4    4  503    0 -0.26271833642E+02  0.65224197834E+02 -0.39228182458E+03  0.39856182095E+03  0.47000000000E+01 0. -1.
         -5    1    3    3    0  502  0.63084100805E+02 -0.40681984440E+02 -0.43404540705E+03  0.44051348789E+03  0.47000000000E+01 0.  1.
<mgrwt>
<rscale>  0 0.10754208E+03</rscale>
<asrwt>0</asrwt>
<pdfrwt beam="1">  1        1 0.14935216E+00 0.10763183E+03</pdfrwt>
<pdfrwt beam="2">  1       -1 0.18544949E-02 0.10763183E+03</pdfrwt>
<totfact> 0.12189400E+04</totfact>
</mgrwt>
</event>
<event>
 8    1  0.2964543E-004  0.1508987E+03  0.7546771E-02  0.1199730E+00
          4   -1    0    0  501    0  0.00000000000E+00  0.00000000000E+00  0.17182442163E+03  0.17182442163E+03  0.00000000000E+00 0. -1.
         -4   -1    0    0    0  501 -0.00000000000E+00 -0.00000000000E+00 -0.18446680465E+03  0.18446680465E+03  0.00000000000E+00 0.  1.
         23    2    1    2    0    0 -0.95632217782E+02  0.70051758997E+02  0.89120861536E+02  0.17525105029E+03  0.93368263621E+02 0.  0.
         23    2    1    2    0    0  0.95632217782E+02 -0.70051758997E+02 -0.10176324456E+03  0.18104017598E+03  0.91471401867E+02 0.  0.
          5    1    3    3  502    0 -0.92518671985E+02  0.32981062785E+02  0.25802469144E+02  0.10166273940E+03  0.47000000000E+01 0. -1.
         -5    1    3    3    0  502 -0.31135457968E+01  0.37070696212E+02  0.63318392393E+02  0.73588310894E+02  0.47000000000E+01 0.  1.
          5    1    4    4  503    0  0.21069351257E+02 -0.56661472301E+02 -0.91869386441E+01  0.61326420468E+02  0.47000000000E+01 0. -1.
         -5    1    4    4    0  503  0.74562866525E+02 -0.13390286696E+02 -0.92576305917E+02  0.11971375551E+03  0.47000000000E+01 0.  1.
<mgrwt>
<rscale>  0 0.15060624E+03</rscale>
<asrwt>0</asrwt>
<pdfrwt beam="1">  1        4 0.26434526E-01 0.15089865E+03</pdfrwt>
<pdfrwt beam="2">  1       -4 0.28379508E-01 0.15089865E+03</pdfrwt>
<totfact> 0.27075228E+02</totfact>
</mgrwt>
</event>
<event>
 8    1  0.2964543E-004  0.1080089E+03  0.7546771E-02  0.1265541E+00
          4   -1    0    0  501    0  0.00000000000E+00  0.00000000000E+00  0.11714050939E+02  0.11714050939E+02  0.00000000000E+00 0. -1.
         -4   -1    0    0    0  501 -0.00000000000E+00 -0.00000000000E+00 -0.99381903031E+03  0.99381903031E+03  0.00000000000E+00 0.  1.
         23    2    1    2    0    0 -0.46068705535E+02 -0.27433899441E+02 -0.55929387457E+03  0.56914432382E+03  0.90778184236E+02 0.  0.
         23    2    1    2    0    0  0.46068705535E+02  0.27433899441E+02 -0.42281110480E+03  0.43638875743E+03  0.93760187726E+02 0.  0.
          5    1    4    4  502    0 -0.68992103819E+01  0.49599866219E+02 -0.20649143053E+03  0.21252893148E+03  0.47000000000E+01 0. -1.
         -5    1    3    3    0  503  0.22535712231E+02  0.94876206312E+01 -0.88980293442E+02  0.92398354379E+02  0.47000000000E+01 0.  1.
          5    1    3    3  503    0 -0.68604417766E+02 -0.36921520073E+02 -0.47031358113E+03  0.47674596944E+03  0.47000000000E+01 0. -1.
         -5    1    4    4    0  502  0.52967915917E+02 -0.22165966778E+02 -0.21631967427E+03  0.22385982596E+03  0.47000000000E+01 0.  1.
<mgrwt>
<rscale>  0 0.10735847E+03</rscale>
<asrwt>0</asrwt>
<pdfrwt beam="1">  1        4 0.18021620E-02 0.10800888E+03</pdfrwt>
<pdfrwt beam="2">  1       -4 0.15289521E+00 0.10800888E+03</pdfrwt>
<totfact> 0.57531722E+02</totfact>
</mgrwt>
</event>
<event>
 8    1  0.2964543E-004  0.9712397E+02  0.7546771E-02  0.1288579E+00
          1   -1    0    0  501    0  0.00000000000E+00  0.00000000000E+00  0.16728892848E+03  0.16728892848E+03  0.00000000000E+00 0. -1.
         -1   -1    0    0    0  501 -0.00000000000E+00 -0.00000000000E+00 -0.13530685073E+03  0.13530685073E+03  0.00000000000E+00 0.  1.
         23    2    1    2    0    0 -0.75015002711E+01  0.15046434820E+02 -0.10125902412E+03  0.13771322289E+03  0.91808899829E+02 0.  0.
         23    2    1    2    0    0  0.75015002711E+01 -0.15046434820E+02  0.13324110187E+03  0.16488255632E+03  0.95657715024E+02 0.  0.
          5    1    4    4  502    0  0.27572992122E+02 -0.31637059953E+02  0.13178015380E+03  0.13838089605E+03  0.47000000000E+01 0. -1.
         -5    1    3    3    0  503 -0.37579344288E+02 -0.75610668966E+01 -0.90347243434E+02  0.98255235208E+02  0.47000000000E+01 0.  1.
          5    1    3    3  503    0  0.30077844017E+02  0.22607501716E+02 -0.10911780682E+02  0.39457987686E+02  0.47000000000E+01 0. -1.
         -5    1    4    4    0  502 -0.20071491851E+02  0.16590625134E+02  0.14609480667E+01  0.26501660263E+02  0.47000000000E+01 0.  1.
<mgrwt>
<rscale>  0 0.96162713E+02</rscale>
<asrwt>0</asrwt>
<pdfrwt beam="1">  1        1 0.25736758E-01 0.97123973E+02</pdfrwt>
<pdfrwt beam="2">  1       -1 0.20816439E-01 0.97123973E+02</pdfrwt>
<totfact> 0.32942350E+03</totfact>
</mgrwt>
</event>
<event>
 8    1  0.2964543E-004  0.9819761E+02  0.7546771E-02  0.1288775E+00
          2   -1    0    0  501    0  0.00000000000E+00  0.00000000000E+00  0.31236978908E+03  0.31236978908E+03  0.00000000000E+00 0. -1.
         -2   -1    0    0    0  501 -0.00000000000E+00 -0.00000000000E+00 -0.28862502637E+02  0.28862502637E+02  0.00000000000E+00 0.  1.
         23    2    1    2    0    0 -0.62721680726E+01 -0.23368656231E+02  0.17079116869E+03  0.19700861535E+03  0.95170042743E+02 0.  0.
         23    2    1    2    0    0  0.62721680726E+01  0.23368656231E+02  0.11271611776E+03  0.14422367636E+03  0.86660899114E+02 0.  0.
          5    1    4    4  502    0 -0.35594292474E+02  0.10322634668E+02  0.21998533224E+02  0.43353614696E+02  0.47000000000E+01 0. -1.
         -5    1    4    4    0  502  0.41866460546E+02  0.13046021563E+02  0.90717584534E+02  0.10087006167E+03  0.47000000000E+01 0.  1.
          5    1    3    3  503    0 -0.48361169927E+02 -0.28759527255E+01  0.64798740771E+02  0.81043449250E+02  0.47000000000E+01 0. -1.
         -5    1    3    3    0  503  0.42089001854E+02 -0.20492703505E+02  0.10599242791E+03  0.11596516610E+03  0.47000000000E+01 0.  1.
<mgrwt>
<rscale>  0 0.96074131E+02</rscale>
<asrwt>0</asrwt>
<pdfrwt beam="1">  1        2 0.48056888E-01 0.98197613E+02</pdfrwt>
<pdfrwt beam="2">  1       -2 0.44403852E-02 0.98197613E+02</pdfrwt>
<totfact> 0.22167461E+04</totfact>
</mgrwt>
</event>
<event>
 8    1  0.2964543E-004  0.1183658E+03  0.7546771E-02  0.1245818E+00
         -3   -1    0    0    0  501 -0.00000000000E+00  0.00000000000E+00  0.73173466372E+03  0.73173466372E+03  0.00000000000E+00 0.  1.
          3   -1    0    0  501    0  0.00000000000E+00 -0.00000000000E+00 -0.32252360063E+02  0.32252360063E+02  0.00000000000E+00 0. -1.
         23    2    1    2    0    0  0.93534783595E+01  0.73841727887E+02  0.10623834276E+03  0.15904995960E+03  0.92033775544E+02 0.  0.
         23    2    1    2    0    0 -0.93534783595E+01 -0.73841727887E+02  0.59324396089E+03  0.60493706418E+03  0.92034592140E+02 0.  0.
          5    1    4    4  502    0 -0.52161206810E+01 -0.93709298757E+02  0.41648615364E+03  0.42695602439E+03  0.47000000000E+01 0. -1.
         -5    1    3    3    0  503 -0.32369066219E+02  0.98257929499E+01  0.61589357836E+02  0.70424723312E+02  0.47000000000E+01 0.  1.
          5    1    3    3  503    0  0.41722544578E+02  0.64015934937E+02  0.44648984926E+02  0.88625236287E+02  0.47000000000E+01 0. -1.
         -5    1    4    4    0  502 -0.41373576784E+01  0.19867570870E+02  0.17675780725E+03  0.17798103979E+03  0.47000000000E+01 0.  1.
<mgrwt>
<rscale>  0 0.11836561E+03</rscale>
<asrwt>0</asrwt>
<pdfrwt beam="1">  1        3 0.49619021E-02 0.11836577E+03</pdfrwt>
<pdfrwt beam="2">  1       -3 0.11257455E+00 0.11836577E+03</pdfrwt>
<totfact> 0.36213980E+02</totfact>
</mgrwt>
</event>
<event>
 8    1  0.2964543E-004  0.9944472E+02  0.7546771E-02  0.1282458E+00
         -1   -1    0    0    0  501 -0.00000000000E+00  0.00000000000E+00  0.21446537926E+02  0.21446537926E+02  0.00000000000E+00 0.  1.
          1   -1    0    0  501    0  0.00000000000E+00 -0.00000000000E+00 -0.49441745357E+03  0.49441745357E+03  0.00000000000E+00 0. -1.
         23    2    1    2    0    0 -0.12827484091E+02  0.16603567997E+02 -0.30948636861E+03  0.32450974087E+03  0.95312836223E+02 0.  0.
         23    2    1    2    0    0  0.12827484091E+02 -0.16603567997E+02 -0.16348454704E+03  0.19135425062E+03  0.97206117572E+02 0.  0.
          5    1    3    3  502    0  0.14006799873E+02 -0.34808665167E+02 -0.15155801578E+03  0.15620421173E+03  0.47000000000E+01 0. -1.
         -5    1    3    3    0  502 -0.26834283964E+02  0.51412233164E+02 -0.15792835282E+03  0.16830552915E+03  0.47000000000E+01 0.  1.
          5    1    4    4  503    0  0.54822129613E+02 -0.59129460167E+01 -0.10102253375E+03  0.11518711365E+03  0.47000000000E+01 0. -1.
         -5    1    4    4    0  503 -0.41994645522E+02 -0.10690621980E+02 -0.62462013289E+02  0.76167136975E+02  0.47000000000E+01 0.  1.
<mgrwt>
<rscale>  0 0.98978996E+02</rscale>
<asrwt>0</asrwt>
<pdfrwt beam="1">  1        1 0.76064221E-01 0.99444719E+02</pdfrwt>
<pdfrwt beam="2">  1       -1 0.32994675E-02 0.99444719E+02</pdfrwt>
<totfact> 0.13847200E+04</totfact>
</mgrwt>
</event>
<event>
 8    1  0.2964543E-004  0.9639720E+02  0.7546771E-02  0.1289052E+00
         -3   -1    0    0    0  501 -0.00000000000E+00  0.00000000000E+00  0.12094587497E+03  0.12094587497E+03  0.00000000000E+00 0.  1.
          3   -1    0    0  501    0  0.00000000000E+00 -0.00000000000E+00 -0.77080613457E+02  0.77080613457E+02  0.00000000000E+00 0. -1.
         23    2    1    2    0    0  0.29113822847E+02 -0.84498319841E+01  0.36661650452E+02  0.10313339626E+03  0.91506319289E+02 0.  0.
         23    2    1    2    0    0 -0.29113822847E+02  0.84498319841E+01  0.72036110652E+01  0.94893092166E+02  0.89631426337E+02 0.  0.
          5    1    4    4  502    0  0.22013460440E+02  0.28641665384E+02  0.14567569078E+02  0.39233168433E+02  0.47000000000E+01 0. -1.
         -5    1    4    4    0  502 -0.51127283287E+02 -0.20191833400E+02 -0.73639580126E+01  0.55659923733E+02  0.47000000000E+01 0.  1.
          5    1    3    3  503    0 -0.64908805870E+01  0.29576869663E+02 -0.10813751943E+02  0.32495383995E+02  0.47000000000E+01 0. -1.
         -5    1    3    3    0  503  0.35604703434E+02 -0.38026701647E+02  0.47475402395E+02  0.70638012270E+02  0.47000000000E+01 0.  1.
<mgrwt>
<rscale>  0 0.95949613E+02</rscale>
<asrwt>0</asrwt>
<pdfrwt beam="1">  1        3 0.11858556E-01 0.96397203E+02</pdfrwt>
<pdfrwt beam="2">  1       -3 0.18607058E-01 0.96397203E+02</pdfrwt>
<totfact> 0.30181323E+03</totfact>
</mgrwt>
</event>
<event>
 8    1  0.2964543E-004  0.1027673E+03  0.7546771E-02  0.1274873E+00
          1   -1    0    0  501    0  0.00000000000E+00  0.00000000000E+00  0.55358286871E+02  0.55358286871E+02  0.00000000000E+00 0. -1.
         -1   -1    0    0    0  501 -0.00000000000E+00 -0.00000000000E+00 -0.20432536377E+03  0.20432536377E+03  0.00000000000E+00 0.  1.
         23    2    1    2    0    0  0.43398997775E+02  0.16170042867E+02 -0.39573437448E+02  0.10959006309E+03  0.91098746873E+02 0.  0.
         23    2    1    2    0    0 -0.43398997775E+02 -0.16170042867E+02 -0.10939363945E+03  0.15009358756E+03  0.91739704484E+02 0.  0.
          5    1    3    3  502    0 -0.19973233480E+02  0.44989168290E+01  0.14345989690E+02  0.25437525989E+02  0.47000000000E+01 0. -1.
         -5    1    4    4    0  503 -0.31665809798E+02 -0.50984561393E+02 -0.42705855251E+02  0.73810765361E+02  0.47000000000E+01 0.  1.
          5    1    4    4  503    0 -0.11733187977E+02  0.34814518525E+02 -0.66687784204E+02  0.76282822196E+02  0.47000000000E+01 0. -1.
         -5    1    3    3    0  502  0.63372231255E+02  0.11671126038E+02 -0.53919427138E+02  0.84152537098E+02  0.47000000000E+01 0.  1.
<mgrwt>
<rscale>  0 0.10262405E+03</rscale>
<asrwt>0</asrwt>
<pdfrwt beam="1">  1        1 0.85166595E-02 0.10276729E+03</pdfrwt>
<pdfrwt beam="2">  1       -1 0.31434671E-01 0.10276729E+03</pdfrwt>
<totfact> 0.69679927E+03</totfact>
</mgrwt>
</event>
<event>
 8    1  0.2964543E-004  0.1575156E+03  0.7546771E-02  0.1192916E+00
          2   -1    0    0  501    0  0.00000000000E+00  0.00000000000E+00  0.17163793801E+03  0.17163793801E+03  0.00000000000E+00 0. -1.
         -2   -1    0    0    0  501 -0.00000000000E+00 -0.00000000000E+00 -0.29318611592E+03  0.29318611592E+03  0.00000000000E+00 0.  1.
         23    2    1    2    0    0 -0.11934637785E+03 -0.30838781641E+02  0.10663357146E+03  0.19021537432E+03  0.98064171373E+02 0.  0.
         23    2    1    2    0    0  0.11934637785E+03  0.30838781641E+02 -0.22818174937E+03  0.27460867961E+03  0.90268642477E+02 0.  0.
          5    1    4    4  502    0  0.21026282382E+02  0.11519070067E+02  0.98345169742E+00  0.24450985732E+02  0.47000000000E+01 0. -1.
         -5    1    3    3    0  503 -0.35650645977E+01 -0.33677452174E+02  0.51608140924E+02  0.61906144122E+02  0.47000000000E+01 0.  1.
          5    1    3    3  503    0 -0.11578131325E+03  0.28386705324E+01  0.55025430534E+02  0.12830923020E+03  0.47000000000E+01 0. -1.
         -5    1    4    4    0  502  0.98320095467E+02  0.19319711574E+02 -0.22916520107E+03  0.25015769388E+03  0.47000000000E+01 0.  1.
<mgrwt>
<rscale>  0 0.15631921E+03</rscale>
<asrwt>0</asrwt>
<pdfrwt beam="1">  1        2 0.26405837E-01 0.15751562E+03</pdfrwt>
<pdfrwt beam="2">  1       -2 0.45105556E-01 0.15751562E+03</pdfrwt>
<totfact> 0.94402842E+02</totfact>
</mgrwt>
</event>
<event>
 8    1  0.2964543E-004  0.1056378E+03  0.7546771E-02  0.1269672E+00
         -1   -1    0    0    0  501 -0.00000000000E+00  0.00000000000E+00  0.24374574049E+03  0.24374574049E+03  0.00000000000E+00 0.  1.
          1   -1    0    0  501    0  0.00000000000E+00 -0.00000000000E+00 -0.80028368688E+02  0.80028368688E+02  0.00000000000E+00 0. -1.
         23    2    1    2    0    0 -0.24008073120E+02  0.47289845304E+02  0.18848062666E+03  0.21527269748E+03  0.89468824805E+02 0.  0.
         23    2    1    2    0    0  0.24008073120E+02 -0.47289845304E+02 -0.24763254857E+02  0.10850141169E+03  0.91359840765E+02 0.  0.
          5    1    4    4  502    0  0.26118120142E+02 -0.73870821452E+02 -0.16689624103E+02  0.80247666722E+02  0.47000000000E+01 0. -1.
         -5    1    4    4    0  502 -0.21100470223E+01  0.26580976147E+02 -0.80736307539E+01  0.28253744972E+02  0.47000000000E+01 0.  1.
          5    1    3    3  503    0  0.28557077055E+02 -0.20874074493E+01  0.33839288635E+02  0.44576354439E+02  0.47000000000E+01 0. -1.
         -5    1    3    3    0  503 -0.52565150175E+02  0.49377252754E+02  0.15464133802E+03  0.17069634304E+03  0.47000000000E+01 0.  1.
<mgrwt>
<rscale>  0 0.10522761E+03</rscale>
<asrwt>0</asrwt>
<pdfrwt beam="1">  1        1 0.12312057E-01 0.10563777E+03</pdfrwt>
<pdfrwt beam="2">  1       -1 0.37499344E-01 0.10563777E+03</pdfrwt>
<totfact> 0.31879691E+03</totfact>
</mgrwt>
</event>
<event>
 8    1  0.2964543E-004  0.9624664E+02  0.7546771E-02  0.1289821E+00
          2   -1    0    0  501    0  0.00000000000E+00  0.00000000000E+00  0.34890218995E+02  0.34890218995E+02  0.00000000000E+00 0. -1.
         -2   -1    0    0    0  501 -0.00000000000E+00 -0.00000000000E+00 -0.27435525776E+03  0.27435525776E+03  0.00000000000E+00 0.  1.
         23    2    1    2    0    0 -0.16488839289E+02 -0.22617051870E+02 -0.84111185969E+02  0.12782060641E+03  0.92086931552E+02 0.  0.
         23    2    1    2    0    0  0.16488839289E+02  0.22617051870E+02 -0.15535385279E+03  0.18142487034E+03  0.89424555594E+02 0.  0.
          5    1    3    3  502    0 -0.47099954993E+02 -0.65462903168E+01 -0.14469150524E+02  0.49927006661E+02  0.47000000000E+01 0. -1.
         -5    1    4    4    0  503  0.38009741515E+02  0.58145716518E+01 -0.14768088026E+03  0.15267705161E+03  0.47000000000E+01 0.  1.
          5    1    4    4  503    0 -0.21520902226E+02  0.16802480218E+02 -0.76729725305E+01  0.28747818727E+02  0.47000000000E+01 0. -1.
         -5    1    3    3    0  502  0.30611115704E+02 -0.16070761553E+02 -0.69642035445E+02  0.77893599753E+02  0.47000000000E+01 0.  1.
<mgrwt>
<rscale>  0 0.95604209E+02</rscale>
<asrwt>0</asrwt>
<pdfrwt beam="1">  1        2 0.53677259E-02 0.96246641E+02</pdfrwt>
<pdfrwt beam="2">  1       -2 0.42208502E-01 0.96246641E+02</pdfrwt>
<totfact> 0.70211258E+03</totfact>
</mgrwt>
</event>
<event>
 8    1  0.2964543E-004  0.1003118E+03  0.7546771E-02  0.1281572E+00
         -2   -1    0    0    0  501 -0.00000000000E+00  0.00000000000E+00  0.19456751613E+02  0.19456751613E+02  0.00000000000E+00 0.  1.
          2   -1    0    0  501    0  0.00000000000E+00 -0.00000000000E+00 -0.50898667495E+03  0.50898667495E+03  0.00000000000E+00 0. -1.
         23    2    1    2    0    0  0.20790680407E+02  0.18050426819E+02 -0.27790977959E+03  0.29425219570E+03  0.92695408618E+02 0.  0.
         23    2    1    2    0    0 -0.20790680407E+02 -0.18050426819E+02 -0.21162014375E+03  0.23419123087E+03  0.96459199025E+02 0.  0.
          5    1    4    4  502    0  0.24591249697E+02  0.20469733940E+02 -0.12408440006E+03  0.12822935665E+03  0.47000000000E+01 0. -1.
         -5    1    4    4    0  502 -0.45381930105E+02 -0.38520160758E+02 -0.87535743692E+02  0.10596187422E+03  0.47000000000E+01 0.  1.
          5    1    3    3  503    0  0.34574724319E+02 -0.28261395901E+02 -0.17167813112E+03  0.17745306074E+03  0.47000000000E+01 0. -1.
         -5    1    3    3    0  503 -0.13784043911E+02  0.46311822719E+02 -0.10623164847E+03  0.11679913496E+03  0.47000000000E+01 0.  1.
<mgrwt>
<rscale>  0 0.99395853E+02</rscale>
<asrwt>0</asrwt>
<pdfrwt beam="1">  1        2 0.78305629E-01 0.10031175E+03</pdfrwt>
<pdfrwt beam="2">  1       -2 0.29933469E-02 0.10031175E+03</pdfrwt>
<totfact> 0.23620330E+04</totfact>
</mgrwt>
</event>
<event>
 8    1  0.2964543E-004  0.1176430E+03  0.7546771E-02  0.1248779E+00
          1   -1    0    0  501    0  0.00000000000E+00  0.00000000000E+00  0.43672370867E+02  0.43672370867E+02  0.00000000000E+00 0. -1.
         -1   -1    0    0    0  501 -0.00000000000E+00 -0.00000000000E+00 -0.40297507024E+03  0.40297507024E+03  0.00000000000E+00 0.  1.
         23    2    1    2    0    0 -0.76693417428E+02  0.18851084108E+01 -0.29150852217E+03  0.31435184738E+03  0.89187619873E+02 0.  0.
         23    2    1    2    0    0  0.76693417428E+02 -0.18851084108E+01 -0.67794177201E+02  0.13229559373E+03  0.83789257953E+02 0.  0.
          5    1    4    4  502    0  0.54636840891E+02 -0.21526698606E+02 -0.78713304232E+00  0.58917677431E+02  0.47000000000E+01 0. -1.
         -5    1    3    3    0  503 -0.80105391817E+02  0.31377785977E+02 -0.23584930370E+03  0.25109445097E+03  0.47000000000E+01 0.  1.
          5    1    3    3  503    0  0.34119743888E+01 -0.29492677567E+02 -0.55659218469E+02  0.63257396404E+02  0.47000000000E+01 0. -1.
         -5    1    4    4    0  502  0.22056576537E+02  0.19641590195E+02 -0.67007044159E+02  0.73377916302E+02  0.47000000000E+01 0.  1.
<mgrwt>
<rscale>  0 0.11662018E+03</rscale>
<asrwt>0</asrwt>
<pdfrwt beam="1">  1        1 0.67188260E-02 0.11764296E+03</pdfrwt>
<pdfrwt beam="2">  1       -1 0.61996167E-01 0.11764296E+03</pdfrwt>
<totfact> 0.28837098E+03</totfact>
</mgrwt>
</event>
<event>
 8    1  0.2964543E-004  0.1499417E+03  0.7546771E-02  0.1206595E+00
         -3   -1    0    0    0  501 -0.00000000000E+00  0.00000000000E+00  0.34500249013E+02  0.34500249013E+02  0.00000000000E+00 0.  1.
          3   -1    0    0  501    0  0.00000000000E+00 -0.00000000000E+00 -0.72475244640E+03  0.72475244640E+03  0.00000000000E+00 0. -1.
         23    2    1    2    0    0 -0.64300902873E+02  0.70006239679E+02 -0.15462264067E+03  0.20303192706E+03  0.90985288342E+02 0.  0.
         23    2    1    2    0    0  0.64300902873E+02 -0.70006239679E+02 -0.53562955671E+03  0.55622076834E+03  0.11596137896E+03 0.  0.
          5    1    3    3  502    0 -0.82481025874E+01  0.47269689816E+02 -0.14513247658E+02  0.50350562352E+02  0.47000000000E+01 0. -1.
         -5    1    4    4    0  503  0.55819453935E+02 -0.97443475462E+02 -0.33170633416E+03  0.35023167257E+03  0.47000000000E+01 0.  1.
          5    1    4    4  503    0  0.84814489373E+01  0.27437235782E+02 -0.20392322255E+03  0.20598909578E+03  0.47000000000E+01 0. -1.
         -5    1    3    3    0  502 -0.56052800285E+02  0.22736549864E+02 -0.14010939302E+03  0.15268136471E+03  0.47000000000E+01 0.  1.
<mgrwt>
<rscale>  0 0.14512457E+03</rscale>
<asrwt>0</asrwt>
<pdfrwt beam="1">  1        3 0.11150038E+00 0.14994173E+03</pdfrwt>
<pdfrwt beam="2">  1       -3 0.53077306E-02 0.14994173E+03</pdfrwt>
<totfact> 0.34456801E+02</totfact>
</mgrwt>
</event>
<event>
 8    1  0.2964543E-004  0.1092613E+03  0.7546771E-02  0.1262573E+00
          1   -1    0    0  501    0  0.00000000000E+00  0.00000000000E+00  0.28470863429E+03  0.28470863429E+03  0.00000000000E+00 0. -1.
         -1   -1    0    0    0  501 -0.00000000000E+00 -0.00000000000E+00 -0.44073163840E+02  0.44073163840E+02  0.00000000000E+00 0.  1.
         23    2    1    2    0    0 -0.28341294915E+02  0.52783184643E+02  0.79280420532E+02  0.13391396085E+03  0.89767868709E+02 0.  0.
         23    2    1    2    0    0  0.28341294915E+02 -0.52783184643E+02  0.16135504992E+03  0.19486783728E+03  0.91371375675E+02 0.  0.
          5    1    3    3  502    0 -0.25854397512E+02 -0.18564764040E+02  0.85124440447E+01  0.33281406794E+02  0.47000000000E+01 0. -1.
         -5    1    4    4    0  503 -0.28244505507E+02  0.35729990296E+01  0.35637753749E+02  0.45854747908E+02  0.47000000000E+01 0.  1.
          5    1    4    4  503    0  0.56585800422E+02 -0.56356183673E+02  0.12571729617E+03  0.14901308937E+03  0.47000000000E+01 0. -1.
         -5    1    3    3    0  502 -0.24868974033E+01  0.71347948683E+02  0.70767976487E+02  0.10063255406E+03  0.47000000000E+01 0.  1.
<mgrwt>
<rscale>  0 0.10892537E+03</rscale>
<asrwt>0</asrwt>
<pdfrwt beam="1">  1        1 0.43801327E-01 0.10926126E+03</pdfrwt>
<pdfrwt beam="2">  1       -1 0.67804869E-02 0.10926126E+03</pdfrwt>
<totfact> 0.96585911E+03</totfact>
</mgrwt>
</event>
<event>
 8    1  0.2964543E-004  0.2402486E+03  0.7546771E-02  0.1119724E+00
         -1   -1    0    0    0  501 -0.00000000000E+00  0.00000000000E+00  0.57462419542E+02  0.57462419542E+02  0.00000000000E+00 0.  1.
          1   -1    0    0  501    0  0.00000000000E+00 -0.00000000000E+00 -0.10693661064E+04  0.10693661064E+04  0.00000000000E+00 0. -1.
         23    2    1    2    0    0  0.19595286080E+03 -0.10507864164E+03 -0.36402168448E+03  0.43583614946E+03  0.89455675185E+02 0.  0.
         23    2    1    2    0    0 -0.19595286080E+03  0.10507864164E+03 -0.64788200242E+03  0.69099237652E+03  0.90996322830E+02 0.  0.
          5    1    4    4  502    0 -0.18544861169E+03  0.87136595491E+02 -0.63202454125E+03  0.66442537925E+03  0.47000000000E+01 0. -1.
         -5    1    4    4    0  502 -0.10504249110E+02  0.17942046146E+02 -0.15857461172E+02  0.26566997272E+02  0.47000000000E+01 0.  1.
          5    1    3    3  503    0  0.45742267300E+02 -0.46810160478E+02 -0.17793105027E+03  0.18964465400E+03  0.47000000000E+01 0. -1.
         -5    1    3    3    0  503  0.15021059350E+03 -0.58268481158E+02 -0.18609063421E+03  0.24619149546E+03  0.47000000000E+01 0.  1.
<mgrwt>
<rscale>  0 0.24010362E+03</rscale>
<asrwt>0</asrwt>
<pdfrwt beam="1">  1        1 0.16451786E+00 0.24024857E+03</pdfrwt>
<pdfrwt beam="2">  1       -1 0.88403726E-02 0.24024857E+03</pdfrwt>
<totfact> 0.10507451E+03</totfact>
</mgrwt>
</event>
<event>
 8    1  0.2964543E-004  0.1410162E+03  0.7546771E-02  0.1213618E+00
         -2   -1    0    0    0  501 -0.00000000000E+00  0.00000000000E+00  0.21961576824E+02  0.21961576824E+02  0.00000000000E+00 0.  1.
          2   -1    0    0  501    0  0.00000000000E+00 -0.00000000000E+00 -0.97733501948E+03  0.97733501948E+03  0.00000000000E+00 0. -1.
         23    2    1    2    0    0  0.21314013229E+02 -0.10026402440E+03 -0.32316067708E+03  0.35258815326E+03  0.96842247264E+02 0.  0.
         23    2    1    2    0    0 -0.21314013229E+02  0.10026402440E+03 -0.63221276558E+03  0.64670844305E+03  0.89619571548E+02 0.  0.
          5    1    3    3  502    0  0.58780093516E+02 -0.45940559199E+02 -0.16454961306E+03  0.18073267422E+03  0.47000000000E+01 0. -1.
         -5    1    3    3    0  502 -0.37466080287E+02 -0.54323465206E+02 -0.15861106403E+03  0.17185547904E+03  0.47000000000E+01 0.  1.
          5    1    4    4  503    0 -0.48779387879E+02  0.94340132294E+02 -0.45754897527E+03  0.46973678163E+03  0.47000000000E+01 0. -1.
         -5    1    4    4    0  503  0.27465374650E+02  0.59238921107E+01 -0.17466379030E+03  0.17697166142E+03  0.47000000000E+01 0.  1.
<mgrwt>
<rscale>  0 0.13978551E+03</rscale>
<asrwt>0</asrwt>
<pdfrwt beam="1">  1        2 0.15035920E+00 0.14101625E+03</pdfrwt>
<pdfrwt beam="2">  1       -2 0.33787050E-02 0.14101625E+03</pdfrwt>
<totfact> 0.92972600E+03</totfact>
</mgrwt>
</event>
<event>
 8    1  0.2964543E-004  0.1065055E+03  0.7546771E-02  0.1267521E+00
         -2   -1    0    0    0  501 -0.00000000000E+00  0.00000000000E+00  0.13727683161E+02  0.13727683161E+02  0.00000000000E+00 0.  1.
          2   -1    0    0  501    0  0.00000000000E+00 -0.00000000000E+00 -0.88373856446E+03  0.88373856446E+03  0.00000000000E+00 0. -1.
         23    2    1    2    0    0 -0.37863892969E+02 -0.36021776302E+02 -0.31667391876E+03  0.33410445524E+03  0.92801796479E+02 0.  0.
         23    2    1    2    0    0  0.37863892969E+02  0.36021776302E+02 -0.55333696253E+03  0.56336179238E+03  0.91997131714E+02 0.  0.
          5    1    3    3  502    0  0.29148716017E+02 -0.14045705005E+02 -0.14107860495E+03  0.14481778982E+03  0.47000000000E+01 0. -1.
         -5    1    3    3    0  502 -0.67012608986E+02 -0.21976071296E+02 -0.17559531381E+03  0.18928666542E+03  0.47000000000E+01 0.  1.
          5    1    4    4  503    0 -0.11948151639E+02  0.42434444822E+02 -0.38736505069E+03  0.38989384829E+03  0.47000000000E+01 0. -1.
         -5    1    4    4    0  503  0.49812044608E+02 -0.64126685205E+01 -0.16597191184E+03  0.17346794409E+03  0.47000000000E+01 0.  1.
<mgrwt>
<rscale>  0 0.10632994E+03</rscale>
<asrwt>0</asrwt>
<pdfrwt beam="1">  1        2 0.13595980E+00 0.10650547E+03</pdfrwt>
<pdfrwt beam="2">  1       -2 0.21119510E-02 0.10650547E+03</pdfrwt>
<totfact> 0.20692679E+04</totfact>
</mgrwt>
</event>
<event>
 8    1  0.2964543E-004  0.9431255E+02  0.7546771E-02  0.1294599E+00
         -2   -1    0    0    0  501 -0.00000000000E+00  0.00000000000E+00  0.10850421539E+03  0.10850421539E+03  0.00000000000E+00 0.  1.
          2   -1    0    0  501    0  0.00000000000E+00 -0.00000000000E+00 -0.12945147127E+03  0.12945147127E+03  0.00000000000E+00 0. -1.
         23    2    1    2    0    0  0.14649906181E+02  0.67400575953E+01  0.63759438367E+02  0.11118786498E+03  0.89651699425E+02 0.  0.
         23    2    1    2    0    0 -0.14649906181E+02 -0.67400575953E+01 -0.84706694247E+02  0.12676782169E+03  0.92923669960E+02 0.  0.
          5    1    4    4  502    0 -0.22122477811E+02  0.22886661382E+02 -0.89842260989E+02  0.95430210904E+02  0.47000000000E+01 0. -1.
         -5    1    4    4    0  502  0.74725716298E+01 -0.29626718977E+02  0.51355667421E+01  0.31337610788E+02  0.47000000000E+01 0.  1.
          5    1    3    3  503    0 -0.15637279609E+02  0.25785305588E+02 -0.73975504858E+01  0.31404143851E+02  0.47000000000E+01 0. -1.
         -5    1    3    3    0  503  0.30287185790E+02 -0.19045247993E+02  0.71156988853E+02  0.79783721126E+02  0.47000000000E+01 0.  1.
<mgrwt>
<rscale>  0 0.93496500E+02</rscale>
<asrwt>0</asrwt>
<pdfrwt beam="1">  1        2 0.19915611E-01 0.94312547E+02</pdfrwt>
<pdfrwt beam="2">  1       -2 0.16692956E-01 0.94312547E+02</pdfrwt>
<totfact> 0.73399635E+03</totfact>
</mgrwt>
</event>
<event>
 8    1  0.2964543E-004  0.9668994E+02  0.7546771E-02  0.1291575E+00
         -1   -1    0    0    0  501 -0.00000000000E+00  0.00000000000E+00  0.27382320575E+02  0.27382320575E+02  0.00000000000E+00 0.  1.
          1   -1    0    0  501    0  0.00000000000E+00 -0.00000000000E+00 -0.66479135374E+03  0.66479135374E+03  0.00000000000E+00 0. -1.
         23    2    1    2    0    0 -0.36703889870E+00  0.29349815027E+02 -0.56328366636E+03  0.57033971175E+03  0.84482848322E+02 0.  0.
         23    2    1    2    0    0  0.36703889870E+00 -0.29349815027E+02 -0.74125366807E+02  0.12183396256E+03  0.92127075656E+02 0.  0.
          5    1    3    3  502    0 -0.37280086412E+02  0.13883926212E+01 -0.35127613635E+03  0.35328281369E+03  0.47000000000E+01 0. -1.
         -5    1    3    3    0  502  0.36913047513E+02  0.27961422406E+02 -0.21200753001E+03  0.21705689807E+03  0.47000000000E+01 0.  1.
          5    1    4    4  503    0 -0.13136982796E+02  0.24229356664E+02 -0.57506222812E+02  0.63942925358E+02  0.47000000000E+01 0. -1.
         -5    1    4    4    0  503  0.13504021694E+02 -0.53579171691E+02 -0.16619143995E+02  0.57891037201E+02  0.47000000000E+01 0.  1.
<mgrwt>
<rscale>  0 0.94823228E+02</rscale>
<asrwt>0</asrwt>
<pdfrwt beam="1">  1        1 0.10227558E+00 0.96689940E+02</pdfrwt>
<pdfrwt beam="2">  1       -1 0.42126653E-02 0.96689940E+02</pdfrwt>
<totfact> 0.65345583E+03</totfact>
</mgrwt>
</event>
<event>
 8    1  0.2964543E-004  0.9899515E+02  0.7546771E-02  0.1283127E+00
          1   -1    0    0  501    0  0.00000000000E+00  0.00000000000E+00  0.51166297425E+02  0.51166297425E+02  0.00000000000E+00 0. -1.
         -1   -1    0    0    0  501 -0.00000000000E+00 -0.00000000000E+00 -0.21913067940E+03  0.21913067940E+03  0.00000000000E+00 0.  1.
         23    2    1    2    0    0 -0.98669629459E+01  0.32581056708E+02 -0.13457491483E+03  0.16706419883E+03  0.92957821691E+02 0.  0.
         23    2    1    2    0    0  0.98669629459E+01 -0.32581056708E+02 -0.33389467138E+02  0.10323277799E+03  0.91560186340E+02 0.  0.
          5    1    4    4  502    0 -0.44613490919E+01 -0.63197593844E+02 -0.22861083471E+02  0.67517098878E+02  0.47000000000E+01 0. -1.
         -5    1    3    3    0  503 -0.47130616691E+02  0.24758308777E+02 -0.45914703388E+02  0.70459341966E+02  0.47000000000E+01 0.  1.
          5    1    3    3  503    0  0.37263653745E+02  0.78227479311E+01 -0.88660211447E+02  0.96604856862E+02  0.47000000000E+01 0. -1.
         -5    1    4    4    0  502  0.14328312038E+02  0.30616537136E+02 -0.10528383667E+02  0.35715679116E+02  0.47000000000E+01 0.  1.
<mgrwt>
<rscale>  0 0.98665700E+02</rscale>
<asrwt>0</asrwt>
<pdfrwt beam="1">  1        1 0.78717380E-02 0.98995145E+02</pdfrwt>
<pdfrwt beam="2">  1       -1 0.33712412E-01 0.98995145E+02</pdfrwt>
<totfact> 0.68541694E+03</totfact>
</mgrwt>
</event>
<event>
 8    1  0.2964543E-004  0.1021605E+03  0.7546771E-02  0.1276116E+00
          4   -1    0    0  501    0  0.00000000000E+00  0.00000000000E+00  0.40569967825E+03  0.40569967825E+03  0.00000000000E+00 0. -1.
         -4   -1    0    0    0  501 -0.00000000000E+00 -0.00000000000E+00 -0.35606226108E+02  0.35606226108E+02  0.00000000000E+00 0.  1.
         23    2    1    2    0    0 -0.20758063174E+01 -0.45200215813E+02  0.30176156684E+03  0.31839934900E+03  0.90943574489E+02 0.  0.
         23    2    1    2    0    0  0.20758063174E+01  0.45200215813E+02  0.68331885295E+02  0.12290655535E+03  0.91593702396E+02 0.  0.
          5    1    4    4  502    0  0.44216226664E+02  0.85435644360E+01  0.22810699854E+02  0.50699952874E+02  0.47000000000E+01 0. -1.
         -5    1    3    3    0  503 -0.27717546285E+02  0.16036148300E+02  0.67354091614E+02  0.74726729365E+02  0.47000000000E+01 0.  1.
          5    1    3    3  503    0  0.25641739968E+02 -0.61236364113E+02  0.23440747523E+03  0.24367261964E+03  0.47000000000E+01 0. -1.
         -5    1    4    4    0  502 -0.42140420346E+02  0.36656651377E+02  0.45521185441E+02  0.72206602476E+02  0.47000000000E+01 0.  1.
<mgrwt>
<rscale>  0 0.10201460E+03</rscale>
<asrwt>0</asrwt>
<pdfrwt beam="1">  1        4 0.62415332E-01 0.10216053E+03</pdfrwt>
<pdfrwt beam="2">  1       -4 0.54778812E-02 0.10216053E+03</pdfrwt>
<totfact> 0.78180257E+02</totfact>
</mgrwt>
</event>
<event>
 8    1  0.2964543E-004  0.1004120E+03  0.7546771E-02  0.1281569E+00
          1   -1    0    0  501    0  0.00000000000E+00  0.00000000000E+00  0.22537522147E+03  0.22537522147E+03  0.00000000000E+00 0. -1.
         -1   -1    0    0    0  501 -0.00000000000E+00 -0.00000000000E+00 -0.65665403754E+02  0.65665403754E+02  0.00000000000E+00 0.  1.
         23    2    1    2    0    0  0.98209008622E+01  0.38485254228E+02 -0.46172821114E+01  0.10051806266E+03  0.92222539218E+02 0.  0.
         23    2    1    2    0    0 -0.98209008622E+01 -0.38485254228E+02  0.16432709982E+03  0.19052256256E+03  0.87851500967E+02 0.  0.
          5    1    3    3  502    0  0.46521158032E+02  0.20653148245E+02  0.17298620629E+02  0.53963904165E+02  0.47000000000E+01 0. -1.
         -5    1    3    3    0  502 -0.36700257170E+02  0.17832105983E+02 -0.21915902741E+02  0.46554158493E+02  0.47000000000E+01 0.  1.
          5    1    4    4  503    0  0.36398836067E+02 -0.28623483457E+02  0.10239308696E+03  0.11247494534E+03  0.47000000000E+01 0. -1.
         -5    1    4    4    0  503 -0.46219736929E+02 -0.98617707703E+01  0.61934012858E+02  0.78047617217E+02  0.47000000000E+01 0.  1.
<mgrwt>
<rscale>  0 0.99396912E+02</rscale>
<asrwt>0</asrwt>
<pdfrwt beam="1">  1        1 0.34673111E-01 0.10041196E+03</pdfrwt>
<pdfrwt beam="2">  1       -1 0.10102370E-01 0.10041196E+03</pdfrwt>
<totfact> 0.70229451E+03</totfact>
</mgrwt>
</event>
<event>
 8    1  0.2964543E-004  0.1042600E+03  0.7546771E-02  0.1272563E+00
         -2   -1    0    0    0  501 -0.00000000000E+00  0.00000000000E+00  0.54514953106E+02  0.54514953106E+02  0.00000000000E+00 0.  1.
          2   -1    0    0  501    0  0.00000000000E+00 -0.00000000000E+00 -0.20650131521E+03  0.20650131521E+03  0.00000000000E+00 0. -1.
         23    2    1    2    0    0 -0.45334075441E+02  0.54730869431E+01 -0.10653560784E+03  0.14906367465E+03  0.93728385693E+02 0.  0.
         23    2    1    2    0    0  0.45334075441E+02 -0.54730869431E+01 -0.45450754263E+02  0.11195259367E+03  0.91555879597E+02 0.  0.
          5    1    4    4  502    0  0.62466909931E+02  0.23264102858E+02 -0.39565256543E+02  0.77658437040E+02  0.47000000000E+01 0. -1.
         -5    1    3    3    0  503 -0.90459483255E+00 -0.38311392299E+02 -0.23851694352E+02  0.45382534032E+02  0.47000000000E+01 0.  1.
          5    1    3    3  503    0 -0.44429480609E+02  0.43784479242E+02 -0.82683913487E+02  0.10368114061E+03  0.47000000000E+01 0. -1.
         -5    1    4    4    0  502 -0.17132834490E+02 -0.28737189801E+02 -0.58854977199E+01  0.34294156627E+02  0.47000000000E+01 0.  1.
<mgrwt>
<rscale>  0 0.10376937E+03</rscale>
<asrwt>0</asrwt>
<pdfrwt beam="1">  1        2 0.31769433E-01 0.10425998E+03</pdfrwt>
<pdfrwt beam="2">  1       -2 0.83869159E-02 0.10425998E+03</pdfrwt>
<totfact> 0.13233908E+04</totfact>
</mgrwt>
</event>
<event>
 8    1  0.2964543E-004  0.1263654E+03  0.7546771E-02  0.1233203E+00
         -3   -1    0    0    0  501 -0.00000000000E+00  0.00000000000E+00  0.40146907817E+02  0.40146907817E+02  0.00000000000E+00 0.  1.
          3   -1    0    0  501    0  0.00000000000E+00 -0.00000000000E+00 -0.44179491359E+03  0.44179491359E+03  0.00000000000E+00 0. -1.
         23    2    1    2    0    0 -0.81008021873E+02  0.33272938245E+02 -0.12344446150E+03  0.17665429638E+03  0.91097844797E+02 0.  0.
         23    2    1    2    0    0  0.81008021873E+02 -0.33272938245E+02 -0.27820354427E+03  0.30528752502E+03  0.90187986253E+02 0.  0.
          5    1    4    4  502    0  0.42353347849E+02 -0.41880522640E+02 -0.24844579406E+03  0.25552922893E+03  0.47000000000E+01 0. -1.
         -5    1    3    3    0  503 -0.32544706622E+02  0.53343095487E+02 -0.10216738758E+03  0.11985369769E+03  0.47000000000E+01 0.  1.
          5    1    3    3  503    0 -0.48463315251E+02 -0.20070157241E+02 -0.21277073923E+02  0.56800598690E+02  0.47000000000E+01 0. -1.
         -5    1    4    4    0  502  0.38654674023E+02  0.86075843942E+01 -0.29757750212E+02  0.49758296098E+02  0.47000000000E+01 0.  1.
<mgrwt>
<rscale>  0 0.12620146E+03</rscale>
<asrwt>0</asrwt>
<pdfrwt beam="1">  1        3 0.67968448E-01 0.12636536E+03</pdfrwt>
<pdfrwt beam="2">  1       -3 0.61764474E-02 0.12636536E+03</pdfrwt>
<totfact> 0.78735289E+02</totfact>
</mgrwt>
</event>
<event>
 8    1  0.2964543E-004  0.1189401E+03  0.7546771E-02  0.1245157E+00
         -2   -1    0    0    0  501 -0.00000000000E+00  0.00000000000E+00  0.38462130944E+02  0.38462130944E+02  0.00000000000E+00 0.  1.
          2   -1    0    0  501    0  0.00000000000E+00 -0.00000000000E+00 -0.36720444242E+03  0.36720444242E+03  0.00000000000E+00 0. -1.
         23    2    1    2    0    0 -0.52374595740E+01 -0.75483483340E+02 -0.15043264925E+03  0.19132786845E+03  0.90836028341E+02 0.  0.
         23    2    1    2    0    0  0.52374595740E+01  0.75483483340E+02 -0.17830966222E+03  0.21433870491E+03  0.91769044572E+02 0.  0.
          5    1    4    4  502    0  0.20165065167E+02  0.61215741379E+02 -0.18173795378E+03  0.19288538226E+03  0.47000000000E+01 0. -1.
         -5    1    4    4    0  502 -0.14927605593E+02  0.14267741961E+02  0.34282915661E+01  0.21453322644E+02  0.47000000000E+01 0.  1.
          5    1    3    3  503    0 -0.37061611808E+02 -0.18311663366E+02 -0.21887306909E+02  0.47010895426E+02  0.47000000000E+01 0. -1.
         -5    1    3    3    0  503  0.31824152234E+02 -0.57171819975E+02 -0.12854534235E+03  0.14431697303E+03  0.47000000000E+01 0.  1.
<mgrwt>
<rscale>  0 0.11876008E+03</rscale>
<asrwt>0</asrwt>
<pdfrwt beam="1">  1        2 0.56492992E-01 0.11894009E+03</pdfrwt>
<pdfrwt beam="2">  1       -2 0.59172509E-02 0.11894009E+03</pdfrwt>
<totfact> 0.12391198E+04</totfact>
</mgrwt>
</event>
<event>
 8    1  0.2964543E-004  0.1002587E+03  0.7546771E-02  0.1280783E+00
          2   -1    0    0  501    0  0.00000000000E+00  0.00000000000E+00  0.77887028684E+03  0.77887028684E+03  0.00000000000E+00 0.  1.
         -2   -1    0    0    0  501 -0.00000000000E+00 -0.00000000000E+00 -0.13089175247E+02  0.13089175247E+02  0.00000000000E+00 0. -1.
         23    2    1    2    0    0  0.39584755951E+02  0.51148794403E+01  0.45852687726E+03  0.46935989125E+03  0.91971166433E+02 0.  0.
         23    2    1    2    0    0 -0.39584755951E+02 -0.51148794403E+01  0.30725423433E+03  0.32259957083E+03  0.89845443337E+02 0.  0.
          5    1    4    4  502    0 -0.91158196901E+01 -0.26372561371E+02  0.24657731930E+02  0.37532704483E+02  0.47000000000E+01 0. -1.
         -5    1    4    4    0  502 -0.30468936261E+02  0.21257681931E+02  0.28259650240E+03  0.28506686635E+03  0.47000000000E+01 0.  1.
          5    1    3    3  503    0 -0.93636775186E+01 -0.31509794774E+02  0.93546922540E+02  0.99265615095E+02  0.47000000000E+01 0. -1.
         -5    1    3    3    0  503  0.48948433470E+02  0.36624674215E+02  0.36497995472E+03  0.37009427616E+03  0.47000000000E+01 0.  1.
<mgrwt>
<rscale>  0 0.99768543E+02</rscale>
<asrwt>0</asrwt>
<pdfrwt beam="1">  1        2 0.11982616E+00 0.10025872E+03</pdfrwt>
<pdfrwt beam="2">  1       -2 0.20137199E-02 0.10025872E+03</pdfrwt>
<totfact> 0.25805650E+04</totfact>
</mgrwt>
</event>
<event>
 8    1  0.2964543E-004  0.9893013E+02  0.7546771E-02  0.1284130E+00
          1   -1    0    0  501    0  0.00000000000E+00  0.00000000000E+00  0.24807766219E+02  0.24807766219E+02  0.00000000000E+00 0. -1.
         -1   -1    0    0    0  501 -0.00000000000E+00 -0.00000000000E+00 -0.55015937198E+03  0.55015937198E+03  0.00000000000E+00 0.  1.
         23    2    1    2    0    0  0.22452963835E+02  0.12438322809E+02 -0.41838268124E+03  0.42926359712E+03  0.92543613488E+02 0.  0.
         23    2    1    2    0    0 -0.22452963835E+02 -0.12438322809E+02 -0.10696892452E+03  0.14570354107E+03  0.95542260850E+02 0.  0.
          5    1    3    3  502    0  0.24319446252E+02 -0.25595908878E+02 -0.34135968615E+03  0.34321292421E+03  0.47000000000E+01 0. -1.
         -5    1    4    4    0  503  0.36701417638E+02 -0.10558636026E+02 -0.31812925632E+02  0.49926256505E+02  0.47000000000E+01 0.  1.
          5    1    4    4  503    0 -0.59154381473E+02 -0.18796867828E+01 -0.75155998889E+02  0.95777284566E+02  0.47000000000E+01 0. -1.
         -5    1    3    3    0  502 -0.18664824165E+01  0.38034231687E+02 -0.77022995090E+02  0.86050672916E+02  0.47000000000E+01 0.  1.
<mgrwt>
<rscale>  0 0.98198862E+02</rscale>
<asrwt>0</asrwt>
<pdfrwt beam="1">  1        1 0.38165796E-02 0.98930132E+02</pdfrwt>
<pdfrwt beam="2">  1       -1 0.84639900E-01 0.98930132E+02</pdfrwt>
<totfact> 0.33148385E+03</totfact>
</mgrwt>
</event>
<event>
 8    1  0.2964543E-004  0.1375821E+03  0.7546771E-02  0.1228177E+00
          1   -1    0    0  501    0  0.00000000000E+00  0.00000000000E+00  0.48072593685E+03  0.48072593685E+03  0.00000000000E+00 0. -1.
         -1   -1    0    0    0  501 -0.00000000000E+00 -0.00000000000E+00 -0.37495869606E+02  0.37495869606E+02  0.00000000000E+00 0.  1.
         23    2    1    2    0    0  0.43592416806E+02 -0.58337758057E+02  0.30336421653E+03  0.32202983710E+03  0.79810871991E+02 0.  0.
         23    2    1    2    0    0 -0.43592416806E+02  0.58337758057E+02  0.13986585071E+03  0.19619196936E+03  0.11672720261E+03 0.  0.
          5    1    3    3  502    0  0.99650809510E+01 -0.40479934715E+02  0.26306714226E+03  0.26639132735E+03  0.47000000000E+01 0. -1.
         -5    1    4    4    0  503  0.23712310978E+02  0.45110516580E+02  0.10982080717E+03  0.12116076958E+03  0.47000000000E+01 0.  1.
          5    1    4    4  503    0 -0.67304727784E+02  0.13227241477E+02  0.30045043542E+02  0.75031199781E+02  0.47000000000E+01 0. -1.
         -5    1    3    3    0  502  0.33627335855E+02 -0.17857823342E+02  0.40297074279E+02  0.55638509745E+02  0.47000000000E+01 0.  1.
<mgrwt>
<rscale>  0 0.12951527E+03</rscale>
<asrwt>0</asrwt>
<pdfrwt beam="1">  1        1 0.73957832E-01 0.13758209E+03</pdfrwt>
<pdfrwt beam="2">  1       -1 0.57685957E-02 0.13758209E+03</pdfrwt>
<totfact> 0.64789160E+03</totfact>
</mgrwt>
</event>
<event>
 8    1  0.2964543E-004  0.1311318E+03  0.7546771E-02  0.1225839E+00
         -2   -1    0    0    0  501 -0.00000000000E+00  0.00000000000E+00  0.93372787301E+02  0.93372787301E+02  0.00000000000E+00 0.  1.
          2   -1    0    0  501    0  0.00000000000E+00 -0.00000000000E+00 -0.18445367286E+03  0.18445367286E+03  0.00000000000E+00 0. -1.
         23    2    1    2    0    0 -0.89653155853E+01 -0.93962581244E+02 -0.38358296750E+02  0.13662692882E+03  0.91028650385E+02 0.  0.
         23    2    1    2    0    0  0.89653155853E+01  0.93962581244E+02 -0.52722588811E+02  0.14119953134E+03  0.90820111888E+02 0.  0.
          5    1    3    3  502    0  0.10135874670E+02 -0.10685959449E+03 -0.28782053901E+02  0.11123041632E+03  0.47000000000E+01 0. -1.
         -5    1    3    3    0  502 -0.19101190255E+02  0.12897013242E+02 -0.95762428491E+01  0.25396512493E+02  0.47000000000E+01 0.  1.
          5    1    4    4  503    0 -0.15725874441E+02 -0.13039989079E+02 -0.63556974287E+01  0.21905007006E+02  0.47000000000E+01 0. -1.
         -5    1    4    4    0  503  0.24691190027E+02  0.10700257032E+03 -0.46366891383E+02  0.11929452434E+03  0.47000000000E+01 0.  1.
<mgrwt>
<rscale>  0 0.13109565E+03</rscale>
<asrwt>0</asrwt>
<pdfrwt beam="1">  1        2 0.28377488E-01 0.13113184E+03</pdfrwt>
<pdfrwt beam="2">  1       -2 0.14365044E-01 0.13113184E+03</pdfrwt>
<totfact> 0.65084665E+03</totfact>
</mgrwt>
</event>
<event>
 8    1  0.2964543E-004  0.1019710E+03  0.7546771E-02  0.1276435E+00
          3   -1    0    0  501    0  0.00000000000E+00  0.00000000000E+00  0.29532887007E+03  0.29532887007E+03  0.00000000000E+00 0. -1.
         -3   -1    0    0    0  501 -0.00000000000E+00 -0.00000000000E+00 -0.85610604491E+02  0.85610604491E+02  0.00000000000E+00 0.  1.
         23    2    1    2    0    0 -0.17146040139E+02  0.41283551156E+02 -0.41415957460E+02  0.11006072472E+03  0.91650222612E+02 0.  0.
         23    2    1    2    0    0  0.17146040139E+02 -0.41283551156E+02  0.25113422304E+03  0.27087874985E+03  0.91151417136E+02 0.  0.
          5    1    4    4  502    0  0.43098362867E+02  0.93378749763E+01  0.10403332760E+03  0.11309150297E+03  0.47000000000E+01 0. -1.
         -5    1    3    3    0  503 -0.54419841915E+01  0.63459665648E+02 -0.52081222246E+02  0.82409271728E+02  0.47000000000E+01 0.  1.
          5    1    3    3  503    0 -0.11704055948E+02 -0.22176114492E+02  0.10665264786E+02  0.27651452991E+02  0.47000000000E+01 0. -1.
         -5    1    4    4    0  502 -0.25952322728E+02 -0.50621426132E+02  0.14710089544E+03  0.15778724688E+03  0.47000000000E+01 0.  1.
<mgrwt>
<rscale>  0 0.10185878E+03</rscale>
<asrwt>0</asrwt>
<pdfrwt beam="1">  1        3 0.45435210E-01 0.10197098E+03</pdfrwt>
<pdfrwt beam="2">  1       -3 0.13170862E-01 0.10197098E+03</pdfrwt>
<totfact> 0.49833230E+02</totfact>
</mgrwt>
</event>
<event>
 8    1  0.2964543E-004  0.9887980E+02  0.7546771E-02  0.1284783E+00
         -1   -1    0    0    0  501 -0.00000000000E+00  0.00000000000E+00  0.51779283578E+02  0.51779283578E+02  0.00000000000E+00 0.  1.
          1   -1    0    0  501    0  0.00000000000E+00 -0.00000000000E+00 -0.18186904824E+03  0.18186904824E+03  0.00000000000E+00 0. -1.
         23    2    1    2    0    0  0.14091056664E+02 -0.28156368670E+02 -0.58455657816E+02  0.11154730644E+03  0.89634807242E+02 0.  0.
         23    2    1    2    0    0 -0.14091056664E+02  0.28156368670E+02 -0.71634106847E+02  0.12210102538E+03  0.93733004643E+02 0.  0.
          5    1    3    3  502    0 -0.59330595726E+00  0.31724944682E+02 -0.28188857953E+02  0.42702761500E+02  0.47000000000E+01 0. -1.
         -5    1    3    3    0  502  0.14684362621E+02 -0.59881313352E+02 -0.30266799863E+02  0.68844544942E+02  0.47000000000E+01 0.  1.
          5    1    4    4  503    0 -0.22678000379E+02  0.47639282680E+02 -0.82264783499E+02  0.97843638320E+02  0.47000000000E+01 0. -1.
         -5    1    4    4    0  503  0.85869437148E+01 -0.19482914011E+02  0.10630676652E+02  0.24257387056E+02  0.47000000000E+01 0.  1.
<mgrwt>
<rscale>  0 0.97896244E+02</rscale>
<asrwt>0</asrwt>
<pdfrwt beam="1">  1        1 0.27979853E-01 0.98879801E+02</pdfrwt>
<pdfrwt beam="2">  1       -1 0.79660437E-02 0.98879801E+02</pdfrwt>
<totfact> 0.13056461E+04</totfact>
</mgrwt>
</event>
<event>
 8    1  0.2964543E-004  0.9500795E+02  0.7546771E-02  0.1291754E+00
         -4   -1    0    0    0  501 -0.00000000000E+00  0.00000000000E+00  0.38059222727E+03  0.38059222727E+03  0.00000000000E+00 0.  1.
          4   -1    0    0  501    0  0.00000000000E+00 -0.00000000000E+00 -0.28755029314E+02  0.28755029314E+02  0.00000000000E+00 0. -1.
         23    2    1    2    0    0 -0.24296553657E+02  0.53498572952E+01  0.88849508319E+02  0.13007976683E+03  0.91692786621E+02 0.  0.
         23    2    1    2    0    0  0.24296553657E+02 -0.53498572952E+01  0.26298768964E+03  0.27926748975E+03  0.90602772795E+02 0.  0.
          5    1    4    4  502    0  0.43004448801E+02 -0.31898823569E+02  0.10556698069E+03  0.11846263113E+03  0.47000000000E+01 0. -1.
         -5    1    3    3    0  503 -0.52497967757E+02 -0.10919730733E+02  0.79269694446E+02  0.95817804168E+02  0.47000000000E+01 0.  1.
          5    1    3    3  503    0  0.28201414101E+02  0.16269588028E+02  0.95798138731E+01  0.34261962666E+02  0.47000000000E+01 0. -1.
         -5    1    4    4    0  502 -0.18707895145E+02  0.26548966274E+02  0.15742070895E+03  0.16080485863E+03  0.47000000000E+01 0.  1.
<mgrwt>
<rscale>  0 0.94743966E+02</rscale>
<asrwt>0</asrwt>
<pdfrwt beam="1">  1        4 0.44238509E-02 0.95007950E+02</pdfrwt>
<pdfrwt beam="2">  1       -4 0.58552647E-01 0.95007950E+02</pdfrwt>
<totfact> 0.12347912E+03</totfact>
</mgrwt>
</event>
<event>
 8    1  0.5521588E-004  0.1470460E+03  0.7546771E-02  0.1204265E+00
          2   -1    0    0  501    0  0.00000000000E+00  0.00000000000E+00  0.67999956494E+03  0.67999956494E+03  0.00000000000E+00 0. -1.
         -2   -1    0    0    0  501 -0.00000000000E+00 -0.00000000000E+00 -0.11096943216E+03  0.11096943216E+03  0.00000000000E+00 0.  1.
         23    2    1    2    0    0 -0.42830541738E+02 -0.10342481141E+03  0.61863067384E+03  0.63578286703E+03  0.94788166312E+02 0.  0.
         23    2    1    2    0    0  0.42830541738E+02  0.10342481141E+03 -0.49600541054E+02  0.15518613007E+03  0.95348698850E+02 0.  0.
          5    1    3    3  502    0 -0.62188853241E+02 -0.63874527391E+02  0.52080491241E+03  0.52840065812E+03  0.47000000000E+01 0. -1.
         -5    1    3    3    0  502  0.19358311503E+02 -0.39550284015E+02  0.97825761438E+02  0.10738220891E+03  0.47000000000E+01 0.  1.
          5    1    4    4  503    0 -0.29574928638E+02  0.18613176937E+02 -0.87234962569E+01  0.36322391807E+02  0.47000000000E+01 0. -1.
         -5    1    4    4    0  503  0.72405470377E+02  0.84811634470E+02 -0.40877044797E+02  0.11886373826E+03  0.47000000000E+01 0.  1.
<mgrwt>
<rscale>  0 0.14695519E+03</rscale>
<asrwt>0</asrwt>
<pdfrwt beam="1">  1        2 0.10461532E+00 0.14704598E+03</pdfrwt>
<pdfrwt beam="2">  1       -2 0.17072221E-01 0.14704598E+03</pdfrwt>
<totfact> 0.11934769E+03</totfact>
</mgrwt>
</event>
<event>
 8    1  0.2964543E-004  0.9490691E+02  0.7546771E-02  0.1291945E+00
          3   -1    0    0  501    0  0.00000000000E+00  0.00000000000E+00  0.54461837024E+03  0.54461837024E+03  0.00000000000E+00 0. -1.
         -3   -1    0    0    0  501 -0.00000000000E+00 -0.00000000000E+00 -0.23913471912E+02  0.23913471912E+02  0.00000000000E+00 0.  1.
         23    2    1    2    0    0  0.17346748200E+02  0.60630152681E+01  0.42096499276E+03  0.43153081877E+03  0.93110969230E+02 0.  0.
         23    2    1    2    0    0 -0.17346748200E+02 -0.60630152681E+01  0.99739905569E+02  0.13700102338E+03  0.92106252871E+02 0.  0.
          5    1    3    3  502    0  0.21520949245E+02  0.47805685445E+02  0.24100851544E+03  0.24668954038E+03  0.47000000000E+01 0. -1.
         -5    1    3    3    0  502 -0.41742010450E+01 -0.41742670177E+02  0.17995647733E+03  0.18484127840E+03  0.47000000000E+01 0.  1.
          5    1    4    4  503    0 -0.71636914096E+01  0.30822936328E+02  0.92365319203E+02  0.97748729249E+02  0.47000000000E+01 0. -1.
         -5    1    4    4    0  503 -0.10183056790E+02 -0.36885951596E+02  0.73745863661E+01  0.39252294134E+02  0.47000000000E+01 0.  1.
<mgrwt>
<rscale>  0 0.94659574E+02</rscale>
<asrwt>0</asrwt>
<pdfrwt beam="1">  1        3 0.83787432E-01 0.94906914E+02</pdfrwt>
<pdfrwt beam="2">  1       -3 0.36789961E-02 0.94906914E+02</pdfrwt>
<totfact> 0.10823300E+03</totfact>
</mgrwt>
</event>
<event>
 8    1  0.2964543E-004  0.1043184E+03  0.7546771E-02  0.1271575E+00
         -4   -1    0    0    0  501 -0.00000000000E+00  0.00000000000E+00  0.74835167606E+02  0.74835167606E+02  0.00000000000E+00 0.  1.
          4   -1    0    0  501    0  0.00000000000E+00 -0.00000000000E+00 -0.15457595892E+03  0.15457595892E+03  0.00000000000E+00 0. -1.
         23    2    1    2    0    0  0.36945763488E+02 -0.32754206628E+02 -0.68281455207E+02  0.12467836381E+03  0.91894013878E+02 0.  0.
         23    2    1    2    0    0 -0.36945763488E+02  0.32754206628E+02 -0.11459336104E+02  0.10473276271E+03  0.91650464860E+02 0.  0.
          5    1    3    3  502    0  0.63912680653E+01 -0.61403953230E+02 -0.36309349843E+02  0.71775710834E+02  0.47000000000E+01 0. -1.
         -5    1    4    4    0  503 -0.52603674536E+02  0.53490528885E+02 -0.18483798913E+02  0.77408811367E+02  0.47000000000E+01 0.  1.
          5    1    4    4  503    0  0.15657911048E+02 -0.20736322257E+02  0.70244628092E+01  0.27323951341E+02  0.47000000000E+01 0. -1.
         -5    1    3    3    0  502  0.30554495422E+02  0.28649746602E+02 -0.31972105363E+02  0.52902652979E+02  0.47000000000E+01 0.  1.
<mgrwt>
<rscale>  0 0.10426478E+03</rscale>
<asrwt>0</asrwt>
<pdfrwt beam="1">  1        4 0.23780916E-01 0.10431844E+03</pdfrwt>
<pdfrwt beam="2">  1       -4 0.11513103E-01 0.10431844E+03</pdfrwt>
<totfact> 0.15186410E+03</totfact>
</mgrwt>
</event>
<event>
 8    1  0.2964543E-004  0.1195914E+03  0.7546771E-02  0.1244095E+00
          1   -1    0    0  501    0  0.00000000000E+00  0.00000000000E+00  0.22614780947E+03  0.22614780947E+03  0.00000000000E+00 0. -1.
         -1   -1    0    0    0  501 -0.00000000000E+00 -0.00000000000E+00 -0.67599414501E+02  0.67599414501E+02  0.00000000000E+00 0.  1.
         23    2    1    2    0    0 -0.69613531125E+02  0.31817154291E+02  0.40514953534E+02  0.12626783391E+03  0.91889767648E+02 0.  0.
         23    2    1    2    0    0  0.69613531125E+02 -0.31817154291E+02  0.11803344144E+03  0.16747939006E+03  0.90879468388E+02 0.  0.
          5    1    4    4  502    0  0.58891667240E+02 -0.50999123990E+02  0.12183368623E+03  0.14468820345E+03  0.47000000000E+01 0. -1.
         -5    1    4    4    0  502  0.10721863885E+02  0.19181969699E+02 -0.38002447878E+01  0.22791186611E+02  0.47000000000E+01 0.  1.
          5    1    3    3  503    0 -0.87635465355E+00  0.23167311024E+02  0.50832330884E+02  0.56066997072E+02  0.47000000000E+01 0. -1.
         -5    1    3    3    0  503 -0.68737176471E+02  0.86498432677E+01 -0.10317377351E+02  0.70200836841E+02  0.47000000000E+01 0.  1.
<mgrwt>
<rscale>  0 0.11939730E+03</rscale>
<asrwt>0</asrwt>
<pdfrwt beam="1">  1        1 0.34791970E-01 0.11959141E+03</pdfrwt>
<pdfrwt beam="2">  1       -1 0.10399910E-01 0.11959141E+03</pdfrwt>
<totfact> 0.67781461E+03</totfact>
</mgrwt>
</event>
<event>
 8    1  0.2964543E-004  0.9913950E+02  0.7546771E-02  0.1283416E+00
         -1   -1    0    0    0  501 -0.00000000000E+00  0.00000000000E+00  0.46672158085E+02  0.46672158085E+02  0.00000000000E+00 0.  1.
          1   -1    0    0  501    0  0.00000000000E+00 -0.00000000000E+00 -0.28862029996E+03  0.28862029996E+03  0.00000000000E+00 0. -1.
         23    2    1    2    0    0  0.20560948096E+02 -0.28449685104E+02 -0.20987791647E+03  0.23109485394E+03  0.90132982453E+02 0.  0.
         23    2    1    2    0    0 -0.20560948096E+02  0.28449685104E+02 -0.32070225404E+02  0.10419760410E+03  0.92717334812E+02 0.  0.
          5    1    3    3  502    0  0.45557244313E+02 -0.69312924390E+01 -0.18154289580E+03  0.18735906260E+03  0.47000000000E+01 0. -1.
         -5    1    3    3    0  502 -0.24996296217E+02 -0.21518392665E+02 -0.28335020674E+02  0.43735791339E+02  0.47000000000E+01 0.  1.
          5    1    4    4  503    0  0.32129348184E+02  0.32532811941E+02 -0.12357011565E+02  0.47596896983E+02  0.47000000000E+01 0. -1.
         -5    1    4    4    0  503 -0.52690296280E+02 -0.40831268376E+01 -0.19713213839E+02  0.56600707122E+02  0.47000000000E+01 0.  1.
<mgrwt>
<rscale>  0 0.98530768E+02</rscale>
<asrwt>0</asrwt>
<pdfrwt beam="1">  1        1 0.44403123E-01 0.99139504E+02</pdfrwt>
<pdfrwt beam="2">  1       -1 0.71803321E-02 0.99139504E+02</pdfrwt>
<totfact> 0.86529479E+03</totfact>
</mgrwt>
</event>
<event>
 8    1  0.2964543E-004  0.1581309E+03  0.7546771E-02  0.1191277E+00
         -2   -1    0    0    0  501 -0.00000000000E+00  0.00000000000E+00  0.54386076790E+03  0.54386076790E+03  0.00000000000E+00 0.  1.
          2   -1    0    0  501    0  0.00000000000E+00 -0.00000000000E+00 -0.69838062077E+02  0.69838062077E+02  0.00000000000E+00 0. -1.
         23    2    1    2    0    0  0.20067863711E+02  0.12602357531E+03  0.41730243043E+03  0.44570312304E+03  0.90693410793E+02 0.  0.
         23    2    1    2    0    0 -0.20067863711E+02 -0.12602357531E+03  0.56720275397E+02  0.16799570694E+03  0.93384726916E+02 0.  0.
          5    1    4    4  502    0 -0.47587878545E+02 -0.10305848795E+03  0.18010842032E+02  0.11503103300E+03  0.47000000000E+01 0. -1.
         -5    1    4    4    0  502  0.27520014834E+02 -0.22965087362E+02  0.38709433365E+02  0.52964673939E+02  0.47000000000E+01 0.  1.
          5    1    3    3  503    0  0.22774757548E+02  0.40284077292E+01  0.23119668601E+02  0.33038261553E+02  0.47000000000E+01 0. -1.
         -5    1    3    3    0  503 -0.27068938372E+01  0.12199516758E+03  0.39418276183E+03  0.41266486149E+03  0.47000000000E+01 0.  1.
<mgrwt>
<rscale>  0 0.15773580E+03</rscale>
<asrwt>0</asrwt>
<pdfrwt beam="1">  1        2 0.10744318E-01 0.15813086E+03</pdfrwt>
<pdfrwt beam="2">  1       -2 0.83670884E-01 0.15813086E+03</pdfrwt>
<totfact> 0.74437822E+02</totfact>
</mgrwt>
</event>
<event>
 8    1  0.2964543E-004  0.9476930E+02  0.7546771E-02  0.1294412E+00
          1   -1    0    0  501    0  0.00000000000E+00  0.00000000000E+00  0.87311433647E+02  0.87311433647E+02  0.00000000000E+00 0. -1.
         -1   -1    0    0    0  501 -0.00000000000E+00 -0.00000000000E+00 -0.98927661089E+02  0.98927661089E+02  0.00000000000E+00 0.  1.
         23    2    1    2    0    0  0.27676494055E+00  0.22608120845E+01 -0.15381068460E+02  0.91395045398E+02  0.90062695863E+02 0.  0.
         23    2    1    2    0    0 -0.27676494055E+00 -0.22608120845E+01  0.37648410176E+01  0.94844049337E+02  0.94741922066E+02 0.  0.
          5    1    3    3  502    0 -0.25446713924E+02  0.34803980136E+02  0.71506470987E+01  0.43955364141E+02  0.47000000000E+01 0. -1.
         -5    1    3    3    0  502  0.25723478864E+02 -0.32543168052E+02 -0.22531715558E+02  0.47439681257E+02  0.47000000000E+01 0.  1.
          5    1    4    4  503    0  0.51908785280E+01  0.42163466487E+02  0.19750603347E+02  0.47083749412E+02  0.47000000000E+01 0. -1.
         -5    1    4    4    0  503 -0.54676434685E+01 -0.44424278572E+02 -0.15985762329E+02  0.47760299926E+02  0.47000000000E+01 0.  1.
<mgrwt>
<rscale>  0 0.93577554E+02</rscale>
<asrwt>0</asrwt>
<pdfrwt beam="1">  1        1 0.13432528E-01 0.94769297E+02</pdfrwt>
<pdfrwt beam="2">  1       -1 0.15219640E-01 0.94769297E+02</pdfrwt>
<totfact> 0.12246028E+04</totfact>
</mgrwt>
</event>
<event>
 8    1  0.2964543E-004  0.1032058E+03  0.7546771E-02  0.1274691E+00
          2   -1    0    0  501    0  0.00000000000E+00  0.00000000000E+00  0.69164824082E+03  0.69164824082E+03  0.00000000000E+00 0. -1.
         -2   -1    0    0    0  501 -0.00000000000E+00 -0.00000000000E+00 -0.15230653099E+02  0.15230653099E+02  0.00000000000E+00 0.  1.
         23    2    1    2    0    0 -0.30832595228E+02 -0.31364460079E+02  0.36647080870E+03  0.38020101814E+03  0.91200780067E+02 0.  0.
         23    2    1    2    0    0  0.30832595228E+02  0.31364460079E+02  0.30994677903E+03  0.32667787578E+03  0.93365145585E+02 0.  0.
          5    1    3    3  502    0  0.37441724594E-01  0.27308980481E+02  0.18250516968E+03  0.18459688182E+03  0.47000000000E+01 0. -1.
         -5    1    3    3    0  502 -0.30870036953E+02 -0.58673440559E+02  0.18396563902E+03  0.19560413633E+03  0.47000000000E+01 0.  1.
          5    1    4    4  503    0  0.40406255966E+02 -0.23078867377E+01  0.27121809344E+03  0.27426143745E+03  0.47000000000E+01 0. -1.
         -5    1    4    4    0  503 -0.95736607383E+01  0.33672346816E+02  0.38728685591E+02  0.52416438334E+02  0.47000000000E+01 0.  1.
<mgrwt>
<rscale>  0 0.10271380E+03</rscale>
<asrwt>0</asrwt>
<pdfrwt beam="1">  1        2 0.10640740E+00 0.10320576E+03</pdfrwt>
<pdfrwt beam="2">  1       -2 0.23431779E-02 0.10320576E+03</pdfrwt>
<totfact> 0.23950125E+04</totfact>
</mgrwt>
</event>
<event>
 8    1  0.2964543E-004  0.1055647E+03  0.7546771E-02  0.1269206E+00
          2   -1    0    0  501    0  0.00000000000E+00  0.00000000000E+00  0.11690795865E+03  0.11690795865E+03  0.00000000000E+00 0. -1.
         -2   -1    0    0    0  501 -0.00000000000E+00 -0.00000000000E+00 -0.94967151737E+02  0.94967151737E+02  0.00000000000E+00 0.  1.
         23    2    1    2    0    0  0.91914939909E+01 -0.52950908454E+02  0.11630243878E+02  0.10620346607E+03  0.90860504981E+02 0.  0.
         23    2    1    2    0    0 -0.91914939909E+01  0.52950908454E+02  0.10310563038E+02  0.10567164432E+03  0.90398597527E+02 0.  0.
          5    1    4    4  502    0 -0.24737101661E+02  0.69345488322E+02 -0.10596529958E+02  0.74532525762E+02  0.47000000000E+01 0.  1.
         -5    1    4    4    0  502  0.15545607670E+02 -0.16394579868E+02  0.20907092997E+02  0.31139118556E+02  0.47000000000E+01 0. -1.
          5    1    3    3  503    0 -0.24750174311E+02  0.14300118593E+02  0.10203553520E+02  0.30712652517E+02  0.47000000000E+01 0. -1.
         -5    1    3    3    0  503  0.33941668302E+02 -0.67251027047E+02  0.14266903575E+01  0.75490813556E+02  0.47000000000E+01 0.  1.
<mgrwt>
<rscale>  0 0.10546527E+03</rscale>
<asrwt>0</asrwt>
<pdfrwt beam="1">  1        2 0.17985840E-01 0.10556474E+03</pdfrwt>
<pdfrwt beam="2">  1       -2 0.14610331E-01 0.10556474E+03</pdfrwt>
<totfact> 0.10330155E+04</totfact>
</mgrwt>
</event>
<event>
 8    1  0.2964543E-004  0.9532826E+02  0.7546771E-02  0.1292452E+00
         -2   -1    0    0    0  501 -0.00000000000E+00  0.00000000000E+00  0.15847793809E+03  0.15847793809E+03  0.00000000000E+00 0.  1.
          2   -1    0    0  501    0  0.00000000000E+00 -0.00000000000E+00 -0.71318424678E+02  0.71318424678E+02  0.00000000000E+00 0. -1.
         23    2    1    2    0    0 -0.37301680564E+01  0.95195873182E+01 -0.11595614103E+02  0.92537292409E+02  0.91236810134E+02 0.  0.
         23    2    1    2    0    0  0.37301680564E+01 -0.95195873182E+01  0.98755127516E+02  0.13725907036E+03  0.94778375640E+02 0.  0.
          5    1    3    3  502    0  0.36580124814E+02 -0.15140745934E+02 -0.19523925179E+02  0.44391681352E+02  0.47000000000E+01 0. -1.
         -5    1    3    3    0  502 -0.40310292871E+02  0.24660333252E+02  0.79283110769E+01  0.48145611056E+02  0.47000000000E+01 0.  1.
          5    1    4    4  503    0 -0.38790981124E+01 -0.31928191216E+02 -0.30374144715E+01  0.32646174097E+02  0.47000000000E+01 0. -1.
         -5    1    4    4    0  503  0.76092661689E+01  0.22408603898E+02  0.10179254199E+03  0.10461289626E+03  0.47000000000E+01 0.  1.
<mgrwt>
<rscale>  0 0.94435715E+02</rscale>
<asrwt>0</asrwt>
<pdfrwt beam="1">  1        2 0.10972065E-01 0.95328260E+02</pdfrwt>
<pdfrwt beam="2">  1       -2 0.24381221E-01 0.95328260E+02</pdfrwt>
<totfact> 0.77614378E+03</totfact>
</mgrwt>
</event>
<event>
 8    1  0.2964543E-004  0.9381438E+02  0.7546771E-02  0.1293946E+00
         -1   -1    0    0    0  501 -0.00000000000E+00  0.00000000000E+00  0.24161567409E+02  0.24161567409E+02  0.00000000000E+00 0.  1.
          1   -1    0    0  501    0  0.00000000000E+00 -0.00000000000E+00 -0.41881398580E+03  0.41881398580E+03  0.00000000000E+00 0. -1.
         23    2    1    2    0    0 -0.56756856880E+01 -0.28274994910E+01 -0.27752043995E+03  0.29290544379E+03  0.93465481581E+02 0.  0.
         23    2    1    2    0    0  0.56756856880E+01  0.28274994910E+01 -0.11713197844E+03  0.15007010942E+03  0.93599835509E+02 0.  0.
          5    1    4    4  502    0 -0.29649007695E+02  0.31656599250E+02 -0.79828843680E+02  0.90972183752E+02  0.47000000000E+01 0. -1.
         -5    1    4    4    0  502  0.35324693383E+02 -0.28829099759E+02 -0.37303134757E+02  0.59097925667E+02  0.47000000000E+01 0.  1.
          5    1    3    3  503    0 -0.12944659144E+02  0.33300384185E+02 -0.22888559237E+03  0.23170495070E+03  0.47000000000E+01 0. -1.
         -5    1    3    3    0  503  0.72689734559E+01 -0.36127883676E+02 -0.48634847585E+02  0.61200493083E+02  0.47000000000E+01 0.  1.
<mgrwt>
<rscale>  0 0.93780848E+02</rscale>
<asrwt>0</asrwt>
<pdfrwt beam="1">  1        1 0.64432913E-01 0.93814377E+02</pdfrwt>
<pdfrwt beam="2">  1       -1 0.37171647E-02 0.93814377E+02</pdfrwt>
<totfact> 0.14302614E+04</totfact>
</mgrwt>
</event>
<event>
 8    1  0.2964543E-004  0.9391188E+02  0.7546771E-02  0.1293959E+00
          3   -1    0    0  501    0  0.00000000000E+00  0.00000000000E+00  0.27021819097E+02  0.27021819097E+02  0.00000000000E+00 0. -1.
         -3   -1    0    0    0  501 -0.00000000000E+00 -0.00000000000E+00 -0.76343209923E+03  0.76343209923E+03  0.00000000000E+00 0.  1.
         23    2    1    2    0    0  0.13837863214E+01 -0.16954085447E+02 -0.66743397010E+03  0.67393279416E+03  0.91803870949E+02 0.  0.
         23    2    1    2    0    0 -0.13837863214E+01  0.16954085447E+02 -0.68976310030E+02  0.11652112416E+03  0.92358460107E+02 0.  0.
          5    1    4    4  502    0  0.19960491307E+02  0.36856937917E+01  0.16957975994E+02  0.26863888433E+02  0.47000000000E+01 0. -1.
         -5    1    3    3    0  503 -0.44833578624E+01 -0.52926345071E+02 -0.30356387027E+03  0.30821163481E+03  0.47000000000E+01 0.  1.
          5    1    3    3  503    0  0.58671441839E+01  0.35972259625E+02 -0.36387009984E+03  0.36572115935E+03  0.47000000000E+01 0. -1.
         -5    1    4    4    0  502 -0.21344277628E+02  0.13268391655E+02 -0.85934286024E+02  0.89657235732E+02  0.47000000000E+01 0.  1.
<mgrwt>
<rscale>  0 0.93775241E+02</rscale>
<asrwt>0</asrwt>
<pdfrwt beam="1">  1        3 0.41572033E-02 0.93911879E+02</pdfrwt>
<pdfrwt beam="2">  1       -3 0.11745108E+00 0.93911879E+02</pdfrwt>
<totfact> 0.41799962E+02</totfact>
</mgrwt>
</event>
<event>
 8    1  0.2964543E-004  0.1014305E+03  0.7546771E-02  0.1277620E+00
          2   -1    0    0  501    0  0.00000000000E+00  0.00000000000E+00  0.11007597613E+03  0.11007597613E+03  0.00000000000E+00 0. -1.
         -2   -1    0    0    0  501 -0.00000000000E+00 -0.00000000000E+00 -0.93584918522E+02  0.93584918522E+02  0.00000000000E+00 0.  1.
         23    2    1    2    0    0 -0.27207959796E+02 -0.36320757493E+02  0.16826469666E+02  0.10281671201E+03  0.90712048181E+02 0.  0.
         23    2    1    2    0    0  0.27207959796E+02  0.36320757493E+02 -0.33541205227E+00  0.10084418265E+03  0.90055350602E+02 0.  0.
          5    1    4    4  502    0 -0.18225153135E+02  0.35197908668E+02 -0.26768700301E+02  0.48059362222E+02  0.47000000000E+01 0. -1.
         -5    1    3    3    0  503  0.27358091960E+02  0.91247831151E+01 -0.17243649141E+01  0.29270980458E+02  0.47000000000E+01 0.  1.
          5    1    3    3  503    0 -0.54566051756E+02 -0.45445540608E+02  0.18550834580E+02  0.73545731548E+02  0.47000000000E+01 0. -1.
         -5    1    4    4    0  502  0.45433112931E+02  0.11228488252E+01  0.26433288249E+02  0.52784820429E+02  0.47000000000E+01 0.  1.
<mgrwt>
<rscale>  0 0.10128346E+03</rscale>
<asrwt>0</asrwt>
<pdfrwt beam="1">  1        2 0.16934766E-01 0.10143050E+03</pdfrwt>
<pdfrwt beam="2">  1       -2 0.14397680E-01 0.10143050E+03</pdfrwt>
<totfact> 0.11288238E+04</totfact>
</mgrwt>
</event>
<event>
 8    1  0.2964543E-004  0.2322376E+03  0.7546771E-02  0.1125180E+00
         -1   -1    0    0    0  501 -0.00000000000E+00  0.00000000000E+00  0.20262962486E+03  0.20262962486E+03  0.00000000000E+00 0.  1.
          1   -1    0    0  501    0  0.00000000000E+00 -0.00000000000E+00 -0.39064723481E+03  0.39064723481E+03  0.00000000000E+00 0. -1.
         23    2    1    2    0    0  0.34911253245E+01 -0.21311111586E+03 -0.26183743277E+03  0.34958922487E+03  0.90693160091E+02 0.  0.
         23    2    1    2    0    0 -0.34911253245E+01  0.21311111586E+03  0.73819822819E+02  0.24368763480E+03  0.92226685150E+02 0.  0.
          5    1    3    3  502    0  0.16079007723E+02 -0.15967637537E+03 -0.12960265676E+03  0.20633472316E+03  0.47000000000E+01 0. -1.
         -5    1    3    3    0  502 -0.12587882399E+02 -0.53434740486E+02 -0.13223477601E+03  0.14325450171E+03  0.47000000000E+01 0.  1.
          5    1    4    4  503    0 -0.10302817849E+02  0.71919997795E+02 -0.18082448674E+02  0.75017991765E+02  0.47000000000E+01 0. -1.
         -5    1    4    4    0  503  0.68116925249E+01  0.14119111807E+03  0.91902271493E+02  0.16866964303E+03  0.47000000000E+01 0.  1.
<mgrwt>
<rscale>  0 0.23208626E+03</rscale>
<asrwt>0</asrwt>
<pdfrwt beam="1">  1        1 0.60099574E-01 0.23223759E+03</pdfrwt>
<pdfrwt beam="2">  1       -1 0.31173789E-01 0.23223759E+03</pdfrwt>
<totfact> 0.60067266E+02</totfact>
</mgrwt>
</event>
<event>
 8    1  0.2964543E-004  0.8897104E+02  0.7546771E-02  0.1306278E+00
         -4   -1    0    0    0  501 -0.00000000000E+00  0.00000000000E+00  0.26912261126E+02  0.26912261126E+02  0.00000000000E+00 0.  1.
          4   -1    0    0  501    0  0.00000000000E+00 -0.00000000000E+00 -0.30004002854E+03  0.30004002854E+03  0.00000000000E+00 0. -1.
         23    2    1    2    0    0 -0.73004508000E+01 -0.50885985595E+01 -0.10450362724E+03  0.13629567178E+03  0.87042010673E+02 0.  0.
         23    2    1    2    0    0  0.73004508000E+01  0.50885985595E+01 -0.16862414017E+03  0.19065661789E+03  0.88524882819E+02 0.  0.
          5    1    3    3  502    0 -0.75876600514E+01  0.34866187200E+02 -0.83468154037E+02  0.90896899471E+02  0.47000000000E+01 0. -1.
         -5    1    3    3    0  502  0.28720925145E+00 -0.39954785760E+02 -0.21035473205E+02  0.45398772310E+02  0.47000000000E+01 0.  1.
          5    1    4    4  503    0  0.44019396730E+02  0.14885599119E+02 -0.63885819417E+02  0.79137704491E+02  0.47000000000E+01 0. -1.
         -5    1    4    4    0  503 -0.36718945931E+02 -0.97970005590E+01 -0.10473832076E+03  0.11151891340E+03  0.47000000000E+01 0.  1.
<mgrwt>
<rscale>  0 0.88599893E+02</rscale>
<asrwt>0</asrwt>
<pdfrwt beam="1">  1        4 0.46160006E-01 0.88971036E+02</pdfrwt>
<pdfrwt beam="2">  1       -4 0.41403477E-02 0.88971036E+02</pdfrwt>
<totfact> 0.21862554E+03</totfact>
</mgrwt>
</event>
<event>
 8    1  0.2964543E-004  0.1030347E+03  0.7546771E-02  0.1275162E+00
          1   -1    0    0  501    0  0.00000000000E+00  0.00000000000E+00  0.32555476769E+03  0.32555476769E+03  0.00000000000E+00 0. -1.
         -1   -1    0    0    0  501 -0.00000000000E+00 -0.00000000000E+00 -0.48789108283E+02  0.48789108283E+02  0.00000000000E+00 0.  1.
         23    2    1    2    0    0  0.23061018332E+02  0.41897325052E+02  0.29298734177E+02  0.10711939605E+03  0.91263096447E+02 0.  0.
         23    2    1    2    0    0 -0.23061018332E+02 -0.41897325052E+02  0.24746692523E+03  0.26722447992E+03  0.88779767814E+02 0.  0.
          5    1    4    4  502    0 -0.55847672497E+02 -0.37113562470E+02  0.17210020348E+03  0.18476187129E+03  0.47000000000E+01 0. -1.
         -5    1    3    3    0  503  0.72624350626E+01  0.69610245387E+02  0.14441453076E+02  0.71616861093E+02  0.47000000000E+01 0.  1.
          5    1    3    3  503    0  0.15798583270E+02 -0.27712920334E+02  0.14857281101E+02  0.35502534959E+02  0.47000000000E+01 0. -1.
         -5    1    4    4    0  502  0.32786654165E+02 -0.47837625819E+01  0.75366721743E+02  0.82462608630E+02  0.47000000000E+01 0.  1.
<mgrwt>
<rscale>  0 0.10248201E+03</rscale>
<asrwt>0</asrwt>
<pdfrwt beam="1">  1        1 0.50085347E-01 0.10303470E+03</pdfrwt>
<pdfrwt beam="2">  1       -1 0.75060169E-02 0.10303470E+03</pdfrwt>
<totfact> 0.70077784E+03</totfact>
</mgrwt>
</event>
<event>
 8    1  0.2964543E-004  0.1059294E+03  0.7546771E-02  0.1270086E+00
          2   -1    0    0  501    0  0.00000000000E+00  0.00000000000E+00  0.69809339602E+02  0.69809339602E+02  0.00000000000E+00 0. -1.
         -2   -1    0    0    0  501 -0.00000000000E+00 -0.00000000000E+00 -0.16270298139E+03  0.16270298139E+03  0.00000000000E+00 0.  1.
         23    2    1    2    0    0 -0.52914240342E+01  0.43670479233E+02 -0.20913768107E+02  0.10444146098E+03  0.92387895045E+02 0.  0.
         23    2    1    2    0    0  0.52914240342E+01 -0.43670479233E+02 -0.71979873686E+02  0.12807086001E+03  0.96363546242E+02 0.  0.
          5    1    4    4  502    0  0.32041392390E+02 -0.42946775137E+01  0.91184247222E+01  0.33916526217E+02  0.47000000000E+01 0. -1.
         -5    1    4    4    0  502 -0.26749968356E+02 -0.39375801719E+02 -0.81098298409E+02  0.94154333797E+02  0.47000000000E+01 0.  1.
          5    1    3    3  503    0 -0.71874616908E+01  0.72400606064E+02 -0.18175614273E+02  0.75139538981E+02  0.47000000000E+01 0. -1.
         -5    1    3    3    0  503  0.18960376566E+01 -0.28730126832E+02 -0.27381538341E+01  0.29301922001E+02  0.47000000000E+01 0.  1.
<mgrwt>
<rscale>  0 0.10501687E+03</rscale>
<asrwt>0</asrwt>
<pdfrwt beam="1">  1        2 0.10739899E-01 0.10592942E+03</pdfrwt>
<pdfrwt beam="2">  1       -2 0.25031228E-01 0.10592942E+03</pdfrwt>
<totfact> 0.76802517E+03</totfact>
</mgrwt>
</event>
<event>
 8    1  0.2964543E-004  0.1282237E+03  0.7546771E-02  0.1230158E+00
          2   -1    0    0  501    0  0.00000000000E+00  0.00000000000E+00  0.37743807605E+03  0.37743807605E+03  0.00000000000E+00 0. -1.
         -2   -1    0    0    0  501 -0.00000000000E+00 -0.00000000000E+00 -0.45142787062E+02  0.45142787062E+02  0.00000000000E+00 0.  1.
         23    2    1    2    0    0 -0.36185207546E+02  0.82053018289E+02  0.20611461681E+03  0.24268399590E+03  0.91488903948E+02 0.  0.
         23    2    1    2    0    0  0.36185207546E+02 -0.82053018289E+02  0.12618067218E+03  0.17989686721E+03  0.91647442665E+02 0.  0.
          5    1    3    3  502    0 -0.94255231400E+01  0.68662686438E+02  0.20008402770E+03  0.21179970051E+03  0.47000000000E+01 0. -1.
         -5    1    4    4    0  503  0.40502703920E+01 -0.92575654867E+02  0.80284954670E+02  0.12269645680E+03  0.47000000000E+01 0. -1.
          5    1    4    4  503    0  0.32134937154E+02  0.10522636578E+02  0.45895717505E+02  0.57200410416E+02  0.47000000000E+01 0.  1.
         -5    1    3    3    0  502 -0.26759684406E+02  0.13390331851E+02  0.60305891131E+01  0.30884295388E+02  0.47000000000E+01 0.  1.
<mgrwt>
<rscale>  0 0.12819539E+03</rscale>
<asrwt>0</asrwt>
<pdfrwt beam="1">  1        2 0.58067394E-01 0.12822371E+03</pdfrwt>
<pdfrwt beam="2">  1       -2 0.69450444E-02 0.12822371E+03</pdfrwt>
<totfact> 0.94918214E+03</totfact>
</mgrwt>
</event>
<event>
 8    1  0.2964543E-004  0.9336962E+02  0.7546771E-02  0.1296360E+00
          3   -1    0    0  501    0  0.00000000000E+00  0.00000000000E+00  0.73802088925E+03  0.73802088925E+03  0.00000000000E+00 0. -1.
         -3   -1    0    0    0  501 -0.00000000000E+00 -0.00000000000E+00 -0.12666267020E+02  0.12666267020E+02  0.00000000000E+00 0.  1.
         23    2    1    2    0    0 -0.70329232414E+00 -0.17550403711E+02  0.48120498873E+03  0.49017968848E+03  0.91702641924E+02 0.  0.
         23    2    1    2    0    0  0.70329232414E+00  0.17550403711E+02  0.24414963350E+03  0.26050746778E+03  0.89143625360E+02 0.  0.
          5    1    4    4  502    0 -0.11579640903E+02 -0.23626674562E+02  0.18674388685E+03  0.18864696422E+03  0.47000000000E+01 0. -1.
         -5    1    4    4    0  502  0.12282933227E+02  0.41177078273E+02  0.57405746653E+02  0.71860503564E+02  0.47000000000E+01 0.  1.
          5    1    3    3  503    0  0.43374088131E+02  0.44932853399E+01  0.22351944273E+03  0.22778176488E+03  0.47000000000E+01 0. -1.
         -5    1    3    3    0  503 -0.44077380456E+02 -0.22043689051E+02  0.25768554600E+03  0.26239792360E+03  0.47000000000E+01 0.  1.
<mgrwt>
<rscale>  0 0.92735169E+02</rscale>
<asrwt>0</asrwt>
<pdfrwt beam="1">  1        3 0.11354164E+00 0.93369619E+02</pdfrwt>
<pdfrwt beam="2">  1       -3 0.19486570E-02 0.93369619E+02</pdfrwt>
<totfact> 0.14431978E+03</totfact>
</mgrwt>
</event>
<event>
 8    1  0.2964543E-004  0.1228777E+03  0.7546771E-02  0.1238656E+00
          1   -1    0    0  501    0  0.00000000000E+00  0.00000000000E+00  0.34513922617E+02  0.34513922617E+02  0.00000000000E+00 0. -1.
         -1   -1    0    0    0  501 -0.00000000000E+00 -0.00000000000E+00 -0.47734142384E+03  0.47734142384E+03  0.00000000000E+00 0.  1.
         23    2    1    2    0    0  0.19003083552E+01  0.80791786418E+02 -0.14509048726E+03  0.18975870207E+03  0.91794289538E+02 0.  0.
         23    2    1    2    0    0 -0.19003083552E+01 -0.80791786418E+02 -0.29773701396E+03  0.32209664439E+03  0.92563464281E+02 0.  0.
          5    1    3    3  502    0 -0.34285903159E+02  0.18472357717E+02 -0.92342766599E+02  0.10032959533E+03  0.47000000000E+01 0. -1.
         -5    1    3    3    0  502  0.36186211514E+02  0.62319428701E+02 -0.52747720660E+02  0.89429106739E+02  0.47000000000E+01 0.  1.
          5    1    4    4  503    0 -0.23419892478E+02  0.64754677851E+01 -0.26241490258E+02  0.36071163797E+02  0.47000000000E+01 0. -1.
         -5    1    4    4    0  503  0.21519584123E+02 -0.87267254203E+02 -0.27149552371E+03  0.28602548059E+03  0.47000000000E+01 0.  1.
<mgrwt>
<rscale>  0 0.12273281E+03</rscale>
<asrwt>0</asrwt>
<pdfrwt beam="1">  1        1 0.53098342E-02 0.12287766E+03</pdfrwt>
<pdfrwt beam="2">  1       -1 0.73437143E-01 0.12287766E+03</pdfrwt>
<totfact> 0.28575266E+03</totfact>
</mgrwt>
</event>
<event>
 8    1  0.2964543E-004  0.9346775E+02  0.7546771E-02  0.1295652E+00
          1   -1    0    0  501    0  0.00000000000E+00  0.00000000000E+00  0.13458788215E+04  0.13458788215E+04  0.00000000000E+00 0. -1.
         -1   -1    0    0    0  501 -0.00000000000E+00 -0.00000000000E+00 -0.63751925334E+01  0.63751925334E+01  0.00000000000E+00 0.  1.
         23    2    1    2    0    0 -0.76583542796E+01 -0.14813003295E+02  0.66541154879E+03  0.67194400835E+03  0.91968177310E+02 0.  0.
         23    2    1    2    0    0  0.76583542796E+01  0.14813003295E+02  0.67409208021E+03  0.68031000572E+03  0.90241319913E+02 0.  0.
          5    1    3    3  502    0 -0.33636263401E+02 -0.42521140639E+02  0.43228061181E+03  0.43569262441E+03  0.47000000000E+01 0. -1.
         -5    1    4    4    0  503  0.10850318895E+02 -0.35925499891E+02  0.20613477811E+03  0.20957578035E+03  0.47000000000E+01 0.  1.
          5    1    4    4  503    0 -0.31919646156E+01  0.50738503186E+02  0.46795730210E+03  0.47073422537E+03  0.47000000000E+01 0. -1.
         -5    1    3    3    0  502  0.25977909121E+02  0.27708137344E+02  0.23313093698E+03  0.23625138395E+03  0.47000000000E+01 0.  1.
<mgrwt>
<rscale>  0 0.93040170E+02</rscale>
<asrwt>0</asrwt>
<pdfrwt beam="1">  1        1 0.20705805E+00 0.93467754E+02</pdfrwt>
<pdfrwt beam="2">  1       -1 0.98079992E-03 0.93467754E+02</pdfrwt>
<totfact> 0.16482614E+04</totfact>
</mgrwt>
</event>
<event>
 8    1  0.2964543E-004  0.1023113E+03  0.7546771E-02  0.1282631E+00
          2   -1    0    0  501    0  0.00000000000E+00  0.00000000000E+00  0.25316746069E+03  0.25316746069E+03  0.00000000000E+00 0. -1.
         -2   -1    0    0    0  501 -0.00000000000E+00 -0.00000000000E+00 -0.57294101981E+02  0.57294101981E+02  0.00000000000E+00 0.  1.
         23    2    1    2    0    0  0.32497005609E+02  0.53379187265E+01  0.18764368264E+03  0.20781978789E+03  0.83032306096E+02 0.  0.
         23    2    1    2    0    0 -0.32497005609E+02 -0.53379187265E+01  0.82296760757E+01  0.10264177478E+03  0.96866184050E+02 0.  0.
          5    1    4    4  502    0 -0.17132072051E+01 -0.48528766841E+02  0.77196603940E+01  0.49392908870E+02  0.47000000000E+01 0. -1.
         -5    1    3    3    0  503 -0.25743539529E+02 -0.10360386434E+02  0.72000105694E+02  0.77305709068E+02  0.47000000000E+01 0.  1.
          5    1    3    3  503    0  0.58240545138E+02  0.15698305161E+02  0.11564357694E+03  0.13051407882E+03  0.47000000000E+01 0. -1.
         -5    1    4    4    0  502 -0.30783798404E+02  0.43190848115E+02  0.51001568171E+00  0.53248865913E+02  0.47000000000E+01 0.  1.
<mgrwt>
<rscale>  0 0.98897595E+02</rscale>
<asrwt>0</asrwt>
<pdfrwt beam="1">  1        2 0.38948839E-01 0.10231132E+03</pdfrwt>
<pdfrwt beam="2">  1       -2 0.88144774E-02 0.10231132E+03</pdfrwt>
<totfact> 0.98567093E+03</totfact>
</mgrwt>
</event>
<event>
 8    1  0.2964543E-004  0.1009897E+03  0.7546771E-02  0.1278639E+00
         -2   -1    0    0    0  501 -0.00000000000E+00  0.00000000000E+00  0.25861684946E+02  0.25861684946E+02  0.00000000000E+00 0.  1.
          2   -1    0    0  501    0  0.00000000000E+00 -0.00000000000E+00 -0.45174795585E+03  0.45174795585E+03  0.00000000000E+00 0. -1.
         23    2    1    2    0    0  0.11250522625E+02  0.38789468809E+02 -0.12486029474E+03  0.16009499740E+03  0.91701242300E+02 0.  0.
         23    2    1    2    0    0 -0.11250522625E+02 -0.38789468809E+02 -0.30102597616E+03  0.31751464339E+03  0.92561943031E+02 0.  0.
          5    1    4    4  502    0 -0.47697751422E+02 -0.69682990075E+01 -0.19419857583E+03  0.20014696984E+03  0.47000000000E+01 0. -1.
         -5    1    3    3    0  503  0.47311961668E+02  0.27045006580E+02 -0.42393410082E+02  0.69203651032E+02  0.47000000000E+01 0.  1.
          5    1    3    3  503    0 -0.36061439043E+02  0.11744462229E+02 -0.82466884661E+02  0.90891346368E+02  0.47000000000E+01 0. -1.
         -5    1    4    4    0  502  0.36447228797E+02 -0.31821169801E+02 -0.10682740033E+03  0.11736767355E+03  0.47000000000E+01 0.  1.
<mgrwt>
<rscale>  0 0.10079200E+03</rscale>
<asrwt>0</asrwt>
<pdfrwt beam="1">  1        2 0.69499674E-01 0.10098966E+03</pdfrwt>
<pdfrwt beam="2">  1       -2 0.39787214E-02 0.10098966E+03</pdfrwt>
<totfact> 0.17713689E+04</totfact>
</mgrwt>
</event>
<event>
 8    1  0.2964543E-004  0.1074075E+03  0.7546771E-02  0.1267034E+00
         -2   -1    0    0    0  501 -0.00000000000E+00  0.00000000000E+00  0.12171061079E+02  0.12171061079E+02  0.00000000000E+00 0.  1.
          2   -1    0    0  501    0  0.00000000000E+00 -0.00000000000E+00 -0.96743921276E+03  0.96743921276E+03  0.00000000000E+00 0. -1.
         23    2    1    2    0    0  0.19449642055E+02 -0.40652070451E+02 -0.59392923413E+03  0.60356300779E+03  0.97496101494E+02 0.  0.
         23    2    1    2    0    0 -0.19449642055E+02  0.40652070451E+02 -0.36133891755E+03  0.37604726605E+03  0.93887451559E+02 0.  0.
          5    1    3    3  502    0 -0.10200215498E+02  0.28012702969E+02 -0.11953701596E+03  0.12328805339E+03  0.47000000000E+01 0. -1.
         -5    1    3    3    0  502  0.29649857552E+02 -0.68664773420E+02 -0.47439221817E+03  0.48027495440E+03  0.47000000000E+01 0.  1.
          5    1    4    4  503    0 -0.50009592877E+02  0.21164868691E+02 -0.11802157751E+03  0.13000036078E+03  0.47000000000E+01 0. -1.
         -5    1    4    4    0  503  0.30559950822E+02  0.19487201761E+02 -0.24331734004E+03  0.24604690526E+03  0.47000000000E+01 0.  1.
<mgrwt>
<rscale>  0 0.10658186E+03</rscale>
<asrwt>0</asrwt>
<pdfrwt beam="1">  1        2 0.14883681E+00 0.10740749E+03</pdfrwt>
<pdfrwt beam="2">  1       -2 0.18724708E-02 0.10740749E+03</pdfrwt>
<totfact> 0.21881276E+04</totfact>
</mgrwt>
</event>
<event>
 8    1  0.2964543E-004  0.9752865E+02  0.7546771E-02  0.1285838E+00
         -4   -1    0    0    0  501 -0.00000000000E+00  0.00000000000E+00  0.65155214810E+02  0.65155214810E+02  0.00000000000E+00 0.  1.
          4   -1    0    0  501    0  0.00000000000E+00 -0.00000000000E+00 -0.24191046714E+03  0.24191046714E+03  0.00000000000E+00 0. -1.
         23    2    1    2    0    0  0.34123241388E+02  0.76130578474E+01  0.87865006335E+01  0.97452754235E+02  0.90539949536E+02 0.  0.
         23    2    1    2    0    0 -0.34123241388E+02 -0.76130578474E+01 -0.18554175296E+03  0.20961292772E+03  0.91046598619E+02 0.  0.
          5    1    3    3  502    0 -0.17947011283E+02 -0.27894120373E+02 -0.91692798288E+00  0.33512802364E+02  0.47000000000E+01 0. -1.
         -5    1    4    4    0  503  0.11988154228E+02  0.18984843881E+02 -0.81466517728E+01  0.24343337365E+02  0.47000000000E+01 0.  1.
          5    1    4    4  503    0 -0.46111395616E+02 -0.26597901728E+02 -0.17739510119E+03  0.18526959035E+03  0.47000000000E+01 0. -1.
         -5    1    3    3    0  502  0.52070252671E+02  0.35507178220E+02  0.97034286164E+01  0.63939951871E+02  0.47000000000E+01 0.  1.
<mgrwt>
<rscale>  0 0.97410232E+02</rscale>
<asrwt>0</asrwt>
<pdfrwt beam="1">  1        4 0.37216995E-01 0.97528649E+02</pdfrwt>
<pdfrwt beam="2">  1       -4 0.10023879E-01 0.97528649E+02</pdfrwt>
<totfact> 0.81417976E+02</totfact>
</mgrwt>
</event>
<event>
 8    1  0.2964543E-004  0.9955090E+02  0.7546771E-02  0.1282511E+00
          1   -1    0    0  501    0  0.00000000000E+00  0.00000000000E+00  0.53305598275E+03  0.53305598275E+03  0.00000000000E+00 0. -1.
         -1   -1    0    0    0  501 -0.00000000000E+00 -0.00000000000E+00 -0.18986821355E+02  0.18986821355E+02  0.00000000000E+00 0.  1.
         23    2    1    2    0    0  0.27070509483E+02 -0.30580527353E+02  0.31193632158E+03  0.32672510396E+03  0.88187548465E+02 0.  0.
         23    2    1    2    0    0 -0.27070509483E+02  0.30580527353E+02  0.20213283982E+03  0.22531770014E+03  0.90787663958E+02 0.  0.
          5    1    4    4  502    0 -0.43182479071E+02  0.51882358056E+02  0.17171474983E+03  0.18456584430E+03  0.47000000000E+01 0. -1.
         -5    1    4    4    0  502  0.16111969588E+02 -0.21301830703E+02  0.30418089992E+02  0.40751855836E+02  0.47000000000E+01 0.  1.
          5    1    3    3  503    0 -0.85925132368E+01  0.26639539877E+02  0.11740096281E+03  0.12078316289E+03  0.47000000000E+01 0. -1.
         -5    1    3    3    0  503  0.35663022719E+02 -0.57220067230E+02  0.19453535876E+03  0.20594194107E+03  0.47000000000E+01 0.  1.
<mgrwt>
<rscale>  0 0.98954209E+02</rscale>
<asrwt>0</asrwt>
<pdfrwt beam="1">  1        1 0.82008601E-01 0.99550897E+02</pdfrwt>
<pdfrwt beam="2">  1       -1 0.29210498E-02 0.99550897E+02</pdfrwt>
<totfact> 0.14980343E+04</totfact>
</mgrwt>
</event>
<event>
 8    1  0.2964543E-004  0.9656579E+02  0.7546771E-02  0.1289503E+00
         -1   -1    0    0    0  501 -0.00000000000E+00  0.00000000000E+00  0.24739965914E+02  0.24739965914E+02  0.00000000000E+00 0.  1.
          1   -1    0    0  501    0  0.00000000000E+00 -0.00000000000E+00 -0.42973471260E+03  0.42973471260E+03  0.00000000000E+00 0. -1.
         23    2    1    2    0    0 -0.21090290009E+02  0.12909445270E+02 -0.11098050708E+03  0.14500848392E+03  0.89996296293E+02 0.  0.
         23    2    1    2    0    0  0.21090290009E+02 -0.12909445270E+02 -0.29401423960E+03  0.30946619459E+03  0.93346121490E+02 0.  0.
          5    1    4    4  502    0  0.42456990578E+02 -0.25397230272E+02 -0.27043023239E+03  0.27495857132E+03  0.47000000000E+01 0. -1.
         -5    1    4    4    0  502 -0.21366700570E+02  0.12487785002E+02 -0.23584007215E+02  0.34507623271E+02  0.47000000000E+01 0.  1.
          5    1    3    3  503    0  0.79743010104E+01  0.44948239302E+02 -0.77650811856E+02  0.90197961589E+02  0.47000000000E+01 0. -1.
         -5    1    3    3    0  503 -0.29064591019E+02 -0.32038794032E+02 -0.33329695223E+02  0.54810522327E+02  0.47000000000E+01 0.  1.
<mgrwt>
<rscale>  0 0.95746887E+02</rscale>
<asrwt>0</asrwt>
<pdfrwt beam="1">  1        1 0.66113030E-01 0.96565794E+02</pdfrwt>
<pdfrwt beam="2">  1       -1 0.38061488E-02 0.96565794E+02</pdfrwt>
<totfact> 0.13416058E+04</totfact>
</mgrwt>
</event>
<event>
 8    1  0.2964543E-004  0.1454476E+03  0.7546771E-02  0.1206201E+00
          1   -1    0    0  501    0  0.00000000000E+00  0.00000000000E+00  0.17223339550E+04  0.17223339550E+04  0.00000000000E+00 0. -1.
         -1   -1    0    0    0  501 -0.00000000000E+00 -0.00000000000E+00 -0.12427725263E+02  0.12427725263E+02  0.00000000000E+00 0.  1.
         23    2    1    2    0    0 -0.25614690025E+02  0.10905438462E+03  0.75977092470E+03  0.77356761435E+03  0.92768662816E+02 0.  0.
         23    2    1    2    0    0  0.25614690025E+02 -0.10905438462E+03  0.95013530505E+03  0.96119406593E+03  0.92671264813E+02 0.  0.
          5    1    4    4  502    0  0.49740748439E+02 -0.10787772800E+03  0.72029689037E+03  0.73004208545E+03  0.47000000000E+01 0. -1.
         -5    1    3    3    0  503  0.31561908772E+02  0.67007466725E+02  0.37347020396E+03  0.38077321062E+03  0.47000000000E+01 0.  1.
          5    1    3    3  503    0 -0.57176598797E+02  0.42046917895E+02  0.38630072074E+03  0.39279440373E+03  0.47000000000E+01 0. -1.
         -5    1    4    4    0  502 -0.24126058414E+02 -0.11766566198E+01  0.22983841468E+03  0.23115198048E+03  0.47000000000E+01 0.  1.
<mgrwt>
<rscale>  0 0.14543204E+03</rscale>
<asrwt>0</asrwt>
<pdfrwt beam="1">  1        1 0.26497426E+00 0.14544757E+03</pdfrwt>
<pdfrwt beam="2">  1       -1 0.19119591E-02 0.14544757E+03</pdfrwt>
<totfact> 0.37130892E+03</totfact>
</mgrwt>
</event>
<event>
 8    1  0.2964543E-004  0.9758005E+02  0.7546771E-02  0.1286078E+00
          2   -1    0    0  501    0  0.00000000000E+00  0.00000000000E+00  0.30620935712E+03  0.30620935712E+03  0.00000000000E+00 0. -1.
         -2   -1    0    0    0  501 -0.00000000000E+00 -0.00000000000E+00 -0.35098644270E+02  0.35098644270E+02  0.00000000000E+00 0.  1.
         23    2    1    2    0    0  0.31935053096E+02  0.14854868153E+02  0.19499854902E+03  0.21755450304E+03  0.89805417133E+02 0.  0.
         23    2    1    2    0    0 -0.31935053096E+02 -0.14854868153E+02  0.76112163829E+02  0.12375349835E+03  0.91001934859E+02 0.  0.
          5    1    3    3  502    0  0.34000406988E+02 -0.19368562230E+02  0.17089667535E+03  0.17538224689E+03  0.47000000000E+01 0. -1.
         -5    1    3    3    0  502 -0.20653538923E+01  0.34223430383E+02  0.24101873667E+02  0.42172256142E+02  0.47000000000E+01 0.  1.
          5    1    4    4  503    0 -0.37999204632E+01 -0.46761448676E+02  0.15656326524E+02  0.49681817982E+02  0.47000000000E+01 0. -1.
         -5    1    4    4    0  503 -0.28135132633E+02  0.31906580523E+02  0.60455837305E+02  0.74071680372E+02  0.47000000000E+01 0.  1.
<mgrwt>
<rscale>  0 0.97300129E+02</rscale>
<asrwt>0</asrwt>
<pdfrwt beam="1">  1        2 0.47109130E-01 0.97580054E+02</pdfrwt>
<pdfrwt beam="2">  1       -2 0.53997916E-02 0.97580054E+02</pdfrwt>
<totfact> 0.16910394E+04</totfact>
</mgrwt>
</event>
<event>
 8    1  0.2964543E-004  0.1393079E+03  0.7546771E-02  0.1214828E+00
          2   -1    0    0  501    0  0.00000000000E+00  0.00000000000E+00  0.13653441162E+04  0.13653441162E+04  0.00000000000E+00 0. -1.
         -2   -1    0    0    0  501 -0.00000000000E+00 -0.00000000000E+00 -0.14150468515E+02  0.14150468515E+02  0.00000000000E+00 0.  1.
         23    2    1    2    0    0 -0.38899337846E+02 -0.96863084633E+02  0.73109232098E+03  0.74393786885E+03  0.89732687860E+02 0.  0.
         23    2    1    2    0    0  0.38899337846E+02  0.96863084633E+02  0.62010132668E+03  0.63555671583E+03  0.92255449934E+02 0.  0.
          5    1    3    3  502    0  0.99055105882E+01 -0.85597147345E+02  0.41622637828E+03  0.42507820310E+03  0.47000000000E+01 0. -1.
         -5    1    4    4    0  503  0.41623509638E+02  0.70723952857E+02  0.58838861334E+03  0.59410238543E+03  0.47000000000E+01 0.  1.
          5    1    4    4  503    0 -0.27241717919E+01  0.26139131777E+02  0.31712713332E+02  0.41454330399E+02  0.47000000000E+01 0. -1.
         -5    1    3    3    0  502 -0.48804848434E+02 -0.11265937289E+02  0.31486594269E+03  0.31885966575E+03  0.47000000000E+01 0.  1.
<mgrwt>
<rscale>  0 0.13889159E+03</rscale>
<asrwt>0</asrwt>
<pdfrwt beam="1">  1        2 0.21005284E+00 0.13930787E+03</pdfrwt>
<pdfrwt beam="2">  1       -2 0.21769962E-02 0.13930787E+03</pdfrwt>
<totfact> 0.10710585E+04</totfact>
</mgrwt>
</event>
<event>
 8    1  0.2964543E-004  0.9312877E+02  0.7546771E-02  0.1297064E+00
         -1   -1    0    0    0  501 -0.00000000000E+00  0.00000000000E+00  0.24191712381E+03  0.24191712381E+03  0.00000000000E+00 0.  1.
          1   -1    0    0  501    0  0.00000000000E+00 -0.00000000000E+00 -0.35370195486E+02  0.35370195486E+02  0.00000000000E+00 0. -1.
         23    2    1    2    0    0 -0.87216573847E+01  0.11151172253E+02  0.87191335903E+02  0.12757467447E+03  0.92046469564E+02 0.  0.
         23    2    1    2    0    0  0.87216573847E+01 -0.11151172253E+02  0.11935559242E+03  0.14971264483E+03  0.89261988710E+02 0.  0.
          5    1    4    4  502    0 -0.24280522703E+02  0.17892672485E+02  0.10599452068E+02  0.32312998863E+02  0.47000000000E+01 0. -1.
         -5    1    4    4    0  502  0.33002180088E+02 -0.29043844737E+02  0.10875614035E+03  0.11739964596E+03  0.47000000000E+01 0.  1.
          5    1    3    3  503    0 -0.43554084639E+02 -0.17611553191E+02  0.51015690066E+02  0.69511263313E+02  0.47000000000E+01 0. -1.
         -5    1    3    3    0  503  0.34832427254E+02  0.28762725443E+02  0.36175645837E+02  0.58063411156E+02  0.47000000000E+01 0.  1.
<mgrwt>
<rscale>  0 0.92433238E+02</rscale>
<asrwt>0</asrwt>
<pdfrwt beam="1">  1        1 0.54415687E-02 0.93128774E+02</pdfrwt>
<pdfrwt beam="2">  1       -1 0.37218018E-01 0.93128774E+02</pdfrwt>
<totfact> 0.94425099E+03</totfact>
</mgrwt>
</event>
<event>
 8    1  0.2964543E-004  0.1249980E+03  0.7546771E-02  0.1235279E+00
         -2   -1    0    0    0  501 -0.00000000000E+00  0.00000000000E+00  0.26445056944E+02  0.26445056944E+02  0.00000000000E+00 0.  1.
          2   -1    0    0  501    0  0.00000000000E+00 -0.00000000000E+00 -0.72709031056E+03  0.72709031056E+03  0.00000000000E+00 0. -1.
         23    2    1    2    0    0  0.85814667635E+01  0.89896156627E+02 -0.18513769239E+03  0.22308974759E+03  0.85662767811E+02 0.  0.
         23    2    1    2    0    0 -0.85814667635E+01 -0.89896156627E+02 -0.51550756123E+03  0.53044561992E+03  0.86426555265E+02 0.  0.
          5    1    3    3  502    0 -0.35721487179E+02  0.53293486386E+02 -0.11956380633E+03  0.13577118296E+03  0.47000000000E+01 0. -1.
         -5    1    4    4    0  503 -0.26127754415E+02  0.60887281070E+01 -0.10507355124E+03  0.10854618064E+03  0.47000000000E+01 0.  1.
          5    1    4    4  503    0  0.17546287651E+02 -0.95984884734E+02 -0.41043400999E+03  0.42189943928E+03  0.47000000000E+01 0. -1.
         -5    1    3    3    0  502  0.44302953943E+02  0.36602670241E+02 -0.65573886056E+02  0.87318564631E+02  0.47000000000E+01 0.  1.
<mgrwt>
<rscale>  0 0.12486611E+03</rscale>
<asrwt>0</asrwt>
<pdfrwt beam="1">  1        2 0.11186002E+00 0.12499804E+03</pdfrwt>
<pdfrwt beam="2">  1       -2 0.40684713E-02 0.12499804E+03</pdfrwt>
<totfact> 0.10215001E+04</totfact>
</mgrwt>
</event>
<event>
 8    1  0.2964543E-004  0.1429026E+03  0.7546771E-02  0.1210585E+00
         -1   -1    0    0    0  501 -0.00000000000E+00  0.00000000000E+00  0.14782177258E+03  0.14782177258E+03  0.00000000000E+00 0.  1.
          1   -1    0    0  501    0  0.00000000000E+00 -0.00000000000E+00 -0.14404285053E+03  0.14404285053E+03  0.00000000000E+00 0. -1.
         23    2    1    2    0    0  0.10981043953E+03  0.47820500918E+01  0.38608843695E+02  0.14802638246E+03  0.91323416829E+02 0.  0.
         23    2    1    2    0    0 -0.10981043953E+03 -0.47820500918E+01 -0.34829921643E+02  0.14383824064E+03  0.85994856808E+02 0.  0.
          5    1    4    4  502    0 -0.84503644179E+02  0.30414072256E+02 -0.42658046243E+02  0.99537332595E+02  0.47000000000E+01 0. -1.
         -5    1    4    4    0  502 -0.25306795347E+02 -0.35196122348E+02  0.78281246008E+01  0.44300908048E+02  0.47000000000E+01 0.  1.
          5    1    3    3  503    0  0.14074358213E+02 -0.35564452510E+02  0.57524975597E+01  0.38962790835E+02  0.47000000000E+01 0. -1.
         -5    1    3    3    0  503  0.95736081314E+02  0.40346502602E+02  0.32856346136E+02  0.10906359163E+03  0.47000000000E+01 0.  1.
<mgrwt>
<rscale>  0 0.14205894E+03</rscale>
<asrwt>0</asrwt>
<pdfrwt beam="1">  1        1 0.22160439E-01 0.14290265E+03</pdfrwt>
<pdfrwt beam="2">  1       -1 0.22741811E-01 0.14290265E+03</pdfrwt>
<totfact> 0.35190846E+03</totfact>
</mgrwt>
</event>
<event>
 8    1  0.2964543E-004  0.1052702E+03  0.7546771E-02  0.1273981E+00
          1   -1    0    0  501    0  0.00000000000E+00  0.00000000000E+00  0.84848147459E+03  0.84848147459E+03  0.00000000000E+00 0. -1.
         -1   -1    0    0    0  501 -0.00000000000E+00 -0.00000000000E+00 -0.13775187846E+02  0.13775187846E+02  0.00000000000E+00 0.  1.
         23    2    1    2    0    0  0.13787831272E+02  0.25130759237E+02  0.58648307581E+03  0.59585585794E+03  0.10129237817E+03 0.  0.
         23    2    1    2    0    0 -0.13787831272E+02 -0.25130759237E+02  0.24822321093E+03  0.26640080450E+03  0.92374059351E+02 0.  0.
          5    1    4    4  502    0 -0.14747700106E+02  0.26270593470E+02  0.16976591932E+03  0.17248245158E+03  0.47000000000E+01 0. -1.
         -5    1    3    3    0  503  0.16252289581E+02 -0.38167754911E+02  0.23194975256E+03  0.23567709295E+03  0.47000000000E+01 0.  1.
          5    1    3    3  503    0 -0.24644583096E+01  0.63298514147E+02  0.35453332325E+03  0.36017876498E+03  0.47000000000E+01 0. -1.
         -5    1    4    4    0  502  0.95986883357E+00 -0.51401352707E+02  0.78457291612E+02  0.93918352920E+02  0.47000000000E+01 0.  1.
<mgrwt>
<rscale>  0 0.10306406E+03</rscale>
<asrwt>0</asrwt>
<pdfrwt beam="1">  1        1 0.13053557E+00 0.10527015E+03</pdfrwt>
<pdfrwt beam="2">  1       -1 0.21192603E-02 0.10527015E+03</pdfrwt>
<totfact> 0.12442607E+04</totfact>
</mgrwt>
</event>
<event>
 8    1  0.2964543E-004  0.1097389E+03  0.7546771E-02  0.1261100E+00
          2   -1    0    0  501    0  0.00000000000E+00  0.00000000000E+00  0.60483076889E+02  0.60483076889E+02  0.00000000000E+00 0. -1.
         -2   -1    0    0    0  501 -0.00000000000E+00 -0.00000000000E+00 -0.19913049357E+03  0.19913049357E+03  0.00000000000E+00 0.  1.
         23    2    1    2    0    0 -0.28970565818E+02  0.52181876911E+02 -0.73433774864E+02  0.13195995691E+03  0.91971022470E+02 0.  0.
         23    2    1    2    0    0  0.28970565818E+02 -0.52181876911E+02 -0.65213641817E+02  0.12765361355E+03  0.92089000496E+02 0.  0.
          5    1    3    3  502    0 -0.86063484956E+01  0.44305556482E+02  0.92515934206E+01  0.46311268072E+02  0.47000000000E+01 0. -1.
         -5    1    4    4    0  503 -0.25683132260E+02 -0.47927979310E+02 -0.35702946823E+02  0.65218899832E+02  0.47000000000E+01 0.  1.
          5    1    4    4  503    0  0.54653698078E+02 -0.42538976016E+01 -0.29510694995E+02  0.62434713722E+02  0.47000000000E+01 0. -1.
         -5    1    3    3    0  502 -0.20364217322E+02  0.78763204291E+01 -0.82685368285E+02  0.85648688834E+02  0.47000000000E+01 0.  1.
<mgrwt>
<rscale>  0 0.10971414E+03</rscale>
<asrwt>0</asrwt>
<pdfrwt beam="1">  1        2 0.93050888E-02 0.10973890E+03</pdfrwt>
<pdfrwt beam="2">  1       -2 0.30635460E-01 0.10973890E+03</pdfrwt>
<totfact> 0.64215090E+03</totfact>
</mgrwt>
</event>
<event>
 8    1  0.2964543E-004  0.2183908E+03  0.7546771E-02  0.1136907E+00
         -1   -1    0    0    0  501 -0.00000000000E+00  0.00000000000E+00  0.88528233978E+02  0.88528233978E+02  0.00000000000E+00 0.  1.
          1   -1    0    0  501    0  0.00000000000E+00 -0.00000000000E+00 -0.56011992503E+03  0.56011992503E+03  0.00000000000E+00 0. -1.
         23    2    1    2    0    0 -0.45010705980E+02  0.18119061218E+03 -0.13971276506E+03  0.25135965816E+03  0.93840393421E+02 0.  0.
         23    2    1    2    0    0  0.45010705980E+02 -0.18119061218E+03 -0.33187892599E+03  0.39728850085E+03  0.11330723627E+03 0.  0.
          5    1    4    4  502    0 -0.62092453652E+01 -0.16052719044E+03 -0.27000189644E+03  0.31421433398E+03  0.47000000000E+01 0. -1.
         -5    1    4    4    0  502  0.51219951345E+02 -0.20663421738E+02 -0.61877029552E+02  0.83074166863E+02  0.47000000000E+01 0.  1.
          5    1    3    3  503    0  0.28387185318E+02  0.69462113552E+02 -0.49393977660E+02  0.89959282670E+02  0.47000000000E+01 0. -1.
         -5    1    3    3    0  503 -0.73397891299E+02  0.11172849862E+03 -0.90318787399E+02  0.16140037549E+03  0.47000000000E+01 0.  1.
<mgrwt>
<rscale>  0 0.21599251E+03</rscale>
<asrwt>0</asrwt>
<pdfrwt beam="1">  1        1 0.86172296E-01 0.21839078E+03</pdfrwt>
<pdfrwt beam="2">  1       -1 0.13619728E-01 0.21839078E+03</pdfrwt>
<totfact> 0.14474110E+03</totfact>
</mgrwt>
</event>
<event>
 8    1  0.2964543E-004  0.1299957E+03  0.7546771E-02  0.1229489E+00
          4   -1    0    0  501    0  0.00000000000E+00  0.00000000000E+00  0.58919407073E+02  0.58919407073E+02  0.00000000000E+00 0.  1.
         -4   -1    0    0    0  501 -0.00000000000E+00 -0.00000000000E+00 -0.27573436790E+03  0.27573436790E+03  0.00000000000E+00 0. -1.
         23    2    1    2    0    0  0.78541442408E+02 -0.47823971936E+02 -0.10298092443E+03  0.16584313993E+03  0.91885721403E+02 0.  0.
         23    2    1    2    0    0 -0.78541442408E+02  0.47823971936E+02 -0.11383403639E+03  0.16881063504E+03  0.84160276817E+02 0.  0.
          5    1    4    4  502    0 -0.16173481809E+02 -0.20514925234E+02 -0.70914589085E+01  0.27474032478E+02  0.47000000000E+01 0. -1.
         -5    1    3    3    0  503  0.90533627135E+02 -0.11814423075E+02 -0.77886324928E+02  0.12010115672E+03  0.47000000000E+01 0.  1.
          5    1    3    3  503    0 -0.11992184727E+02 -0.36009548861E+02 -0.25094599501E+02  0.45741983208E+02  0.47000000000E+01 0. -1.
         -5    1    4    4    0  502 -0.62367960599E+02  0.68338897170E+02 -0.10674257749E+03  0.14133660256E+03  0.47000000000E+01 0.  1.
<mgrwt>
<rscale>  0 0.12863940E+03</rscale>
<asrwt>0</asrwt>
<pdfrwt beam="1">  1        4 0.90645244E-02 0.12999568E+03</pdfrwt>
<pdfrwt beam="2">  1       -4 0.42420671E-01 0.12999568E+03</pdfrwt>
<totfact> 0.79461537E+02</totfact>
</mgrwt>
</event>
<event>
 8    1  0.2964543E-004  0.1281617E+03  0.7546771E-02  0.1230570E+00
          3   -1    0    0  501    0  0.00000000000E+00  0.00000000000E+00  0.15068949950E+03  0.15068949950E+03  0.00000000000E+00 0. -1.
         -3   -1    0    0    0  501 -0.00000000000E+00 -0.00000000000E+00 -0.14870306984E+03  0.14870306984E+03  0.00000000000E+00 0.  1.
         23    2    1    2    0    0  0.80118104528E+01  0.86818225616E+02 -0.77140409151E+02  0.14877229910E+03  0.92633475855E+02 0.  0.
         23    2    1    2    0    0 -0.80118104528E+01 -0.86818225616E+02  0.79126838809E+02  0.15062027025E+03  0.93935167985E+02 0.  0.
          5    1    4    4  502    0 -0.47867987073E+02 -0.45735400231E+02  0.61654929061E+02  0.90589686489E+02  0.47000000000E+01 0. -1.
         -5    1    4    4    0  502  0.39856176620E+02 -0.41082825384E+02  0.17471909748E+02  0.60030583760E+02  0.47000000000E+01 0.  1.
          5    1    3    3  503    0 -0.40164640983E+02  0.56953279908E+02 -0.48939034038E+02  0.85287710312E+02  0.47000000000E+01 0. -1.
         -5    1    3    3    0  503  0.48176451436E+02  0.29864945707E+02 -0.28201375113E+02  0.63484588786E+02  0.47000000000E+01 0.  1.
<mgrwt>
<rscale>  0 0.12792324E+03</rscale>
<asrwt>0</asrwt>
<pdfrwt beam="1">  1        3 0.23183000E-01 0.12816165E+03</pdfrwt>
<pdfrwt beam="2">  1       -3 0.22877395E-01 0.12816165E+03</pdfrwt>
<totfact> 0.69691237E+02</totfact>
</mgrwt>
</event>
<event>
 8    1  0.2964543E-004  0.9577325E+02  0.7546771E-02  0.1289860E+00
         -1   -1    0    0    0  501 -0.00000000000E+00  0.00000000000E+00  0.57710724969E+02  0.57710724969E+02  0.00000000000E+00 0.  1.
          1   -1    0    0  501    0  0.00000000000E+00 -0.00000000000E+00 -0.15803878761E+03  0.15803878761E+03  0.00000000000E+00 0. -1.
         23    2    1    2    0    0 -0.40450291622E+01  0.29904764517E+02 -0.54911603688E+02  0.10975342630E+03  0.90110338829E+02 0.  0.
         23    2    1    2    0    0  0.40450291622E+01 -0.29904764517E+02 -0.45416458952E+02  0.10599608628E+03  0.90894765307E+02 0.  0.
          5    1    4    4  502    0 -0.35895187296E+02 -0.35889576946E+02 -0.40369257500E+02  0.65025327031E+02  0.47000000000E+01 0. -1.
         -5    1    4    4    0  502  0.39940216458E+02  0.59848124294E+01 -0.50472014517E+01  0.40970759244E+02  0.47000000000E+01 0.  1.
          5    1    3    3  503    0 -0.36307480639E+02 -0.84291478031E+01 -0.44724334470E+02  0.58409243933E+02  0.47000000000E+01 0. -1.
         -5    1    3    3    0  503  0.32262451477E+02  0.38333912320E+02 -0.10187269218E+02  0.51344182369E+02  0.47000000000E+01 0.  1.
<mgrwt>
<rscale>  0 0.95586669E+02</rscale>
<asrwt>0</asrwt>
<pdfrwt beam="1">  1        1 0.24313659E-01 0.95773251E+02</pdfrwt>
<pdfrwt beam="2">  1       -1 0.88785733E-02 0.95773251E+02</pdfrwt>
<totfact> 0.13167568E+04</totfact>
</mgrwt>
</event>
<event>
 8    1  0.2964543E-004  0.1160378E+03  0.7546771E-02  0.1250308E+00
          1   -1    0    0  501    0  0.00000000000E+00  0.00000000000E+00  0.17637868099E+02  0.17637868099E+02  0.00000000000E+00 0. -1.
         -1   -1    0    0    0  501 -0.00000000000E+00 -0.00000000000E+00 -0.75542936534E+03  0.75542936534E+03  0.00000000000E+00 0.  1.
         23    2    1    2    0    0  0.69001849205E+02  0.63488744206E+01 -0.36572534729E+03  0.38332630406E+03  0.91555788114E+02 0.  0.
         23    2    1    2    0    0 -0.69001849205E+02 -0.63488744206E+01 -0.37206614996E+03  0.38974092938E+03  0.93076359460E+02 0.  0.
          5    1    4    4  502    0 -0.45566588358E+02 -0.40369534531E+02 -0.12403421579E+03  0.13824829105E+03  0.47000000000E+01 0. -1.
         -5    1    4    4    0  502 -0.23435260848E+02  0.34020660111E+02 -0.24803193417E+03  0.25149263833E+03  0.47000000000E+01 0.  1.
          5    1    3    3  503    0  0.70738267393E+01 -0.33926574734E+02 -0.67145829495E+02  0.75708017518E+02  0.47000000000E+01 0. -1.
         -5    1    3    3    0  503  0.61928022466E+02  0.40275449155E+02 -0.29857951779E+03  0.30761828654E+03  0.47000000000E+01 0.  1.
<mgrwt>
<rscale>  0 0.11573258E+03</rscale>
<asrwt>0</asrwt>
<pdfrwt beam="1">  1        1 0.27135181E-02 0.11603780E+03</pdfrwt>
<pdfrwt beam="2">  1       -1 0.11621990E+00 0.11603780E+03</pdfrwt>
<totfact> 0.26791685E+03</totfact>
</mgrwt>
</event>
<event>
 8    1  0.2964543E-004  0.1151411E+03  0.7546771E-02  0.1251401E+00
         -1   -1    0    0    0  501 -0.00000000000E+00  0.00000000000E+00  0.32025802911E+03  0.32025802911E+03  0.00000000000E+00 0.  1.
          1   -1    0    0  501    0  0.00000000000E+00 -0.00000000000E+00 -0.22913835493E+03  0.22913835493E+03  0.00000000000E+00 0. -1.
         23    2    1    2    0    0 -0.52945666144E+02  0.45409748266E+02  0.29425063038E+03  0.31597611819E+03  0.91608869579E+02 0.  0.
         23    2    1    2    0    0  0.52945666144E+02 -0.45409748266E+02 -0.20313095619E+03  0.23342026585E+03  0.91419616845E+02 0.  0.
          5    1    3    3  502    0 -0.29780672440E+02  0.59994367169E+02  0.10455523595E+03  0.12425819856E+03  0.47000000000E+01 0. -1.
         -5    1    4    4    0  503  0.46574517667E+02 -0.68516894293E+02 -0.18574696606E+03  0.20343985819E+03  0.47000000000E+01 0.  1.
          5    1    4    4  503    0  0.63711484766E+01  0.23107146027E+02 -0.17383990129E+02  0.29980407656E+02  0.47000000000E+01 0. -1.
         -5    1    3    3    0  502 -0.23164993704E+02 -0.14584618903E+02  0.18969539443E+03  0.19171791963E+03  0.47000000000E+01 0.  1.
<mgrwt>
<rscale>  0 0.11510346E+03</rscale>
<asrwt>0</asrwt>
<pdfrwt beam="1">  1        1 0.35252055E-01 0.11514110E+03</pdfrwt>
<pdfrwt beam="2">  1       -1 0.49270466E-01 0.11514110E+03</pdfrwt>
<totfact> 0.52335158E+02</totfact>
</mgrwt>
</event>
<event>
 8    1  0.2964543E-004  0.1032403E+03  0.7546771E-02  0.1277523E+00
          1   -1    0    0  501    0  0.00000000000E+00  0.00000000000E+00  0.14028924157E+03  0.14028924157E+03  0.00000000000E+00 0. -1.
         -1   -1    0    0    0  501 -0.00000000000E+00 -0.00000000000E+00 -0.10924550162E+03  0.10924550162E+03  0.00000000000E+00 0.  1.
         23    2    1    2    0    0 -0.84102075004E+01  0.36431360762E+02 -0.59020608246E+02  0.11253052858E+03  0.88214012653E+02 0.  0.
         23    2    1    2    0    0  0.84102075004E+01 -0.36431360762E+02  0.90064348190E+02  0.13700421461E+03  0.96231971654E+02 0.  0.
          5    1    3    3  502    0 -0.30377786338E+02 -0.17333353623E+02 -0.10825483106E+02  0.36912547123E+02  0.47000000000E+01 0. -1.
         -5    1    4    4    0  503 -0.33739624001E+02 -0.39350102473E+02  0.21462756490E+02  0.56298603077E+02  0.47000000000E+01 0.  1.
          5    1    4    4  503    0  0.42149831501E+02  0.29187417110E+01  0.68601591700E+02  0.80705611531E+02  0.47000000000E+01 0. -1.
         -5    1    3    3    0  502  0.21967578838E+02  0.53764714385E+02 -0.48195125139E+02  0.75617981460E+02  0.47000000000E+01 0.  1.
<mgrwt>
<rscale>  0 0.10133059E+03</rscale>
<asrwt>0</asrwt>
<pdfrwt beam="1">  1        1 0.21582960E-01 0.10324034E+03</pdfrwt>
<pdfrwt beam="2">  1       -1 0.16807000E-01 0.10324034E+03</pdfrwt>
<totfact> 0.57803388E+03</totfact>
</mgrwt>
</event>
<event>
 8    1  0.2964543E-004  0.1608504E+03  0.7546771E-02  0.1190165E+00
          1   -1    0    0  501    0  0.00000000000E+00  0.00000000000E+00  0.56389225935E+03  0.56389225935E+03  0.00000000000E+00 0. -1.
         -1   -1    0    0    0  501 -0.00000000000E+00 -0.00000000000E+00 -0.13593740601E+03  0.13593740601E+03  0.00000000000E+00 0.  1.
         23    2    1    2    0    0  0.52147435551E+02 -0.11069756538E+03  0.50430511536E+03  0.52933591521E+03  0.10440093745E+03 0.  0.
         23    2    1    2    0    0 -0.52147435551E+02  0.11069756538E+03 -0.76350262023E+02  0.17049375015E+03  0.90914522020E+02 0.  0.
          5    1    3    3  502    0  0.24042639008E+02  0.98582818677E+01  0.18444000809E+03  0.18632080076E+03  0.47000000000E+01 0. -1.
         -5    1    3    3    0  502  0.28104796543E+02 -0.12055584725E+03  0.31986510727E+03  0.34301511445E+03  0.47000000000E+01 0.  1.
          5    1    4    4  503    0 -0.19330708271E+02 -0.13326929264E+02 -0.14492811714E+02  0.27989550144E+02  0.47000000000E+01 0. -1.
         -5    1    4    4    0  503 -0.32816727280E+02  0.12402449464E+03 -0.61857450309E+02  0.14250420001E+03  0.47000000000E+01 0.  1.
<mgrwt>
<rscale>  0 0.15870598E+03</rscale>
<asrwt>0</asrwt>
<pdfrwt beam="1">  1        1 0.86752654E-01 0.16085043E+03</pdfrwt>
<pdfrwt beam="2">  1       -1 0.20913447E-01 0.16085043E+03</pdfrwt>
<totfact> 0.72249387E+02</totfact>
</mgrwt>
</event>
<event>
 8    1  0.2964543E-004  0.1121536E+03  0.7546771E-02  0.1256744E+00
          1   -1    0    0  501    0  0.00000000000E+00  0.00000000000E+00  0.25748086803E+03  0.25748086803E+03  0.00000000000E+00 0. -1.
         -1   -1    0    0    0  501 -0.00000000000E+00 -0.00000000000E+00 -0.20022584133E+03  0.20022584133E+03  0.00000000000E+00 0.  1.
         23    2    1    2    0    0  0.67230001636E+02 -0.65864448632E+01 -0.17042105921E+03  0.20401412139E+03  0.89527481417E+02 0.  0.
         23    2    1    2    0    0 -0.67230001636E+02  0.65864448632E+01  0.22767608590E+03  0.25369258797E+03  0.89220371694E+02 0.  0.
          5    1    3    3  502    0  0.58621250103E+02 -0.42133142009E+02 -0.13344393220E+03  0.15179270622E+03  0.47000000000E+01 0. -1.
         -5    1    4    4    0  503  0.10975727333E+02  0.27998159921E+02  0.69860543172E+02  0.76203340095E+02  0.47000000000E+01 0.  1.
          5    1    4    4  503    0 -0.78205728968E+02 -0.21411715058E+02  0.15781554273E+03  0.17748924788E+03  0.47000000000E+01 0. -1.
         -5    1    3    3    0  502  0.86087515324E+01  0.35546697146E+02 -0.36977127002E+02  0.52221415169E+02  0.47000000000E+01 0.  1.
<mgrwt>
<rscale>  0 0.11209227E+03</rscale>
<asrwt>0</asrwt>
<pdfrwt beam="1">  1        1 0.39612441E-01 0.11215357E+03</pdfrwt>
<pdfrwt beam="2">  1       -1 0.30803976E-01 0.11215357E+03</pdfrwt>
<totfact> 0.10261487E+03</totfact>
</mgrwt>
</event>
<event>
 8    1  0.2964543E-004  0.1058084E+03  0.7546771E-02  0.1269710E+00
         -2   -1    0    0    0  501 -0.00000000000E+00  0.00000000000E+00  0.25261672405E+02  0.25261672405E+02  0.00000000000E+00 0. -1.
          2   -1    0    0  501    0  0.00000000000E+00 -0.00000000000E+00 -0.54808002656E+03  0.54808002656E+03  0.00000000000E+00 0.  1.
         23    2    1    2    0    0  0.36123039730E+02 -0.29479139265E+02 -0.39026058345E+03  0.40373337967E+03  0.92322398210E+02 0.  0.
         23    2    1    2    0    0 -0.36123039730E+02  0.29479139265E+02 -0.13255777071E+03  0.16960831930E+03  0.94981712713E+02 0.  0.
          5    1    3    3  502    0  0.46070640861E+02  0.11679355854E+02 -0.10554525280E+03  0.11584818381E+03  0.47000000000E+01 0. -1.
         -5    1    4    4    0  503 -0.38106256481E+02 -0.28353490584E+02 -0.58097235666E+02  0.75189001877E+02  0.47000000000E+01 0.  1.
          5    1    4    4  503    0  0.19832167515E+01  0.57832629849E+02 -0.74460535041E+02  0.94419317423E+02  0.47000000000E+01 0. -1.
         -5    1    3    3    0  502 -0.99476011314E+01 -0.41158495119E+02 -0.28471533065E+03  0.28788519586E+03  0.47000000000E+01 0.  1.
<mgrwt>
<rscale>  0 0.10520818E+03</rscale>
<asrwt>0</asrwt>
<pdfrwt beam="1">  1        2 0.84320005E-01 0.10580841E+03</pdfrwt>
<pdfrwt beam="2">  1       -2 0.38864111E-02 0.10580841E+03</pdfrwt>
<totfact> 0.14927067E+04</totfact>
</mgrwt>
</event>
<event>
 8    1  0.2964543E-004  0.9561950E+02  0.7546771E-02  0.1290826E+00
          3   -1    0    0  501    0  0.00000000000E+00  0.00000000000E+00  0.29833476163E+02  0.29833476163E+02  0.00000000000E+00 0. -1.
         -3   -1    0    0    0  501 -0.00000000000E+00 -0.00000000000E+00 -0.32350734281E+03  0.32350734281E+03  0.00000000000E+00 0.  1.
         23    2    1    2    0    0  0.17580144704E+02 -0.19807724041E+02 -0.10114957027E+03  0.13919168004E+03  0.91878619968E+02 0.  0.
         23    2    1    2    0    0 -0.17580144704E+02  0.19807724041E+02 -0.19252429637E+03  0.21414913893E+03  0.89960222269E+02 0.  0.
          5    1    4    4  502    0 -0.34608556796E+00  0.36664559889E+02 -0.24520292796E+02  0.44359266066E+02  0.47000000000E+01 0. -1.
         -5    1    4    4    0  502 -0.17234059136E+02 -0.16856835848E+02 -0.16800400357E+03  0.16978987286E+03  0.47000000000E+01 0.  1.
          5    1    3    3  503    0  0.77993575910E+01  0.24600810185E+02  0.20580117585E+01  0.26312644356E+02  0.47000000000E+01 0. -1.
         -5    1    3    3    0  503  0.97807871125E+01 -0.44408534227E+02 -0.10320758203E+03  0.11287903569E+03  0.47000000000E+01 0.  1.
<mgrwt>
<rscale>  0 0.95155673E+02</rscale>
<asrwt>0</asrwt>
<pdfrwt beam="1">  1        3 0.45897658E-02 0.95619497E+02</pdfrwt>
<pdfrwt beam="2">  1       -3 0.49770358E-01 0.95619497E+02</pdfrwt>
<totfact> 0.22577006E+03</totfact>
</mgrwt>
</event>
<event>
 8    1  0.2964543E-004  0.1070655E+03  0.7546771E-02  0.1271165E+00
         -3   -1    0    0    0  501 -0.00000000000E+00  0.00000000000E+00  0.71606728485E+02  0.71606728485E+02  0.00000000000E+00 0.  1.
          3   -1    0    0  501    0  0.00000000000E+00 -0.00000000000E+00 -0.16484548264E+03  0.16484548264E+03  0.00000000000E+00 0. -1.
         23    2    1    2    0    0  0.34299454984E+02  0.12940219210E+02 -0.81483597468E+01  0.10737515073E+03  0.10059386335E+03 0.  0.
         23    2    1    2    0    0 -0.34299454984E+02 -0.12940219210E+02 -0.85090394410E+02  0.12907706039E+03  0.89869963913E+02 0.  0.
          5    1    3    3  502    0 -0.34597266708E+02  0.10175672596E+02 -0.11611348794E+02  0.38176283177E+02  0.47000000000E+01 0. -1.
         -5    1    3    3    0  502  0.68896721692E+02  0.27645466137E+01  0.34629890473E+01  0.69198867556E+02  0.47000000000E+01 0.  1.
          5    1    4    4  503    0 -0.41277256414E+02 -0.36098471784E+02 -0.88485652887E+02  0.10420514541E+03  0.47000000000E+01 0. -1.
         -5    1    4    4    0  503  0.69778014298E+01  0.23158252574E+02  0.33952584767E+01  0.24871914989E+02  0.47000000000E+01 0.  1.
<mgrwt>
<rscale>  0 0.10447119E+03</rscale>
<asrwt>0</asrwt>
<pdfrwt beam="1">  1        3 0.25360843E-01 0.10706553E+03</pdfrwt>
<pdfrwt beam="2">  1       -3 0.11016420E-01 0.10706553E+03</pdfrwt>
<totfact> 0.20158353E+03</totfact>
</mgrwt>
</event>
<event>
 8    1  0.2964543E-004  0.1068265E+03  0.7546771E-02  0.1270335E+00
          2   -1    0    0  501    0  0.00000000000E+00  0.00000000000E+00  0.82082264196E+03  0.82082264196E+03  0.00000000000E+00 0. -1.
         -2   -1    0    0    0  501 -0.00000000000E+00 -0.00000000000E+00 -0.13497635701E+02  0.13497635701E+02  0.00000000000E+00 0.  1.
         23    2    1    2    0    0  0.15798009369E+02 -0.27748887869E+02  0.33303904092E+03  0.34975264039E+03  0.10194277222E+03 0.  0.
         23    2    1    2    0    0 -0.15798009369E+02  0.27748887869E+02  0.47428596534E+03  0.48456763727E+03  0.94016170375E+02 0.  0.
          5    1    3    3  502    0 -0.34858410936E+02  0.48388330721E+01  0.20650468754E+03  0.20953472049E+03  0.47000000000E+01 0. -1.
         -5    1    4    4    0  503  0.15334981909E+02  0.54348954852E+02  0.23337634989E+03  0.24015740932E+03  0.47000000000E+01 0.  1.
          5    1    4    4  503    0 -0.31132991278E+02 -0.26600066984E+02  0.24090961545E+03  0.24441022795E+03  0.47000000000E+01 0. -1.
         -5    1    3    3    0  502  0.50656420305E+02 -0.32587720941E+02  0.12653435338E+03  0.14021791990E+03  0.47000000000E+01 0.  1.
<mgrwt>
<rscale>  0 0.10489054E+03</rscale>
<asrwt>0</asrwt>
<pdfrwt beam="1">  1        2 0.12628037E+00 0.10682653E+03</pdfrwt>
<pdfrwt beam="2">  1       -2 0.20765600E-02 0.10682653E+03</pdfrwt>
<totfact> 0.23281567E+04</totfact>
</mgrwt>
</event>
<event>
 8    1  0.2964543E-004  0.1120028E+03  0.7546771E-02  0.1264736E+00
          1   -1    0    0  501    0  0.00000000000E+00  0.00000000000E+00  0.26327154520E+03  0.26327154520E+03  0.00000000000E+00 0. -1.
         -1   -1    0    0    0  501 -0.00000000000E+00 -0.00000000000E+00 -0.20471808397E+03  0.20471808397E+03  0.00000000000E+00 0.  1.
         23    2    1    2    0    0  0.63624302305E+01  0.15942501969E+02 -0.18024066256E+03  0.20423356815E+03  0.94498730317E+02 0.  0.
         23    2    1    2    0    0 -0.63624302305E+01 -0.15942501969E+02  0.23879412379E+03  0.26375606101E+03  0.11067963802E+03 0.  0.
          5    1    4    4  502    0  0.42101564651E+02  0.22900933985E+02  0.12629560642E+03  0.13516532367E+03  0.47000000000E+01 0. -1.
         -5    1    3    3    0  503  0.37546806939E+02  0.37727182539E+02 -0.13343687520E+03  0.14373793054E+03  0.47000000000E+01 0. -1.
          5    1    3    3  503    0 -0.31184376709E+02 -0.21784680571E+02 -0.46803787369E+02  0.60495637615E+02  0.47000000000E+01 0.  1.
         -5    1    4    4    0  502 -0.48463994882E+02 -0.38843435954E+02  0.11249851738E+03  0.12859073734E+03  0.47000000000E+01 0.  1.
<mgrwt>
<rscale>  0 0.10778055E+03</rscale>
<asrwt>0</asrwt>
<pdfrwt beam="1">  1        1 0.40503315E-01 0.11200280E+03</pdfrwt>
<pdfrwt beam="2">  1       -1 0.31495090E-01 0.11200280E+03</pdfrwt>
<totfact> 0.96195858E+02</totfact>
</mgrwt>
</event>
<event>
 7    1  0.2964543E-004  0.1292007E+03  0.7546771E-02  0.1242033E+00
          3   -1    0    0  501    0  0.00000000000E+00  0.00000000000E+00  0.96011096143E+02  0.96011096143E+02  0.00000000000E+00 0. -1.
         -3   -1    0    0    0  501 -0.00000000000E+00 -0.00000000000E+00 -0.14379610319E+03  0.14379610319E+03  0.00000000000E+00 0.  1.
         23    2    1    2    0    0  0.84930755861E+02  0.12319832137E+02 -0.56845915636E+02  0.14115336915E+03  0.96580556751E+02 0.  0.
          5    1    1    2  502    0 -0.47642910116E+02  0.55368330658E+01  0.24759716345E+02  0.54181518604E+02  0.47000000000E+01 0. -1.
         -5    1    3    3    0  503  0.74510593252E+02 -0.16500088506E+02 -0.66192214274E-01  0.76460289097E+02  0.47000000000E+01 0. -1.
          5    1    3    3  503    0  0.10420162609E+02  0.28819920642E+02 -0.56779723421E+02  0.64693080051E+02  0.47000000000E+01 0. -1.
         -5    1    1    2    0  502 -0.37287845745E+02 -0.17856665202E+02 -0.15698807758E+02  0.44472311582E+02  0.47000000000E+01 0.  1.
<mgrwt>
<rscale>  0 0.12064719E+03</rscale>
<asrwt>0</asrwt>
<pdfrwt beam="1">  1        3 0.14770938E-01 0.12920068E+03</pdfrwt>
<pdfrwt beam="2">  1       -3 0.22122477E-01 0.12920068E+03</pdfrwt>
<totfact> 0.16267338E+03</totfact>
</mgrwt>
</event>
<event>
 8    1  0.2964543E-004  0.1444912E+03  0.7546771E-02  0.1207537E+00
          3   -1    0    0  501    0  0.00000000000E+00  0.00000000000E+00  0.22483318724E+02  0.22483318724E+02  0.00000000000E+00 0. -1.
         -3   -1    0    0    0  501 -0.00000000000E+00 -0.00000000000E+00 -0.93849238064E+03  0.93849238064E+03  0.00000000000E+00 0.  1.
         23    2    1    2    0    0 -0.80922509391E+02 -0.76983146486E+02 -0.40212373035E+03  0.42716314006E+03  0.91049417021E+02 0.  0.
         23    2    1    2    0    0  0.80922509391E+02  0.76983146486E+02 -0.51388533156E+03  0.53381255930E+03  0.91667099394E+02 0.  0.
          5    1    4    4  502    0  0.17630489988E+02 -0.17128261625E+02 -0.16601945611E+03  0.16789509025E+03  0.47000000000E+01 0. -1.
         -5    1    3    3    0  503 -0.21593022718E+02  0.12966699151E+02 -0.16086594060E+03  0.16289363021E+03  0.47000000000E+01 0.  1.
          5    1    3    3  503    0 -0.59329486673E+02 -0.89949845637E+02 -0.24125778976E+03  0.26426950985E+03  0.47000000000E+01 0. -1.
         -5    1    4    4    0  502  0.63292019402E+02  0.94111408111E+02 -0.34786587545E+03  0.36591746905E+03  0.47000000000E+01 0.  1.
<mgrwt>
<rscale>  0 0.14439336E+03</rscale>
<asrwt>0</asrwt>
<pdfrwt beam="1">  1        3 0.34589722E-02 0.14449123E+03</pdfrwt>
<pdfrwt beam="2">  1       -3 0.14438344E+00 0.14449123E+03</pdfrwt>
<totfact> 0.36130158E+02</totfact>
</mgrwt>
</event>
<event>
 8    1  0.2964543E-004  0.1069561E+03  0.7546771E-02  0.1268405E+00
         -1   -1    0    0    0  501 -0.00000000000E+00  0.00000000000E+00  0.23468615406E+02  0.23468615406E+02  0.00000000000E+00 0.  1.
          1   -1    0    0  501    0  0.00000000000E+00 -0.00000000000E+00 -0.69961369386E+03  0.69961369386E+03  0.00000000000E+00 0. -1.
         23    2    1    2    0    0  0.11175645478E+02  0.55582535311E+02 -0.12558142721E+03  0.16222587956E+03  0.85628429019E+02 0.  0.
         23    2    1    2    0    0 -0.11175645478E+02 -0.55582535311E+02 -0.55056365124E+03  0.56085642970E+03  0.90693370121E+02 0.  0.
          5    1    3    3  502    0 -0.25970745982E+02  0.25115520927E+02 -0.10237659397E+03  0.10866612182E+03  0.47000000000E+01 0. -1.
         -5    1    3    3    0  502  0.37146391459E+02  0.30467014384E+02 -0.23204833241E+02  0.53559757745E+02  0.47000000000E+01 0.  1.
          5    1    4    4  503    0 -0.21837860510E+02 -0.75614117045E+02 -0.48386307021E+03  0.49024478331E+03  0.47000000000E+01 0. -1.
         -5    1    4    4    0  503  0.10662215033E+02  0.20031581734E+02 -0.66700581036E+02  0.70611646396E+02  0.47000000000E+01 0.  1.
<mgrwt>
<rscale>  0 0.10587486E+03</rscale>
<asrwt>0</asrwt>
<pdfrwt beam="1">  1        1 0.10763286E+00 0.10695607E+03</pdfrwt>
<pdfrwt beam="2">  1       -1 0.36105566E-02 0.10695607E+03</pdfrwt>
<totfact> 0.76641004E+03</totfact>
</mgrwt>
</event>
<event>
 8    1  0.2964543E-004  0.9415970E+02  0.7546771E-02  0.1294484E+00
          1   -1    0    0  501    0  0.00000000000E+00  0.00000000000E+00  0.79558619322E+02  0.79558619322E+02  0.00000000000E+00 0. -1.
         -1   -1    0    0    0  501 -0.00000000000E+00 -0.00000000000E+00 -0.10966714512E+03  0.10966714512E+03  0.00000000000E+00 0.  1.
         23    2    1    2    0    0 -0.26461743222E+02 -0.54976487636E+01 -0.24654165249E+02  0.97333841759E+02  0.90197565883E+02 0.  0.
         23    2    1    2    0    0  0.26461743222E+02  0.54976487636E+01 -0.54543605467E+01  0.91891922680E+02  0.87658013943E+02 0.  0.
          5    1    3    3  502    0 -0.37987762344E+02  0.29692342915E+02 -0.33593374979E+02  0.58951761282E+02  0.47000000000E+01 0. -1.
         -5    1    4    4    0  503  0.10661530733E+02 -0.40649729552E+02 -0.70114095854E+01  0.42863954724E+02  0.47000000000E+01 0.  1.
          5    1    4    4  503    0  0.15800212489E+02  0.46147378316E+02  0.15570490387E+01  0.49027967955E+02  0.47000000000E+01 0. -1.
         -5    1    3    3    0  502  0.11526019122E+02 -0.35189991679E+02  0.89392097300E+01  0.38382080477E+02  0.47000000000E+01 0.  1.
<mgrwt>
<rscale>  0 0.93546282E+02</rscale>
<asrwt>0</asrwt>
<pdfrwt beam="1">  1        1 0.12239788E-01 0.94159699E+02</pdfrwt>
<pdfrwt beam="2">  1       -1 0.16871868E-01 0.94159699E+02</pdfrwt>
<totfact> 0.11751855E+04</totfact>
</mgrwt>
</event>
<event>
 8    1  0.2964543E-004  0.1154145E+03  0.7546771E-02  0.1252136E+00
          1   -1    0    0  501    0  0.00000000000E+00  0.00000000000E+00  0.54197305881E+03  0.54197305881E+03  0.00000000000E+00 0. -1.
         -1   -1    0    0    0  501 -0.00000000000E+00 -0.00000000000E+00 -0.25367868611E+02  0.25367868611E+02  0.00000000000E+00 0.  1.
         23    2    1    2    0    0 -0.26693358802E+02  0.61968956209E+02  0.32192094412E+03  0.34101714727E+03  0.90038400307E+02 0.  0.
         23    2    1    2    0    0  0.26693358802E+02 -0.61968956209E+02  0.19468424608E+03  0.22632378015E+03  0.93636589291E+02 0.  0.
          5    1    3    3  502    0  0.32111599192E+02  0.12668582160E+02  0.82468322009E+02  0.89525202661E+02  0.47000000000E+01 0. -1.
         -5    1    4    4    0  503  0.37920784959E+02 -0.59393267114E+01  0.22265957296E+02  0.44622016853E+02  0.47000000000E+01 0.  1.
          5    1    4    4  503    0 -0.11227426157E+02 -0.56029629497E+02  0.17241828878E+03  0.18170176330E+03  0.47000000000E+01 0. -1.
         -5    1    3    3    0  502 -0.58804957994E+02  0.49300374048E+02  0.23945262211E+03  0.25149194461E+03  0.47000000000E+01 0.  1.
<mgrwt>
<rscale>  0 0.11468264E+03</rscale>
<asrwt>0</asrwt>
<pdfrwt beam="1">  1        1 0.83380462E-01 0.11541446E+03</pdfrwt>
<pdfrwt beam="2">  1       -1 0.39027494E-02 0.11541446E+03</pdfrwt>
<totfact> 0.97403996E+03</totfact>
</mgrwt>
</event>
<event>
 8    1  0.2964543E-004  0.9382773E+02  0.7546771E-02  0.1303016E+00
          2   -1    0    0  501    0  0.00000000000E+00  0.00000000000E+00  0.90644286621E+02  0.90644286621E+02  0.00000000000E+00 0. -1.
         -2   -1    0    0    0  501 -0.00000000000E+00 -0.00000000000E+00 -0.18614987845E+03  0.18614987845E+03  0.00000000000E+00 0.  1.
         23    2    1    2    0    0 -0.12929882236E+02 -0.47520614779E+01 -0.15262168535E+03  0.17915641714E+03  0.92810985448E+02 0.  0.
         23    2    1    2    0    0  0.12929882236E+02  0.47520614779E+01  0.57116093526E+02  0.97637747929E+02  0.77981521773E+02 0.  0.
          5    1    4    4  502    0 -0.96883587438E+01  0.20588102494E+02 -0.97085483102E+01  0.25180948547E+02  0.47000000000E+01 0.  1.
         -5    1    3    3    0  503 -0.23780537898E+02  0.35292506437E+02 -0.38291589693E+02  0.57440498209E+02  0.47000000000E+01 0.  1.
          5    1    3    3  503    0  0.10850655661E+02 -0.40044567915E+02 -0.11433009566E+03  0.12171591893E+03  0.47000000000E+01 0. -1.
         -5    1    4    4    0  502  0.22618240980E+02 -0.15836041016E+02  0.66824641836E+02  0.72456799381E+02  0.47000000000E+01 0. -1.
<mgrwt>
<rscale>  0 0.89932048E+02</rscale>
<asrwt>0</asrwt>
<pdfrwt beam="1">  1        2 0.13945275E-01 0.93827730E+02</pdfrwt>
<pdfrwt beam="2">  1       -2 0.28638442E-01 0.93827730E+02</pdfrwt>
<totfact> 0.44045492E+03</totfact>
</mgrwt>
</event>
<event>
 8    1  0.2964543E-004  0.1289855E+03  0.7546771E-02  0.1229324E+00
          1   -1    0    0  501    0  0.00000000000E+00  0.00000000000E+00  0.58179729273E+02  0.58179729273E+02  0.00000000000E+00 0. -1.
         -1   -1    0    0    0  501 -0.00000000000E+00 -0.00000000000E+00 -0.30251446407E+03  0.30251446407E+03  0.00000000000E+00 0.  1.
         23    2    1    2    0    0  0.84876031929E+02 -0.29009059788E+02 -0.77821740468E+02  0.15064353236E+03  0.92691877775E+02 0.  0.
         23    2    1    2    0    0 -0.84876031929E+02  0.29009059788E+02 -0.16651299433E+03  0.21005066099E+03  0.91374156930E+02 0.  0.
          5    1    3    3  502    0  0.76692360305E+02  0.95908171286E+01 -0.19122077214E+02  0.79758671875E+02  0.47000000000E+01 0. -1.
         -5    1    3    3    0  502  0.81836716241E+01 -0.38599876917E+02 -0.58699663254E+02  0.70884860481E+02  0.47000000000E+01 0.  1.
          5    1    4    4  503    0 -0.35703491456E+02  0.54996695937E+02 -0.56472021309E+02  0.86663458602E+02  0.47000000000E+01 0. -1.
         -5    1    4    4    0  503 -0.49172540473E+02 -0.25987636148E+02 -0.11004097302E+03  0.12338720239E+03  0.47000000000E+01 0.  1.
<mgrwt>
<rscale>  0 0.12874890E+03</rscale>
<asrwt>0</asrwt>
<pdfrwt beam="1">  1        1 0.89507277E-02 0.12898547E+03</pdfrwt>
<pdfrwt beam="2">  1       -1 0.46540686E-01 0.12898547E+03</pdfrwt>
<totfact> 0.33557523E+03</totfact>
</mgrwt>
</event>
<event>
 8    1  0.2964543E-004  0.9504136E+02  0.7546771E-02  0.1291575E+00
         -1   -1    0    0    0  501 -0.00000000000E+00  0.00000000000E+00  0.53463650928E+02  0.53463650928E+02  0.00000000000E+00 0.  1.
          1   -1    0    0  501    0  0.00000000000E+00 -0.00000000000E+00 -0.23896134403E+03  0.23896134403E+03  0.00000000000E+00 0. -1.
         23    2    1    2    0    0 -0.16675800733E+02  0.19027992553E+02 -0.12442643708E+02  0.94989158985E+02  0.90708181062E+02 0.  0.
         23    2    1    2    0    0  0.16675800733E+02 -0.19027992553E+02 -0.17305504939E+03  0.19743583597E+03  0.91611748015E+02 0.  0.
          5    1    4    4  502    0 -0.25077203837E+02 -0.30232035323E+02 -0.13137448480E+03  0.13720126592E+03  0.47000000000E+01 0. -1.
         -5    1    3    3    0  503 -0.11770242225E+01  0.44086139987E+02  0.21926808185E+02  0.49475731850E+02  0.47000000000E+01 0.  1.
          5    1    3    3  503    0 -0.15498776510E+02 -0.25058147434E+02 -0.34369451893E+02  0.45513427135E+02  0.47000000000E+01 0. -1.
         -5    1    4    4    0  502  0.41753004569E+02  0.11204042770E+02 -0.41680564589E+02  0.60234570053E+02  0.47000000000E+01 0.  1.
<mgrwt>
<rscale>  0 0.94822940E+02</rscale>
<asrwt>0</asrwt>
<pdfrwt beam="1">  1        1 0.36763284E-01 0.95041355E+02</pdfrwt>
<pdfrwt beam="2">  1       -1 0.82251770E-02 0.95041355E+02</pdfrwt>
<totfact> 0.88689049E+03</totfact>
</mgrwt>
</event>
<event>
 8    1  0.2964543E-004  0.9211560E+02  0.7546771E-02  0.1298099E+00
          1   -1    0    0  501    0  0.00000000000E+00  0.00000000000E+00  0.11438052734E+03  0.11438052734E+03  0.00000000000E+00 0. -1.
         -1   -1    0    0    0  501 -0.00000000000E+00 -0.00000000000E+00 -0.37769771757E+03  0.37769771757E+03  0.00000000000E+00 0.  1.
         23    2    1    2    0    0  0.15959354701E+02 -0.67118954100E+01 -0.35242874704E+03  0.36426817722E+03  0.90473933540E+02 0.  0.
         23    2    1    2    0    0 -0.15959354701E+02  0.67118954100E+01  0.89111556811E+02  0.12781006769E+03  0.89971069263E+02 0.  0.
          5    1    4    4  502    0 -0.51811584529E+02 -0.47062857546E+01  0.62653404160E+02  0.81572841496E+02  0.47000000000E+01 0. -1.
         -5    1    3    3    0  503 -0.78987113876E+01 -0.33494101406E+02 -0.29033951053E+03  0.29240958577E+03  0.47000000000E+01 0.  1.
          5    1    3    3  503    0  0.23858066088E+02  0.26782205996E+02 -0.62089236508E+02  0.71858591453E+02  0.47000000000E+01 0. -1.
         -5    1    4    4    0  502  0.35852229828E+02  0.11418181165E+02  0.26458152651E+02  0.46237226198E+02  0.47000000000E+01 0.  1.
<mgrwt>
<rscale>  0 0.91991885E+02</rscale>
<asrwt>0</asrwt>
<pdfrwt beam="1">  1        1 0.17597004E-01 0.92115597E+02</pdfrwt>
<pdfrwt beam="2">  1       -1 0.58107342E-01 0.92115597E+02</pdfrwt>
<totfact> 0.91533786E+02</totfact>
</mgrwt>
</event>
<event>
 8    1  0.2964543E-004  0.9618330E+02  0.7546771E-02  0.1291343E+00
          2   -1    0    0  501    0  0.00000000000E+00  0.00000000000E+00  0.89473251159E+03  0.89473251159E+03  0.00000000000E+00 0. -1.
         -2   -1    0    0    0  501 -0.00000000000E+00 -0.00000000000E+00 -0.55781436500E+02  0.55781436500E+02  0.00000000000E+00 0.  1.
         23    2    1    2    0    0 -0.11382301562E+02 -0.14146046081E+01 -0.99736302724E+01  0.96699018249E+02  0.95496957724E+02 0.  0.
         23    2    1    2    0    0  0.11382301562E+02  0.14146046081E+01  0.84892470537E+03  0.85381492984E+03  0.90527460746E+02 0.  0.
          5    1    3    3  502    0  0.55840387051E+01  0.45407237313E+02 -0.76564907698E+01  0.46623068749E+02  0.47000000000E+01 0. -1.
         -5    1    4    4    0  503  0.37441123955E+02 -0.31396115065E+02  0.45783259665E+03  0.46045665416E+03  0.47000000000E+01 0.  1.
          5    1    4    4  503    0 -0.26058822393E+02  0.32810719673E+02  0.39109210872E+03  0.39335827569E+03  0.47000000000E+01 0. -1.
         -5    1    3    3    0  502 -0.16966340267E+02 -0.46821841921E+02 -0.23171395025E+01  0.50075949501E+02  0.47000000000E+01 0.  1.
<mgrwt>
<rscale>  0 0.94925825E+02</rscale>
<asrwt>0</asrwt>
<pdfrwt beam="1">  1        2 0.13765115E+00 0.96183298E+02</pdfrwt>
<pdfrwt beam="2">  1       -2 0.85817601E-02 0.96183298E+02</pdfrwt>
<totfact> 0.25319574E+03</totfact>
</mgrwt>
</event>
<event>
 8    1  0.2964543E-004  0.1086595E+03  0.7546771E-02  0.1263537E+00
          1   -1    0    0  501    0  0.00000000000E+00  0.00000000000E+00  0.41418238525E+03  0.41418238525E+03  0.00000000000E+00 0. -1.
         -1   -1    0    0    0  501 -0.00000000000E+00 -0.00000000000E+00 -0.66318026203E+02  0.66318026203E+02  0.00000000000E+00 0.  1.
         23    2    1    2    0    0 -0.58657883194E+02 -0.33687616250E+01  0.35629368996E+03  0.37249440452E+03  0.91404551759E+02 0.  0.
         23    2    1    2    0    0  0.58657883194E+02  0.33687616250E+01 -0.84293309059E+01  0.10800600693E+03  0.90233852287E+02 0.  0.
          5    1    3    3  502    0 -0.12857329341E+01  0.35713945420E+02  0.83116890291E+02  0.90596062046E+02  0.47000000000E+01 0. -1.
         -5    1    3    3    0  502 -0.57372150260E+02 -0.39082707045E+02  0.27317679967E+03  0.28189834248E+03  0.47000000000E+01 0.  1.
          5    1    4    4  503    0  0.18776323635E+02  0.40921083161E+02 -0.23491272976E+02  0.51000149826E+02  0.47000000000E+01 0. -1.
         -5    1    4    4    0  503  0.39881559560E+02 -0.37552321536E+02  0.15061942070E+02  0.57005857107E+02  0.47000000000E+01 0.  1.
<mgrwt>
<rscale>  0 0.10841293E+03</rscale>
<asrwt>0</asrwt>
<pdfrwt beam="1">  1        1 0.63720365E-01 0.10865950E+03</pdfrwt>
<pdfrwt beam="2">  1       -1 0.10202774E-01 0.10865950E+03</pdfrwt>
<totfact> 0.32846364E+03</totfact>
</mgrwt>
</event>
<event>
 8    1  0.2964543E-004  0.1280775E+03  0.7546771E-02  0.1230936E+00
          2   -1    0    0  501    0  0.00000000000E+00  0.00000000000E+00  0.84576005154E+02  0.84576005154E+02  0.00000000000E+00 0. -1.
         -2   -1    0    0    0  501 -0.00000000000E+00 -0.00000000000E+00 -0.21355803535E+03  0.21355803535E+03  0.00000000000E+00 0.  1.
         23    2    1    2    0    0 -0.80846899079E+01 -0.86331806157E+02 -0.16309261654E+02  0.12754974873E+03  0.92110821410E+02 0.  0.
         23    2    1    2    0    0  0.80846899079E+01  0.86331806157E+02 -0.11267276854E+03  0.17058429178E+03  0.94261895079E+02 0.  0.
          5    1    3    3  502    0 -0.37315817887E+02 -0.75829939515E+02  0.11715802475E+02  0.85451740878E+02  0.47000000000E+01 0. -1.
         -5    1    3    3    0  502  0.29231127979E+02 -0.10501866642E+02 -0.28025064130E+02  0.42098007855E+02  0.47000000000E+01 0.  1.
          5    1    4    4  503    0 -0.13293929397E+02  0.20638649022E+02 -0.96218566866E+02  0.99412197451E+02  0.47000000000E+01 0. -1.
         -5    1    4    4    0  503  0.21378619305E+02  0.65693157134E+02 -0.16454201679E+02  0.71172094325E+02  0.47000000000E+01 0.  1.
<mgrwt>
<rscale>  0 0.12768199E+03</rscale>
<asrwt>0</asrwt>
<pdfrwt beam="1">  1        2 0.13011693E-01 0.12807751E+03</pdfrwt>
<pdfrwt beam="2">  1       -2 0.32855082E-01 0.12807751E+03</pdfrwt>
<totfact> 0.38147972E+03</totfact>
</mgrwt>
</event>
<event>
 8    1  0.2964543E-004  0.3022499E+03  0.7546771E-02  0.1084149E+00
          2   -1    0    0  501    0  0.00000000000E+00  0.00000000000E+00  0.16303749212E+03  0.16303749212E+03  0.00000000000E+00 0. -1.
         -2   -1    0    0    0  501 -0.00000000000E+00 -0.00000000000E+00 -0.56008166040E+03  0.56008166040E+03  0.00000000000E+00 0.  1.
         23    2    1    2    0    0 -0.88935436661E+02 -0.27404020321E+03 -0.19217457641E+03  0.35798008987E+03  0.90615297009E+02 0.  0.
         23    2    1    2    0    0  0.88935436661E+02  0.27404020321E+03 -0.20486959187E+03  0.36513906266E+03  0.91364328559E+02 0.  0.
          5    1    4    4  502    0  0.51591157255E+02  0.17477261708E+03 -0.74283256265E+02  0.19684310338E+03  0.47000000000E+01 0. -1.
         -5    1    4    4    0  502  0.37344279406E+02  0.99267586134E+02 -0.13058633560E+03  0.16829595927E+03  0.47000000000E+01 0.  1.
          5    1    3    3  503    0 -0.14345520050E+02 -0.82421914769E+02 -0.10564685447E+03  0.13484255203E+03  0.47000000000E+01 0. -1.
         -5    1    3    3    0  503 -0.74589916610E+02 -0.19161828845E+03 -0.86527721940E+02  0.22313753783E+03  0.47000000000E+01 0.  1.
<mgrwt>
<rscale>  0 0.30219346E+03</rscale>
<asrwt>0</asrwt>
<pdfrwt beam="1">  1        2 0.25082691E-01 0.30224987E+03</pdfrwt>
<pdfrwt beam="2">  1       -2 0.86166410E-01 0.30224987E+03</pdfrwt>
<totfact> 0.25955529E+02</totfact>
</mgrwt>
</event>
<event>
 8    1  0.2964543E-004  0.9364757E+02  0.7546771E-02  0.1294484E+00
          3   -1    0    0  501    0  0.00000000000E+00  0.00000000000E+00  0.68865736919E+02  0.68865736919E+02  0.00000000000E+00 0. -1.
         -3   -1    0    0    0  501 -0.00000000000E+00 -0.00000000000E+00 -0.29210199588E+03  0.29210199588E+03  0.00000000000E+00 0.  1.
         23    2    1    2    0    0  0.22138240879E+01 -0.19705370196E+02 -0.24728592434E+03  0.26428136330E+03  0.91110416402E+02 0.  0.
         23    2    1    2    0    0 -0.22138240879E+01  0.19705370196E+02  0.24049665381E+02  0.96686369502E+02  0.91524122563E+02 0.  0.
          5    1    3    3  502    0  0.23164398701E+02 -0.46762168962E+02 -0.98833547873E+02  0.11186353292E+03  0.47000000000E+01 0. -1.
         -5    1    4    4    0  503 -0.29915935633E+02 -0.25861552939E+02  0.14036851262E+02  0.42224475350E+02  0.47000000000E+01 0.  1.
          5    1    4    4  503    0  0.27702111545E+02  0.45566923135E+02  0.10012814119E+02  0.54461894152E+02  0.47000000000E+01 0. -1.
         -5    1    3    3    0  502 -0.20950574613E+02  0.27056798767E+02 -0.14845237647E+03  0.15241783037E+03  0.47000000000E+01 0.  1.
<mgrwt>
<rscale>  0 0.93546336E+02</rscale>
<asrwt>0</asrwt>
<pdfrwt beam="1">  1        3 0.10594729E-01 0.93647571E+02</pdfrwt>
<pdfrwt beam="2">  1       -3 0.44938769E-01 0.93647571E+02</pdfrwt>
<totfact> 0.72034558E+02</totfact>
</mgrwt>
</event>
<event>
 8    1  0.2964543E-004  0.1056124E+03  0.7546771E-02  0.1273120E+00
          2   -1    0    0  501    0  0.00000000000E+00  0.00000000000E+00  0.73546588290E+03  0.73546588290E+03  0.00000000000E+00 0. -1.
         -2   -1    0    0    0  501 -0.00000000000E+00 -0.00000000000E+00 -0.12832547676E+03  0.12832547676E+03  0.00000000000E+00 0.  1.
         23    2    1    2    0    0  0.32957465266E+02  0.10427857080E+02 -0.10269333141E+03  0.14730882969E+03  0.99794971154E+02 0.  0.
         23    2    1    2    0    0 -0.32957465266E+02 -0.10427857080E+02  0.70983373755E+03  0.71648252997E+03  0.91040354066E+02 0.  0.
          5    1    4    4  502    0 -0.53882687424E+02 -0.33795943132E+02  0.53575932981E+03  0.53954208294E+03  0.47000000000E+01 0. -1.
         -5    1    3    3    0  503  0.18112573063E+02  0.51874828933E+02 -0.31608425537E+02  0.63562927439E+02  0.47000000000E+01 0.  1.
          5    1    3    3  503    0  0.14844892204E+02 -0.41446971853E+02 -0.71084905873E+02  0.83745902248E+02  0.47000000000E+01 0. -1.
         -5    1    4    4    0  502  0.20925222157E+02  0.23368086052E+02  0.17407440774E+03  0.17694044704E+03  0.47000000000E+01 0.  1.
<mgrwt>
<rscale>  0 0.10349179E+03</rscale>
<asrwt>0</asrwt>
<pdfrwt beam="1">  1        2 0.11314859E+00 0.10561236E+03</pdfrwt>
<pdfrwt beam="2">  1       -2 0.19742381E-01 0.10561236E+03</pdfrwt>
<totfact> 0.85094073E+02</totfact>
</mgrwt>
</event>
<event>
 8    1  0.2964543E-004  0.1184010E+03  0.7546771E-02  0.1245829E+00
          2   -1    0    0  501    0  0.00000000000E+00  0.00000000000E+00  0.57668660963E+02  0.57668660963E+02  0.00000000000E+00 0. -1.
         -2   -1    0    0    0  501 -0.00000000000E+00 -0.00000000000E+00 -0.24996073125E+03  0.24996073125E+03  0.00000000000E+00 0.  1.
         23    2    1    2    0    0 -0.15814480628E+02 -0.74656660131E+02 -0.12221213909E+03  0.17004309050E+03  0.90305763855E+02 0.  0.
         23    2    1    2    0    0  0.15814480628E+02  0.74656660131E+02 -0.70079931198E+02  0.13758630172E+03  0.90526675426E+02 0.  0.
          5    1    3    3  502    0 -0.50756117755E+02 -0.29658297353E+02 -0.77950453829E+02  0.97745390396E+02  0.47000000000E+01 0. -1.
         -5    1    4    4    0  503  0.25593194327E+02  0.10057754003E+02 -0.66350289065E+02  0.71976529997E+02  0.47000000000E+01 0.  1.
          5    1    4    4  503    0 -0.97787136990E+01  0.64598906128E+02 -0.37296421333E+01  0.65609771718E+02  0.47000000000E+01 0. -1.
         -5    1    3    3    0  502  0.34941637127E+02 -0.44998362778E+02 -0.44261685258E+02  0.72297700100E+02  0.47000000000E+01 0.  1.
<mgrwt>
<rscale>  0 0.11835876E+03</rscale>
<asrwt>0</asrwt>
<pdfrwt beam="1">  1        2 0.88721016E-02 0.11840099E+03</pdfrwt>
<pdfrwt beam="2">  1       -2 0.38455498E-01 0.11840099E+03</pdfrwt>
<totfact> 0.45146883E+03</totfact>
</mgrwt>
</event>
<event>
 8    1  0.2964543E-004  0.1617235E+03  0.7546771E-02  0.1187813E+00
         -1   -1    0    0    0  501 -0.00000000000E+00  0.00000000000E+00  0.42468170075E+02  0.42468170075E+02  0.00000000000E+00 0.  1.
          1   -1    0    0  501    0  0.00000000000E+00 -0.00000000000E+00 -0.60879401129E+03  0.60879401129E+03  0.00000000000E+00 0. -1.
         23    2    1    2    0    0  0.36805437974E+02 -0.12419838652E+03 -0.31486399069E+03  0.35228464889E+03  0.90472436299E+02 0.  0.
         23    2    1    2    0    0 -0.36805437974E+02  0.12419838652E+03 -0.25146185053E+03  0.29897753248E+03  0.96822637745E+02 0.  0.
          5    1    4    4  502    0 -0.20008074782E+02  0.33315330371E+02 -0.10018342375E+02  0.40406577164E+02  0.47000000000E+01 0. -1.
         -5    1    3    3    0  503 -0.22200499608E+02 -0.42467488932E+02 -0.16288602353E+03  0.16985375021E+03  0.47000000000E+01 0.  1.
          5    1    3    3  503    0  0.59005937582E+02 -0.81730897585E+02 -0.15197796717E+03  0.18243089868E+03  0.47000000000E+01 0. -1.
         -5    1    4    4    0  502 -0.16797363193E+02  0.90883056147E+02 -0.24144350815E+03  0.25857095532E+03  0.47000000000E+01 0.  1.
<mgrwt>
<rscale>  0 0.16078543E+03</rscale>
<asrwt>0</asrwt>
<pdfrwt beam="1">  1        1 0.93660615E-01 0.16172354E+03</pdfrwt>
<pdfrwt beam="2">  1       -1 0.65335648E-02 0.16172354E+03</pdfrwt>
<totfact> 0.39581900E+03</totfact>
</mgrwt>
</event>
<event>
 8    1  0.2964543E-004  0.1556583E+03  0.7546771E-02  0.1197065E+00
          1   -1    0    0  501    0  0.00000000000E+00  0.00000000000E+00  0.19356530445E+03  0.19356530445E+03  0.00000000000E+00 0. -1.
         -1   -1    0    0    0  501 -0.00000000000E+00 -0.00000000000E+00 -0.11744288970E+03  0.11744288970E+03  0.00000000000E+00 0.  1.
         23    2    1    2    0    0  0.61033040935E+02  0.89750489791E+02  0.54016975304E+02  0.16476454451E+03  0.11157660598E+03 0.  0.
         23    2    1    2    0    0 -0.61033040935E+02 -0.89750489791E+02  0.22105439451E+02  0.14624364964E+03  0.95490167570E+02 0.  0.
          5    1    3    3  502    0  0.90105246707E+02  0.48693266845E+02  0.21739726572E+02  0.10480789775E+03  0.47000000000E+01 0. -1.
         -5    1    4    4    0  503 -0.36211052633E+02 -0.22356563443E+02 -0.34252457540E+02  0.54830439623E+02  0.47000000000E+01 0.  1.
          5    1    4    4  503    0 -0.24821988302E+02 -0.67393926348E+02  0.56357896991E+02  0.91413210015E+02  0.47000000000E+01 0. -1.
         -5    1    3    3    0  502 -0.29072205772E+02  0.41057222946E+02  0.32277248732E+02  0.59956646756E+02  0.47000000000E+01 0.  1.
<mgrwt>
<rscale>  0 0.15280721E+03</rscale>
<asrwt>0</asrwt>
<pdfrwt beam="1">  1        1 0.29779278E-01 0.15565835E+03</pdfrwt>
<pdfrwt beam="2">  1       -1 0.18068137E-01 0.15565835E+03</pdfrwt>
<totfact> 0.35321479E+03</totfact>
</mgrwt>
</event>
<event>
 8    1  0.2964543E-004  0.9952042E+02  0.7546771E-02  0.1283977E+00
         -2   -1    0    0    0  501 -0.00000000000E+00  0.00000000000E+00  0.77698591543E+02  0.77698591543E+02  0.00000000000E+00 0.  1.
          2   -1    0    0  501    0  0.00000000000E+00 -0.00000000000E+00 -0.13307847696E+03  0.13307847696E+03  0.00000000000E+00 0. -1.
         23    2    1    2    0    0  0.37649637365E+02  0.14620642863E+02 -0.58448166460E+02  0.11120936491E+03  0.85557444379E+02 0.  0.
         23    2    1    2    0    0 -0.37649637365E+02 -0.14620642863E+02  0.30682810444E+01  0.99567703595E+02  0.90956334904E+02 0.  0.
          5    1    4    4  502    0 -0.25820948075E+02  0.31241181729E+01 -0.41921599982E+02  0.49557966251E+02  0.47000000000E+01 0. -1.
         -5    1    4    4    0  502 -0.11828689290E+02 -0.17744761036E+02  0.44989881026E+02  0.50009737345E+02  0.47000000000E+01 0.  1.
          5    1    3    3  503    0 -0.19389107239E+02 -0.18053874958E+02 -0.75667141380E+01  0.27950403278E+02  0.47000000000E+01 0. -1.
         -5    1    3    3    0  503  0.57038744605E+02  0.32674517821E+02 -0.50881452322E+02  0.83258961628E+02  0.47000000000E+01 0.  1.
<mgrwt>
<rscale>  0 0.98269809E+02</rscale>
<asrwt>0</asrwt>
<pdfrwt beam="1">  1        2 0.20473612E-01 0.99520416E+02</pdfrwt>
<pdfrwt beam="2">  1       -2 0.11953630E-01 0.99520416E+02</pdfrwt>
<totfact> 0.12243452E+04</totfact>
</mgrwt>
</event>
<event>
 8    1  0.2964543E-004  0.1037034E+03  0.7546771E-02  0.1273080E+00
          1   -1    0    0  501    0  0.00000000000E+00  0.00000000000E+00  0.11483157109E+03  0.11483157109E+03  0.00000000000E+00 0. -1.
         -1   -1    0    0    0  501 -0.00000000000E+00 -0.00000000000E+00 -0.13835055534E+03  0.13835055534E+03  0.00000000000E+00 0.  1.
         23    2    1    2    0    0 -0.21683938377E+02  0.42779474443E+02 -0.84293941382E+02  0.13364081521E+03  0.91946301275E+02 0.  0.
         23    2    1    2    0    0  0.21683938377E+02 -0.42779474443E+02  0.60774957134E+02  0.11954131122E+03  0.91083769451E+02 0.  0.
          5    1    4    4  502    0  0.10244348615E+02 -0.68853218926E+02  0.26251162254E+02  0.74544791601E+02  0.47000000000E+01 0. -1.
         -5    1    4    4    0  502  0.11439589762E+02  0.26073744484E+02  0.34523794879E+02  0.44996519623E+02  0.47000000000E+01 0.  1.
          5    1    3    3  503    0  0.25187500012E+02  0.31307131853E+02 -0.50878839341E+01  0.40774050874E+02  0.47000000000E+01 0. -1.
         -5    1    3    3    0  503 -0.46871438388E+02  0.11472342589E+02 -0.79206057448E+02  0.92866764332E+02  0.47000000000E+01 0.  1.
<mgrwt>
<rscale>  0 0.10351190E+03</rscale>
<asrwt>0</asrwt>
<pdfrwt beam="1">  1        1 0.17666395E-01 0.10370342E+03</pdfrwt>
<pdfrwt beam="2">  1       -1 0.21284701E-01 0.10370342E+03</pdfrwt>
<totfact> 0.51190738E+03</totfact>
</mgrwt>
</event>
<event>
 8    1  0.2964543E-004  0.1043802E+03  0.7546771E-02  0.1271648E+00
         -2   -1    0    0    0  501 -0.00000000000E+00  0.00000000000E+00  0.25767661377E+03  0.25767661377E+03  0.00000000000E+00 0.  1.
          2   -1    0    0  501    0  0.00000000000E+00 -0.00000000000E+00 -0.85310641569E+02  0.85310641569E+02  0.00000000000E+00 0. -1.
         23    2    1    2    0    0  0.48475247094E+02 -0.45416193219E+00 -0.36080738647E+02  0.10986654990E+03  0.91753927664E+02 0.  0.
         23    2    1    2    0    0 -0.48475247094E+02  0.45416193219E+00  0.20844671085E+03  0.23312070544E+03  0.92440122228E+02 0.  0.
          5    1    4    4  502    0  0.13479863601E+02 -0.24916121896E+02  0.26060029223E+02  0.38778021819E+02  0.47000000000E+01 0. -1.
         -5    1    4    4    0  502 -0.61955110695E+02  0.25370283829E+02  0.18238668162E+03  0.19434268362E+03  0.47000000000E+01 0.  1.
          5    1    3    3  503    0  0.46673163869E+02 -0.40862250957E+02 -0.14915040190E+02  0.63973871249E+02  0.47000000000E+01 0. -1.
         -5    1    3    3    0  503  0.18020832248E+01  0.40408089025E+02 -0.21165698457E+02  0.45892678651E+02  0.47000000000E+01 0.  1.
<mgrwt>
<rscale>  0 0.10422809E+03</rscale>
<asrwt>0</asrwt>
<pdfrwt beam="1">  1        2 0.13124714E-01 0.10438023E+03</pdfrwt>
<pdfrwt beam="2">  1       -2 0.39642556E-01 0.10438023E+03</pdfrwt>
<totfact> 0.26337162E+03</totfact>
</mgrwt>
</event>
<event>
 8    1  0.2964543E-004  0.1321656E+03  0.7546771E-02  0.1224710E+00
          1   -1    0    0  501    0  0.00000000000E+00  0.00000000000E+00  0.30065956303E+03  0.30065956303E+03  0.00000000000E+00 0. -1.
         -1   -1    0    0    0  501 -0.00000000000E+00 -0.00000000000E+00 -0.58416575975E+02  0.58416575975E+02  0.00000000000E+00 0.  1.
         23    2    1    2    0    0 -0.82123863336E+02  0.48853825521E+02  0.14318076208E+03  0.19485499222E+03  0.91305597682E+02 0.  0.
         23    2    1    2    0    0  0.82123863336E+02 -0.48853825521E+02  0.99062224980E+02  0.16422114678E+03  0.89578096852E+02 0.  0.
          5    1    3    3  502    0 -0.58478748556E+02  0.23883220456E+02  0.14687337554E+03  0.15995015066E+03  0.47000000000E+01 0. -1.
         -5    1    4    4    0  503  0.51687377993E+02 -0.66414146052E+02  0.97291496064E+02  0.12872509097E+03  0.47000000000E+01 0.  1.
          5    1    4    4  503    0  0.30436485343E+02  0.17560320531E+02  0.17707289155E+01  0.35496055810E+02  0.47000000000E+01 0. -1.
         -5    1    3    3    0  502 -0.23645114780E+02  0.24970605065E+02 -0.36926134693E+01  0.34904841563E+02  0.47000000000E+01 0.  1.
<mgrwt>
<rscale>  0 0.13186769E+03</rscale>
<asrwt>0</asrwt>
<pdfrwt beam="1">  1        1 0.46255317E-01 0.13216557E+03</pdfrwt>
<pdfrwt beam="2">  1       -1 0.89871657E-02 0.13216557E+03</pdfrwt>
<totfact> 0.59961260E+03</totfact>
</mgrwt>
</event>
<event>
 8    1  0.2964543E-004  0.1498938E+03  0.7546771E-02  0.1202397E+00
         -2   -1    0    0    0  501 -0.00000000000E+00  0.00000000000E+00  0.20083268292E+03  0.20083268292E+03  0.00000000000E+00 0.  1.
          2   -1    0    0  501    0  0.00000000000E+00 -0.00000000000E+00 -0.13913079626E+03  0.13913079626E+03  0.00000000000E+00 0. -1.
         23    2    1    2    0    0 -0.78973219768E+02  0.79791185294E+02  0.11122757957E+03  0.18209979131E+03  0.90472961977E+02 0.  0.
         23    2    1    2    0    0  0.78973219768E+02 -0.79791185294E+02 -0.49525692911E+02  0.15786368786E+03  0.99321432705E+02 0.  0.
          5    1    3    3  502    0 -0.81972095722E+01  0.19347675224E+02  0.81477184271E+02  0.84274244809E+02  0.47000000000E+01 0. -1.
         -5    1    4    4    0  503  0.75038021764E+01  0.20658139333E+02 -0.22020583091E+02  0.31465248251E+02  0.47000000000E+01 0.  1.
          5    1    4    4  503    0  0.71469417592E+02 -0.10044932463E+03 -0.27505109820E+02  0.12639843961E+03  0.47000000000E+01 0. -1.
         -5    1    3    3    0  502 -0.70776010196E+02  0.60443510070E+02  0.29750395298E+02  0.97825546506E+02  0.47000000000E+01 0.  1.
<mgrwt>
<rscale>  0 0.14844525E+03</rscale>
<asrwt>0</asrwt>
<pdfrwt beam="1">  1        2 0.21404738E-01 0.14989379E+03</pdfrwt>
<pdfrwt beam="2">  1       -2 0.30897336E-01 0.14989379E+03</pdfrwt>
<totfact> 0.24191275E+03</totfact>
</mgrwt>
</event>
<event>
 8    1  0.2964543E-004  0.1268027E+03  0.7546771E-02  0.1233168E+00
          1   -1    0    0  501    0  0.00000000000E+00  0.00000000000E+00  0.20326155475E+02  0.20326155475E+02  0.00000000000E+00 0. -1.
         -1   -1    0    0    0  501 -0.00000000000E+00 -0.00000000000E+00 -0.90357532975E+03  0.90357532975E+03  0.00000000000E+00 0.  1.
         23    2    1    2    0    0  0.35786049292E+02  0.74956997605E+02 -0.27205130667E+03  0.30015137418E+03  0.95810965686E+02 0.  0.
         23    2    1    2    0    0 -0.35786049292E+02 -0.74956997605E+02 -0.61119786760E+03  0.62375011104E+03  0.92747910233E+02 0.  0.
          5    1    4    4  502    0  0.28164186280E+02 -0.73582654604E+01 -0.19754989835E+03  0.19973837337E+03  0.47000000000E+01 0. -1.
         -5    1    4    4    0  502 -0.63950235571E+02 -0.67598732144E+02 -0.41364796925E+03  0.42401173767E+03  0.47000000000E+01 0.  1.
          5    1    3    3  503    0  0.26373867012E+02  0.29310131554E+02 -0.21296760955E+02  0.45058924755E+02  0.47000000000E+01 0. -1.
         -5    1    3    3    0  503  0.94121822795E+01  0.45646866051E+02 -0.25075454572E+03  0.25509244942E+03  0.47000000000E+01 0.  1.
<mgrwt>
<rscale>  0 0.12622423E+03</rscale>
<asrwt>0</asrwt>
<pdfrwt beam="1">  1        1 0.31271013E-02 0.12680274E+03</pdfrwt>
<pdfrwt beam="2">  1       -1 0.13901157E+00 0.12680274E+03</pdfrwt>
<totfact> 0.14394206E+03</totfact>
</mgrwt>
</event>
<event>
 8    1  0.2964543E-004  0.9639841E+02  0.7546771E-02  0.1288512E+00
         -1   -1    0    0    0  501 -0.00000000000E+00  0.00000000000E+00  0.33093756509E+02  0.33093756509E+02  0.00000000000E+00 0.  1.
          1   -1    0    0  501    0  0.00000000000E+00 -0.00000000000E+00 -0.29922499171E+03  0.29922499171E+03  0.00000000000E+00 0. -1.
         23    2    1    2    0    0  0.12825811788E+02  0.27007465348E+02 -0.17741252691E+03  0.20191051918E+03  0.91644685718E+02 0.  0.
         23    2    1    2    0    0 -0.12825811788E+02 -0.27007465348E+02 -0.88718708293E+02  0.13040822904E+03  0.90782114793E+02 0.  0.
          5    1    4    4  502    0 -0.35259722847E+02 -0.19081827988E+02 -0.96771972393E+02  0.10485355910E+03  0.47000000000E+01 0. -1.
         -5    1    3    3    0  503 -0.35411835753E+02  0.21374132042E+02 -0.11742284102E+03  0.12458356724E+03  0.47000000000E+01 0.  1.
          5    1    3    3  503    0  0.48237647542E+02  0.56333333063E+01 -0.59989685886E+02  0.77326951945E+02  0.47000000000E+01 0. -1.
         -5    1    4    4    0  502  0.22433911059E+02 -0.79256373601E+01  0.80532641001E+01  0.25554669937E+02  0.47000000000E+01 0.  1.
<mgrwt>
<rscale>  0 0.96192836E+02</rscale>
<asrwt>0</asrwt>
<pdfrwt beam="1">  1        1 0.46034613E-01 0.96398408E+02</pdfrwt>
<pdfrwt beam="2">  1       -1 0.50913473E-02 0.96398408E+02</pdfrwt>
<totfact> 0.13724245E+04</totfact>
</mgrwt>
</event>
<event>
 8    1  0.2964543E-004  0.1026409E+03  0.7546771E-02  0.1279616E+00
         -1   -1    0    0    0  501 -0.00000000000E+00  0.00000000000E+00  0.52930825067E+03  0.52930825067E+03  0.00000000000E+00 0.  1.
          1   -1    0    0  501    0  0.00000000000E+00 -0.00000000000E+00 -0.18215409993E+02  0.18215409993E+02  0.00000000000E+00 0. -1.
         23    2    1    2    0    0 -0.35186872845E+02 -0.52530647882E+01  0.27389948448E+03  0.29249972835E+03  0.96277997385E+02 0.  0.
         23    2    1    2    0    0  0.35186872845E+02  0.52530647882E+01  0.23719335620E+03  0.25502393231E+03  0.86664912822E+02 0.  0.
          5    1    3    3  502    0  0.13657690955E+02  0.31916184924E+02  0.55854182692E+02  0.65931442473E+02  0.47000000000E+01 0. -1.
         -5    1    3    3    0  502 -0.48844563800E+02 -0.37169249713E+02  0.21804530178E+03  0.22656828588E+03  0.47000000000E+01 0.  1.
          5    1    4    4  503    0  0.29374434434E+02 -0.26714432721E+02  0.45634445339E+02  0.60672159310E+02  0.47000000000E+01 0. -1.
         -5    1    4    4    0  503  0.58124384102E+01  0.31967497509E+02  0.19155891086E+03  0.19435177300E+03  0.47000000000E+01 0.  1.
<mgrwt>
<rscale>  0 0.10032421E+03</rscale>
<asrwt>0</asrwt>
<pdfrwt beam="1">  1        1 0.28023712E-02 0.10264094E+03</pdfrwt>
<pdfrwt beam="2">  1       -1 0.81432027E-01 0.10264094E+03</pdfrwt>
<totfact> 0.54957685E+03</totfact>
</mgrwt>
</event>
<event>
 8    1  0.2964543E-004  0.1006685E+03  0.7546771E-02  0.1295335E+00
         -2   -1    0    0    0  501 -0.00000000000E+00  0.00000000000E+00  0.85305386624E+02  0.85305386624E+02  0.00000000000E+00 0.  1.
          2   -1    0    0  501    0  0.00000000000E+00 -0.00000000000E+00 -0.20033296678E+03  0.20033296678E+03  0.00000000000E+00 0. -1.
         23    2    1    2    0    0 -0.72117066764E+01 -0.42066913602E+02  0.52188058931E+02  0.90458374772E+02  0.60311608652E+02 0.  0.
         23    2    1    2    0    0  0.72117066764E+01  0.42066913602E+02 -0.16721563908E+03  0.19517997863E+03  0.91173023262E+02 0.  0.
          5    1    3    3  502    0  0.16695563056E+02 -0.13560312662E+02 -0.45171932364E+01  0.22474851279E+02  0.47000000000E+01 0. -1.
         -5    1    3    3    0  502 -0.23907269733E+02 -0.28506600939E+02  0.56705252167E+02  0.67983523493E+02  0.47000000000E+01 0.  1.
          5    1    4    4  503    0  0.48538668961E+02  0.16443623786E+02 -0.93927513191E+02  0.10710211427E+03  0.47000000000E+01 0. -1.
         -5    1    4    4    0  503 -0.41326962285E+02  0.25623289815E+02 -0.73288125891E+02  0.88077864355E+02  0.47000000000E+01 0.  1.
<mgrwt>
<rscale>  0 0.93177421E+02</rscale>
<asrwt>0</asrwt>
<pdfrwt beam="1">  1        2 0.30820456E-01 0.10066854E+03</pdfrwt>
<pdfrwt beam="2">  1       -2 0.13123906E-01 0.10066854E+03</pdfrwt>
<totfact> 0.67563619E+03</totfact>
</mgrwt>
</event>
<event>
 8    1  0.2964543E-004  0.4658468E+03  0.7546771E-02  0.1023122E+00
          2   -1    0    0  501    0  0.00000000000E+00  0.00000000000E+00  0.14880636230E+04  0.14880636230E+04  0.00000000000E+00 0.  1.
         -2   -1    0    0    0  501 -0.00000000000E+00 -0.00000000000E+00 -0.18146186770E+03  0.18146186770E+03  0.00000000000E+00 0. -1.
         23    2    1    2    0    0 -0.20839455606E+03  0.40606875974E+03  0.28308522972E+03  0.54511514193E+03  0.93237020735E+02 0.  0.
         23    2    1    2    0    0  0.20839455606E+03 -0.40606875974E+03  0.10235165256E+04  0.11244103488E+04  0.91610183104E+02 0.  0.
          5    1    4    4  502    0  0.55707540797E+02 -0.41588777853E+02  0.13320465756E+03  0.15032806571E+03  0.47000000000E+01 0. -1.
         -5    1    3    3    0  503 -0.33506175839E+02  0.41537065361E+02  0.69739808320E+02  0.87941585627E+02  0.47000000000E+01 0.  1.
          5    1    3    3  503    0 -0.17488838022E+03  0.36453169438E+03  0.21334542140E+03  0.45717355630E+03  0.47000000000E+01 0. -1.
         -5    1    4    4    0  502  0.15268701526E+03 -0.36447998189E+03  0.89031186804E+03  0.97408228308E+03  0.47000000000E+01 0.  1.
<mgrwt>
<rscale>  0 0.46576609E+03</rscale>
<asrwt>0</asrwt>
<pdfrwt beam="1">  1        2 0.22893286E+00 0.46584683E+03</pdfrwt>
<pdfrwt beam="2">  1       -2 0.27917211E-01 0.46584683E+03</pdfrwt>
<totfact> 0.15790186E+02</totfact>
</mgrwt>
</event>
<event>
 8    1  0.2964543E-004  0.1010634E+03  0.7546771E-02  0.1278282E+00
         -1   -1    0    0    0  501 -0.00000000000E+00  0.00000000000E+00  0.49208468273E+03  0.49208468273E+03  0.00000000000E+00 0.  1.
          1   -1    0    0  501    0  0.00000000000E+00 -0.00000000000E+00 -0.20969398394E+02  0.20969398394E+02  0.00000000000E+00 0. -1.
         23    2    1    2    0    0 -0.24433836996E+02  0.31675171497E+02  0.20560227672E+03  0.22909848693E+03  0.92808898507E+02 0.  0.
         23    2    1    2    0    0  0.24433836996E+02 -0.31675171497E+02  0.26551300762E+03  0.28395559419E+03  0.92375826818E+02 0.  0.
          5    1    4    4  502    0  0.20938498191E+02  0.27345596694E+02  0.53484340432E+02  0.63787671508E+02  0.47000000000E+01 0. -1.
         -5    1    4    4    0  502  0.34953388056E+01 -0.59020768191E+02  0.21202866718E+03  0.22016792268E+03  0.47000000000E+01 0.  1.
          5    1    3    3  503    0  0.61901669811E+01  0.52020164199E+02  0.16904286227E+03  0.17703670505E+03  0.47000000000E+01 0. -1.
         -5    1    3    3    0  503 -0.30624003977E+02 -0.20344992702E+02  0.36559414448E+02  0.52061781879E+02  0.47000000000E+01 0.  1.
<mgrwt>
<rscale>  0 0.10096391E+03</rscale>
<asrwt>0</asrwt>
<pdfrwt beam="1">  1        1 0.32260617E-02 0.10106345E+03</pdfrwt>
<pdfrwt beam="2">  1       -1 0.75705327E-01 0.10106345E+03</pdfrwt>
<totfact> 0.52417237E+03</totfact>
</mgrwt>
</event>
<event>
 8    1  0.2964543E-004  0.9392538E+02  0.7546771E-02  0.1294631E+00
         -1   -1    0    0    0  501 -0.00000000000E+00  0.00000000000E+00  0.10127962030E+03  0.10127962030E+03  0.00000000000E+00 0.  1.
          1   -1    0    0  501    0  0.00000000000E+00 -0.00000000000E+00 -0.33468433761E+03  0.33468433761E+03  0.00000000000E+00 0. -1.
         23    2    1    2    0    0 -0.46683435112E+01  0.11251066772E+02  0.71673669826E+02  0.11675430913E+03  0.91356848789E+02 0.  0.
         23    2    1    2    0    0  0.46683435112E+01 -0.11251066772E+02 -0.30507838714E+03  0.31920964878E+03  0.93132151481E+02 0.  0.
          5    1    4    4  502    0 -0.43101374258E+02  0.16330762655E+01 -0.16360821198E+03  0.16926349998E+03  0.47000000000E+01 0. -1.
         -5    1    3    3    0  503 -0.68623864456E+01  0.51195519177E+02  0.39172719694E+02  0.64997426870E+02  0.47000000000E+01 0.  1.
          5    1    3    3  503    0  0.21940429345E+01 -0.39944452405E+02  0.32500950131E+02  0.51756882265E+02  0.47000000000E+01 0. -1.
         -5    1    4    4    0  502  0.47769717769E+02 -0.12884143037E+02 -0.14147017516E+03  0.14994614879E+03  0.47000000000E+01 0.  1.
<mgrwt>
<rscale>  0 0.93482251E+02</rscale>
<asrwt>0</asrwt>
<pdfrwt beam="1">  1        1 0.51489898E-01 0.93925383E+02</pdfrwt>
<pdfrwt beam="2">  1       -1 0.15581480E-01 0.93925383E+02</pdfrwt>
<totfact> 0.22175368E+03</totfact>
</mgrwt>
</event>
<event>
 8    1  0.2964543E-004  0.1116810E+03  0.7546771E-02  0.1258871E+00
         -1   -1    0    0    0  501 -0.00000000000E+00  0.00000000000E+00  0.53958541011E+02  0.53958541011E+02  0.00000000000E+00 0.  1.
          1   -1    0    0  501    0  0.00000000000E+00 -0.00000000000E+00 -0.31996882496E+03  0.31996882496E+03  0.00000000000E+00 0. -1.
         23    2    1    2    0    0 -0.57942075615E+02  0.10414965602E+02 -0.29867909566E+02  0.11270738962E+03  0.91351562757E+02 0.  0.
         23    2    1    2    0    0  0.57942075615E+02 -0.10414965602E+02 -0.23614237438E+03  0.26121997635E+03  0.94904686025E+02 0.  0.
          5    1    4    4  502    0 -0.23723223315E+02 -0.15124034275E+02 -0.79137003282E+02  0.84120645657E+02  0.47000000000E+01 0. -1.
         -5    1    3    3    0  503  0.18989793454E+02  0.10097980837E+02 -0.27987381806E+02  0.35608496356E+02  0.47000000000E+01 0.  1.
          5    1    3    3  503    0 -0.76931869070E+02  0.31698476510E+00 -0.18805277597E+01  0.77098893264E+02  0.47000000000E+01 0. -1.
         -5    1    4    4    0  502  0.81665298930E+02  0.47090686736E+01 -0.15700537110E+03  0.17709933069E+03  0.47000000000E+01 0.  1.
<mgrwt>
<rscale>  0 0.11092254E+03</rscale>
<asrwt>0</asrwt>
<pdfrwt beam="1">  1        1 0.49225972E-01 0.11168104E+03</pdfrwt>
<pdfrwt beam="2">  1       -1 0.83013142E-02 0.11168104E+03</pdfrwt>
<totfact> 0.61913124E+03</totfact>
</mgrwt>
</event>
<event>
 8    1  0.2964543E-004  0.1063660E+03  0.7546771E-02  0.1268912E+00
         -1   -1    0    0    0  501 -0.00000000000E+00  0.00000000000E+00  0.23521321145E+02  0.23521321145E+02  0.00000000000E+00 0.  1.
          1   -1    0    0  501    0  0.00000000000E+00 -0.00000000000E+00 -0.46839417675E+03  0.46839417675E+03  0.00000000000E+00 0. -1.
         23    2    1    2    0    0  0.35610764918E+02 -0.34709134425E+02 -0.21582356098E+03  0.24061077199E+03  0.94025972644E+02 0.  0.
         23    2    1    2    0    0 -0.35610764918E+02  0.34709134425E+02 -0.22904929463E+03  0.25130472591E+03  0.90651173765E+02 0.  0.
          5    1    3    3  502    0  0.36805975954E+02 -0.60450887817E+02 -0.19385331252E+03  0.20642234976E+03  0.47000000000E+01 0. -1.
         -5    1    3    3    0  502 -0.11952110366E+01  0.25741753392E+02 -0.21970248454E+02  0.34188422225E+02  0.47000000000E+01 0.  1.
          5    1    4    4  503    0 -0.37041210673E+02  0.56445103707E+02 -0.10262319389E+03  0.12292969919E+03  0.47000000000E+01 0. -1.
         -5    1    4    4    0  503  0.14304457549E+01 -0.21735969282E+02 -0.12642610074E+03  0.12837502672E+03  0.47000000000E+01 0.  1.
<mgrwt>
<rscale>  0 0.10561532E+03</rscale>
<asrwt>0</asrwt>
<pdfrwt beam="1">  1        1 0.72060639E-01 0.10636604E+03</pdfrwt>
<pdfrwt beam="2">  1       -1 0.36186650E-02 0.10636604E+03</pdfrwt>
<totfact> 0.13055841E+04</totfact>
</mgrwt>
</event>
<event>
 8    1  0.2964543E-004  0.1049755E+03  0.7546771E-02  0.1275534E+00
          1   -1    0    0  501    0  0.00000000000E+00  0.00000000000E+00  0.32505705101E+03  0.32505705101E+03  0.00000000000E+00 0. -1.
         -1   -1    0    0    0  501 -0.00000000000E+00 -0.00000000000E+00 -0.30656864961E+02  0.30656864961E+02  0.00000000000E+00 0.  1.
         23    2    1    2    0    0  0.31178453458E+02 -0.41321210500E+02  0.14069762191E+03  0.16958404909E+03  0.79267840248E+02 0.  0.
         23    2    1    2    0    0 -0.31178453458E+02  0.41321210500E+02  0.15370256413E+03  0.18612986687E+03  0.91325301667E+02 0.  0.
          5    1    4    4  502    0 -0.99767461413E+01 -0.28825829441E+02  0.36220118171E+02  0.47586246615E+02  0.47000000000E+01 0.  1.
         -5    1    3    3    0  503  0.45705930004E+02 -0.56319415546E+02  0.10030344511E+03  0.12387001133E+03  0.47000000000E+01 0.  1.
          5    1    3    3  503    0 -0.14527476546E+02  0.14998205046E+02  0.40394176803E+02  0.45714037767E+02  0.47000000000E+01 0. -1.
         -5    1    4    4    0  502 -0.21201707317E+02  0.70147039941E+02  0.11748244596E+03  0.13854362026E+03  0.47000000000E+01 0. -1.
<mgrwt>
<rscale>  0 0.10229917E+03</rscale>
<asrwt>0</asrwt>
<pdfrwt beam="1">  1        1 0.50008775E-01 0.10497547E+03</pdfrwt>
<pdfrwt beam="2">  1       -1 0.47164410E-02 0.10497547E+03</pdfrwt>
<totfact> 0.13979817E+04</totfact>
</mgrwt>
</event>
<event>
 8    1  0.2964543E-004  0.1111791E+03  0.7546771E-02  0.1260250E+00
          1   -1    0    0  501    0  0.00000000000E+00  0.00000000000E+00  0.89695163686E+02  0.89695163686E+02  0.00000000000E+00 0. -1.
         -1   -1    0    0    0  501 -0.00000000000E+00 -0.00000000000E+00 -0.16224968404E+03  0.16224968404E+03  0.00000000000E+00 0.  1.
         23    2    1    2    0    0  0.35783359729E+02  0.43218833348E+02 -0.90358669252E+02  0.14326715255E+03  0.95981620638E+02 0.  0.
         23    2    1    2    0    0 -0.35783359729E+02 -0.43218833348E+02  0.17804148896E+02  0.10867769518E+03  0.91353912465E+02 0.  0.
          5    1    3    3  502    0  0.56522007243E+02  0.60439565154E+02 -0.59532992464E+02  0.10204874095E+03  0.47000000000E+01 0. -1.
         -5    1    3    3    0  502 -0.20738647514E+02 -0.17220731806E+02 -0.30825676788E+02  0.41218411591E+02  0.47000000000E+01 0.  1.
          5    1    4    4  503    0  0.26969877489E+02 -0.29719248070E+02 -0.42819485235E+01  0.40632906379E+02  0.47000000000E+01 0. -1.
         -5    1    4    4    0  503 -0.62753237218E+02 -0.13499585278E+02  0.22086097420E+02  0.68044788803E+02  0.47000000000E+01 0.  1.
<mgrwt>
<rscale>  0 0.11017309E+03</rscale>
<asrwt>0</asrwt>
<pdfrwt beam="1">  1        1 0.13799256E-01 0.11117908E+03</pdfrwt>
<pdfrwt beam="2">  1       -1 0.24961489E-01 0.11117908E+03</pdfrwt>
<totfact> 0.54566569E+03</totfact>
</mgrwt>
</event>
<event>
 8    1  0.2964543E-004  0.1226295E+03  0.7546771E-02  0.1239939E+00
          1   -1    0    0  501    0  0.00000000000E+00  0.00000000000E+00  0.98367093951E+03  0.98367093951E+03  0.00000000000E+00 0. -1.
         -1   -1    0    0    0  501 -0.00000000000E+00 -0.00000000000E+00 -0.19121044837E+02  0.19121044837E+02  0.00000000000E+00 0.  1.
         23    2    1    2    0    0  0.60428827099E+02 -0.29718822174E+02  0.71226834213E+03  0.72228533986E+03  0.99171918593E+02 0.  0.
         23    2    1    2    0    0 -0.60428827099E+02  0.29718822174E+02  0.25228155254E+03  0.28050664449E+03  0.10248484919E+03 0.  0.
          5    1    4    4  502    0 -0.78795485564E+02 -0.80967188965E+01  0.14709332478E+03  0.16713115088E+03  0.47000000000E+01 0. -1.
         -5    1    3    3    0  503  0.77993004240E+02 -0.47717000866E+02  0.48356360009E+03  0.49215410819E+03  0.47000000000E+01 0.  1.
          5    1    3    3  503    0 -0.17564177141E+02  0.17998178692E+02  0.22870474204E+03  0.23013123166E+03  0.47000000000E+01 0. -1.
         -5    1    4    4    0  502  0.18366658464E+02  0.37815541071E+02  0.10518822776E+03  0.11337549360E+03  0.47000000000E+01 0.  1.
<mgrwt>
<rscale>  0 0.12193490E+03</rscale>
<asrwt>0</asrwt>
<pdfrwt beam="1">  1        1 0.15133395E+00 0.12262951E+03</pdfrwt>
<pdfrwt beam="2">  1       -1 0.29417000E-02 0.12262951E+03</pdfrwt>
<totfact> 0.61814501E+03</totfact>
</mgrwt>
</event>
<event>
 8    1  0.2964543E-004  0.1207905E+03  0.7546771E-02  0.1247356E+00
          1   -1    0    0  501    0  0.00000000000E+00  0.00000000000E+00  0.11818932277E+03  0.11818932277E+03  0.00000000000E+00 0. -1.
         -1   -1    0    0    0  501 -0.00000000000E+00 -0.00000000000E+00 -0.11621710649E+03  0.11621710649E+03  0.00000000000E+00 0.  1.
         23    2    1    2    0    0 -0.59881902129E+02 -0.17632921459E+02 -0.24430008746E+02  0.12323621678E+03  0.10340975620E+03 0.  0.
         23    2    1    2    0    0  0.59881902129E+02  0.17632921459E+02  0.26402225027E+02  0.11117021247E+03  0.88119104242E+02 0.  0.
          5    1    3    3  502    0 -0.37642343730E+02 -0.53694571410E+02  0.12399391411E+02  0.66902077305E+02  0.47000000000E+01 0. -1.
         -5    1    3    3    0  502 -0.22239558399E+02  0.36061649951E+02 -0.36829400157E+02  0.56334139479E+02  0.47000000000E+01 0.  1.
          5    1    4    4  503    0  0.62658051844E+02 -0.19705439732E+02  0.13300414144E+01  0.65864974198E+02  0.47000000000E+01 0. -1.
         -5    1    4    4    0  503 -0.27761497155E+01  0.37338361191E+02  0.25072183613E+02  0.45305238271E+02  0.47000000000E+01 0.  1.
<mgrwt>
<rscale>  0 0.11745458E+03</rscale>
<asrwt>0</asrwt>
<pdfrwt beam="1">  1        1 0.18182973E-01 0.12079048E+03</pdfrwt>
<pdfrwt beam="2">  1       -1 0.17879555E-01 0.12079048E+03</pdfrwt>
<totfact> 0.65871544E+03</totfact>
</mgrwt>
</event>
<event>
 8    1  0.2964543E-004  0.2779510E+03  0.7546771E-02  0.1097211E+00
          1   -1    0    0  501    0  0.00000000000E+00  0.00000000000E+00  0.84340580247E+02  0.84340580247E+02  0.00000000000E+00 0. -1.
         -1   -1    0    0    0  501 -0.00000000000E+00 -0.00000000000E+00 -0.14731336959E+04  0.14731336959E+04  0.00000000000E+00 0.  1.
         23    2    1    2    0    0  0.17901051975E+03 -0.18827717122E+03 -0.11751132801E+04  0.12068807634E+04  0.90426194429E+02 0.  0.
         23    2    1    2    0    0 -0.17901051975E+03  0.18827717122E+03 -0.21367983558E+03  0.35059351276E+03  0.98811333715E+02 0.  0.
          5    1    3    3  502    0  0.34324838921E+02 -0.62407255449E+01 -0.80974886017E+02  0.88295885452E+02  0.47000000000E+01 0. -1.
         -5    1    4    4    0  503 -0.10099165020E+02  0.54677071375E+02 -0.78386153207E+02  0.96218783420E+02  0.47000000000E+01 0.  1.
          5    1    4    4  503    0 -0.16891135473E+03  0.13360009985E+03 -0.13529368237E+03  0.25437472934E+03  0.47000000000E+01 0. -1.
         -5    1    3    3    0  502  0.14468568083E+03 -0.18203644568E+03 -0.10941383940E+04  0.11185848779E+04  0.47000000000E+01 0.  1.
<mgrwt>
<rscale>  0 0.27723086E+03</rscale>
<asrwt>0</asrwt>
<pdfrwt beam="1">  1        1 0.12975474E-01 0.27795097E+03</pdfrwt>
<pdfrwt beam="2">  1       -1 0.22663595E+00 0.27795097E+03</pdfrwt>
<totfact> 0.50578480E+01</totfact>
</mgrwt>
</event>
<event>
 8    1  0.2964543E-004  0.1084102E+03  0.7546771E-02  0.1271616E+00
          1   -1    0    0  501    0  0.00000000000E+00  0.00000000000E+00  0.11988264674E+03  0.11988264674E+03  0.00000000000E+00 0. -1.
         -1   -1    0    0    0  501 -0.00000000000E+00 -0.00000000000E+00 -0.14451276359E+03  0.14451276359E+03  0.00000000000E+00 0.  1.
         23    2    1    2    0    0 -0.12834386735E+02 -0.17508952457E+02 -0.96912829243E+02  0.13409743678E+03  0.90104057512E+02 0.  0.
         23    2    1    2    0    0  0.12834386735E+02  0.17508952457E+02  0.72282712391E+02  0.13029797354E+03  0.10621434225E+03 0.  0.
          5    1    4    4  502    0  0.35887818197E+02  0.25907930380E+02  0.89500196757E+02  0.99957648887E+02  0.47000000000E+01 0. -1.
         -5    1    4    4    0  502 -0.23053431462E+02 -0.83989779228E+01 -0.17217484366E+02  0.30340324655E+02  0.47000000000E+01 0.  1.
          5    1    3    3  503    0  0.76124483349E+01  0.34040796351E+02 -0.25040226166E+02  0.43195232518E+02  0.47000000000E+01 0. -1.
         -5    1    3    3    0  503 -0.20446835070E+02 -0.51549748808E+02 -0.71872603077E+02  0.90902204262E+02  0.47000000000E+01 0.  1.
<mgrwt>
<rscale>  0 0.10424420E+03</rscale>
<asrwt>0</asrwt>
<pdfrwt beam="1">  1        1 0.18443484E-01 0.10841020E+03</pdfrwt>
<pdfrwt beam="2">  1       -1 0.22232733E-01 0.10841020E+03</pdfrwt>
<totfact> 0.45326737E+03</totfact>
</mgrwt>
</event>
<event>
 8    1  0.2964543E-004  0.9559563E+02  0.7546771E-02  0.1290670E+00
          2   -1    0    0  501    0  0.00000000000E+00  0.00000000000E+00  0.93491189571E+03  0.93491189571E+03  0.00000000000E+00 0. -1.
         -2   -1    0    0    0  501 -0.00000000000E+00 -0.00000000000E+00 -0.12078260083E+02  0.12078260083E+02  0.00000000000E+00 0.  1.
         23    2    1    2    0    0 -0.38236731096E+01 -0.27030741962E+02  0.67767514331E+03  0.68438448611E+03  0.91614646695E+02 0.  0.
         23    2    1    2    0    0  0.38236731096E+01  0.27030741962E+02  0.24515849232E+03  0.26260566968E+03  0.90076466985E+02 0.  0.
          5    1    3    3  502    0 -0.11920039967E+01  0.33350457760E+02  0.19127434359E+03  0.19422059217E+03  0.47000000000E+01 0. -1.
         -5    1    4    4    0  503  0.27297003918E+02 -0.13953134191E+02  0.33342705897E+02  0.45537264006E+02  0.47000000000E+01 0.  1.
          5    1    4    4  503    0 -0.23473330808E+02  0.40983876152E+02  0.21181578643E+03  0.21706840568E+03  0.47000000000E+01 0. -1.
         -5    1    3    3    0  502 -0.26316691128E+01 -0.60381199721E+02  0.48640079972E+03  0.49016389395E+03  0.47000000000E+01 0.  1.
<mgrwt>
<rscale>  0 0.95225210E+02</rscale>
<asrwt>0</asrwt>
<pdfrwt beam="1">  1        2 0.14383254E+00 0.95595633E+02</pdfrwt>
<pdfrwt beam="2">  1       -2 0.18581946E-02 0.95595633E+02</pdfrwt>
<totfact> 0.22916916E+04</totfact>
</mgrwt>
</event>
<event>
 8    1  0.2964543E-004  0.9403412E+02  0.7546771E-02  0.1294901E+00
          2   -1    0    0  501    0  0.00000000000E+00  0.00000000000E+00  0.75545040592E+03  0.75545040592E+03  0.00000000000E+00 0. -1.
         -2   -1    0    0    0  501 -0.00000000000E+00 -0.00000000000E+00 -0.11633730841E+02  0.11633730841E+02  0.00000000000E+00 0.  1.
         23    2    1    2    0    0 -0.75491472890E+01 -0.48872281966E+01  0.42361175217E+03  0.43335728963E+03  0.90943659859E+02 0.  0.
         23    2    1    2    0    0  0.75491472890E+01  0.48872281966E+01  0.32020492291E+03  0.33372684713E+03  0.93603104760E+02 0.  0.
          5    1    4    4  502    0 -0.30385237527E+02 -0.51469864856E+01  0.25901670727E+03  0.26088598808E+03  0.47000000000E+01 0. -1.
         -5    1    4    4    0  502  0.37934384816E+02  0.10034214682E+02  0.61188215637E+02  0.72840859059E+02  0.47000000000E+01 0.  1.
          5    1    3    3  503    0  0.37226030843E+02  0.14141849603E+02  0.24121497161E+03  0.24452509444E+03  0.47000000000E+01 0.  1.
         -5    1    3    3    0  503 -0.44775178132E+02 -0.19029077800E+02  0.18239678057E+03  0.18883219519E+03  0.47000000000E+01 0. -1.
<mgrwt>
<rscale>  0 0.93365293E+02</rscale>
<asrwt>0</asrwt>
<pdfrwt beam="1">  1        2 0.11622310E+00 0.94034121E+02</pdfrwt>
<pdfrwt beam="2">  1       -2 0.17898053E-02 0.94034121E+02</pdfrwt>
<totfact> 0.31515702E+04</totfact>
</mgrwt>
</event>
<event>
 8    1  0.2964543E-004  0.9959024E+02  0.7546771E-02  0.1281325E+00
         -1   -1    0    0    0  501 -0.00000000000E+00  0.00000000000E+00  0.39152255400E+02  0.39152255400E+02  0.00000000000E+00 0.  1.
          1   -1    0    0  501    0  0.00000000000E+00 -0.00000000000E+00 -0.52441863331E+03  0.52441863331E+03  0.00000000000E+00 0. -1.
         23    2    1    2    0    0 -0.23589143028E+02  0.30225512676E+02 -0.44571325667E+03  0.45670397794E+03  0.91914019665E+02 0.  0.
         23    2    1    2    0    0  0.23589143028E+02 -0.30225512676E+02 -0.39553121233E+02  0.10686691076E+03  0.91575422089E+02 0.  0.
          5    1    3    3  502    0  0.34543407889E+02  0.58898977052E+01 -0.12962430903E+03  0.13435955275E+03  0.47000000000E+01 0. -1.
         -5    1    4    4    0  503 -0.25690960302E+02 -0.30147478439E-01  0.12490830642E+02  0.28950599307E+02  0.47000000000E+01 0.  1.
          5    1    4    4  503    0  0.49280103330E+02 -0.30195365198E+02 -0.52043951875E+02  0.77916311453E+02  0.47000000000E+01 0. -1.
         -5    1    3    3    0  502 -0.58132550917E+02  0.24335614971E+02 -0.31608894765E+03  0.32234442520E+03  0.47000000000E+01 0.  1.
<mgrwt>
<rscale>  0 0.99512047E+02</rscale>
<asrwt>0</asrwt>
<pdfrwt beam="1">  1        1 0.80679795E-01 0.99590242E+02</pdfrwt>
<pdfrwt beam="2">  1       -1 0.60234235E-02 0.99590242E+02</pdfrwt>
<totfact> 0.53239704E+03</totfact>
</mgrwt>
</event>
<event>
 8    1  0.2964543E-004  0.1066350E+03  0.7546771E-02  0.1267413E+00
          1   -1    0    0  501    0  0.00000000000E+00  0.00000000000E+00  0.54241813682E+03  0.54241813682E+03  0.00000000000E+00 0. -1.
         -1   -1    0    0    0  501 -0.00000000000E+00 -0.00000000000E+00 -0.20769374461E+02  0.20769374461E+02  0.00000000000E+00 0.  1.
         23    2    1    2    0    0 -0.22461603884E+02 -0.46254945654E+02  0.26096983335E+03  0.28154142313E+03  0.92283667950E+02 0.  0.
         23    2    1    2    0    0  0.22461603884E+02  0.46254945654E+02  0.26067892901E+03  0.28164608815E+03  0.93418259976E+02 0.  0.
          5    1    4    4  502    0  0.50110105930E+02  0.56080306926E+02  0.16357533275E+03  0.18009720438E+03  0.47000000000E+01 0. -1.
         -5    1    4    4    0  502 -0.27648502045E+02 -0.98253612715E+01  0.97103596261E+02  0.10154888378E+03  0.47000000000E+01 0.  1.
          5    1    3    3  503    0 -0.16261658248E+02  0.25368129540E+02  0.11180212610E+03  0.11588696616E+03  0.47000000000E+01 0. -1.
         -5    1    3    3    0  503 -0.61999456365E+01 -0.71623075195E+02  0.14916770725E+03  0.16565445697E+03  0.47000000000E+01 0.  1.
<mgrwt>
<rscale>  0 0.10638595E+03</rscale>
<asrwt>0</asrwt>
<pdfrwt beam="1">  1        1 0.83448933E-01 0.10663496E+03</pdfrwt>
<pdfrwt beam="2">  1       -1 0.31952888E-02 0.10663496E+03</pdfrwt>
<totfact> 0.12936799E+04</totfact>
</mgrwt>
</event>
<event>
 8    1  0.2964543E-004  0.9629510E+02  0.7546771E-02  0.1289214E+00
          2   -1    0    0  501    0  0.00000000000E+00  0.00000000000E+00  0.91488678351E+03  0.91488678351E+03  0.00000000000E+00 0. -1.
         -2   -1    0    0    0  501 -0.00000000000E+00 -0.00000000000E+00 -0.12741250095E+02  0.12741250095E+02  0.00000000000E+00 0.  1.
         23    2    1    2    0    0  0.24332400807E+02 -0.56163872898E+01  0.66465054534E+03  0.67135354214E+03  0.91277716799E+02 0.  0.
         23    2    1    2    0    0 -0.24332400807E+02  0.56163872898E+01  0.23749498807E+03  0.25627449146E+03  0.93000731613E+02 0.  0.
          5    1    4    4  502    0 -0.22156914607E+02  0.29807827615E+02  0.22584905491E+03  0.22893082155E+03  0.47000000000E+01 0. -1.
         -5    1    4    4    0  502 -0.21754862008E+01 -0.24191440325E+02  0.11645933164E+02  0.27343669916E+02  0.47000000000E+01 0.  1.
          5    1    3    3  503    0  0.45549831571E+02  0.23784368554E+02  0.50197883150E+03  0.50462393980E+03  0.47000000000E+01 0. -1.
         -5    1    3    3    0  503 -0.21217430763E+02 -0.29400755844E+02  0.16267171384E+03  0.16672960234E+03  0.47000000000E+01 0.  1.
<mgrwt>
<rscale>  0 0.95876623E+02</rscale>
<asrwt>0</asrwt>
<pdfrwt beam="1">  1        2 0.14075176E+00 0.96295097E+02</pdfrwt>
<pdfrwt beam="2">  1       -2 0.19601930E-02 0.96295097E+02</pdfrwt>
<totfact> 0.21844320E+04</totfact>
</mgrwt>
</event>
<event>
 8    1  0.2964543E-004  0.9501952E+02  0.7546771E-02  0.1291341E+00
         -3   -1    0    0    0  501 -0.00000000000E+00  0.00000000000E+00  0.35869746541E+03  0.35869746541E+03  0.00000000000E+00 0.  1.
          3   -1    0    0  501    0  0.00000000000E+00 -0.00000000000E+00 -0.14994882444E+03  0.14994882444E+03  0.00000000000E+00 0. -1.
         23    2    1    2    0    0 -0.15777575694E+02 -0.22714441106E+02  0.33649702030E+03  0.34965547996E+03  0.90905622854E+02 0.  0.
         23    2    1    2    0    0  0.15777575694E+02  0.22714441106E+02 -0.12774837933E+03  0.15899080989E+03  0.90518238376E+02 0.  0.
          5    1    4    4  502    0  0.42922012998E+02 -0.75645268385E+01 -0.10096800449E+03  0.11007338096E+03  0.47000000000E+01 0. -1.
         -5    1    4    4    0  502 -0.27144437304E+02  0.30278967945E+02 -0.26780374844E+02  0.48917428930E+02  0.47000000000E+01 0.  1.
          5    1    3    3  503    0 -0.90526158090E+01  0.34999743276E+02  0.14249062465E+03  0.14708025018E+03  0.47000000000E+01 0. -1.
         -5    1    3    3    0  503 -0.67249598851E+01 -0.57714184382E+02  0.19400639565E+03  0.20257522978E+03  0.47000000000E+01 0.  1.
<mgrwt>
<rscale>  0 0.94926752E+02</rscale>
<asrwt>0</asrwt>
<pdfrwt beam="1">  1        3 0.23069050E-01 0.95019524E+02</pdfrwt>
<pdfrwt beam="2">  1       -3 0.55184225E-01 0.95019524E+02</pdfrwt>
<totfact> 0.12761405E+02</totfact>
</mgrwt>
</event>
<event>
 8    1  0.2964543E-004  0.1149115E+03  0.7546771E-02  0.1252746E+00
         -2   -1    0    0    0  501 -0.00000000000E+00  0.00000000000E+00  0.22900721008E+03  0.22900721008E+03  0.00000000000E+00 0.  1.
          2   -1    0    0  501    0  0.00000000000E+00 -0.00000000000E+00 -0.59854727456E+02  0.59854727456E+02  0.00000000000E+00 0. -1.
         23    2    1    2    0    0 -0.48277264943E+02 -0.51141438192E+02  0.11948026576E+03  0.16577149004E+03  0.90876355520E+02 0.  0.
         23    2    1    2    0    0  0.48277264943E+02  0.51141438192E+02  0.49672216865E+02  0.12309044750E+03  0.87964698183E+02 0.  0.
          5    1    3    3  502    0 -0.61366928926E+02 -0.66978063139E+02  0.10978417953E+03  0.14257144519E+03  0.47000000000E+01 0. -1.
         -5    1    4    4    0  503  0.52645699226E+02 -0.75929146419E+01  0.26663509190E+02  0.59684627184E+02  0.47000000000E+01 0.  1.
          5    1    4    4  503    0 -0.43684342833E+01  0.58734352834E+02  0.23008707675E+02  0.63405820315E+02  0.47000000000E+01 0. -1.
         -5    1    3    3    0  502  0.13089663983E+02  0.15836624947E+02  0.96960862286E+01  0.23200044850E+02  0.47000000000E+01 0.  1.
<mgrwt>
<rscale>  0 0.11433504E+03</rscale>
<asrwt>0</asrwt>
<pdfrwt beam="1">  1        2 0.92084197E-02 0.11491150E+03</pdfrwt>
<pdfrwt beam="2">  1       -2 0.35231878E-01 0.11491150E+03</pdfrwt>
<totfact> 0.50622802E+03</totfact>
</mgrwt>
</event>
<event>
 8    1  0.2964543E-004  0.9577195E+02  0.7546771E-02  0.1291376E+00
          1   -1    0    0  501    0  0.00000000000E+00  0.00000000000E+00  0.29799102514E+02  0.29799102514E+02  0.00000000000E+00 0. -1.
         -1   -1    0    0    0  501 -0.00000000000E+00 -0.00000000000E+00 -0.30256651957E+03  0.30256651957E+03  0.00000000000E+00 0.  1.
         23    2    1    2    0    0 -0.69904087748E+01  0.24228072584E+01 -0.11622904209E+03  0.15060364003E+03  0.95485759961E+02 0.  0.
         23    2    1    2    0    0  0.69904087748E+01 -0.24228072584E+01 -0.15653837497E+03  0.18176198206E+03  0.92078333354E+02 0.  0.
          5    1    3    3  502    0 -0.28456907235E+02  0.33712556175E+02 -0.99353610920E+02  0.10880975147E+03  0.47000000000E+01 0. -1.
         -5    1    4    4    0  503 -0.20602926416E+02 -0.10705940282E+02 -0.14998563534E+03  0.15184491609E+03  0.47000000000E+01 0.  1.
          5    1    4    4  503    0  0.27593335190E+02  0.82831330232E+01 -0.65527396344E+01  0.29917065971E+02  0.47000000000E+01 0. -1.
         -5    1    3    3    0  502  0.21466498460E+02 -0.31289748917E+02 -0.16875431170E+02  0.41793888555E+02  0.47000000000E+01 0.  1.
<mgrwt>
<rscale>  0 0.94911197E+02</rscale>
<asrwt>0</asrwt>
<pdfrwt beam="1">  1        1 0.45844773E-02 0.95771949E+02</pdfrwt>
<pdfrwt beam="2">  1       -1 0.46548696E-01 0.95771949E+02</pdfrwt>
<totfact> 0.80721761E+03</totfact>
</mgrwt>
</event>
<event>
 8    1  0.2964543E-004  0.9598702E+02  0.7546771E-02  0.1289957E+00
          3   -1    0    0  501    0  0.00000000000E+00  0.00000000000E+00  0.11289461065E+03  0.11289461065E+03  0.00000000000E+00 0. -1.
         -3   -1    0    0    0  501 -0.00000000000E+00 -0.00000000000E+00 -0.18587191552E+03  0.18587191552E+03  0.00000000000E+00 0.  1.
         23    2    1    2    0    0  0.11251763022E+02 -0.10714145241E+02  0.76333160541E+02  0.12126406900E+03  0.92934535843E+02 0.  0.
         23    2    1    2    0    0 -0.11251763022E+02  0.10714145241E+02 -0.14931046541E+03  0.17750245718E+03  0.94721233856E+02 0.  0.
          5    1    3    3  502    0  0.26792011665E+02  0.35418357351E+02  0.43614820184E+02  0.62422868135E+02  0.47000000000E+01 0. -1.
         -5    1    3    3    0  502 -0.15540248642E+02 -0.46132502592E+02  0.32718340357E+02  0.58841200863E+02  0.47000000000E+01 0.  1.
          5    1    4    4  503    0  0.34105356744E+02 -0.15190829768E+02 -0.33543284945E+02  0.50410104469E+02  0.47000000000E+01 0. -1.
         -5    1    4    4    0  503 -0.45357119767E+02  0.25904975009E+02 -0.11576718047E+03  0.12709235271E+03  0.47000000000E+01 0.  1.
<mgrwt>
<rscale>  0 0.95543275E+02</rscale>
<asrwt>0</asrwt>
<pdfrwt beam="1">  1        3 0.17368402E-01 0.95987016E+02</pdfrwt>
<pdfrwt beam="2">  1       -3 0.28595679E-01 0.95987016E+02</pdfrwt>
<totfact> 0.73760090E+02</totfact>
</mgrwt>
</event>
<event>
 8    1  0.2964543E-004  0.1016744E+03  0.7546771E-02  0.1283052E+00
         -2   -1    0    0    0  501 -0.00000000000E+00  0.00000000000E+00  0.70378873073E+02  0.70378873073E+02  0.00000000000E+00 0. -1.
          2   -1    0    0  501    0  0.00000000000E+00 -0.00000000000E+00 -0.22636602826E+03  0.22636602826E+03  0.00000000000E+00 0.  1.
         23    2    1    2    0    0 -0.28182558076E+00  0.72423598193E+00 -0.17692345784E+03  0.20405780995E+03  0.10167141154E+03 0.  0.
         23    2    1    2    0    0  0.28182558076E+00 -0.72423598193E+00  0.20936302653E+02  0.92687091381E+02  0.90288228449E+02 0.  0.
          5    1    3    3  502    0 -0.98817705009E+01  0.48026197051E+02 -0.11716590664E+03  0.12709879886E+03  0.47000000000E+01 0. -1.
         -5    1    3    3    0  502  0.95999449202E+01 -0.47301961069E+02 -0.59757551194E+02  0.76959011091E+02  0.47000000000E+01 0.  1.
          5    1    4    4  503    0 -0.20315100155E+01 -0.30491021192E+02  0.44622699156E+02  0.54287242389E+02  0.47000000000E+01 0. -1.
         -5    1    4    4    0  503  0.23133355963E+01  0.29766785210E+02 -0.23686396503E+02  0.38399848992E+02  0.47000000000E+01 0.  1.
<mgrwt>
<rscale>  0 0.98700751E+02</rscale>
<asrwt>0</asrwt>
<pdfrwt beam="1">  1        2 0.34825543E-01 0.10167438E+03</pdfrwt>
<pdfrwt beam="2">  1       -2 0.10827519E-01 0.10167438E+03</pdfrwt>
<totfact> 0.80508024E+03</totfact>
</mgrwt>
</event>
<event>
 8    1  0.2964543E-004  0.9957464E+02  0.7546771E-02  0.1286192E+00
          1   -1    0    0  501    0  0.00000000000E+00  0.00000000000E+00  0.11498492395E+03  0.11498492395E+03  0.00000000000E+00 0. -1.
         -1   -1    0    0    0  501 -0.00000000000E+00 -0.00000000000E+00 -0.81776704151E+02  0.81776704151E+02  0.00000000000E+00 0.  1.
         23    2    1    2    0    0 -0.36452472947E+02  0.26321707596E+01  0.36656111702E+02  0.10610739391E+03  0.92625036632E+02 0.  0.
         23    2    1    2    0    0  0.36452472947E+02 -0.26321707596E+01 -0.34478919003E+01  0.90654234191E+02  0.82889028896E+02 0.  0.
          5    1    4    4  502    0  0.27455324527E+02 -0.41440047342E+02 -0.68386653580E+01  0.50397715350E+02  0.47000000000E+01 0. -1.
         -5    1    4    4    0  502  0.89971484201E+01  0.38807876583E+02  0.33907734577E+01  0.40256518841E+02  0.47000000000E+01 0.  1.
          5    1    3    3  503    0 -0.19182955840E+02 -0.15954818262E+02  0.63793834387E+02  0.68660653407E+02  0.47000000000E+01 0. -1.
         -5    1    3    3    0  503 -0.17269517107E+02  0.18586989021E+02 -0.27137722685E+02  0.37446740506E+02  0.47000000000E+01 0.  1.
<mgrwt>
<rscale>  0 0.97247846E+02</rscale>
<asrwt>0</asrwt>
<pdfrwt beam="1">  1        1 0.17689988E-01 0.99574638E+02</pdfrwt>
<pdfrwt beam="2">  1       -1 0.12581031E-01 0.99574638E+02</pdfrwt>
<totfact> 0.11608943E+04</totfact>
</mgrwt>
</event>
<event>
 8    1  0.2964543E-004  0.1125803E+03  0.7546771E-02  0.1256655E+00
         -2   -1    0    0    0  501 -0.00000000000E+00  0.00000000000E+00  0.20097928775E+03  0.20097928775E+03  0.00000000000E+00 0.  1.
          2   -1    0    0  501    0  0.00000000000E+00 -0.00000000000E+00 -0.14723329763E+03  0.14723329763E+03  0.00000000000E+00 0. -1.
         23    2    1    2    0    0 -0.40562957752E+02 -0.46313143549E+02  0.15918321816E+03  0.19396819865E+03  0.92163465310E+02 0.  0.
         23    2    1    2    0    0  0.40562957752E+02  0.46313143549E+02 -0.10543722804E+03  0.15424438673E+03  0.94255296789E+02 0.  0.
          5    1    3    3  502    0  0.39547676671E+01 -0.62802115465E+02  0.88498913694E+02  0.10869173666E+03  0.47000000000E+01 0. -1.
         -5    1    3    3    0  502 -0.44517725420E+02  0.16488971916E+02  0.70684304466E+02  0.85276461989E+02  0.47000000000E+01 0.  1.
          5    1    4    4  503    0  0.69016029386E+01 -0.19538314939E+02 -0.67954598426E+02  0.71198983989E+02  0.47000000000E+01 0. -1.
         -5    1    4    4    0  503  0.33661354814E+02  0.65851458489E+02 -0.37482629612E+02  0.83045402736E+02  0.47000000000E+01 0.  1.
<mgrwt>
<rscale>  0 0.11214137E+03</rscale>
<asrwt>0</asrwt>
<pdfrwt beam="1">  1        2 0.22651276E-01 0.11258029E+03</pdfrwt>
<pdfrwt beam="2">  1       -2 0.30919891E-01 0.11258029E+03</pdfrwt>
<totfact> 0.22373695E+03</totfact>
</mgrwt>
</event>
<event>
 8    1  0.2964543E-004  0.2056420E+03  0.7546771E-02  0.1145201E+00
          2   -1    0    0  501    0  0.00000000000E+00  0.00000000000E+00  0.98410718154E+03  0.98410718154E+03  0.00000000000E+00 0. -1.
         -2   -1    0    0    0  501 -0.00000000000E+00 -0.00000000000E+00 -0.47841573149E+02  0.47841573149E+02  0.00000000000E+00 0.  1.
         23    2    1    2    0    0 -0.15695244242E+03 -0.97012171989E+02  0.63578309646E+03  0.66821310930E+03  0.90791976488E+02 0.  0.
         23    2    1    2    0    0  0.15695244242E+03  0.97012171989E+02  0.30048251192E+03  0.36373564539E+03  0.89266169734E+02 0.  0.
          5    1    4    4  502    0  0.58025003635E+02  0.62073985504E+02  0.69054539475E+02  0.10959333988E+03  0.47000000000E+01 0. -1.
         -5    1    3    3    0  503 -0.77023041543E+02  0.67349608802E+00  0.19576557540E+03  0.21042636013E+03  0.47000000000E+01 0.  1.
          5    1    3    3  503    0 -0.79929400873E+02 -0.97685668077E+02  0.44001752107E+03  0.45778674917E+03  0.47000000000E+01 0. -1.
         -5    1    4    4    0  502  0.98927438781E+02  0.34938186485E+02  0.23142797245E+03  0.25414230551E+03  0.47000000000E+01 0.  1.
<mgrwt>
<rscale>  0 0.20547448E+03</rscale>
<asrwt>0</asrwt>
<pdfrwt beam="1">  1        2 0.15140109E+00 0.20564196E+03</pdfrwt>
<pdfrwt beam="2">  1       -2 0.73602428E-02 0.20564196E+03</pdfrwt>
<totfact> 0.28770119E+03</totfact>
</mgrwt>
</event>
<event>
 8    1  0.2964543E-004  0.9990596E+02  0.7546771E-02  0.1280901E+00
          2   -1    0    0  501    0  0.00000000000E+00  0.00000000000E+00  0.20775449504E+03  0.20775449504E+03  0.00000000000E+00 0. -1.
         -2   -1    0    0    0  501 -0.00000000000E+00 -0.00000000000E+00 -0.49064105778E+02  0.49064105778E+02  0.00000000000E+00 0.  1.
         23    2    1    2    0    0 -0.19952837162E+02 -0.36634867687E+02  0.57432669010E+02  0.11457118993E+03  0.89932290366E+02 0.  0.
         23    2    1    2    0    0  0.19952837162E+02  0.36634867687E+02  0.10125772025E+03  0.14224741089E+03  0.90779792648E+02 0.  0.
          5    1    3    3  502    0  0.15874072869E+02  0.23633324384E+02  0.17504704035E+02  0.33749442576E+02  0.47000000000E+01 0. -1.
         -5    1    3    3    0  502 -0.35826910030E+02 -0.60268192071E+02  0.39927964975E+02  0.80821747351E+02  0.47000000000E+01 0.  1.
          5    1    4    4  503    0  0.27186855877E+02  0.81881470200E+01  0.10799794809E+03  0.11176680042E+03  0.47000000000E+01 0. -1.
         -5    1    4    4    0  503 -0.72340187150E+01  0.28446720667E+02 -0.67402278381E+01  0.30480610473E+02  0.47000000000E+01 0.  1.
<mgrwt>
<rscale>  0 0.99713034E+02</rscale>
<asrwt>0</asrwt>
<pdfrwt beam="1">  1        2 0.31962229E-01 0.99905956E+02</pdfrwt>
<pdfrwt beam="2">  1       -2 0.75483241E-02 0.99905956E+02</pdfrwt>
<totfact> 0.15389578E+04</totfact>
</mgrwt>
</event>
<event>
 7    1  0.2964543E-004  0.2171927E+03  0.7546771E-02  0.1150100E+00
         -1   -1    0    0    0  501 -0.00000000000E+00  0.00000000000E+00  0.10094331619E+03  0.10094331619E+03  0.00000000000E+00 0.  1.
          1   -1    0    0  501    0  0.00000000000E+00 -0.00000000000E+00 -0.41379224782E+03  0.41379224782E+03  0.00000000000E+00 0. -1.
         23    2    1    2    0    0 -0.48758591549E+02 -0.11415172356E+03 -0.24007472245E+03  0.28567498370E+03  0.92554350024E+02 0.  0.
          5    1    3    3  502    0 -0.33401189169E+01 -0.68079023451E+02 -0.19516736089E+03  0.20678079840E+03  0.47000000000E+01 0. -1.
         -5    1    1    2    0  503  0.13244534004E+02  0.15707981215E+03 -0.71437384140E+02  0.17313253570E+03  0.47000000000E+01 0.  1.
          5    1    1    2  503    0  0.35514057545E+02 -0.42928088590E+02 -0.13368250455E+01  0.55928044615E+02  0.47000000000E+01 0. -1.
         -5    1    3    3    0  502 -0.45418472632E+02 -0.46072700109E+02 -0.44907361556E+02  0.78894185296E+02  0.47000000000E+01 0.  1.
<mgrwt>
<rscale>  0 0.19957319E+03</rscale>
<asrwt>0</asrwt>
<pdfrwt beam="1">  1        1 0.63660346E-01 0.21719269E+03</pdfrwt>
<pdfrwt beam="2">  1       -1 0.15529741E-01 0.21719269E+03</pdfrwt>
<totfact> 0.17527952E+03</totfact>
</mgrwt>
</event>
<event>
 8    1  0.2964543E-004  0.9397472E+02  0.7546771E-02  0.1293582E+00
         -1   -1    0    0    0  501 -0.00000000000E+00  0.00000000000E+00  0.61747692724E+02  0.61747692724E+02  0.00000000000E+00 0.  1.
          1   -1    0    0  501    0  0.00000000000E+00 -0.00000000000E+00 -0.16529252800E+03  0.16529252800E+03  0.00000000000E+00 0. -1.
         23    2    1    2    0    0  0.25271871204E+02 -0.93719018603E+01 -0.99383804242E+01  0.94498780066E+02  0.90026373968E+02 0.  0.
         23    2    1    2    0    0 -0.25271871204E+02  0.93719018603E+01 -0.93606454852E+02  0.13254144066E+03  0.89880838242E+02 0.  0.
          5    1    4    4  502    0 -0.20150332064E+02 -0.39360731399E+02 -0.48067164769E+02  0.65481641607E+02  0.47000000000E+01 0. -1.
         -5    1    4    4    0  502 -0.51215391409E+01  0.48732633259E+02 -0.45539290083E+02  0.67059799051E+02  0.47000000000E+01 0.  1.
          5    1    3    3  503    0  0.50631537614E+02  0.76403349016E+01  0.16323434161E+02  0.53948788878E+02  0.47000000000E+01 0. -1.
         -5    1    3    3    0  503 -0.25359666409E+02 -0.17012236762E+02 -0.26261814586E+02  0.40549991188E+02  0.47000000000E+01 0.  1.
<mgrwt>
<rscale>  0 0.93939848E+02</rscale>
<asrwt>0</asrwt>
<pdfrwt beam="1">  1        1 0.25429620E-01 0.93974720E+02</pdfrwt>
<pdfrwt beam="2">  1       -1 0.94996450E-02 0.93974720E+02</pdfrwt>
<totfact> 0.11229192E+04</totfact>
</mgrwt>
</event>
<event>
 8    1  0.2964543E-004  0.9693711E+02  0.7546771E-02  0.1287721E+00
          3   -1    0    0  501    0  0.00000000000E+00  0.00000000000E+00  0.47058299127E+03  0.47058299127E+03  0.00000000000E+00 0. -1.
         -3   -1    0    0    0  501 -0.00000000000E+00 -0.00000000000E+00 -0.91931302554E+02  0.91931302554E+02  0.00000000000E+00 0.  1.
         23    2    1    2    0    0  0.24801702633E+01 -0.31430587141E+02 -0.60383677470E+02  0.11290462273E+03  0.90040170347E+02 0.  0.
         23    2    1    2    0    0 -0.24801702633E+01  0.31430587141E+02  0.43903536618E+03  0.44960967109E+03  0.91666627127E+02 0.  0.
          5    1    4    4  502    0  0.15093839447E+02  0.52919830540E+02  0.38233526624E+03  0.38630386778E+03  0.47000000000E+01 0. -1.
         -5    1    3    3    0  503 -0.15662599161E+02 -0.53149619191E+02 -0.63079200799E+02  0.84090871122E+02  0.47000000000E+01 0.  1.
          5    1    3    3  503    0  0.18142769425E+02  0.21719032051E+02  0.26955233293E+01  0.28813751606E+02  0.47000000000E+01 0. -1.
         -5    1    4    4    0  502 -0.17574009711E+02 -0.21489243400E+02  0.56700099944E+02  0.63305803311E+02  0.47000000000E+01 0.  1.
<mgrwt>
<rscale>  0 0.96550667E+02</rscale>
<asrwt>0</asrwt>
<pdfrwt beam="1">  1        3 0.72397382E-01 0.96937111E+02</pdfrwt>
<pdfrwt beam="2">  1       -3 0.14143278E-01 0.96937111E+02</pdfrwt>
<totfact> 0.17048810E+02</totfact>
</mgrwt>
</event>
<event>
 8    1  0.2964543E-004  0.9654503E+02  0.7546771E-02  0.1288913E+00
          2   -1    0    0  501    0  0.00000000000E+00  0.00000000000E+00  0.35840500199E+03  0.35840500199E+03  0.00000000000E+00 0. -1.
         -2   -1    0    0    0  501 -0.00000000000E+00 -0.00000000000E+00 -0.29599437116E+02  0.29599437116E+02  0.00000000000E+00 0.  1.
         23    2    1    2    0    0 -0.11066733461E+02 -0.30430005552E+02  0.23868774634E+03  0.25747384915E+03  0.90953201772E+02 0.  0.
         23    2    1    2    0    0  0.11066733461E+02  0.30430005552E+02  0.90117818533E+02  0.13053058996E+03  0.88704880763E+02 0.  0.
          5    1    4    4  502    0  0.20320120666E+02  0.49934045066E+02  0.93645953533E+02  0.10815715776E+03  0.47000000000E+01 0. -1.
         -5    1    3    3    0  503 -0.33587571810E+02 -0.52182619919E+02  0.12769730838E+03  0.14205577555E+03  0.47000000000E+01 0.  1.
          5    1    3    3  503    0  0.22520838349E+02  0.21752614367E+02  0.11099043797E+03  0.11541807359E+03  0.47000000000E+01 0. -1.
         -5    1    4    4    0  502 -0.92533872047E+01 -0.19504039513E+02 -0.35281350007E+01  0.22373432206E+02  0.47000000000E+01 0.  1.
<mgrwt>
<rscale>  0 0.96011857E+02</rscale>
<asrwt>0</asrwt>
<pdfrwt beam="1">  1        2 0.55139228E-01 0.96545030E+02</pdfrwt>
<pdfrwt beam="2">  1       -2 0.45537598E-02 0.96545030E+02</pdfrwt>
<totfact> 0.18456149E+04</totfact>
</mgrwt>
</event>
<event>
 8    1  0.5238226E-004  0.1784010E+03  0.7546771E-02  0.1175292E+00
          2   -1    0    0  501    0  0.00000000000E+00  0.00000000000E+00  0.42203170706E+03  0.42203170706E+03  0.00000000000E+00 0. -1.
         -2   -1    0    0    0  501 -0.00000000000E+00 -0.00000000000E+00 -0.24150918440E+03  0.24150918440E+03  0.00000000000E+00 0.  1.
         23    2    1    2    0    0  0.10334502423E+03  0.74363570060E+02  0.37109665752E+03  0.40249412375E+03  0.89881343118E+02 0.  0.
         23    2    1    2    0    0 -0.10334502423E+03 -0.74363570060E+02 -0.19057413486E+03  0.26104676771E+03  0.12496711355E+03 0.  0.
          5    1    3    3  502    0  0.51276896002E+02  0.14383285225E+01  0.22678323995E+03  0.23255992083E+03  0.47000000000E+01 0. -1.
         -5    1    4    4    0  503 -0.10017992946E+03 -0.95755558139E+02 -0.19419906763E+03  0.23862211350E+03  0.47000000000E+01 0.  1.
          5    1    4    4  503    0 -0.31650947683E+01  0.21391988078E+02  0.36249327748E+01  0.22424654210E+02  0.47000000000E+01 0.  1.
         -5    1    3    3    0  502  0.52068128225E+02  0.72925241538E+02  0.14431341757E+03  0.16993420292E+03  0.47000000000E+01 0.  1.
<mgrwt>
<rscale>  0 0.17247402E+03</rscale>
<asrwt>0</asrwt>
<pdfrwt beam="1">  1        2 0.64927955E-01 0.17840099E+03</pdfrwt>
<pdfrwt beam="2">  1       -2 0.37155259E-01 0.17840099E+03</pdfrwt>
<totfact> 0.51946667E+02</totfact>
</mgrwt>
</event>
<event>
 8    1  0.2964543E-004  0.1112047E+03  0.7546771E-02  0.1258510E+00
          1   -1    0    0  501    0  0.00000000000E+00  0.00000000000E+00  0.11538467475E+04  0.11538467475E+04  0.00000000000E+00 0. -1.
         -1   -1    0    0    0  501 -0.00000000000E+00 -0.00000000000E+00 -0.11296291511E+02  0.11296291511E+02  0.00000000000E+00 0.  1.
         23    2    1    2    0    0  0.27363712729E+02  0.57419251055E+02  0.43657099826E+03  0.45051161253E+03  0.91218053786E+02 0.  0.
         23    2    1    2    0    0 -0.27363712729E+02 -0.57419251055E+02  0.70597945772E+03  0.71463142647E+03  0.90803842506E+02 0.  0.
          5    1    3    3  502    0  0.40259969521E+02  0.30651454122E+02  0.39973892989E+03  0.40295617486E+03  0.47000000000E+01 0. -1.
         -5    1    4    4    0  503  0.28971951448E+02 -0.43466710742E+02  0.31378423305E+03  0.31813733485E+03  0.47000000000E+01 0.  1.
          5    1    4    4  503    0 -0.56335664177E+02 -0.13952540313E+02  0.39219522467E+03  0.39649409162E+03  0.47000000000E+01 0. -1.
         -5    1    3    3    0  502 -0.12896256792E+02  0.26767796932E+02  0.36832068370E+02  0.47555437673E+02  0.47000000000E+01 0.  1.
<mgrwt>
<rscale>  0 0.11111968E+03</rscale>
<asrwt>0</asrwt>
<pdfrwt beam="1">  1        1 0.17751479E+00 0.11120466E+03</pdfrwt>
<pdfrwt beam="2">  1       -1 0.17378919E-02 0.11120466E+03</pdfrwt>
<totfact> 0.99424617E+03</totfact>
</mgrwt>
</event>
<event>
 8    1  0.2964543E-004  0.9538407E+02  0.7546771E-02  0.1291147E+00
          2   -1    0    0  501    0  0.00000000000E+00  0.00000000000E+00  0.43612169761E+03  0.43612169761E+03  0.00000000000E+00 0. -1.
         -2   -1    0    0    0  501 -0.00000000000E+00 -0.00000000000E+00 -0.23874286590E+02  0.23874286590E+02  0.00000000000E+00 0.  1.
         23    2    1    2    0    0  0.30172113545E+02  0.46355506781E+01  0.29069182939E+03  0.30548423720E+03  0.88808978915E+02 0.  0.
         23    2    1    2    0    0 -0.30172113545E+02 -0.46355506781E+01  0.12155558163E+03  0.15451174700E+03  0.90367448622E+02 0.  0.
          5    1    3    3  502    0 -0.29829901509E+02  0.13472064967E+02  0.10013562644E+03  0.10545403378E+03  0.47000000000E+01 0.  1.
         -5    1    3    3    0  502  0.60002015054E+02 -0.88365142893E+01  0.19055620295E+03  0.20003020342E+03  0.47000000000E+01 0. -1.
          5    1    4    4  503    0 -0.12976914280E+02 -0.43388015971E+02  0.91899357750E+02  0.10255974936E+03  0.47000000000E+01 0. -1.
         -5    1    4    4    0  503 -0.17195199265E+02  0.38752465293E+02  0.29656223879E+02  0.51951997640E+02  0.47000000000E+01 0.  1.
<mgrwt>
<rscale>  0 0.95013115E+02</rscale>
<asrwt>0</asrwt>
<pdfrwt beam="1">  1        2 0.67095640E-01 0.95384069E+02</pdfrwt>
<pdfrwt beam="2">  1       -2 0.36729675E-02 0.95384069E+02</pdfrwt>
<totfact> 0.20572563E+04</totfact>
</mgrwt>
</event>
<event>
 8    1  0.2964543E-004  0.1400306E+03  0.7546771E-02  0.1213414E+00
         -1   -1    0    0    0  501 -0.00000000000E+00  0.00000000000E+00  0.47564238878E+02  0.47564238878E+02  0.00000000000E+00 0.  1.
          1   -1    0    0  501    0  0.00000000000E+00 -0.00000000000E+00 -0.44799045483E+03  0.44799045483E+03  0.00000000000E+00 0. -1.
         23    2    1    2    0    0  0.64492692047E+02  0.84250339974E+02 -0.12891750838E+03  0.19006240557E+03  0.90810610234E+02 0.  0.
         23    2    1    2    0    0 -0.64492692047E+02 -0.84250339974E+02 -0.27150870757E+03  0.30549228813E+03  0.91384532116E+02 0.  0.
          5    1    3    3  502    0  0.29405256286E+02 -0.14833548464E+02 -0.42050183428E+02  0.53619130762E+02  0.47000000000E+01 0. -1.
         -5    1    4    4    0  503 -0.14717337471E+02  0.14053021759E+02 -0.13414381503E+02  0.24821826562E+02  0.47000000000E+01 0.  1.
          5    1    4    4  503    0 -0.49775354576E+02 -0.98303361732E+02 -0.25809432607E+03  0.28067046157E+03  0.47000000000E+01 0. -1.
         -5    1    3    3    0  502  0.35087435761E+02  0.99083888438E+02 -0.86867324953E+02  0.13644327481E+03  0.47000000000E+01 0.  1.
<mgrwt>
<rscale>  0 0.13993701E+03</rscale>
<asrwt>0</asrwt>
<pdfrwt beam="1">  1        1 0.68921607E-01 0.14003057E+03</pdfrwt>
<pdfrwt beam="2">  1       -1 0.73175753E-02 0.14003057E+03</pdfrwt>
<totfact> 0.49761414E+03</totfact>
</mgrwt>
</event>
<event>
 8    1  0.2964543E-004  0.1047090E+03  0.7546771E-02  0.1271073E+00
         -2   -1    0    0    0  501 -0.00000000000E+00  0.00000000000E+00  0.20459615760E+02  0.20459615760E+02  0.00000000000E+00 0.  1.
          2   -1    0    0  501    0  0.00000000000E+00 -0.00000000000E+00 -0.55119733259E+03  0.55119733259E+03  0.00000000000E+00 0. -1.
         23    2    1    2    0    0  0.19017707959E+02 -0.49480654861E+02 -0.21106779957E+03  0.23527497774E+03  0.89413034362E+02 0.  0.
         23    2    1    2    0    0 -0.19017707959E+02  0.49480654861E+02 -0.31966991726E+03  0.33638197061E+03  0.90299311895E+02 0.  0.
          5    1    4    4  502    0  0.12226447468E+02  0.56612486010E+02 -0.27577261858E+03  0.28182811561E+03  0.47000000000E+01 0. -1.
         -5    1    3    3    0  503 -0.17335428081E+02  0.15986445517E+02 -0.25184323200E+02  0.34819874240E+02  0.47000000000E+01 0.  1.
          5    1    3    3  503    0  0.36353136040E+02 -0.65467100378E+02 -0.18588347637E+03  0.20045510350E+03  0.47000000000E+01 0. -1.
         -5    1    4    4    0  502 -0.31244155427E+02 -0.71318311493E+01 -0.43897298680E+02  0.54553854999E+02  0.47000000000E+01 0.  1.
<mgrwt>
<rscale>  0 0.10451764E+03</rscale>
<asrwt>0</asrwt>
<pdfrwt beam="1">  1        2 0.84799585E-01 0.10470900E+03</pdfrwt>
<pdfrwt beam="2">  1       -2 0.31476334E-02 0.10470900E+03</pdfrwt>
<totfact> 0.20196846E+04</totfact>
</mgrwt>
</event>
<event>
 8    1  0.2964543E-004  0.1090779E+03  0.7546771E-02  0.1264609E+00
          3   -1    0    0  501    0  0.00000000000E+00  0.00000000000E+00  0.40389619926E+03  0.40389619926E+03  0.00000000000E+00 0. -1.
         -3   -1    0    0    0  501 -0.00000000000E+00 -0.00000000000E+00 -0.34281598499E+02  0.34281598499E+02  0.00000000000E+00 0.  1.
         23    2    1    2    0    0  0.49944673000E+02  0.68144668745E+01  0.88843704896E+02  0.13696312255E+03  0.91240263695E+02 0.  0.
         23    2    1    2    0    0 -0.49944673000E+02 -0.68144668745E+01  0.28077089586E+03  0.30121467521E+03  0.96731986832E+02 0.  0.
          5    1    3    3  502    0 -0.23947327508E+02  0.10376255565E+02  0.40690216459E+02  0.48568764549E+02  0.47000000000E+01 0. -1.
         -5    1    3    3    0  502  0.73892000508E+02 -0.35617886907E+01  0.48153488437E+02  0.88394358001E+02  0.47000000000E+01 0.  1.
          5    1    4    4  503    0 -0.60701679878E+02  0.10125174382E+02  0.27183094977E+03  0.27874965175E+03  0.47000000000E+01 0. -1.
         -5    1    4    4    0  503  0.10757006879E+02 -0.16939641256E+02  0.89399460921E+01  0.22465023459E+02  0.47000000000E+01 0.  1.
<mgrwt>
<rscale>  0 0.10784741E+03</rscale>
<asrwt>0</asrwt>
<pdfrwt beam="1">  1        3 0.62137873E-01 0.10907788E+03</pdfrwt>
<pdfrwt beam="2">  1       -3 0.52740924E-02 0.10907788E+03</pdfrwt>
<totfact> 0.11897996E+03</totfact>
</mgrwt>
</event>
<event>
 8    1  0.2964543E-004  0.9858185E+02  0.7546771E-02  0.1283904E+00
          1   -1    0    0  501    0  0.00000000000E+00  0.00000000000E+00  0.15111684892E+04  0.15111684892E+04  0.00000000000E+00 0. -1.
         -1   -1    0    0    0  501 -0.00000000000E+00 -0.00000000000E+00 -0.63626316522E+01  0.63626316522E+01  0.00000000000E+00 0.  1.
         23    2    1    2    0    0  0.19254548201E+02  0.27819763090E+02  0.72985382426E+03  0.73633393980E+03  0.91413288259E+02 0.  0.
         23    2    1    2    0    0 -0.19254548201E+02 -0.27819763090E+02  0.77495203327E+03  0.78119718104E+03  0.92594302964E+02 0.  0.
          5    1    4    4  502    0 -0.83337710693E+01 -0.61755170395E+02  0.51109561565E+03  0.51490190440E+03  0.47000000000E+01 0. -1.
         -5    1    3    3    0  503  0.50888891142E+02 -0.39838559809E+01  0.33242949245E+03  0.33635845136E+03  0.47000000000E+01 0.  1.
          5    1    3    3  503    0 -0.31634342940E+02  0.31803619071E+02  0.39742433182E+03  0.39997548845E+03  0.47000000000E+01 0. -1.
         -5    1    4    4    0  502 -0.10920777132E+02  0.33935407305E+02  0.26385641762E+03  0.26629527664E+03  0.47000000000E+01 0.  1.
<mgrwt>
<rscale>  0 0.98303567E+02</rscale>
<asrwt>0</asrwt>
<pdfrwt beam="1">  1        1 0.23248717E+00 0.98581853E+02</pdfrwt>
<pdfrwt beam="2">  1       -1 0.97886761E-03 0.98581853E+02</pdfrwt>
<totfact> 0.12975516E+04</totfact>
</mgrwt>
</event>
<event>
 8    1  0.2964543E-004  0.1173449E+03  0.7546771E-02  0.1247702E+00
         -1   -1    0    0    0  501 -0.00000000000E+00  0.00000000000E+00  0.44434825287E+02  0.44434825287E+02  0.00000000000E+00 0.  1.
          1   -1    0    0  501    0  0.00000000000E+00 -0.00000000000E+00 -0.32339557309E+03  0.32339557309E+03  0.00000000000E+00 0. -1.
         23    2    1    2    0    0  0.31915446229E+02 -0.65988715157E+02 -0.17820478214E+03  0.21316431156E+03  0.91153568819E+02 0.  0.
         23    2    1    2    0    0 -0.31915446229E+02  0.65988715157E+02 -0.10075596566E+03  0.15466608681E+03  0.91633659531E+02 0.  0.
          5    1    4    4  502    0 -0.21263542356E+02  0.40436304700E+02 -0.11452589051E+03  0.12339166329E+03  0.47000000000E+01 0. -1.
         -5    1    3    3    0  503  0.63285589230E+02 -0.35513453684E+02 -0.10403516894E+03  0.12693178315E+03  0.47000000000E+01 0.  1.
          5    1    3    3  503    0 -0.31370143001E+02 -0.30475261473E+02 -0.74169613199E+02  0.86232528410E+02  0.47000000000E+01 0. -1.
         -5    1    4    4    0  502 -0.10651903873E+02  0.25552410457E+02  0.13769924857E+02  0.31274423525E+02  0.47000000000E+01 0.  1.
<mgrwt>
<rscale>  0 0.11725119E+03</rscale>
<asrwt>0</asrwt>
<pdfrwt beam="1">  1        1 0.49753167E-01 0.11734494E+03</pdfrwt>
<pdfrwt beam="2">  1       -1 0.68361267E-02 0.11734494E+03</pdfrwt>
<totfact> 0.82009716E+03</totfact>
</mgrwt>
</event>
<event>
 8    1  0.2964543E-004  0.9263283E+02  0.7546771E-02  0.1297062E+00
          4   -1    0    0  501    0  0.00000000000E+00  0.00000000000E+00  0.37474810388E+02  0.37474810388E+02  0.00000000000E+00 0. -1.
         -4   -1    0    0    0  501 -0.00000000000E+00 -0.00000000000E+00 -0.33670682025E+03  0.33670682025E+03  0.00000000000E+00 0.  1.
         23    2    1    2    0    0  0.40547907793E+01 -0.64770811463E+01 -0.43267384901E+02  0.10223945992E+03  0.92317098421E+02 0.  0.
         23    2    1    2    0    0 -0.40547907793E+01  0.64770811463E+01 -0.25596462496E+03  0.27194217072E+03  0.91521915808E+02 0.  0.
          5    1    4    4  502    0  0.33182653405E+02  0.10549417415E+02 -0.20777630422E+03  0.21072603372E+03  0.47000000000E+01 0. -1.
         -5    1    3    3    0  503 -0.38734937236E+02  0.18125172775E+02 -0.21356815209E+02  0.48032497402E+02  0.47000000000E+01 0.  1.
          5    1    3    3  503    0  0.42789728015E+02 -0.24602253921E+02 -0.21910569692E+02  0.54206962522E+02  0.47000000000E+01 0. -1.
         -5    1    4    4    0  502 -0.37237444185E+02 -0.40723362687E+01 -0.48188320749E+02  0.61216136996E+02  0.47000000000E+01 0.  1.
<mgrwt>
<rscale>  0 0.92434076E+02</rscale>
<asrwt>0</asrwt>
<pdfrwt beam="1">  1        4 0.57653556E-02 0.92632827E+02</pdfrwt>
<pdfrwt beam="2">  1       -4 0.51801048E-01 0.92632827E+02</pdfrwt>
<totfact> 0.10341901E+03</totfact>
</mgrwt>
</event>
<event>
 8    1  0.2964543E-004  0.1243443E+03  0.7546771E-02  0.1236670E+00
         -1   -1    0    0    0  501 -0.00000000000E+00  0.00000000000E+00  0.33926010328E+02  0.33926010328E+02  0.00000000000E+00 0.  1.
          1   -1    0    0  501    0  0.00000000000E+00 -0.00000000000E+00 -0.55945234656E+03  0.55945234656E+03  0.00000000000E+00 0. -1.
         23    2    1    2    0    0 -0.77580383621E+02 -0.27924213063E+02 -0.39495209823E+03  0.41406360892E+03  0.93075424995E+02 0.  0.
         23    2    1    2    0    0  0.77580383621E+02  0.27924213063E+02 -0.13057423800E+03  0.17931474797E+03  0.91135446511E+02 0.  0.
          5    1    4    4  502    0  0.57257450294E+02  0.52349955329E+02 -0.12428067558E+03  0.14658345664E+03  0.47000000000E+01 0. -1.
         -5    1    3    3    0  503  0.13805454533E+01 -0.43246695785E+02 -0.15128355726E+03  0.15741978052E+03  0.47000000000E+01 0.  1.
          5    1    3    3  503    0 -0.78960929074E+02  0.15322482722E+02 -0.24366854097E+03  0.25664382840E+03  0.47000000000E+01 0. -1.
         -5    1    4    4    0  502  0.20322933328E+02 -0.24425742266E+02 -0.62935624252E+01  0.32731291332E+02  0.47000000000E+01 0.  1.
<mgrwt>
<rscale>  0 0.12398139E+03</rscale>
<asrwt>0</asrwt>
<pdfrwt beam="1">  1        1 0.86069585E-01 0.12434433E+03</pdfrwt>
<pdfrwt beam="2">  1       -1 0.52193866E-02 0.12434433E+03</pdfrwt>
<totfact> 0.61222467E+03</totfact>
</mgrwt>
</event>
<event>
 8    1  0.2964543E-004  0.1582081E+03  0.7546771E-02  0.1191323E+00
         -1   -1    0    0    0  501 -0.00000000000E+00  0.00000000000E+00  0.10722448598E+03  0.10722448598E+03  0.00000000000E+00 0.  1.
          1   -1    0    0  501    0  0.00000000000E+00 -0.00000000000E+00 -0.28844753706E+03  0.28844753706E+03  0.00000000000E+00 0. -1.
         23    2    1    2    0    0 -0.12201709241E+03 -0.37268025375E+02 -0.14204981388E+01  0.15617512544E+03  0.90064285017E+02 0.  0.
         23    2    1    2    0    0  0.12201709241E+03  0.37268025375E+02 -0.17980255294E+03  0.23949689759E+03  0.93556022561E+02 0.  0.
          5    1    4    4  502    0  0.89299326271E+02 -0.17757027006E+02 -0.82661847230E+02  0.12306401858E+03  0.47000000000E+01 0. -1.
         -5    1    3    3    0  503 -0.92501714373E+02 -0.61533215879E+02 -0.20718522859E+02  0.11311167494E+03  0.47000000000E+01 0.  1.
          5    1    3    3  503    0 -0.29515378042E+02  0.24265190504E+02  0.19298024720E+02  0.43063450504E+02  0.47000000000E+01 0. -1.
         -5    1    4    4    0  502  0.32717766144E+02  0.55025052381E+02 -0.97140705707E+02  0.11643287902E+03  0.47000000000E+01 0.  1.
<mgrwt>
<rscale>  0 0.15769577E+03</rscale>
<asrwt>0</asrwt>
<pdfrwt beam="1">  1        1 0.44376544E-01 0.15820811E+03</pdfrwt>
<pdfrwt beam="2">  1       -1 0.16496075E-01 0.15820811E+03</pdfrwt>
<totfact> 0.24874169E+03</totfact>
</mgrwt>
</event>
<event>
 8    1  0.2964543E-004  0.1126457E+03  0.7546771E-02  0.1258642E+00
          1   -1    0    0  501    0  0.00000000000E+00  0.00000000000E+00  0.22789431125E+02  0.22789431125E+02  0.00000000000E+00 0. -1.
         -1   -1    0    0    0  501 -0.00000000000E+00 -0.00000000000E+00 -0.61406927932E+03  0.61406927932E+03  0.00000000000E+00 0.  1.
         23    2    1    2    0    0  0.90389030692E+01  0.51663298068E+02 -0.40874826283E+03  0.42236666422E+03  0.92561647235E+02 0.  0.
         23    2    1    2    0    0 -0.90389030692E+01 -0.51663298068E+02 -0.18253158537E+03  0.21449204623E+03  0.99690822566E+02 0.  0.
          5    1    4    4  502    0  0.83856992112E+01 -0.78215039519E+02 -0.11144188510E+03  0.13648917947E+03  0.47000000000E+01 0. -1.
         -5    1    3    3    0  503 -0.10722801046E+02  0.74243683322E+02 -0.31395430764E+03  0.32282580483E+03  0.47000000000E+01 0.  1.
          5    1    3    3  503    0  0.19761704116E+02 -0.22580385253E+02 -0.94793955189E+02  0.99540859390E+02  0.47000000000E+01 0. -1.
         -5    1    4    4    0  502 -0.17424602280E+02  0.26551741451E+02 -0.71089700264E+02  0.78002866757E+02  0.47000000000E+01 0.  1.
<mgrwt>
<rscale>  0 0.11104766E+03</rscale>
<asrwt>0</asrwt>
<pdfrwt beam="1">  1        1 0.35060664E-02 0.11264572E+03</pdfrwt>
<pdfrwt beam="2">  1       -1 0.94472195E-01 0.11264572E+03</pdfrwt>
<totfact> 0.29800147E+03</totfact>
</mgrwt>
</event>
<event>
 8    1  0.2964543E-004  0.1681412E+03  0.7546771E-02  0.1179981E+00
         -1   -1    0    0    0  501 -0.00000000000E+00  0.00000000000E+00  0.82621565785E+02  0.82621565785E+02  0.00000000000E+00 0.  1.
          1   -1    0    0  501    0  0.00000000000E+00 -0.00000000000E+00 -0.11813356413E+04  0.11813356413E+04  0.00000000000E+00 0. -1.
         23    2    1    2    0    0 -0.10835769293E+03  0.90684364610E+02 -0.10821182638E+04  0.10949990073E+04  0.89876835240E+02 0.  0.
         23    2    1    2    0    0  0.10835769293E+03 -0.90684364610E+02 -0.16595811755E+02  0.16895819984E+03  0.91139501433E+02 0.  0.
          5    1    3    3  502    0 -0.11163249936E+03  0.46133249066E+02 -0.85261835739E+03  0.86114472938E+03  0.47000000000E+01 0. -1.
         -5    1    4    4    0  503  0.11722793190E+03 -0.63705807315E+02 -0.30573205745E+02  0.13695849303E+03  0.47000000000E+01 0.  1.
          5    1    4    4  503    0 -0.88702389666E+01 -0.26978557295E+02  0.13977393989E+02  0.31999706807E+02  0.47000000000E+01 0. -1.
         -5    1    3    3    0  502  0.32748064316E+01  0.44551115544E+02 -0.22949990638E+03  0.23385427788E+03  0.47000000000E+01 0.  1.
<mgrwt>
<rscale>  0 0.16797064E+03</rscale>
<asrwt>0</asrwt>
<pdfrwt beam="1">  1        1 0.18174394E+00 0.16814117E+03</pdfrwt>
<pdfrwt beam="2">  1       -1 0.12711011E-01 0.16814117E+03</pdfrwt>
<totfact> 0.50203859E+02</totfact>
</mgrwt>
</event>
<event>
 8    1  0.2964543E-004  0.1059655E+03  0.7546771E-02  0.1269419E+00
         -2   -1    0    0    0  501 -0.00000000000E+00  0.00000000000E+00  0.20858851609E+02  0.20858851609E+02  0.00000000000E+00 0.  1.
          2   -1    0    0  501    0  0.00000000000E+00 -0.00000000000E+00 -0.54987748148E+03  0.54987748148E+03  0.00000000000E+00 0. -1.
         23    2    1    2    0    0 -0.50114615272E+02  0.13356355424E+02 -0.20227313494E+03  0.22723771632E+03  0.89625284977E+02 0.  0.
         23    2    1    2    0    0  0.50114615272E+02 -0.13356355424E+02 -0.32674549493E+03  0.34349861676E+03  0.92405705281E+02 0.  0.
          5    1    3    3  502    0 -0.35981893168E+02  0.51163983899E+02 -0.11597966093E+03  0.13185530568E+03  0.47000000000E+01 0. -1.
         -5    1    4    4    0  503  0.20606218767E+01  0.26430225516E+02 -0.30346183097E+02  0.40568261140E+02  0.47000000000E+01 0.  1.
          5    1    4    4  503    0  0.48053993395E+02 -0.39786580940E+02 -0.29639931183E+03  0.30293035562E+03  0.47000000000E+01 0. -1.
         -5    1    3    3    0  502 -0.14132722104E+02 -0.37807628475E+02 -0.86293474006E+02  0.95382410648E+02  0.47000000000E+01 0.  1.
<mgrwt>
<rscale>  0 0.10535632E+03</rscale>
<asrwt>0</asrwt>
<pdfrwt beam="1">  1        2 0.84596530E-01 0.10596547E+03</pdfrwt>
<pdfrwt beam="2">  1       -2 0.32090543E-02 0.10596547E+03</pdfrwt>
<totfact> 0.19707905E+04</totfact>
</mgrwt>
</event>
<event>
 8    1  0.2964543E-004  0.9714828E+02  0.7546771E-02  0.1291818E+00
         -2   -1    0    0    0  501 -0.00000000000E+00  0.00000000000E+00  0.16850119290E+03  0.16850119290E+03  0.00000000000E+00 0.  1.
          2   -1    0    0  501    0  0.00000000000E+00 -0.00000000000E+00 -0.58966857281E+02  0.58966857281E+02  0.00000000000E+00 0. -1.
         23    2    1    2    0    0 -0.20316919937E+02 -0.29696564273E+02  0.99597802007E+02  0.13913127403E+03  0.90239271291E+02 0.  0.
         23    2    1    2    0    0  0.20316919937E+02  0.29696564273E+02  0.99365336148E+01  0.88336776155E+02  0.80062401636E+02 0.  0.
          5    1    4    4  502    0  0.36044145754E+02  0.15574037432E+01  0.32438725164E+02  0.48743890282E+02  0.47000000000E+01 0. -1.
         -5    1    4    4    0  502 -0.15727225817E+02  0.28139160529E+02 -0.22502191549E+02  0.39592885873E+02  0.47000000000E+01 0.  1.
          5    1    3    3  503    0 -0.30794390715E+02  0.22279863285E+02  0.19547233644E+02  0.42998501726E+02  0.47000000000E+01 0. -1.
         -5    1    3    3    0  503  0.10477470778E+02 -0.51976427558E+02  0.80050568363E+02  0.96132772304E+02  0.47000000000E+01 0.  1.
<mgrwt>
<rscale>  0 0.94715374E+02</rscale>
<asrwt>0</asrwt>
<pdfrwt beam="1">  1        2 0.90718243E-02 0.97148285E+02</pdfrwt>
<pdfrwt beam="2">  1       -2 0.25923260E-01 0.97148285E+02</pdfrwt>
<totfact> 0.88063637E+03</totfact>
</mgrwt>
</event>
<event>
 8    1  0.2964543E-004  0.9630065E+02  0.7546771E-02  0.1289078E+00
         -1   -1    0    0    0  501 -0.00000000000E+00  0.00000000000E+00  0.10058401238E+03  0.10058401238E+03  0.00000000000E+00 0.  1.
          1   -1    0    0  501    0  0.00000000000E+00 -0.00000000000E+00 -0.12733089404E+03  0.12733089404E+03  0.00000000000E+00 0. -1.
         23    2    1    2    0    0 -0.92985439659E+01  0.32048142201E+02  0.47717069115E+02  0.10618284538E+03  0.88793758960E+02 0.  0.
         23    2    1    2    0    0  0.92985439659E+01 -0.32048142201E+02 -0.74463950776E+02  0.12173206105E+03  0.90334203836E+02 0.  0.
          5    1    4    4  502    0 -0.13066544048E+02 -0.57570256764E+02 -0.60723668234E+02  0.84820533605E+02  0.47000000000E+01 0. -1.
         -5    1    4    4    0  502  0.22365088014E+02  0.25522114563E+02 -0.13740282543E+02  0.36911527440E+02  0.47000000000E+01 0.  1.
          5    1    3    3  503    0  0.27934611235E+02 -0.93970339521E+01 -0.38864686164E+01  0.30097199043E+02  0.47000000000E+01 0. -1.
         -5    1    3    3    0  503 -0.37233155201E+02  0.41445176154E+02  0.51603537732E+02  0.76085646340E+02  0.47000000000E+01 0.  1.
<mgrwt>
<rscale>  0 0.95937726E+02</rscale>
<asrwt>0</asrwt>
<pdfrwt beam="1">  1        1 0.19589368E-01 0.96300648E+02</pdfrwt>
<pdfrwt beam="2">  1       -1 0.15474463E-01 0.96300648E+02</pdfrwt>
<totfact> 0.73890001E+03</totfact>
</mgrwt>
</event>
<event>
 8    1  0.2964543E-004  0.9418933E+02  0.7546771E-02  0.1294796E+00
          1   -1    0    0  501    0  0.00000000000E+00  0.00000000000E+00  0.46762854258E+03  0.46762854258E+03  0.00000000000E+00 0. -1.
         -1   -1    0    0    0  501 -0.00000000000E+00 -0.00000000000E+00 -0.37338076516E+02  0.37338076516E+02  0.00000000000E+00 0.  1.
         23    2    1    2    0    0 -0.22705544962E+02 -0.65890675721E+01  0.36894692511E+02  0.10115754092E+03  0.91173856816E+02 0.  0.
         23    2    1    2    0    0  0.22705544962E+02  0.65890675721E+01  0.39339577355E+03  0.40380907817E+03  0.87991927937E+02 0.  0.
          5    1    4    4  502    0  0.26327506552E+02  0.41589338035E+02  0.29692651912E+03  0.30101537900E+03  0.47000000000E+01 0. -1.
         -5    1    3    3    0  503  0.40611718534E+01  0.23882680992E+02  0.52051769148E+02  0.57605140739E+02  0.47000000000E+01 0.  1.
          5    1    3    3  503    0 -0.26766716815E+02 -0.30471748564E+02 -0.15157076637E+02  0.43552400184E+02  0.47000000000E+01 0. -1.
         -5    1    4    4    0  502 -0.36219615902E+01 -0.35000270463E+02  0.96469254432E+02  0.10279369917E+03  0.47000000000E+01 0.  1.
<mgrwt>
<rscale>  0 0.93410585E+02</rscale>
<asrwt>0</asrwt>
<pdfrwt beam="1">  1        1 0.71942848E-01 0.94189329E+02</pdfrwt>
<pdfrwt beam="2">  1       -1 0.57443198E-02 0.94189329E+02</pdfrwt>
<totfact> 0.65926896E+03</totfact>
</mgrwt>
</event>
<event>
 8    1  0.2964543E-004  0.9356386E+02  0.7546771E-02  0.1296157E+00
          2   -1    0    0  501    0  0.00000000000E+00  0.00000000000E+00  0.43343693925E+03  0.43343693925E+03  0.00000000000E+00 0. -1.
         -2   -1    0    0    0  501 -0.00000000000E+00 -0.00000000000E+00 -0.27002743254E+02  0.27002743254E+02  0.00000000000E+00 0.  1.
         23    2    1    2    0    0 -0.12065804590E+02  0.64799688614E+01  0.32633879731E+03  0.33948668121E+03  0.92556050329E+02 0.  0.
         23    2    1    2    0    0  0.12065804590E+02 -0.64799688614E+01  0.80095398692E+02  0.12095300130E+03  0.89592309908E+02 0.  0.
          5    1    3    3  502    0  0.33967219007E+02 -0.19405077921E+02  0.16587365977E+03  0.17048897331E+03  0.47000000000E+01 0. -1.
         -5    1    4    4    0  503  0.43964705025E+02 -0.89303811966E+00  0.76058591550E+02  0.87981203411E+02  0.47000000000E+01 0. -1.
          5    1    4    4  503    0 -0.31898900435E+02 -0.55869307418E+01  0.40368071419E+01  0.32971797888E+02  0.47000000000E+01 0.  1.
         -5    1    3    3    0  502 -0.46033023597E+02  0.25885046783E+02  0.16046513754E+03  0.16899770790E+03  0.47000000000E+01 0.  1.
<mgrwt>
<rscale>  0 0.92822399E+02</rscale>
<asrwt>0</asrwt>
<pdfrwt beam="1">  1        2 0.66682601E-01 0.93563861E+02</pdfrwt>
<pdfrwt beam="2">  1       -2 0.41542685E-02 0.93563861E+02</pdfrwt>
<totfact> 0.17246366E+04</totfact>
</mgrwt>
</event>
<event>
 8    1  0.2964543E-004  0.1090725E+03  0.7546771E-02  0.1262828E+00
          2   -1    0    0  501    0  0.00000000000E+00  0.00000000000E+00  0.14229649198E+03  0.14229649198E+03  0.00000000000E+00 0. -1.
         -2   -1    0    0    0  501 -0.00000000000E+00 -0.00000000000E+00 -0.98263791961E+02  0.98263791961E+02  0.00000000000E+00 0.  1.
         23    2    1    2    0    0 -0.50282028497E+01  0.58315073019E+02 -0.25687639963E+02  0.11205651047E+03  0.92037362665E+02 0.  0.
         23    2    1    2    0    0  0.50282028497E+01 -0.58315073019E+02  0.69720339978E+02  0.12850377347E+03  0.90699302223E+02 0.  0.
          5    1    4    4  502    0  0.30083238608E+02 -0.72493683415E+02  0.47825189731E+02  0.92030832622E+02  0.47000000000E+01 0. -1.
         -5    1    3    3    0  503  0.50146376837E+01  0.77530288843E+02 -0.38074342550E+02  0.86647780352E+02  0.47000000000E+01 0.  1.
          5    1    3    3  503    0 -0.10042840533E+02 -0.19215215824E+02  0.12386702588E+02  0.25408730117E+02  0.47000000000E+01 0. -1.
         -5    1    4    4    0  502 -0.25055035758E+02  0.14178610396E+02  0.21895150247E+02  0.36472940846E+02  0.47000000000E+01 0.  1.
<mgrwt>
<rscale>  0 0.10878971E+03</rscale>
<asrwt>0</asrwt>
<pdfrwt beam="1">  1        2 0.21891768E-01 0.10907248E+03</pdfrwt>
<pdfrwt beam="2">  1       -2 0.15117506E-01 0.10907248E+03</pdfrwt>
<totfact> 0.78589774E+03</totfact>
</mgrwt>
</event>
<event>
 8    1  0.2964543E-004  0.1165499E+03  0.7546771E-02  0.1249977E+00
         -3   -1    0    0    0  501 -0.00000000000E+00  0.00000000000E+00  0.65155775951E+02  0.65155775951E+02  0.00000000000E+00 0.  1.
          3   -1    0    0  501    0  0.00000000000E+00 -0.00000000000E+00 -0.20444980309E+03  0.20444980309E+03  0.00000000000E+00 0. -1.
         23    2    1    2    0    0  0.32088712496E+02  0.61713637047E+02 -0.64547103218E+02  0.13322990009E+03  0.93518015782E+02 0.  0.
         23    2    1    2    0    0 -0.32088712496E+02 -0.61713637047E+02 -0.74746923922E+02  0.13637567896E+03  0.90404450707E+02 0.  0.
          5    1    4    4  502    0  0.20244994602E+02  0.17606196634E+01 -0.43513171743E+02  0.48253970854E+02  0.47000000000E+01 0. -1.
         -5    1    4    4    0  502 -0.52333707098E+02 -0.63474256710E+02 -0.31233752179E+02  0.88121708102E+02  0.47000000000E+01 0.  1.
          5    1    3    3  503    0 -0.29131948160E+02  0.72395757823E+01 -0.27935076285E+01  0.30511891878E+02  0.47000000000E+01 0.  1.
         -5    1    3    3    0  503  0.61220660657E+02  0.54474061265E+02 -0.61753595589E+02  0.10271800821E+03  0.47000000000E+01 0. -1.
<mgrwt>
<rscale>  0 0.11592409E+03</rscale>
<asrwt>0</asrwt>
<pdfrwt beam="1">  1        3 0.31453816E-01 0.11654989E+03</pdfrwt>
<pdfrwt beam="2">  1       -3 0.10023965E-01 0.11654989E+03</pdfrwt>
<totfact> 0.16148482E+03</totfact>
</mgrwt>
</event>
<event>
 8    1  0.2964543E-004  0.1116600E+03  0.7546771E-02  0.1257682E+00
          1   -1    0    0  501    0  0.00000000000E+00  0.00000000000E+00  0.19361197694E+02  0.19361197694E+02  0.00000000000E+00 0. -1.
         -1   -1    0    0    0  501 -0.00000000000E+00 -0.00000000000E+00 -0.72287285509E+03  0.72287285509E+03  0.00000000000E+00 0.  1.
         23    2    1    2    0    0 -0.23798531562E+02 -0.58588396845E+02 -0.22713687026E+03  0.25294795012E+03  0.91610792437E+02 0.  0.
         23    2    1    2    0    0  0.23798531562E+02  0.58588396845E+02 -0.47637478714E+03  0.48928610266E+03  0.92027072577E+02 0.  0.
          5    1    4    4  502    0 -0.32020363165E+02  0.24994905180E+02 -0.26230167147E+03  0.26546997156E+03  0.47000000000E+01 0. -1.
         -5    1    4    4    0  502  0.55818894727E+02  0.33593491665E+02 -0.21407311566E+03  0.22381613110E+03  0.47000000000E+01 0.  1.
          5    1    3    3  503    0  0.12097239858E+02 -0.65324279278E+02 -0.96724301573E+02  0.11743630269E+03  0.47000000000E+01 0. -1.
         -5    1    3    3    0  503 -0.35895771420E+02  0.67358824324E+01 -0.13041256868E+03  0.13551164743E+03  0.47000000000E+01 0.  1.
<mgrwt>
<rscale>  0 0.11157418E+03</rscale>
<asrwt>0</asrwt>
<pdfrwt beam="1">  1        1 0.29786454E-02 0.11165999E+03</pdfrwt>
<pdfrwt beam="2">  1       -1 0.11121123E+00 0.11165999E+03</pdfrwt>
<totfact> 0.25996914E+03</totfact>
</mgrwt>
</event>
<event>
 8    1  0.2964543E-004  0.1365941E+03  0.7546771E-02  0.1218000E+00
          2   -1    0    0  501    0  0.00000000000E+00  0.00000000000E+00  0.48944457456E+03  0.48944457456E+03  0.00000000000E+00 0. -1.
         -2   -1    0    0    0  501 -0.00000000000E+00 -0.00000000000E+00 -0.39620959708E+02  0.39620959708E+02  0.00000000000E+00 0.  1.
         23    2    1    2    0    0 -0.86275520535E+02  0.53716312941E+02  0.27653582710E+03  0.30841510076E+03  0.91208020417E+02 0.  0.
         23    2    1    2    0    0  0.86275520535E+02 -0.53716312941E+02  0.17328778775E+03  0.22065043350E+03  0.91263622008E+02 0.  0.
          5    1    3    3  502    0 -0.75012391899E+02  0.99971521904E+01  0.23485305515E+03  0.24678907898E+03  0.47000000000E+01 0. -1.
         -5    1    4    4    0  503  0.84852961403E+02 -0.25802315869E+02  0.68680400833E+02  0.11227142122E+03  0.47000000000E+01 0.  1.
          5    1    4    4  503    0  0.14225591323E+01 -0.27913997072E+02  0.10460738691E+03  0.10837901228E+03  0.47000000000E+01 0. -1.
         -5    1    3    3    0  502 -0.11263128637E+02  0.43719160750E+02  0.41682771954E+02  0.61626021786E+02  0.47000000000E+01 0.  1.
<mgrwt>
<rscale>  0 0.13658484E+03</rscale>
<asrwt>0</asrwt>
<pdfrwt beam="1">  1        2 0.75299161E-01 0.13659413E+03</pdfrwt>
<pdfrwt beam="2">  1       -2 0.60955326E-02 0.13659413E+03</pdfrwt>
<totfact> 0.87918275E+03</totfact>
</mgrwt>
</event>
<event>
 7    1  0.3849418E-004  0.3529982E+03  0.7546771E-02  0.1095754E+00
         -2   -1    0    0    0  501 -0.00000000000E+00  0.00000000000E+00  0.27276741752E+03  0.27276741752E+03  0.00000000000E+00 0.  1.
          2   -1    0    0  501    0  0.00000000000E+00 -0.00000000000E+00 -0.51028631570E+03  0.51028631570E+03  0.00000000000E+00 0. -1.
         23    2    1    2    0    0 -0.10330418965E+03  0.15688759172E+02  0.18549787079E+03  0.23209918880E+03  0.92426622848E+02 0.  0.
          5    1    1    2  502    0  0.69240171285E+02  0.11644213539E+03 -0.38656056473E+03  0.40963902697E+03  0.47000000000E+01 0. -1.
         -5    1    3    3    0  503 -0.69173936699E+02  0.51438182988E+02  0.14152124507E+03  0.16577476585E+03  0.47000000000E+01 0.  1.
          5    1    3    3  503    0 -0.34130252947E+02 -0.35749423816E+02  0.43976625717E+02  0.66324422944E+02  0.47000000000E+01 0. -1.
         -5    1    1    2    0  502  0.34064018361E+02 -0.13213089456E+03 -0.36456204235E+02  0.14131551745E+03  0.47000000000E+01 0.  1.
<mgrwt>
<rscale>  0 0.27988126E+03</rscale>
<asrwt>0</asrwt>
<pdfrwt beam="1">  1        2 0.78505587E-01 0.35299819E+03</pdfrwt>
<pdfrwt beam="2">  1       -2 0.41964218E-01 0.35299819E+03</pdfrwt>
<totfact> 0.33117364E+02</totfact>
</mgrwt>
</event>
<event>
 8    1  0.2964543E-004  0.9587321E+02  0.7546771E-02  0.1291481E+00
         -2   -1    0    0    0  501 -0.00000000000E+00  0.00000000000E+00  0.41207199983E+02  0.41207199983E+02  0.00000000000E+00 0.  1.
          2   -1    0    0  501    0  0.00000000000E+00 -0.00000000000E+00 -0.21394475889E+03  0.21394475889E+03  0.00000000000E+00 0. -1.
         23    2    1    2    0    0 -0.11770511985E+02  0.21270143768E+02 -0.89635046049E+02  0.13124828876E+03  0.92740001371E+02 0.  0.
         23    2    1    2    0    0  0.11770511985E+02 -0.21270143768E+02 -0.83102512863E+02  0.12390367012E+03  0.88629159172E+02 0.  0.
          5    1    3    3  502    0 -0.29720880582E+02 -0.20550052072E+02 -0.74712179494E+02  0.83124215169E+02  0.47000000000E+01 0. -1.
         -5    1    4    4    0  503 -0.27841870256E+02  0.19873249406E+02 -0.33569018962E+02  0.48156877135E+02  0.47000000000E+01 0.  1.
          5    1    4    4  503    0  0.39612382241E+02 -0.41143393175E+02 -0.49533493901E+02  0.75746792980E+02  0.47000000000E+01 0. -1.
         -5    1    3    3    0  502  0.17950368598E+02  0.41820195840E+02 -0.14922866554E+02  0.48124073592E+02  0.47000000000E+01 0.  1.
<mgrwt>
<rscale>  0 0.94864761E+02</rscale>
<asrwt>0</asrwt>
<pdfrwt beam="1">  1        2 0.32914579E-01 0.95873207E+02</pdfrwt>
<pdfrwt beam="2">  1       -2 0.63395692E-02 0.95873207E+02</pdfrwt>
<totfact> 0.19354581E+04</totfact>
</mgrwt>
</event>
<event>
 8    1  0.2964543E-004  0.1037881E+03  0.7546771E-02  0.1275022E+00
          1   -1    0    0  501    0  0.00000000000E+00  0.00000000000E+00  0.40109578075E+03  0.40109578075E+03  0.00000000000E+00 0. -1.
         -1   -1    0    0    0  501 -0.00000000000E+00 -0.00000000000E+00 -0.30216236298E+02  0.30216236298E+02  0.00000000000E+00 0.  1.
         23    2    1    2    0    0  0.26283543093E+02 -0.38254938514E+02  0.97514714473E+02  0.13890767493E+03  0.87361076325E+02 0.  0.
         23    2    1    2    0    0 -0.26283543093E+02  0.38254938514E+02  0.27336482998E+03  0.29240434212E+03  0.92831589791E+02 0.  0.
          5    1    4    4  502    0 -0.13211627851E+02  0.54245782675E+02  0.26285188631E+03  0.26875705793E+03  0.47000000000E+01 0. -1.
         -5    1    3    3    0  503  0.45734354962E+02  0.91649466940E+01  0.39030009273E+02  0.61000484388E+02  0.47000000000E+01 0.  1.
          5    1    3    3  503    0 -0.19450811868E+02 -0.47419885208E+02  0.58484705199E+02  0.77907190539E+02  0.47000000000E+01 0. -1.
         -5    1    4    4    0  502 -0.13071915243E+02 -0.15990844161E+02  0.10512943666E+02  0.23647284191E+02  0.47000000000E+01 0.  1.
<mgrwt>
<rscale>  0 0.10255044E+03</rscale>
<asrwt>0</asrwt>
<pdfrwt beam="1">  1        1 0.61707040E-01 0.10378810E+03</pdfrwt>
<pdfrwt beam="2">  1       -1 0.46486520E-02 0.10378810E+03</pdfrwt>
<totfact> 0.10994371E+04</totfact>
</mgrwt>
</event>
<event>
 8    1  0.2964543E-004  0.1074031E+03  0.7546771E-02  0.1267662E+00
         -2   -1    0    0    0  501 -0.00000000000E+00  0.00000000000E+00  0.10136578654E+03  0.10136578654E+03  0.00000000000E+00 0.  1.
          2   -1    0    0  501    0  0.00000000000E+00 -0.00000000000E+00 -0.12982517998E+03  0.12982517998E+03  0.00000000000E+00 0. -1.
         23    2    1    2    0    0 -0.50622694784E+02 -0.10539188622E+02  0.31722881387E+02  0.11198999345E+03  0.94136526945E+02 0.  0.
         23    2    1    2    0    0  0.50622694784E+02  0.10539188622E+02 -0.60182274828E+02  0.11920097307E+03  0.88956360387E+02 0.  0.
          5    1    4    4  502    0  0.73213969660E+02  0.14466046811E+02 -0.28983236592E+02  0.80197692405E+02  0.47000000000E+01 0. -1.
         -5    1    4    4    0  502 -0.22591274876E+02 -0.39268581891E+01 -0.31199038236E+02  0.39003280665E+02  0.47000000000E+01 0.  1.
          5    1    3    3  503    0  0.19868247963E+01 -0.24883191869E+02 -0.23236714953E+02  0.34426089412E+02  0.47000000000E+01 0. -1.
         -5    1    3    3    0  503 -0.52609519581E+02  0.14344003248E+02  0.54959596340E+02  0.77563904037E+02  0.47000000000E+01 0.  1.
<mgrwt>
<rscale>  0 0.10625734E+03</rscale>
<asrwt>0</asrwt>
<pdfrwt beam="1">  1        2 0.19973105E-01 0.10740306E+03</pdfrwt>
<pdfrwt beam="2">  1       -2 0.15594736E-01 0.10740306E+03</pdfrwt>
<totfact> 0.82664152E+03</totfact>
</mgrwt>
</event>
<event>
 8    1  0.2964543E-004  0.9574421E+02  0.7546771E-02  0.1290271E+00
         -3   -1    0    0    0  501 -0.00000000000E+00  0.00000000000E+00  0.61977536620E+03  0.61977536620E+03  0.00000000000E+00 0.  1.
          3   -1    0    0  501    0  0.00000000000E+00 -0.00000000000E+00 -0.17118641002E+02  0.17118641002E+02  0.00000000000E+00 0. -1.
         23    2    1    2    0    0 -0.10498775837E+02 -0.22185437540E+02  0.42208179765E+03  0.43250648744E+03  0.91139452685E+02 0.  0.
         23    2    1    2    0    0  0.10498775837E+02  0.22185437540E+02  0.18057492754E+03  0.20438751976E+03  0.92544777504E+02 0.  0.
          5    1    4    4  502    0 -0.19032605086E+02 -0.22374214610E+02  0.22058443178E+02  0.37033909478E+02  0.47000000000E+01 0. -1.
         -5    1    4    4    0  502  0.29531380922E+02  0.44559652150E+02  0.15851648436E+03  0.16735361028E+03  0.47000000000E+01 0.  1.
          5    1    3    3  503    0  0.31153219475E+02 -0.36257228860E+02  0.17365574127E+03  0.18017634751E+03  0.47000000000E+01 0. -1.
         -5    1    3    3    0  503 -0.41651995312E+02  0.14071791319E+02  0.24842605638E+03  0.25233013993E+03  0.47000000000E+01 0.  1.
<mgrwt>
<rscale>  0 0.95402971E+02</rscale>
<asrwt>0</asrwt>
<pdfrwt beam="1">  1        3 0.26336376E-02 0.95744210E+02</pdfrwt>
<pdfrwt beam="2">  1       -3 0.95350039E-01 0.95744210E+02</pdfrwt>
<totfact> 0.13611966E+03</totfact>
</mgrwt>
</event>
<event>
 8    1  0.2964543E-004  0.1065711E+03  0.7546771E-02  0.1269714E+00
         -3   -1    0    0    0  501 -0.00000000000E+00  0.00000000000E+00  0.12543205149E+03  0.12543205149E+03  0.00000000000E+00 0.  1.
          3   -1    0    0  501    0  0.00000000000E+00 -0.00000000000E+00 -0.95775837352E+02  0.95775837352E+02  0.00000000000E+00 0. -1.
         23    2    1    2    0    0  0.13110906632E+02  0.53429446640E+02  0.50401258457E+02  0.11788848644E+03  0.91273253148E+02 0.  0.
         23    2    1    2    0    0 -0.13110906632E+02 -0.53429446640E+02 -0.20745044321E+02  0.10331940240E+03  0.84958462836E+02 0.  0.
          5    1    3    3  502    0 -0.89855419410E+01  0.74790016270E+02  0.36279645911E+02  0.83741203747E+02  0.47000000000E+01 0. -1.
         -5    1    3    3    0  502  0.22096448572E+02 -0.21360569630E+02  0.14121612546E+02  0.34147282693E+02  0.47000000000E+01 0.  1.
          5    1    4    4  503    0 -0.20040908923E+02  0.18429331032E+02 -0.13081937085E+02  0.30569680251E+02  0.47000000000E+01 0. -1.
         -5    1    4    4    0  503  0.69300022919E+01 -0.71858777672E+02 -0.76631072360E+01  0.72749722149E+02  0.47000000000E+01 0.  1.
<mgrwt>
<rscale>  0 0.10520619E+03</rscale>
<asrwt>0</asrwt>
<pdfrwt beam="1">  1        3 0.14734744E-01 0.10657114E+03</pdfrwt>
<pdfrwt beam="2">  1       -3 0.19297239E-01 0.10657114E+03</pdfrwt>
<totfact> 0.20069377E+03</totfact>
</mgrwt>
</event>
<event>
 8    1  0.2964543E-004  0.9616902E+02  0.7546771E-02  0.1291110E+00
          2   -1    0    0  501    0  0.00000000000E+00  0.00000000000E+00  0.35456009105E+03  0.35456009105E+03  0.00000000000E+00 0. -1.
         -2   -1    0    0    0  501 -0.00000000000E+00 -0.00000000000E+00 -0.26728820566E+02  0.26728820566E+02  0.00000000000E+00 0.  1.
         23    2    1    2    0    0 -0.13230230510E+02 -0.80467167859E+01  0.11748152066E+03  0.15182354086E+03  0.94914125467E+02 0.  0.
         23    2    1    2    0    0  0.13230230510E+02  0.80467167859E+01  0.21034974983E+03  0.22946537076E+03  0.90374501231E+02 0.  0.
          5    1    3    3  502    0  0.22989301332E+02  0.33422421285E+02  0.47026611425E+02  0.62282890126E+02  0.47000000000E+01 0. -1.
         -5    1    4    4    0  503 -0.12583892521E+02  0.30679226953E+02  0.18094837345E+03  0.18402166495E+03  0.47000000000E+01 0.  1.
          5    1    4    4  503    0  0.25814123031E+02 -0.22632510168E+02  0.29401376382E+02  0.45443705807E+02  0.47000000000E+01 0. -1.
         -5    1    3    3    0  502 -0.36219531842E+02 -0.41469138071E+02  0.70454909230E+02  0.89540650734E+02  0.47000000000E+01 0.  1.
<mgrwt>
<rscale>  0 0.95029557E+02</rscale>
<asrwt>0</asrwt>
<pdfrwt beam="1">  1        2 0.54547703E-01 0.96169017E+02</pdfrwt>
<pdfrwt beam="2">  1       -2 0.41121265E-02 0.96169017E+02</pdfrwt>
<totfact> 0.21695171E+04</totfact>
</mgrwt>
</event>
<event>
 8    1  0.2964543E-004  0.1060314E+03  0.7546771E-02  0.1275336E+00
          1   -1    0    0  501    0  0.00000000000E+00  0.00000000000E+00  0.65192808430E+03  0.65192808430E+03  0.00000000000E+00 0. -1.
         -1   -1    0    0    0  501 -0.00000000000E+00 -0.00000000000E+00 -0.20858162038E+02  0.20858162038E+02  0.00000000000E+00 0.  1.
         23    2    1    2    0    0  0.40589335086E+01  0.16013178198E+02  0.50827723546E+03  0.51921902583E+03  0.10473658331E+03 0.  0.
         23    2    1    2    0    0 -0.40589335086E+01 -0.16013178198E+02  0.12279268681E+03  0.15356722051E+03  0.90730096794E+02 0.  0.
          5    1    4    4  502    0  0.24038886761E+01  0.36614459030E+02  0.35173022863E+02  0.51045360496E+02  0.47000000000E+01 0. -1.
         -5    1    4    4    0  502 -0.64628221847E+01 -0.52627637228E+02  0.87619663946E+02  0.10252186001E+03  0.47000000000E+01 0.  1.
          5    1    3    3  503    0  0.47005673388E+02  0.18039880943E+02  0.39033067317E+03  0.39359254954E+03  0.47000000000E+01 0. -1.
         -5    1    3    3    0  503 -0.42946739879E+02 -0.20267027445E+01  0.11794656228E+03  0.12562647629E+03  0.47000000000E+01 0.  1.
<mgrwt>
<rscale>  0 0.10239625E+03</rscale>
<asrwt>0</asrwt>
<pdfrwt beam="1">  1        1 0.10029661E+00 0.10603136E+03</pdfrwt>
<pdfrwt beam="2">  1       -1 0.32089485E-02 0.10603136E+03</pdfrwt>
<totfact> 0.10032982E+04</totfact>
</mgrwt>
</event>
<event>
 8    1  0.2964543E-004  0.9559493E+02  0.7546771E-02  0.1296418E+00
         -1   -1    0    0    0  501 -0.00000000000E+00  0.00000000000E+00  0.12919784991E+02  0.12919784991E+02  0.00000000000E+00 0.  1.
          1   -1    0    0  501    0  0.00000000000E+00 -0.00000000000E+00 -0.62817899080E+03  0.62817899080E+03  0.00000000000E+00 0. -1.
         23    2    1    2    0    0 -0.15721611365E+02  0.22844648333E+02 -0.28481126718E+03  0.29710134654E+03  0.79891834265E+02 0.  0.
         23    2    1    2    0    0  0.15721611365E+02 -0.22844648333E+02 -0.33044793863E+03  0.34399742925E+03  0.91484119741E+02 0.  0.
          5    1    4    4  502    0 -0.53787057129E+00 -0.46590817729E+02 -0.29205540713E+03  0.29578614645E+03  0.47000000000E+01 0. -1.
         -5    1    3    3    0  503  0.30961714106E+02 -0.17339015076E+01 -0.11686168299E+03  0.12099742603E+03  0.47000000000E+01 0.  1.
          5    1    3    3  503    0 -0.46683325471E+02  0.24578549841E+02 -0.16794958419E+03  0.17610392051E+03  0.47000000000E+01 0. -1.
         -5    1    4    4    0  502  0.16259481936E+02  0.23746169396E+02 -0.38392531505E+02  0.48211282799E+02  0.47000000000E+01 0.  1.
<mgrwt>
<rscale>  0 0.92710241E+02</rscale>
<asrwt>0</asrwt>
<pdfrwt beam="1">  1        1 0.96642901E-01 0.95594933E+02</pdfrwt>
<pdfrwt beam="2">  1       -1 0.19876596E-02 0.95594933E+02</pdfrwt>
<totfact> 0.20842332E+04</totfact>
</mgrwt>
</event>
<event>
 8    1  0.2964543E-004  0.1071499E+03  0.7546771E-02  0.1266762E+00
          1   -1    0    0  501    0  0.00000000000E+00  0.00000000000E+00  0.40049595810E+03  0.40049595810E+03  0.00000000000E+00 0. -1.
         -1   -1    0    0    0  501 -0.00000000000E+00 -0.00000000000E+00 -0.31689093951E+02  0.31689093951E+02  0.00000000000E+00 0.  1.
         23    2    1    2    0    0 -0.39686567087E+02 -0.39562336782E+02  0.11416546326E+03  0.15657222543E+03  0.91328564402E+02 0.  0.
         23    2    1    2    0    0  0.39686567087E+02  0.39562336782E+02  0.25464140089E+03  0.27561282662E+03  0.89330762076E+02 0.  0.
          5    1    3    3  502    0  0.26729388891E+02 -0.11187003519E+02  0.57835236977E+02  0.64858414369E+02  0.47000000000E+01 0. -1.
         -5    1    4    4    0  503 -0.25148781466E+02 -0.56557976930E+01  0.59218530595E+02  0.64756263193E+02  0.47000000000E+01 0.  1.
          5    1    4    4  503    0  0.64835348553E+02  0.45218134475E+02  0.19542287029E+03  0.21085656343E+03  0.47000000000E+01 0. -1.
         -5    1    3    3    0  502 -0.66415955978E+02 -0.28375333264E+02  0.56330226286E+02  0.91713811063E+02  0.47000000000E+01 0.  1.
<mgrwt>
<rscale>  0 0.10672298E+03</rscale>
<asrwt>0</asrwt>
<pdfrwt beam="1">  1        1 0.61614759E-01 0.10714994E+03</pdfrwt>
<pdfrwt beam="2">  1       -1 0.48752455E-02 0.10714994E+03</pdfrwt>
<totfact> 0.10299201E+04</totfact>
</mgrwt>
</event>
<event>
 8    1  0.2964543E-004  0.1083734E+03  0.7546771E-02  0.1264134E+00
          2   -1    0    0  501    0  0.00000000000E+00  0.00000000000E+00  0.96223724041E+02  0.96223724041E+02  0.00000000000E+00 0. -1.
         -2   -1    0    0    0  501 -0.00000000000E+00 -0.00000000000E+00 -0.12261544692E+03  0.12261544692E+03  0.00000000000E+00 0.  1.
         23    2    1    2    0    0  0.16780228991E+02 -0.53319042087E+02 -0.26211607291E-01  0.10837344315E+03  0.92845603870E+02 0.  0.
         23    2    1    2    0    0 -0.16780228991E+02  0.53319042087E+02 -0.26365511276E+02  0.11046572782E+03  0.91558945515E+02 0.  0.
          5    1    3    3  502    0 -0.28008087720E+02 -0.45449849574E+02  0.21621764237E+02  0.57790418693E+02  0.47000000000E+01 0. -1.
         -5    1    3    3    0  502  0.44788316710E+02 -0.78691925131E+01 -0.21647975844E+02  0.50583024452E+02  0.47000000000E+01 0.  1.
          5    1    4    4  503    0 -0.31676320505E+02  0.27028151411E+02  0.26365324925E+02  0.49508894230E+02  0.47000000000E+01 0. -1.
         -5    1    4    4    0  503  0.14896091514E+02  0.26290890676E+02 -0.52730836201E+02  0.60956833591E+02  0.47000000000E+01 0.  1.
<mgrwt>
<rscale>  0 0.10809732E+03</rscale>
<asrwt>0</asrwt>
<pdfrwt beam="1">  1        2 0.14803650E-01 0.10837344E+03</pdfrwt>
<pdfrwt beam="2">  1       -2 0.18863915E-01 0.10837344E+03</pdfrwt>
<totfact> 0.85117997E+03</totfact>
</mgrwt>
</event>
<event>
 8    1  0.2964543E-004  0.1573825E+03  0.7546771E-02  0.1192235E+00
         -1   -1    0    0    0  501 -0.00000000000E+00  0.00000000000E+00  0.64960455261E+02  0.64960455261E+02  0.00000000000E+00 0.  1.
          1   -1    0    0  501    0  0.00000000000E+00 -0.00000000000E+00 -0.37805885879E+03  0.37805885879E+03  0.00000000000E+00 0. -1.
         23    2    1    2    0    0  0.95656614936E+01  0.12746628642E+03 -0.14427565979E+03  0.21350580566E+03  0.91815614078E+02 0.  0.
         23    2    1    2    0    0 -0.95656614936E+01 -0.12746628642E+03 -0.16882274374E+03  0.22951350840E+03  0.88522176198E+02 0.  0.
          5    1    3    3  502    0  0.23742091324E+02  0.10532562342E+02  0.10055183509E+01  0.26414443721E+02  0.47000000000E+01 0. -1.
         -5    1    4    4    0  503 -0.13357409218E+02 -0.57643552117E+02 -0.14299014878E+03  0.15482077422E+03  0.47000000000E+01 0.  1.
          5    1    4    4  503    0  0.37917477245E+01 -0.69822734301E+02 -0.25832594958E+02  0.74692734173E+02  0.47000000000E+01 0. -1.
         -5    1    3    3    0  502 -0.14176429831E+02  0.11693372408E+03 -0.14528117814E+03  0.18709136194E+03  0.47000000000E+01 0.  1.
<mgrwt>
<rscale>  0 0.15690579E+03</rscale>
<asrwt>0</asrwt>
<pdfrwt beam="1">  1        1 0.58162901E-01 0.15738254E+03</pdfrwt>
<pdfrwt beam="2">  1       -1 0.99939163E-02 0.15738254E+03</pdfrwt>
<totfact> 0.38687946E+03</totfact>
</mgrwt>
</event>
<event>
 8    1  0.2964543E-004  0.1029919E+03  0.7546771E-02  0.1274830E+00
         -2   -1    0    0    0  501 -0.00000000000E+00  0.00000000000E+00  0.21986178364E+02  0.21986178364E+02  0.00000000000E+00 0. -1.
          2   -1    0    0  501    0  0.00000000000E+00 -0.00000000000E+00 -0.50148636161E+03  0.50148636161E+03  0.00000000000E+00 0.  1.
         23    2    1    2    0    0  0.42010220266E+02 -0.14405621841E+02 -0.29720687502E+03  0.31409683530E+03  0.91392093965E+02 0.  0.
         23    2    1    2    0    0 -0.42010220266E+02  0.14405621841E+02 -0.18229330822E+03  0.20937570467E+03  0.92924458221E+02 0.  0.
          5    1    3    3  502    0 -0.28547367275E+02 -0.44015161130E+01 -0.10679563492E+03  0.11073266528E+03  0.47000000000E+01 0. -1.
         -5    1    4    4    0  503  0.22357342491E+02  0.28856436966E+02 -0.68314596199E+02  0.77598445677E+02  0.47000000000E+01 0.  1.
          5    1    4    4  503    0 -0.64367562756E+02 -0.14450815125E+02 -0.11397871203E+03  0.13177725899E+03  0.47000000000E+01 0. -1.
         -5    1    3    3    0  502  0.70557587541E+02 -0.10004105728E+02 -0.19041124010E+03  0.20336417002E+03  0.47000000000E+01 0.  1.
<mgrwt>
<rscale>  0 0.10264506E+03</rscale>
<asrwt>0</asrwt>
<pdfrwt beam="1">  1        2 0.77151751E-01 0.10299192E+03</pdfrwt>
<pdfrwt beam="2">  1       -2 0.33824888E-02 0.10299192E+03</pdfrwt>
<totfact> 0.20129591E+04</totfact>
</mgrwt>
</event>
<event>
 8    1  0.2964543E-004  0.9821963E+02  0.7546771E-02  0.1285987E+00
          1   -1    0    0  501    0  0.00000000000E+00  0.00000000000E+00  0.16490202052E+03  0.16490202052E+03  0.00000000000E+00 0. -1.
         -1   -1    0    0    0  501 -0.00000000000E+00 -0.00000000000E+00 -0.59954311902E+02  0.59954311902E+02  0.00000000000E+00 0.  1.
         23    2    1    2    0    0 -0.28140974839E+02 -0.75680393012E+01  0.26209756606E+02  0.10165651298E+03  0.93797151374E+02 0.  0.
         23    2    1    2    0    0  0.28140974839E+02  0.75680393012E+01  0.78737952007E+02  0.12319981944E+03  0.90162856763E+02 0.  0.
          5    1    4    4  502    0  0.15963579696E+02 -0.36891619488E+02  0.61784429614E+02  0.73859550553E+02  0.47000000000E+01 0. -1.
         -5    1    4    4    0  502  0.12177395143E+02  0.44459658789E+02  0.16953522393E+02  0.49340268885E+02  0.47000000000E+01 0.  1.
          5    1    3    3  503    0 -0.30574430429E+01 -0.47348163520E+02  0.13640714817E+00  0.47679189942E+02  0.47000000000E+01 0. -1.
         -5    1    3    3    0  503 -0.25083531797E+02  0.39780124219E+02  0.26073349458E+02  0.53977323037E+02  0.47000000000E+01 0.  1.
<mgrwt>
<rscale>  0 0.97341799E+02</rscale>
<asrwt>0</asrwt>
<pdfrwt beam="1">  1        1 0.25369541E-01 0.98219628E+02</pdfrwt>
<pdfrwt beam="2">  1       -1 0.92237403E-02 0.98219628E+02</pdfrwt>
<totfact> 0.11821746E+04</totfact>
</mgrwt>
</event>
<event>
 8    1  0.2964543E-004  0.1000759E+03  0.7546771E-02  0.1281108E+00
          2   -1    0    0  501    0  0.00000000000E+00  0.00000000000E+00  0.45095521082E+02  0.45095521082E+02  0.00000000000E+00 0. -1.
         -2   -1    0    0    0  501 -0.00000000000E+00 -0.00000000000E+00 -0.25634580885E+03  0.25634580885E+03  0.00000000000E+00 0.  1.
         23    2    1    2    0    0  0.11957186864E+02 -0.25297497536E+02 -0.46536617282E+02  0.10870891858E+03  0.94175551669E+02 0.  0.
         23    2    1    2    0    0 -0.11957186864E+02  0.25297497536E+02 -0.16471367049E+03  0.19273241135E+03  0.96084605636E+02 0.  0.
          5    1    3    3  502    0  0.29725715919E+02  0.12937478454E+02  0.13303725751E+02  0.35356408959E+02  0.47000000000E+01 0. -1.
         -5    1    4    4    0  503 -0.10031665873E+01 -0.34338734406E+02 -0.89667546114E+02  0.96137993789E+02  0.47000000000E+01 0.  1.
          5    1    4    4  503    0 -0.10954020277E+02  0.59636231942E+02 -0.75046124374E+02  0.96594417561E+02  0.47000000000E+01 0. -1.
         -5    1    3    3    0  502 -0.17768529055E+02 -0.38234975990E+02 -0.59840343034E+02  0.73352509624E+02  0.47000000000E+01 0.  1.
<mgrwt>
<rscale>  0 0.99614874E+02</rscale>
<asrwt>0</asrwt>
<pdfrwt beam="1">  1        2 0.69377726E-02 0.10007592E+03</pdfrwt>
<pdfrwt beam="2">  1       -2 0.39437816E-01 0.10007592E+03</pdfrwt>
<totfact> 0.57770711E+03</totfact>
</mgrwt>
</event>
<event>
 8    1  0.2964543E-004  0.1070231E+03  0.7546771E-02  0.1266451E+00
          1   -1    0    0  501    0  0.00000000000E+00  0.00000000000E+00  0.13466501705E+03  0.13466501705E+03  0.00000000000E+00 0. -1.
         -1   -1    0    0    0  501 -0.00000000000E+00 -0.00000000000E+00 -0.14086457574E+03  0.14086457574E+03  0.00000000000E+00 0.  1.
         23    2    1    2    0    0 -0.55273383411E+02  0.27167295483E+02 -0.90150560909E+02  0.13950857836E+03  0.86846479177E+02 0.  0.
         23    2    1    2    0    0  0.55273383411E+02 -0.27167295483E+02  0.83951002216E+02  0.13602101443E+03  0.87525634736E+02 0.  0.
          5    1    3    3  502    0 -0.20834843321E+02 -0.14697417411E+02  0.81291965802E+01  0.27171282852E+02  0.47000000000E+01 0. -1.
         -5    1    4    4    0  503  0.38156822151E+01  0.29439995804E+02  0.28509125133E+02  0.41426235643E+02  0.47000000000E+01 0.  1.
          5    1    4    4  503    0  0.51457701196E+02 -0.56607291287E+02  0.55441877083E+02  0.94594778787E+02  0.47000000000E+01 0. -1.
         -5    1    3    3    0  502 -0.34438540090E+02  0.41864712894E+02 -0.98279757489E+02  0.11233729550E+03  0.47000000000E+01 0.  1.
<mgrwt>
<rscale>  0 0.10688416E+03</rscale>
<asrwt>0</asrwt>
<pdfrwt beam="1">  1        1 0.20717695E-01 0.10702311E+03</pdfrwt>
<pdfrwt beam="2">  1       -1 0.21671473E-01 0.10702311E+03</pdfrwt>
<totfact> 0.40741500E+03</totfact>
</mgrwt>
</event>
<event>
 8    1  0.2964543E-004  0.1052632E+03  0.7546771E-02  0.1270124E+00
         -1   -1    0    0    0  501 -0.00000000000E+00  0.00000000000E+00  0.31474575340E+03  0.31474575340E+03  0.00000000000E+00 0.  1.
          1   -1    0    0  501    0  0.00000000000E+00 -0.00000000000E+00 -0.35075909314E+02  0.35075909314E+02  0.00000000000E+00 0. -1.
         23    2    1    2    0    0  0.46171169924E+02 -0.25874525389E+02  0.15453161221E+03  0.18697692414E+03  0.90989466391E+02 0.  0.
         23    2    1    2    0    0 -0.46171169924E+02  0.25874525389E+02  0.12513823188E+03  0.16284473858E+03  0.89763933774E+02 0.  0.
          5    1    3    3  502    0  0.54821988480E+02  0.19802780594E+02  0.82780437774E+02  0.10135231333E+03  0.47000000000E+01 0. -1.
         -5    1    4    4    0  503  0.18699497607E+02 -0.97180015469E+01  0.61349562006E+02  0.65038215867E+02  0.47000000000E+01 0.  1.
          5    1    4    4  503    0 -0.64870667532E+02  0.35592526936E+02  0.63788669877E+02  0.97806522709E+02  0.47000000000E+01 0. -1.
         -5    1    3    3    0  502 -0.86508185556E+01 -0.45677305983E+02  0.71751174431E+02  0.85624610806E+02  0.47000000000E+01 0.  1.
<mgrwt>
<rscale>  0 0.10499786E+03</rscale>
<asrwt>0</asrwt>
<pdfrwt beam="1">  1        1 0.53962939E-02 0.10526325E+03</pdfrwt>
<pdfrwt beam="2">  1       -1 0.48422422E-01 0.10526325E+03</pdfrwt>
<totfact> 0.60797584E+03</totfact>
</mgrwt>
</event>
<event>
 8    1  0.2964543E-004  0.1037571E+03  0.7546771E-02  0.1273888E+00
         -1   -1    0    0    0  501 -0.00000000000E+00  0.00000000000E+00  0.41092402918E+02  0.41092402918E+02  0.00000000000E+00 0.  1.
          1   -1    0    0  501    0  0.00000000000E+00 -0.00000000000E+00 -0.40532386823E+03  0.40532386823E+03  0.00000000000E+00 0. -1.
         23    2    1    2    0    0 -0.45657960780E+02  0.37189536077E+01 -0.47875363946E+02  0.11426984056E+03  0.93097078309E+02 0.  0.
         23    2    1    2    0    0  0.45657960780E+02 -0.37189536077E+01 -0.31635610136E+03  0.33214643059E+03  0.90230751321E+02 0.  0.
          5    1    4    4  502    0  0.63213690727E+02 -0.28406963397E+02 -0.19589743459E+03  0.20784807226E+03  0.47000000000E+01 0. -1.
         -5    1    3    3    0  503  0.48227475171E+01  0.37050344965E+02 -0.11258132241E+01  0.37674187596E+02  0.47000000000E+01 0.  1.
          5    1    3    3  503    0 -0.50480708297E+02 -0.33331391357E+02 -0.46749550722E+02  0.76595652962E+02  0.47000000000E+01 0. -1.
         -5    1    4    4    0  502 -0.17555729947E+02  0.24688009789E+02 -0.12045866677E+03  0.12429835832E+03  0.47000000000E+01 0.  1.
<mgrwt>
<rscale>  0 0.10311014E+03</rscale>
<asrwt>0</asrwt>
<pdfrwt beam="1">  1        1 0.62357518E-01 0.10375715E+03</pdfrwt>
<pdfrwt beam="2">  1       -1 0.63219082E-02 0.10375715E+03</pdfrwt>
<totfact> 0.68985939E+03</totfact>
</mgrwt>
</event>
<event>
 8    1  0.2964543E-004  0.9574053E+02  0.7546771E-02  0.1289957E+00
          2   -1    0    0  501    0  0.00000000000E+00  0.00000000000E+00  0.43478967736E+02  0.43478967736E+02  0.00000000000E+00 0. -1.
         -2   -1    0    0    0  501 -0.00000000000E+00 -0.00000000000E+00 -0.29624173963E+03  0.29624173963E+03  0.00000000000E+00 0.  1.
         23    2    1    2    0    0 -0.69545181686E+01  0.27286103038E+02 -0.21887867352E+03  0.23890190978E+03  0.91506021852E+02 0.  0.
         23    2    1    2    0    0  0.69545181686E+01 -0.27286103038E+02 -0.33884098373E+02  0.10081879758E+03  0.90682970181E+02 0.  0.
          5    1    3    3  502    0  0.29786547175E+02 -0.17506411187E+02 -0.11118459019E+03  0.11652388563E+03  0.47000000000E+01 0. -1.
         -5    1    3    3    0  502 -0.36741065344E+02  0.44792514225E+02 -0.10769408332E+03  0.12237802416E+03  0.47000000000E+01 0.  1.
          5    1    4    4  503    0  0.38604284955E+02 -0.97146216103E+01  0.12319513666E+02  0.41934772050E+02  0.47000000000E+01 0. -1.
         -5    1    4    4    0  503 -0.31649766786E+02 -0.17571481428E+02 -0.46203612038E+02  0.58884025529E+02  0.47000000000E+01 0.  1.
<mgrwt>
<rscale>  0 0.95543335E+02</rscale>
<asrwt>0</asrwt>
<pdfrwt beam="1">  1        2 0.66890721E-02 0.95740528E+02</pdfrwt>
<pdfrwt beam="2">  1       -2 0.45575651E-01 0.95740528E+02</pdfrwt>
<totfact> 0.45779204E+03</totfact>
</mgrwt>
</event>
<event>
 8    1  0.2964543E-004  0.9785776E+02  0.7546771E-02  0.1285033E+00
          2   -1    0    0  501    0  0.00000000000E+00  0.00000000000E+00  0.74205703855E+03  0.74205703855E+03  0.00000000000E+00 0. -1.
         -2   -1    0    0    0  501 -0.00000000000E+00 -0.00000000000E+00 -0.12932839390E+02  0.12932839390E+02  0.00000000000E+00 0.  1.
         23    2    1    2    0    0  0.21670495083E+02 -0.19198305551E+02  0.39262589761E+03  0.40463716755E+03  0.93477037800E+02 0.  0.
         23    2    1    2    0    0 -0.21670495083E+02  0.19198305551E+02  0.33649830155E+03  0.35035271039E+03  0.93154331294E+02 0.  0.
          5    1    3    3  502    0  0.13615260076E+02  0.29297970645E+02  0.59478376072E+02  0.67849197571E+02  0.47000000000E+01 0. -1.
         -5    1    4    4    0  503  0.32435856863E+02 -0.11608474143E+02  0.13472058898E+03  0.13913507314E+03  0.47000000000E+01 0.  1.
          5    1    4    4  503    0 -0.54106351946E+02  0.30806779694E+02  0.20177771257E+03  0.21121763725E+03  0.47000000000E+01 0. -1.
         -5    1    3    3    0  502  0.80552350066E+01 -0.48496276196E+02  0.33314752154E+03  0.33678796998E+03  0.47000000000E+01 0.  1.
<mgrwt>
<rscale>  0 0.97780619E+02</rscale>
<asrwt>0</asrwt>
<pdfrwt beam="1">  1        2 0.11416259E+00 0.97857764E+02</pdfrwt>
<pdfrwt beam="2">  1       -2 0.19896682E-02 0.97857764E+02</pdfrwt>
<totfact> 0.27766416E+04</totfact>
</mgrwt>
</event>
<event>
 8    1  0.2964543E-004  0.1208551E+03  0.7546771E-02  0.1243440E+00
          1   -1    0    0  501    0  0.00000000000E+00  0.00000000000E+00  0.10086508082E+03  0.10086508082E+03  0.00000000000E+00 0. -1.
         -1   -1    0    0    0  501 -0.00000000000E+00 -0.00000000000E+00 -0.15715707285E+03  0.15715707285E+03  0.00000000000E+00 0.  1.
         23    2    1    2    0    0 -0.23190199912E+02  0.70773327763E+02 -0.71427992512E+02  0.14038490113E+03  0.95180423698E+02 0.  0.
         23    2    1    2    0    0  0.23190199912E+02 -0.70773327763E+02  0.15136000485E+02  0.11763725254E+03  0.89792958406E+02 0.  0.
          5    1    3    3  502    0 -0.49111832430E+02  0.36435755030E+02 -0.55773451037E+01  0.61585169543E+02  0.47000000000E+01 0. -1.
         -5    1    4    4    0  503  0.22871000632E+01  0.21367974218E+02  0.13592967987E+01  0.22039937311E+02  0.47000000000E+01 0.  1.
          5    1    4    4  503    0  0.20903099849E+02 -0.92141301982E+02  0.13776703686E+02  0.95597315227E+02  0.47000000000E+01 0. -1.
         -5    1    3    3    0  502  0.25921632518E+02  0.34337572733E+02 -0.65850647408E+02  0.78799731583E+02  0.47000000000E+01 0.  1.
<mgrwt>
<rscale>  0 0.11979227E+03</rscale>
<asrwt>0</asrwt>
<pdfrwt beam="1">  1        1 0.15517705E-01 0.12085513E+03</pdfrwt>
<pdfrwt beam="2">  1       -1 0.24178011E-01 0.12085513E+03</pdfrwt>
<totfact> 0.49687423E+03</totfact>
</mgrwt>
</event>
<event>
 8    1  0.2964543E-004  0.1089940E+03  0.7546771E-02  0.1262988E+00
          4   -1    0    0  501    0  0.00000000000E+00  0.00000000000E+00  0.72521319331E+02  0.72521319331E+02  0.00000000000E+00 0. -1.
         -4   -1    0    0    0  501 -0.00000000000E+00 -0.00000000000E+00 -0.17814062522E+03  0.17814062522E+03  0.00000000000E+00 0.  1.
         23    2    1    2    0    0 -0.51552559395E+02 -0.25779874381E+02 -0.90184805645E+02  0.14058049624E+03  0.91144437301E+02 0.  0.
         23    2    1    2    0    0  0.51552559395E+02  0.25779874381E+02 -0.15434500240E+02  0.11008144831E+03  0.92506395240E+02 0.  0.
          5    1    3    3  502    0 -0.51443589000E+02  0.23062945924E+01 -0.98212710254E+02  0.11099364081E+03  0.47000000000E+01 0. -1.
         -5    1    3    3    0  502 -0.10897039527E+00 -0.28086168973E+02  0.80279046089E+01  0.29586855435E+02  0.47000000000E+01 0.  1.
          5    1    4    4  503    0 -0.96388974378E+01  0.32057067719E+02  0.19661426097E+02  0.39105314353E+02  0.47000000000E+01 0. -1.
         -5    1    4    4    0  503  0.61191456833E+02 -0.62771933379E+01 -0.35095926337E+02  0.70976133953E+02  0.47000000000E+01 0.  1.
<mgrwt>
<rscale>  0 0.10870451E+03</rscale>
<asrwt>0</asrwt>
<pdfrwt beam="1">  1        4 0.11157126E-01 0.10899404E+03</pdfrwt>
<pdfrwt beam="2">  1       -4 0.27406250E-01 0.10899404E+03</pdfrwt>
<totfact> 0.12464940E+03</totfact>
</mgrwt>
</event>
<event>
 8    1  0.2964543E-004  0.9417138E+02  0.7546771E-02  0.1293767E+00
          2   -1    0    0  501    0  0.00000000000E+00  0.00000000000E+00  0.75860296590E+03  0.75860296590E+03  0.00000000000E+00 0. -1.
         -2   -1    0    0    0  501 -0.00000000000E+00 -0.00000000000E+00 -0.15059740185E+02  0.15059740185E+02  0.00000000000E+00 0.  1.
         23    2    1    2    0    0  0.13420559974E+02 -0.19689290916E+02  0.18276931256E+03  0.20503661594E+03  0.89819890086E+02 0.  0.
         23    2    1    2    0    0 -0.13420559974E+02  0.19689290916E+02  0.56077391316E+03  0.56862609015E+03  0.91106910351E+02 0.  0.
          5    1    4    4  502    0 -0.45261665464E+00  0.47886707757E+02  0.47237030286E+03  0.47481484251E+03  0.47000000000E+01 0. -1.
         -5    1    4    4    0  502 -0.12967943320E+02 -0.28197416840E+02  0.88403610295E+02  0.93811247639E+02  0.47000000000E+01 0.  1.
          5    1    3    3  503    0  0.93234452322E+00  0.34349102886E+02  0.47940161406E+02  0.59169918126E+02  0.47000000000E+01 0. -1.
         -5    1    3    3    0  503  0.12488215451E+02 -0.54038393802E+02  0.13482915115E+03  0.14586669781E+03  0.47000000000E+01 0.  1.
<mgrwt>
<rscale>  0 0.93858683E+02</rscale>
<asrwt>0</asrwt>
<pdfrwt beam="1">  1        2 0.11670812E+00 0.94171380E+02</pdfrwt>
<pdfrwt beam="2">  1       -2 0.23168837E-02 0.94171380E+02</pdfrwt>
<totfact> 0.21635597E+04</totfact>
</mgrwt>
</event>
<event>
 8    1  0.2964543E-004  0.1123946E+03  0.7546771E-02  0.1257476E+00
         -2   -1    0    0    0  501 -0.00000000000E+00  0.00000000000E+00  0.17142533790E+03  0.17142533790E+03  0.00000000000E+00 0.  1.
          2   -1    0    0  501    0  0.00000000000E+00 -0.00000000000E+00 -0.87234442431E+02  0.87234442431E+02  0.00000000000E+00 0. -1.
         23    2    1    2    0    0 -0.47980804195E+02 -0.44692349056E+02  0.95936841680E+02  0.14565303642E+03  0.87814382594E+02 0.  0.
         23    2    1    2    0    0  0.47980804195E+02  0.44692349056E+02 -0.11745946211E+02  0.11300674392E+03  0.91285230364E+02 0.  0.
          5    1    4    4  502    0  0.22786078507E+01  0.31377110999E+02 -0.44741732723E+02  0.54896518974E+02  0.47000000000E+01 0. -1.
         -5    1    4    4    0  502  0.45702196344E+02  0.13315238058E+02  0.32995786512E+02  0.58110224942E+02  0.47000000000E+01 0.  1.
          5    1    3    3  503    0  0.22800629625E+02 -0.14888924258E+02  0.79216807579E+01  0.28747031201E+02  0.47000000000E+01 0. -1.
         -5    1    3    3    0  503 -0.70781433820E+02 -0.29803424798E+02  0.88015160922E+02  0.11690600522E+03  0.47000000000E+01 0.  1.
<mgrwt>
<rscale>  0 0.11168795E+03</rscale>
<asrwt>0</asrwt>
<pdfrwt beam="1">  1        2 0.13420684E-01 0.11239465E+03</pdfrwt>
<pdfrwt beam="2">  1       -2 0.26373129E-01 0.11239465E+03</pdfrwt>
<totfact> 0.53989729E+03</totfact>
</mgrwt>
</event>
<event>
 8    1  0.2964543E-004  0.1423635E+03  0.7546771E-02  0.1210458E+00
          1   -1    0    0  501    0  0.00000000000E+00  0.00000000000E+00  0.82344356368E+02  0.82344356368E+02  0.00000000000E+00 0. -1.
         -1   -1    0    0    0  501 -0.00000000000E+00 -0.00000000000E+00 -0.29468785571E+03  0.29468785571E+03  0.00000000000E+00 0.  1.
         23    2    1    2    0    0  0.10843504945E+03 -0.13338930790E+02 -0.28267337017E+02  0.14432767712E+03  0.89974157488E+02 0.  0.
         23    2    1    2    0    0 -0.10843504945E+03  0.13338930790E+02 -0.18407616232E+03  0.23270453496E+03  0.91275845832E+02 0.  0.
          5    1    3    3  502    0  0.98853666145E+02  0.13148093886E+02  0.56441678080E+01  0.99994331406E+02  0.47000000000E+01 0. -1.
         -5    1    3    3    0  502  0.95813833051E+01 -0.26487024677E+02 -0.33911504825E+02  0.44333345709E+02  0.47000000000E+01 0.  1.
          5    1    4    4  503    0 -0.33761337324E+02  0.48048064036E+02 -0.63518261344E+02  0.86632002630E+02  0.47000000000E+01 0. -1.
         -5    1    4    4    0  503 -0.74673712126E+02 -0.34709133246E+02 -0.12055790098E+03  0.14607253233E+03  0.47000000000E+01 0.  1.
<mgrwt>
<rscale>  0 0.14215529E+03</rscale>
<asrwt>0</asrwt>
<pdfrwt beam="1">  1        1 0.12668362E-01 0.14236350E+03</pdfrwt>
<pdfrwt beam="2">  1       -1 0.45336593E-01 0.14236350E+03</pdfrwt>
<totfact> 0.22340466E+03</totfact>
</mgrwt>
</event>
<event>
 8    1  0.2964543E-004  0.2996657E+03  0.7546771E-02  0.1086205E+00
         -1   -1    0    0    0  501 -0.00000000000E+00  0.00000000000E+00  0.63389719696E+02  0.63389719696E+02  0.00000000000E+00 0.  1.
          1   -1    0    0  501    0  0.00000000000E+00 -0.00000000000E+00 -0.17555126443E+04  0.17555126443E+04  0.00000000000E+00 0. -1.
         23    2    1    2    0    0  0.12047473586E+03 -0.25163131045E+03 -0.42229313529E+03  0.51419272609E+03  0.90720389494E+02 0.  0.
         23    2    1    2    0    0 -0.12047473586E+03  0.25163131045E+03 -0.12698297893E+04  0.13047096379E+04  0.10939409052E+03 0.  0.
          5    1    3    3  502    0  0.19073422547E+02 -0.13194930792E+03 -0.23110733391E+03  0.26684659469E+03  0.47000000000E+01 0. -1.
         -5    1    3    3    0  502  0.10140131331E+03 -0.11968200253E+03 -0.19118580138E+03  0.24734613140E+03  0.47000000000E+01 0.  1.
          5    1    4    4  503    0 -0.10718951612E+03  0.19803920755E+03 -0.11603100580E+04  0.11819689678E+04  0.47000000000E+01 0. -1.
         -5    1    4    4    0  503 -0.13285219735E+02  0.53592102905E+02 -0.10951973132E+03  0.12274067014E+03  0.47000000000E+01 0.  1.
<mgrwt>
<rscale>  0 0.29807781E+03</rscale>
<asrwt>0</asrwt>
<pdfrwt beam="1">  1        1 0.27007888E+00 0.29966572E+03</pdfrwt>
<pdfrwt beam="2">  1       -1 0.97522643E-02 0.29966572E+03</pdfrwt>
<totfact> 0.30746568E+02</totfact>
</mgrwt>
</event>
<event>
 8    1  0.2964543E-004  0.9703519E+02  0.7546771E-02  0.1287145E+00
         -2   -1    0    0    0  501 -0.00000000000E+00  0.00000000000E+00  0.41920180800E+02  0.41920180800E+02  0.00000000000E+00 0. -1.
          2   -1    0    0  501    0  0.00000000000E+00 -0.00000000000E+00 -0.33621404347E+03  0.33621404347E+03  0.00000000000E+00 0.  1.
         23    2    1    2    0    0  0.30947814070E+02 -0.38104208587E+01 -0.37671320501E+02  0.10409110158E+03  0.91888750877E+02 0.  0.
         23    2    1    2    0    0 -0.30947814070E+02  0.38104208587E+01 -0.25662254217E+03  0.27404312269E+03  0.90951731370E+02 0.  0.
          5    1    3    3  502    0  0.29333171026E+02  0.26555237381E+02  0.15421720704E+02  0.42726280253E+02  0.47000000000E+01 0. -1.
         -5    1    4    4    0  503 -0.52508019821E+02 -0.22406352838E+02 -0.19820881344E+03  0.20632004391E+03  0.47000000000E+01 0.  1.
          5    1    4    4  503    0  0.21560205751E+02  0.26216773697E+02 -0.58413728730E+02  0.67723078779E+02  0.47000000000E+01 0. -1.
         -5    1    3    3    0  502  0.16146430441E+01 -0.30365658240E+02 -0.53093041205E+02  0.61364821330E+02  0.47000000000E+01 0.  1.
<mgrwt>
<rscale>  0 0.96812718E+02</rscale>
<asrwt>0</asrwt>
<pdfrwt beam="1">  1        2 0.51725236E-01 0.97035195E+02</pdfrwt>
<pdfrwt beam="2">  1       -2 0.64492587E-02 0.97035195E+02</pdfrwt>
<totfact> 0.11737181E+04</totfact>
</mgrwt>
</event>
<event>
 8    1  0.2964543E-004  0.9845705E+02  0.7546771E-02  0.1284865E+00
          2   -1    0    0  501    0  0.00000000000E+00  0.00000000000E+00  0.32997911876E+03  0.32997911876E+03  0.00000000000E+00 0. -1.
         -2   -1    0    0    0  501 -0.00000000000E+00 -0.00000000000E+00 -0.44573359384E+02  0.44573359384E+02  0.00000000000E+00 0.  1.
         23    2    1    2    0    0 -0.14496521136E+02  0.27564115513E+02  0.25567049436E+03  0.27397297762E+03  0.93401612355E+02 0.  0.
         23    2    1    2    0    0  0.14496521136E+02 -0.27564115513E+02  0.29735265017E+02  0.10057950052E+03  0.90896206472E+02 0.  0.
          5    1    4    4  502    0 -0.37672518184E+02 -0.59814958929E+01  0.49788811693E+01  0.38754047235E+02  0.47000000000E+01 0. -1.
         -5    1    4    4    0  502  0.52169039320E+02 -0.21582619621E+02  0.24756383847E+02  0.61825453289E+02  0.47000000000E+01 0.  1.
          5    1    3    3  503    0 -0.36241201528E+02 -0.17685728525E+02  0.64082676712E+02  0.75860985600E+02  0.47000000000E+01 0. -1.
         -5    1    3    3    0  503  0.21744680392E+02  0.45249844039E+02  0.19158781765E+03  0.19811199202E+03  0.47000000000E+01 0.  1.
<mgrwt>
<rscale>  0 0.97858236E+02</rscale>
<asrwt>0</asrwt>
<pdfrwt beam="1">  1        2 0.50766017E-01 0.98457050E+02</pdfrwt>
<pdfrwt beam="2">  1       -2 0.68574401E-02 0.98457050E+02</pdfrwt>
<totfact> 0.10922239E+04</totfact>
</mgrwt>
</event>
<event>
 8    1  0.2964543E-004  0.9419266E+02  0.7546771E-02  0.1294050E+00
          2   -1    0    0  501    0  0.00000000000E+00  0.00000000000E+00  0.30760978642E+03  0.30760978642E+03  0.00000000000E+00 0. -1.
         -2   -1    0    0    0  501 -0.00000000000E+00 -0.00000000000E+00 -0.29127632617E+02  0.29127632617E+02  0.00000000000E+00 0.  1.
         23    2    1    2    0    0  0.13877841163E+02  0.42676136220E+01  0.16912087846E+03  0.19358235761E+03  0.93066914892E+02 0.  0.
         23    2    1    2    0    0 -0.13877841163E+02 -0.42676136220E+01  0.10936127534E+03  0.14315506142E+03  0.91228701977E+02 0.  0.
          5    1    4    4  502    0 -0.32382064524E+02  0.32770496391E+02  0.79091680909E+02  0.91651991389E+02  0.47000000000E+01 0. -1.
         -5    1    4    4    0  502  0.18504223361E+02 -0.37038110013E+02  0.30269594435E+02  0.51503070033E+02  0.47000000000E+01 0.  1.
          5    1    3    3  503    0  0.32104620140E+01 -0.44009997404E+02  0.74348049646E+02  0.86584695091E+02  0.47000000000E+01 0. -1.
         -5    1    3    3    0  503  0.10667379149E+02  0.48277611026E+02  0.94772828812E+02  0.10699766252E+03  0.47000000000E+01 0.  1.
<mgrwt>
<rscale>  0 0.93735391E+02</rscale>
<asrwt>0</asrwt>
<pdfrwt beam="1">  1        2 0.47324580E-01 0.94192662E+02</pdfrwt>
<pdfrwt beam="2">  1       -2 0.44811745E-02 0.94192662E+02</pdfrwt>
<totfact> 0.22127207E+04</totfact>
</mgrwt>
</event>
<event>
 8    1  0.2964543E-004  0.9949321E+02  0.7546771E-02  0.1281461E+00
         -2   -1    0    0    0  501 -0.00000000000E+00  0.00000000000E+00  0.15063336223E+03  0.15063336223E+03  0.00000000000E+00 0.  1.
          2   -1    0    0  501    0  0.00000000000E+00 -0.00000000000E+00 -0.76727937589E+02  0.76727937589E+02  0.00000000000E+00 0. -1.
         23    2    1    2    0    0 -0.21825801507E+02  0.31351276131E+02  0.80225636084E+02  0.12766754656E+03  0.91671051226E+02 0.  0.
         23    2    1    2    0    0  0.21825801507E+02 -0.31351276131E+02 -0.63202114402E+01  0.99693753262E+02  0.91867465625E+02 0.  0.
          5    1    4    4  502    0  0.36749232089E+02 -0.13079052311E+02 -0.41453376308E+02  0.57114272085E+02  0.47000000000E+01 0. -1.
         -5    1    3    3    0  503  0.10816093683E+02  0.54518713270E+02  0.62109711384E+02  0.83480442185E+02  0.47000000000E+01 0.  1.
          5    1    3    3  503    0 -0.32641895191E+02 -0.23167437140E+02  0.18115924700E+02  0.44187104374E+02  0.47000000000E+01 0. -1.
         -5    1    4    4    0  502 -0.14923430582E+02 -0.18272223820E+02  0.35133164867E+02  0.42579481176E+02  0.47000000000E+01 0.  1.
<mgrwt>
<rscale>  0 0.99447849E+02</rscale>
<asrwt>0</asrwt>
<pdfrwt beam="1">  1        2 0.11804298E-01 0.99493213E+02</pdfrwt>
<pdfrwt beam="2">  1       -2 0.23174363E-01 0.99493213E+02</pdfrwt>
<totfact> 0.77889341E+03</totfact>
</mgrwt>
</event>
<event>
 8    1  0.2964543E-004  0.9527353E+02  0.7546771E-02  0.1291036E+00
          1   -1    0    0  501    0  0.00000000000E+00  0.00000000000E+00  0.18346037911E+03  0.18346037911E+03  0.00000000000E+00 0. -1.
         -1   -1    0    0    0  501 -0.00000000000E+00 -0.00000000000E+00 -0.49780136171E+02  0.49780136171E+02  0.00000000000E+00 0.  1.
         23    2    1    2    0    0 -0.20655336417E+02  0.18481846702E+02  0.52918083272E+02  0.10898334515E+03  0.91152753127E+02 0.  0.
         23    2    1    2    0    0  0.20655336417E+02 -0.18481846702E+02  0.80762159667E+02  0.12425717013E+03  0.90272345238E+02 0.  0.
          5    1    3    3  502    0 -0.34304582783E+02 -0.21385513878E+02  0.52696965968E+02  0.66582316165E+02  0.47000000000E+01 0. -1.
         -5    1    3    3    0  502  0.13649246366E+02  0.39867360581E+02  0.22111730407E+00  0.42401028984E+02  0.47000000000E+01 0.  1.
          5    1    4    4  503    0  0.19508434441E+02 -0.45666799964E+02  0.13692910522E+02  0.51726409423E+02  0.47000000000E+01 0. -1.
         -5    1    4    4    0  503  0.11469019756E+01  0.27184953261E+02  0.67069249145E+02  0.72530760707E+02  0.47000000000E+01 0.  1.
<mgrwt>
<rscale>  0 0.95062336E+02</rscale>
<asrwt>0</asrwt>
<pdfrwt beam="1">  1        1 0.28224673E-01 0.95273532E+02</pdfrwt>
<pdfrwt beam="2">  1       -1 0.76584826E-02 0.95273532E+02</pdfrwt>
<totfact> 0.13650440E+04</totfact>
</mgrwt>
</event>
<event>
 8    1  0.2964543E-004  0.9956233E+02  0.7546771E-02  0.1283718E+00
          3   -1    0    0  501    0  0.00000000000E+00  0.00000000000E+00  0.29113827219E+03  0.29113827219E+03  0.00000000000E+00 0. -1.
         -3   -1    0    0    0  501 -0.00000000000E+00 -0.00000000000E+00 -0.37382238928E+02  0.37382238928E+02  0.00000000000E+00 0.  1.
         23    2    1    2    0    0 -0.24860697967E+02 -0.14145032721E+02  0.18889345570E+03  0.21352610009E+03  0.95365200990E+02 0.  0.
         23    2    1    2    0    0  0.24860697967E+02  0.14145032721E+02  0.64862577568E+02  0.11499441103E+03  0.90545150867E+02 0.  0.
          5    1    3    3  502    0 -0.19659988361E+02 -0.54182721650E+02  0.12605342825E+03  0.13868611769E+03  0.47000000000E+01 0. -1.
         -5    1    3    3    0  502 -0.52007096059E+01  0.40037688929E+02  0.62840027449E+02  0.74839982396E+02  0.47000000000E+01 0.  1.
          5    1    4    4  503    0  0.43901927887E+02 -0.22111954168E+02  0.17943211160E+02  0.52539191239E+02  0.47000000000E+01 0. -1.
         -5    1    4    4    0  503 -0.19041229920E+02  0.36256986889E+02  0.46919366408E+02  0.62455219792E+02  0.47000000000E+01 0.  1.
<mgrwt>
<rscale>  0 0.98390101E+02</rscale>
<asrwt>0</asrwt>
<pdfrwt beam="1">  1        3 0.44790502E-01 0.99562331E+02</pdfrwt>
<pdfrwt beam="2">  1       -3 0.57511139E-02 0.99562331E+02</pdfrwt>
<totfact> 0.19639400E+03</totfact>
</mgrwt>
</event>
<event>
 8    1  0.2964543E-004  0.9461289E+02  0.7546771E-02  0.1293040E+00
         -1   -1    0    0    0  501 -0.00000000000E+00  0.00000000000E+00  0.23778904828E+03  0.23778904828E+03  0.00000000000E+00 0.  1.
          1   -1    0    0  501    0  0.00000000000E+00 -0.00000000000E+00 -0.60165171539E+02  0.60165171539E+02  0.00000000000E+00 0. -1.
         23    2    1    2    0    0  0.73669383748E+01 -0.23632104763E+02 -0.32036777931E+01  0.94667109373E+02  0.91317303339E+02 0.  0.
         23    2    1    2    0    0 -0.73669383748E+01  0.23632104763E+02  0.18082755454E+03  0.20328711045E+03  0.89522604066E+02 0.  0.
          5    1    3    3  502    0  0.34215399533E+02  0.53061389262E+01 -0.30551762482E+02  0.46414963819E+02  0.47000000000E+01 0. -1.
         -5    1    4    4    0  503  0.92116779048E+01 -0.29977021665E+02  0.36429204831E+02  0.48297554828E+02  0.47000000000E+01 0.  1.
          5    1    4    4  503    0 -0.16578616280E+02  0.53609126428E+02  0.14439834971E+03  0.15498955562E+03  0.47000000000E+01 0. -1.
         -5    1    3    3    0  502 -0.26848461158E+02 -0.28938243689E+02  0.27348084689E+02  0.48252145554E+02  0.47000000000E+01 0.  1.
<mgrwt>
<rscale>  0 0.94177134E+02</rscale>
<asrwt>0</asrwt>
<pdfrwt beam="1">  1        1 0.92561804E-02 0.94612885E+02</pdfrwt>
<pdfrwt beam="2">  1       -1 0.36582930E-01 0.94612885E+02</pdfrwt>
<totfact> 0.47963665E+03</totfact>
</mgrwt>
</event>
<event>
 8    1  0.2964543E-004  0.1416486E+03  0.7546771E-02  0.1211551E+00
         -2   -1    0    0    0  501 -0.00000000000E+00  0.00000000000E+00  0.26172072217E+03  0.26172072217E+03  0.00000000000E+00 0.  1.
          2   -1    0    0  501    0  0.00000000000E+00 -0.00000000000E+00 -0.78036443197E+02  0.78036443197E+02  0.00000000000E+00 0. -1.
         23    2    1    2    0    0  0.10728004799E+03 -0.36973230418E+01  0.11904002839E+03  0.18405489454E+03  0.90459919023E+02 0.  0.
         23    2    1    2    0    0 -0.10728004799E+03  0.36973230418E+01  0.64644250580E+02  0.15570227083E+03  0.92420988482E+02 0.  0.
          5    1    4    4  502    0 -0.89242429435E+02 -0.18889639486E+02  0.76946527737E+01  0.91664209879E+02  0.47000000000E+01 0. -1.
         -5    1    3    3    0  503  0.37111116305E+02 -0.36523416704E+02  0.15255553079E+02  0.54461149647E+02  0.47000000000E+01 0.  1.
          5    1    3    3  503    0  0.70168931689E+02  0.32826093663E+02  0.10378447531E+03  0.12959374489E+03  0.47000000000E+01 0. -1.
         -5    1    4    4    0  502 -0.18037618558E+02  0.22586962528E+02  0.56949597807E+02  0.64038060947E+02  0.47000000000E+01 0.  1.
<mgrwt>
<rscale>  0 0.14132958E+03</rscale>
<asrwt>0</asrwt>
<pdfrwt beam="1">  1        2 0.12005607E-01 0.14164857E+03</pdfrwt>
<pdfrwt beam="2">  1       -2 0.40264726E-01 0.14164857E+03</pdfrwt>
<totfact> 0.28951286E+03</totfact>
</mgrwt>
</event>
<event>
 8    1  0.2964543E-004  0.1125802E+03  0.7546771E-02  0.1256488E+00
          2   -1    0    0  501    0  0.00000000000E+00  0.00000000000E+00  0.12917097886E+03  0.12917097886E+03  0.00000000000E+00 0. -1.
         -2   -1    0    0    0  501 -0.00000000000E+00 -0.00000000000E+00 -0.19717047081E+03  0.19717047081E+03  0.00000000000E+00 0.  1.
         23    2    1    2    0    0  0.18225118823E+02  0.63013214650E+02 -0.15044978853E+03  0.18790805977E+03  0.91495791604E+02 0.  0.
         23    2    1    2    0    0 -0.18225118823E+02 -0.63013214650E+02  0.82450296571E+02  0.13843338990E+03  0.89793829736E+02 0.  0.
          5    1    4    4  502    0 -0.30378715580E+02 -0.25679385410E+02  0.89695330371E+02  0.98232578535E+02  0.47000000000E+01 0. -1.
         -5    1    4    4    0  502  0.12153596757E+02 -0.37333829240E+02 -0.72450337997E+01  0.40200811368E+02  0.47000000000E+01 0. -1.
          5    1    3    3  503    0  0.51428399596E+01 -0.22558126858E+02 -0.18351905193E+02  0.29903182346E+02  0.47000000000E+01 0. -1.
         -5    1    3    3    0  503  0.13082278864E+02  0.85571341508E+02 -0.13209788333E+03  0.15800487742E+03  0.47000000000E+01 0.  1.
<mgrwt>
<rscale>  0 0.11223390E+03</rscale>
<asrwt>0</asrwt>
<pdfrwt beam="1">  1        2 0.19872458E-01 0.11258019E+03</pdfrwt>
<pdfrwt beam="2">  1       -2 0.30333918E-01 0.11258019E+03</pdfrwt>
<totfact> 0.26800287E+03</totfact>
</mgrwt>
</event>
<event>
 8    1  0.2964543E-004  0.1324244E+03  0.7546771E-02  0.1225007E+00
         -1   -1    0    0    0  501 -0.00000000000E+00  0.00000000000E+00  0.11161753622E+03  0.11161753622E+03  0.00000000000E+00 0.  1.
          1   -1    0    0  501    0  0.00000000000E+00 -0.00000000000E+00 -0.29086332498E+03  0.29086332498E+03  0.00000000000E+00 0. -1.
         23    2    1    2    0    0 -0.19866157202E+02 -0.89974295912E+02 -0.22843022165E+03  0.26403901071E+03  0.95111486618E+02 0.  0.
         23    2    1    2    0    0  0.19866157202E+02  0.89974295912E+02  0.49184432900E+02  0.13844185049E+03  0.90868032883E+02 0.  0.
          5    1    4    4  502    0 -0.14473281372E+02  0.31195220357E+02 -0.20988835540E+02  0.40561544153E+02  0.47000000000E+01 0. -1.
         -5    1    4    4    0  502  0.34339438574E+02  0.58779075555E+02  0.70173268439E+02  0.97880306334E+02  0.47000000000E+01 0.  1.
          5    1    3    3  503    0 -0.43927473781E+02 -0.61846671415E+02 -0.20810497020E+03  0.22154999964E+03  0.47000000000E+01 0. -1.
         -5    1    3    3    0  503  0.24061316579E+02 -0.28127624496E+02 -0.20325251451E+02  0.42489011072E+02  0.47000000000E+01 0.  1.
<mgrwt>
<rscale>  0 0.13166440E+03</rscale>
<asrwt>0</asrwt>
<pdfrwt beam="1">  1        1 0.44748203E-01 0.13242444E+03</pdfrwt>
<pdfrwt beam="2">  1       -1 0.17171929E-01 0.13242444E+03</pdfrwt>
<totfact> 0.22948359E+03</totfact>
</mgrwt>
</event>
<event>
 8    1  0.2964543E-004  0.9607724E+02  0.7546771E-02  0.1288808E+00
          3   -1    0    0  501    0  0.00000000000E+00  0.00000000000E+00  0.13722362807E+03  0.13722362807E+03  0.00000000000E+00 0. -1.
         -3   -1    0    0    0  501 -0.00000000000E+00 -0.00000000000E+00 -0.13020432619E+03  0.13020432619E+03  0.00000000000E+00 0.  1.
         23    2    1    2    0    0  0.38941086326E+01 -0.29335846037E+02  0.96511081066E+02  0.13618085212E+03  0.91406125454E+02 0.  0.
         23    2    1    2    0    0 -0.38941086326E+01  0.29335846037E+02 -0.89491779189E+02  0.13124710214E+03  0.91330538887E+02 0.  0.
          5    1    3    3  502    0 -0.40273637153E+02 -0.48587421871E+01  0.64069283886E+02  0.75977209497E+02  0.47000000000E+01 0. -1.
         -5    1    4    4    0  503  0.25808109277E+02  0.49953546184E+02 -0.69982837873E+02  0.89894954684E+02  0.47000000000E+01 0.  1.
          5    1    4    4  503    0 -0.29702217910E+02 -0.20617700147E+02 -0.19508941315E+02  0.41352147457E+02  0.47000000000E+01 0. -1.
         -5    1    3    3    0  502  0.44167745786E+02 -0.24477103850E+02  0.32441797180E+02  0.60203642622E+02  0.47000000000E+01 0.  1.
<mgrwt>
<rscale>  0 0.96059256E+02</rscale>
<asrwt>0</asrwt>
<pdfrwt beam="1">  1        3 0.21111328E-01 0.96077238E+02</pdfrwt>
<pdfrwt beam="2">  1       -3 0.20031435E-01 0.96077238E+02</pdfrwt>
<totfact> 0.99142969E+02</totfact>
</mgrwt>
</event>
<event>
 8    1  0.2964543E-004  0.1015761E+03  0.7546771E-02  0.1279137E+00
         -1   -1    0    0    0  501 -0.00000000000E+00  0.00000000000E+00  0.64185179618E+02  0.64185179618E+02  0.00000000000E+00 0.  1.
          1   -1    0    0  501    0  0.00000000000E+00 -0.00000000000E+00 -0.20529825511E+03  0.20529825511E+03  0.00000000000E+00 0. -1.
         23    2    1    2    0    0  0.18415285487E+02 -0.28013782359E+02 -0.45733265076E+01  0.10167899326E+03  0.95884344986E+02 0.  0.
         23    2    1    2    0    0 -0.18415285487E+02  0.28013782359E+02 -0.13653974898E+03  0.16780444147E+03  0.91604218144E+02 0.  0.
          5    1    3    3  502    0 -0.38071814367E+02 -0.44043543198E+00  0.11994275309E+01  0.38382100763E+02  0.47000000000E+01 0. -1.
         -5    1    4    4    0  503  0.62735619678E+01 -0.21453322741E+02 -0.27998720493E+01  0.23011560571E+02  0.47000000000E+01 0.  1.
          5    1    4    4  503    0 -0.24688847455E+02  0.49467105100E+02 -0.13373987694E+03  0.14479288090E+03  0.47000000000E+01 0. -1.
         -5    1    3    3    0  502  0.56487099854E+02 -0.27573346927E+02 -0.57727540385E+01  0.63296892497E+02  0.47000000000E+01 0.  1.
<mgrwt>
<rscale>  0 0.10055323E+03</rscale>
<asrwt>0</asrwt>
<pdfrwt beam="1">  1        1 0.31584347E-01 0.10157609E+03</pdfrwt>
<pdfrwt beam="2">  1       -1 0.98746429E-02 0.10157609E+03</pdfrwt>
<totfact> 0.81598404E+03</totfact>
</mgrwt>
</event>
<event>
 8    1  0.2964543E-004  0.9911543E+02  0.7546771E-02  0.1285248E+00
          1   -1    0    0  501    0  0.00000000000E+00  0.00000000000E+00  0.33467191446E+03  0.33467191446E+03  0.00000000000E+00 0. -1.
         -1   -1    0    0    0  501 -0.00000000000E+00 -0.00000000000E+00 -0.30527972018E+02  0.30527972018E+02  0.00000000000E+00 0.  1.
         23    2    1    2    0    0 -0.32471811603E+02  0.11336923719E+02  0.92646616695E+02  0.13162979469E+03  0.86948622049E+02 0.  0.
         23    2    1    2    0    0  0.32471811603E+02 -0.11336923719E+02  0.21149732574E+03  0.23357009179E+03  0.92956573695E+02 0.  0.
          5    1    3    3  502    0  0.47380090247E+01 -0.23177445402E+02  0.73208725359E+02  0.77079505535E+02  0.47000000000E+01 0. -1.
         -5    1    3    3    0  502 -0.37209820628E+02  0.34514369121E+02  0.19437891336E+02  0.54550289152E+02  0.47000000000E+01 0.  1.
          5    1    4    4  503    0  0.33963090577E+02  0.11507875439E+02  0.20653567587E+03  0.20967832059E+03  0.47000000000E+01 0. -1.
         -5    1    4    4    0  503 -0.14912789743E+01 -0.22844799159E+02  0.49616498760E+01  0.23891771200E+02  0.47000000000E+01 0.  1.
<mgrwt>
<rscale>  0 0.97681780E+02</rscale>
<asrwt>0</asrwt>
<pdfrwt beam="1">  1        1 0.51487984E-01 0.99115433E+02</pdfrwt>
<pdfrwt beam="2">  1       -1 0.46966113E-02 0.99115433E+02</pdfrwt>
<totfact> 0.13499252E+04</totfact>
</mgrwt>
</event>
<event>
 8    1  0.2964543E-004  0.1064538E+03  0.7546771E-02  0.1268838E+00
         -1   -1    0    0    0  501 -0.00000000000E+00  0.00000000000E+00  0.51639874696E+02  0.51639874696E+02  0.00000000000E+00 0.  1.
          1   -1    0    0  501    0  0.00000000000E+00 -0.00000000000E+00 -0.21306772313E+03  0.21306772313E+03  0.00000000000E+00 0. -1.
         23    2    1    2    0    0 -0.25590835793E+02 -0.39561125346E+02 -0.76707875853E+02  0.12865654482E+03  0.91915367554E+02 0.  0.
         23    2    1    2    0    0  0.25590835793E+02  0.39561125346E+02 -0.84719972579E+02  0.13605105300E+03  0.95459110376E+02 0.  0.
          5    1    4    4  502    0  0.56255666144E+02  0.23190910254E+02 -0.80055338216E+02  0.10066511545E+03  0.47000000000E+01 0. -1.
         -5    1    4    4    0  502 -0.30664830351E+02  0.16370215092E+02 -0.46646343626E+01  0.35385937551E+02  0.47000000000E+01 0.  1.
          5    1    3    3  503    0 -0.22704400979E+02 -0.12513673900E+02 -0.92961275222E+02  0.96622826233E+02  0.47000000000E+01 0. -1.
         -5    1    3    3    0  503 -0.28864348138E+01 -0.27047451446E+02  0.16253399369E+02  0.32033718590E+02  0.47000000000E+01 0.  1.
<mgrwt>
<rscale>  0 0.10565338E+03</rscale>
<asrwt>0</asrwt>
<pdfrwt beam="1">  1        1 0.32779650E-01 0.10645382E+03</pdfrwt>
<pdfrwt beam="2">  1       -1 0.79445960E-02 0.10645382E+03</pdfrwt>
<totfact> 0.10858393E+04</totfact>
</mgrwt>
</event>
<event>
 8    1  0.2964543E-004  0.1179867E+03  0.7546771E-02  0.1249569E+00
         -2   -1    0    0    0  501 -0.00000000000E+00  0.00000000000E+00  0.65881632547E+03  0.65881632547E+03  0.00000000000E+00 0.  1.
          2   -1    0    0  501    0  0.00000000000E+00 -0.00000000000E+00 -0.26199522966E+02  0.26199522966E+02  0.00000000000E+00 0. -1.
         23    2    1    2    0    0  0.18101877403E+02  0.61554643260E+02  0.15552123579E+03  0.19521194739E+03  0.99016147925E+02 0.  0.
         23    2    1    2    0    0 -0.18101877403E+02 -0.61554643260E+02  0.47709556672E+03  0.48980390105E+03  0.90393747730E+02 0.  0.
          5    1    3    3  502    0  0.43078878013E+02  0.87163873598E+01  0.21979745549E+02  0.49365619148E+02  0.47000000000E+01 0. -1.
         -5    1    3    3    0  502 -0.24977000610E+02  0.52838255900E+02  0.13354149024E+03  0.14584632824E+03  0.47000000000E+01 0.  1.
          5    1    4    4  503    0  0.32311940597E+02 -0.23126272433E+02  0.27644924985E+03  0.27932984753E+03  0.47000000000E+01 0. -1.
         -5    1    4    4    0  503 -0.50413818000E+02 -0.38428370827E+02  0.20064631687E+03  0.21047405352E+03  0.47000000000E+01 0.  1.
<mgrwt>
<rscale>  0 0.11616048E+03</rscale>
<asrwt>0</asrwt>
<pdfrwt beam="1">  1        2 0.40306963E-02 0.11798665E+03</pdfrwt>
<pdfrwt beam="2">  1       -2 0.10135635E+00 0.11798665E+03</pdfrwt>
<totfact> 0.16628307E+03</totfact>
</mgrwt>
</event>
<event>
 8    1  0.2964543E-004  0.2553494E+03  0.7546771E-02  0.1110000E+00
          2   -1    0    0  501    0  0.00000000000E+00  0.00000000000E+00  0.67314110533E+03  0.67314110533E+03  0.00000000000E+00 0. -1.
         -2   -1    0    0    0  501 -0.00000000000E+00 -0.00000000000E+00 -0.10560464749E+03  0.10560464749E+03  0.00000000000E+00 0.  1.
         23    2    1    2    0    0  0.10976748084E+02  0.23873035519E+03  0.39615879391E+03  0.47121748384E+03  0.89394941674E+02 0.  0.
         23    2    1    2    0    0 -0.10976748084E+02 -0.23873035519E+03  0.17137766392E+03  0.30752826898E+03  0.89948101950E+02 0.  0.
          5    1    4    4  502    0  0.29620551850E+02 -0.31058953247E+02  0.21900738306E+02  0.48412477803E+02  0.47000000000E+01 0. -1.
         -5    1    3    3    0  503  0.30677335627E+02  0.15109526222E+03  0.31196311003E+03  0.34801429454E+03  0.47000000000E+01 0. -1.
          5    1    3    3  503    0 -0.19700587544E+02  0.87635092965E+02  0.84195683883E+02  0.12320318930E+03  0.47000000000E+01 0.  1.
         -5    1    4    4    0  502 -0.40597299934E+02 -0.20767140194E+03  0.14947692562E+03  0.25911579118E+03  0.47000000000E+01 0.  1.
<mgrwt>
<rscale>  0 0.25530084E+03</rscale>
<asrwt>0</asrwt>
<pdfrwt beam="1">  1        2 0.10356017E+00 0.25534943E+03</pdfrwt>
<pdfrwt beam="2">  1       -2 0.16246869E-01 0.25534943E+03</pdfrwt>
<totfact> 0.13177752E+03</totfact>
</mgrwt>
</event>
<event>
 8    1  0.2964543E-004  0.1092216E+03  0.7546771E-02  0.1263544E+00
         -1   -1    0    0    0  501 -0.00000000000E+00  0.00000000000E+00  0.15398735682E+02  0.15398735682E+02  0.00000000000E+00 0.  1.
          1   -1    0    0  501    0  0.00000000000E+00 -0.00000000000E+00 -0.75393452423E+03  0.75393452423E+03  0.00000000000E+00 0. -1.
         23    2    1    2    0    0 -0.50288380261E+02 -0.15599303587E+02 -0.35568365898E+03  0.37207557201E+03  0.95692771748E+02 0.  0.
         23    2    1    2    0    0  0.50288380261E+02  0.15599303587E+02 -0.38285212957E+03  0.39725768789E+03  0.92009010510E+02 0.  0.
          5    1    4    4  502    0  0.31105833895E+01 -0.35699854133E+02 -0.13362679033E+03  0.13842819224E+03  0.47000000000E+01 0. -1.
         -5    1    4    4    0  502  0.47177796871E+02  0.51299157719E+02 -0.24922533924E+03  0.25882949565E+03  0.47000000000E+01 0.  1.
          5    1    3    3  503    0 -0.37434514712E+02 -0.54562654393E+02 -0.18725197712E+03  0.19865502532E+03  0.47000000000E+01 0. -1.
         -5    1    3    3    0  503 -0.12853865549E+02  0.38963350806E+02 -0.16843168185E+03  0.17342054670E+03  0.47000000000E+01 0.  1.
<mgrwt>
<rscale>  0 0.10840948E+03</rscale>
<asrwt>0</asrwt>
<pdfrwt beam="1">  1        1 0.11598994E+00 0.10922164E+03</pdfrwt>
<pdfrwt beam="2">  1       -1 0.23690359E-02 0.10922164E+03</pdfrwt>
<totfact> 0.12682358E+04</totfact>
</mgrwt>
</event>
<event>
 8    1  0.2964543E-004  0.1785580E+03  0.7546771E-02  0.1170637E+00
          1   -1    0    0  501    0  0.00000000000E+00  0.00000000000E+00  0.87440018033E+03  0.87440018033E+03  0.00000000000E+00 0. -1.
         -1   -1    0    0    0  501 -0.00000000000E+00 -0.00000000000E+00 -0.37403783888E+02  0.37403783888E+02  0.00000000000E+00 0.  1.
         23    2    1    2    0    0 -0.33577995216E+02  0.13720035973E+03  0.30386807587E+03  0.34956846860E+03  0.99553434087E+02 0.  0.
         23    2    1    2    0    0  0.33577995216E+02 -0.13720035973E+03  0.53312832057E+03  0.56223549561E+03  0.10923152409E+03 0.  0.
          5    1    3    3  502    0 -0.53595625402E+02  0.38868633371E+02  0.16767301370E+03  0.18033189193E+03  0.47000000000E+01 0. -1.
         -5    1    4    4    0  503  0.18760059677E+02  0.11195596436E+02  0.29743192416E+02  0.37202536389E+02  0.47000000000E+01 0.  1.
          5    1    4    4  503    0  0.14817935539E+02 -0.14839595617E+03  0.50338512816E+03  0.52503295922E+03  0.47000000000E+01 0. -1.
         -5    1    3    3    0  502  0.20017630186E+02  0.98331726359E+02  0.13619506216E+03  0.16923657668E+03  0.47000000000E+01 0.  1.
<mgrwt>
<rscale>  0 0.17710256E+03</rscale>
<asrwt>0</asrwt>
<pdfrwt beam="1">  1        1 0.13452309E+00 0.17855796E+03</pdfrwt>
<pdfrwt beam="2">  1       -1 0.57544290E-02 0.17855796E+03</pdfrwt>
<totfact> 0.28216141E+03</totfact>
</mgrwt>
</event>
<event>
 8    1  0.2964543E-004  0.9890286E+02  0.7546771E-02  0.1282822E+00
         -3   -1    0    0    0  501 -0.00000000000E+00  0.00000000000E+00  0.17646610459E+03  0.17646610459E+03  0.00000000000E+00 0.  1.
          3   -1    0    0  501    0  0.00000000000E+00 -0.00000000000E+00 -0.11324102174E+03  0.11324102174E+03  0.00000000000E+00 0. -1.
         23    2    1    2    0    0 -0.29472405696E+02  0.28446812235E+02 -0.72102539972E+02  0.12209047424E+03  0.89607275409E+02 0.  0.
         23    2    1    2    0    0  0.29472405696E+02 -0.28446812235E+02  0.13532762282E+03  0.16761665209E+03  0.90021845872E+02 0.  0.
          5    1    3    3  502    0 -0.44970496978E+02  0.52591979284E+02 -0.53228441618E+02  0.87427792380E+02  0.47000000000E+01 0. -1.
         -5    1    4    4    0  503  0.52054109218E+02 -0.37755489838E+02  0.12506993283E+03  0.14071135490E+03  0.47000000000E+01 0.  1.
          5    1    4    4  503    0 -0.22581703522E+02  0.93086776029E+01  0.10257689988E+02  0.26905297184E+02  0.47000000000E+01 0. -1.
         -5    1    3    3    0  502  0.15498091281E+02 -0.24145167048E+02 -0.18874098354E+02  0.34662681862E+02  0.47000000000E+01 0.  1.
<mgrwt>
<rscale>  0 0.98808431E+02</rscale>
<asrwt>0</asrwt>
<pdfrwt beam="1">  1        3 0.17421696E-01 0.98902864E+02</pdfrwt>
<pdfrwt beam="2">  1       -3 0.27148631E-01 0.98902864E+02</pdfrwt>
<totfact> 0.81052412E+02</totfact>
</mgrwt>
</event>
<event>
 8    1  0.2964543E-004  0.1071254E+03  0.7546771E-02  0.1268171E+00
          4   -1    0    0  501    0  0.00000000000E+00  0.00000000000E+00  0.70816759822E+02  0.70816759822E+02  0.00000000000E+00 0. -1.
         -4   -1    0    0    0  501 -0.00000000000E+00 -0.00000000000E+00 -0.15949359986E+03  0.15949359986E+03  0.00000000000E+00 0.  1.
         23    2    1    2    0    0  0.14076667825E+02 -0.55231062981E+02 -0.24955888308E+02  0.10566605457E+03  0.85404308038E+02 0.  0.
         23    2    1    2    0    0 -0.14076667825E+02  0.55231062981E+02 -0.63720951734E+02  0.12464430512E+03  0.90704025343E+02 0.  0.
          5    1    3    3  502    0 -0.32198191229E+02 -0.22981958991E+02  0.73303870998E+01  0.40505783939E+02  0.47000000000E+01 0. -1.
         -5    1    4    4    0  503  0.22023501204E+02  0.51071596836E+02 -0.67750929617E+02  0.87781667065E+02  0.47000000000E+01 0.  1.
          5    1    4    4  503    0 -0.36100169029E+02  0.41594661454E+01  0.40299778831E+01  0.36862638054E+02  0.47000000000E+01 0. -1.
         -5    1    3    3    0  502  0.46274859054E+02 -0.32249103990E+02 -0.32286275408E+02  0.65160270628E+02  0.47000000000E+01 0.  1.
<mgrwt>
<rscale>  0 0.10599546E+03</rscale>
<asrwt>0</asrwt>
<pdfrwt beam="1">  1        4 0.10894886E-01 0.10712536E+03</pdfrwt>
<pdfrwt beam="2">  1       -4 0.24537477E-01 0.10712536E+03</pdfrwt>
<totfact> 0.15846992E+03</totfact>
</mgrwt>
</event>
<event>
 8    1  0.2964543E-004  0.1001527E+03  0.7546771E-02  0.1281172E+00
          2   -1    0    0  501    0  0.00000000000E+00  0.00000000000E+00  0.72682014509E+02  0.72682014509E+02  0.00000000000E+00 0. -1.
         -2   -1    0    0    0  501 -0.00000000000E+00 -0.00000000000E+00 -0.14378994484E+03  0.14378994484E+03  0.00000000000E+00 0.  1.
         23    2    1    2    0    0  0.24582761441E+02 -0.34542199672E+02 -0.90512315403E+01  0.10056090680E+03  0.90736406504E+02 0.  0.
         23    2    1    2    0    0 -0.24582761441E+02  0.34542199672E+02 -0.62056698789E+02  0.11591105255E+03  0.88243200988E+02 0.  0.
          5    1    4    4  502    0 -0.90468603173E+01 -0.29115776352E+02 -0.11154603742E+02  0.32803800067E+02  0.47000000000E+01 0. -1.
         -5    1    4    4    0  502 -0.15535901123E+02  0.63657976024E+02 -0.50902095048E+02  0.83107252484E+02  0.47000000000E+01 0.  1.
          5    1    3    3  503    0  0.52554155846E+02 -0.35727464485E+01  0.11012254953E+02  0.54019103779E+02  0.47000000000E+01 0. -1.
         -5    1    3    3    0  503 -0.27971394405E+02 -0.30969453223E+02 -0.20063486494E+02  0.46541803019E+02  0.47000000000E+01 0.  1.
<mgrwt>
<rscale>  0 0.99584648E+02</rscale>
<asrwt>0</asrwt>
<pdfrwt beam="1">  1        2 0.11181848E-01 0.10015274E+03</pdfrwt>
<pdfrwt beam="2">  1       -2 0.22121530E-01 0.10015274E+03</pdfrwt>
<totfact> 0.90033458E+03</totfact>
</mgrwt>
</event>
<event>
 8    1  0.2964543E-004  0.9286838E+02  0.7546771E-02  0.1297485E+00
         -3   -1    0    0    0  501 -0.00000000000E+00  0.00000000000E+00  0.35246655489E+02  0.35246655489E+02  0.00000000000E+00 0.  1.
          3   -1    0    0  501    0  0.00000000000E+00 -0.00000000000E+00 -0.25053664125E+03  0.25053664125E+03  0.00000000000E+00 0. -1.
         23    2    1    2    0    0  0.96282370859E+01 -0.42610293428E+01 -0.13784369398E+03  0.16485991899E+03  0.89816755679E+02 0.  0.
         23    2    1    2    0    0 -0.96282370859E+01  0.42610293428E+01 -0.77446291784E+02  0.12092337775E+03  0.92269582495E+02 0.  0.
          5    1    4    4  502    0 -0.30524344605E+02 -0.35682691080E+02 -0.44762720407E+02  0.65044455525E+02  0.47000000000E+01 0. -1.
         -5    1    4    4    0  502  0.20896107519E+02  0.39943720423E+02 -0.32683571377E+02  0.55878922221E+02  0.47000000000E+01 0.  1.
          5    1    3    3  503    0  0.42115666979E+02 -0.26262185758E+02 -0.89210287014E+02  0.10219587621E+03  0.47000000000E+01 0. -1.
         -5    1    3    3    0  503 -0.32487429893E+02  0.22001156415E+02 -0.48633406963E+02  0.62664042779E+02  0.47000000000E+01 0.  1.
<mgrwt>
<rscale>  0 0.92253143E+02</rscale>
<asrwt>0</asrwt>
<pdfrwt beam="1">  1        3 0.38544097E-01 0.92868376E+02</pdfrwt>
<pdfrwt beam="2">  1       -3 0.54225626E-02 0.92868376E+02</pdfrwt>
<totfact> 0.28363771E+03</totfact>
</mgrwt>
</event>
<event>
 8    1  0.2964543E-004  0.1064370E+03  0.7546771E-02  0.1267523E+00
          2   -1    0    0  501    0  0.00000000000E+00  0.00000000000E+00  0.10435883284E+04  0.10435883284E+04  0.00000000000E+00 0. -1.
         -2   -1    0    0    0  501 -0.00000000000E+00 -0.00000000000E+00 -0.11780789443E+02  0.11780789443E+02  0.00000000000E+00 0.  1.
         23    2    1    2    0    0 -0.41918021336E+02  0.36523195073E+02  0.36359121513E+03  0.37872897484E+03  0.90255195812E+02 0.  0.
         23    2    1    2    0    0  0.41918021336E+02 -0.36523195073E+02  0.66821632381E+03  0.67664014299E+03  0.90762125398E+02 0.  0.
          5    1    4    4  502    0  0.68817932261E+02 -0.23889186382E+02  0.54163476596E+03  0.54653171063E+03  0.47000000000E+01 0. -1.
         -5    1    3    3    0  503 -0.52344534376E+02  0.54876241408E+02  0.20422033366E+03  0.21789765219E+03  0.47000000000E+01 0.  1.
          5    1    3    3  503    0  0.10426513040E+02 -0.18353046334E+02  0.15937088147E+03  0.16083132264E+03  0.47000000000E+01 0. -1.
         -5    1    4    4    0  502 -0.26899910925E+02 -0.12634008691E+02  0.12658155785E+03  0.13010843236E+03  0.47000000000E+01 0.  1.
<mgrwt>
<rscale>  0 0.10632882E+03</rscale>
<asrwt>0</asrwt>
<pdfrwt beam="1">  1        2 0.16055198E+00 0.10643697E+03</pdfrwt>
<pdfrwt beam="2">  1       -2 0.18124300E-02 0.10643697E+03</pdfrwt>
<totfact> 0.20665180E+04</totfact>
</mgrwt>
</event>
<event>
 8    1  0.2964543E-004  0.1035887E+03  0.7546771E-02  0.1273432E+00
          1   -1    0    0  501    0  0.00000000000E+00  0.00000000000E+00  0.11616789431E+04  0.11616789431E+04  0.00000000000E+00 0. -1.
         -1   -1    0    0    0  501 -0.00000000000E+00 -0.00000000000E+00 -0.10966968425E+02  0.10966968425E+02  0.00000000000E+00 0.  1.
         23    2    1    2    0    0  0.40481099994E+02  0.22101905667E+02  0.33890110854E+03  0.35437914893E+03  0.92754547777E+02 0.  0.
         23    2    1    2    0    0 -0.40481099994E+02 -0.22101905667E+02  0.81181086610E+03  0.81826676257E+03  0.91631865129E+02 0.  0.
          5    1    4    4  502    0 -0.65318365054E+02  0.42753976555E+01  0.48491339742E+03  0.48933409940E+03  0.47000000000E+01 0. -1.
         -5    1    3    3    0  503  0.69240930972E+02  0.20980801867E+02  0.20815946836E+03  0.22042448784E+03  0.47000000000E+01 0.  1.
          5    1    3    3  503    0 -0.28759830977E+02  0.11211037999E+01  0.13074164018E+03  0.13395466109E+03  0.47000000000E+01 0. -1.
         -5    1    4    4    0  502  0.24837265060E+02 -0.26377303322E+02  0.32689746869E+03  0.32893266317E+03  0.47000000000E+01 0.  1.
<mgrwt>
<rscale>  0 0.10333678E+03</rscale>
<asrwt>0</asrwt>
<pdfrwt beam="1">  1        1 0.17871974E+00 0.10358871E+03</pdfrwt>
<pdfrwt beam="2">  1       -1 0.16872268E-02 0.10358871E+03</pdfrwt>
<totfact> 0.10200536E+04</totfact>
</mgrwt>
</event>
<event>
 8    1  0.2964543E-004  0.9369554E+02  0.7546771E-02  0.1294160E+00
          2   -1    0    0  501    0  0.00000000000E+00  0.00000000000E+00  0.39206137936E+02  0.39206137936E+02  0.00000000000E+00 0. -1.
         -2   -1    0    0    0  501 -0.00000000000E+00 -0.00000000000E+00 -0.26358153508E+03  0.26358153508E+03  0.00000000000E+00 0.  1.
         23    2    1    2    0    0  0.37420152210E+02  0.73357886024E+01 -0.17099052641E+03  0.19497849543E+03  0.85584881685E+02 0.  0.
         23    2    1    2    0    0 -0.37420152210E+02 -0.73357886024E+01 -0.53384870735E+02  0.10780917759E+03  0.85549943088E+02 0.  0.
          5    1    4    4  502    0 -0.17017370608E+02 -0.45691729802E+02 -0.35953734756E+02  0.60762538769E+02  0.47000000000E+01 0. -1.
         -5    1    3    3    0  503  0.23877958065E+02  0.37627364550E+02 -0.14722824549E+03  0.15389678916E+03  0.47000000000E+01 0.  1.
          5    1    3    3  503    0  0.13542194145E+02 -0.30291575947E+02 -0.23762280924E+02  0.41081706273E+02  0.47000000000E+01 0. -1.
         -5    1    4    4    0  502 -0.20402781602E+02  0.38355941200E+02 -0.17431135978E+02  0.47046638816E+02  0.47000000000E+01 0.  1.
<mgrwt>
<rscale>  0 0.93687557E+02</rscale>
<asrwt>0</asrwt>
<pdfrwt beam="1">  1        2 0.60317133E-02 0.93695536E+02</pdfrwt>
<pdfrwt beam="2">  1       -2 0.40551007E-01 0.93695536E+02</pdfrwt>
<totfact> 0.65078516E+03</totfact>
</mgrwt>
</event>
<event>
 8    1  0.2964543E-004  0.1291317E+03  0.7546771E-02  0.1231996E+00
         -1   -1    0    0    0  501 -0.00000000000E+00  0.00000000000E+00  0.12606796857E+03  0.12606796857E+03  0.00000000000E+00 0.  1.
          1   -1    0    0  501    0  0.00000000000E+00 -0.00000000000E+00 -0.34199641735E+03  0.34199641735E+03  0.00000000000E+00 0. -1.
         23    2    1    2    0    0 -0.76650049785E+02 -0.50320685073E+01  0.80224362703E+02  0.14498314919E+03  0.93185907376E+02 0.  0.
         23    2    1    2    0    0  0.76650049785E+02  0.50320685073E+01 -0.29615281149E+03  0.32308123673E+03  0.10380002856E+03 0.  0.
          5    1    3    3  502    0 -0.18355383699E+02 -0.37492947153E+02  0.19943993298E+01  0.42056020088E+02  0.47000000000E+01 0. -1.
         -5    1    3    3    0  502 -0.58294666086E+02  0.32460878646E+02  0.78229963373E+02  0.10292712911E+03  0.47000000000E+01 0.  1.
          5    1    4    4  503    0  0.70555791434E+02 -0.16282298766E+02 -0.29090760383E+03  0.29982087473E+03  0.47000000000E+01 0. -1.
         -5    1    4    4    0  503  0.60942583508E+01  0.21314367273E+02 -0.52452076617E+01  0.23260362003E+02  0.47000000000E+01 0.  1.
<mgrwt>
<rscale>  0 0.12698718E+03</rscale>
<asrwt>0</asrwt>
<pdfrwt beam="1">  1        1 0.52614833E-01 0.12913171E+03</pdfrwt>
<pdfrwt beam="2">  1       -1 0.19395072E-01 0.12913171E+03</pdfrwt>
<totfact> 0.15457524E+03</totfact>
</mgrwt>
</event>
<event>
 8    1  0.2964543E-004  0.1845119E+03  0.7546771E-02  0.1164056E+00
         -3   -1    0    0    0  501 -0.00000000000E+00  0.00000000000E+00  0.40822031867E+03  0.40822031867E+03  0.00000000000E+00 0.  1.
          3   -1    0    0  501    0  0.00000000000E+00 -0.00000000000E+00 -0.84716248358E+02  0.84716248358E+02  0.00000000000E+00 0. -1.
         23    2    1    2    0    0 -0.56706216648E+02 -0.14857114825E+03  0.20196591853E+03  0.27199276843E+03  0.88886741020E+02 0.  0.
         23    2    1    2    0    0  0.56706216648E+02  0.14857114825E+03  0.12153815178E+03  0.22094379860E+03  0.93571676817E+02 0.  0.
          5    1    3    3  502    0 -0.67733281443E+02 -0.92398794647E+02  0.88592777764E+02  0.14490032760E+03  0.47000000000E+01 0. -1.
         -5    1    3    3    0  502  0.11027064794E+02 -0.56172353605E+02  0.11337314077E+03  0.12709244083E+03  0.47000000000E+01 0.  1.
          5    1    4    4  503    0 -0.23299102297E+01  0.22567994434E+02 -0.13642062373E+02  0.26887519785E+02  0.47000000000E+01 0. -1.
         -5    1    4    4    0  503  0.59036126878E+02  0.12600315382E+03  0.13518021415E+03  0.19405627882E+03  0.47000000000E+01 0.  1.
<mgrwt>
<rscale>  0 0.18392633E+03</rscale>
<asrwt>0</asrwt>
<pdfrwt beam="1">  1        3 0.13033269E-01 0.18451190E+03</pdfrwt>
<pdfrwt beam="2">  1       -3 0.62803124E-01 0.18451190E+03</pdfrwt>
<totfact> 0.28600349E+02</totfact>
</mgrwt>
</event>
<event>
 8    1  0.2964543E-004  0.1023759E+03  0.7546771E-02  0.1275943E+00
         -1   -1    0    0    0  501 -0.00000000000E+00  0.00000000000E+00  0.20306189822E+02  0.20306189822E+02  0.00000000000E+00 0.  1.
          1   -1    0    0  501    0  0.00000000000E+00 -0.00000000000E+00 -0.55641949370E+03  0.55641949370E+03  0.00000000000E+00 0. -1.
         23    2    1    2    0    0  0.46330945194E+02  0.16845060289E+01 -0.34947586041E+03  0.36385400260E+03  0.90038681456E+02 0.  0.
         23    2    1    2    0    0 -0.46330945194E+02 -0.16845060289E+01 -0.18663744347E+03  0.21287168092E+03  0.91276630029E+02 0.  0.
          5    1    3    3  502    0  0.50785045027E+02 -0.28574474230E+02 -0.29889421703E+03  0.30455781775E+03  0.47000000000E+01 0. -1.
         -5    1    3    3    0  502 -0.44540998333E+01  0.30258980259E+02 -0.50581643375E+02  0.59296184853E+02  0.47000000000E+01 0.  1.
          5    1    4    4  503    0 -0.22683734719E+02  0.66977008224E+00 -0.18721145284E+03  0.18864044764E+03  0.47000000000E+01 0. -1.
         -5    1    4    4    0  503 -0.23647210475E+02 -0.23542761112E+01  0.57400937109E+00  0.24231233275E+02  0.47000000000E+01 0.  1.
<mgrwt>
<rscale>  0 0.10209920E+03</rscale>
<asrwt>0</asrwt>
<pdfrwt beam="1">  1        1 0.85603000E-01 0.10237586E+03</pdfrwt>
<pdfrwt beam="2">  1       -1 0.31240292E-02 0.10237586E+03</pdfrwt>
<totfact> 0.12880897E+04</totfact>
</mgrwt>
</event>
<event>
 8    1  0.2964543E-004  0.1081226E+03  0.7546771E-02  0.1264583E+00
          1   -1    0    0  501    0  0.00000000000E+00  0.00000000000E+00  0.33495691680E+03  0.33495691680E+03  0.00000000000E+00 0. -1.
         -1   -1    0    0    0  501 -0.00000000000E+00 -0.00000000000E+00 -0.46280868218E+02  0.46280868218E+02  0.00000000000E+00 0.  1.
         23    2    1    2    0    0  0.53148136468E+02 -0.22186771323E+02  0.48956687106E+02  0.11868974237E+03  0.91506942358E+02 0.  0.
         23    2    1    2    0    0 -0.53148136468E+02  0.22186771323E+02  0.23971936148E+03  0.26254804265E+03  0.90272505228E+02 0.  0.
          5    1    3    3  502    0  0.33809567246E+01  0.30089994900E+02  0.32187665332E+02  0.44440684749E+02  0.47000000000E+01 0. -1.
         -5    1    3    3    0  502  0.49767179743E+02 -0.52276766222E+02  0.16769021774E+02  0.74249057620E+02  0.47000000000E+01 0.  1.
          5    1    4    4  503    0 -0.18632601883E+02  0.45238926086E+02  0.19605135256E+03  0.20211867091E+03  0.47000000000E+01 0. -1.
         -5    1    4    4    0  503 -0.34515534585E+02 -0.23052154763E+02  0.43668008913E+02  0.60429371744E+02  0.47000000000E+01 0.  1.
<mgrwt>
<rscale>  0 0.10786098E+03</rscale>
<asrwt>0</asrwt>
<pdfrwt beam="1">  1        1 0.51531832E-01 0.10812261E+03</pdfrwt>
<pdfrwt beam="2">  1       -1 0.71201338E-02 0.10812261E+03</pdfrwt>
<totfact> 0.73465983E+03</totfact>
</mgrwt>
</event>
<event>
 8    1  0.2964543E-004  0.1090832E+03  0.7546771E-02  0.1263139E+00
          1   -1    0    0  501    0  0.00000000000E+00  0.00000000000E+00  0.67614929392E+03  0.67614929392E+03  0.00000000000E+00 0. -1.
         -1   -1    0    0    0  501 -0.00000000000E+00 -0.00000000000E+00 -0.20169841689E+02  0.20169841689E+02  0.00000000000E+00 0.  1.
         23    2    1    2    0    0  0.29781595977E+02 -0.55267430599E+02  0.46156103643E+03  0.47427600588E+03  0.89205981067E+02 0.  0.
         23    2    1    2    0    0 -0.29781595977E+02  0.55267430599E+02  0.19441841580E+03  0.22204312973E+03  0.86966652886E+02 0.  0.
          5    1    4    4  502    0 -0.38222934646E+02  0.17949368724E+02  0.17259091231E+03  0.17774387636E+03  0.47000000000E+01 0. -1.
         -5    1    4    4    0  502  0.84413386689E+01  0.37318061875E+02  0.21827503486E+02  0.44299253369E+02  0.47000000000E+01 0.  1.
          5    1    3    3  503    0  0.47348443476E+02 -0.68227718676E+02  0.30534669093E+03  0.31647367719E+03  0.47000000000E+01 0. -1.
         -5    1    3    3    0  503 -0.17566847499E+02  0.12960288077E+02  0.15621434550E+03  0.15780232869E+03  0.47000000000E+01 0.  1.
<mgrwt>
<rscale>  0 0.10862441E+03</rscale>
<asrwt>0</asrwt>
<pdfrwt beam="1">  1        1 0.10402295E+00 0.10908318E+03</pdfrwt>
<pdfrwt beam="2">  1       -1 0.31030531E-02 0.10908318E+03</pdfrwt>
<totfact> 0.10032422E+04</totfact>
</mgrwt>
</event>
<event>
 8    1  0.2964543E-004  0.1094314E+03  0.7546771E-02  0.1265356E+00
         -1   -1    0    0    0  501 -0.00000000000E+00  0.00000000000E+00  0.12982901909E+02  0.12982901909E+02  0.00000000000E+00 0.  1.
          1   -1    0    0  501    0  0.00000000000E+00 -0.00000000000E+00 -0.85867890748E+03  0.85867890748E+03  0.00000000000E+00 0. -1.
         23    2    1    2    0    0 -0.40523984545E+02 -0.98397624738E+01 -0.40725694128E+03  0.41977240174E+03  0.92798915899E+02 0.  0.
         23    2    1    2    0    0  0.40523984545E+02  0.98397624738E+01 -0.43843906429E+03  0.45188940765E+03  0.10117415382E+03 0.  0.
          5    1    3    3  502    0  0.14431137274E+02 -0.35054558213E+02 -0.20845027689E+03  0.21192141872E+03  0.47000000000E+01 0. -1.
         -5    1    4    4    0  503 -0.33103785064E+02 -0.60056322318E+01 -0.13673773625E+03  0.14089438143E+03  0.47000000000E+01 0.  1.
          5    1    4    4  503    0  0.73627769609E+02  0.15845394706E+02 -0.30170132804E+03  0.31099502622E+03  0.47000000000E+01 0. -1.
         -5    1    3    3    0  502 -0.54955121819E+02  0.25214795739E+02 -0.19880666439E+03  0.20785098302E+03  0.47000000000E+01 0.  1.
<mgrwt>
<rscale>  0 0.10745517E+03</rscale>
<asrwt>0</asrwt>
<pdfrwt beam="1">  1        1 0.13210450E+00 0.10943137E+03</pdfrwt>
<pdfrwt beam="2">  1       -1 0.19973687E-02 0.10943137E+03</pdfrwt>
<totfact> 0.13338153E+04</totfact>
</mgrwt>
</event>
<event>
 8    1  0.2964543E-004  0.9968134E+02  0.7546771E-02  0.1284593E+00
         -1   -1    0    0    0  501 -0.00000000000E+00  0.00000000000E+00  0.13717943072E+03  0.13717943072E+03  0.00000000000E+00 0.  1.
          1   -1    0    0  501    0  0.00000000000E+00 -0.00000000000E+00 -0.15239761378E+03  0.15239761378E+03  0.00000000000E+00 0. -1.
         23    2    1    2    0    0 -0.93134629869E+01  0.67202747883E+01  0.10018347708E+03  0.14132621404E+03  0.99017508597E+02 0.  0.
         23    2    1    2    0    0  0.93134629869E+01 -0.67202747883E+01 -0.11540166014E+03  0.14825083045E+03  0.92351842857E+02 0.  0.
          5    1    4    4  502    0  0.34299512772E+02 -0.35994415247E+02 -0.86533833843E+02  0.99911205102E+02  0.47000000000E+01 0. -1.
         -5    1    3    3    0  503 -0.45413582478E+02 -0.78594092738E+01  0.89342403696E+02  0.10063954931E+03  0.47000000000E+01 0.  1.
          5    1    3    3  503    0  0.36100119491E+02  0.14579684062E+02  0.10841073388E+02  0.40686664729E+02  0.47000000000E+01 0. -1.
         -5    1    4    4    0  502 -0.24986049785E+02  0.29274140458E+02 -0.28867826301E+02  0.48339625348E+02  0.47000000000E+01 0.  1.
<mgrwt>
<rscale>  0 0.97983949E+02</rscale>
<asrwt>0</asrwt>
<pdfrwt beam="1">  1        1 0.23445787E-01 0.99681341E+02</pdfrwt>
<pdfrwt beam="2">  1       -1 0.21104528E-01 0.99681341E+02</pdfrwt>
<totfact> 0.36244575E+03</totfact>
</mgrwt>
</event>
<event>
 8    1  0.2964543E-004  0.9356054E+02  0.7546771E-02  0.1295790E+00
          2   -1    0    0  501    0  0.00000000000E+00  0.00000000000E+00  0.74492693624E+02  0.74492693624E+02  0.00000000000E+00 0. -1.
         -2   -1    0    0    0  501 -0.00000000000E+00 -0.00000000000E+00 -0.11968687476E+03  0.11968687476E+03  0.00000000000E+00 0.  1.
         23    2    1    2    0    0  0.58176683870E+01  0.60244940474E+01 -0.42263783241E+02  0.10057314832E+03  0.90876790188E+02 0.  0.
         23    2    1    2    0    0 -0.58176683870E+01 -0.60244940474E+01 -0.29303978957E+01  0.93606420067E+02  0.93184949707E+02 0.  0.
          5    1    3    3  502    0  0.33005869396E+02  0.35562906735E+02 -0.33684384779E+02  0.59252303988E+02  0.47000000000E+01 0. -1.
         -5    1    4    4    0  503 -0.30073997001E+02 -0.27163740614E+02 -0.30530162663E+02  0.50955813525E+02  0.47000000000E+01 0.  1.
          5    1    4    4  503    0  0.24256328614E+02  0.21139246567E+02  0.27599764767E+02  0.42650606542E+02  0.47000000000E+01 0. -1.
         -5    1    3    3    0  502 -0.27188201009E+02 -0.29538412687E+02 -0.85793984625E+01  0.41320844330E+02  0.47000000000E+01 0.  1.
<mgrwt>
<rscale>  0 0.92980503E+02</rscale>
<asrwt>0</asrwt>
<pdfrwt beam="1">  1        2 0.11460414E-01 0.93560540E+02</pdfrwt>
<pdfrwt beam="2">  1       -2 0.18413365E-01 0.93560540E+02</pdfrwt>
<totfact> 0.11823430E+04</totfact>
</mgrwt>
</event>
<event>
 8    1  0.2964543E-004  0.1666458E+03  0.7546771E-02  0.1181551E+00
          1   -1    0    0  501    0  0.00000000000E+00  0.00000000000E+00  0.60646458999E+03  0.60646458999E+03  0.00000000000E+00 0. -1.
         -1   -1    0    0    0  501 -0.00000000000E+00 -0.00000000000E+00 -0.10583911693E+03  0.10583911693E+03  0.00000000000E+00 0.  1.
         23    2    1    2    0    0 -0.16908401712E+02 -0.13812161808E+03  0.51913381597E+03  0.54522539125E+03  0.91691509658E+02 0.  0.
         23    2    1    2    0    0  0.16908401712E+02  0.13812161808E+03 -0.18508342917E+02  0.16707831568E+03  0.90604245950E+02 0.  0.
          5    1    3    3  502    0  0.11123776443E+02 -0.12918069193E+03  0.47162492663E+03  0.48914573594E+03  0.47000000000E+01 0. -1.
         -5    1    3    3    0  502 -0.28032178156E+02 -0.89409261487E+01  0.47508889341E+02  0.56079655304E+02  0.47000000000E+01 0.  1.
          5    1    4    4  503    0 -0.22684539043E+02  0.33196484823E+02 -0.35143234630E+02  0.53607199670E+02  0.47000000000E+01 0. -1.
         -5    1    4    4    0  503  0.39592940756E+02  0.10492513325E+03  0.16634891714E+02  0.11347111601E+03  0.47000000000E+01 0.  1.
<mgrwt>
<rscale>  0 0.16649662E+03</rscale>
<asrwt>0</asrwt>
<pdfrwt beam="1">  1        1 0.93302243E-01 0.16664576E+03</pdfrwt>
<pdfrwt beam="2">  1       -1 0.16282941E-01 0.16664576E+03</pdfrwt>
<totfact> 0.97701091E+02</totfact>
</mgrwt>
</event>
<event>
 8    1  0.2964543E-004  0.9215679E+02  0.7546771E-02  0.1297930E+00
         -2   -1    0    0    0  501 -0.00000000000E+00  0.00000000000E+00  0.16867607575E+03  0.16867607575E+03  0.00000000000E+00 0.  1.
          2   -1    0    0  501    0  0.00000000000E+00 -0.00000000000E+00 -0.11161467384E+03  0.11161467384E+03  0.00000000000E+00 0. -1.
         23    2    1    2    0    0  0.92618509405E+01 -0.60031456593E+01  0.13250671685E+03  0.16119049659E+03  0.91118200934E+02 0.  0.
         23    2    1    2    0    0 -0.92618509405E+01  0.60031456593E+01 -0.75445314937E+02  0.11910025299E+03  0.91493470128E+02 0.  0.
          5    1    4    4  502    0 -0.14402871056E+02 -0.17254516705E+02  0.13679437842E+02  0.26727851786E+02  0.47000000000E+01 0. -1.
         -5    1    3    3    0  503  0.55204871221E+01 -0.43651303514E+02  0.10569034411E+03  0.11457945241E+03  0.47000000000E+01 0.  1.
          5    1    3    3  503    0  0.37413638183E+01  0.37648157855E+02  0.26816372741E+02  0.46611044185E+02  0.47000000000E+01 0. -1.
         -5    1    4    4    0  502  0.51410201158E+01  0.23257662364E+02 -0.89124752780E+02  0.92372401206E+02  0.47000000000E+01 0.  1.
<mgrwt>
<rscale>  0 0.92063513E+02</rscale>
<asrwt>0</asrwt>
<pdfrwt beam="1">  1        2 0.17171488E-01 0.92156794E+02</pdfrwt>
<pdfrwt beam="2">  1       -2 0.25950165E-01 0.92156794E+02</pdfrwt>
<totfact> 0.41141233E+03</totfact>
</mgrwt>
</event>
<event>
 8    1  0.2964543E-004  0.9806182E+02  0.7546771E-02  0.1287055E+00
          1   -1    0    0  501    0  0.00000000000E+00  0.00000000000E+00  0.52807357542E+03  0.52807357542E+03  0.00000000000E+00 0. -1.
         -1   -1    0    0    0  501 -0.00000000000E+00 -0.00000000000E+00 -0.19645577236E+02  0.19645577236E+02  0.00000000000E+00 0.  1.
         23    2    1    2    0    0  0.30250954712E+02 -0.85775096508E+00  0.15484804011E+03  0.18079285623E+03  0.88273922198E+02 0.  0.
         23    2    1    2    0    0 -0.30250954712E+02  0.85775096508E+00  0.35357995808E+03  0.36692629643E+03  0.93275207095E+02 0.  0.
          5    1    4    4  502    0 -0.23901351650E+01 -0.28495043921E+02  0.28979271621E+03  0.29123802746E+03  0.47000000000E+01 0. -1.
         -5    1    3    3    0  503  0.53254622834E+02  0.14505338765E+02  0.59030350850E+02  0.80951417698E+02  0.47000000000E+01 0.  1.
          5    1    3    3  503    0 -0.23003668122E+02 -0.15363089730E+02  0.95817689256E+02  0.99841438529E+02  0.47000000000E+01 0. -1.
         -5    1    4    4    0  502 -0.27860819547E+02  0.29352794886E+02  0.63787241872E+02  0.75688268966E+02  0.47000000000E+01 0.  1.
<mgrwt>
<rscale>  0 0.96853572E+02</rscale>
<asrwt>0</asrwt>
<pdfrwt beam="1">  1        1 0.81242078E-01 0.98061819E+02</pdfrwt>
<pdfrwt beam="2">  1       -1 0.30223969E-02 0.98061819E+02</pdfrwt>
<totfact> 0.14417193E+04</totfact>
</mgrwt>
</event>
<event>
 8    1  0.2964543E-004  0.1003405E+03  0.7546771E-02  0.1279856E+00
         -3   -1    0    0    0  501 -0.00000000000E+00  0.00000000000E+00  0.48758591817E+03  0.48758591817E+03  0.00000000000E+00 0.  1.
          3   -1    0    0  501    0  0.00000000000E+00 -0.00000000000E+00 -0.49353397826E+02  0.49353397826E+02  0.00000000000E+00 0. -1.
         23    2    1    2    0    0 -0.28466709321E+02  0.30211066304E+02  0.14228472708E+02  0.10134431336E+03  0.91351838227E+02 0.  0.
         23    2    1    2    0    0  0.28466709321E+02 -0.30211066304E+02  0.42400404763E+03  0.43559500264E+03  0.90777265028E+02 0.  0.
          5    1    4    4  502    0  0.55476101301E+02 -0.42233858396E+02  0.29604539630E+03  0.30418130001E+03  0.47000000000E+01 0. -1.
         -5    1    4    4    0  502 -0.27009391980E+02  0.12022792091E+02  0.12795865134E+03  0.13141370262E+03  0.47000000000E+01 0.  1.
          5    1    3    3  503    0  0.17544363474E+02 -0.11552089831E+02  0.30132227326E+02  0.37031022033E+02  0.47000000000E+01 0. -1.
         -5    1    3    3    0  503 -0.46011072794E+02  0.41763156135E+02 -0.15903754618E+02  0.64313291324E+02  0.47000000000E+01 0.  1.
<mgrwt>
<rscale>  0 0.10020956E+03</rscale>
<asrwt>0</asrwt>
<pdfrwt beam="1">  1        3 0.75928308E-02 0.10034052E+03</pdfrwt>
<pdfrwt beam="2">  1       -3 0.75013215E-01 0.10034052E+03</pdfrwt>
<totfact> 0.44195307E+02</totfact>
</mgrwt>
</event>
<event>
 7    1  0.2964543E-004  0.1006771E+03  0.7546771E-02  0.1306972E+00
         -1   -1    0    0    0  501 -0.00000000000E+00  0.00000000000E+00  0.65868742548E+02  0.65868742548E+02  0.00000000000E+00 0.  1.
          1   -1    0    0  501    0  0.00000000000E+00 -0.00000000000E+00 -0.13351436533E+03  0.13351436533E+03  0.00000000000E+00 0. -1.
         23    2    1    2    0    0 -0.41430057783E+02  0.10903643422E+02  0.10348208070E+02  0.10120756551E+03  0.91107336579E+02 0.  0.
          5    1    1    2  502    0  0.33052105266E+02  0.81209526316E+01 -0.64120389257E+02  0.72745486820E+02  0.47000000000E+01 0. -1.
         -5    1    1    2    0  502  0.83779525175E+01 -0.19024596054E+02 -0.13873441593E+02  0.25430055545E+02  0.47000000000E+01 0.  1.
          5    1    3    3  503    0  0.27289582528E+02  0.93243065669E+01 -0.72340280968E+01  0.30101248646E+02  0.47000000000E+01 0. -1.
         -5    1    3    3    0  503 -0.68719640312E+02  0.15793368556E+01  0.17582236167E+02  0.71106316865E+02  0.47000000000E+01 0.  1.
<mgrwt>
<rscale>  0 0.88320027E+02</rscale>
<asrwt>0</asrwt>
<pdfrwt beam="1">  1        1 0.20540671E-01 0.10067714E+03</pdfrwt>
<pdfrwt beam="2">  1       -1 0.10133653E-01 0.10067714E+03</pdfrwt>
<totfact> 0.13382511E+04</totfact>
</mgrwt>
</event>
<event>
 8    1  0.2964543E-004  0.1379024E+03  0.7546771E-02  0.1216476E+00
          2   -1    0    0  501    0  0.00000000000E+00  0.00000000000E+00  0.68763126508E+03  0.68763126508E+03  0.00000000000E+00 0. -1.
         -2   -1    0    0    0  501 -0.00000000000E+00 -0.00000000000E+00 -0.27486795798E+02  0.27486795798E+02  0.00000000000E+00 0.  1.
         23    2    1    2    0    0 -0.17749103436E+02 -0.10148151795E+03  0.32708946702E+03  0.35497123536E+03  0.91670765997E+02 0.  0.
         23    2    1    2    0    0  0.17749103436E+02  0.10148151795E+03  0.33305500226E+03  0.36014682551E+03  0.90369088968E+02 0.  0.
          5    1    3    3  502    0 -0.20160225937E+02 -0.77062554092E+02  0.31882090615E+03  0.32865473091E+03  0.47000000000E+01 0. -1.
         -5    1    4    4    0  503 -0.24152192684E+02  0.87627733564E+02  0.19638359356E+03  0.21644988778E+03  0.47000000000E+01 0.  1.
          5    1    4    4  503    0  0.41901296120E+02  0.13853784387E+02  0.13667140870E+03  0.14369693774E+03  0.47000000000E+01 0. -1.
         -5    1    3    3    0  502  0.24111225007E+01 -0.24418963859E+02  0.82685608774E+01  0.26316504454E+02  0.47000000000E+01 0.  1.
<mgrwt>
<rscale>  0 0.13768638E+03</rscale>
<asrwt>0</asrwt>
<pdfrwt beam="1">  1        2 0.10578941E+00 0.13790235E+03</pdfrwt>
<pdfrwt beam="2">  1       -2 0.42287383E-02 0.13790235E+03</pdfrwt>
<totfact> 0.10372183E+04</totfact>
</mgrwt>
</event>
<event>
 8    1  0.2964543E-004  0.1075557E+03  0.7546771E-02  0.1266164E+00
          3   -1    0    0  501    0  0.00000000000E+00  0.00000000000E+00  0.30844013650E+03  0.30844013650E+03  0.00000000000E+00 0. -1.
         -3   -1    0    0    0  501 -0.00000000000E+00 -0.00000000000E+00 -0.37244389123E+02  0.37244389123E+02  0.00000000000E+00 0.  1.
         23    2    1    2    0    0 -0.42678080062E+02  0.30196334824E+02  0.15346163658E+03  0.18621806603E+03  0.91615812280E+02 0.  0.
         23    2    1    2    0    0  0.42678080062E+02 -0.30196334824E+02  0.11773411079E+03  0.15946645959E+03  0.93994647374E+02 0.  0.
          5    1    4    4  502    0  0.10473311853E+02 -0.23664235462E+02  0.12306670692E+03  0.12584590042E+03  0.47000000000E+01 0. -1.
         -5    1    3    3    0  503  0.28925114880E+02  0.86357589927E+01  0.43528337712E+02  0.53179364308E+02  0.47000000000E+01 0.  1.
          5    1    3    3  503    0 -0.71603194942E+02  0.21560575831E+02  0.10993329887E+03  0.13303870172E+03  0.47000000000E+01 0. -1.
         -5    1    4    4    0  502  0.32204768209E+02 -0.65320993618E+01 -0.53325961227E+01  0.33620559170E+02  0.47000000000E+01 0.  1.
<mgrwt>
<rscale>  0 0.10703378E+03</rscale>
<asrwt>0</asrwt>
<pdfrwt beam="1">  1        3 0.47452327E-01 0.10755571E+03</pdfrwt>
<pdfrwt beam="2">  1       -3 0.57299062E-02 0.10755571E+03</pdfrwt>
<totfact> 0.17909366E+03</totfact>
</mgrwt>
</event>
<event>
 8    1  0.2964543E-004  0.9527236E+02  0.7546771E-02  0.1293042E+00
         -2   -1    0    0    0  501 -0.00000000000E+00  0.00000000000E+00  0.41372965319E+03  0.41372965319E+03  0.00000000000E+00 0.  1.
          2   -1    0    0  501    0  0.00000000000E+00 -0.00000000000E+00 -0.45986612748E+02  0.45986612748E+02  0.00000000000E+00 0. -1.
         23    2    1    2    0    0 -0.22680009649E+02  0.80017832992E+01  0.35148746330E+03  0.36306707431E+03  0.87726006520E+02 0.  0.
         23    2    1    2    0    0  0.22680009649E+02 -0.80017832992E+01  0.16255577141E+02  0.96649191623E+02  0.92186827039E+02 0.  0.
          5    1    3    3  502    0 -0.30103753660E+02 -0.35128929170E+02  0.19845092769E+03  0.20382624549E+03  0.47000000000E+01 0. -1.
         -5    1    3    3    0  502  0.74237440115E+01  0.43130712469E+02  0.15303653560E+03  0.15924082882E+03  0.47000000000E+01 0.  1.
          5    1    4    4  503    0 -0.90024709538E+01  0.26307723838E+02  0.35999267113E+02  0.45729400275E+02  0.47000000000E+01 0. -1.
         -5    1    4    4    0  503  0.31682480602E+02 -0.34309507138E+02 -0.19743689973E+02  0.50919791348E+02  0.47000000000E+01 0.  1.
<mgrwt>
<rscale>  0 0.94176243E+02</rscale>
<asrwt>0</asrwt>
<pdfrwt beam="1">  1        2 0.70748638E-02 0.95272359E+02</pdfrwt>
<pdfrwt beam="2">  1       -2 0.63650713E-01 0.95272359E+02</pdfrwt>
<totfact> 0.21898454E+03</totfact>
</mgrwt>
</event>
<event>
 8    1  0.2964543E-004  0.1642062E+03  0.7546771E-02  0.1184210E+00
         -1   -1    0    0    0  501 -0.00000000000E+00  0.00000000000E+00  0.23928094495E+02  0.23928094495E+02  0.00000000000E+00 0.  1.
          1   -1    0    0  501    0  0.00000000000E+00 -0.00000000000E+00 -0.14904597249E+04  0.14904597249E+04  0.00000000000E+00 0. -1.
         23    2    1    2    0    0 -0.10541496040E+03 -0.84719336974E+02 -0.35582050819E+03  0.39160427430E+03  0.91956477049E+02 0.  0.
         23    2    1    2    0    0  0.10541496040E+03  0.84719336974E+02 -0.11107111222E+04  0.11227835451E+04  0.93134376984E+02 0.  0.
          5    1    4    4  502    0  0.55938781560E+02  0.96158855365E+02 -0.83555135038E+03  0.84293761446E+03  0.47000000000E+01 0. -1.
         -5    1    3    3    0  503 -0.96124506015E+02 -0.10371911326E+03 -0.31709156172E+03  0.34722719309E+03  0.47000000000E+01 0.  1.
          5    1    3    3  503    0 -0.92904543889E+01  0.18999776289E+02 -0.38728946474E+02  0.44377081210E+02  0.47000000000E+01 0. -1.
         -5    1    4    4    0  502  0.49476178844E+02 -0.11439518391E+02 -0.27515977183E+03  0.27984593063E+03  0.47000000000E+01 0.  1.
<mgrwt>
<rscale>  0 0.16403969E+03</rscale>
<asrwt>0</asrwt>
<pdfrwt beam="1">  1        1 0.22930156E+00 0.16420625E+03</pdfrwt>
<pdfrwt beam="2">  1       -1 0.36812443E-02 0.16420625E+03</pdfrwt>
<totfact> 0.20203732E+03</totfact>
</mgrwt>
</event>
<event>
 8    1  0.2964543E-004  0.9056776E+02  0.7546771E-02  0.1303145E+00
         -2   -1    0    0    0  501 -0.00000000000E+00  0.00000000000E+00  0.28174761384E+02  0.28174761384E+02  0.00000000000E+00 0.  1.
          2   -1    0    0  501    0  0.00000000000E+00 -0.00000000000E+00 -0.48184618998E+03  0.48184618998E+03  0.00000000000E+00 0. -1.
         23    2    1    2    0    0 -0.72657318579E+01  0.51510321906E+00 -0.39290348963E+03  0.40320673627E+03  0.90274380728E+02 0.  0.
         23    2    1    2    0    0  0.72657318579E+01 -0.51510321906E+00 -0.60767938962E+02  0.10681421510E+03  0.87541292828E+02 0.  0.
          5    1    4    4  502    0  0.44846927441E+02 -0.58541148110E+01 -0.16646919261E+02  0.48422386166E+02  0.47000000000E+01 0. -1.
         -5    1    4    4    0  502 -0.37581195583E+02  0.53390115919E+01 -0.44121019702E+02  0.58391828930E+02  0.47000000000E+01 0.  1.
          5    1    3    3  503    0  0.33501788104E+02 -0.22795876134E+02 -0.23059860814E+03  0.23417905510E+03  0.47000000000E+01 0. -1.
         -5    1    3    3    0  503 -0.40767519962E+02  0.23310979353E+02 -0.16230488149E+03  0.16902768116E+03  0.47000000000E+01 0.  1.
<mgrwt>
<rscale>  0 0.89878957E+02</rscale>
<asrwt>0</asrwt>
<pdfrwt beam="1">  1        2 0.74130173E-01 0.90567765E+02</pdfrwt>
<pdfrwt beam="2">  1       -2 0.43345792E-02 0.90567765E+02</pdfrwt>
<totfact> 0.14423712E+04</totfact>
</mgrwt>
</event>
<event>
 8    1  0.2964543E-004  0.1472584E+03  0.7546771E-02  0.1203966E+00
          1   -1    0    0  501    0  0.00000000000E+00  0.00000000000E+00  0.98571234769E+03  0.98571234769E+03  0.00000000000E+00 0. -1.
         -1   -1    0    0    0  501 -0.00000000000E+00 -0.00000000000E+00 -0.14390445366E+03  0.14390445366E+03  0.00000000000E+00 0.  1.
         23    2    1    2    0    0 -0.10716698615E+03 -0.41057593503E+02  0.94077655931E+03  0.95219124766E+03  0.91853952968E+02 0.  0.
         23    2    1    2    0    0  0.10716698615E+03  0.41057593503E+02 -0.98968665284E+02  0.17742555368E+03  0.92274273152E+02 0.  0.
          5    1    3    3  502    0 -0.99036506053E+02  0.65984161068E+00  0.75922269429E+03  0.76566954651E+03  0.47000000000E+01 0. -1.
         -5    1    4    4    0  503  0.34070521857E+02  0.47669285671E+02 -0.83754207317E+02  0.10232310833E+03  0.47000000000E+01 0.  1.
          5    1    4    4  503    0  0.73096464296E+02 -0.66116921675E+01 -0.15214457968E+02  0.75102445348E+02  0.47000000000E+01 0. -1.
         -5    1    3    3    0  502 -0.81304801005E+01 -0.41717435114E+02  0.18155386502E+03  0.18652170116E+03  0.47000000000E+01 0.  1.
<mgrwt>
<rscale>  0 0.14719258E+03</rscale>
<asrwt>0</asrwt>
<pdfrwt beam="1">  1        1 0.15164805E+00 0.14725838E+03</pdfrwt>
<pdfrwt beam="2">  1       -1 0.22139147E-01 0.14725838E+03</pdfrwt>
<totfact> 0.28795911E+02</totfact>
</mgrwt>
</event>
<event>
 8    1  0.2964543E-004  0.9211066E+02  0.7546771E-02  0.1298789E+00
         -3   -1    0    0    0  501 -0.00000000000E+00  0.00000000000E+00  0.30455329497E+03  0.30455329497E+03  0.00000000000E+00 0.  1.
          3   -1    0    0  501    0  0.00000000000E+00 -0.00000000000E+00 -0.27658256270E+02  0.27658256270E+02  0.00000000000E+00 0. -1.
         23    2    1    2    0    0 -0.82498795507E+01 -0.86026971305E+01  0.12014500148E+03  0.15040135150E+03  0.89686555524E+02 0.  0.
         23    2    1    2    0    0  0.82498795507E+01  0.86026971305E+01  0.15675003721E+03  0.18181019974E+03  0.91336234052E+02 0.  0.
          5    1    3    3  502    0  0.43025414907E+01 -0.42048143869E+02  0.10102444962E+03  0.10961107466E+03  0.47000000000E+01 0. -1.
         -5    1    3    3    0  502 -0.12552421041E+02  0.33445446739E+02  0.19120551861E+02  0.40790276844E+02  0.47000000000E+01 0.  1.
          5    1    4    4  503    0  0.43319118645E+02 -0.18242374499E+02  0.71708286228E+02  0.85869078144E+02  0.47000000000E+01 0. -1.
         -5    1    4    4    0  503 -0.35069239095E+02  0.26845071629E+02  0.85041750985E+02  0.95941121591E+02  0.47000000000E+01 0.  1.
<mgrwt>
<rscale>  0 0.91699024E+02</rscale>
<asrwt>0</asrwt>
<pdfrwt beam="1">  1        3 0.42551166E-02 0.92110665E+02</pdfrwt>
<pdfrwt beam="2">  1       -3 0.46854351E-01 0.92110665E+02</pdfrwt>
<totfact> 0.28394409E+03</totfact>
</mgrwt>
</event>
<event>
 8    1  0.2964543E-004  0.1081771E+03  0.7546771E-02  0.1264016E+00
          3   -1    0    0  501    0  0.00000000000E+00  0.00000000000E+00  0.31098284147E+02  0.31098284147E+02  0.00000000000E+00 0. -1.
         -3   -1    0    0    0  501 -0.00000000000E+00 -0.00000000000E+00 -0.37921872700E+03  0.37921872700E+03  0.00000000000E+00 0.  1.
         23    2    1    2    0    0 -0.14101494884E+02 -0.57500262835E+02 -0.19283838742E+03  0.22110841746E+03  0.90538147890E+02 0.  0.
         23    2    1    2    0    0  0.14101494884E+02  0.57500262835E+02 -0.15528205543E+03  0.18920859369E+03  0.90455750525E+02 0.  0.
          5    1    3    3  502    0 -0.37816186586E+02 -0.27128739498E+02 -0.16945040647E+03  0.17578840328E+03  0.47000000000E+01 0. -1.
         -5    1    3    3    0  502  0.23714691702E+02 -0.30371523338E+02 -0.23387980957E+02  0.45320014183E+02  0.47000000000E+01 0.  1.
          5    1    4    4  503    0 -0.48411870141E+01  0.77695645484E+02 -0.96598892107E+02  0.12415106272E+03  0.47000000000E+01 0. -1.
         -5    1    4    4    0  503  0.18942681898E+02 -0.20195382648E+02 -0.58683163324E+02  0.65057530967E+02  0.47000000000E+01 0.  1.
<mgrwt>
<rscale>  0 0.10815987E+03</rscale>
<asrwt>0</asrwt>
<pdfrwt beam="1">  1        3 0.47843515E-02 0.10817712E+03</pdfrwt>
<pdfrwt beam="2">  1       -3 0.58341341E-01 0.10817712E+03</pdfrwt>
<totfact> 0.15747796E+03</totfact>
</mgrwt>
</event>
<event>
 8    1  0.2964543E-004  0.9604339E+02  0.7546771E-02  0.1289604E+00
          1   -1    0    0  501    0  0.00000000000E+00  0.00000000000E+00  0.14239430896E+03  0.14239430896E+03  0.00000000000E+00 0. -1.
         -1   -1    0    0    0  501 -0.00000000000E+00 -0.00000000000E+00 -0.63867933386E+02  0.63867933386E+02  0.00000000000E+00 0.  1.
         23    2    1    2    0    0 -0.30371654301E+02  0.51352988645E+01  0.39039374639E+02  0.10367452023E+03  0.90969910927E+02 0.  0.
         23    2    1    2    0    0  0.30371654301E+02 -0.51352988645E+01  0.39487000936E+02  0.10258772211E+03  0.89533283231E+02 0.  0.
          5    1    4    4  502    0  0.16515922100E+02  0.30356261220E+02  0.51645931419E+02  0.62319102290E+02  0.47000000000E+01 0. -1.
         -5    1    4    4    0  502  0.13855732201E+02 -0.35491560084E+02 -0.12158930483E+02  0.40268619824E+02  0.47000000000E+01 0.  1.
          5    1    3    3  503    0 -0.38223264122E+02  0.28145417290E+02 -0.10000772349E+02  0.48736925243E+02  0.47000000000E+01 0. -1.
         -5    1    3    3    0  503  0.78516098216E+01 -0.23010118426E+02  0.49040146988E+02  0.54937594990E+02  0.47000000000E+01 0.  1.
<mgrwt>
<rscale>  0 0.95701669E+02</rscale>
<asrwt>0</asrwt>
<pdfrwt beam="1">  1        1 0.21906817E-01 0.96043393E+02</pdfrwt>
<pdfrwt beam="2">  1       -1 0.98258359E-02 0.96043393E+02</pdfrwt>
<totfact> 0.12875255E+04</totfact>
</mgrwt>
</event>
<event>
 8    1  0.2964543E-004  0.9378170E+02  0.7546771E-02  0.1294338E+00
         -1   -1    0    0    0  501 -0.00000000000E+00  0.00000000000E+00  0.13873564530E+02  0.13873564530E+02  0.00000000000E+00 0.  1.
          1   -1    0    0  501    0  0.00000000000E+00 -0.00000000000E+00 -0.81655541940E+03  0.81655541940E+03  0.00000000000E+00 0. -1.
         23    2    1    2    0    0 -0.12658685464E+02  0.12309201191E+02 -0.60129842979E+03  0.60856783396E+03  0.92104549903E+02 0.  0.
         23    2    1    2    0    0  0.12658685464E+02 -0.12309201191E+02 -0.20138342509E+03  0.22186114998E+03  0.91407479001E+02 0.  0.
          5    1    3    3  502    0 -0.51052993483E+02  0.63236116845E+00 -0.27104799152E+03  0.27585487440E+03  0.47000000000E+01 0. -1.
         -5    1    3    3    0  502  0.38394308020E+02  0.11676840023E+02 -0.33025043827E+03  0.33271295956E+03  0.47000000000E+01 0.  1.
          5    1    4    4  503    0  0.10728850468E+02 -0.42469075066E+02 -0.17797483531E+03  0.18334629140E+03  0.47000000000E+01 0. -1.
         -5    1    4    4    0  503  0.19298349960E+01  0.30159873875E+02 -0.23408589780E+02  0.38514858571E+02  0.47000000000E+01 0.  1.
<mgrwt>
<rscale>  0 0.93610099E+02</rscale>
<asrwt>0</asrwt>
<pdfrwt beam="1">  1        1 0.12562390E+00 0.93781698E+02</pdfrwt>
<pdfrwt beam="2">  1       -1 0.21343947E-02 0.93781698E+02</pdfrwt>
<totfact> 0.12938126E+04</totfact>
</mgrwt>
</event>
<event>
 8    1  0.2964543E-004  0.2532981E+03  0.7546771E-02  0.1111386E+00
         -2   -1    0    0    0  501 -0.00000000000E+00  0.00000000000E+00  0.61721274167E+02  0.61721274167E+02  0.00000000000E+00 0.  1.
          2   -1    0    0  501    0  0.00000000000E+00 -0.00000000000E+00 -0.18229533968E+04  0.18229533968E+04  0.00000000000E+00 0. -1.
         23    2    1    2    0    0 -0.16460583703E+03 -0.17015424667E+03 -0.15008553216E+04  0.15220797041E+04  0.90068751052E+02 0.  0.
         23    2    1    2    0    0  0.16460583703E+03  0.17015424667E+03 -0.26037680103E+03  0.36259496689E+03  0.87358355389E+02 0.  0.
          5    1    4    4  502    0  0.31273340168E+02  0.40832515617E+02 -0.11703323863E+03  0.12792257456E+03  0.47000000000E+01 0. -1.
         -5    1    3    3    0  503 -0.73259281883E+02 -0.87457814013E+02 -0.98953676192E+03  0.99610284851E+03  0.47000000000E+01 0.  1.
          5    1    3    3  503    0 -0.91346555151E+02 -0.82696432661E+02 -0.51131855969E+03  0.52597685557E+03  0.47000000000E+01 0. -1.
         -5    1    4    4    0  502  0.13333249687E+03  0.12932173106E+03 -0.14334356239E+03  0.23467239233E+03  0.47000000000E+01 0.  1.
<mgrwt>
<rscale>  0 0.25306000E+03</rscale>
<asrwt>0</asrwt>
<pdfrwt beam="1">  1        2 0.28045434E+00 0.25329810E+03</pdfrwt>
<pdfrwt beam="2">  1       -2 0.94955816E-02 0.25329810E+03</pdfrwt>
<totfact> 0.66630404E+02</totfact>
</mgrwt>
</event>
<event>
 8    1  0.2964543E-004  0.9813953E+02  0.7546771E-02  0.1287384E+00
         -1   -1    0    0    0  501 -0.00000000000E+00  0.00000000000E+00  0.16530300688E+02  0.16530300688E+02  0.00000000000E+00 0.  1.
          1   -1    0    0  501    0  0.00000000000E+00 -0.00000000000E+00 -0.61774264923E+03  0.61774264923E+03  0.00000000000E+00 0. -1.
         23    2    1    2    0    0 -0.12086026244E+02  0.29395002582E+01 -0.39787974224E+03  0.40849536878E+03  0.91681319469E+02 0.  0.
         23    2    1    2    0    0  0.12086026244E+02 -0.29395002582E+01 -0.20333260631E+03  0.22577758114E+03  0.97348110748E+02 0.  0.
          5    1    4    4  502    0 -0.33518138233E+02 -0.11920858071E+00 -0.15673298806E+03  0.16034587412E+03  0.47000000000E+01 0. -1.
         -5    1    3    3    0  503  0.20631442080E+02 -0.27743041265E+02 -0.77952473885E+02  0.85404981855E+02  0.47000000000E+01 0.  1.
          5    1    3    3  503    0 -0.32717468324E+02  0.30682541523E+02 -0.31992726835E+03  0.32309038692E+03  0.47000000000E+01 0. -1.
         -5    1    4    4    0  502  0.45604164477E+02 -0.28202916774E+01 -0.46599618246E+02  0.65431707019E+02  0.47000000000E+01 0.  1.
<mgrwt>
<rscale>  0 0.96703752E+02</rscale>
<asrwt>0</asrwt>
<pdfrwt beam="1">  1        1 0.95037338E-01 0.98139530E+02</pdfrwt>
<pdfrwt beam="2">  1       -1 0.25431230E-02 0.98139530E+02</pdfrwt>
<totfact> 0.15014161E+04</totfact>
</mgrwt>
</event>
<event>
 8    1  0.2964543E-004  0.9987339E+02  0.7546771E-02  0.1281454E+00
          2   -1    0    0  501    0  0.00000000000E+00  0.00000000000E+00  0.29626666212E+03  0.29626666212E+03  0.00000000000E+00 0. -1.
         -2   -1    0    0    0  501 -0.00000000000E+00 -0.00000000000E+00 -0.33105621508E+02  0.33105621508E+02  0.00000000000E+00 0.  1.
         23    2    1    2    0    0  0.36135510377E+02 -0.16302888699E+02  0.12968588094E+03  0.16266801855E+03  0.89838172578E+02 0.  0.
         23    2    1    2    0    0 -0.36135510377E+02  0.16302888699E+02  0.13347515967E+03  0.16670426508E+03  0.91668612171E+02 0.  0.
          5    1    4    4  502    0 -0.53124731579E+02  0.40188493455E+02  0.11072396003E+03  0.12930289029E+03  0.47000000000E+01 0. -1.
         -5    1    3    3    0  503  0.63706556445E+02 -0.20075118692E+02  0.71262936159E+02  0.97785642068E+02  0.47000000000E+01 0.  1.
          5    1    3    3  503    0 -0.27571046069E+02  0.37722299930E+01  0.58422944783E+02  0.64882376479E+02  0.47000000000E+01 0. -1.
         -5    1    4    4    0  502  0.16989221203E+02 -0.23885604755E+02  0.22751199642E+02  0.37401374798E+02  0.47000000000E+01 0.  1.
<mgrwt>
<rscale>  0 0.99451377E+02</rscale>
<asrwt>0</asrwt>
<pdfrwt beam="1">  1        2 0.45579485E-01 0.99873389E+02</pdfrwt>
<pdfrwt beam="2">  1       -2 0.50931727E-02 0.99873389E+02</pdfrwt>
<totfact> 0.19145552E+04</totfact>
</mgrwt>
</event>
<event>
 8    1  0.2964543E-004  0.2510955E+03  0.7546771E-02  0.1112643E+00
          1   -1    0    0  501    0  0.00000000000E+00  0.00000000000E+00  0.12910680982E+04  0.12910680982E+04  0.00000000000E+00 0. -1.
         -1   -1    0    0    0  501 -0.00000000000E+00 -0.00000000000E+00 -0.73344674172E+02  0.73344674172E+02  0.00000000000E+00 0.  1.
         23    2    1    2    0    0 -0.22852784265E+03 -0.51194480121E+02  0.21435751435E+03  0.33014859682E+03  0.90570979694E+02 0.  0.
         23    2    1    2    0    0  0.22852784265E+03  0.51194480121E+02  0.10033659097E+04  0.10342641755E+04  0.90074338540E+02 0.  0.
          5    1    3    3  502    0 -0.67176405470E+02  0.83087621487E+01  0.10906104851E+03  0.12844495819E+03  0.47000000000E+01 0. -1.
         -5    1    3    3    0  502 -0.16135143718E+03 -0.59503242270E+02  0.10529646584E+03  0.20170363864E+03  0.47000000000E+01 0.  1.
          5    1    4    4  503    0  0.16343978136E+03  0.75790910568E+02  0.76228188144E+03  0.78329597282E+03  0.47000000000E+01 0. -1.
         -5    1    4    4    0  503  0.65088061294E+02 -0.24596430447E+02  0.24108402822E+03  0.25096820272E+03  0.47000000000E+01 0.  1.
<mgrwt>
<rscale>  0 0.25105081E+03</rscale>
<asrwt>0</asrwt>
<pdfrwt beam="1">  1        1 0.19862584E+00 0.25109550E+03</pdfrwt>
<pdfrwt beam="2">  1       -1 0.11283797E-01 0.25109550E+03</pdfrwt>
<totfact> 0.50233577E+02</totfact>
</mgrwt>
</event>
<event>
 8    1  0.2964543E-004  0.1959876E+03  0.7546771E-02  0.1154802E+00
          2   -1    0    0  501    0  0.00000000000E+00  0.00000000000E+00  0.13091481381E+03  0.13091481381E+03  0.00000000000E+00 0. -1.
         -2   -1    0    0    0  501 -0.00000000000E+00 -0.00000000000E+00 -0.29514334805E+03  0.29514334805E+03  0.00000000000E+00 0.  1.
         23    2    1    2    0    0  0.73341922399E+02  0.14854693345E+03 -0.12779318527E+03  0.23397058689E+03  0.10471823295E+03 0.  0.
         23    2    1    2    0    0 -0.73341922399E+02 -0.14854693345E+03 -0.36435348963E+02  0.19208757497E+03  0.90138076223E+02 0.  0.
          5    1    3    3  502    0 -0.20293033712E+02  0.58797243160E+02 -0.20758109726E+02  0.65741251432E+02  0.47000000000E+01 0. -1.
         -5    1    4    4    0  503 -0.18414155855E+02 -0.89805388400E+02 -0.58138322895E+02  0.10865653920E+03  0.47000000000E+01 0.  1.
          5    1    4    4  503    0 -0.54927766544E+02 -0.58741545047E+02  0.21702973932E+02  0.83431035769E+02  0.47000000000E+01 0. -1.
         -5    1    3    3    0  502  0.93634956111E+02  0.89749690287E+02 -0.10703507555E+03  0.16822933546E+03  0.47000000000E+01 0.  1.
<mgrwt>
<rscale>  0 0.19411410E+03</rscale>
<asrwt>0</asrwt>
<pdfrwt beam="1">  1        2 0.20140741E-01 0.19598759E+03</pdfrwt>
<pdfrwt beam="2">  1       -2 0.45406668E-01 0.19598759E+03</pdfrwt>
<totfact> 0.12697874E+03</totfact>
</mgrwt>
</event>
<event>
 8    1  0.2964543E-004  0.1128226E+03  0.7546771E-02  0.1255521E+00
          1   -1    0    0  501    0  0.00000000000E+00  0.00000000000E+00  0.57497713735E+02  0.57497713735E+02  0.00000000000E+00 0. -1.
         -1   -1    0    0    0  501 -0.00000000000E+00 -0.00000000000E+00 -0.23435222483E+03  0.23435222483E+03  0.00000000000E+00 0.  1.
         23    2    1    2    0    0 -0.67061920569E+02  0.63708298679E+01 -0.53650841008E+02  0.12492936206E+03  0.90504387194E+02 0.  0.
         23    2    1    2    0    0  0.67061920569E+02 -0.63708298679E+01 -0.12320367009E+03  0.16692057650E+03  0.90252123924E+02 0.  0.
          5    1    3    3  502    0 -0.79525090354E+02  0.30254491985E+02 -0.36912292872E+02  0.92866472131E+02  0.47000000000E+01 0. -1.
         -5    1    4    4    0  503  0.64968140372E+02  0.23234702742E+02 -0.43402003461E+02  0.81648849222E+02  0.47000000000E+01 0.  1.
          5    1    4    4  503    0  0.20937801973E+01 -0.29605532610E+02 -0.79801666631E+02  0.85271727282E+02  0.47000000000E+01 0. -1.
         -5    1    3    3    0  502  0.12463169784E+02 -0.23883662117E+02 -0.16738548136E+02  0.32062889933E+02  0.47000000000E+01 0.  1.
<mgrwt>
<rscale>  0 0.11277197E+03</rscale>
<asrwt>0</asrwt>
<pdfrwt beam="1">  1        1 0.88458020E-02 0.11282257E+03</pdfrwt>
<pdfrwt beam="2">  1       -1 0.36054189E-01 0.11282257E+03</pdfrwt>
<totfact> 0.52897219E+03</totfact>
</mgrwt>
</event>
<event>
 8    1  0.2964543E-004  0.9920647E+02  0.7546771E-02  0.1285090E+00
         -1   -1    0    0    0  501 -0.00000000000E+00  0.00000000000E+00  0.50240064751E+03  0.50240064751E+03  0.00000000000E+00 0.  1.
          1   -1    0    0  501    0  0.00000000000E+00 -0.00000000000E+00 -0.46380698034E+02  0.46380698034E+02  0.00000000000E+00 0. -1.
         23    2    1    2    0    0  0.36127517634E+02  0.80548867093E+00  0.44345572424E+03  0.45441710295E+03  0.92390896476E+02 0.  0.
         23    2    1    2    0    0 -0.36127517634E+02 -0.80548867093E+00  0.12564225235E+02  0.94364242592E+02  0.86260675756E+02 0.  0.
          5    1    3    3  502    0  0.80450801688E+01 -0.44453222663E+02  0.18570011530E+03  0.19117383488E+03  0.47000000000E+01 0. -1.
         -5    1    3    3    0  502  0.28082437465E+02  0.45258711334E+02  0.25775560894E+03  0.26324326808E+03  0.47000000000E+01 0.  1.
          5    1    4    4  503    0  0.95359709414E+01 -0.30165421099E+02 -0.12558094393E+02  0.34361069638E+02  0.47000000000E+01 0. -1.
         -5    1    4    4    0  503 -0.45663488575E+02  0.29359932428E+02  0.25122319629E+02  0.60003172954E+02  0.47000000000E+01 0.  1.
<mgrwt>
<rscale>  0 0.97754295E+02</rscale>
<asrwt>0</asrwt>
<pdfrwt beam="1">  1        1 0.71354923E-02 0.99206472E+02</pdfrwt>
<pdfrwt beam="2">  1       -1 0.77292404E-01 0.99206472E+02</pdfrwt>
<totfact> 0.17123875E+03</totfact>
</mgrwt>
</event>
<event>
 8    1  0.2964543E-004  0.9855066E+02  0.7546771E-02  0.1283715E+00
          1   -1    0    0  501    0  0.00000000000E+00  0.00000000000E+00  0.18207823664E+03  0.18207823664E+03  0.00000000000E+00 0. -1.
         -1   -1    0    0    0  501 -0.00000000000E+00 -0.00000000000E+00 -0.54234215132E+02  0.54234215132E+02  0.00000000000E+00 0.  1.
         23    2    1    2    0    0 -0.18220628847E+02 -0.28829971798E+02  0.46284778087E+02  0.10887843708E+03  0.92461206940E+02 0.  0.
         23    2    1    2    0    0  0.18220628847E+02  0.28829971798E+02  0.81559243419E+02  0.12743401469E+03  0.91784308700E+02 0.  0.
          5    1    3    3  502    0 -0.59839255906E+01  0.33726556143E+02  0.14424196462E+02  0.37462453181E+02  0.47000000000E+01 0. -1.
         -5    1    4    4    0  503 -0.33957321620E+02  0.75760625487E+01  0.10534223764E+02  0.36654553410E+02  0.47000000000E+01 0.  1.
          5    1    4    4  503    0  0.52177950468E+02  0.21253909249E+02  0.71025019655E+02  0.90779461280E+02  0.47000000000E+01 0. -1.
         -5    1    3    3    0  502 -0.12236703257E+02 -0.62556527941E+02  0.31860581625E+02  0.71415983898E+02  0.47000000000E+01 0.  1.
<mgrwt>
<rscale>  0 0.98391581E+02</rscale>
<asrwt>0</asrwt>
<pdfrwt beam="1">  1        1 0.28012036E-01 0.98550664E+02</pdfrwt>
<pdfrwt beam="2">  1       -1 0.83437255E-02 0.98550664E+02</pdfrwt>
<totfact> 0.12160612E+04</totfact>
</mgrwt>
</event>
<event>
 8    1  0.2964543E-004  0.9577674E+02  0.7546771E-02  0.1289947E+00
         -3   -1    0    0    0  501 -0.00000000000E+00  0.00000000000E+00  0.10244959705E+02  0.10244959705E+02  0.00000000000E+00 0.  1.
          3   -1    0    0  501    0  0.00000000000E+00 -0.00000000000E+00 -0.90627496785E+03  0.90627496785E+03  0.00000000000E+00 0. -1.
         23    2    1    2    0    0  0.60014743886E+01  0.32701966826E+02 -0.51716324208E+03  0.52595722447E+03  0.89820636230E+02 0.  0.
         23    2    1    2    0    0 -0.60014743886E+01 -0.32701966826E+02 -0.37886676607E+03  0.39056270308E+03  0.88846847309E+02 0.  0.
          5    1    3    3  502    0  0.96676493284E+01 -0.30116339468E+02 -0.20515928689E+03  0.20763641382E+03  0.47000000000E+01 0. -1.
         -5    1    4    4    0  503  0.38780285409E+02 -0.96299459998E+00 -0.13437451631E+03  0.13994083939E+03  0.47000000000E+01 0.  1.
          5    1    4    4  503    0 -0.44781759798E+02 -0.31738972226E+02 -0.24449224976E+03  0.25062186369E+03  0.47000000000E+01 0. -1.
         -5    1    3    3    0  502 -0.36661749398E+01  0.62818306294E+02 -0.31200395518E+03  0.31832081065E+03  0.47000000000E+01 0.  1.
<mgrwt>
<rscale>  0 0.95547758E+02</rscale>
<asrwt>0</asrwt>
<pdfrwt beam="1">  1        3 0.13942695E+00 0.95776735E+02</pdfrwt>
<pdfrwt beam="2">  1       -3 0.15761473E-02 0.95776735E+02</pdfrwt>
<totfact> 0.12298417E+03</totfact>
</mgrwt>
</event>
<event>
 8    1  0.2964543E-004  0.9536292E+02  0.7546771E-02  0.1292469E+00
         -2   -1    0    0    0  501 -0.00000000000E+00  0.00000000000E+00  0.17489640673E+02  0.17489640673E+02  0.00000000000E+00 0.  1.
          2   -1    0    0  501    0  0.00000000000E+00 -0.00000000000E+00 -0.57308419108E+03  0.57308419108E+03  0.00000000000E+00 0. -1.
         23    2    1    2    0    0 -0.35632360322E+01 -0.13886618451E+02 -0.17719460852E+03  0.20122628188E+03  0.94279119675E+02 0.  0.
         23    2    1    2    0    0  0.35632360322E+01  0.13886618451E+02 -0.37839994188E+03  0.38934754987E+03  0.90550890388E+02 0.  0.
          5    1    3    3  502    0  0.32727816651E+02 -0.36674842353E+02 -0.11871095757E+03  0.12857113008E+03  0.47000000000E+01 0. -1.
         -5    1    4    4    0  503 -0.27492922516E+02  0.39070115061E+02 -0.15213600492E+03  0.15952989899E+03  0.47000000000E+01 0.  1.
          5    1    4    4  503    0  0.31056158549E+02 -0.25183496610E+02 -0.22626393697E+03  0.22981765088E+03  0.47000000000E+01 0. -1.
         -5    1    3    3    0  502 -0.36291052683E+02  0.22788223902E+02 -0.58483650952E+02  0.72655151793E+02  0.47000000000E+01 0.  1.
<mgrwt>
<rscale>  0 0.94428235E+02</rscale>
<asrwt>0</asrwt>
<pdfrwt beam="1">  1        2 0.88166797E-01 0.95362924E+02</pdfrwt>
<pdfrwt beam="2">  1       -2 0.26907140E-02 0.95362924E+02</pdfrwt>
<totfact> 0.24089395E+04</totfact>
</mgrwt>
</event>
<event>
 8    1  0.2964543E-004  0.1185170E+03  0.7546771E-02  0.1245995E+00
          1   -1    0    0  501    0  0.00000000000E+00  0.00000000000E+00  0.17289425151E+03  0.17289425151E+03  0.00000000000E+00 0. -1.
         -1   -1    0    0    0  501 -0.00000000000E+00 -0.00000000000E+00 -0.21352243778E+03  0.21352243778E+03  0.00000000000E+00 0.  1.
         23    2    1    2    0    0  0.56024608522E+02 -0.49763299422E+02 -0.17275498905E+03  0.20892364672E+03  0.90496746828E+02 0.  0.
         23    2    1    2    0    0 -0.56024608522E+02  0.49763299422E+02  0.13212680278E+03  0.17749304257E+03  0.91821268879E+02 0.  0.
          5    1    3    3  502    0  0.56063939646E+02  0.45257897537E+01 -0.53320934867E+02  0.77645735212E+02  0.47000000000E+01 0. -1.
         -5    1    3    3    0  502 -0.39331124231E-01 -0.54289089176E+02 -0.11943405419E+03  0.13127791151E+03  0.47000000000E+01 0.  1.
          5    1    4    4  503    0 -0.26234705729E+02  0.58473244062E+02  0.13119572809E+03  0.14608829223E+03  0.47000000000E+01 0. -1.
         -5    1    4    4    0  503 -0.29789902793E+02 -0.87099446396E+01  0.93107468625E+00  0.31404750343E+02  0.47000000000E+01 0.  1.
<mgrwt>
<rscale>  0 0.11826041E+03</rscale>
<asrwt>0</asrwt>
<pdfrwt beam="1">  1        1 0.26599116E-01 0.11851704E+03</pdfrwt>
<pdfrwt beam="2">  1       -1 0.32849606E-01 0.11851704E+03</pdfrwt>
<totfact> 0.15080719E+03</totfact>
</mgrwt>
</event>
<event>
 8    1  0.2964543E-004  0.9130425E+02  0.7546771E-02  0.1300312E+00
          2   -1    0    0  501    0  0.00000000000E+00  0.00000000000E+00  0.77594321481E+02  0.77594321481E+02  0.00000000000E+00 0. -1.
         -2   -1    0    0    0  501 -0.00000000000E+00 -0.00000000000E+00 -0.12267670212E+03  0.12267670212E+03  0.00000000000E+00 0.  1.
         23    2    1    2    0    0 -0.10505217476E+02 -0.64931879679E+01 -0.59254409153E+02  0.10884646050E+03  0.90465163875E+02 0.  0.
         23    2    1    2    0    0  0.10505217476E+02  0.64931879679E+01  0.14172028513E+02  0.91424563101E+02  0.89471130885E+02 0.  0.
          5    1    3    3  502    0  0.33057235436E+01 -0.30187868408E+02 -0.71967775480E+02  0.78253983379E+02  0.47000000000E+01 0. -1.
         -5    1    4    4    0  503  0.49150143062E+01  0.36685985250E+02 -0.22338890662E+02  0.43487181047E+02  0.47000000000E+01 0.  1.
          5    1    4    4  503    0  0.55902031703E+01 -0.30192797282E+02  0.36510919175E+02  0.47937382054E+02  0.47000000000E+01 0. -1.
         -5    1    3    3    0  502 -0.13810941020E+02  0.23694680440E+02  0.12713366327E+02  0.30592477121E+02  0.47000000000E+01 0.  1.
<mgrwt>
<rscale>  0 0.91057053E+02</rscale>
<asrwt>0</asrwt>
<pdfrwt beam="1">  1        2 0.11937588E-01 0.91304255E+02</pdfrwt>
<pdfrwt beam="2">  1       -2 0.18873339E-01 0.91304255E+02</pdfrwt>
<totfact> 0.10784638E+04</totfact>
</mgrwt>
</event>
<event>
 8    1  0.2964543E-004  0.1516940E+03  0.7546771E-02  0.1198450E+00
         -1   -1    0    0    0  501 -0.00000000000E+00  0.00000000000E+00  0.10068508572E+03  0.10068508572E+03  0.00000000000E+00 0.  1.
          1   -1    0    0  501    0  0.00000000000E+00 -0.00000000000E+00 -0.22844116809E+03  0.22844116809E+03  0.00000000000E+00 0. -1.
         23    2    1    2    0    0  0.96713246918E+02 -0.72803442733E+02 -0.60278240340E+02  0.16323152871E+03  0.91418118021E+02 0.  0.
         23    2    1    2    0    0 -0.96713246918E+02  0.72803442733E+02 -0.67477842027E+02  0.16589472511E+03  0.91181178156E+02 0.  0.
          5    1    4    4  502    0 -0.27026118114E+02  0.62679319878E+02 -0.66354162157E+02  0.95310403609E+02  0.47000000000E+01 0. -1.
         -5    1    4    4    0  502 -0.69687128805E+02  0.10124122855E+02 -0.11236798706E+01  0.70584321496E+02  0.47000000000E+01 0.  1.
          5    1    3    3  503    0  0.78384053463E+02 -0.62063228603E+02 -0.10092146236E+01  0.10009501834E+03  0.47000000000E+01 0. -1.
         -5    1    3    3    0  503  0.18329193455E+02 -0.10740214130E+02 -0.59269025717E+02  0.63136510370E+02  0.47000000000E+01 0.  1.
<mgrwt>
<rscale>  0 0.15165831E+03</rscale>
<asrwt>0</asrwt>
<pdfrwt beam="1">  1        1 0.35144795E-01 0.15169399E+03</pdfrwt>
<pdfrwt beam="2">  1       -1 0.15490013E-01 0.15169399E+03</pdfrwt>
<totfact> 0.36633554E+03</totfact>
</mgrwt>
</event>
<event>
 8    1  0.2964543E-004  0.9707024E+02  0.7546771E-02  0.1289656E+00
          2   -1    0    0  501    0  0.00000000000E+00  0.00000000000E+00  0.23819020071E+03  0.23819020071E+03  0.00000000000E+00 0. -1.
         -2   -1    0    0    0  501 -0.00000000000E+00 -0.00000000000E+00 -0.56182676899E+02  0.56182676899E+02  0.00000000000E+00 0.  1.
         23    2    1    2    0    0  0.11269840194E+02 -0.25019748196E+02  0.41061805435E+01  0.91711783039E+02  0.87413919554E+02 0.  0.
         23    2    1    2    0    0 -0.11269840194E+02  0.25019748196E+02  0.17790134327E+03  0.20266109457E+03  0.93110870568E+02 0.  0.
          5    1    3    3  502    0 -0.15034690287E+02 -0.17972078585E+02  0.39888984024E+02  0.46500092120E+02  0.47000000000E+01 0. -1.
         -5    1    3    3    0  502  0.26304530481E+02 -0.70476696118E+01 -0.35782803481E+02  0.45211690919E+02  0.47000000000E+01 0.  1.
          5    1    4    4  503    0 -0.24578480016E-01  0.54827311029E+02  0.15095220680E+03  0.16066951602E+03  0.47000000000E+01 0. -1.
         -5    1    4    4    0  503 -0.11245261714E+02 -0.29807562833E+02  0.26949136464E+02  0.41991578550E+02  0.47000000000E+01 0.  1.
<mgrwt>
<rscale>  0 0.95677964E+02</rscale>
<asrwt>0</asrwt>
<pdfrwt beam="1">  1        2 0.36644646E-01 0.97070239E+02</pdfrwt>
<pdfrwt beam="2">  1       -2 0.86434889E-02 0.97070239E+02</pdfrwt>
<totfact> 0.10785925E+04</totfact>
</mgrwt>
</event>
<event>
 8    1  0.2964543E-004  0.1335457E+03  0.7546771E-02  0.1228306E+00
          1   -1    0    0  501    0  0.00000000000E+00  0.00000000000E+00  0.12640198364E+04  0.12640198364E+04  0.00000000000E+00 0. -1.
         -1   -1    0    0    0  501 -0.00000000000E+00 -0.00000000000E+00 -0.12663671386E+02  0.12663671386E+02  0.00000000000E+00 0.  1.
         23    2    1    2    0    0 -0.72732418066E+02  0.22172385244E+02  0.59123012032E+03  0.60612499667E+03  0.10978541393E+03 0.  0.
         23    2    1    2    0    0  0.72732418066E+02 -0.22172385244E+02  0.66012604468E+03  0.67055851110E+03  0.90003903465E+02 0.  0.
          5    1    4    4  502    0  0.43388651764E+02  0.26430885974E+02  0.44871009727E+03  0.45160160344E+03  0.47000000000E+01 0. -1.
         -5    1    4    4    0  502  0.29343766302E+02 -0.48603271218E+02  0.21141594741E+03  0.21895690766E+03  0.47000000000E+01 0.  1.
          5    1    3    3  503    0 -0.34110168137E+01  0.50114775237E+02  0.34767888239E+03  0.35132011185E+03  0.47000000000E+01 0. -1.
         -5    1    3    3    0  503 -0.69321401252E+02 -0.27942389993E+02  0.24355123793E+03  0.25480488482E+03  0.47000000000E+01 0.  1.
<mgrwt>
<rscale>  0 0.12942859E+03</rscale>
<asrwt>0</asrwt>
<pdfrwt beam="1">  1        1 0.19446449E+00 0.13354571E+03</pdfrwt>
<pdfrwt beam="2">  1       -1 0.19482581E-02 0.13354571E+03</pdfrwt>
<totfact> 0.71687365E+03</totfact>
</mgrwt>
</event>
<event>
 8    1  0.2964543E-004  0.9089273E+02  0.7546771E-02  0.1301386E+00
          1   -1    0    0  501    0  0.00000000000E+00  0.00000000000E+00  0.37715320043E+03  0.37715320043E+03  0.00000000000E+00 0. -1.
         -1   -1    0    0    0  501 -0.00000000000E+00 -0.00000000000E+00 -0.24247225677E+02  0.24247225677E+02  0.00000000000E+00 0.  1.
         23    2    1    2    0    0 -0.92338933323E+00 -0.17888481489E+02  0.11153720336E+03  0.14388201967E+03  0.89110254370E+02 0.  0.
         23    2    1    2    0    0  0.92338933323E+00  0.17888481489E+02  0.24136877139E+03  0.25751840644E+03  0.87954507734E+02 0.  0.
          5    1    3    3  502    0 -0.29316688170E+02  0.18314719579E+02  0.81720159541E+02  0.88854778340E+02  0.47000000000E+01 0. -1.
         -5    1    3    3    0  502  0.28393298836E+02 -0.36203201068E+02  0.29817043815E+02  0.55027241329E+02  0.47000000000E+01 0.  1.
          5    1    4    4  503    0  0.98993629908E+01  0.52526745219E+02  0.14641252835E+03  0.15593516219E+03  0.47000000000E+01 0. -1.
         -5    1    4    4    0  503 -0.89759736576E+01 -0.34638263730E+02  0.94956243045E+02  0.10158324424E+03  0.47000000000E+01 0.  1.
<mgrwt>
<rscale>  0 0.90608196E+02</rscale>
<asrwt>0</asrwt>
<pdfrwt beam="1">  1        1 0.58023565E-01 0.90892727E+02</pdfrwt>
<pdfrwt beam="2">  1       -1 0.37303427E-02 0.90892727E+02</pdfrwt>
<totfact> 0.16159957E+04</totfact>
</mgrwt>
</event>
<event>
 8    1  0.2964543E-004  0.1073604E+03  0.7546771E-02  0.1266916E+00
         -1   -1    0    0    0  501 -0.00000000000E+00  0.00000000000E+00  0.25413512083E+02  0.25413512083E+02  0.00000000000E+00 0.  1.
          1   -1    0    0  501    0  0.00000000000E+00 -0.00000000000E+00 -0.53000995946E+03  0.53000995946E+03  0.00000000000E+00 0. -1.
         23    2    1    2    0    0  0.51183108971E+02  0.89904523576E+01 -0.36851801916E+03  0.38383822213E+03  0.93945257700E+02 0.  0.
         23    2    1    2    0    0 -0.51183108971E+02 -0.89904523576E+01 -0.13607842822E+03  0.17158524942E+03  0.90684178955E+02 0.  0.
          5    1    4    4  502    0  0.89739918217E+01  0.30627355274E+02 -0.45079503951E+02  0.55433014502E+02  0.47000000000E+01 0. -1.
         -5    1    3    3    0  503  0.38315900501E+02 -0.39180801978E+02 -0.15325885137E+03  0.16283000030E+03  0.47000000000E+01 0.  1.
          5    1    3    3  503    0  0.12867208470E+02  0.48171254335E+02 -0.21525916779E+03  0.22100822183E+03  0.47000000000E+01 0. -1.
         -5    1    4    4    0  502 -0.60157100793E+02 -0.39617807632E+02 -0.90998924268E+02  0.11615223491E+03  0.47000000000E+01 0.  1.
<mgrwt>
<rscale>  0 0.10664280E+03</rscale>
<asrwt>0</asrwt>
<pdfrwt beam="1">  1        1 0.81539992E-01 0.10736038E+03</pdfrwt>
<pdfrwt beam="2">  1       -1 0.39097712E-02 0.10736038E+03</pdfrwt>
<totfact> 0.99507115E+03</totfact>
</mgrwt>
</event>
<event>
 8    1  0.2964543E-004  0.9701955E+02  0.7546771E-02  0.1291219E+00
         -2   -1    0    0    0  501 -0.00000000000E+00  0.00000000000E+00  0.39328891575E+02  0.39328891575E+02  0.00000000000E+00 0.  1.
          2   -1    0    0  501    0  0.00000000000E+00 -0.00000000000E+00 -0.28859190911E+03  0.28859190911E+03  0.00000000000E+00 0. -1.
         23    2    1    2    0    0 -0.68495357292E+01 -0.31466560142E+02 -0.20033339262E+03  0.21926123248E+03  0.83096084867E+02 0.  0.
         23    2    1    2    0    0  0.68495357292E+01  0.31466560142E+02 -0.48929624913E+02  0.10865956821E+03  0.91519030931E+02 0.  0.
          5    1    3    3  502    0  0.31013975582E+02 -0.20487190349E+00 -0.12746312483E+03  0.13126632031E+03  0.47000000000E+01 0. -1.
         -5    1    3    3    0  502 -0.37863511312E+02 -0.31261688238E+02 -0.72870267789E+02  0.87994912171E+02  0.47000000000E+01 0.  1.
          5    1    4    4  503    0  0.35392596527E+02  0.32415584192E+01  0.99849313484E+01  0.37214680489E+02  0.47000000000E+01 0. -1.
         -5    1    4    4    0  503 -0.28543060797E+02  0.28225001723E+02 -0.58914556261E+02  0.71444887720E+02  0.47000000000E+01 0.  1.
<mgrwt>
<rscale>  0 0.94980800E+02</rscale>
<asrwt>0</asrwt>
<pdfrwt beam="1">  1        2 0.44398754E-01 0.97019553E+02</pdfrwt>
<pdfrwt beam="2">  1       -2 0.60505989E-02 0.97019553E+02</pdfrwt>
<totfact> 0.15163064E+04</totfact>
</mgrwt>
</event>
<event>
 8    1  0.2964543E-004  0.1015420E+03  0.7546771E-02  0.1278474E+00
          1   -1    0    0  501    0  0.00000000000E+00  0.00000000000E+00  0.35387546403E+03  0.35387546403E+03  0.00000000000E+00 0. -1.
         -1   -1    0    0    0  501 -0.00000000000E+00 -0.00000000000E+00 -0.29090796500E+02  0.29090796500E+02  0.00000000000E+00 0.  1.
         23    2    1    2    0    0 -0.40009971170E+02 -0.92955467301E+01  0.13455419662E+03  0.16856927840E+03  0.92863150984E+02 0.  0.
         23    2    1    2    0    0  0.40009971170E+02  0.92955467301E+01  0.19023047090E+03  0.21439698212E+03  0.89951258475E+02 0.  0.
          5    1    3    3  502    0 -0.26184838828E+02  0.36849347808E+02  0.33302630899E+02  0.56344258298E+02  0.47000000000E+01 0. -1.
         -5    1    3    3    0  502 -0.13825132342E+02 -0.46144894538E+02  0.10125156572E+03  0.11222502011E+03  0.47000000000E+01 0.  1.
          5    1    4    4  503    0  0.22643989078E+02 -0.23181505541E+01  0.19153836248E+03  0.19294340715E+03  0.47000000000E+01 0. -1.
         -5    1    4    4    0  503  0.17365982092E+02  0.11613697284E+02 -0.13078915739E+01  0.21453574970E+02  0.47000000000E+01 0.  1.
<mgrwt>
<rscale>  0 0.10087135E+03</rscale>
<asrwt>0</asrwt>
<pdfrwt beam="1">  1        1 0.54442376E-01 0.10154196E+03</pdfrwt>
<pdfrwt beam="2">  1       -1 0.44755074E-02 0.10154196E+03</pdfrwt>
<totfact> 0.13552646E+04</totfact>
</mgrwt>
</event>
<event>
 8    1  0.2964543E-004  0.1174788E+03  0.7546771E-02  0.1260485E+00
         -1   -1    0    0    0  501 -0.00000000000E+00  0.00000000000E+00  0.47403912451E+02  0.47403912451E+02  0.00000000000E+00 0.  1.
          1   -1    0    0  501    0  0.00000000000E+00 -0.00000000000E+00 -0.42502098368E+03  0.42502098368E+03  0.00000000000E+00 0. -1.
         23    2    1    2    0    0 -0.46430540707E+01  0.54438978604E+00 -0.15552771191E+02  0.91778298135E+02  0.90330022725E+02 0.  0.
         23    2    1    2    0    0  0.46430540707E+01 -0.54438978604E+00 -0.36206430003E+03  0.38064659799E+03  0.11738577807E+03 0.  0.
          5    1    4    4  502    0  0.57978708647E+02  0.10402135050E+02 -0.23524882994E+03  0.24255687386E+03  0.47000000000E+01 0. -1.
         -5    1    4    4    0  502 -0.53335654576E+02 -0.10946524836E+02 -0.12681547010E+03  0.13808972413E+03  0.47000000000E+01 0.  1.
          5    1    3    3  503    0  0.29359494120E+01  0.43550749737E+02 -0.18755504055E+02  0.47740407769E+02  0.47000000000E+01 0. -1.
         -5    1    3    3    0  503 -0.75790034827E+01 -0.43006359951E+02  0.32027328640E+01  0.44037890365E+02  0.47000000000E+01 0.  1.
<mgrwt>
<rscale>  0 0.11004567E+03</rscale>
<asrwt>0</asrwt>
<pdfrwt beam="1">  1        1 0.65387842E-01 0.11747883E+03</pdfrwt>
<pdfrwt beam="2">  1       -1 0.72929098E-02 0.11747883E+03</pdfrwt>
<totfact> 0.52956237E+03</totfact>
</mgrwt>
</event>
<event>
 8    1  0.2964543E-004  0.1069500E+03  0.7546771E-02  0.1267999E+00
          3   -1    0    0  501    0  0.00000000000E+00  0.00000000000E+00  0.15012192788E+03  0.15012192788E+03  0.00000000000E+00 0. -1.
         -3   -1    0    0    0  501 -0.00000000000E+00 -0.00000000000E+00 -0.11525866805E+03  0.11525866805E+03  0.00000000000E+00 0.  1.
         23    2    1    2    0    0 -0.15751397352E+01 -0.50815522201E+02 -0.62348664174E+02  0.12085218847E+03  0.90184240159E+02 0.  0.
         23    2    1    2    0    0  0.15751397352E+01  0.50815522201E+02  0.97211924005E+02  0.14452840745E+03  0.94093591858E+02 0.  0.
          5    1    4    4  502    0  0.22209497586E+02 -0.73537903067E+01 -0.56090066132E+01  0.24513077532E+02  0.47000000000E+01 0.  1.
         -5    1    4    4    0  502 -0.20634357851E+02  0.58169312508E+02  0.10282093062E+03  0.12001532992E+03  0.47000000000E+01 0. -1.
          5    1    3    3  503    0  0.11268151254E+02  0.17815251593E+02 -0.43202560663E+02  0.48300162213E+02  0.47000000000E+01 0. -1.
         -5    1    3    3    0  503 -0.12843290989E+02 -0.68630773794E+02 -0.19146103511E+02  0.72552026262E+02  0.47000000000E+01 0.  1.
<mgrwt>
<rscale>  0 0.10608385E+03</rscale>
<asrwt>0</asrwt>
<pdfrwt beam="1">  1        3 0.23095681E-01 0.10695000E+03</pdfrwt>
<pdfrwt beam="2">  1       -3 0.17732103E-01 0.10695000E+03</pdfrwt>
<totfact> 0.10656099E+03</totfact>
</mgrwt>
</event>
<event>
 8    1  0.2964543E-004  0.9813950E+02  0.7546771E-02  0.1287396E+00
         -2   -1    0    0    0  501 -0.00000000000E+00  0.00000000000E+00  0.10913691978E+02  0.10913691978E+02  0.00000000000E+00 0.  1.
          2   -1    0    0  501    0  0.00000000000E+00 -0.00000000000E+00 -0.92114485244E+03  0.92114485244E+03  0.00000000000E+00 0. -1.
         23    2    1    2    0    0 -0.33795300457E+00  0.52146420235E+01 -0.58743642664E+03  0.59467478497E+03  0.92353872865E+02 0.  0.
         23    2    1    2    0    0  0.33795300457E+00 -0.52146420235E+01 -0.32279473383E+03  0.33738375945E+03  0.98000276795E+02 0.  0.
          5    1    3    3  502    0  0.27039112074E+02 -0.30657886998E+02 -0.38627749751E+03  0.38846288716E+03  0.47000000000E+01 0. -1.
         -5    1    3    3    0  502 -0.27377065079E+02  0.35872529022E+02 -0.20115892913E+03  0.20621189781E+03  0.47000000000E+01 0.  1.
          5    1    4    4  503    0 -0.10724122337E+02 -0.30410225615E+02 -0.29880424519E+03  0.30057587323E+03  0.47000000000E+01 0. -1.
         -5    1    4    4    0  503  0.11062075341E+02  0.25195583591E+02 -0.23990488635E+02  0.36807886225E+02  0.47000000000E+01 0.  1.
<mgrwt>
<rscale>  0 0.96698597E+02</rscale>
<asrwt>0</asrwt>
<pdfrwt beam="1">  1        2 0.14171461E+00 0.98139497E+02</pdfrwt>
<pdfrwt beam="2">  1       -2 0.16790294E-02 0.98139497E+02</pdfrwt>
<totfact> 0.27086702E+04</totfact>
</mgrwt>
</event>
<event>
 8    1  0.2964543E-004  0.9521695E+02  0.7546771E-02  0.1292246E+00
         -1   -1    0    0    0  501 -0.00000000000E+00  0.00000000000E+00  0.16390472820E+02  0.16390472820E+02  0.00000000000E+00 0.  1.
          1   -1    0    0  501    0  0.00000000000E+00 -0.00000000000E+00 -0.53817884558E+03  0.53817884558E+03  0.00000000000E+00 0. -1.
         23    2    1    2    0    0 -0.88635905727E+01 -0.27292992587E+02 -0.27532130518E+03  0.29132128056E+03  0.90789849297E+02 0.  0.
         23    2    1    2    0    0  0.88635905727E+01  0.27292992587E+02 -0.24646706758E+03  0.26324803784E+03  0.87920665070E+02 0.  0.
          5    1    4    4  502    0  0.31071786131E+02  0.42169925554E+02 -0.21659190806E+03  0.22288540363E+03  0.47000000000E+01 0. -1.
         -5    1    4    4    0  502 -0.22208195558E+02 -0.14876932967E+02 -0.29875159519E+02  0.40362634215E+02  0.47000000000E+01 0.  1.
          5    1    3    3  503    0  0.17779521366E+02 -0.46782594762E+02 -0.22772912396E+03  0.23321099127E+03  0.47000000000E+01 0. -1.
         -5    1    3    3    0  503 -0.26643111938E+02  0.19489602176E+02 -0.47592181226E+02  0.58110289283E+02  0.47000000000E+01 0.  1.
<mgrwt>
<rscale>  0 0.94526541E+02</rscale>
<asrwt>0</asrwt>
<pdfrwt beam="1">  1        1 0.82796744E-01 0.95216949E+02</pdfrwt>
<pdfrwt beam="2">  1       -1 0.25216112E-02 0.95216949E+02</pdfrwt>
<totfact> 0.18206932E+04</totfact>
</mgrwt>
</event>
<event>
 8    1  0.2964543E-004  0.9871208E+02  0.7546771E-02  0.1284094E+00
          1   -1    0    0  501    0  0.00000000000E+00  0.00000000000E+00  0.11133176741E+03  0.11133176741E+03  0.00000000000E+00 0. -1.
         -1   -1    0    0    0  501 -0.00000000000E+00 -0.00000000000E+00 -0.89124278853E+02  0.89124278853E+02  0.00000000000E+00 0.  1.
         23    2    1    2    0    0 -0.35759699374E+02 -0.49313868574E+01 -0.81943942608E+01  0.99051614349E+02  0.91874912420E+02 0.  0.
         23    2    1    2    0    0  0.35759699374E+02  0.49313868574E+01  0.30401882821E+02  0.10140443192E+03  0.89752491096E+02 0.  0.
          5    1    3    3  502    0  0.62365580426E+01 -0.39096229845E+02  0.11102363146E+02  0.41385532639E+02  0.47000000000E+01 0. -1.
         -5    1    3    3    0  502 -0.41996257417E+02  0.34164842988E+02 -0.19296757407E+02  0.57666081710E+02  0.47000000000E+01 0.  1.
          5    1    4    4  503    0  0.14937803019E+02  0.24810909655E+02  0.55595000318E+02  0.62861858526E+02  0.47000000000E+01 0. -1.
         -5    1    4    4    0  503  0.20821896355E+02 -0.19879522798E+02 -0.25193117497E+02  0.38542573392E+02  0.47000000000E+01 0.  1.
<mgrwt>
<rscale>  0 0.98215264E+02</rscale>
<asrwt>0</asrwt>
<pdfrwt beam="1">  1        1 0.17127964E-01 0.98712077E+02</pdfrwt>
<pdfrwt beam="2">  1       -1 0.13711427E-01 0.98712077E+02</pdfrwt>
<totfact> 0.10586069E+04</totfact>
</mgrwt>
</event>
<event>
 8    1  0.4565522E-004  0.1012608E+03  0.7546771E-02  0.1278595E+00
         -1   -1    0    0    0  501 -0.00000000000E+00  0.00000000000E+00  0.15907821805E+03  0.15907821805E+03  0.00000000000E+00 0.  1.
          1   -1    0    0  501    0  0.00000000000E+00 -0.00000000000E+00 -0.53730061478E+03  0.53730061478E+03  0.00000000000E+00 0. -1.
         23    2    1    2    0    0  0.43162606713E+02 -0.12106185988E+02 -0.51633313541E+03  0.52616884631E+03  0.90797454506E+02 0.  0.
         23    2    1    2    0    0 -0.43162606713E+02  0.12106185988E+02  0.13811073868E+03  0.17020998652E+03  0.88810433037E+02 0.  0.
          5    1    3    3  502    0  0.62411759849E+02  0.15069850074E+02 -0.39703958163E+03  0.40222487184E+03  0.47000000000E+01 0. -1.
         -5    1    4    4    0  503 -0.19561391544E+02  0.21671728209E+02 -0.12400779667E+00  0.29570546505E+02  0.47000000000E+01 0. -1.
          5    1    4    4  503    0 -0.23601215169E+02 -0.95655422213E+01  0.13823474647E+03  0.14063944001E+03  0.47000000000E+01 0.  1.
         -5    1    3    3    0  502 -0.19249153136E+02 -0.27176036062E+02 -0.11929355378E+03  0.12394397447E+03  0.47000000000E+01 0.  1.
<mgrwt>
<rscale>  0 0.10081338E+03</rscale>
<asrwt>0</asrwt>
<pdfrwt beam="1">  1        1 0.82661633E-01 0.10126079E+03</pdfrwt>
<pdfrwt beam="2">  1       -1 0.24473572E-01 0.10126079E+03</pdfrwt>
<totfact> 0.59712252E+02</totfact>
</mgrwt>
</event>
<event>
 8    1  0.2964543E-004  0.9625926E+02  0.7546771E-02  0.1289192E+00
         -2   -1    0    0    0  501 -0.00000000000E+00  0.00000000000E+00  0.21171119739E+03  0.21171119739E+03  0.00000000000E+00 0.  1.
          2   -1    0    0  501    0  0.00000000000E+00 -0.00000000000E+00 -0.18425360306E+03  0.18425360306E+03  0.00000000000E+00 0. -1.
         23    2    1    2    0    0  0.27474600496E+02  0.14937125432E+02  0.18699242405E+03  0.20963925880E+03  0.89467763970E+02 0.  0.
         23    2    1    2    0    0 -0.27474600496E+02 -0.14937125432E+02 -0.15953482971E+03  0.18632554165E+03  0.91037762460E+02 0.  0.
          5    1    4    4  502    0  0.20572455519E+02  0.18943287703E+02 -0.19607220296E+02  0.34476182544E+02  0.47000000000E+01 0.  1.
         -5    1    3    3    0  503  0.34835328993E+02 -0.30499745316E+02  0.11501100743E+03  0.12406996591E+03  0.47000000000E+01 0.  1.
          5    1    3    3  503    0 -0.73607284975E+01  0.45436870748E+02  0.71981416613E+02  0.85569292886E+02  0.47000000000E+01 0. -1.
         -5    1    4    4    0  502 -0.48047056015E+02 -0.33880413135E+02 -0.13992760941E+03  0.15184935911E+03  0.47000000000E+01 0. -1.
<mgrwt>
<rscale>  0 0.95886234E+02</rscale>
<asrwt>0</asrwt>
<pdfrwt beam="1">  1        2 0.28346708E-01 0.96259262E+02</pdfrwt>
<pdfrwt beam="2">  1       -2 0.32570953E-01 0.96259262E+02</pdfrwt>
<totfact> 0.15826114E+03</totfact>
</mgrwt>
</event>
<event>
 8    1  0.2964543E-004  0.1085541E+03  0.7546771E-02  0.1267491E+00
          4   -1    0    0  501    0  0.00000000000E+00  0.00000000000E+00  0.37017547255E+02  0.37017547255E+02  0.00000000000E+00 0. -1.
         -4   -1    0    0    0  501 -0.00000000000E+00 -0.00000000000E+00 -0.29481948381E+03  0.29481948381E+03  0.00000000000E+00 0.  1.
         23    2    1    2    0    0  0.71896635549E+01  0.41889811642E+02 -0.14437884747E+03  0.18063569452E+03  0.99887711731E+02 0.  0.
         23    2    1    2    0    0 -0.71896635549E+01 -0.41889811642E+02 -0.11342308908E+03  0.15120133655E+03  0.90501930674E+02 0.  0.
          5    1    3    3  502    0  0.20833075428E+02 -0.52854382572E+01  0.56410035091E+01  0.22712635469E+02  0.47000000000E+01 0. -1.
         -5    1    3    3    0  502 -0.13643411874E+02  0.47175249899E+02 -0.15001985098E+03  0.15792305905E+03  0.47000000000E+01 0.  1.
          5    1    4    4  503    0  0.27939997634E+02  0.12691297916E+02 -0.18589347900E+02  0.36185167761E+02  0.47000000000E+01 0. -1.
         -5    1    4    4    0  503 -0.35129661189E+02 -0.54581109557E+02 -0.94833741185E+02  0.11501616879E+03  0.47000000000E+01 0.  1.
<mgrwt>
<rscale>  0 0.10634542E+03</rscale>
<asrwt>0</asrwt>
<pdfrwt beam="1">  1        4 0.56950073E-02 0.10855415E+03</pdfrwt>
<pdfrwt beam="2">  1       -4 0.45356843E-01 0.10855415E+03</pdfrwt>
<totfact> 0.14321836E+03</totfact>
</mgrwt>
</event>
<event>
 8    1  0.2964543E-004  0.1107660E+03  0.7546771E-02  0.1259597E+00
          1   -1    0    0  501    0  0.00000000000E+00  0.00000000000E+00  0.12751740622E+03  0.12751740622E+03  0.00000000000E+00 0. -1.
         -1   -1    0    0    0  501 -0.00000000000E+00 -0.00000000000E+00 -0.11982634979E+03  0.11982634979E+03  0.00000000000E+00 0.  1.
         23    2    1    2    0    0 -0.25513106302E+02 -0.55486357923E+02  0.59707706857E+02  0.12583371479E+03  0.92409193329E+02 0.  0.
         23    2    1    2    0    0  0.25513106302E+02  0.55486357923E+02 -0.52016650435E+02  0.12151004122E+03  0.91265018959E+02 0.  0.
          5    1    4    4  502    0 -0.31404304014E+02  0.36855018926E+02 -0.14828553832E+02  0.50857632067E+02  0.47000000000E+01 0. -1.
         -5    1    3    3    0  503  0.18258695530E+02 -0.63233781299E+02  0.33219611529E+02  0.73875054315E+02  0.47000000000E+01 0.  1.
          5    1    3    3  503    0 -0.43771801832E+02  0.77474233764E+01  0.26488095328E+02  0.51958660479E+02  0.47000000000E+01 0. -1.
         -5    1    4    4    0  502  0.56917410317E+02  0.18631338997E+02 -0.37188096603E+02  0.70652409152E+02  0.47000000000E+01 0.  1.
<mgrwt>
<rscale>  0 0.11052707E+03</rscale>
<asrwt>0</asrwt>
<pdfrwt beam="1">  1        1 0.19618062E-01 0.11076603E+03</pdfrwt>
<pdfrwt beam="2">  1       -1 0.18434823E-01 0.11076603E+03</pdfrwt>
<totfact> 0.56635307E+03</totfact>
</mgrwt>
</event>
<event>
 8    1  0.2964543E-004  0.1190724E+03  0.7546771E-02  0.1244762E+00
          1   -1    0    0  501    0  0.00000000000E+00  0.00000000000E+00  0.24359658972E+03  0.24359658972E+03  0.00000000000E+00 0. -1.
         -1   -1    0    0    0  501 -0.00000000000E+00 -0.00000000000E+00 -0.20340366510E+03  0.20340366510E+03  0.00000000000E+00 0.  1.
         23    2    1    2    0    0  0.40682226580E+02  0.62836530342E+02  0.20902045235E+03  0.24040651900E+03  0.92207764164E+02 0.  0.
         23    2    1    2    0    0 -0.40682226580E+02 -0.62836530342E+02 -0.16882752772E+03  0.20659373582E+03  0.92600024071E+02 0.  0.
          5    1    4    4  502    0 -0.52458379143E+02 -0.36885092787E+02 -0.42665109741E+02  0.77167306558E+02  0.47000000000E+01 0. -1.
         -5    1    4    4    0  502  0.11776152563E+02 -0.25951437554E+02 -0.12616241798E+03  0.12942642926E+03  0.47000000000E+01 0.  1.
          5    1    3    3  503    0  0.52898762442E+02  0.20028631156E+01  0.68289237307E+02  0.86532077639E+02  0.47000000000E+01 0. -1.
         -5    1    3    3    0  503 -0.12216535862E+02  0.60833667226E+02  0.14073121504E+03  0.15387444136E+03  0.47000000000E+01 0.  1.
<mgrwt>
<rscale>  0 0.11899613E+03</rscale>
<asrwt>0</asrwt>
<pdfrwt beam="1">  1        1 0.37476398E-01 0.11907240E+03</pdfrwt>
<pdfrwt beam="2">  1       -1 0.31292872E-01 0.11907240E+03</pdfrwt>
<totfact> 0.10712171E+03</totfact>
</mgrwt>
</event>
<event>
 8    1  0.2964543E-004  0.1152131E+03  0.7546771E-02  0.1251649E+00
          2   -1    0    0  501    0  0.00000000000E+00  0.00000000000E+00  0.14690988569E+04  0.14690988569E+04  0.00000000000E+00 0. -1.
         -2   -1    0    0    0  501 -0.00000000000E+00 -0.00000000000E+00 -0.91071815338E+01  0.91071815338E+01  0.00000000000E+00 0.  1.
         23    2    1    2    0    0 -0.44517514682E+02 -0.25251033404E+02  0.82806132245E+03  0.83603804160E+03  0.10322126458E+03 0.  0.
         23    2    1    2    0    0  0.44517514682E+02  0.25251033404E+02  0.63193035287E+03  0.64216799679E+03  0.10209966415E+03 0.  0.
          5    1    3    3  502    0  0.33102426811E+02 -0.10393962205E+02  0.30832518366E+03  0.31030680623E+03  0.47000000000E+01 0. -1.
         -5    1    4    4    0  503 -0.52569338017E+01 -0.35065657247E+02  0.21063369348E+03  0.21364896092E+03  0.47000000000E+01 0.  1.
          5    1    4    4  503    0  0.49774448484E+02  0.60316690651E+02  0.42129665939E+03  0.42851903588E+03  0.47000000000E+01 0. -1.
         -5    1    3    3    0  502 -0.77619941494E+02 -0.14857071199E+02  0.51973613879E+03  0.52573123537E+03  0.47000000000E+01 0.  1.
<mgrwt>
<rscale>  0 0.11496131E+03</rscale>
<asrwt>0</asrwt>
<pdfrwt beam="1">  1        2 0.22601502E+00 0.11521308E+03</pdfrwt>
<pdfrwt beam="2">  1       -2 0.14011060E-02 0.11521308E+03</pdfrwt>
<totfact> 0.17671306E+04</totfact>
</mgrwt>
</event>
<event>
 8    1  0.2964543E-004  0.1014841E+03  0.7546771E-02  0.1277668E+00
         -2   -1    0    0    0  501 -0.00000000000E+00  0.00000000000E+00  0.15085680944E+03  0.15085680944E+03  0.00000000000E+00 0.  1.
          2   -1    0    0  501    0  0.00000000000E+00 -0.00000000000E+00 -0.73684491183E+02  0.73684491183E+02  0.00000000000E+00 0. -1.
         23    2    1    2    0    0  0.34529359230E+02  0.26436652494E+02  0.63585327035E+01  0.10079308128E+03  0.90706345160E+02 0.  0.
         23    2    1    2    0    0 -0.34529359230E+02 -0.26436652494E+02  0.70813785554E+02  0.12374821934E+03  0.91694363631E+02 0.  0.
          5    1    3    3  502    0  0.57076715376E+02  0.14906149579E+02 -0.21397113689E+02  0.62927507559E+02  0.47000000000E+01 0. -1.
         -5    1    4    4    0  503 -0.23532894276E+02  0.13868498553E+02  0.76460222459E+02  0.81328887756E+02  0.47000000000E+01 0.  1.
          5    1    4    4  503    0 -0.10996464953E+02 -0.40305151047E+02 -0.56464369049E+01  0.42419331585E+02  0.47000000000E+01 0. -1.
         -5    1    3    3    0  502 -0.22547356147E+02  0.11530502916E+02  0.27755646393E+02  0.37865573723E+02  0.47000000000E+01 0.  1.
<mgrwt>
<rscale>  0 0.10126044E+03</rscale>
<asrwt>0</asrwt>
<pdfrwt beam="1">  1        2 0.11336076E-01 0.10148413E+03</pdfrwt>
<pdfrwt beam="2">  1       -2 0.23208740E-01 0.10148413E+03</pdfrwt>
<totfact> 0.81688222E+03</totfact>
</mgrwt>
</event>
<event>
 8    1  0.2964543E-004  0.9887737E+02  0.7546771E-02  0.1282962E+00
         -2   -1    0    0    0  501 -0.00000000000E+00  0.00000000000E+00  0.81961946428E+02  0.81961946428E+02  0.00000000000E+00 0.  1.
          2   -1    0    0  501    0  0.00000000000E+00 -0.00000000000E+00 -0.27858101063E+03  0.27858101063E+03  0.00000000000E+00 0. -1.
         23    2    1    2    0    0 -0.46755842750E+01  0.41514347233E+02  0.38400026964E+02  0.10557098254E+03  0.89024536890E+02 0.  0.
         23    2    1    2    0    0  0.46755842750E+01 -0.41514347233E+02 -0.23501909117E+03  0.25497197452E+03  0.89618259658E+02 0.  0.
          5    1    4    4  502    0 -0.31032794488E+02 -0.23367859706E+02 -0.19223091809E+03  0.19617315584E+03  0.47000000000E+01 0. -1.
         -5    1    4    4    0  502  0.35708378763E+02 -0.18146487526E+02 -0.42788173074E+02  0.58798818682E+02  0.47000000000E+01 0.  1.
          5    1    3    3  503    0  0.13728405323E+02 -0.18838565326E+02 -0.10114191081E+02  0.25840811084E+02  0.47000000000E+01 0. -1.
         -5    1    3    3    0  503 -0.18403989598E+02  0.60352912559E+02  0.48514218045E+02  0.79730171453E+02  0.47000000000E+01 0.  1.
<mgrwt>
<rscale>  0 0.98742645E+02</rscale>
<asrwt>0</asrwt>
<pdfrwt beam="1">  1        2 0.42858616E-01 0.98877371E+02</pdfrwt>
<pdfrwt beam="2">  1       -2 0.12609531E-01 0.98877371E+02</pdfrwt>
<totfact> 0.50733301E+03</totfact>
</mgrwt>
</event>
<event>
 8    1  0.2964543E-004  0.1281631E+03  0.7546771E-02  0.1231491E+00
          2   -1    0    0  501    0  0.00000000000E+00  0.00000000000E+00  0.88592755752E+03  0.88592755752E+03  0.00000000000E+00 0. -1.
         -2   -1    0    0    0  501 -0.00000000000E+00 -0.00000000000E+00 -0.19820676359E+02  0.19820676359E+02  0.00000000000E+00 0.  1.
         23    2    1    2    0    0 -0.74700130762E+02  0.35427747830E+02  0.57325846586E+03  0.58741046605E+03  0.97931364180E+02 0.  0.
         23    2    1    2    0    0  0.74700130762E+02 -0.35427747830E+02  0.29284841530E+03  0.31833776783E+03  0.93506712229E+02 0.  0.
          5    1    4    4  502    0  0.23576866990E+02  0.15366585085E+02  0.19306071747E+03  0.19515770860E+03  0.47000000000E+01 0. -1.
         -5    1    3    3    0  503  0.96590422364E+01  0.39358770208E+02  0.24805362213E+03  0.25138635473E+03  0.47000000000E+01 0.  1.
          5    1    3    3  503    0 -0.84359172999E+02 -0.39310223782E+01  0.32520484373E+03  0.33602411132E+03  0.47000000000E+01 0. -1.
         -5    1    4    4    0  502  0.51123263772E+02 -0.50794332915E+02  0.99787697828E+02  0.12318005923E+03  0.47000000000E+01 0.  1.
<mgrwt>
<rscale>  0 0.12731772E+03</rscale>
<asrwt>0</asrwt>
<pdfrwt beam="1">  1        2 0.13629652E+00 0.12816313E+03</pdfrwt>
<pdfrwt beam="2">  1       -2 0.30493355E-02 0.12816313E+03</pdfrwt>
<totfact> 0.12249409E+04</totfact>
</mgrwt>
</event>
<event>
 8    1  0.2964543E-004  0.1303520E+03  0.7546771E-02  0.1239583E+00
          2   -1    0    0  501    0  0.00000000000E+00  0.00000000000E+00  0.25806306239E+03  0.25806306239E+03  0.00000000000E+00 0. -1.
         -2   -1    0    0    0  501 -0.00000000000E+00 -0.00000000000E+00 -0.51706284614E+02  0.51706284614E+02  0.00000000000E+00 0.  1.
         23    2    1    2    0    0  0.23219627353E+02  0.48011831749E+02  0.95334265715E+02  0.13854537000E+03  0.85216842513E+02 0.  0.
         23    2    1    2    0    0 -0.23219627353E+02 -0.48011831749E+02  0.11102251206E+03  0.17122397700E+03  0.11894269642E+03 0.  0.
          5    1    3    3  502    0  0.33348164953E+02 -0.31214334419E+01  0.75221810915E+02  0.82475780020E+02  0.47000000000E+01 0. -1.
         -5    1    4    4    0  503 -0.33354835989E+02 -0.75222140086E+01 -0.15556589396E+02  0.37857974868E+02  0.47000000000E+01 0.  1.
          5    1    4    4  503    0  0.10135208636E+02 -0.40489617741E+02  0.12657910146E+03  0.13336600213E+03  0.47000000000E+01 0. -1.
         -5    1    3    3    0  502 -0.10128537600E+02  0.51133265191E+02  0.20112454800E+02  0.56069589985E+02  0.47000000000E+01 0.  1.
<mgrwt>
<rscale>  0 0.12215516E+03</rscale>
<asrwt>0</asrwt>
<pdfrwt beam="1">  1        2 0.39702009E-01 0.13035203E+03</pdfrwt>
<pdfrwt beam="2">  1       -2 0.79548131E-02 0.13035203E+03</pdfrwt>
<totfact> 0.11543735E+04</totfact>
</mgrwt>
</event>
<event>
 8    1  0.2964543E-004  0.1194710E+03  0.7546771E-02  0.1244263E+00
          1   -1    0    0  501    0  0.00000000000E+00  0.00000000000E+00  0.10384378253E+04  0.10384378253E+04  0.00000000000E+00 0. -1.
         -1   -1    0    0    0  501 -0.00000000000E+00 -0.00000000000E+00 -0.13697029478E+02  0.13697029478E+02  0.00000000000E+00 0.  1.
         23    2    1    2    0    0  0.45497686736E+02  0.60134491943E+02  0.48832838292E+03  0.50273047893E+03  0.92666759214E+02 0.  0.
         23    2    1    2    0    0 -0.45497686736E+02 -0.60134491943E+02  0.53641241292E+03  0.54940437587E+03  0.91764344180E+02 0.  0.
          5    1    3    3  502    0  0.34768344316E+02 -0.18620393819E+02  0.17376345795E+03  0.17824529769E+03  0.47000000000E+01 0. -1.
         -5    1    3    3    0  502  0.10729342419E+02  0.78754885762E+02  0.31456492497E+03  0.32448518124E+03  0.47000000000E+01 0.  1.
          5    1    4    4  503    0 -0.45636950325E+02 -0.33884727409E+02  0.50494902780E+03  0.50815993217E+03  0.47000000000E+01 0. -1.
         -5    1    4    4    0  503  0.13926358909E+00 -0.26249764535E+02  0.31463385127E+02  0.41244443700E+02  0.47000000000E+01 0.  1.
<mgrwt>
<rscale>  0 0.11929599E+03</rscale>
<asrwt>0</asrwt>
<pdfrwt beam="1">  1        1 0.15975960E+00 0.11947102E+03</pdfrwt>
<pdfrwt beam="2">  1       -1 0.21072361E-02 0.11947102E+03</pdfrwt>
<totfact> 0.91232832E+03</totfact>
</mgrwt>
</event>
<event>
 8    1  0.2964543E-004  0.1100579E+03  0.7546771E-02  0.1262757E+00
         -4   -1    0    0    0  501 -0.00000000000E+00  0.00000000000E+00  0.20698593927E+03  0.20698593927E+03  0.00000000000E+00 0.  1.
          4   -1    0    0  501    0  0.00000000000E+00 -0.00000000000E+00 -0.83166191355E+02  0.83166191355E+02  0.00000000000E+00 0. -1.
         23    2    1    2    0    0 -0.51507582812E+02 -0.31543561293E+01 -0.20094586463E+02  0.11187731847E+03  0.97209880840E+02 0.  0.
         23    2    1    2    0    0  0.51507582812E+02  0.31543561293E+01  0.14391433438E+03  0.17827481216E+03  0.91692922085E+02 0.  0.
          5    1    4    4  502    0  0.62410830003E+02 -0.26736629573E+02  0.69831232116E+02  0.97511281611E+02  0.47000000000E+01 0. -1.
         -5    1    4    4    0  502 -0.10903247191E+02  0.29890985702E+02  0.74083102263E+02  0.80763530547E+02  0.47000000000E+01 0.  1.
          5    1    3    3  503    0 -0.76069495240E+02 -0.21328345257E+02 -0.14202542226E+02  0.80406894127E+02  0.47000000000E+01 0. -1.
         -5    1    3    3    0  503  0.24561912428E+02  0.18173989128E+02 -0.58920442365E+01  0.31470424341E+02  0.47000000000E+01 0.  1.
<mgrwt>
<rscale>  0 0.10882713E+03</rscale>
<asrwt>0</asrwt>
<pdfrwt beam="1">  1        4 0.12794799E-01 0.11005790E+03</pdfrwt>
<pdfrwt beam="2">  1       -4 0.31843991E-01 0.11005790E+03</pdfrwt>
<totfact> 0.74655277E+02</totfact>
</mgrwt>
</event>
<event>
 8    1  0.2964543E-004  0.1380134E+03  0.7546771E-02  0.1216494E+00
          1   -1    0    0  501    0  0.00000000000E+00  0.00000000000E+00  0.24790675660E+03  0.24790675660E+03  0.00000000000E+00 0. -1.
         -1   -1    0    0    0  501 -0.00000000000E+00 -0.00000000000E+00 -0.77038248308E+02  0.77038248308E+02  0.00000000000E+00 0.  1.
         23    2    1    2    0    0  0.52565415902E+02 -0.89708528495E+02  0.67752887217E+02  0.15374702240E+03  0.90757645056E+02 0.  0.
         23    2    1    2    0    0 -0.52565415902E+02  0.89708528495E+02  0.10311562108E+03  0.17119798251E+03  0.88685821148E+02 0.  0.
          5    1    3    3  502    0 -0.17232656152E+02 -0.11867370457E+02  0.40138507122E+02  0.45508116569E+02  0.47000000000E+01 0. -1.
         -5    1    3    3    0  502  0.69798072053E+02 -0.77841158037E+02  0.27614380094E+02  0.10823890583E+03  0.47000000000E+01 0.  1.
          5    1    4    4  503    0 -0.75168033563E+02  0.49819457845E+02  0.73300226772E+02  0.11630659867E+03  0.47000000000E+01 0. -1.
         -5    1    4    4    0  503  0.22602617661E+02  0.39889070650E+02  0.29815394307E+02  0.54891383842E+02  0.47000000000E+01 0.  1.
<mgrwt>
<rscale>  0 0.13767375E+03</rscale>
<asrwt>0</asrwt>
<pdfrwt beam="1">  1        1 0.38139501E-01 0.13801338E+03</pdfrwt>
<pdfrwt beam="2">  1       -1 0.11852038E-01 0.13801338E+03</pdfrwt>
<totfact> 0.49981506E+03</totfact>
</mgrwt>
</event>
<event>
 8    1  0.3053884E-004  0.1069588E+03  0.7546771E-02  0.1274859E+00
         -1   -1    0    0    0  501 -0.00000000000E+00  0.00000000000E+00  0.45843892279E+02  0.45843892279E+02  0.00000000000E+00 0.  1.
          1   -1    0    0  501    0  0.00000000000E+00 -0.00000000000E+00 -0.88325328854E+03  0.88325328854E+03  0.00000000000E+00 0. -1.
         23    2    1    2    0    0  0.20956370001E+02 -0.51648708404E+02 -0.83137537215E+03  0.83822740840E+03  0.91287568938E+02 0.  0.
         23    2    1    2    0    0 -0.20956370001E+02  0.51648708404E+02 -0.60340241097E+01  0.90869772423E+02  0.71513268488E+02 0.  0.
          5    1    4    4  502    0 -0.32827842016E+02 -0.36986763867E+01 -0.68446346241E+01  0.34062977580E+02  0.47000000000E+01 0. -1.
         -5    1    4    4    0  502  0.11871472015E+02  0.55347384791E+02  0.81061051440E+00  0.56806794843E+02  0.47000000000E+01 0.  1.
          5    1    3    3  503    0 -0.24098485397E+02 -0.55230962340E+02 -0.53210637972E+03  0.53552823039E+03  0.47000000000E+01 0. -1.
         -5    1    3    3    0  503  0.45054855398E+02  0.35822539357E+01 -0.29926899243E+03  0.30269917801E+03  0.47000000000E+01 0.  1.
<mgrwt>
<rscale>  0 0.10263069E+03</rscale>
<asrwt>0</asrwt>
<pdfrwt beam="1">  1        1 0.13588511E+00 0.10695877E+03</pdfrwt>
<pdfrwt beam="2">  1       -1 0.70529073E-02 0.10695877E+03</pdfrwt>
<totfact> 0.20253123E+03</totfact>
</mgrwt>
</event>
<event>
 8    1  0.2964543E-004  0.1042546E+03  0.7546771E-02  0.1271780E+00
         -1   -1    0    0    0  501 -0.00000000000E+00  0.00000000000E+00  0.43238631931E+03  0.43238631931E+03  0.00000000000E+00 0.  1.
          1   -1    0    0  501    0  0.00000000000E+00 -0.00000000000E+00 -0.26608092734E+02  0.26608092734E+02  0.00000000000E+00 0. -1.
         23    2    1    2    0    0 -0.50113886006E+02  0.43699336783E+01  0.14765610200E+03  0.18075214220E+03  0.91315467252E+02 0.  0.
         23    2    1    2    0    0  0.50113886006E+02 -0.43699336783E+01  0.25812212457E+03  0.27824226984E+03  0.90891317760E+02 0.  0.
          5    1    4    4  502    0  0.76463027608E+02 -0.71173285395E+01  0.18779788749E+03  0.20294676026E+03  0.47000000000E+01 0. -1.
         -5    1    4    4    0  502 -0.26349141603E+02  0.27473948612E+01  0.70324237084E+02  0.75295509581E+02  0.47000000000E+01 0.  1.
          5    1    3    3  503    0 -0.23172100964E+01 -0.38549783737E+02  0.44189369394E+02  0.58874830413E+02  0.47000000000E+01 0. -1.
         -5    1    3    3    0  503 -0.47796675909E+02  0.42919717415E+02  0.10346673261E+03  0.12187731178E+03  0.47000000000E+01 0.  1.
<mgrwt>
<rscale>  0 0.10416161E+03</rscale>
<asrwt>0</asrwt>
<pdfrwt beam="1">  1        1 0.40935531E-02 0.10425456E+03</pdfrwt>
<pdfrwt beam="2">  1       -1 0.66520967E-01 0.10425456E+03</pdfrwt>
<totfact> 0.48920331E+03</totfact>
</mgrwt>
</event>
<event>
 8    1  0.2964543E-004  0.9826459E+02  0.7546771E-02  0.1286533E+00
          2   -1    0    0  501    0  0.00000000000E+00  0.00000000000E+00  0.31835979467E+03  0.31835979467E+03  0.00000000000E+00 0. -1.
         -2   -1    0    0    0  501 -0.00000000000E+00 -0.00000000000E+00 -0.42207426891E+02  0.42207426891E+02  0.00000000000E+00 0.  1.
         23    2    1    2    0    0  0.19353321085E+02 -0.20878137517E+02  0.24146398816E+03  0.26069289796E+03  0.94050421593E+02 0.  0.
         23    2    1    2    0    0 -0.19353321085E+02  0.20878137517E+02  0.34688379616E+02  0.99874323606E+02  0.89225272049E+02 0.  0.
          5    1    3    3  502    0 -0.37170758864E+02 -0.84078906186E+01  0.12127841997E+03  0.12721203987E+03  0.47000000000E+01 0.  1.
         -5    1    4    4    0  503 -0.27994209105E+02 -0.26269700995E+02 -0.28922975143E+01  0.38784382407E+02  0.47000000000E+01 0.  1.
          5    1    4    4  503    0  0.86408880200E+01  0.47147838512E+02  0.37580677131E+02  0.61089941199E+02  0.47000000000E+01 0. -1.
         -5    1    3    3    0  502  0.56524079949E+02 -0.12470246899E+02  0.12018556820E+03  0.13348085808E+03  0.47000000000E+01 0. -1.
<mgrwt>
<rscale>  0 0.97091814E+02</rscale>
<asrwt>0</asrwt>
<pdfrwt beam="1">  1        2 0.48978429E-01 0.98264589E+02</pdfrwt>
<pdfrwt beam="2">  1       -2 0.64934505E-02 0.98264589E+02</pdfrwt>
<totfact> 0.12314053E+04</totfact>
</mgrwt>
</event>
<event>
 8    1  0.2964543E-004  0.1528548E+03  0.7546771E-02  0.1198441E+00
          2   -1    0    0  501    0  0.00000000000E+00  0.00000000000E+00  0.16752476687E+03  0.16752476687E+03  0.00000000000E+00 0. -1.
         -2   -1    0    0    0  501 -0.00000000000E+00 -0.00000000000E+00 -0.18424895065E+03  0.18424895065E+03  0.00000000000E+00 0.  1.
         23    2    1    2    0    0  0.11098743282E+03  0.41348892344E+02  0.82270714248E+02  0.17358877287E+03  0.96626344771E+02 0.  0.
         23    2    1    2    0    0 -0.11098743282E+03 -0.41348892344E+02 -0.98994898026E+02  0.17818494465E+03  0.89005300533E+02 0.  0.
          5    1    3    3  502    0  0.10530465962E+03  0.18269219852E+02  0.22816420675E+02  0.10938699550E+03  0.47000000000E+01 0. -1.
         -5    1    4    4    0  503 -0.86557547274E+02 -0.32815469673E+02 -0.11476389291E+03  0.14751916878E+03  0.47000000000E+01 0.  1.
          5    1    4    4  503    0 -0.24429885544E+02 -0.85334226714E+01  0.15768994887E+02  0.30665775873E+02  0.47000000000E+01 0. -1.
         -5    1    3    3    0  502  0.56827731929E+01  0.23079672492E+02  0.59454293573E+02  0.64201777372E+02  0.47000000000E+01 0.  1.
<mgrwt>
<rscale>  0 0.15166604E+03</rscale>
<asrwt>0</asrwt>
<pdfrwt beam="1">  1        2 0.25773041E-01 0.15285481E+03</pdfrwt>
<pdfrwt beam="2">  1       -2 0.28345992E-01 0.15285481E+03</pdfrwt>
<totfact> 0.22987622E+03</totfact>
</mgrwt>
</event>
<event>
 8    1  0.2964543E-004  0.9503284E+02  0.7546771E-02  0.1291152E+00
          1   -1    0    0  501    0  0.00000000000E+00  0.00000000000E+00  0.29582169799E+03  0.29582169799E+03  0.00000000000E+00 0. -1.
         -1   -1    0    0    0  501 -0.00000000000E+00 -0.00000000000E+00 -0.30856817581E+02  0.30856817581E+02  0.00000000000E+00 0.  1.
         23    2    1    2    0    0 -0.72752634560E+01  0.28317453176E+02  0.15008879007E+03  0.17764539041E+03  0.90423626430E+02 0.  0.
         23    2    1    2    0    0  0.72752634560E+01 -0.28317453176E+02  0.11487609034E+03  0.14903312516E+03  0.90330220031E+02 0.  0.
          5    1    3    3  502    0 -0.35740861569E+02 -0.53156294370E+01  0.11643173894E+03  0.12200043006E+03  0.47000000000E+01 0. -1.
         -5    1    4    4    0  503  0.40808064522E+02 -0.41688724776E+02  0.69643099416E+02  0.90969770801E+02  0.47000000000E+01 0.  1.
          5    1    4    4  503    0 -0.33532801066E+02  0.13371271600E+02  0.45232990921E+02  0.58063354357E+02  0.47000000000E+01 0. -1.
         -5    1    3    3    0  502  0.28465598113E+02  0.33633082613E+02  0.33657051138E+02  0.55644960358E+02  0.47000000000E+01 0.  1.
<mgrwt>
<rscale>  0 0.95010610E+02</rscale>
<asrwt>0</asrwt>
<pdfrwt beam="1">  1        1 0.45511029E-01 0.95032836E+02</pdfrwt>
<pdfrwt beam="2">  1       -1 0.47472029E-02 0.95032836E+02</pdfrwt>
<totfact> 0.15398962E+04</totfact>
</mgrwt>
</event>
<event>
 8    1  0.2964543E-004  0.1324985E+03  0.7546771E-02  0.1236285E+00
          2   -1    0    0  501    0  0.00000000000E+00  0.00000000000E+00  0.95407630624E+03  0.95407630624E+03  0.00000000000E+00 0. -1.
         -2   -1    0    0    0  501 -0.00000000000E+00 -0.00000000000E+00 -0.40228177918E+02  0.40228177918E+02  0.00000000000E+00 0.  1.
         23    2    1    2    0    0  0.13549648714E+02  0.45873216829E+02  0.81230793119E+02  0.15541655921E+03  0.12356342551E+03 0.  0.
         23    2    1    2    0    0 -0.13549648714E+02 -0.45873216829E+02  0.83261733521E+03  0.83888792495E+03  0.90517284207E+02 0.  0.
          5    1    3    3  502    0 -0.40366602037E+02  0.63391434250E+02  0.51538450616E+02  0.91248224028E+02  0.47000000000E+01 0. -1.
         -5    1    3    3    0  502  0.53916250751E+02 -0.17518217421E+02  0.29692342503E+02  0.64168335182E+02  0.47000000000E+01 0.  1.
          5    1    4    4  503    0 -0.32341664958E+02  0.15673448507E+02  0.23192025577E+03  0.23473545816E+03  0.47000000000E+01 0. -1.
         -5    1    4    4    0  503  0.18792016244E+02 -0.61546665337E+02  0.60069707943E+03  0.60415246679E+03  0.47000000000E+01 0.  1.
<mgrwt>
<rscale>  0 0.12422539E+03</rscale>
<asrwt>0</asrwt>
<pdfrwt beam="1">  1        2 0.14678095E+00 0.13249855E+03</pdfrwt>
<pdfrwt beam="2">  1       -2 0.61889512E-02 0.13249855E+03</pdfrwt>
<totfact> 0.38733508E+03</totfact>
</mgrwt>
</event>
<event>
 8    1  0.2964543E-004  0.3008035E+03  0.7546771E-02  0.1084849E+00
          1   -1    0    0  501    0  0.00000000000E+00  0.00000000000E+00  0.71458357562E+03  0.71458357562E+03  0.00000000000E+00 0. -1.
         -1   -1    0    0    0  501 -0.00000000000E+00 -0.00000000000E+00 -0.85994126828E+03  0.85994126828E+03  0.00000000000E+00 0.  1.
         23    2    1    2    0    0 -0.22130008603E+03  0.18228806610E+03 -0.79969001885E+03  0.85439269743E+03  0.90994989258E+02 0.  0.
         23    2    1    2    0    0  0.22130008603E+03 -0.18228806610E+03  0.65433232619E+03  0.72013214647E+03  0.90757083302E+02 0.  0.
          5    1    4    4  502    0  0.17485693181E+03 -0.90955726079E+02  0.45766322768E+03  0.49832279768E+03  0.47000000000E+01 0. -1.
         -5    1    3    3    0  503 -0.17415819064E+03  0.13157420281E+03 -0.48092975817E+03  0.52816509588E+03  0.47000000000E+01 0.  1.
          5    1    3    3  503    0 -0.47141895388E+02  0.50713863287E+02 -0.31876026067E+03  0.32622760155E+03  0.47000000000E+01 0. -1.
         -5    1    4    4    0  502  0.46443154214E+02 -0.91332340018E+02  0.19666909850E+03  0.22180934879E+03  0.47000000000E+01 0.  1.
<mgrwt>
<rscale>  0 0.30078554E+03</rscale>
<asrwt>0</asrwt>
<pdfrwt beam="1">  1        1 0.10993594E+00 0.30080352E+03</pdfrwt>
<pdfrwt beam="2">  1       -1 0.13229866E+00 0.30080352E+03</pdfrwt>
<totfact> 0.14365452E+01</totfact>
</mgrwt>
</event>
<event>
 8    1  0.2964543E-004  0.1699805E+03  0.7546771E-02  0.1178040E+00
         -1   -1    0    0    0  501 -0.00000000000E+00  0.00000000000E+00  0.20153372168E+03  0.20153372168E+03  0.00000000000E+00 0.  1.
          1   -1    0    0  501    0  0.00000000000E+00 -0.00000000000E+00 -0.25400354643E+03  0.25400354643E+03  0.00000000000E+00 0. -1.
         23    2    1    2    0    0  0.91668875872E+02  0.11067748814E+03  0.12443498511E+03  0.21065956360E+03  0.90778285026E+02 0.  0.
         23    2    1    2    0    0 -0.91668875872E+02 -0.11067748814E+03 -0.17690480987E+03  0.24487770451E+03  0.89538199806E+02 0.  0.
          5    1    3    3  502    0  0.67327437883E+02  0.42452173586E+02  0.17854126811E+02  0.81706981209E+02  0.47000000000E+01 0. -1.
         -5    1    4    4    0  503 -0.17144196068E+02 -0.74093990408E+02 -0.43669306570E+02  0.87823352302E+02  0.47000000000E+01 0.  1.
          5    1    4    4  503    0 -0.74524679805E+02 -0.36583497731E+02 -0.13323550330E+03  0.15705435221E+03  0.47000000000E+01 0. -1.
         -5    1    3    3    0  502  0.24341437989E+02  0.68225314553E+02  0.10658085830E+03  0.12895258239E+03  0.47000000000E+01 0.  1.
<mgrwt>
<rscale>  0 0.16981555E+03</rscale>
<asrwt>0</asrwt>
<pdfrwt beam="1">  1        1 0.39077469E-01 0.16998055E+03</pdfrwt>
<pdfrwt beam="2">  1       -1 0.31005188E-01 0.16998055E+03</pdfrwt>
<totfact> 0.10399109E+03</totfact>
</mgrwt>
</event>
<event>
 8    1  0.2964543E-004  0.9073975E+02  0.7546771E-02  0.1301357E+00
         -1   -1    0    0    0  501 -0.00000000000E+00  0.00000000000E+00  0.26867043033E+03  0.26867043033E+03  0.00000000000E+00 0.  1.
          1   -1    0    0  501    0  0.00000000000E+00 -0.00000000000E+00 -0.34354098489E+02  0.34354098489E+02  0.00000000000E+00 0. -1.
         23    2    1    2    0    0 -0.12057765409E+02  0.13806816285E+02  0.16773004841E+03  0.19047482317E+03  0.88381396456E+02 0.  0.
         23    2    1    2    0    0  0.12057765409E+02 -0.13806816285E+02  0.66586283436E+02  0.11254970565E+03  0.88868921554E+02 0.  0.
          5    1    4    4  502    0 -0.24387811989E+02 -0.36083610126E+02  0.50032576487E+02  0.66499180471E+02  0.47000000000E+01 0. -1.
         -5    1    4    4    0  502  0.36445577399E+02  0.22276793841E+02  0.16553706949E+02  0.46050525182E+02  0.47000000000E+01 0.  1.
          5    1    3    3  503    0 -0.24184219812E+02 -0.22408200999E+02  0.22396441230E+02  0.40133459105E+02  0.47000000000E+01 0. -1.
         -5    1    3    3    0  503  0.12126454403E+02  0.36215017284E+02  0.14533360718E+03  0.15034136406E+03  0.47000000000E+01 0.  1.
<mgrwt>
<rscale>  0 0.90620164E+02</rscale>
<asrwt>0</asrwt>
<pdfrwt beam="1">  1        1 0.52852461E-02 0.90739755E+02</pdfrwt>
<pdfrwt beam="2">  1       -1 0.41333911E-01 0.90739755E+02</pdfrwt>
<totfact> 0.81717864E+03</totfact>
</mgrwt>
</event>
<event>
 8    1  0.2964543E-004  0.1459579E+03  0.7546771E-02  0.1205765E+00
          3   -1    0    0  501    0  0.00000000000E+00  0.00000000000E+00  0.63322241646E+03  0.63322241646E+03  0.00000000000E+00 0. -1.
         -3   -1    0    0    0  501 -0.00000000000E+00 -0.00000000000E+00 -0.40370978134E+02  0.40370978134E+02  0.00000000000E+00 0.  1.
         23    2    1    2    0    0  0.11266083230E+03  0.15252297158E+02  0.43626235572E+03  0.46003102074E+03  0.91534700097E+02 0.  0.
         23    2    1    2    0    0 -0.11266083230E+03 -0.15252297158E+02  0.15658908260E+03  0.21356237385E+03  0.90352924861E+02 0.  0.
          5    1    3    3  502    0  0.39589229268E+02  0.46406169427E+02  0.13123424868E+03  0.14479419070E+03  0.47000000000E+01 0. -1.
         -5    1    3    3    0  502  0.73071603033E+02 -0.31153872269E+02  0.30502810705E+03  0.31523683004E+03  0.47000000000E+01 0.  1.
          5    1    4    4  503    0 -0.10137737462E+02 -0.32245855188E+02  0.71278317399E+02  0.79026941159E+02  0.47000000000E+01 0. -1.
         -5    1    4    4    0  503 -0.10252309484E+03  0.16993558030E+02  0.85310765201E+02  0.13453543269E+03  0.47000000000E+01 0.  1.
<mgrwt>
<rscale>  0 0.14577296E+03</rscale>
<asrwt>0</asrwt>
<pdfrwt beam="1">  1        3 0.97418826E-01 0.14595786E+03</pdfrwt>
<pdfrwt beam="2">  1       -3 0.62109202E-02 0.14595786E+03</pdfrwt>
<totfact> 0.36406703E+02</totfact>
</mgrwt>
</event>
<event>
 8    1  0.2964543E-004  0.1848331E+03  0.7546771E-02  0.1163337E+00
          2   -1    0    0  501    0  0.00000000000E+00  0.00000000000E+00  0.34853742277E+03  0.34853742277E+03  0.00000000000E+00 0. -1.
         -2   -1    0    0    0  501 -0.00000000000E+00 -0.00000000000E+00 -0.12882918777E+03  0.12882918777E+03  0.00000000000E+00 0.  1.
         23    2    1    2    0    0 -0.11107074698E+03  0.11506408201E+03  0.22726585682E+03  0.29293863883E+03  0.92665110132E+02 0.  0.
         23    2    1    2    0    0  0.11107074698E+03 -0.11506408201E+03 -0.75576218275E+01  0.18442797172E+03  0.91542915071E+02 0.  0.
          5    1    3    3  502    0 -0.39988428952E+02  0.67366195667E+02  0.17684983354E+03  0.19348186579E+03  0.47000000000E+01 0. -1.
         -5    1    3    3    0  502 -0.71082318031E+02  0.47697886346E+02  0.50416023288E+02  0.99456773036E+02  0.47000000000E+01 0.  1.
          5    1    4    4  503    0  0.71578568257E+02 -0.10790782496E+03 -0.36623052977E+02  0.13465113490E+03  0.47000000000E+01 0. -1.
         -5    1    4    4    0  503  0.39492178727E+02 -0.71562570541E+01  0.29065431149E+02  0.49776836817E+02  0.47000000000E+01 0.  1.
<mgrwt>
<rscale>  0 0.18469293E+03</rscale>
<asrwt>0</asrwt>
<pdfrwt beam="1">  1        2 0.53621142E-01 0.18483310E+03</pdfrwt>
<pdfrwt beam="2">  1       -2 0.19819875E-01 0.18483310E+03</pdfrwt>
<totfact> 0.19584641E+03</totfact>
</mgrwt>
</event>
<event>
 8    1  0.2964543E-004  0.9795706E+02  0.7546771E-02  0.1285360E+00
         -2   -1    0    0    0  501 -0.00000000000E+00  0.00000000000E+00  0.20955535805E+03  0.20955535805E+03  0.00000000000E+00 0.  1.
          2   -1    0    0  501    0  0.00000000000E+00 -0.00000000000E+00 -0.50728298775E+02  0.50728298775E+02  0.00000000000E+00 0. -1.
         23    2    1    2    0    0 -0.31572337231E+02  0.11736027789E+02  0.12196450467E+03  0.15562022268E+03  0.90596724450E+02 0.  0.
         23    2    1    2    0    0  0.31572337231E+02 -0.11736027789E+02  0.36862554604E+02  0.10466343414E+03  0.91983909944E+02 0.  0.
          5    1    4    4  502    0  0.59866957202E+02 -0.22036123116E+02  0.11451529404E+02  0.64983619569E+02  0.47000000000E+01 0. -1.
         -5    1    3    3    0  503 -0.53351713742E+02 -0.17558388565E+02  0.52591442700E+02  0.77088599763E+02  0.47000000000E+01 0.  1.
          5    1    3    3  503    0  0.21779376511E+02  0.29294416354E+02  0.69373061971E+02  0.78531622917E+02  0.47000000000E+01 0. -1.
         -5    1    4    4    0  502 -0.28294619971E+02  0.10300095327E+02  0.25411025200E+02  0.39679814576E+02  0.47000000000E+01 0.  1.
<mgrwt>
<rscale>  0 0.97630076E+02</rscale>
<asrwt>0</asrwt>
<pdfrwt beam="1">  1        2 0.78043538E-02 0.97957065E+02</pdfrwt>
<pdfrwt beam="2">  1       -2 0.32239285E-01 0.97957065E+02</pdfrwt>
<totfact> 0.72097881E+03</totfact>
</mgrwt>
</event>
<event>
 8    1  0.2964543E-004  0.1230350E+03  0.7546771E-02  0.1245385E+00
         -1   -1    0    0    0  501 -0.00000000000E+00  0.00000000000E+00  0.11445475232E+02  0.11445475232E+02  0.00000000000E+00 0.  1.
          1   -1    0    0  501    0  0.00000000000E+00 -0.00000000000E+00 -0.11489934459E+04  0.11489934459E+04  0.00000000000E+00 0. -1.
         23    2    1    2    0    0  0.57061532391E+02 -0.65751939254E+01 -0.60734334521E+03  0.61968020818E+03  0.10880427285E+03 0.  0.
         23    2    1    2    0    0 -0.57061532391E+02  0.65751939254E+01 -0.53020462545E+03  0.54075871293E+03  0.89463898399E+02 0.  0.
          5    1    4    4  502    0 -0.53237777910E+02 -0.26256018864E+02 -0.44941519222E+03  0.45334285538E+03  0.47000000000E+01 0. -1.
         -5    1    4    4    0  502 -0.38237544815E+01  0.32831212789E+02 -0.80789433223E+02  0.87415857555E+02  0.47000000000E+01 0.  1.
          5    1    3    3  503    0  0.11078301481E+02  0.49166229150E+02 -0.24729683093E+03  0.25242396765E+03  0.47000000000E+01 0. -1.
         -5    1    3    3    0  503  0.45983230910E+02 -0.55741423076E+02 -0.36004651427E+03  0.36725624053E+03  0.47000000000E+01 0.  1.
<mgrwt>
<rscale>  0 0.11862358E+03</rscale>
<asrwt>0</asrwt>
<pdfrwt beam="1">  1        1 0.17676814E+00 0.12303504E+03</pdfrwt>
<pdfrwt beam="2">  1       -1 0.17608431E-02 0.12303504E+03</pdfrwt>
<totfact> 0.98904389E+03</totfact>
</mgrwt>
</event>
<event>
 8    1  0.3593413E-004  0.1088781E+03  0.7546771E-02  0.1266567E+00
         -2   -1    0    0    0  501 -0.00000000000E+00  0.00000000000E+00  0.39939672057E+02  0.39939672057E+02  0.00000000000E+00 0.  1.
          2   -1    0    0  501    0  0.00000000000E+00 -0.00000000000E+00 -0.50335992980E+03  0.50335992980E+03  0.00000000000E+00 0. -1.
         23    2    1    2    0    0  0.46523820126E+02 -0.13469925458E+01 -0.40960593264E+03  0.42184826615E+03  0.89513459150E+02 0.  0.
         23    2    1    2    0    0 -0.46523820126E+02  0.13469925458E+01 -0.53814325101E+02  0.12145133571E+03  0.98428477237E+02 0.  0.
          5    1    4    4  502    0  0.19126413044E+02  0.29214947703E+02 -0.67554157245E+01  0.35875597373E+02  0.47000000000E+01 0. -1.
         -5    1    4    4    0  502 -0.65650233171E+02 -0.27867955157E+02 -0.47058909376E+02  0.85575738335E+02  0.47000000000E+01 0.  1.
          5    1    3    3  503    0  0.68907758767E+02  0.63584737963E+01 -0.36073516231E+03  0.36734269659E+03  0.47000000000E+01 0. -1.
         -5    1    3    3    0  503 -0.22383938641E+02 -0.77054663421E+01 -0.48870770332E+02  0.54505569564E+02  0.47000000000E+01 0.  1.
<mgrwt>
<rscale>  0 0.10682386E+03</rscale>
<asrwt>0</asrwt>
<pdfrwt beam="1">  1        2 0.77439990E-01 0.10887812E+03</pdfrwt>
<pdfrwt beam="2">  1       -2 0.61445649E-02 0.10887812E+03</pdfrwt>
<totfact> 0.82958354E+03</totfact>
</mgrwt>
</event>
<event>
 8    1  0.2964543E-004  0.9826456E+02  0.7546771E-02  0.1288115E+00
         -1   -1    0    0    0  501 -0.00000000000E+00  0.00000000000E+00  0.71027912904E+02  0.71027912904E+02  0.00000000000E+00 0.  1.
          1   -1    0    0  501    0  0.00000000000E+00 -0.00000000000E+00 -0.16037207088E+03  0.16037207088E+03  0.00000000000E+00 0. -1.
         23    2    1    2    0    0  0.12839652181E+02  0.32939760212E+01  0.75252750945E+01  0.98552286559E+02  0.97366403213E+02 0.  0.
         23    2    1    2    0    0 -0.12839652181E+02 -0.32939760212E+01 -0.96869433069E+02  0.13284769722E+03  0.89939516613E+02 0.  0.
          5    1    3    3  502    0 -0.41763178690E+02 -0.36708784866E+01 -0.30759002174E+01  0.42298813285E+02  0.47000000000E+01 0. -1.
         -5    1    4    4    0  503  0.26970942635E+02 -0.31465949604E+02 -0.40106622251E+02  0.57863363880E+02  0.47000000000E+01 0.  1.
          5    1    4    4  503    0 -0.39810594816E+02  0.28171973583E+02 -0.56762810818E+02  0.74984333344E+02  0.47000000000E+01 0. -1.
         -5    1    3    3    0  502  0.54602830871E+02  0.69648545078E+01  0.10601175312E+02  0.56253473274E+02  0.47000000000E+01 0.  1.
<mgrwt>
<rscale>  0 0.96372223E+02</rscale>
<asrwt>0</asrwt>
<pdfrwt beam="1">  1        1 0.24672627E-01 0.98264558E+02</pdfrwt>
<pdfrwt beam="2">  1       -1 0.10927371E-01 0.98264558E+02</pdfrwt>
<totfact> 0.94694430E+03</totfact>
</mgrwt>
</event>
<event>
 8    1  0.2964543E-004  0.1830128E+03  0.7546771E-02  0.1164987E+00
         -1   -1    0    0    0  501 -0.00000000000E+00  0.00000000000E+00  0.53774121870E+03  0.53774121870E+03  0.00000000000E+00 0.  1.
          1   -1    0    0  501    0  0.00000000000E+00 -0.00000000000E+00 -0.78364794805E+02  0.78364794805E+02  0.00000000000E+00 0. -1.
         23    2    1    2    0    0  0.14207303720E+03 -0.69021989647E+02  0.36979469416E+03  0.41260370619E+03  0.92438734202E+02 0.  0.
         23    2    1    2    0    0 -0.14207303720E+03  0.69021989647E+02  0.89581729731E+02  0.20350230731E+03  0.91866859217E+02 0.  0.
          5    1    3    3  502    0  0.22366035322E+02 -0.28150368144E+02  0.21813186912E+02  0.42315338660E+02  0.47000000000E+01 0. -1.
         -5    1    3    3    0  502  0.11970700188E+03 -0.40871621503E+02  0.34798150725E+03  0.37028836753E+03  0.47000000000E+01 0.  1.
          5    1    4    4  503    0 -0.43996609531E+02  0.68675699119E-01 -0.12490866252E+02  0.45976277647E+02  0.47000000000E+01 0. -1.
         -5    1    4    4    0  503 -0.98076427672E+02  0.68953313948E+02  0.10207259598E+03  0.15752602966E+03  0.47000000000E+01 0.  1.
<mgrwt>
<rscale>  0 0.18294076E+03</rscale>
<asrwt>0</asrwt>
<pdfrwt beam="1">  1        1 0.12056123E-01 0.18301285E+03</pdfrwt>
<pdfrwt beam="2">  1       -1 0.82729416E-01 0.18301285E+03</pdfrwt>
<totfact> 0.75524554E+02</totfact>
</mgrwt>
</event>
<event>
 8    1  0.2964543E-004  0.1197577E+03  0.7546771E-02  0.1243504E+00
         -1   -1    0    0    0  501 -0.00000000000E+00  0.00000000000E+00  0.47526422051E+02  0.47526422051E+02  0.00000000000E+00 0.  1.
          1   -1    0    0  501    0  0.00000000000E+00 -0.00000000000E+00 -0.39000518446E+03  0.39000518446E+03  0.00000000000E+00 0. -1.
         23    2    1    2    0    0  0.67856481946E+02 -0.39781467361E+02 -0.67168056762E+02  0.13730786498E+03  0.90304123099E+02 0.  0.
         23    2    1    2    0    0 -0.67856481946E+02  0.39781467361E+02 -0.27531070564E+03  0.30022374153E+03  0.90284234766E+02 0.  0.
          5    1    4    4  502    0  0.18789336382E+01 -0.20814500302E+02 -0.22713510279E+02  0.31221264606E+02  0.47000000000E+01 0. -1.
         -5    1    4    4    0  502 -0.69735415584E+02  0.60595967663E+02 -0.25259719536E+03  0.26900247692E+03  0.47000000000E+01 0.  1.
          5    1    3    3  503    0  0.56252312801E+02 -0.66061352677E+02 -0.64219097254E+02  0.10804909747E+03  0.47000000000E+01 0. -1.
         -5    1    3    3    0  503  0.11604169145E+02  0.26279885316E+02 -0.29489595079E+01  0.29258767505E+02  0.47000000000E+01 0.  1.
<mgrwt>
<rscale>  0 0.11975393E+03</rscale>
<asrwt>0</asrwt>
<pdfrwt beam="1">  1        1 0.60000799E-01 0.11975768E+03</pdfrwt>
<pdfrwt beam="2">  1       -1 0.73117571E-02 0.11975768E+03</pdfrwt>
<totfact> 0.58842765E+03</totfact>
</mgrwt>
</event>
<event>
 8    1  0.2964543E-004  0.9886854E+02  0.7546771E-02  0.1283438E+00
         -1   -1    0    0    0  501 -0.00000000000E+00  0.00000000000E+00  0.65325336832E+02  0.65325336832E+02  0.00000000000E+00 0.  1.
          1   -1    0    0  501    0  0.00000000000E+00 -0.00000000000E+00 -0.27199813185E+03  0.27199813185E+03  0.00000000000E+00 0. -1.
         23    2    1    2    0    0  0.11952415599E+02  0.37104348000E+02 -0.21702547983E+03  0.23791438073E+03  0.89350997662E+02 0.  0.
         23    2    1    2    0    0 -0.11952415599E+02 -0.37104348000E+02  0.10352684811E+02  0.99409087955E+02  0.90859208703E+02 0.  0.
          5    1    4    4  502    0 -0.19890173750E+02  0.27120316111E+02  0.46331440877E+01  0.34273701024E+02  0.47000000000E+01 0. -1.
         -5    1    3    3    0  503  0.30587049102E+02 -0.91348763610E+01 -0.29161164661E+02  0.43491114763E+02  0.47000000000E+01 0.  1.
          5    1    3    3  503    0 -0.18634633503E+02  0.46239224361E+02 -0.18786431517E+03  0.19442326597E+03  0.47000000000E+01 0. -1.
         -5    1    4    4    0  502  0.79377581507E+01 -0.64224664110E+02  0.57195407232E+01  0.65135386931E+02  0.47000000000E+01 0.  1.
<mgrwt>
<rscale>  0 0.98520656E+02</rscale>
<asrwt>0</asrwt>
<pdfrwt beam="1">  1        1 0.41845867E-01 0.98868542E+02</pdfrwt>
<pdfrwt beam="2">  1       -1 0.10050052E-01 0.98868542E+02</pdfrwt>
<totfact> 0.56164518E+03</totfact>
</mgrwt>
</event>
<event>
 8    1  0.2964543E-004  0.1443413E+03  0.7546771E-02  0.1208002E+00
          2   -1    0    0  501    0  0.00000000000E+00  0.00000000000E+00  0.93521557308E+02  0.93521557308E+02  0.00000000000E+00 0. -1.
         -2   -1    0    0    0  501 -0.00000000000E+00 -0.00000000000E+00 -0.29879665530E+03  0.29879665530E+03  0.00000000000E+00 0.  1.
         23    2    1    2    0    0  0.91446119144E+02 -0.64193257456E+02 -0.27970080165E+01  0.14436838027E+03  0.91385113448E+02 0.  0.
         23    2    1    2    0    0 -0.91446119144E+02  0.64193257456E+02 -0.20247808998E+03  0.24794983234E+03  0.89434755130E+02 0.  0.
          5    1    4    4  502    0 -0.20108989919E+02 -0.77850167950E+01 -0.67301230497E+00  0.22079875625E+02  0.47000000000E+01 0. -1.
         -5    1    3    3    0  503  0.43341745778E+02  0.13649948971E+02 -0.22071208049E+02  0.50735158014E+02  0.47000000000E+01 0.  1.
          5    1    3    3  503    0  0.48104373366E+02 -0.77843206427E+02  0.19274200033E+02  0.93633222260E+02  0.47000000000E+01 0. -1.
         -5    1    4    4    0  502 -0.71337129225E+02  0.71978274251E+02 -0.20180507767E+03  0.22586995671E+03  0.47000000000E+01 0.  1.
<mgrwt>
<rscale>  0 0.14403359E+03</rscale>
<asrwt>0</asrwt>
<pdfrwt beam="1">  1        2 0.14387932E-01 0.14434128E+03</pdfrwt>
<pdfrwt beam="2">  1       -2 0.45968716E-01 0.14434128E+03</pdfrwt>
<totfact> 0.18109399E+03</totfact>
</mgrwt>
</event>
<event>
 7    1  0.3154876E-004  0.1040522E+03  0.7546771E-02  0.1291620E+00
         -3   -1    0    0    0  501 -0.00000000000E+00  0.00000000000E+00  0.25512896720E+03  0.25512896720E+03  0.00000000000E+00 0.  1.
          3   -1    0    0  501    0  0.00000000000E+00 -0.00000000000E+00 -0.30272345645E+02  0.30272345645E+02  0.00000000000E+00 0. -1.
         23    2    1    2    0    0  0.48201109438E+02  0.11713354531E+02  0.13167687208E+03  0.16782628590E+03  0.91467556947E+02 0.  0.
          5    1    1    2  502    0 -0.27052689133E+02  0.17956266313E+02  0.29819920087E+02  0.44335010130E+02  0.47000000000E+01 0. -1.
         -5    1    1    2    0  502 -0.21148420305E+02 -0.29669620844E+02  0.63359829386E+02  0.73240016810E+02  0.47000000000E+01 0.  1.
          5    1    3    3  503    0 -0.56852271191E+01  0.31119885149E+02  0.10412824472E+02  0.33634594877E+02  0.47000000000E+01 0. -1.
         -5    1    3    3    0  503  0.53886336557E+02 -0.19406530618E+02  0.12126404761E+03  0.13419169102E+03  0.47000000000E+01 0.  1.
<mgrwt>
<rscale>  0 0.94803397E+02</rscale>
<asrwt>0</asrwt>
<pdfrwt beam="1">  1        3 0.46572841E-02 0.10405222E+03</pdfrwt>
<pdfrwt beam="2">  1       -3 0.39250609E-01 0.10405222E+03</pdfrwt>
<totfact> 0.35613407E+03</totfact>
</mgrwt>
</event>
<event>
 8    1  0.2964543E-004  0.1044224E+03  0.7546771E-02  0.1276421E+00
          2   -1    0    0  501    0  0.00000000000E+00  0.00000000000E+00  0.44961895559E+03  0.44961895559E+03  0.00000000000E+00 0. -1.
         -2   -1    0    0    0  501 -0.00000000000E+00 -0.00000000000E+00 -0.29030970655E+02  0.29030970655E+02  0.00000000000E+00 0.  1.
         23    2    1    2    0    0  0.15593760431E+02 -0.20003872378E+02  0.10066282495E+03  0.14504153973E+03  0.10129523013E+03 0.  0.
         23    2    1    2    0    0 -0.15593760431E+02  0.20003872378E+02  0.31992515998E+03  0.33360838651E+03  0.91099546027E+02 0.  0.
          5    1    3    3  502    0  0.47395703435E+02  0.20223843052E+02  0.39562611687E+02  0.65135602979E+02  0.47000000000E+01 0. -1.
         -5    1    3    3    0  502 -0.31801943005E+02 -0.40227715430E+02  0.61100213265E+02  0.79905936755E+02  0.47000000000E+01 0.  1.
          5    1    4    4  503    0  0.19889482612E+02  0.20269538512E+02  0.27338158084E+03  0.27489275082E+03  0.47000000000E+01 0. -1.
         -5    1    4    4    0  503 -0.35483243042E+02 -0.26566613417E+00  0.46543579139E+02  0.58715635689E+02  0.47000000000E+01 0.  1.
<mgrwt>
<rscale>  0 0.10186556E+03</rscale>
<asrwt>0</asrwt>
<pdfrwt beam="1">  1        2 0.69172142E-01 0.10442243E+03</pdfrwt>
<pdfrwt beam="2">  1       -2 0.44663035E-02 0.10442243E+03</pdfrwt>
<totfact> 0.15052243E+04</totfact>
</mgrwt>
</event>
<event>
 8    1  0.2964543E-004  0.9151360E+02  0.7546771E-02  0.1299237E+00
          1   -1    0    0  501    0  0.00000000000E+00  0.00000000000E+00  0.88483620452E+03  0.88483620452E+03  0.00000000000E+00 0. -1.
         -1   -1    0    0    0  501 -0.00000000000E+00 -0.00000000000E+00 -0.97674043201E+01  0.97674043201E+01  0.00000000000E+00 0.  1.
         23    2    1    2    0    0 -0.56737455459E+01 -0.34847427471E+01  0.35853900500E+03  0.37002971651E+03  0.91254798087E+02 0.  0.
         23    2    1    2    0    0  0.56737455459E+01  0.34847427471E+01  0.51652979520E+03  0.52457389233E+03  0.91271048883E+02 0.  0.
          5    1    4    4  502    0  0.14283516253E+02  0.38804672117E+02  0.40592959794E+03  0.40805728752E+03  0.47000000000E+01 0. -1.
         -5    1    4    4    0  502 -0.86097707076E+01 -0.35319929370E+02  0.11060019726E+03  0.11651660481E+03  0.47000000000E+01 0.  1.
          5    1    3    3  503    0 -0.40945007790E+02  0.14990546489E+02  0.11250773688E+03  0.12075301654E+03  0.47000000000E+01 0. -1.
         -5    1    3    3    0  503  0.35271262244E+02 -0.18475289236E+02  0.24603126813E+03  0.24927669997E+03  0.47000000000E+01 0.  1.
<mgrwt>
<rscale>  0 0.91509549E+02</rscale>
<asrwt>0</asrwt>
<pdfrwt beam="1">  1        1 0.13612858E+00 0.91513601E+02</pdfrwt>
<pdfrwt beam="2">  1       -1 0.15026783E-02 0.91513601E+02</pdfrwt>
<totfact> 0.18833009E+04</totfact>
</mgrwt>
</event>
<event>
 8    1  0.2964543E-004  0.9376595E+02  0.7546771E-02  0.1294324E+00
          1   -1    0    0  501    0  0.00000000000E+00  0.00000000000E+00  0.60439236718E+02  0.60439236718E+02  0.00000000000E+00 0. -1.
         -1   -1    0    0    0  501 -0.00000000000E+00 -0.00000000000E+00 -0.19247461517E+03  0.19247461517E+03  0.00000000000E+00 0.  1.
         23    2    1    2    0    0  0.24781448984E+01 -0.41468002388E+00 -0.12928273709E+03  0.15970622892E+03  0.93732279843E+02 0.  0.
         23    2    1    2    0    0 -0.24781448984E+01  0.41468002388E+00 -0.27526413592E+01  0.93207622967E+02  0.93133081035E+02 0.  0.
          5    1    4    4  502    0 -0.20952350504E+02  0.42005919496E+02  0.19392288815E+01  0.47215981118E+02  0.47000000000E+01 0. -1.
         -5    1    4    4    0  502  0.18474205606E+02 -0.41591239472E+02 -0.46918702407E+01  0.45991641848E+02  0.47000000000E+01 0.  1.
          5    1    3    3  503    0  0.27759867135E+02  0.28656222361E+02 -0.22402856058E+02  0.45997470179E+02  0.47000000000E+01 0. -1.
         -5    1    3    3    0  503 -0.25281722236E+02 -0.29070902385E+02 -0.10687988103E+03  0.11370875874E+03  0.47000000000E+01 0.  1.
<mgrwt>
<rscale>  0 0.93615845E+02</rscale>
<asrwt>0</asrwt>
<pdfrwt beam="1">  1        1 0.92983438E-02 0.93765950E+02</pdfrwt>
<pdfrwt beam="2">  1       -1 0.29611480E-01 0.93765950E+02</pdfrwt>
<totfact> 0.68033136E+03</totfact>
</mgrwt>
</event>
<event>
 8    1  0.2964543E-004  0.9101851E+02  0.7546771E-02  0.1300504E+00
          1   -1    0    0  501    0  0.00000000000E+00  0.00000000000E+00  0.11081600487E+04  0.11081600487E+04  0.00000000000E+00 0. -1.
         -1   -1    0    0    0  501 -0.00000000000E+00 -0.00000000000E+00 -0.88743326829E+01  0.88743326829E+01  0.00000000000E+00 0.  1.
         23    2    1    2    0    0  0.36328455708E+01  0.59056235446E+00  0.32641022314E+03  0.33881789750E+03  0.90776580498E+02 0.  0.
         23    2    1    2    0    0 -0.36328455708E+01 -0.59056235446E+00  0.77287549292E+03  0.77821648392E+03  0.90944059525E+02 0.  0.
          5    1    3    3  502    0 -0.41434374019E+02 -0.58074046162E+01  0.11379732476E+03  0.12133612167E+03  0.47000000000E+01 0. -1.
         -5    1    3    3    0  502  0.45067219590E+02  0.63979669707E+01  0.21261289838E+03  0.21748177583E+03  0.47000000000E+01 0.  1.
          5    1    4    4  503    0 -0.44369650495E+02  0.14436202548E+02  0.43865721376E+03  0.44115678733E+03  0.47000000000E+01 0. -1.
         -5    1    4    4    0  503  0.40736804924E+02 -0.15026764902E+02  0.33421827916E+03  0.33705969659E+03  0.47000000000E+01 0.  1.
<mgrwt>
<rscale>  0 0.90976641E+02</rscale>
<asrwt>0</asrwt>
<pdfrwt beam="1">  1        1 0.17048605E+00 0.91018505E+02</pdfrwt>
<pdfrwt beam="2">  1       -1 0.13652828E-02 0.91018505E+02</pdfrwt>
<totfact> 0.14869383E+04</totfact>
</mgrwt>
</event>
<event>
 8    1  0.2964543E-004  0.1020671E+03  0.7546771E-02  0.1277367E+00
          1   -1    0    0  501    0  0.00000000000E+00  0.00000000000E+00  0.10425203483E+04  0.10425203483E+04  0.00000000000E+00 0. -1.
         -1   -1    0    0    0  501 -0.00000000000E+00 -0.00000000000E+00 -0.10140505525E+02  0.10140505525E+02  0.00000000000E+00 0.  1.
         23    2    1    2    0    0 -0.35604990849E+02 -0.27214660009E+02  0.40490333089E+03  0.41693727828E+03  0.88778564751E+02 0.  0.
         23    2    1    2    0    0  0.35604990849E+02  0.27214660009E+02  0.62747651192E+03  0.63572357558E+03  0.91702445153E+02 0.  0.
          5    1    3    3  502    0 -0.27427843308E+02 -0.57326291973E+02  0.32172146499E+03  0.32797161672E+03  0.47000000000E+01 0. -1.
         -5    1    4    4    0  503  0.37629931622E+02  0.57244111976E+02  0.49801097909E+03  0.50272251332E+03  0.47000000000E+01 0.  1.
          5    1    4    4  503    0 -0.20249407723E+01 -0.30029451967E+02  0.12946553283E+03  0.13300106226E+03  0.47000000000E+01 0. -1.
         -5    1    3    3    0  502 -0.81771475412E+01  0.30111631965E+02  0.83181865900E+02  0.88965661556E+02  0.47000000000E+01 0.  1.
<mgrwt>
<rscale>  0 0.10140603E+03</rscale>
<asrwt>0</asrwt>
<pdfrwt beam="1">  1        1 0.16038766E+00 0.10206709E+03</pdfrwt>
<pdfrwt beam="2">  1       -1 0.15600786E-02 0.10206709E+03</pdfrwt>
<totfact> 0.13795203E+04</totfact>
</mgrwt>
</event>
<event>
 8    1  0.2964543E-004  0.9415734E+02  0.7546771E-02  0.1293692E+00
         -1   -1    0    0    0  501 -0.00000000000E+00  0.00000000000E+00  0.30635677275E+02  0.30635677275E+02  0.00000000000E+00 0.  1.
          1   -1    0    0  501    0  0.00000000000E+00 -0.00000000000E+00 -0.30939040261E+03  0.30939040261E+03  0.00000000000E+00 0. -1.
         23    2    1    2    0    0 -0.18888479317E+02  0.74201701728E+01 -0.93505984432E+02  0.13269881028E+03  0.91944393785E+02 0.  0.
         23    2    1    2    0    0  0.18888479317E+02 -0.74201701728E+01 -0.18524874090E+03  0.20732726960E+03  0.90860701844E+02 0.  0.
          5    1    4    4  502    0 -0.30511696540E+02 -0.23354575100E+02 -0.57093691430E+02  0.68979557877E+02  0.47000000000E+01 0. -1.
         -5    1    4    4    0  502  0.49400175857E+02  0.15934404927E+02 -0.12815504947E+03  0.13834771172E+03  0.47000000000E+01 0.  1.
          5    1    3    3  503    0 -0.97037277035E+00 -0.41451386355E+02 -0.37633978772E+02  0.56192218432E+02  0.47000000000E+01 0. -1.
         -5    1    3    3    0  503 -0.17918106547E+02  0.48871556527E+02 -0.55872005660E+02  0.76506591847E+02  0.47000000000E+01 0.  1.
<mgrwt>
<rscale>  0 0.93891738E+02</rscale>
<asrwt>0</asrwt>
<pdfrwt beam="1">  1        1 0.47598524E-01 0.94157342E+02</pdfrwt>
<pdfrwt beam="2">  1       -1 0.47131811E-02 0.94157342E+02</pdfrwt>
<totfact> 0.14718012E+04</totfact>
</mgrwt>
</event>
<event>
 8    1  0.2964543E-004  0.1151732E+03  0.7546771E-02  0.1254292E+00
          1   -1    0    0  501    0  0.00000000000E+00  0.00000000000E+00  0.76158757963E+03  0.76158757963E+03  0.00000000000E+00 0. -1.
         -1   -1    0    0    0  501 -0.00000000000E+00 -0.00000000000E+00 -0.36236109491E+02  0.36236109491E+02  0.00000000000E+00 0.  1.
         23    2    1    2    0    0 -0.27681415090E+01 -0.60252147770E+02  0.72656066590E+02  0.13617552288E+03  0.98116691242E+02 0.  0.
         23    2    1    2    0    0  0.27681415090E+01  0.60252147770E+02  0.65269540355E+03  0.66164816624E+03  0.90161090066E+02 0.  0.
          5    1    3    3  502    0  0.21235029947E+02  0.15126333608E+02  0.45041205646E+02  0.52254499053E+02  0.47000000000E+01 0. -1.
         -5    1    3    3    0  502 -0.24003171456E+02 -0.75378481378E+02  0.27614860944E+02  0.83921023824E+02  0.47000000000E+01 0.  1.
          5    1    4    4  503    0  0.10243189475E+02  0.81613083020E+02  0.56421812394E+03  0.57020154299E+03  0.47000000000E+01 0. -1.
         -5    1    4    4    0  503 -0.74750479661E+01 -0.21360935249E+02  0.88477279611E+02  0.91446623252E+02  0.47000000000E+01 0.  1.
<mgrwt>
<rscale>  0 0.11346107E+03</rscale>
<asrwt>0</asrwt>
<pdfrwt beam="1">  1        1 0.11716731E+00 0.11517321E+03</pdfrwt>
<pdfrwt beam="2">  1       -1 0.55747867E-02 0.11517321E+03</pdfrwt>
<totfact> 0.36012818E+03</totfact>
</mgrwt>
</event>
<event>
 8    1  0.2964543E-004  0.1376098E+03  0.7546771E-02  0.1216824E+00
         -2   -1    0    0    0  501 -0.00000000000E+00  0.00000000000E+00  0.35979135374E+03  0.35979135374E+03  0.00000000000E+00 0.  1.
          2   -1    0    0  501    0  0.00000000000E+00 -0.00000000000E+00 -0.30994364041E+03  0.30994364041E+03  0.00000000000E+00 0. -1.
         23    2    1    2    0    0  0.10080925599E+03 -0.16805097075E+02  0.33018527689E+03  0.35744408751E+03  0.91099073753E+02 0.  0.
         23    2    1    2    0    0 -0.10080925599E+03  0.16805097075E+02 -0.28033756356E+03  0.31229090663E+03  0.92149571020E+02 0.  0.
          5    1    4    4  502    0 -0.76317448811E+02 -0.31389700527E+02 -0.18422773244E+03  0.20191981996E+03  0.47000000000E+01 0. -1.
         -5    1    3    3    0  503  0.92382468662E+02  0.10209562330E+02  0.30626847013E+03  0.32009564426E+03  0.47000000000E+01 0.  1.
          5    1    3    3  503    0  0.84267873287E+01 -0.27014659405E+02  0.23916806761E+02  0.37348443249E+02  0.47000000000E+01 0. -1.
         -5    1    4    4    0  502 -0.24491807179E+02  0.48194797602E+02 -0.96109831126E+02  0.11037108668E+03  0.47000000000E+01 0.  1.
<mgrwt>
<rscale>  0 0.13743417E+03</rscale>
<asrwt>0</asrwt>
<pdfrwt beam="1">  1        2 0.47683637E-01 0.13760981E+03</pdfrwt>
<pdfrwt beam="2">  1       -2 0.55352516E-01 0.13760981E+03</pdfrwt>
<totfact> 0.33286829E+02</totfact>
</mgrwt>
</event>
<event>
 8    1  0.2964543E-004  0.3165589E+03  0.7546771E-02  0.1077817E+00
         -2   -1    0    0    0  501 -0.00000000000E+00  0.00000000000E+00  0.15168399885E+04  0.15168399885E+04  0.00000000000E+00 0.  1.
          2   -1    0    0  501    0  0.00000000000E+00 -0.00000000000E+00 -0.11019115021E+03  0.11019115021E+03  0.00000000000E+00 0. -1.
         23    2    1    2    0    0  0.18307588975E+03 -0.23687852067E+03  0.17942985245E+03  0.35964171419E+03  0.86711450634E+02 0.  0.
         23    2    1    2    0    0 -0.18307588975E+03  0.23687852067E+03  0.12272189858E+04  0.12673894245E+04  0.10286544234E+03 0.  0.
          5    1    4    4  502    0 -0.32873464921E+02  0.68884097624E+02  0.50668304606E+03  0.51242119664E+03  0.47000000000E+01 0. -1.
         -5    1    4    4    0  502 -0.15020242483E+03  0.16799442305E+03  0.72053593973E+03  0.75496822784E+03  0.47000000000E+01 0.  1.
          5    1    3    3  503    0  0.16762842454E+03 -0.21941329446E+03  0.13093211605E+03  0.30562524685E+03  0.47000000000E+01 0. -1.
         -5    1    3    3    0  503  0.15447465217E+02 -0.17465226212E+02  0.48497736397E+02  0.54016467340E+02  0.47000000000E+01 0.  1.
<mgrwt>
<rscale>  0 0.31533312E+03</rscale>
<asrwt>0</asrwt>
<pdfrwt beam="1">  1        2 0.16952486E-01 0.31655886E+03</pdfrwt>
<pdfrwt beam="2">  1       -2 0.23335998E+00 0.31655886E+03</pdfrwt>
<totfact> 0.30161488E+01</totfact>
</mgrwt>
</event>
<event>
 8    1  0.2964543E-004  0.9088539E+02  0.7546771E-02  0.1305631E+00
         -1   -1    0    0    0  501 -0.00000000000E+00  0.00000000000E+00  0.55824869611E+02  0.55824869611E+02  0.00000000000E+00 0.  1.
          1   -1    0    0  501    0  0.00000000000E+00 -0.00000000000E+00 -0.38282296973E+03  0.38282296973E+03  0.00000000000E+00 0. -1.
         23    2    1    2    0    0 -0.12043104350E+02  0.40491357131E+01  0.10121284658E+02  0.91447218866E+02  0.89992897346E+02 0.  0.
         23    2    1    2    0    0  0.12043104350E+02 -0.40491357131E+01 -0.33711938477E+03  0.34720062047E+03  0.82081419358E+02 0.  0.
          5    1    4    4  502    0  0.30998257329E+02 -0.32444576254E+02 -0.23857760569E+03  0.24280631463E+03  0.47000000000E+01 0. -1.
         -5    1    3    3    0  503  0.30159293757E+02 -0.15148127387E+02  0.25295043745E+02  0.42437931162E+02  0.47000000000E+01 0.  1.
          5    1    3    3  503    0 -0.42202398106E+02  0.19197263100E+02 -0.15173759087E+02  0.49009287704E+02  0.47000000000E+01 0. -1.
         -5    1    4    4    0  502 -0.18955152979E+02  0.28395440541E+02 -0.98541779077E+02  0.10439430584E+03  0.47000000000E+01 0.  1.
<mgrwt>
<rscale>  0 0.88862222E+02</rscale>
<asrwt>0</asrwt>
<pdfrwt beam="1">  1        1 0.58895842E-01 0.90885386E+02</pdfrwt>
<pdfrwt beam="2">  1       -1 0.85884414E-02 0.90885386E+02</pdfrwt>
<totfact> 0.46517200E+03</totfact>
</mgrwt>
</event>
<event>
 8    1  0.2964543E-004  0.9396455E+02  0.7546771E-02  0.1294495E+00
          1   -1    0    0  501    0  0.00000000000E+00  0.00000000000E+00  0.21436604599E+03  0.21436604599E+03  0.00000000000E+00 0. -1.
         -1   -1    0    0    0  501 -0.00000000000E+00 -0.00000000000E+00 -0.75456488914E+02  0.75456488914E+02  0.00000000000E+00 0.  1.
         23    2    1    2    0    0  0.16619368774E+02 -0.13063932373E+02  0.16848377534E+03  0.19291479937E+03  0.91555816391E+02 0.  0.
         23    2    1    2    0    0 -0.16619368774E+02  0.13063932373E+02 -0.29574218265E+02  0.96907735536E+02  0.89830980587E+02 0.  0.
          5    1    4    4  502    0 -0.30552841045E+02 -0.31306960630E+02 -0.23177114606E+02  0.49727965183E+02  0.47000000000E+01 0. -1.
         -5    1    3    3    0  503 -0.30639941867E+02  0.17030657577E+02  0.45020083542E+02  0.57251613578E+02  0.47000000000E+01 0.  1.
          5    1    3    3  503    0  0.47259310641E+02 -0.30094589950E+02  0.12346369180E+03  0.13566318579E+03  0.47000000000E+01 0. -1.
         -5    1    4    4    0  502  0.13933472271E+02  0.44370893002E+02 -0.63971036583E+01  0.47179770353E+02  0.47000000000E+01 0.  1.
<mgrwt>
<rscale>  0 0.93541757E+02</rscale>
<asrwt>0</asrwt>
<pdfrwt beam="1">  1        1 0.32979392E-01 0.93964553E+02</pdfrwt>
<pdfrwt beam="2">  1       -1 0.11608691E-01 0.93964553E+02</pdfrwt>
<totfact> 0.60160168E+03</totfact>
</mgrwt>
</event>
<event>
 8    1  0.2964543E-004  0.9578993E+02  0.7546771E-02  0.1290601E+00
         -1   -1    0    0    0  501 -0.00000000000E+00  0.00000000000E+00  0.63464110668E+01  0.63464110668E+01  0.00000000000E+00 0.  1.
          1   -1    0    0  501    0  0.00000000000E+00 -0.00000000000E+00 -0.14143307074E+04  0.14143307074E+04  0.00000000000E+00 0. -1.
         23    2    1    2    0    0 -0.15799364533E+02 -0.23230694264E+02 -0.70131573334E+03  0.70782728664E+03  0.91577425239E+02 0.  0.
         23    2    1    2    0    0  0.15799364533E+02  0.23230694264E+02 -0.70666856302E+03  0.71284983185E+03  0.89359609053E+02 0.  0.
          5    1    4    4  502    0  0.41013912510E+02  0.43160802959E+02 -0.39441503362E+03  0.39891139953E+03  0.47000000000E+01 0. -1.
         -5    1    3    3    0  503  0.77376939014E+01 -0.54088392902E+02 -0.33880284731E+03  0.34321259520E+03  0.47000000000E+01 0.  1.
          5    1    3    3  503    0 -0.23537058435E+02  0.30857698638E+02 -0.36251288602E+03  0.36461469144E+03  0.47000000000E+01 0. -1.
         -5    1    4    4    0  502 -0.25214547977E+02 -0.19930108696E+02 -0.31225352940E+03  0.31393843232E+03  0.47000000000E+01 0.  1.
<mgrwt>
<rscale>  0 0.95255971E+02</rscale>
<asrwt>0</asrwt>
<pdfrwt beam="1">  1        1 0.21758911E+00 0.95789926E+02</pdfrwt>
<pdfrwt beam="2">  1       -1 0.97637196E-03 0.95789926E+02</pdfrwt>
<totfact> 0.15000544E+04</totfact>
</mgrwt>
</event>
<event>
 8    1  0.2964543E-004  0.1055733E+03  0.7546771E-02  0.1276207E+00
          1   -1    0    0  501    0  0.00000000000E+00  0.00000000000E+00  0.73007705630E+02  0.73007705630E+02  0.00000000000E+00 0. -1.
         -1   -1    0    0    0  501 -0.00000000000E+00 -0.00000000000E+00 -0.21130180678E+03  0.21130180678E+03  0.00000000000E+00 0.  1.
         23    2    1    2    0    0 -0.29648750028E+01  0.56537929671E+01  0.20006584662E+02  0.94033868867E+02  0.91658874123E+02 0.  0.
         23    2    1    2    0    0  0.29648750028E+01 -0.56537929671E+01 -0.15830068581E+03  0.19027564354E+03  0.10538006234E+03 0.  0.
          5    1    3    3  502    0  0.33850797197E+02 -0.25753699962E+02  0.14102353394E+02  0.45056585577E+02  0.47000000000E+01 0. -1.
         -5    1    4    4    0  503 -0.37928618315E+02  0.30535520280E+02 -0.57130807646E+02  0.75213145582E+02  0.47000000000E+01 0.  1.
          5    1    4    4  503    0  0.40893493318E+02 -0.36189313247E+02 -0.10116987816E+03  0.11506249796E+03  0.47000000000E+01 0. -1.
         -5    1    3    3    0  502 -0.36815672200E+02  0.31407492929E+02  0.59042312679E+01  0.48977283290E+02  0.47000000000E+01 0.  1.
<mgrwt>
<rscale>  0 0.10196985E+03</rscale>
<asrwt>0</asrwt>
<pdfrwt beam="1">  1        1 0.11231955E-01 0.10557326E+03</pdfrwt>
<pdfrwt beam="2">  1       -1 0.32507970E-01 0.10557326E+03</pdfrwt>
<totfact> 0.45837214E+03</totfact>
</mgrwt>
</event>
<event>
 8    1  0.2964543E-004  0.9908809E+02  0.7546771E-02  0.1289784E+00
         -1   -1    0    0    0  501 -0.00000000000E+00  0.00000000000E+00  0.16456596030E+02  0.16456596030E+02  0.00000000000E+00 0.  1.
          1   -1    0    0  501    0  0.00000000000E+00 -0.00000000000E+00 -0.88040704526E+03  0.88040704526E+03  0.00000000000E+00 0. -1.
         23    2    1    2    0    0  0.17556763461E+02  0.31207525746E+01 -0.12735623052E+03  0.15363454287E+03  0.84059409167E+02 0.  0.
         23    2    1    2    0    0 -0.17556763461E+02 -0.31207525746E+01 -0.73659421871E+03  0.74322909842E+03  0.97470357894E+02 0.  0.
          5    1    4    4  502    0  0.20211765200E+02  0.34687912075E+02 -0.20589303700E+03  0.20982325748E+03  0.47000000000E+01 0. -1.
         -5    1    3    3    0  503  0.89267483002E+01 -0.40145580774E+02 -0.66275790530E+02  0.78140417846E+02  0.47000000000E+01 0.  1.
          5    1    3    3  503    0  0.86300151609E+01  0.43266333348E+02 -0.61080439990E+02  0.75494125019E+02  0.47000000000E+01 0. -1.
         -5    1    4    4    0  502 -0.37768528661E+02 -0.37808664649E+02 -0.53070118171E+03  0.53340584094E+03  0.47000000000E+01 0.  1.
<mgrwt>
<rscale>  0 0.95620781E+02</rscale>
<asrwt>0</asrwt>
<pdfrwt beam="1">  1        1 0.13544725E+00 0.99088091E+02</pdfrwt>
<pdfrwt beam="2">  1       -1 0.25317838E-02 0.99088091E+02</pdfrwt>
<totfact> 0.90654794E+03</totfact>
</mgrwt>
</event>
<event>
 8    1  0.2964543E-004  0.1208777E+03  0.7546771E-02  0.1254636E+00
          4   -1    0    0  501    0  0.00000000000E+00  0.00000000000E+00  0.15557459789E+03  0.15557459789E+03  0.00000000000E+00 0. -1.
         -4   -1    0    0    0  501 -0.00000000000E+00 -0.00000000000E+00 -0.76098109337E+02  0.76098109337E+02  0.00000000000E+00 0.  1.
         23    2    1    2    0    0  0.36549923236E+01  0.21103154505E+02  0.24062189279E+02  0.12324932983E+03  0.11896514721E+03 0.  0.
         23    2    1    2    0    0 -0.36549923236E+01 -0.21103154505E+02  0.55414299269E+02  0.10842337739E+03  0.90698302648E+02 0.  0.
          5    1    3    3  502    0 -0.23953733796E+02 -0.28027182417E+02  0.48951553980E+02  0.61462581740E+02  0.47000000000E+01 0. -1.
         -5    1    3    3    0  502  0.27608726120E+02  0.49130336922E+02 -0.24889364701E+02  0.61786748088E+02  0.47000000000E+01 0.  1.
          5    1    4    4  503    0 -0.95797554112E+01 -0.54824668511E+02  0.21054167380E+02  0.59689898267E+02  0.47000000000E+01 0. -1.
         -5    1    4    4    0  503  0.59247630876E+01  0.33721514005E+02  0.34360131889E+02  0.48733479128E+02  0.47000000000E+01 0.  1.
<mgrwt>
<rscale>  0 0.11326743E+03</rscale>
<asrwt>0</asrwt>
<pdfrwt beam="1">  1        4 0.23934553E-01 0.12087766E+03</pdfrwt>
<pdfrwt beam="2">  1       -4 0.11707401E-01 0.12087766E+03</pdfrwt>
<totfact> 0.15101565E+03</totfact>
</mgrwt>
</event>
<event>
 8    1  0.2964543E-004  0.1316997E+03  0.7546771E-02  0.1225142E+00
          2   -1    0    0  501    0  0.00000000000E+00  0.00000000000E+00  0.17334379531E+03  0.17334379531E+03  0.00000000000E+00 0. -1.
         -2   -1    0    0    0  501 -0.00000000000E+00 -0.00000000000E+00 -0.19163148223E+03  0.19163148223E+03  0.00000000000E+00 0.  1.
         23    2    1    2    0    0 -0.35155262840E+02  0.87758324576E+02  0.11726179015E+03  0.17633815402E+03  0.91691881295E+02 0.  0.
         23    2    1    2    0    0  0.35155262840E+02 -0.87758324576E+02 -0.13554947707E+03  0.18863712353E+03  0.90955415459E+02 0.  0.
          5    1    4    4  502    0  0.21428227487E+02  0.14238677075E+02 -0.42001103194E+02  0.49478192445E+02  0.47000000000E+01 0. -1.
         -5    1    3    3    0  503 -0.47043992036E+02  0.34198078166E+02  0.15085447279E+02  0.60268619169E+02  0.47000000000E+01 0.  1.
          5    1    3    3  503    0  0.11888729196E+02  0.53560246410E+02  0.10217634287E+03  0.11606953485E+03  0.47000000000E+01 0. -1.
         -5    1    4    4    0  502  0.13727035352E+02 -0.10199700165E+03 -0.93548373877E+02  0.13915893108E+03  0.47000000000E+01 0.  1.
<mgrwt>
<rscale>  0 0.13157162E+03</rscale>
<asrwt>0</asrwt>
<pdfrwt beam="1">  1        2 0.26668276E-01 0.13169972E+03</pdfrwt>
<pdfrwt beam="2">  1       -2 0.29481767E-01 0.13169972E+03</pdfrwt>
<totfact> 0.20508415E+03</totfact>
</mgrwt>
</event>
<event>
 8    1  0.4580650E-004  0.1183633E+03  0.7546771E-02  0.1246205E+00
         -1   -1    0    0    0  501 -0.00000000000E+00  0.00000000000E+00  0.45727755059E+02  0.45727755059E+02  0.00000000000E+00 0.  1.
          1   -1    0    0  501    0  0.00000000000E+00 -0.00000000000E+00 -0.64893928311E+03  0.64893928311E+03  0.00000000000E+00 0. -1.
         23    2    1    2    0    0 -0.50555890417E+02 -0.51743370259E+02 -0.55537129234E+03  0.56784429292E+03  0.93683478956E+02 0.  0.
         23    2    1    2    0    0  0.50555890417E+02  0.51743370259E+02 -0.47840235712E+02  0.12682274525E+03  0.92531325168E+02 0.  0.
          5    1    3    3  502    0 -0.74934434660E+02 -0.51974319516E+02 -0.38547464328E+03  0.39614301710E+03  0.47000000000E+01 0. -1.
         -5    1    4    4    0  503  0.75453597865E+02  0.41163460661E+02 -0.49531104521E+02  0.99313122192E+02  0.47000000000E+01 0.  1.
          5    1    4    4  503    0 -0.24897707449E+02  0.10579909598E+02  0.16908688085E+01  0.27509623055E+02  0.47000000000E+01 0. -1.
         -5    1    3    3    0  502  0.24378544243E+02  0.23094925734E+00 -0.16989664906E+03  0.17170127582E+03  0.47000000000E+01 0.  1.
<mgrwt>
<rscale>  0 0.11813518E+03</rscale>
<asrwt>0</asrwt>
<pdfrwt beam="1">  1        1 0.99836811E-01 0.11836329E+03</pdfrwt>
<pdfrwt beam="2">  1       -1 0.70350393E-02 0.11836329E+03</pdfrwt>
<totfact> 0.32043113E+03</totfact>
</mgrwt>
</event>
<event>
 8    1  0.2964543E-004  0.1004659E+03  0.7546771E-02  0.1282804E+00
          3   -1    0    0  501    0  0.00000000000E+00  0.00000000000E+00  0.39879359794E+03  0.39879359794E+03  0.00000000000E+00 0. -1.
         -3   -1    0    0    0  501 -0.00000000000E+00 -0.00000000000E+00 -0.39815622022E+02  0.39815622022E+02  0.00000000000E+00 0.  1.
         23    2    1    2    0    0 -0.74903375353E+01 -0.16927448724E+02  0.31536657441E+03  0.32908596831E+03  0.92189232600E+02 0.  0.
         23    2    1    2    0    0  0.74903375353E+01  0.16927448724E+02  0.43611401510E+02  0.10952325165E+03  0.98745858821E+02 0.  0.
          5    1    3    3  502    0  0.97720657955E+01 -0.36965839679E+02  0.28861518025E+03  0.29117482522E+03  0.47000000000E+01 0. -1.
         -5    1    3    3    0  502 -0.17262403331E+02  0.20038390954E+02  0.26751394164E+02  0.37911143092E+02  0.47000000000E+01 0.  1.
          5    1    4    4  503    0  0.42144623987E+01 -0.33099641908E+02 -0.10802537469E+02  0.35385488601E+02  0.47000000000E+01 0. -1.
         -5    1    4    4    0  503  0.32758751366E+01  0.50027090633E+02  0.54413938979E+02  0.74137763052E+02  0.47000000000E+01 0.  1.
<mgrwt>
<rscale>  0 0.98816530E+02</rscale>
<asrwt>0</asrwt>
<pdfrwt beam="1">  1        3 0.61352859E-01 0.10046586E+03</pdfrwt>
<pdfrwt beam="2">  1       -3 0.61254806E-02 0.10046586E+03</pdfrwt>
<totfact> 0.94954577E+02</totfact>
</mgrwt>
</event>
<event>
 8    1  0.2964543E-004  0.1272732E+03  0.7546771E-02  0.1232652E+00
         -1   -1    0    0    0  501 -0.00000000000E+00  0.00000000000E+00  0.15343165011E+03  0.15343165011E+03  0.00000000000E+00 0.  1.
          1   -1    0    0  501    0  0.00000000000E+00 -0.00000000000E+00 -0.10478271406E+03  0.10478271406E+03  0.00000000000E+00 0. -1.
         23    2    1    2    0    0  0.84976367518E+02  0.95096975186E+01  0.40267425059E+02  0.13349133560E+03  0.94271171503E+02 0.  0.
         23    2    1    2    0    0 -0.84976367518E+02 -0.95096975186E+01  0.83815109942E+01  0.12472302857E+03  0.90411098577E+02 0.  0.
          5    1    3    3  502    0  0.25839242817E+02 -0.39501835186E+02  0.18209708498E+01  0.47470700303E+02  0.47000000000E+01 0. -1.
         -5    1    4    4    0  503 -0.62938768317E+02  0.26502754368E+02 -0.22663700405E+02  0.72106988998E+02  0.47000000000E+01 0.  1.
          5    1    4    4  503    0 -0.22037599201E+02 -0.36012451887E+02  0.31045211399E+02  0.52616039573E+02  0.47000000000E+01 0. -1.
         -5    1    3    3    0  502  0.59137124701E+02  0.49011532705E+02  0.38446454210E+02  0.86020635299E+02  0.47000000000E+01 0.  1.
<mgrwt>
<rscale>  0 0.12655920E+03</rscale>
<asrwt>0</asrwt>
<pdfrwt beam="1">  1        1 0.16120418E-01 0.12727321E+03</pdfrwt>
<pdfrwt beam="2">  1       -1 0.23604869E-01 0.12727321E+03</pdfrwt>
<totfact> 0.49366526E+03</totfact>
</mgrwt>
</event>
<event>
 8    1  0.2964543E-004  0.9429958E+02  0.7546771E-02  0.1296328E+00
          1   -1    0    0  501    0  0.00000000000E+00  0.00000000000E+00  0.90773006053E+03  0.90773006053E+03  0.00000000000E+00 0. -1.
         -1   -1    0    0    0  501 -0.00000000000E+00 -0.00000000000E+00 -0.95250747672E+01  0.95250747672E+01  0.00000000000E+00 0.  1.
         23    2    1    2    0    0 -0.23077175284E+02  0.40511978566E+01  0.37592065375E+03  0.38756773323E+03  0.91342441929E+02 0.  0.
         23    2    1    2    0    0  0.23077175284E+02 -0.40511978566E+01  0.52228433201E+03  0.52968740207E+03  0.85081444662E+02 0.  0.
          5    1    4    4  502    0  0.54040978628E+02 -0.79376493474E+01  0.27625116074E+03  0.28163846943E+03  0.47000000000E+01 0. -1.
         -5    1    4    4    0  502 -0.30963803344E+02  0.38864514907E+01  0.24603317127E+03  0.24804893264E+03  0.47000000000E+01 0.  1.
          5    1    3    3  503    0 -0.48724200103E+02  0.26923100372E+02  0.28122118247E+03  0.28671648798E+03  0.47000000000E+01 0. -1.
         -5    1    3    3    0  503  0.25647024819E+02 -0.22871902516E+02  0.94699471282E+02  0.10085124525E+03  0.47000000000E+01 0.  1.
<mgrwt>
<rscale>  0 0.92749012E+02</rscale>
<asrwt>0</asrwt>
<pdfrwt beam="1">  1        1 0.13965071E+00 0.94299575E+02</pdfrwt>
<pdfrwt beam="2">  1       -1 0.14653968E-02 0.94299575E+02</pdfrwt>
<totfact> 0.18801582E+04</totfact>
</mgrwt>
</event>
<event>
 8    1  0.2964543E-004  0.9685292E+02  0.7546771E-02  0.1295872E+00
         -1   -1    0    0    0  501 -0.00000000000E+00  0.00000000000E+00  0.39816858562E+03  0.39816858562E+03  0.00000000000E+00 0.  1.
          1   -1    0    0  501    0  0.00000000000E+00 -0.00000000000E+00 -0.25186979688E+02  0.25186979688E+02  0.00000000000E+00 0. -1.
         23    2    1    2    0    0 -0.22624863307E+02  0.15901821593E+02  0.29344821631E+03  0.30901835374E+03  0.92820983203E+02 0.  0.
         23    2    1    2    0    0  0.22624863307E+02 -0.15901821593E+02  0.79533389627E+02  0.11433721157E+03  0.77347821656E+02 0.  0.
          5    1    3    3  502    0  0.35759605773E+02  0.48018954911E+01  0.13169025253E+03  0.13662437637E+03  0.47000000000E+01 0. -1.
         -5    1    3    3    0  502 -0.58384469080E+02  0.11099926102E+02  0.16175796377E+03  0.17239397737E+03  0.47000000000E+01 0.  1.
          5    1    4    4  503    0 -0.16385871559E+01 -0.40214624982E+02  0.19400568218E+02  0.44926307187E+02  0.47000000000E+01 0. -1.
         -5    1    4    4    0  503  0.24263450462E+02  0.24312803389E+02  0.60132821408E+02  0.69410904385E+02  0.47000000000E+01 0.  1.
<mgrwt>
<rscale>  0 0.92945183E+02</rscale>
<asrwt>0</asrwt>
<pdfrwt beam="1">  1        1 0.38749202E-02 0.96852916E+02</pdfrwt>
<pdfrwt beam="2">  1       -1 0.61256701E-01 0.96852916E+02</pdfrwt>
<totfact> 0.61362409E+03</totfact>
</mgrwt>
</event>
<event>
 8    1  0.2964543E-004  0.1031562E+03  0.7546771E-02  0.1275856E+00
         -3   -1    0    0    0  501 -0.00000000000E+00  0.00000000000E+00  0.73673462998E+03  0.73673462998E+03  0.00000000000E+00 0.  1.
          3   -1    0    0  501    0  0.00000000000E+00 -0.00000000000E+00 -0.17505917421E+02  0.17505917421E+02  0.00000000000E+00 0. -1.
         23    2    1    2    0    0  0.33660053841E+02 -0.22552260610E+02  0.52536188776E+03  0.53463737690E+03  0.90500872834E+02 0.  0.
         23    2    1    2    0    0 -0.33660053841E+02  0.22552260610E+02  0.19386682480E+03  0.21960317050E+03  0.94866237688E+02 0.  0.
          5    1    4    4  502    0 -0.56425535372E+02  0.15155421806E+02  0.61310576303E+02  0.84821015196E+02  0.47000000000E+01 0. -1.
         -5    1    4    4    0  502  0.22765481531E+02  0.73968388037E+01  0.13255624849E+03  0.13478215530E+03  0.47000000000E+01 0.  1.
          5    1    3    3  503    0 -0.42994413872E+01  0.31727179356E+02  0.19521227701E+03  0.19787628003E+03  0.47000000000E+01 0. -1.
         -5    1    3    3    0  503  0.37959495228E+02 -0.54279439966E+02  0.33014961075E+03  0.33676109687E+03  0.47000000000E+01 0.  1.
<mgrwt>
<rscale>  0 0.10214142E+03</rscale>
<asrwt>0</asrwt>
<pdfrwt beam="1">  1        3 0.26932186E-02 0.10315622E+03</pdfrwt>
<pdfrwt beam="2">  1       -3 0.11334377E+00 0.10315622E+03</pdfrwt>
<totfact> 0.90027793E+02</totfact>
</mgrwt>
</event>
<event>
 8    1  0.2964543E-004  0.1718204E+03  0.7546771E-02  0.1175980E+00
          1   -1    0    0  501    0  0.00000000000E+00  0.00000000000E+00  0.14225188925E+03  0.14225188925E+03  0.00000000000E+00 0. -1.
         -1   -1    0    0    0  501 -0.00000000000E+00 -0.00000000000E+00 -0.21592870976E+03  0.21592870976E+03  0.00000000000E+00 0.  1.
         23    2    1    2    0    0 -0.96391103998E+02  0.10904650316E+03 -0.72311338361E+02  0.18635480920E+03  0.91196493769E+02 0.  0.
         23    2    1    2    0    0  0.96391103998E+02 -0.10904650316E+03 -0.13654821504E+01  0.17182578981E+03  0.91322794092E+02 0.  0.
          5    1    4    4  502    0  0.81381575964E+02 -0.23682217363E+02  0.26873490905E+01  0.84930089902E+02  0.47000000000E+01 0. -1.
         -5    1    4    4    0  502  0.15009528033E+02 -0.85364285795E+02 -0.40528312409E+01  0.86895699906E+02  0.47000000000E+01 0.  1.
          5    1    3    3  503    0 -0.70606267181E+02  0.71009030234E+02  0.35581120541E+00  0.10024841117E+03  0.47000000000E+01 0. -1.
         -5    1    3    3    0  503 -0.25784836817E+02  0.38037472924E+02 -0.72667149566E+02  0.86106398032E+02  0.47000000000E+01 0.  1.
<mgrwt>
<rscale>  0 0.17180359E+03</rscale>
<asrwt>0</asrwt>
<pdfrwt beam="1">  1        1 0.21884906E-01 0.17182036E+03</pdfrwt>
<pdfrwt beam="2">  1       -1 0.33219801E-01 0.17182036E+03</pdfrwt>
<totfact> 0.19150000E+03</totfact>
</mgrwt>
</event>
<event>
 8    1  0.2964543E-004  0.9951823E+02  0.7546771E-02  0.1283412E+00
         -2   -1    0    0    0  501 -0.00000000000E+00  0.00000000000E+00  0.40478878271E+03  0.40478878271E+03  0.00000000000E+00 0.  1.
          2   -1    0    0  501    0  0.00000000000E+00 -0.00000000000E+00 -0.24169270103E+02  0.24169270103E+02  0.00000000000E+00 0. -1.
         23    2    1    2    0    0 -0.41961326794E+02  0.87163978691E+01  0.15150830834E+03  0.17916649527E+03  0.85493490945E+02 0.  0.
         23    2    1    2    0    0  0.41961326794E+02 -0.87163978691E+01  0.22911120426E+03  0.24979155754E+03  0.89817313254E+02 0.  0.
          5    1    4    4  502    0  0.37673937665E+02  0.28432100137E+02  0.59753338901E+02  0.76290637743E+02  0.47000000000E+01 0. -1.
         -5    1    3    3    0  503  0.35931291304E+01 -0.32946787061E+02  0.59442504389E+02  0.68219518340E+02  0.47000000000E+01 0.  1.
          5    1    3    3  503    0 -0.45554455924E+02  0.41663184930E+02  0.92065803949E+02  0.11094697693E+03  0.47000000000E+01 0. -1.
         -5    1    4    4    0  502  0.42873891283E+01 -0.37148498006E+02  0.16935786536E+03  0.17350091980E+03  0.47000000000E+01 0.  1.
<mgrwt>
<rscale>  0 0.98532633E+02</rscale>
<asrwt>0</asrwt>
<pdfrwt beam="1">  1        2 0.37183495E-02 0.99518231E+02</pdfrwt>
<pdfrwt beam="2">  1       -2 0.62275192E-01 0.99518231E+02</pdfrwt>
<totfact> 0.52671634E+03</totfact>
</mgrwt>
</event>
<event>
 7    1  0.3001043E-004  0.6695528E+03  0.7546771E-02  0.9770766E-01
          2   -1    0    0  501    0  0.00000000000E+00  0.00000000000E+00  0.22352468468E+04  0.22352468468E+04  0.00000000000E+00 0. -1.
         -2   -1    0    0    0  501 -0.00000000000E+00 -0.00000000000E+00 -0.50139977667E+02  0.50139977667E+02  0.00000000000E+00 0.  1.
         23    2    1    2    0    0  0.13272634970E+03 -0.15427404785E+03  0.86311919578E+03  0.89158538508E+03  0.92374168537E+02 0.  0.
          5    1    1    2  502    0 -0.58288624061E+02 -0.12711968436E+03  0.58264943140E+03  0.59921567716E+03  0.47000000000E+01 0. -1.
         -5    1    1    2    0  502 -0.74437725638E+02  0.28139373221E+03  0.73933824200E+03  0.79458576227E+03  0.47000000000E+01 0.  1.
          5    1    3    3  503    0  0.97523996967E+02 -0.80534115260E+02  0.66981636297E+03  0.68166907206E+03  0.47000000000E+01 0. -1.
         -5    1    3    3    0  503  0.35202352731E+02 -0.73739932594E+02  0.19330283281E+03  0.20991631301E+03  0.47000000000E+01 0.  1.
<mgrwt>
<rscale>  0 0.66955277E+03</rscale>
<asrwt>0</asrwt>
<pdfrwt beam="1">  1        2 0.34388405E+00 0.66955277E+03</pdfrwt>
<pdfrwt beam="2">  1       -2 0.77138444E-02 0.66955277E+03</pdfrwt>
<totfact> 0.53320463E+02</totfact>
</mgrwt>
</event>
<event>
 8    1  0.2964543E-004  0.9334741E+02  0.7546771E-02  0.1295172E+00
          2   -1    0    0  501    0  0.00000000000E+00  0.00000000000E+00  0.41517493008E+03  0.41517493008E+03  0.00000000000E+00 0. -1.
         -2   -1    0    0    0  501 -0.00000000000E+00 -0.00000000000E+00 -0.33148988739E+02  0.33148988739E+02  0.00000000000E+00 0.  1.
         23    2    1    2    0    0 -0.22221788550E+02  0.97162681364E+00  0.32753795995E+03  0.34058017260E+03  0.90658627917E+02 0.  0.
         23    2    1    2    0    0  0.22221788550E+02 -0.97162681364E+00  0.54487981400E+02  0.10774374623E+03  0.90249779994E+02 0.  0.
          5    1    3    3  502    0  0.33735275339E+02 -0.99650109891E+00  0.16842444886E+03  0.17183697736E+03  0.47000000000E+01 0. -1.
         -5    1    3    3    0  502 -0.55957063889E+02  0.19681279125E+01  0.15911351109E+03  0.16874319523E+03  0.47000000000E+01 0.  1.
          5    1    4    4  503    0  0.42221976111E+02 -0.26739075120E+02  0.55421607939E+02  0.74775116392E+02  0.47000000000E+01 0. -1.
         -5    1    4    4    0  503 -0.20000187561E+02  0.25767448306E+02 -0.93362653898E+00  0.32968629835E+02  0.47000000000E+01 0.  1.
<mgrwt>
<rscale>  0 0.93247995E+02</rscale>
<asrwt>0</asrwt>
<pdfrwt beam="1">  1        2 0.63873062E-01 0.93347409E+02</pdfrwt>
<pdfrwt beam="2">  1       -2 0.50998447E-02 0.93347409E+02</pdfrwt>
<totfact> 0.13320527E+04</totfact>
</mgrwt>
</event>
<event>
 8    1  0.2964543E-004  0.1120695E+03  0.7546771E-02  0.1256862E+00
         -2   -1    0    0    0  501 -0.00000000000E+00  0.00000000000E+00  0.50723147562E+02  0.50723147562E+02  0.00000000000E+00 0.  1.
          2   -1    0    0  501    0  0.00000000000E+00 -0.00000000000E+00 -0.26761873837E+03  0.26761873837E+03  0.00000000000E+00 0. -1.
         23    2    1    2    0    0 -0.59475694026E+02  0.23970680066E+02 -0.15230214854E+03  0.18899010239E+03  0.91702577220E+02 0.  0.
         23    2    1    2    0    0  0.59475694026E+02 -0.23970680066E+02 -0.64593442269E+02  0.12935178354E+03  0.91910932097E+02 0.  0.
          5    1    3    3  502    0 -0.17939272547E+02 -0.29140768236E+02 -0.18732837366E+02  0.39293906254E+02  0.47000000000E+01 0. -1.
         -5    1    4    4    0  503  0.33879939332E+02  0.19967461397E+02  0.81865537362E+01  0.40443287031E+02  0.47000000000E+01 0.  1.
          5    1    4    4  503    0  0.25595754694E+02 -0.43938141463E+02 -0.72779996005E+02  0.88908496512E+02  0.47000000000E+01 0. -1.
         -5    1    3    3    0  502 -0.41536421479E+02  0.53111448302E+02 -0.13356931117E+03  0.14969619614E+03  0.47000000000E+01 0.  1.
<mgrwt>
<rscale>  0 0.11202676E+03</rscale>
<asrwt>0</asrwt>
<pdfrwt beam="1">  1        2 0.41172113E-01 0.11206949E+03</pdfrwt>
<pdfrwt beam="2">  1       -2 0.78035613E-02 0.11206949E+03</pdfrwt>
<totfact> 0.11299747E+04</totfact>
</mgrwt>
</event>
<event>
 8    1  0.2964543E-004  0.1006879E+03  0.7546771E-02  0.1279302E+00
          2   -1    0    0  501    0  0.00000000000E+00  0.00000000000E+00  0.69821209714E+02  0.69821209714E+02  0.00000000000E+00 0. -1.
         -2   -1    0    0    0  501 -0.00000000000E+00 -0.00000000000E+00 -0.14495374564E+03  0.14495374564E+03  0.00000000000E+00 0.  1.
         23    2    1    2    0    0 -0.39314569697E+02  0.18048791285E+02 -0.46555144572E+02  0.11092987987E+03  0.90921188426E+02 0.  0.
         23    2    1    2    0    0  0.39314569697E+02 -0.18048791285E+02 -0.28577391357E+02  0.10384507548E+03  0.89976319931E+02 0.  0.
          5    1    3    3  502    0  0.33495049705E+01  0.27677492005E+02  0.17480856051E+02  0.33240533622E+02  0.47000000000E+01 0. -1.
         -5    1    3    3    0  502 -0.42664074668E+02 -0.96287007191E+01 -0.64036000623E+02  0.77689346249E+02  0.47000000000E+01 0.  1.
          5    1    4    4  503    0  0.18239413619E+02 -0.51968402574E+02 -0.13655271481E+01  0.55293270293E+02  0.47000000000E+01 0. -1.
         -5    1    4    4    0  503  0.21075156078E+02  0.33919611289E+02 -0.27211864209E+02  0.48551805192E+02  0.47000000000E+01 0.  1.
<mgrwt>
<rscale>  0 0.10047414E+03</rscale>
<asrwt>0</asrwt>
<pdfrwt beam="1">  1        2 0.10741725E-01 0.10068792E+03</pdfrwt>
<pdfrwt beam="2">  1       -2 0.22300576E-01 0.10068792E+03</pdfrwt>
<totfact> 0.93247755E+03</totfact>
</mgrwt>
</event>
<event>
 8    1  0.2964543E-004  0.9182765E+02  0.7546771E-02  0.1298497E+00
          1   -1    0    0  501    0  0.00000000000E+00  0.00000000000E+00  0.41817514231E+02  0.41817514231E+02  0.00000000000E+00 0. -1.
         -1   -1    0    0    0  501 -0.00000000000E+00 -0.00000000000E+00 -0.37896437677E+03  0.37896437677E+03  0.00000000000E+00 0.  1.
         23    2    1    2    0    0 -0.16921558859E+02 -0.13694271416E+01 -0.31251624331E+03  0.32572798484E+03  0.90244685645E+02 0.  0.
         23    2    1    2    0    0  0.16921558859E+02  0.13694271416E+01 -0.24630619233E+02  0.95053906169E+02  0.90223961281E+02 0.  0.
          5    1    4    4  502    0  0.51418039448E+02 -0.16206560296E+01 -0.29943714134E+02  0.59708938383E+02  0.47000000000E+01 0. -1.
         -5    1    4    4    0  502 -0.34496480589E+02  0.29900831712E+01  0.53130949013E+01  0.35344967786E+02  0.47000000000E+01 0.  1.
          5    1    3    3  503    0 -0.36611697239E+02  0.32025889415E+02 -0.12552071950E+03  0.13469823678E+03  0.47000000000E+01 0. -1.
         -5    1    3    3    0  503  0.19690138380E+02 -0.33395316557E+02 -0.18699552381E+03  0.19102974806E+03  0.47000000000E+01 0.  1.
<mgrwt>
<rscale>  0 0.91822560E+02</rscale>
<asrwt>0</asrwt>
<pdfrwt beam="1">  1        1 0.64334640E-02 0.91827653E+02</pdfrwt>
<pdfrwt beam="2">  1       -1 0.58302209E-01 0.91827653E+02</pdfrwt>
<totfact> 0.33797922E+03</totfact>
</mgrwt>
</event>
<event>
 8    1  0.2964543E-004  0.1081122E+03  0.7546771E-02  0.1264226E+00
          2   -1    0    0  501    0  0.00000000000E+00  0.00000000000E+00  0.69923987972E+03  0.69923987972E+03  0.00000000000E+00 0. -1.
         -2   -1    0    0    0  501 -0.00000000000E+00 -0.00000000000E+00 -0.17207548416E+02  0.17207548416E+02  0.00000000000E+00 0.  1.
         23    2    1    2    0    0  0.49467232910E+02  0.29924596113E+02  0.27848498286E+03  0.29873420616E+03  0.91355085602E+02 0.  0.
         23    2    1    2    0    0 -0.49467232910E+02 -0.29924596113E+02  0.40354734844E+03  0.41771322198E+03  0.91057041438E+02 0.  0.
          5    1    4    4  502    0 -0.63480523852E+02  0.51371672422E+01  0.31381408603E+03  0.32024605850E+03  0.47000000000E+01 0. -1.
         -5    1    4    4    0  502  0.14013290941E+02 -0.35061763355E+02  0.89733262412E+02  0.97467163474E+02  0.47000000000E+01 0.  1.
          5    1    3    3  503    0 -0.63953868623E+01  0.47982626055E+02  0.11070277732E+03  0.12091496302E+03  0.47000000000E+01 0. -1.
         -5    1    3    3    0  503  0.55862619773E+02 -0.18058029942E+02  0.16778220554E+03  0.17781924314E+03  0.47000000000E+01 0.  1.
<mgrwt>
<rscale>  0 0.10804918E+03</rscale>
<asrwt>0</asrwt>
<pdfrwt beam="1">  1        2 0.10757534E+00 0.10811217E+03</pdfrwt>
<pdfrwt beam="2">  1       -2 0.26473157E-02 0.10811217E+03</pdfrwt>
<totfact> 0.19892295E+04</totfact>
</mgrwt>
</event>
<event>
 8    1  0.2964543E-004  0.9335064E+02  0.7546771E-02  0.1295172E+00
          1   -1    0    0  501    0  0.00000000000E+00  0.00000000000E+00  0.19606136173E+03  0.19606136173E+03  0.00000000000E+00 0. -1.
         -1   -1    0    0    0  501 -0.00000000000E+00 -0.00000000000E+00 -0.45207392291E+02  0.45207392291E+02  0.00000000000E+00 0.  1.
         23    2    1    2    0    0  0.15384822357E+02 -0.25524435950E+01  0.93130359747E+02  0.13186206841E+03  0.92038760598E+02 0.  0.
         23    2    1    2    0    0 -0.15384822357E+02  0.25524435950E+01  0.57723609696E+02  0.10940668561E+03  0.91622049819E+02 0.  0.
          5    1    4    4  502    0  0.28400759557E+02 -0.20517730926E+02  0.46551454515E+02  0.58452616223E+02  0.47000000000E+01 0. -1.
         -5    1    4    4    0  502 -0.43785581914E+02  0.23070174521E+02  0.11172155181E+02  0.50954069390E+02  0.47000000000E+01 0.  1.
          5    1    3    3  503    0  0.25972270757E+02  0.19108610372E+02 -0.29245462796E+01  0.32716063479E+02  0.47000000000E+01 0. -1.
         -5    1    3    3    0  503 -0.10587448401E+02 -0.21661053967E+02  0.96054906027E+02  0.99146004934E+02  0.47000000000E+01 0.  1.
<mgrwt>
<rscale>  0 0.93247759E+02</rscale>
<asrwt>0</asrwt>
<pdfrwt beam="1">  1        1 0.30163286E-01 0.93350636E+02</pdfrwt>
<pdfrwt beam="2">  1       -1 0.69549836E-02 0.93350636E+02</pdfrwt>
<totfact> 0.14488386E+04</totfact>
</mgrwt>
</event>
<event>
 8    1  0.2964543E-004  0.1093028E+03  0.7546771E-02  0.1262274E+00
          2   -1    0    0  501    0  0.00000000000E+00  0.00000000000E+00  0.47244084423E+03  0.47244084423E+03  0.00000000000E+00 0.  1.
         -2   -1    0    0    0  501 -0.00000000000E+00 -0.00000000000E+00 -0.28705465459E+02  0.28705465459E+02  0.00000000000E+00 0. -1.
         23    2    1    2    0    0 -0.88749186176E+01 -0.58800878574E+02  0.31005143896E+03  0.32846597102E+03  0.90673545291E+02 0.  0.
         23    2    1    2    0    0  0.88749186176E+01  0.58800878574E+02  0.13368393980E+03  0.17268033866E+03  0.91710392525E+02 0.  0.
          5    1    3    3  502    0 -0.47563847857E+02 -0.18117500542E+02  0.16964399081E+03  0.17717713471E+03  0.47000000000E+01 0. -1.
         -5    1    3    3    0  502  0.38688929240E+02 -0.40683378032E+02  0.14040744816E+03  0.15128883631E+03  0.47000000000E+01 0.  1.
          5    1    4    4  503    0 -0.15166932580E+02  0.49073190932E+02  0.18936291241E+02  0.54944399515E+02  0.47000000000E+01 0. -1.
         -5    1    4    4    0  503  0.24041851197E+02  0.97276876420E+01  0.11474764856E+03  0.11773593915E+03  0.47000000000E+01 0.  1.
<mgrwt>
<rscale>  0 0.10908503E+03</rscale>
<asrwt>0</asrwt>
<pdfrwt beam="1">  1        2 0.72683201E-01 0.10930281E+03</pdfrwt>
<pdfrwt beam="2">  1       -2 0.44162258E-02 0.10930281E+03</pdfrwt>
<totfact> 0.14571162E+04</totfact>
</mgrwt>
</event>
<event>
 8    1  0.2964543E-004  0.1298103E+03  0.7546771E-02  0.1228751E+00
         -2   -1    0    0    0  501 -0.00000000000E+00  0.00000000000E+00  0.28205244703E+02  0.28205244703E+02  0.00000000000E+00 0.  1.
          2   -1    0    0  501    0  0.00000000000E+00 -0.00000000000E+00 -0.58596705275E+03  0.58596705275E+03  0.00000000000E+00 0. -1.
         23    2    1    2    0    0  0.64321143130E+02  0.65133759148E+02 -0.29370670408E+03  0.32111421316E+03  0.92038545381E+02 0.  0.
         23    2    1    2    0    0 -0.64321143130E+02 -0.65133759148E+02 -0.26405510396E+03  0.29305808429E+03  0.88194823009E+02 0.  0.
          5    1    3    3  502    0  0.62272551033E+02  0.27499950407E+02 -0.85104579894E+02  0.10908252566E+03  0.47000000000E+01 0. -1.
         -5    1    3    3    0  502  0.20485920978E+01  0.37633808741E+02 -0.20860212418E+03  0.21203168750E+03  0.47000000000E+01 0.  1.
          5    1    4    4  503    0 -0.78023597082E+02 -0.22646640761E+02 -0.18583905069E+03  0.20287630419E+03  0.47000000000E+01 0. -1.
         -5    1    4    4    0  503  0.13702453952E+02 -0.42487118388E+02 -0.78216053272E+02  0.90181780103E+02  0.47000000000E+01 0.  1.
<mgrwt>
<rscale>  0 0.12913087E+03</rscale>
<asrwt>0</asrwt>
<pdfrwt beam="1">  1        2 0.90148773E-01 0.12981028E+03</pdfrwt>
<pdfrwt beam="2">  1       -2 0.43392686E-02 0.12981028E+03</pdfrwt>
<totfact> 0.11956017E+04</totfact>
</mgrwt>
</event>
<event>
 8    1  0.2964543E-004  0.9959928E+02  0.7546771E-02  0.1281581E+00
         -1   -1    0    0    0  501 -0.00000000000E+00  0.00000000000E+00  0.42160823996E+03  0.42160823996E+03  0.00000000000E+00 0.  1.
          1   -1    0    0  501    0  0.00000000000E+00 -0.00000000000E+00 -0.23409886020E+02  0.23409886020E+02  0.00000000000E+00 0. -1.
         23    2    1    2    0    0 -0.31928359745E+02  0.22668635703E+02  0.18722155382E+03  0.21206585307E+03  0.91579083965E+02 0.  0.
         23    2    1    2    0    0  0.31928359745E+02 -0.22668635703E+02  0.21097680011E+03  0.23295227291E+03  0.90676700800E+02 0.  0.
          5    1    3    3  502    0  0.53097506100E+00 -0.22892756811E+02  0.87283896257E+01  0.24952655858E+02  0.47000000000E+01 0. -1.
         -5    1    4    4    0  503  0.42586228477E+02  0.19334748717E+02  0.15520966654E+03  0.16217135984E+03  0.47000000000E+01 0.  1.
          5    1    4    4  503    0 -0.10657868732E+02 -0.42003384420E+02  0.55767133569E+02  0.70780913071E+02  0.47000000000E+01 0. -1.
         -5    1    3    3    0  502 -0.32459334806E+02  0.45561392514E+02  0.17849316420E+03  0.18711319721E+03  0.47000000000E+01 0.  1.
<mgrwt>
<rscale>  0 0.99391356E+02</rscale>
<asrwt>0</asrwt>
<pdfrwt beam="1">  1        1 0.36015212E-02 0.99599276E+02</pdfrwt>
<pdfrwt beam="2">  1       -1 0.64862800E-01 0.99599276E+02</pdfrwt>
<totfact> 0.60949584E+03</totfact>
</mgrwt>
</event>
<event>
 8    1  0.3408329E-004  0.9768685E+02  0.7546771E-02  0.1285444E+00
          4   -1    0    0  501    0  0.00000000000E+00  0.00000000000E+00  0.17841428313E+03  0.17841428313E+03  0.00000000000E+00 0. -1.
         -4   -1    0    0    0  501 -0.00000000000E+00 -0.00000000000E+00 -0.14264635827E+03  0.14264635827E+03  0.00000000000E+00 0.  1.
         23    2    1    2    0    0  0.22856788299E+02  0.26149808462E+02  0.14496030888E+03  0.17480334923E+03  0.91304296174E+02 0.  0.
         23    2    1    2    0    0 -0.22856788299E+02 -0.26149808462E+02 -0.10919238401E+03  0.14625729217E+03  0.90895398859E+02 0.  0.
          5    1    3    3  502    0  0.47735384451E+02  0.44421770161E+02  0.10972145305E+03  0.12772175951E+03  0.47000000000E+01 0. -1.
         -5    1    3    3    0  502 -0.24878596152E+02 -0.18271961700E+02  0.35238855824E+02  0.47081589721E+02  0.47000000000E+01 0.  1.
          5    1    4    4  503    0  0.10408328293E+02  0.21692118690E+02 -0.25555236968E+01  0.24647555913E+02  0.47000000000E+01 0. -1.
         -5    1    4    4    0  503 -0.33265116592E+02 -0.47841927152E+02 -0.10663686032E+03  0.12160973626E+03  0.47000000000E+01 0.  1.
<mgrwt>
<rscale>  0 0.97591187E+02</rscale>
<asrwt>0</asrwt>
<pdfrwt beam="1">  1        4 0.27448351E-01 0.97686845E+02</pdfrwt>
<pdfrwt beam="2">  1       -4 0.21945594E-01 0.97686845E+02</pdfrwt>
<totfact> 0.37245259E+02</totfact>
</mgrwt>
</event>
<event>
 8    1  0.7433575E-004  0.1099535E+03  0.7546771E-02  0.1262559E+00
          1   -1    0    0  501    0  0.00000000000E+00  0.00000000000E+00  0.51237339636E+03  0.51237339636E+03  0.00000000000E+00 0. -1.
         -1   -1    0    0    0  501 -0.00000000000E+00 -0.00000000000E+00 -0.17584142358E+03  0.17584142358E+03  0.00000000000E+00 0.  1.
         23    2    1    2    0    0 -0.53890900069E+02  0.22917903028E+02  0.48894058579E+03  0.50028357595E+03  0.88268343955E+02 0.  0.
         23    2    1    2    0    0  0.53890900069E+02 -0.22917903028E+02 -0.15240861301E+03  0.18793124398E+03  0.93060774525E+02 0.  0.
          5    1    4    4  502    0  0.12808126265E+02 -0.53434224649E+02 -0.55510220106E+02  0.78247932870E+02  0.47000000000E+01 0. -1.
         -5    1    3    3    0  503  0.11210065935E+02  0.36999692117E+02  0.19559077795E+03  0.19943040193E+03  0.47000000000E+01 0.  1.
          5    1    3    3  503    0 -0.65100966005E+02 -0.14081789090E+02  0.29334980785E+03  0.30085317403E+03  0.47000000000E+01 0. -1.
         -5    1    4    4    0  502  0.41082773805E+02  0.30516321621E+02 -0.96898392908E+02  0.10968331111E+03  0.47000000000E+01 0.  1.
<mgrwt>
<rscale>  0 0.10893301E+03</rscale>
<asrwt>0</asrwt>
<pdfrwt beam="1">  1        1 0.78826676E-01 0.10995348E+03</pdfrwt>
<pdfrwt beam="2">  1       -1 0.27052527E-01 0.10995348E+03</pdfrwt>
<totfact> 0.53914296E+02</totfact>
</mgrwt>
</event>
<event>
 8    1  0.2964543E-004  0.9350615E+02  0.7546771E-02  0.1294970E+00
          1   -1    0    0  501    0  0.00000000000E+00  0.00000000000E+00  0.95690301693E+02  0.95690301693E+02  0.00000000000E+00 0. -1.
         -1   -1    0    0    0  501 -0.00000000000E+00 -0.00000000000E+00 -0.19175640139E+03  0.19175640139E+03  0.00000000000E+00 0.  1.
         23    2    1    2    0    0  0.96456672337E+01 -0.18260341109E+02 -0.15244813191E+03  0.17884024229E+03  0.91197151189E+02 0.  0.
         23    2    1    2    0    0 -0.96456672337E+01  0.18260341109E+02  0.56382032220E+02  0.10860646079E+03  0.90498347024E+02 0.  0.
          5    1    3    3  502    0  0.33865987740E+02  0.20139105457E+02 -0.35282354733E+02  0.53098241494E+02  0.47000000000E+01 0. -1.
         -5    1    4    4    0  503  0.12507735114E+02 -0.31329810509E+02  0.64221142870E+01  0.34660265667E+02  0.47000000000E+01 0.  1.
          5    1    4    4  503    0 -0.22153402348E+02  0.49590151618E+02  0.49959917933E+02  0.73946195122E+02  0.47000000000E+01 0. -1.
         -5    1    3    3    0  502 -0.24220320507E+02 -0.38399446567E+02 -0.11716577718E+03  0.12574200080E+03  0.47000000000E+01 0.  1.
<mgrwt>
<rscale>  0 0.93335323E+02</rscale>
<asrwt>0</asrwt>
<pdfrwt beam="1">  1        1 0.14721585E-01 0.93506146E+02</pdfrwt>
<pdfrwt beam="2">  1       -1 0.29500985E-01 0.93506146E+02</pdfrwt>
<totfact> 0.37677565E+03</totfact>
</mgrwt>
</event>
<event>
 8    1  0.2964543E-004  0.1020861E+03  0.7546771E-02  0.1281524E+00
         -1   -1    0    0    0  501 -0.00000000000E+00  0.00000000000E+00  0.12843076439E+02  0.12843076439E+02  0.00000000000E+00 0.  1.
          1   -1    0    0  501    0  0.00000000000E+00 -0.00000000000E+00 -0.92837754605E+03  0.92837754605E+03  0.00000000000E+00 0. -1.
         23    2    1    2    0    0 -0.40744888936E+02 -0.19056172270E+02 -0.22243680589E+03  0.24064518859E+03  0.80054297218E+02 0.  0.
         23    2    1    2    0    0  0.40744888936E+02  0.19056172270E+02 -0.69309766373E+03  0.70057543390E+03  0.91642148847E+02 0.  0.
          5    1    4    4  502    0  0.48626176621E+02  0.42931261387E+02 -0.61423812791E+03  0.61767156810E+03  0.47000000000E+01 0. -1.
         -5    1    3    3    0  503 -0.45324686741E+02  0.14395277992E+02 -0.72148694338E+02  0.86539443905E+02  0.47000000000E+01 0.  1.
          5    1    3    3  503    0  0.45797978050E+01 -0.33451450262E+02 -0.15028811155E+03  0.15410574469E+03  0.47000000000E+01 0. -1.
         -5    1    4    4    0  502 -0.78812876847E+01 -0.23875089116E+02 -0.78859535811E+02  0.82903865798E+02  0.47000000000E+01 0.  1.
<mgrwt>
<rscale>  0 0.99418234E+02</rscale>
<asrwt>0</asrwt>
<pdfrwt beam="1">  1        1 0.14282730E+00 0.10208608E+03</pdfrwt>
<pdfrwt beam="2">  1       -1 0.19758581E-02 0.10208608E+03</pdfrwt>
<totfact> 0.11923062E+04</totfact>
</mgrwt>
</event>
<event>
 8    1  0.2964543E-004  0.9391719E+02  0.7546771E-02  0.1294292E+00
         -1   -1    0    0    0  501 -0.00000000000E+00  0.00000000000E+00  0.74089576549E+02  0.74089576549E+02  0.00000000000E+00 0.  1.
          1   -1    0    0  501    0  0.00000000000E+00 -0.00000000000E+00 -0.12132821709E+03  0.12132821709E+03  0.00000000000E+00 0. -1.
         23    2    1    2    0    0  0.20241169566E+02 -0.31705829913E+01 -0.40872903582E+02  0.10242574142E+03  0.91655227439E+02 0.  0.
         23    2    1    2    0    0 -0.20241169566E+02  0.31705829913E+01 -0.63657369608E+01  0.92992052218E+02  0.90483377627E+02 0.  0.
          5    1    4    4  502    0  0.11221948967E+02  0.38535927351E+02 -0.17660487383E+02  0.44101390568E+02  0.47000000000E+01 0. -1.
         -5    1    4    4    0  502 -0.31463118533E+02 -0.35365344359E+02  0.11294750423E+02  0.48890661650E+02  0.47000000000E+01 0.  1.
          5    1    3    3  503    0 -0.17902007962E+02  0.28079166392E+02  0.60796223126E+01  0.34175624088E+02  0.47000000000E+01 0. -1.
         -5    1    3    3    0  503  0.38143177528E+02 -0.31249749383E+02 -0.46952525894E+02  0.68250117335E+02  0.47000000000E+01 0.  1.
<mgrwt>
<rscale>  0 0.93630056E+02</rscale>
<asrwt>0</asrwt>
<pdfrwt beam="1">  1        1 0.18665880E-01 0.93917188E+02</pdfrwt>
<pdfrwt beam="2">  1       -1 0.11398396E-01 0.93917188E+02</pdfrwt>
<totfact> 0.12542719E+04</totfact>
</mgrwt>
</event>
<event>
 7    1  0.2964543E-004  0.2385688E+03  0.7546771E-02  0.1126182E+00
         -1   -1    0    0    0  501 -0.00000000000E+00  0.00000000000E+00  0.10689746653E+03  0.10689746653E+03  0.00000000000E+00 0.  1.
          1   -1    0    0  501    0  0.00000000000E+00 -0.00000000000E+00 -0.49692006848E+03  0.49692006848E+03  0.00000000000E+00 0. -1.
         23    2    1    2    0    0 -0.92642618394E+02 -0.16397355482E+03 -0.25618995334E+03  0.33027364373E+03  0.89316326203E+02 0.  0.
          5    1    3    3  502    0 -0.32683304204E+02 -0.48563957366E+01 -0.73102098179E+02  0.80360374012E+02  0.47000000000E+01 0. -1.
         -5    1    1    2    0  503  0.20988226771E+02 -0.24905301589E+02 -0.35068495753E+01  0.33093318119E+02  0.47000000000E+01 0.  1.
          5    1    1    2  503    0  0.71654391624E+02  0.18887885641E+03 -0.13032579903E+03  0.24045057316E+03  0.47000000000E+01 0. -1.
         -5    1    3    3    0  502 -0.59959314190E+02 -0.15911715908E+03 -0.18308785516E+03  0.24991326972E+03  0.47000000000E+01 0.  1.
<mgrwt>
<rscale>  0 0.23065120E+03</rscale>
<asrwt>0</asrwt>
<pdfrwt beam="1">  1        1 0.76449241E-01 0.23856882E+03</pdfrwt>
<pdfrwt beam="2">  1       -1 0.16445764E-01 0.23856882E+03</pdfrwt>
<totfact> 0.12614955E+03</totfact>
</mgrwt>
</event>
<event>
 8    1  0.2964543E-004  0.1141255E+03  0.7546771E-02  0.1253703E+00
         -3   -1    0    0    0  501 -0.00000000000E+00  0.00000000000E+00  0.35789141574E+02  0.35789141574E+02  0.00000000000E+00 0.  1.
          3   -1    0    0  501    0  0.00000000000E+00 -0.00000000000E+00 -0.49880930910E+03  0.49880930910E+03  0.00000000000E+00 0. -1.
         23    2    1    2    0    0  0.24608196164E+02 -0.63960841697E+02 -0.91335751136E+02  0.14617400750E+03  0.91258251378E+02 0.  0.
         23    2    1    2    0    0 -0.24608196164E+02  0.63960841697E+02 -0.37168441639E+03  0.38842444317E+03  0.89597377624E+02 0.  0.
          5    1    4    4  502    0 -0.57135596697E+02  0.47458377010E+02 -0.21623636515E+03  0.22868543804E+03  0.47000000000E+01 0. -1.
         -5    1    3    3    0  503 -0.21374802190E+02 -0.25489721460E+02  0.36054607039E+01  0.33789013238E+02  0.47000000000E+01 0.  1.
          5    1    3    3  503    0  0.45982998354E+02 -0.38471120238E+02 -0.94941211840E+02  0.11238499426E+03  0.47000000000E+01 0. -1.
         -5    1    4    4    0  502  0.32527400533E+02  0.16502464687E+02 -0.15544805124E+03  0.15973900513E+03  0.47000000000E+01 0.  1.
<mgrwt>
<rscale>  0 0.11379309E+03</rscale>
<asrwt>0</asrwt>
<pdfrwt beam="1">  1        3 0.76739890E-01 0.11412546E+03</pdfrwt>
<pdfrwt beam="2">  1       -3 0.55060220E-02 0.11412546E+03</pdfrwt>
<totfact> 0.71882556E+02</totfact>
</mgrwt>
</event>
<event>
 8    1  0.2964543E-004  0.1123984E+03  0.7546771E-02  0.1256318E+00
         -1   -1    0    0    0  501 -0.00000000000E+00  0.00000000000E+00  0.16556338001E+02  0.16556338001E+02  0.00000000000E+00 0.  1.
          1   -1    0    0  501    0  0.00000000000E+00 -0.00000000000E+00 -0.81145375636E+03  0.81145375636E+03  0.00000000000E+00 0. -1.
         23    2    1    2    0    0 -0.41745389980E+02  0.52225436577E+02 -0.50098307581E+03  0.51343688522E+03  0.90350534336E+02 0.  0.
         23    2    1    2    0    0  0.41745389980E+02 -0.52225436577E+02 -0.29391434255E+03  0.31457320913E+03  0.90002718501E+02 0.  0.
          5    1    3    3  502    0 -0.68448614636E+02  0.36173863183E+02 -0.40664783744E+03  0.41397864065E+03  0.47000000000E+01 0. -1.
         -5    1    3    3    0  502  0.26703224656E+02  0.16051573394E+02 -0.94335238367E+02  0.99458244572E+02  0.47000000000E+01 0.  1.
          5    1    4    4  503    0 -0.22310844070E+01 -0.43831316917E+02 -0.24141283380E+03  0.24541476811E+03  0.47000000000E+01 0. -1.
         -5    1    4    4    0  503  0.43976474387E+02 -0.83941196596E+01 -0.52501508745E+02  0.69158441024E+02  0.47000000000E+01 0.  1.
<mgrwt>
<rscale>  0 0.11232845E+03</rscale>
<asrwt>0</asrwt>
<pdfrwt beam="1">  1        1 0.12483899E+00 0.11239837E+03</pdfrwt>
<pdfrwt beam="2">  1       -1 0.25471299E-02 0.11239837E+03</pdfrwt>
<totfact> 0.10267085E+04</totfact>
</mgrwt>
</event>
<event>
 8    1  0.2964543E-004  0.1527444E+03  0.7546771E-02  0.1197222E+00
          1   -1    0    0  501    0  0.00000000000E+00  0.00000000000E+00  0.10589694323E+03  0.10589694323E+03  0.00000000000E+00 0. -1.
         -1   -1    0    0    0  501 -0.00000000000E+00 -0.00000000000E+00 -0.23189480711E+03  0.23189480711E+03  0.00000000000E+00 0.  1.
         23    2    1    2    0    0  0.10498451478E+03 -0.60949970517E+02 -0.10142490455E+03  0.18335172041E+03  0.92704880476E+02 0.  0.
         23    2    1    2    0    0 -0.10498451478E+03  0.60949970517E+02 -0.24572959325E+02  0.15444002993E+03  0.92256410435E+02 0.  0.
          5    1    3    3  502    0  0.37922207891E+02  0.62534013206E+01  0.67952108736E+01  0.39312386982E+02  0.47000000000E+01 0. -1.
         -5    1    4    4    0  503 -0.23932642550E+02  0.27286548333E+00 -0.44869855543E+02  0.51070928828E+02  0.47000000000E+01 0.  1.
          5    1    4    4  503    0 -0.81051872228E+02  0.60677105034E+02  0.20296896218E+02  0.10336910110E+03  0.47000000000E+01 0. -1.
         -5    1    3    3    0  502  0.67062306886E+02 -0.67203371838E+02 -0.10822011542E+03  0.14403933342E+03  0.47000000000E+01 0.  1.
<mgrwt>
<rscale>  0 0.15267638E+03</rscale>
<asrwt>0</asrwt>
<pdfrwt beam="1">  1        1 0.16291837E-01 0.15274437E+03</pdfrwt>
<pdfrwt beam="2">  1       -1 0.35676124E-01 0.15274437E+03</pdfrwt>
<totfact> 0.24621651E+03</totfact>
</mgrwt>
</event>
<event>
 8    1  0.2964543E-004  0.9984413E+02  0.7546771E-02  0.1280671E+00
         -2   -1    0    0    0  501 -0.00000000000E+00  0.00000000000E+00  0.12070657052E+03  0.12070657052E+03  0.00000000000E+00 0. -1.
          2   -1    0    0  501    0  0.00000000000E+00 -0.00000000000E+00 -0.82535246267E+02  0.82535246267E+02  0.00000000000E+00 0.  1.
         23    2    1    2    0    0  0.38788003911E-01  0.40946016222E+02  0.20741600014E+02  0.10188775628E+03  0.90963306662E+02 0.  0.
         23    2    1    2    0    0 -0.38788003911E-01 -0.40946016222E+02  0.17429724242E+02  0.10135406051E+03  0.91061916004E+02 0.  0.
          5    1    3    3  502    0  0.25952268339E+02  0.53489939101E+02  0.35282115097E+02  0.69293661057E+02  0.47000000000E+01 0. -1.
         -5    1    4    4    0  503 -0.25477190102E+02 -0.49521049734E+02  0.37677477236E+02  0.67402550939E+02  0.47000000000E+01 0.  1.
          5    1    4    4  503    0  0.25438402098E+02  0.85750335112E+01 -0.20247752994E+02  0.33951509574E+02  0.47000000000E+01 0. -1.
         -5    1    3    3    0  502 -0.25913480335E+02 -0.12543922879E+02 -0.14540515083E+02  0.32594095219E+02  0.47000000000E+01 0.  1.
<mgrwt>
<rscale>  0 0.99821641E+02</rscale>
<asrwt>0</asrwt>
<pdfrwt beam="1">  1        2 0.12697730E-01 0.99844130E+02</pdfrwt>
<pdfrwt beam="2">  1       -2 0.18570242E-01 0.99844130E+02</pdfrwt>
<totfact> 0.10384513E+04</totfact>
</mgrwt>
</event>
<event>
 8    1  0.2964543E-004  0.2243905E+03  0.7546771E-02  0.1130850E+00
          1   -1    0    0  501    0  0.00000000000E+00  0.00000000000E+00  0.12010922954E+04  0.12010922954E+04  0.00000000000E+00 0. -1.
         -1   -1    0    0    0  501 -0.00000000000E+00 -0.00000000000E+00 -0.45527154066E+02  0.45527154066E+02  0.00000000000E+00 0.  1.
         23    2    1    2    0    0  0.13640631020E+03 -0.15305238957E+03  0.39620267112E+03  0.45479721810E+03  0.88499929782E+02 0.  0.
         23    2    1    2    0    0 -0.13640631020E+03  0.15305238957E+03  0.75936247019E+03  0.79182223134E+03  0.91210577794E+02 0.  0.
          5    1    4    4  502    0 -0.22979392384E+02 -0.96500200466E+01  0.68786324640E+02  0.73313189937E+02  0.47000000000E+01 0. -1.
         -5    1    3    3    0  503  0.99457950173E+02 -0.47166302821E+02  0.21645120531E+03  0.24287807282E+03  0.47000000000E+01 0.  1.
          5    1    3    3  503    0  0.36948360022E+02 -0.10588608675E+03  0.17975146581E+03  0.21191914528E+03  0.47000000000E+01 0. -1.
         -5    1    4    4    0  502 -0.11342691781E+03  0.16270240962E+03  0.69057614555E+03  0.71850904140E+03  0.47000000000E+01 0.  1.
<mgrwt>
<rscale>  0 0.22411795E+03</rscale>
<asrwt>0</asrwt>
<pdfrwt beam="1">  1        1 0.18478341E+00 0.22439047E+03</pdfrwt>
<pdfrwt beam="2">  1       -1 0.70041785E-02 0.22439047E+03</pdfrwt>
<totfact> 0.12092093E+03</totfact>
</mgrwt>
</event>
<event>
 8    1  0.2964543E-004  0.2203652E+03  0.7546771E-02  0.1133680E+00
          2   -1    0    0  501    0  0.00000000000E+00  0.00000000000E+00  0.16277678457E+04  0.16277678457E+04  0.00000000000E+00 0. -1.
         -2   -1    0    0    0  501 -0.00000000000E+00 -0.00000000000E+00 -0.56559016744E+02  0.56559016744E+02  0.00000000000E+00 0.  1.
         23    2    1    2    0    0 -0.19174079861E+03 -0.58320129421E+02  0.13654118511E+04  0.13830800133E+04  0.91624389649E+02 0.  0.
         23    2    1    2    0    0  0.19174079861E+03  0.58320129421E+02  0.20579697787E+03  0.30124684914E+03  0.90727595956E+02 0.  0.
          5    1    4    4  502    0  0.59588648240E+02 -0.20836967155E+02  0.81847336816E+02  0.10347010555E+03  0.47000000000E+01 0. -1.
         -5    1    3    3    0  503 -0.47635101252E+02 -0.58682372139E+02  0.51323120795E+03  0.51878809401E+03  0.47000000000E+01 0.  1.
          5    1    3    3  503    0 -0.14410569736E+03  0.36224271818E+00  0.85218064315E+03  0.86429191931E+03  0.47000000000E+01 0. -1.
         -5    1    4    4    0  502  0.13215215037E+03  0.79157096576E+02  0.12394964106E+03  0.19777674358E+03  0.47000000000E+01 0.  1.
<mgrwt>
<rscale>  0 0.22027225E+03</rscale>
<asrwt>0</asrwt>
<pdfrwt beam="1">  1        2 0.25042579E+00 0.22036515E+03</pdfrwt>
<pdfrwt beam="2">  1       -2 0.87013884E-02 0.22036515E+03</pdfrwt>
<totfact> 0.97219672E+02</totfact>
</mgrwt>
</event>
<event>
 8    1  0.2964543E-004  0.9070870E+02  0.7546771E-02  0.1301300E+00
          1   -1    0    0  501    0  0.00000000000E+00  0.00000000000E+00  0.95815941370E+03  0.95815941370E+03  0.00000000000E+00 0. -1.
         -1   -1    0    0    0  501 -0.00000000000E+00 -0.00000000000E+00 -0.85645486696E+01  0.85645486696E+01  0.00000000000E+00 0.  1.
         23    2    1    2    0    0  0.11686082750E+02 -0.66897794359E+01  0.46726343689E+03  0.47593717093E+03  0.89441341291E+02 0.  0.
         23    2    1    2    0    0 -0.11686082750E+02  0.66897794359E+01  0.48233142814E+03  0.49078679145E+03  0.89703681133E+02 0.  0.
          5    1    3    3  502    0  0.28094641856E+02  0.31569356946E+02  0.32060634055E+03  0.32341374244E+03  0.47000000000E+01 0. -1.
         -5    1    4    4    0  503 -0.31515092474E+02  0.39491524531E+02  0.23114195835E+03  0.23664631092E+03  0.47000000000E+01 0.  1.
          5    1    4    4  503    0  0.19829009724E+02 -0.32801745095E+02  0.25118946979E+03  0.25414048053E+03  0.47000000000E+01 0. -1.
         -5    1    3    3    0  502 -0.16408559106E+02 -0.38259136382E+02  0.14665709634E+03  0.15252342848E+03  0.47000000000E+01 0.  1.
<mgrwt>
<rscale>  0 0.90643773E+02</rscale>
<asrwt>0</asrwt>
<pdfrwt beam="1">  1        1 0.14740906E+00 0.90708699E+02</pdfrwt>
<pdfrwt beam="2">  1       -1 0.13176236E-02 0.90708699E+02</pdfrwt>
<totfact> 0.19983915E+04</totfact>
</mgrwt>
</event>
<event>
 8    1  0.2964543E-004  0.1459118E+03  0.7546771E-02  0.1206303E+00
          2   -1    0    0  501    0  0.00000000000E+00  0.00000000000E+00  0.59420260430E+03  0.59420260430E+03  0.00000000000E+00 0. -1.
         -2   -1    0    0    0  501 -0.00000000000E+00 -0.00000000000E+00 -0.53757573246E+02  0.53757573246E+02  0.00000000000E+00 0.  1.
         23    2    1    2    0    0  0.47147502248E+02  0.99502746810E+02  0.81676890222E+02  0.16721652505E+03  0.95742196881E+02 0.  0.
         23    2    1    2    0    0 -0.47147502248E+02 -0.99502746810E+02  0.45876814083E+03  0.48074365249E+03  0.92317759827E+02 0.  0.
          5    1    3    3  502    0  0.40356408819E+02  0.78105243896E+01  0.59583642611E+02  0.72539261719E+02  0.47000000000E+01 0. -1.
         -5    1    3    3    0  502  0.67910934289E+01  0.91692222420E+02  0.22093247611E+02  0.94677263334E+02  0.47000000000E+01 0.  1.
          5    1    4    4  503    0 -0.73970192339E+02 -0.78221102297E+02  0.31666228526E+03  0.33449547546E+03  0.47000000000E+01 0. -1.
         -5    1    4    4    0  503  0.26822690091E+02 -0.21281644512E+02  0.14210585557E+03  0.14624817703E+03  0.47000000000E+01 0.  1.
<mgrwt>
<rscale>  0 0.14535265E+03</rscale>
<asrwt>0</asrwt>
<pdfrwt beam="1">  1        2 0.91415781E-01 0.14591179E+03</pdfrwt>
<pdfrwt beam="2">  1       -2 0.82703963E-02 0.14591179E+03</pdfrwt>
<totfact> 0.44513486E+03</totfact>
</mgrwt>
</event>
<event>
 8    1  0.2964543E-004  0.1080655E+03  0.7546771E-02  0.1267269E+00
          1   -1    0    0  501    0  0.00000000000E+00  0.00000000000E+00  0.94768078294E+03  0.94768078294E+03  0.00000000000E+00 0. -1.
         -1   -1    0    0    0  501 -0.00000000000E+00 -0.00000000000E+00 -0.11715539836E+02  0.11715539836E+02  0.00000000000E+00 0.  1.
         23    2    1    2    0    0  0.55576270522E+02 -0.29007333926E+02  0.49800057994E+03  0.50829632537E+03  0.80189958835E+02 0.  0.
         23    2    1    2    0    0 -0.55576270522E+02  0.29007333926E+02  0.43796466316E+03  0.45109999741E+03  0.88022805068E+02 0.  0.
          5    1    3    3  502    0  0.36197185601E+02  0.11958577531E+02  0.37785025444E+03  0.37979751000E+03  0.47000000000E+01 0. -1.
         -5    1    3    3    0  502  0.19379084921E+02 -0.40965911457E+02  0.12015032550E+03  0.12849881538E+03  0.47000000000E+01 0.  1.
          5    1    4    4  503    0 -0.44959592491E+02  0.53499487029E+02  0.38786520915E+03  0.39413839009E+03  0.47000000000E+01 0. -1.
         -5    1    4    4    0  503 -0.10616678032E+02 -0.24492153103E+02  0.50099454011E+02  0.56961607318E+02  0.47000000000E+01 0.  1.
<mgrwt>
<rscale>  0 0.10646048E+03</rscale>
<asrwt>0</asrwt>
<pdfrwt beam="1">  1        1 0.14579698E+00 0.10806554E+03</pdfrwt>
<pdfrwt beam="2">  1       -1 0.18023915E-02 0.10806554E+03</pdfrwt>
<totfact> 0.13209548E+04</totfact>
</mgrwt>
</event>
<event>
 8    1  0.2964543E-004  0.1265061E+03  0.7546771E-02  0.1233038E+00
          2   -1    0    0  501    0  0.00000000000E+00  0.00000000000E+00  0.82517070958E+02  0.82517070958E+02  0.00000000000E+00 0. -1.
         -2   -1    0    0    0  501 -0.00000000000E+00 -0.00000000000E+00 -0.19350708981E+03  0.19350708981E+03  0.00000000000E+00 0.  1.
         23    2    1    2    0    0  0.49736576350E+02  0.70487836014E+02 -0.46979388841E+02  0.13494757146E+03  0.92528492984E+02 0.  0.
         23    2    1    2    0    0 -0.49736576350E+02 -0.70487836014E+02 -0.64010630011E+02  0.14107658931E+03  0.91449337032E+02 0.  0.
          5    1    3    3  502    0  0.82726949349E+01 -0.22172878697E+02 -0.33704367581E+01  0.24362345436E+02  0.47000000000E+01 0. -1.
         -5    1    3    3    0  502  0.41463881415E+02  0.92660714711E+02 -0.43608952083E+02  0.11058522602E+03  0.47000000000E+01 0.  1.
          5    1    4    4  503    0 -0.15470406319E+02  0.17469906749E+02 -0.34780419224E+02  0.42146158483E+02  0.47000000000E+01 0.  1.
         -5    1    4    4    0  503 -0.34266170031E+02 -0.87957742763E+02 -0.29230210788E+02  0.98930430825E+02  0.47000000000E+01 0. -1.
<mgrwt>
<rscale>  0 0.12630881E+03</rscale>
<asrwt>0</asrwt>
<pdfrwt beam="1">  1        2 0.12694934E-01 0.12650606E+03</pdfrwt>
<pdfrwt beam="2">  1       -2 0.29770322E-01 0.12650606E+03</pdfrwt>
<totfact> 0.46911780E+03</totfact>
</mgrwt>
</event>
<event>
 8    1  0.2964543E-004  0.1205036E+03  0.7546771E-02  0.1251913E+00
         -1   -1    0    0    0  501 -0.00000000000E+00  0.00000000000E+00  0.96760016799E+02  0.96760016799E+02  0.00000000000E+00 0.  1.
          1   -1    0    0  501    0  0.00000000000E+00 -0.00000000000E+00 -0.15011834779E+03  0.15011834779E+03  0.00000000000E+00 0. -1.
         23    2    1    2    0    0 -0.27690139177E+02  0.27030830190E+02 -0.79297149390E+02  0.14425378113E+03  0.11412145232E+03 0.  0.
         23    2    1    2    0    0  0.27690139177E+02 -0.27030830190E+02  0.25938818402E+02  0.10262458346E+03  0.91441638447E+02 0.  0.
          5    1    4    4  502    0  0.57640423208E+02 -0.25212884037E+02  0.33351346137E+02  0.71361825917E+02  0.47000000000E+01 0. -1.
         -5    1    3    3    0  503 -0.34274050108E+02 -0.40057208331E+02 -0.35191991226E+02  0.63559867027E+02  0.47000000000E+01 0.  1.
          5    1    3    3  503    0  0.65839109307E+01  0.67088038521E+02 -0.44105158164E+02  0.80693914098E+02  0.47000000000E+01 0. -1.
         -5    1    4    4    0  502 -0.29950284031E+02 -0.18179461531E+01 -0.74125277349E+01  0.31262757543E+02  0.47000000000E+01 0.  1.
<mgrwt>
<rscale>  0 0.11480981E+03</rscale>
<asrwt>0</asrwt>
<pdfrwt beam="1">  1        1 0.23095130E-01 0.12050359E+03</pdfrwt>
<pdfrwt beam="2">  1       -1 0.14886156E-01 0.12050359E+03</pdfrwt>
<totfact> 0.64922538E+03</totfact>
</mgrwt>
</event>
<event>
 8    1  0.2964543E-004  0.1112747E+03  0.7546771E-02  0.1258497E+00
          1   -1    0    0  501    0  0.00000000000E+00  0.00000000000E+00  0.46824827440E+02  0.46824827440E+02  0.00000000000E+00 0. -1.
         -1   -1    0    0    0  501 -0.00000000000E+00 -0.00000000000E+00 -0.32797542478E+03  0.32797542478E+03  0.00000000000E+00 0.  1.
         23    2    1    2    0    0 -0.51907235038E+02 -0.36057738837E+02 -0.56886124326E+02  0.12444726583E+03  0.90865665969E+02 0.  0.
         23    2    1    2    0    0  0.51907235038E+02  0.36057738837E+02 -0.22426447301E+03  0.25035298639E+03  0.91583526684E+02 0.  0.
          5    1    4    4  502    0  0.22084587581E+02  0.65229492446E+02 -0.13092863329E+03  0.14801017772E+03  0.47000000000E+01 0. -1.
         -5    1    3    3    0  503 -0.22820974665E+02 -0.58805092800E+02 -0.59884472905E+02  0.87103822642E+02  0.47000000000E+01 0.  1.
          5    1    3    3  503    0 -0.29086260373E+02  0.22747353963E+02  0.29983485784E+01  0.37343443186E+02  0.47000000000E+01 0. -1.
         -5    1    4    4    0  502  0.29822647457E+02 -0.29171753610E+02 -0.93335839722E+02  0.10234280867E+03  0.47000000000E+01 0.  1.
<mgrwt>
<rscale>  0 0.11112691E+03</rscale>
<asrwt>0</asrwt>
<pdfrwt beam="1">  1        1 0.72038195E-02 0.11127472E+03</pdfrwt>
<pdfrwt beam="2">  1       -1 0.50457758E-01 0.11127472E+03</pdfrwt>
<totfact> 0.38400670E+03</totfact>
</mgrwt>
</event>
<event>
 8    1  0.2964543E-004  0.1221467E+03  0.7546771E-02  0.1239750E+00
          3   -1    0    0  501    0  0.00000000000E+00  0.00000000000E+00  0.41412934142E+03  0.41412934142E+03  0.00000000000E+00 0. -1.
         -3   -1    0    0    0  501 -0.00000000000E+00 -0.00000000000E+00 -0.48878750230E+02  0.48878750230E+02  0.00000000000E+00 0.  1.
         23    2    1    2    0    0  0.37956846829E+02  0.69941414556E+02  0.30205587423E+03  0.32581829006E+03  0.92667595690E+02 0.  0.
         23    2    1    2    0    0 -0.37956846829E+02 -0.69941414556E+02  0.63194716957E+02  0.13718980159E+03  0.92168029795E+02 0.  0.
          5    1    3    3  502    0  0.22093035109E+02  0.86560103931E+02  0.17417953338E+03  0.19580948302E+03  0.47000000000E+01 0. -1.
         -5    1    3    3    0  502  0.15863811720E+02 -0.16618689375E+02  0.12787634085E+03  0.13000880704E+03  0.47000000000E+01 0. -1.
          5    1    4    4  503    0 -0.67338255990E+02 -0.54873715905E+02  0.35965679519E+02  0.94133870208E+02  0.47000000000E+01 0. -1.
         -5    1    4    4    0  503  0.29381409162E+02 -0.15067698651E+02  0.27229037438E+02  0.43055931377E+02  0.47000000000E+01 0.  1.
<mgrwt>
<rscale>  0 0.12205191E+03</rscale>
<asrwt>0</asrwt>
<pdfrwt beam="1">  1        3 0.63712204E-01 0.12214666E+03</pdfrwt>
<pdfrwt beam="2">  1       -3 0.75198080E-02 0.12214666E+03</pdfrwt>
<totfact> 0.65333494E+02</totfact>
</mgrwt>
</event>
<event>
 8    1  0.2964543E-004  0.1129012E+03  0.7546771E-02  0.1260726E+00
         -1   -1    0    0    0  501 -0.00000000000E+00  0.00000000000E+00  0.11372958251E+03  0.11372958251E+03  0.00000000000E+00 0.  1.
          1   -1    0    0  501    0  0.00000000000E+00 -0.00000000000E+00 -0.15292817222E+03  0.15292817222E+03  0.00000000000E+00 0. -1.
         23    2    1    2    0    0 -0.25924294534E+02 -0.59735566423E+02 -0.97929612587E+02  0.14945530743E+03  0.92229458167E+02 0.  0.
         23    2    1    2    0    0  0.25924294534E+02  0.59735566423E+02  0.58731022872E+02  0.11720244730E+03  0.77760360484E+02 0.  0.
          5    1    4    4  502    0  0.51361538521E+02  0.29234145731E+02  0.46606380425E+02  0.75411455444E+02  0.47000000000E+01 0. -1.
         -5    1    4    4    0  502 -0.25437243987E+02  0.30501420692E+02  0.12124642447E+02  0.41790991856E+02  0.47000000000E+01 0.  1.
          5    1    3    3  503    0  0.20742079628E+02 -0.62253327801E+02 -0.60850305346E+02  0.89613393811E+02  0.47000000000E+01 0. -1.
         -5    1    3    3    0  503 -0.46666374162E+02  0.25177613782E+01 -0.37079307241E+02  0.59841913617E+02  0.47000000000E+01 0.  1.
<mgrwt>
<rscale>  0 0.10991588E+03</rscale>
<asrwt>0</asrwt>
<pdfrwt beam="1">  1        1 0.23527411E-01 0.11290120E+03</pdfrwt>
<pdfrwt beam="2">  1       -1 0.17496859E-01 0.11290120E+03</pdfrwt>
<totfact> 0.49001593E+03</totfact>
</mgrwt>
</event>
<event>
 8    1  0.2964543E-004  0.1013375E+03  0.7546771E-02  0.1277641E+00
          2   -1    0    0  501    0  0.00000000000E+00  0.00000000000E+00  0.61901818424E+03  0.61901818424E+03  0.00000000000E+00 0. -1.
         -2   -1    0    0    0  501 -0.00000000000E+00 -0.00000000000E+00 -0.16604253739E+02  0.16604253739E+02  0.00000000000E+00 0.  1.
         23    2    1    2    0    0  0.45492842804E+02  0.49399599714E+01  0.32011945185E+03  0.33577634293E+03  0.90417294066E+02 0.  0.
         23    2    1    2    0    0 -0.45492842804E+02 -0.49399599714E+01  0.28229447865E+03  0.29984609505E+03  0.90130494783E+02 0.  0.
          5    1    3    3  502    0  0.74808586435E+01  0.41332585424E+02  0.86720804713E+02  0.96472451166E+02  0.47000000000E+01 0. -1.
         -5    1    4    4    0  503  0.16533030879E+02  0.25841567256E+02  0.10352990598E+03  0.10808172436E+03  0.47000000000E+01 0.  1.
          5    1    4    4  503    0 -0.62025873683E+02 -0.30781527228E+02  0.17876457268E+03  0.19176437070E+03  0.47000000000E+01 0. -1.
         -5    1    3    3    0  502  0.38011984161E+02 -0.36392625452E+02  0.23339864714E+03  0.23930389176E+03  0.47000000000E+01 0.  1.
<mgrwt>
<rscale>  0 0.10127349E+03</rscale>
<asrwt>0</asrwt>
<pdfrwt beam="1">  1        2 0.95233549E-01 0.10133750E+03</pdfrwt>
<pdfrwt beam="2">  1       -2 0.25545010E-02 0.10133750E+03</pdfrwt>
<totfact> 0.23967422E+04</totfact>
</mgrwt>
</event>
<event>
 8    1  0.2964543E-004  0.1072601E+03  0.7546771E-02  0.1268226E+00
         -4   -1    0    0    0  501 -0.00000000000E+00  0.00000000000E+00  0.11708434585E+03  0.11708434585E+03  0.00000000000E+00 0.  1.
          4   -1    0    0  501    0  0.00000000000E+00 -0.00000000000E+00 -0.94297896150E+02  0.94297896150E+02  0.00000000000E+00 0. -1.
         23    2    1    2    0    0 -0.31496708558E+02  0.35699677922E+02  0.20341498804E+02  0.10917188087E+03  0.96115624873E+02 0.  0.
         23    2    1    2    0    0  0.31496708558E+02 -0.35699677922E+02  0.24449508980E+01  0.10221036114E+03  0.90412778327E+02 0.  0.
          5    1    3    3  502    0 -0.59586078073E+02 -0.16496949097E+01  0.16593563684E+02  0.62053674743E+02  0.47000000000E+01 0. -1.
         -5    1    4    4    0  503  0.58174436088E+02 -0.31876741276E+02 -0.17007948321E+02  0.68642202431E+02  0.47000000000E+01 0.  1.
          5    1    4    4  503    0 -0.26677727530E+02 -0.38229366456E+01  0.19452899219E+02  0.33568158704E+02  0.47000000000E+01 0. -1.
         -5    1    3    3    0  502  0.28089369515E+02  0.37349372832E+02  0.37479351205E+01  0.47118206124E+02  0.47000000000E+01 0.  1.
<mgrwt>
<rscale>  0 0.10596714E+03</rscale>
<asrwt>0</asrwt>
<pdfrwt beam="1">  1        4 0.14507369E-01 0.10726007E+03</pdfrwt>
<pdfrwt beam="2">  1       -4 0.18012976E-01 0.10726007E+03</pdfrwt>
<totfact> 0.16951093E+03</totfact>
</mgrwt>
</event>
<event>
 8    1  0.2964543E-004  0.9615213E+02  0.7546771E-02  0.1289926E+00
          2   -1    0    0  501    0  0.00000000000E+00  0.00000000000E+00  0.12082466997E+03  0.12082466997E+03  0.00000000000E+00 0. -1.
         -2   -1    0    0    0  501 -0.00000000000E+00 -0.00000000000E+00 -0.14808208842E+03  0.14808208842E+03  0.00000000000E+00 0.  1.
         23    2    1    2    0    0  0.13682653271E+02 -0.20188874726E+02 -0.10838910189E+03  0.14489109349E+03  0.93007665820E+02 0.  0.
         23    2    1    2    0    0 -0.13682653271E+02  0.20188874726E+02  0.81131683430E+02  0.12401566490E+03  0.90568920835E+02 0.  0.
          5    1    3    3  502    0 -0.15781626415E+02 -0.14109293589E+02  0.91026637638E+01  0.23517661140E+02  0.47000000000E+01 0. -1.
         -5    1    4    4    0  503  0.13934525050E+02  0.40545094143E+02  0.90810888195E+01  0.44075297181E+02  0.47000000000E+01 0.  1.
          5    1    4    4  503    0 -0.27617178320E+02 -0.20356219417E+02  0.72050594611E+02  0.79940367719E+02  0.47000000000E+01 0. -1.
         -5    1    3    3    0  502  0.29464279686E+02 -0.60795811364E+01 -0.11749176565E+03  0.12137343235E+03  0.47000000000E+01 0.  1.
<mgrwt>
<rscale>  0 0.95557394E+02</rscale>
<asrwt>0</asrwt>
<pdfrwt beam="1">  1        2 0.18588411E-01 0.96152127E+02</pdfrwt>
<pdfrwt beam="2">  1       -2 0.22781860E-01 0.96152127E+02</pdfrwt>
<totfact> 0.47212786E+03</totfact>
</mgrwt>
</event>
<event>
 8    1  0.2964543E-004  0.9396274E+02  0.7546771E-02  0.1294163E+00
         -1   -1    0    0    0  501 -0.00000000000E+00  0.00000000000E+00  0.45484076200E+03  0.45484076200E+03  0.00000000000E+00 0.  1.
          1   -1    0    0  501    0  0.00000000000E+00 -0.00000000000E+00 -0.21369362608E+02  0.21369362608E+02  0.00000000000E+00 0. -1.
         23    2    1    2    0    0  0.19313307656E+02  0.51404298734E+00  0.29402336361E+03  0.30867253587E+03  0.91955032243E+02 0.  0.
         23    2    1    2    0    0 -0.19313307656E+02 -0.51404298734E+00  0.13944803578E+03  0.16753758874E+03  0.90828524517E+02 0.  0.
          5    1    3    3  502    0  0.37725531805E+02  0.30314004633E+02  0.97003715647E+02  0.10850790513E+03  0.47000000000E+01 0. -1.
         -5    1    4    4    0  503  0.23236904997E+01 -0.31546417674E+02  0.11424092602E+02  0.33958443683E+02  0.47000000000E+01 0.  1.
          5    1    4    4  503    0 -0.21636998156E+02  0.31032374687E+02  0.12802394318E+03  0.13357914506E+03  0.47000000000E+01 0. -1.
         -5    1    3    3    0  502 -0.18412224149E+02 -0.29799961646E+02  0.19701964797E+03  0.20016463074E+03  0.47000000000E+01 0.  1.
<mgrwt>
<rscale>  0 0.93685980E+02</rscale>
<asrwt>0</asrwt>
<pdfrwt beam="1">  1        1 0.32875946E-02 0.93962738E+02</pdfrwt>
<pdfrwt beam="2">  1       -1 0.69975494E-01 0.93962738E+02</pdfrwt>
<totfact> 0.59314495E+03</totfact>
</mgrwt>
</event>
<event>
 8    1  0.2964543E-004  0.9280893E+02  0.7546771E-02  0.1296787E+00
         -2   -1    0    0    0  501 -0.00000000000E+00  0.00000000000E+00  0.23234000956E+02  0.23234000956E+02  0.00000000000E+00 0.  1.
          2   -1    0    0  501    0  0.00000000000E+00 -0.00000000000E+00 -0.40957740685E+03  0.40957740685E+03  0.00000000000E+00 0. -1.
         23    2    1    2    0    0  0.88700412641E+01 -0.26128773048E+01 -0.12214983346E+03  0.15279044326E+03  0.91317210740E+02 0.  0.
         23    2    1    2    0    0 -0.88700412641E+01  0.26128773048E+01 -0.26419357244E+03  0.28002096455E+03  0.92347128327E+02 0.  0.
          5    1    3    3  502    0 -0.30500566813E+02 -0.29815660066E+02 -0.47684331065E+02  0.64149384956E+02  0.47000000000E+01 0. -1.
         -5    1    4    4    0  503  0.31441418330E+02  0.45029019481E+01 -0.35997794411E+02  0.48236605550E+02  0.47000000000E+01 0.  1.
          5    1    4    4  503    0 -0.40311459594E+02 -0.18900246433E+01 -0.22819577803E+03  0.23178435900E+03  0.47000000000E+01 0. -1.
         -5    1    3    3    0  502  0.39370608077E+02  0.27202782761E+02 -0.74465502394E+02  0.88641058303E+02  0.47000000000E+01 0.  1.
<mgrwt>
<rscale>  0 0.92551675E+02</rscale>
<asrwt>0</asrwt>
<pdfrwt beam="1">  1        2 0.63011910E-01 0.92808927E+02</pdfrwt>
<pdfrwt beam="2">  1       -2 0.35744616E-02 0.92808927E+02</pdfrwt>
<totfact> 0.22818219E+04</totfact>
</mgrwt>
</event>
<event>
 8    1  0.2964543E-004  0.1331068E+03  0.7546771E-02  0.1222984E+00
          1   -1    0    0  501    0  0.00000000000E+00  0.00000000000E+00  0.55848245023E+03  0.55848245023E+03  0.00000000000E+00 0. -1.
         -1   -1    0    0    0  501 -0.00000000000E+00 -0.00000000000E+00 -0.32869384934E+02  0.32869384934E+02  0.00000000000E+00 0.  1.
         23    2    1    2    0    0  0.46124561059E+02 -0.84945560829E+02  0.31886955455E+03  0.34546507284E+03  0.91241987556E+02 0.  0.
         23    2    1    2    0    0 -0.46124561059E+02  0.84945560829E+02  0.20674351074E+03  0.24588676232E+03  0.91510639896E+02 0.  0.
          5    1    4    4  502    0 -0.38023611588E+02 -0.58736742356E+01  0.87526888112E+02  0.95725342672E+02  0.47000000000E+01 0. -1.
         -5    1    3    3    0  503  0.32874089196E+02 -0.23061649716E+02  0.31725730200E+02  0.51392191866E+02  0.47000000000E+01 0.  1.
          5    1    3    3  503    0  0.13250471863E+02 -0.61883911114E+02  0.28714382435E+03  0.29407288097E+03  0.47000000000E+01 0. -1.
         -5    1    4    4    0  502 -0.81009494715E+01  0.90819235065E+02  0.11921662263E+03  0.15016141965E+03  0.47000000000E+01 0.  1.
<mgrwt>
<rscale>  0 0.13306064E+03</rscale>
<asrwt>0</asrwt>
<pdfrwt beam="1">  1        1 0.85920370E-01 0.13310680E+03</pdfrwt>
<pdfrwt beam="2">  1       -1 0.50568289E-02 0.13310680E+03</pdfrwt>
<totfact> 0.64559765E+03</totfact>
</mgrwt>
</event>
<event>
 8    1  0.2964543E-004  0.9960918E+02  0.7546771E-02  0.1283258E+00
          1   -1    0    0  501    0  0.00000000000E+00  0.00000000000E+00  0.21850428381E+03  0.21850428381E+03  0.00000000000E+00 0. -1.
         -1   -1    0    0    0  501 -0.00000000000E+00 -0.00000000000E+00 -0.43639357148E+02  0.43639357148E+02  0.00000000000E+00 0.  1.
         23    2    1    2    0    0  0.20951764763E+02  0.21505774086E+02  0.86595052517E+02  0.13198746654E+03  0.94976383572E+02 0.  0.
         23    2    1    2    0    0 -0.20951764763E+02 -0.21505774086E+02  0.88269874149E+02  0.13015617443E+03  0.90816211621E+02 0.  0.
          5    1    3    3  502    0 -0.35994774685E+02  0.21280684848E+02  0.42545165631E+02  0.59838720497E+02  0.47000000000E+01 0. -1.
         -5    1    3    3    0  502  0.56946539448E+02  0.22508923818E+00  0.44049886886E+02  0.72148746038E+02  0.47000000000E+01 0.  1.
          5    1    4    4  503    0 -0.24211571251E+02 -0.46691263302E+02  0.89918217707E+02  0.10427679573E+03  0.47000000000E+01 0. -1.
         -5    1    4    4    0  503  0.32598064878E+01  0.25185489216E+02 -0.16483435588E+01  0.25879378700E+02  0.47000000000E+01 0.  1.
<mgrwt>
<rscale>  0 0.98604462E+02</rscale>
<asrwt>0</asrwt>
<pdfrwt beam="1">  1        1 0.33616043E-01 0.99609177E+02</pdfrwt>
<pdfrwt beam="2">  1       -1 0.67137474E-02 0.99609177E+02</pdfrwt>
<totfact> 0.13449059E+04</totfact>
</mgrwt>
</event>
<event>
 8    1  0.2964543E-004  0.2249345E+03  0.7546771E-02  0.1130440E+00
         -1   -1    0    0    0  501 -0.00000000000E+00  0.00000000000E+00  0.19285428724E+03  0.19285428724E+03  0.00000000000E+00 0.  1.
          1   -1    0    0  501    0  0.00000000000E+00 -0.00000000000E+00 -0.42649573183E+03  0.42649573183E+03  0.00000000000E+00 0. -1.
         23    2    1    2    0    0 -0.18319702512E+03 -0.90205993494E+02  0.75819173468E+02  0.23736908748E+03  0.94325316584E+02 0.  0.
         23    2    1    2    0    0  0.18319702512E+03  0.90205993494E+02 -0.30946061806E+03  0.38198093160E+03  0.91898241035E+02 0.  0.
          5    1    3    3  502    0 -0.26700125066E+02 -0.41006312248E+02 -0.12880165265E+02  0.50817349202E+02  0.47000000000E+01 0. -1.
         -5    1    3    3    0  502 -0.15649690005E+03 -0.49199681246E+02  0.88699338733E+02  0.18655173827E+03  0.47000000000E+01 0.  1.
          5    1    4    4  503    0  0.10294992973E+03  0.10963771397E+02 -0.19725194414E+03  0.22282125523E+03  0.47000000000E+01 0. -1.
         -5    1    4    4    0  503  0.80247095389E+02  0.79242222097E+02 -0.11220867392E+03  0.15915967637E+03  0.47000000000E+01 0.  1.
<mgrwt>
<rscale>  0 0.22468236E+03</rscale>
<asrwt>0</asrwt>
<pdfrwt beam="1">  1        1 0.65614727E-01 0.22493452E+03</pdfrwt>
<pdfrwt beam="2">  1       -1 0.29669891E-01 0.22493452E+03</pdfrwt>
<totfact> 0.58382361E+02</totfact>
</mgrwt>
</event>
<event>
 8    1  0.2964543E-004  0.9671704E+02  0.7546771E-02  0.1292198E+00
         -2   -1    0    0    0  501 -0.00000000000E+00  0.00000000000E+00  0.18520745674E+03  0.18520745674E+03  0.00000000000E+00 0.  1.
          2   -1    0    0  501    0  0.00000000000E+00 -0.00000000000E+00 -0.86372264913E+02  0.86372264913E+02  0.00000000000E+00 0. -1.
         23    2    1    2    0    0  0.38366731737E+01 -0.21929698227E+02  0.14075115355E+03  0.16617035643E+03  0.85475542720E+02 0.  0.
         23    2    1    2    0    0 -0.38366731737E+01  0.21929698227E+02 -0.41915961721E+02  0.10540936523E+03  0.94119895378E+02 0.  0.
          5    1    4    4  502    0  0.27547239306E+02 -0.16127978151E+02  0.98638999401E+01  0.33739421967E+02  0.47000000000E+01 0. -1.
         -5    1    3    3    0  503  0.73796256096E+01 -0.52623111552E+02  0.64107443167E+02  0.83399670341E+02  0.47000000000E+01 0.  1.
          5    1    3    3  503    0 -0.35429524358E+01  0.30693413325E+02  0.76643710384E+02  0.82770686085E+02  0.47000000000E+01 0. -1.
         -5    1    4    4    0  502 -0.31383912480E+02  0.38057676378E+02 -0.51779861661E+02  0.71669943264E+02  0.47000000000E+01 0.  1.
<mgrwt>
<rscale>  0 0.94547688E+02</rscale>
<asrwt>0</asrwt>
<pdfrwt beam="1">  1        2 0.13288041E-01 0.96717043E+02</pdfrwt>
<pdfrwt beam="2">  1       -2 0.28493455E-01 0.96717043E+02</pdfrwt>
<totfact> 0.47134173E+03</totfact>
</mgrwt>
</event>
<event>
 8    1  0.2964543E-004  0.1105508E+03  0.7546771E-02  0.1266707E+00
         -1   -1    0    0    0  501 -0.00000000000E+00  0.00000000000E+00  0.21073960366E+02  0.21073960366E+02  0.00000000000E+00 0.  1.
          1   -1    0    0  501    0  0.00000000000E+00 -0.00000000000E+00 -0.59704152831E+03  0.59704152831E+03  0.00000000000E+00 0. -1.
         23    2    1    2    0    0  0.59562773981E+02  0.52550722686E+01 -0.42502874681E+03  0.43917072454E+03  0.92984675348E+02 0.  0.
         23    2    1    2    0    0 -0.59562773981E+02 -0.52550722686E+01 -0.15093882114E+03  0.17894476414E+03  0.75255305843E+02 0.  0.
          5    1    3    3  502    0 -0.11581141934E+02 -0.22006596829E+02 -0.19894786187E+03  0.20055112788E+03  0.47000000000E+01 0. -1.
         -5    1    3    3    0  502  0.71143915915E+02  0.27261669098E+02 -0.22608088494E+03  0.23861959666E+03  0.47000000000E+01 0.  1.
          5    1    4    4  503    0 -0.26343367286E+02  0.13630203977E+02 -0.13321993241E+03  0.13656279087E+03  0.47000000000E+01 0. -1.
         -5    1    4    4    0  503 -0.33219406695E+02 -0.18885276245E+02 -0.17718888729E+02  0.42381973265E+02  0.47000000000E+01 0.  1.
<mgrwt>
<rscale>  0 0.10675124E+03</rscale>
<asrwt>0</asrwt>
<pdfrwt beam="1">  1        1 0.91852541E-01 0.11055085E+03</pdfrwt>
<pdfrwt beam="2">  1       -1 0.32421478E-02 0.11055085E+03</pdfrwt>
<totfact> 0.11179868E+04</totfact>
</mgrwt>
</event>
<event>
 8    1  0.2964543E-004  0.1072596E+03  0.7546771E-02  0.1266014E+00
         -1   -1    0    0    0  501 -0.00000000000E+00  0.00000000000E+00  0.63650700722E+02  0.63650700722E+02  0.00000000000E+00 0.  1.
          1   -1    0    0  501    0  0.00000000000E+00 -0.00000000000E+00 -0.20687784947E+03  0.20687784947E+03  0.00000000000E+00 0. -1.
         23    2    1    2    0    0  0.52657009253E+02  0.18841333856E+02 -0.22806622873E+02  0.10965750369E+03  0.91525240151E+02 0.  0.
         23    2    1    2    0    0 -0.52657009253E+02 -0.18841333856E+02 -0.12042052587E+03  0.16087104649E+03  0.90833000963E+02 0.  0.
          5    1    4    4  502    0 -0.75025923054E+02 -0.91851793777E+00 -0.10109093873E+03  0.12598095372E+03  0.47000000000E+01 0. -1.
         -5    1    4    4    0  502  0.22368913801E+02 -0.17922815919E+02 -0.19329587137E+02  0.34890092777E+02  0.47000000000E+01 0.  1.
          5    1    3    3  503    0  0.37073368424E+02  0.52252230517E+02 -0.31412583389E+02  0.71509234617E+02  0.47000000000E+01 0. -1.
         -5    1    3    3    0  503  0.15583640830E+02 -0.33410896661E+02  0.86059605168E+01  0.38148269078E+02  0.47000000000E+01 0.  1.
<mgrwt>
<rscale>  0 0.10711179E+03</rscale>
<asrwt>0</asrwt>
<pdfrwt beam="1">  1        1 0.31827362E-01 0.10725962E+03</pdfrwt>
<pdfrwt beam="2">  1       -1 0.97924153E-02 0.10725962E+03</pdfrwt>
<totfact> 0.82224002E+03</totfact>
</mgrwt>
</event>
<event>
 8    1  0.2964543E-004  0.9356994E+02  0.7546771E-02  0.1294961E+00
          1   -1    0    0  501    0  0.00000000000E+00  0.00000000000E+00  0.10994635283E+03  0.10994635283E+03  0.00000000000E+00 0. -1.
         -1   -1    0    0    0  501 -0.00000000000E+00 -0.00000000000E+00 -0.13061646547E+03  0.13061646547E+03  0.00000000000E+00 0.  1.
         23    2    1    2    0    0  0.31716514616E+01 -0.17899107265E+02 -0.86086068483E+02  0.12714615191E+03  0.91787228652E+02 0.  0.
         23    2    1    2    0    0 -0.31716514616E+01  0.17899107265E+02  0.65415955843E+02  0.11341666639E+03  0.90849631379E+02 0.  0.
          5    1    3    3  502    0 -0.37271349188E+02  0.15588279342E+02 -0.41422964201E+02  0.58052561411E+02  0.47000000000E+01 0. -1.
         -5    1    3    3    0  502  0.40443000650E+02 -0.33487386607E+02 -0.44663104282E+02  0.69093590495E+02  0.47000000000E+01 0.  1.
          5    1    4    4  503    0 -0.78864947423E+01  0.53064173600E+02  0.52935527067E+02  0.75513332233E+02  0.47000000000E+01 0. -1.
         -5    1    4    4    0  503  0.47148432806E+01 -0.35165066335E+02  0.12480428776E+02  0.37903334153E+02  0.47000000000E+01 0.  1.
<mgrwt>
<rscale>  0 0.93339194E+02</rscale>
<asrwt>0</asrwt>
<pdfrwt beam="1">  1        1 0.16914824E-01 0.93569935E+02</pdfrwt>
<pdfrwt beam="2">  1       -1 0.20094841E-01 0.93569935E+02</pdfrwt>
<totfact> 0.58855023E+03</totfact>
</mgrwt>
</event>
<event>
 8    1  0.2964543E-004  0.1123436E+03  0.7546771E-02  0.1256512E+00
         -1   -1    0    0    0  501 -0.00000000000E+00  0.00000000000E+00  0.18846450891E+02  0.18846450891E+02  0.00000000000E+00 0.  1.
          1   -1    0    0  501    0  0.00000000000E+00 -0.00000000000E+00 -0.81588541921E+03  0.81588541921E+03  0.00000000000E+00 0. -1.
         23    2    1    2    0    0 -0.25971442754E+02 -0.60254685449E+02 -0.57767112104E+03  0.58849384847E+03  0.91191790424E+02 0.  0.
         23    2    1    2    0    0  0.25971442754E+02  0.60254685449E+02 -0.21936784728E+03  0.24623802163E+03  0.90585693802E+02 0.  0.
          5    1    3    3  502    0 -0.53832697174E+02 -0.43343073803E+02 -0.48944365825E+03  0.49432152080E+03  0.47000000000E+01 0. -1.
         -5    1    4    4    0  503  0.44537208156E+02  0.40357134884E+02 -0.62045480317E+02  0.86510073830E+02  0.47000000000E+01 0.  1.
          5    1    4    4  503    0 -0.18565765401E+02  0.19897550565E+02 -0.15732236696E+03  0.15972794780E+03  0.47000000000E+01 0. -1.
         -5    1    3    3    0  502  0.27861254420E+02 -0.16911611646E+02 -0.88227462797E+02  0.94172327665E+02  0.47000000000E+01 0.  1.
<mgrwt>
<rscale>  0 0.11222055E+03</rscale>
<asrwt>0</asrwt>
<pdfrwt beam="1">  1        1 0.12552081E+00 0.11234361E+03</pdfrwt>
<pdfrwt beam="2">  1       -1 0.28994546E-02 0.11234361E+03</pdfrwt>
<totfact> 0.84442098E+03</totfact>
</mgrwt>
</event>
<event>
 8    1  0.2964543E-004  0.8920253E+02  0.7546771E-02  0.1309208E+00
         -1   -1    0    0    0  501 -0.00000000000E+00  0.00000000000E+00  0.86921043475E+02  0.86921043475E+02  0.00000000000E+00 0.  1.
          1   -1    0    0  501    0  0.00000000000E+00 -0.00000000000E+00 -0.85765490133E+02  0.85765490133E+02  0.00000000000E+00 0. -1.
         23    2    1    2    0    0  0.16904844146E+02 -0.68588712443E+01  0.10600822200E+02  0.82985341264E+02  0.80258155741E+02 0.  0.
         23    2    1    2    0    0 -0.16904844146E+02  0.68588712443E+01 -0.94452688585E+01  0.89701192344E+02  0.87317082714E+02 0.  0.
          5    1    3    3  502    0 -0.19503850758E+02  0.17870666118E+02 -0.16071303370E+02  0.31307150843E+02  0.47000000000E+01 0. -1.
         -5    1    3    3    0  502  0.36408694904E+02 -0.24729537362E+02  0.26672125570E+02  0.51678190421E+02  0.47000000000E+01 0.  1.
          5    1    4    4  503    0 -0.13216671307E+02  0.46779455577E+02 -0.51936990242E+01  0.49112751644E+02  0.47000000000E+01 0. -1.
         -5    1    4    4    0  503 -0.36881728392E+01 -0.39920584333E+02 -0.42515698342E+01  0.40588440699E+02  0.47000000000E+01 0.  1.
<mgrwt>
<rscale>  0 0.87425885E+02</rscale>
<asrwt>0</asrwt>
<pdfrwt beam="1">  1        1 0.13194691E-01 0.89202527E+02</pdfrwt>
<pdfrwt beam="2">  1       -1 0.13372468E-01 0.89202527E+02</pdfrwt>
<totfact> 0.15209904E+04</totfact>
</mgrwt>
</event>
<event>
 8    1  0.2964543E-004  0.9546688E+02  0.7546771E-02  0.1291135E+00
         -1   -1    0    0    0  501 -0.00000000000E+00  0.00000000000E+00  0.73208780821E+02  0.73208780821E+02  0.00000000000E+00 0.  1.
          1   -1    0    0  501    0  0.00000000000E+00 -0.00000000000E+00 -0.16239079891E+03  0.16239079891E+03  0.00000000000E+00 0. -1.
         23    2    1    2    0    0 -0.18107264123E+02 -0.13010867575E+02  0.14342518771E+02  0.94776088326E+02  0.90992545764E+02 0.  0.
         23    2    1    2    0    0  0.18107264123E+02  0.13010867575E+02 -0.10352453686E+03  0.14082349141E+03  0.92826560372E+02 0.  0.
          5    1    4    4  502    0  0.82656262799E+01  0.42957496920E+02 -0.99380833408E+02  0.10868443848E+03  0.47000000000E+01 0. -1.
         -5    1    4    4    0  502  0.98416378432E+01 -0.29946629345E+02 -0.41437034556E+01  0.32139052925E+02  0.47000000000E+01 0.  1.
          5    1    3    3  503    0 -0.16762979053E+02  0.34497791899E+02 -0.11704592789E+02  0.40375519873E+02  0.47000000000E+01 0. -1.
         -5    1    3    3    0  503 -0.13442850696E+01 -0.47508659475E+02  0.26047111560E+02  0.54400568453E+02  0.47000000000E+01 0.  1.
<mgrwt>
<rscale>  0 0.95018152E+02</rscale>
<asrwt>0</asrwt>
<pdfrwt beam="1">  1        1 0.24983199E-01 0.95466884E+02</pdfrwt>
<pdfrwt beam="2">  1       -1 0.11262890E-01 0.95466884E+02</pdfrwt>
<totfact> 0.88819566E+03</totfact>
</mgrwt>
</event>
<event>
 8    1  0.2964543E-004  0.1013429E+03  0.7546771E-02  0.1277504E+00
          1   -1    0    0  501    0  0.00000000000E+00  0.00000000000E+00  0.11406233100E+03  0.11406233100E+03  0.00000000000E+00 0. -1.
         -1   -1    0    0    0  501 -0.00000000000E+00 -0.00000000000E+00 -0.10439574432E+03  0.10439574432E+03  0.00000000000E+00 0.  1.
         23    2    1    2    0    0  0.43180574503E+02 -0.58686589852E+01 -0.35685353392E+02  0.10744222746E+03  0.91495271039E+02 0.  0.
         23    2    1    2    0    0 -0.43180574503E+02  0.58686589852E+01  0.45351940072E+02  0.11101584786E+03  0.91480691047E+02 0.  0.
          5    1    3    3  502    0 -0.10464290827E+02 -0.23841361394E+02 -0.42707923805E+02  0.50239114755E+02  0.47000000000E+01 0. -1.
         -5    1    4    4    0  503  0.19734822739E+02  0.39212000057E+01 -0.13527469068E+02  0.24696587971E+02  0.47000000000E+01 0.  1.
          5    1    4    4  503    0 -0.62915397242E+02  0.19474589795E+01  0.58879409141E+02  0.86319259887E+02  0.47000000000E+01 0. -1.
         -5    1    3    3    0  502  0.53644865330E+02  0.17972702409E+02  0.70225704129E+01  0.57203112707E+02  0.47000000000E+01 0.  1.
<mgrwt>
<rscale>  0 0.10133963E+03</rscale>
<asrwt>0</asrwt>
<pdfrwt beam="1">  1        1 0.17548051E-01 0.10134292E+03</pdfrwt>
<pdfrwt beam="2">  1       -1 0.16060884E-01 0.10134292E+03</pdfrwt>
<totfact> 0.80478050E+03</totfact>
</mgrwt>
</event>
<event>
 8    1  0.2964543E-004  0.1116105E+03  0.7546771E-02  0.1257800E+00
         -1   -1    0    0    0  501 -0.00000000000E+00  0.00000000000E+00  0.12447839884E+02  0.12447839884E+02  0.00000000000E+00 0.  1.
          1   -1    0    0  501    0  0.00000000000E+00 -0.00000000000E+00 -0.11045813760E+04  0.11045813760E+04  0.00000000000E+00 0. -1.
         23    2    1    2    0    0  0.45639890397E+02 -0.44831464889E+02 -0.37095995927E+03  0.38727018712E+03  0.90961786521E+02 0.  0.
         23    2    1    2    0    0 -0.45639890397E+02  0.44831464889E+02 -0.72117357687E+03  0.72975902879E+03  0.91455192792E+02 0.  0.
          5    1    3    3  502    0  0.46902045238E+02 -0.21137994544E+02 -0.35394967739E+03  0.35769970755E+03  0.47000000000E+01 0. -1.
         -5    1    3    3    0  502 -0.12621548402E+01 -0.23693470345E+02 -0.17010281883E+02  0.29570479563E+02  0.47000000000E+01 0.  1.
          5    1    4    4  503    0 -0.27460420665E+02  0.69028596627E+02 -0.60705073422E+03  0.61159766658E+03  0.47000000000E+01 0. -1.
         -5    1    4    4    0  503 -0.18179469732E+02 -0.24197131738E+02 -0.11412284265E+03  0.11816136220E+03  0.47000000000E+01 0.  1.
<mgrwt>
<rscale>  0 0.11150941E+03</rscale>
<asrwt>0</asrwt>
<pdfrwt beam="1">  1        1 0.16993570E+00 0.11161054E+03</pdfrwt>
<pdfrwt beam="2">  1       -1 0.19150511E-02 0.11161054E+03</pdfrwt>
<totfact> 0.93610298E+03</totfact>
</mgrwt>
</event>
<event>
 8    1  0.2964543E-004  0.1152157E+03  0.7546771E-02  0.1251700E+00
          1   -1    0    0  501    0  0.00000000000E+00  0.00000000000E+00  0.35890405584E+02  0.35890405584E+02  0.00000000000E+00 0. -1.
         -1   -1    0    0    0  501 -0.00000000000E+00 -0.00000000000E+00 -0.61263000677E+03  0.61263000677E+03  0.00000000000E+00 0.  1.
         23    2    1    2    0    0 -0.29483031075E+02 -0.57601350071E+02 -0.49485590532E+03  0.50809154020E+03  0.95328283046E+02 0.  0.
         23    2    1    2    0    0  0.29483031075E+02  0.57601350071E+02 -0.81883695872E+02  0.14042887215E+03  0.93958309016E+02 0.  0.
          5    1    3    3  502    0  0.28259644852E+02  0.34987386207E+01 -0.87909433058E+02  0.92525710587E+02  0.47000000000E+01 0. -1.
         -5    1    3    3    0  502 -0.57742675926E+02 -0.61100088692E+02 -0.40694647226E+03  0.41556582962E+03  0.47000000000E+01 0.  1.
          5    1    4    4  503    0 -0.12064695433E+02  0.38714922142E+02  0.60276959272E+01  0.41265302502E+02  0.47000000000E+01 0. -1.
         -5    1    4    4    0  503  0.41547726508E+02  0.18886427929E+02 -0.87911391799E+02  0.99163569651E+02  0.47000000000E+01 0.  1.
<mgrwt>
<rscale>  0 0.11493188E+03</rscale>
<asrwt>0</asrwt>
<pdfrwt beam="1">  1        1 0.55216008E-02 0.11521565E+03</pdfrwt>
<pdfrwt beam="2">  1       -1 0.94250771E-01 0.11521565E+03</pdfrwt>
<totfact> 0.16131517E+03</totfact>
</mgrwt>
</event>
<event>
 8    1  0.2964543E-004  0.3440166E+03  0.7546771E-02  0.1065280E+00
          2   -1    0    0  501    0  0.00000000000E+00  0.00000000000E+00  0.30423605104E+04  0.30423605104E+04  0.00000000000E+00 0. -1.
         -2   -1    0    0    0  501 -0.00000000000E+00 -0.00000000000E+00 -0.54249455062E+02  0.54249455062E+02  0.00000000000E+00 0.  1.
         23    2    1    2    0    0 -0.32881345542E+03 -0.29791399277E+02  0.23255689910E+04  0.23508761211E+04  0.96651897364E+02 0.  0.
         23    2    1    2    0    0  0.32881345542E+03  0.29791399277E+02  0.66254206436E+03  0.74573384432E+03  0.90283794633E+02 0.  0.
          5    1    4    4  502    0  0.30931243912E+02 -0.23737459821E+02  0.66274214661E+02  0.77036162792E+02  0.47000000000E+01 0. -1.
         -5    1    3    3    0  503 -0.16671847484E+03 -0.53107879836E+02  0.99757535956E+03  0.10128149805E+04  0.47000000000E+01 0.  1.
          5    1    3    3  503    0 -0.16209498058E+03  0.23316480559E+02  0.13279936314E+04  0.13380611406E+04  0.47000000000E+01 0. -1.
         -5    1    4    4    0  502  0.29788221150E+03  0.53528859098E+02  0.59626784970E+03  0.66869768152E+03  0.47000000000E+01 0.  1.
<mgrwt>
<rscale>  0 0.34358211E+03</rscale>
<asrwt>0</asrwt>
<pdfrwt beam="1">  1        2 0.46805533E+00 0.34401658E+03</pdfrwt>
<pdfrwt beam="2">  1       -2 0.83460724E-02 0.34401658E+03</pdfrwt>
<totfact> 0.17049872E+02</totfact>
</mgrwt>
</event>
<event>
 8    1  0.2964543E-004  0.1052925E+03  0.7546771E-02  0.1272303E+00
         -3   -1    0    0    0  501 -0.00000000000E+00  0.00000000000E+00  0.29169074815E+03  0.29169074815E+03  0.00000000000E+00 0.  1.
          3   -1    0    0  501    0  0.00000000000E+00 -0.00000000000E+00 -0.95023282945E+02  0.95023282945E+02  0.00000000000E+00 0. -1.
         23    2    1    2    0    0 -0.99787315759E+01 -0.36008434579E+02 -0.54950294388E+02  0.11395403825E+03  0.92573244160E+02 0.  0.
         23    2    1    2    0    0  0.99787315759E+01  0.36008434579E+02  0.25161775959E+03  0.27275999285E+03  0.98439495693E+02 0.  0.
          5    1    4    4  502    0  0.49961623674E+02  0.39640020707E+02  0.17121953153E+03  0.18277229839E+03  0.47000000000E+01 0. -1.
         -5    1    3    3    0  503 -0.35770660249E+02 -0.55111897532E+02 -0.45870877601E+02  0.80268853213E+02  0.47000000000E+01 0.  1.
          5    1    3    3  503    0  0.25791928673E+02  0.19103462953E+02 -0.90794167876E+01  0.33685185033E+02  0.47000000000E+01 0. -1.
         -5    1    4    4    0  502 -0.39982892098E+02 -0.36315861281E+01  0.80398228061E+02  0.89987694457E+02  0.47000000000E+01 0.  1.
<mgrwt>
<rscale>  0 0.10389944E+03</rscale>
<asrwt>0</asrwt>
<pdfrwt beam="1">  1        3 0.14618967E-01 0.10529253E+03</pdfrwt>
<pdfrwt beam="2">  1       -3 0.44875499E-01 0.10529253E+03</pdfrwt>
<totfact> 0.43013575E+02</totfact>
</mgrwt>
</event>
<event>
 8    1  0.2964543E-004  0.9089090E+02  0.7546771E-02  0.1302022E+00
          1   -1    0    0  501    0  0.00000000000E+00  0.00000000000E+00  0.91821472970E+02  0.91821472970E+02  0.00000000000E+00 0. -1.
         -1   -1    0    0    0  501 -0.00000000000E+00 -0.00000000000E+00 -0.93121640481E+02  0.93121640481E+02  0.00000000000E+00 0.  1.
         23    2    1    2    0    0  0.52587808218E+01 -0.68732571528E-01  0.21374023942E+02  0.93370253857E+02  0.90738613093E+02 0.  0.
         23    2    1    2    0    0 -0.52587808218E+01  0.68732571528E-01 -0.22674191453E+02  0.91572859593E+02  0.88565287535E+02 0.  0.
          5    1    4    4  502    0 -0.36607222629E+02  0.22796471205E+02  0.51155340473E+01  0.43680963092E+02  0.47000000000E+01 0. -1.
         -5    1    4    4    0  502  0.31348441807E+02 -0.22727738633E+02 -0.27789725500E+02  0.47891896502E+02  0.47000000000E+01 0.  1.
          5    1    3    3  503    0 -0.23136559336E+01  0.26718078108E+02 -0.26370599496E+02  0.37903920897E+02  0.47000000000E+01 0. -1.
         -5    1    3    3    0  503  0.75724367555E+01 -0.26786810680E+02  0.47744623438E+02  0.55466332960E+02  0.47000000000E+01 0.  1.
<mgrwt>
<rscale>  0 0.90343576E+02</rscale>
<asrwt>0</asrwt>
<pdfrwt beam="1">  1        1 0.14126381E-01 0.90890898E+02</pdfrwt>
<pdfrwt beam="2">  1       -1 0.14326406E-01 0.90890898E+02</pdfrwt>
<totfact> 0.12554046E+04</totfact>
</mgrwt>
</event>
<event>
 8    1  0.2964543E-004  0.9585189E+02  0.7546771E-02  0.1290091E+00
         -1   -1    0    0    0  501 -0.00000000000E+00  0.00000000000E+00  0.39626632123E+02  0.39626632123E+02  0.00000000000E+00 0.  1.
          1   -1    0    0  501    0  0.00000000000E+00 -0.00000000000E+00 -0.24793610082E+03  0.24793610082E+03  0.00000000000E+00 0. -1.
         23    2    1    2    0    0  0.70122225374E+01  0.30404944877E+02 -0.14385506027E+03  0.17205535102E+03  0.89079366362E+02 0.  0.
         23    2    1    2    0    0 -0.70122225374E+01 -0.30404944877E+02 -0.64454408427E+02  0.11550738192E+03  0.90630858846E+02 0.  0.
          5    1    4    4  502    0  0.12035258625E+02 -0.54074458632E+02 -0.63979413073E+02  0.84760544027E+02  0.47000000000E+01 0. -1.
         -5    1    4    4    0  502 -0.19047481163E+02  0.23669513755E+02 -0.47499535403E+00  0.30746837896E+02  0.47000000000E+01 0.  1.
          5    1    3    3  503    0  0.43832885862E+02  0.19918848668E+01 -0.93245942867E+02  0.10316096815E+03  0.47000000000E+01 0. -1.
         -5    1    3    3    0  503 -0.36820663325E+02  0.28413060010E+02 -0.50609117399E+02  0.68894382868E+02  0.47000000000E+01 0.  1.
<mgrwt>
<rscale>  0 0.95483361E+02</rscale>
<asrwt>0</asrwt>
<pdfrwt beam="1">  1        1 0.38144016E-01 0.95851888E+02</pdfrwt>
<pdfrwt beam="2">  1       -1 0.60964049E-02 0.95851888E+02</pdfrwt>
<totfact> 0.13240725E+04</totfact>
</mgrwt>
</event>
<event>
 8    1  0.2964543E-004  0.1242684E+03  0.7546771E-02  0.1236621E+00
         -2   -1    0    0    0  501 -0.00000000000E+00  0.00000000000E+00  0.34612383310E+03  0.34612383310E+03  0.00000000000E+00 0.  1.
          2   -1    0    0  501    0  0.00000000000E+00 -0.00000000000E+00 -0.47111686985E+02  0.47111686985E+02  0.00000000000E+00 0. -1.
         23    2    1    2    0    0 -0.83294034425E+02 -0.15073943902E+02  0.19854763857E+03  0.23423024829E+03  0.90980901727E+02 0.  0.
         23    2    1    2    0    0  0.83294034425E+02  0.15073943902E+02  0.10046450754E+03  0.15900527179E+03  0.89579234339E+02 0.  0.
          5    1    3    3  502    0 -0.17929910696E+02 -0.45630202621E+02  0.10516257747E+03  0.11612430749E+03  0.47000000000E+01 0. -1.
         -5    1    4    4    0  503  0.81017711471E+02  0.44244502213E+02  0.66136702772E+02  0.11365561579E+03  0.47000000000E+01 0.  1.
          5    1    4    4  503    0  0.22763229545E+01 -0.29170558310E+02  0.34327804770E+02  0.45349655993E+02  0.47000000000E+01 0. -1.
         -5    1    3    3    0  502 -0.65364123729E+02  0.30556258719E+02  0.93385061094E+02  0.11810594080E+03  0.47000000000E+01 0.  1.
<mgrwt>
<rscale>  0 0.12401202E+03</rscale>
<asrwt>0</asrwt>
<pdfrwt beam="1">  1        2 0.72479521E-02 0.12426844E+03</pdfrwt>
<pdfrwt beam="2">  1       -2 0.53249819E-01 0.12426844E+03</pdfrwt>
<totfact> 0.31076026E+03</totfact>
</mgrwt>
</event>
<event>
 8    1  0.2964543E-004  0.1132586E+03  0.7546771E-02  0.1255908E+00
         -1   -1    0    0    0  501 -0.00000000000E+00  0.00000000000E+00  0.42080487492E+03  0.42080487492E+03  0.00000000000E+00 0.  1.
          1   -1    0    0  501    0  0.00000000000E+00 -0.00000000000E+00 -0.30637727611E+02  0.30637727611E+02  0.00000000000E+00 0. -1.
         23    2    1    2    0    0 -0.57465406993E+02  0.25511451615E+02  0.15406167812E+03  0.18957753433E+03  0.90837952925E+02 0.  0.
         23    2    1    2    0    0  0.57465406993E+02 -0.25511451615E+02  0.23610546918E+03  0.26186506820E+03  0.94204109257E+02 0.  0.
          5    1    4    4  502    0  0.69416511757E+02 -0.48351064020E+02  0.20041905327E+03  0.21759219749E+03  0.47000000000E+01 0. -1.
         -5    1    3    3    0  503 -0.16716786411E+02  0.33788125831E+02  0.14056696564E+03  0.14560992488E+03  0.47000000000E+01 0.  1.
          5    1    3    3  503    0 -0.40748620582E+02 -0.82766742158E+01  0.13494712483E+02  0.43967609446E+02  0.47000000000E+01 0. -1.
         -5    1    4    4    0  502 -0.11951104764E+02  0.22839612405E+02  0.35686415915E+02  0.44272870708E+02  0.47000000000E+01 0.  1.
<mgrwt>
<rscale>  0 0.11255613E+03</rscale>
<asrwt>0</asrwt>
<pdfrwt beam="1">  1        1 0.47134969E-02 0.11325865E+03</pdfrwt>
<pdfrwt beam="2">  1       -1 0.64739207E-01 0.11325865E+03</pdfrwt>
<totfact> 0.42796045E+03</totfact>
</mgrwt>
</event>
<event>
 8    1  0.2964543E-004  0.1342884E+03  0.7546771E-02  0.1225406E+00
         -2   -1    0    0    0  501 -0.00000000000E+00  0.00000000000E+00  0.13532693024E+02  0.13532693024E+02  0.00000000000E+00 0.  1.
          2   -1    0    0  501    0  0.00000000000E+00 -0.00000000000E+00 -0.12372344730E+04  0.12372344730E+04  0.00000000000E+00 0. -1.
         23    2    1    2    0    0  0.19735611963E+02 -0.81221156473E+02 -0.57259080875E+03  0.58812720300E+03  0.10510471925E+03 0.  0.
         23    2    1    2    0    0 -0.19735611963E+02  0.81221156473E+02 -0.65111097124E+03  0.66263996304E+03  0.90331905242E+02 0.  0.
          5    1    3    3  502    0  0.30048584192E+02  0.84358183155E+01 -0.28322205696E+03  0.28497526908E+03  0.47000000000E+01 0. -1.
         -5    1    4    4    0  503 -0.50642735382E+02  0.45015604842E+02 -0.26451738975E+03  0.27309820726E+03  0.47000000000E+01 0.  1.
          5    1    4    4  503    0  0.30907123418E+02  0.36205551631E+02 -0.38659358149E+03  0.38954175578E+03  0.47000000000E+01 0. -1.
         -5    1    3    3    0  502 -0.10312972228E+02 -0.89656974788E+02 -0.28936875179E+03  0.30315193392E+03  0.47000000000E+01 0.  1.
<mgrwt>
<rscale>  0 0.13139139E+03</rscale>
<asrwt>0</asrwt>
<pdfrwt beam="1">  1        2 0.19034373E+00 0.13428839E+03</pdfrwt>
<pdfrwt beam="2">  1       -2 0.20819532E-02 0.13428839E+03</pdfrwt>
<totfact> 0.13374986E+04</totfact>
</mgrwt>
</event>
<event>
 8    1  0.2964543E-004  0.1654670E+03  0.7546771E-02  0.1182864E+00
         -3   -1    0    0    0  501 -0.00000000000E+00  0.00000000000E+00  0.90748495013E+02  0.90748495013E+02  0.00000000000E+00 0.  1.
          3   -1    0    0  501    0  0.00000000000E+00 -0.00000000000E+00 -0.31206276105E+03  0.31206276105E+03  0.00000000000E+00 0. -1.
         23    2    1    2    0    0  0.12921391680E+03 -0.49457199026E+02 -0.71356400130E+02  0.17950276896E+03  0.89371457380E+02 0.  0.
         23    2    1    2    0    0 -0.12921391680E+03  0.49457199026E+02 -0.14995786590E+03  0.22330848710E+03  0.90758294589E+02 0.  0.
          5    1    3    3  502    0  0.89392472196E+02 -0.49201884066E+02 -0.89201257576E+02  0.13561266104E+03  0.47000000000E+01 0. -1.
         -5    1    4    4    0  503 -0.79207756272E+02  0.51259288354E+02 -0.40337842690E+02  0.10271618592E+03  0.47000000000E+01 0.  1.
          5    1    4    4  503    0 -0.50006160524E+02 -0.18020893283E+01 -0.10962002321E+03  0.12059230119E+03  0.47000000000E+01 0. -1.
         -5    1    3    3    0  502  0.39821444600E+02 -0.25531496030E+00  0.17844857446E+02  0.43890107917E+02  0.47000000000E+01 0.  1.
<mgrwt>
<rscale>  0 0.16527750E+03</rscale>
<asrwt>0</asrwt>
<pdfrwt beam="1">  1        3 0.48009656E-01 0.16546697E+03</pdfrwt>
<pdfrwt beam="2">  1       -3 0.13961307E-01 0.16546697E+03</pdfrwt>
<totfact> 0.43431689E+02</totfact>
</mgrwt>
</event>
<event>
 8    1  0.2964543E-004  0.1011856E+03  0.7546771E-02  0.1280387E+00
         -1   -1    0    0    0  501 -0.00000000000E+00  0.00000000000E+00  0.13097669460E+03  0.13097669460E+03  0.00000000000E+00 0.  1.
          1   -1    0    0  501    0  0.00000000000E+00 -0.00000000000E+00 -0.17851205447E+03  0.17851205447E+03  0.00000000000E+00 0. -1.
         23    2    1    2    0    0  0.23650107074E+02  0.28783439775E+02  0.94588002464E+02  0.13502505383E+03  0.88865409362E+02 0.  0.
         23    2    1    2    0    0 -0.23650107074E+02 -0.28783439775E+02 -0.14212336233E+03  0.17446369525E+03  0.94078248652E+02 0.  0.
          5    1    3    3  502    0 -0.31865895157E+02  0.11851749286E+02  0.17823998983E+02  0.38674076267E+02  0.47000000000E+01 0. -1.
         -5    1    3    3    0  502  0.55516002231E+02  0.16931690489E+02  0.76764003481E+02  0.96350977561E+02  0.47000000000E+01 0.  1.
          5    1    4    4  503    0 -0.54600973218E+02 -0.33336749012E+02 -0.66037731231E+02  0.92063440394E+02  0.47000000000E+01 0. -1.
         -5    1    4    4    0  503  0.30950866144E+02  0.45533092373E+01 -0.76085631102E+02  0.82400254855E+02  0.47000000000E+01 0.  1.
<mgrwt>
<rscale>  0 0.99956519E+02</rscale>
<asrwt>0</asrwt>
<pdfrwt beam="1">  1        1 0.27463393E-01 0.10118563E+03</pdfrwt>
<pdfrwt beam="2">  1       -1 0.20150261E-01 0.10118563E+03</pdfrwt>
<totfact> 0.32090316E+03</totfact>
</mgrwt>
</event>
<event>
 7    1  0.4063061E-004  0.1783620E+03  0.7546771E-02  0.1195397E+00
          1   -1    0    0  501    0  0.00000000000E+00  0.00000000000E+00  0.45559866193E+03  0.45559866193E+03  0.00000000000E+00 0. -1.
         -1   -1    0    0    0  501 -0.00000000000E+00 -0.00000000000E+00 -0.70018516799E+02  0.70018516799E+02  0.00000000000E+00 0.  1.
         23    2    1    2    0    0 -0.35196269131E+02 -0.16669147475E+02  0.32068992419E+03  0.33581798850E+03  0.91733614781E+02 0.  0.
          5    1    1    2  502    0 -0.24551788308E+02  0.34239959939E+02  0.10658401308E+03  0.11470574097E+03  0.47000000000E+01 0. -1.
         -5    1    1    2    0  502  0.59748057439E+02 -0.17570812464E+02 -0.41693792148E+02  0.75093449262E+02  0.47000000000E+01 0.  1.
          5    1    3    3  503    0 -0.10014025860E+02 -0.52694988361E+02  0.14569160313E+03  0.15532281138E+03  0.47000000000E+01 0. -1.
         -5    1    3    3    0  503 -0.25182243271E+02  0.36025840886E+02  0.17499832106E+03  0.18049517711E+03  0.47000000000E+01 0.  1.
<mgrwt>
<rscale>  0 0.15420718E+03</rscale>
<asrwt>0</asrwt>
<pdfrwt beam="1">  1        1 0.70092100E-01 0.17836197E+03</pdfrwt>
<pdfrwt beam="2">  1       -1 0.10772080E-01 0.17836197E+03</pdfrwt>
<totfact> 0.27304615E+03</totfact>
</mgrwt>
</event>
<event>
 8    1  0.2964543E-004  0.1047095E+03  0.7546771E-02  0.1276828E+00
          1   -1    0    0  501    0  0.00000000000E+00  0.00000000000E+00  0.51863036959E+02  0.51863036959E+02  0.00000000000E+00 0. -1.
         -1   -1    0    0    0  501 -0.00000000000E+00 -0.00000000000E+00 -0.24471570525E+03  0.24471570525E+03  0.00000000000E+00 0.  1.
         23    2    1    2    0    0  0.10359804979E+02 -0.68004002223E+00 -0.17175534217E+03  0.20115660546E+03  0.10419354271E+03 0.  0.
         23    2    1    2    0    0 -0.10359804979E+02  0.68004002223E+00 -0.21097326128E+02  0.95422136757E+02  0.92479722101E+02 0.  0.
          5    1    4    4  502    0 -0.26457880013E+02 -0.30698586612E+02  0.16181222762E+02  0.43890142457E+02  0.47000000000E+01 0. -1.
         -5    1    3    3    0  503  0.54716633572E+02 -0.12416660137E+02 -0.11482949438E+03  0.12789052435E+03  0.47000000000E+01 0.  1.
          5    1    3    3  503    0 -0.44356828593E+02  0.11736620115E+02 -0.56925847786E+02  0.73266081106E+02  0.47000000000E+01 0. -1.
         -5    1    4    4    0  502  0.16098075034E+02  0.31378626635E+02 -0.37278548889E+02  0.51531994300E+02  0.47000000000E+01 0.  1.
<mgrwt>
<rscale>  0 0.10166727E+03</rscale>
<asrwt>0</asrwt>
<pdfrwt beam="1">  1        1 0.79789288E-02 0.10470951E+03</pdfrwt>
<pdfrwt beam="2">  1       -1 0.37648570E-01 0.10470951E+03</pdfrwt>
<totfact> 0.56003533E+03</totfact>
</mgrwt>
</event>
<event>
 8    1  0.2964543E-004  0.1020192E+03  0.7546771E-02  0.1278274E+00
          1   -1    0    0  501    0  0.00000000000E+00  0.00000000000E+00  0.91985756560E+02  0.91985756560E+02  0.00000000000E+00 0. -1.
         -1   -1    0    0    0  501 -0.00000000000E+00 -0.00000000000E+00 -0.21886644897E+03  0.21886644897E+03  0.00000000000E+00 0.  1.
         23    2    1    2    0    0 -0.32859321835E+02 -0.21327307568E+02  0.46216059096E+02  0.11199929681E+03  0.94198350767E+02 0.  0.
         23    2    1    2    0    0  0.32859321835E+02  0.21327307568E+02 -0.17309675150E+03  0.19885290872E+03  0.89696180775E+02 0.  0.
          5    1    3    3  502    0 -0.55357806867E+02 -0.30233453384E+02  0.43301197520E+01  0.63398646844E+02  0.47000000000E+01 0. -1.
         -5    1    3    3    0  502  0.22498485032E+02  0.89061458163E+01  0.41885939344E+02  0.48600649963E+02  0.47000000000E+01 0.  1.
          5    1    4    4  503    0 -0.83844729787E+00  0.49713147229E+02 -0.11810949819E+03  0.12823433068E+03  0.47000000000E+01 0. -1.
         -5    1    4    4    0  503  0.33697769133E+02 -0.28385839661E+02 -0.54987253310E+02  0.70618578040E+02  0.47000000000E+01 0.  1.
<mgrwt>
<rscale>  0 0.10096762E+03</rscale>
<asrwt>0</asrwt>
<pdfrwt beam="1">  1        1 0.14151655E-01 0.10201921E+03</pdfrwt>
<pdfrwt beam="2">  1       -1 0.33671761E-01 0.10201921E+03</pdfrwt>
<totfact> 0.31929782E+03</totfact>
</mgrwt>
</event>
<event>
 8    1  0.2964543E-004  0.1327895E+03  0.7546771E-02  0.1224502E+00
          4   -1    0    0  501    0  0.00000000000E+00  0.00000000000E+00  0.30551206742E+03  0.30551206742E+03  0.00000000000E+00 0. -1.
         -4   -1    0    0    0  501 -0.00000000000E+00 -0.00000000000E+00 -0.24730427036E+03  0.24730427036E+03  0.00000000000E+00 0.  1.
         23    2    1    2    0    0 -0.60653838829E+02 -0.67117161784E+02 -0.21383409413E+03  0.25009560647E+03  0.92947248444E+02 0.  0.
         23    2    1    2    0    0  0.60653838829E+02  0.67117161784E+02  0.27204189119E+03  0.30272073132E+03  0.97208276574E+02 0.  0.
          5    1    3    3  502    0  0.19180579087E+02 -0.16726848860E+02 -0.14939684060E+02  0.29882540834E+02  0.47000000000E+01 0. -1.
         -5    1    4    4    0  503  0.45884495336E+02  0.33234726139E+02  0.44628629224E+02  0.72275434832E+02  0.47000000000E+01 0.  1.
          5    1    4    4  503    0  0.14769343493E+02  0.33882435645E+02  0.22741326197E+03  0.23044529648E+03  0.47000000000E+01 0. -1.
         -5    1    3    3    0  502 -0.79834417915E+02 -0.50390312924E+02 -0.19889441007E+03  0.22021306563E+03  0.47000000000E+01 0.  1.
<mgrwt>
<rscale>  0 0.13201098E+03</rscale>
<asrwt>0</asrwt>
<pdfrwt beam="1">  1        4 0.47001856E-01 0.13278950E+03</pdfrwt>
<pdfrwt beam="2">  1       -4 0.38046811E-01 0.13278950E+03</pdfrwt>
<totfact> 0.49665153E+01</totfact>
</mgrwt>
</event>
<event>
 8    1  0.2964543E-004  0.1039909E+03  0.7546771E-02  0.1273183E+00
         -2   -1    0    0    0  501 -0.00000000000E+00  0.00000000000E+00  0.13351350560E+02  0.13351350560E+02  0.00000000000E+00 0.  1.
          2   -1    0    0  501    0  0.00000000000E+00 -0.00000000000E+00 -0.86726981102E+03  0.86726981102E+03  0.00000000000E+00 0. -1.
         23    2    1    2    0    0  0.14350154451E+02 -0.44831594441E+02 -0.29468690286E+03  0.31180305731E+03  0.90360262496E+02 0.  0.
         23    2    1    2    0    0 -0.14350154451E+02  0.44831594441E+02 -0.55923155760E+03  0.56881810427E+03  0.92727029152E+02 0.  0.
          5    1    3    3  502    0 -0.87095858821E+00  0.26888690080E+02 -0.10175589608E+03  0.10535707195E+03  0.47000000000E+01 0. -1.
         -5    1    4    4    0  503  0.17161659800E+02 -0.18579535446E+02 -0.72257423434E+02  0.76700371223E+02  0.47000000000E+01 0.  1.
          5    1    4    4  503    0 -0.31511814252E+02  0.63411129887E+02 -0.48697413417E+03  0.49211773305E+03  0.47000000000E+01 0. -1.
         -5    1    3    3    0  502  0.15221113040E+02 -0.71720284522E+02 -0.19293100677E+03  0.20644598535E+03  0.47000000000E+01 0.  1.
<mgrwt>
<rscale>  0 0.10346063E+03</rscale>
<asrwt>0</asrwt>
<pdfrwt beam="1">  1        2 0.13342616E+00 0.10399087E+03</pdfrwt>
<pdfrwt beam="2">  1       -2 0.20540533E-02 0.10399087E+03</pdfrwt>
<totfact> 0.22017983E+04</totfact>
</mgrwt>
</event>
<event>
 8    1  0.2964543E-004  0.1080145E+03  0.7546771E-02  0.1266471E+00
          1   -1    0    0  501    0  0.00000000000E+00  0.00000000000E+00  0.65542850195E+02  0.65542850195E+02  0.00000000000E+00 0. -1.
         -1   -1    0    0    0  501 -0.00000000000E+00 -0.00000000000E+00 -0.19094489106E+03  0.19094489106E+03  0.00000000000E+00 0.  1.
         23    2    1    2    0    0 -0.45580976916E+02  0.26388289570E+02 -0.10327623744E+03  0.14623034823E+03  0.89125564462E+02 0.  0.
         23    2    1    2    0    0  0.45580976916E+02 -0.26388289570E+02 -0.22125803429E+02  0.11025739303E+03  0.94303628015E+02 0.  0.
          5    1    4    4  502    0  0.74859253586E+02 -0.18119598407E+02 -0.17549496258E+02  0.79134711175E+02  0.47000000000E+01 0. -1.
         -5    1    3    3    0  503 -0.64688175705E+02  0.12437488184E+01 -0.91578255759E+02  0.11222644036E+03  0.47000000000E+01 0.  1.
          5    1    3    3  503    0  0.19107198789E+02  0.25144540751E+02 -0.11697981676E+02  0.34003907870E+02  0.47000000000E+01 0. -1.
         -5    1    4    4    0  502 -0.29278276670E+02 -0.82686911625E+01 -0.45763071711E+01  0.31122681852E+02  0.47000000000E+01 0.  1.
<mgrwt>
<rscale>  0 0.10687411E+03</rscale>
<asrwt>0</asrwt>
<pdfrwt beam="1">  1        1 0.10083515E-01 0.10801454E+03</pdfrwt>
<pdfrwt beam="2">  1       -1 0.29376137E-01 0.10801454E+03</pdfrwt>
<totfact> 0.62682684E+03</totfact>
</mgrwt>
</event>
<event>
 8    1  0.2964543E-004  0.9312569E+02  0.7546771E-02  0.1296164E+00
         -4   -1    0    0    0  501 -0.00000000000E+00  0.00000000000E+00  0.54490255312E+02  0.54490255312E+02  0.00000000000E+00 0.  1.
          4   -1    0    0  501    0  0.00000000000E+00 -0.00000000000E+00 -0.27163151066E+03  0.27163151066E+03  0.00000000000E+00 0. -1.
         23    2    1    2    0    0 -0.80134770596E+01  0.13265898486E+02 -0.22659430039E+01  0.91934245277E+02  0.90590126834E+02 0.  0.
         23    2    1    2    0    0  0.80134770596E+01 -0.13265898486E+02 -0.21487531234E+03  0.23418752069E+03  0.91826984690E+02 0.  0.
          5    1    3    3  502    0  0.41100873114E+02  0.28505075403E+01 -0.18041338254E+01  0.41506048509E+02  0.47000000000E+01 0. -1.
         -5    1    4    4    0  503 -0.24654498656E+02 -0.64262827147E+01 -0.12036956154E+02  0.28567809278E+02  0.47000000000E+01 0.  1.
          5    1    4    4  503    0  0.32667975716E+02 -0.68396157714E+01 -0.20283835619E+03  0.20561971141E+03  0.47000000000E+01 0. -1.
         -5    1    3    3    0  502 -0.49114350174E+02  0.10415390946E+02 -0.46180917847E+00  0.50428196768E+02  0.47000000000E+01 0.  1.
<mgrwt>
<rscale>  0 0.92819342E+02</rscale>
<asrwt>0</asrwt>
<pdfrwt beam="1">  1        4 0.41789462E-01 0.93125695E+02</pdfrwt>
<pdfrwt beam="2">  1       -4 0.83831164E-02 0.93125695E+02</pdfrwt>
<totfact> 0.86469336E+02</totfact>
</mgrwt>
</event>
<event>
 8    1  0.2964543E-004  0.1002239E+03  0.7546771E-02  0.1283827E+00
         -1   -1    0    0    0  501 -0.00000000000E+00  0.00000000000E+00  0.62247084397E+02  0.62247084397E+02  0.00000000000E+00 0.  1.
          1   -1    0    0  501    0  0.00000000000E+00 -0.00000000000E+00 -0.16507012307E+03  0.16507012307E+03  0.00000000000E+00 0. -1.
         23    2    1    2    0    0 -0.10592362375E+02  0.34666287023E+01 -0.15081310056E+02  0.94112665411E+02  0.92225442381E+02 0.  0.
         23    2    1    2    0    0  0.10592362375E+02 -0.34666287023E+01 -0.87741728616E+02  0.13320454206E+03  0.99602326422E+02 0.  0.
          5    1    4    4  502    0 -0.24680872728E+02 -0.21876510468E+02 -0.86969807182E+02  0.93131973833E+02  0.47000000000E+01 0. -1.
         -5    1    4    4    0  502  0.35273235103E+02  0.18409881765E+02 -0.77192143391E+00  0.40072568223E+02  0.47000000000E+01 0.  1.
          5    1    3    3  503    0 -0.38217986863E+02 -0.17034712515E+01 -0.40513068521E+02  0.55918825588E+02  0.47000000000E+01 0. -1.
         -5    1    3    3    0  503  0.27625624487E+02  0.51700999538E+01  0.25431758465E+02  0.38193839823E+02  0.47000000000E+01 0.  1.
<mgrwt>
<rscale>  0 0.98339588E+02</rscale>
<asrwt>0</asrwt>
<pdfrwt beam="1">  1        1 0.25395404E-01 0.10022394E+03</pdfrwt>
<pdfrwt beam="2">  1       -1 0.95764744E-02 0.10022394E+03</pdfrwt>
<totfact> 0.11177762E+04</totfact>
</mgrwt>
</event>
<event>
 8    1  0.2964543E-004  0.9446663E+02  0.7546771E-02  0.1294025E+00
         -3   -1    0    0    0  501 -0.00000000000E+00  0.00000000000E+00  0.12263445532E+03  0.12263445532E+03  0.00000000000E+00 0.  1.
          3   -1    0    0  501    0  0.00000000000E+00 -0.00000000000E+00 -0.71537360005E+02  0.71537360005E+02  0.00000000000E+00 0. -1.
         23    2    1    2    0    0  0.18818022949E+02  0.64685110832E+01  0.14766573258E+02  0.95613787112E+02  0.92347089704E+02 0.  0.
         23    2    1    2    0    0 -0.18818022949E+02 -0.64685110832E+01  0.36330522056E+02  0.98558028212E+02  0.89430523138E+02 0.  0.
          5    1    4    4  502    0 -0.43229816439E+02  0.18551368630E+02  0.41504202243E+02  0.62909928558E+02  0.47000000000E+01 0. -1.
         -5    1    4    4    0  502  0.24411793490E+02 -0.25019879713E+02 -0.51736801867E+01  0.35648099654E+02  0.47000000000E+01 0.  1.
          5    1    3    3  503    0  0.15156221674E+02  0.33149740826E+02 -0.27064167728E+02  0.45641817964E+02  0.47000000000E+01 0. -1.
         -5    1    3    3    0  503  0.36618012754E+01 -0.26681229742E+02  0.41830740986E+02  0.49971969148E+02  0.47000000000E+01 0.  1.
<mgrwt>
<rscale>  0 0.93746165E+02</rscale>
<asrwt>0</asrwt>
<pdfrwt beam="1">  1        3 0.11005748E-01 0.94466632E+02</pdfrwt>
<pdfrwt beam="2">  1       -3 0.18866839E-01 0.94466632E+02</pdfrwt>
<totfact> 0.33201464E+03</totfact>
</mgrwt>
</event>
<event>
 8    1  0.2964543E-004  0.9762894E+02  0.7546771E-02  0.1286471E+00
          4   -1    0    0  501    0  0.00000000000E+00  0.00000000000E+00  0.18101639098E+02  0.18101639098E+02  0.00000000000E+00 0. -1.
         -4   -1    0    0    0  501 -0.00000000000E+00 -0.00000000000E+00 -0.52115387813E+03  0.52115387813E+03  0.00000000000E+00 0.  1.
         23    2    1    2    0    0  0.22067597813E+02 -0.18809386556E+02 -0.27646483376E+03  0.29253044336E+03  0.91106992540E+02 0.  0.
         23    2    1    2    0    0 -0.22067597813E+02  0.18809386556E+02 -0.22658740528E+03  0.24672507388E+03  0.93223591181E+02 0.  0.
          5    1    3    3  502    0  0.25425139651E+02 -0.41035090696E+02 -0.25946378109E+03  0.26395806502E+03  0.47000000000E+01 0. -1.
         -5    1    4    4    0  503 -0.52805115127E+02  0.20513792505E+02 -0.88601792474E+02  0.10526900539E+03  0.47000000000E+01 0.  1.
          5    1    4    4  503    0  0.30737517313E+02 -0.17044059497E+01 -0.13798561280E+03  0.14145606848E+03  0.47000000000E+01 0. -1.
         -5    1    3    3    0  502 -0.33575418373E+01  0.22225704140E+02 -0.17001052671E+02  0.28572378334E+02  0.47000000000E+01 0.  1.
<mgrwt>
<rscale>  0 0.97120221E+02</rscale>
<asrwt>0</asrwt>
<pdfrwt beam="1">  1        4 0.27848679E-02 0.97628940E+02</pdfrwt>
<pdfrwt beam="2">  1       -4 0.80177509E-01 0.97628940E+02</pdfrwt>
<totfact> 0.13126412E+03</totfact>
</mgrwt>
</event>
<event>
 7    1  0.2964543E-004  0.1384316E+03  0.7546771E-02  0.1231936E+00
         -2   -1    0    0    0  501 -0.00000000000E+00  0.00000000000E+00  0.47506491275E+02  0.47506491275E+02  0.00000000000E+00 0.  1.
          2   -1    0    0  501    0  0.00000000000E+00 -0.00000000000E+00 -0.47885888831E+03  0.47885888831E+03  0.00000000000E+00 0. -1.
         23    2    1    2    0    0  0.31306318032E+02  0.98315610501E+01 -0.31264525738E+02  0.10300547072E+03  0.92498169100E+02 0.  0.
          5    1    1    2  502    0 -0.72995620072E+02  0.27566532997E+02 -0.28110377292E+03  0.29176993581E+03  0.47000000000E+01 0. -1.
         -5    1    3    3    0  503  0.47214484309E+02  0.31729929287E+02  0.52389493792E+01  0.57319564999E+02  0.47000000000E+01 0.  1.
          5    1    3    3  503    0 -0.15908166277E+02 -0.21898368237E+02 -0.36503475117E+02  0.45685905719E+02  0.47000000000E+01 0. -1.
         -5    1    1    2    0  502  0.41689302041E+02 -0.37398094047E+02 -0.11898409837E+03  0.13158997305E+03  0.47000000000E+01 0.  1.
<mgrwt>
<rscale>  0 0.12702660E+03</rscale>
<asrwt>0</asrwt>
<pdfrwt beam="1">  1        2 0.73670600E-01 0.13843160E+03</pdfrwt>
<pdfrwt beam="2">  1       -2 0.73086908E-02 0.13843160E+03</pdfrwt>
<totfact> 0.68309121E+03</totfact>
</mgrwt>
</event>
<event>
 8    1  0.2964543E-004  0.1632331E+03  0.7546771E-02  0.1185958E+00
         -1   -1    0    0    0  501 -0.00000000000E+00  0.00000000000E+00  0.99771931902E+02  0.99771931902E+02  0.00000000000E+00 0.  1.
          1   -1    0    0  501    0  0.00000000000E+00 -0.00000000000E+00 -0.26964384815E+03  0.26964384815E+03  0.00000000000E+00 0. -1.
         23    2    1    2    0    0  0.12393772349E+03  0.43697598465E+02 -0.11683779414E+03  0.20073888652E+03  0.96824537208E+02 0.  0.
         23    2    1    2    0    0 -0.12393772349E+03 -0.43697598465E+02 -0.53034122114E+02  0.16867689354E+03  0.91483533445E+02 0.  0.
          5    1    3    3  502    0  0.66590433868E+01 -0.25530439537E+02 -0.22632145243E+02  0.35077773590E+02  0.47000000000E+01 0. -1.
         -5    1    3    3    0  502  0.11727868010E+03  0.69228038002E+02 -0.94205648896E+02  0.16566111293E+03  0.47000000000E+01 0.  1.
          5    1    4    4  503    0 -0.33281322593E+02 -0.11591368667E+02 -0.62519716290E+02  0.71922257933E+02  0.47000000000E+01 0. -1.
         -5    1    4    4    0  503 -0.90656400894E+02 -0.32106229798E+02  0.94855941761E+01  0.96754635608E+02  0.47000000000E+01 0.  1.
<mgrwt>
<rscale>  0 0.16244985E+03</rscale>
<asrwt>0</asrwt>
<pdfrwt beam="1">  1        1 0.41483669E-01 0.16323306E+03</pdfrwt>
<pdfrwt beam="2">  1       -1 0.15349528E-01 0.16323306E+03</pdfrwt>
<totfact> 0.30346554E+03</totfact>
</mgrwt>
</event>
<event>
 8    1  0.2964543E-004  0.1085123E+03  0.7546771E-02  0.1265544E+00
          1   -1    0    0  501    0  0.00000000000E+00  0.00000000000E+00  0.10416896023E+04  0.10416896023E+04  0.00000000000E+00 0. -1.
         -1   -1    0    0    0  501 -0.00000000000E+00 -0.00000000000E+00 -0.11475178710E+02  0.11475178710E+02  0.00000000000E+00 0.  1.
         23    2    1    2    0    0  0.34489446561E+02  0.46463981206E+02  0.40115329505E+03  0.41557055941E+03  0.91795970765E+02 0.  0.
         23    2    1    2    0    0 -0.34489446561E+02 -0.46463981206E+02  0.62906112850E+03  0.63759422156E+03  0.86371664904E+02 0.  0.
          5    1    3    3  502    0 -0.20179108314E+02  0.44697289042E+02  0.13243341721E+03  0.14130019127E+03  0.47000000000E+01 0. -1.
         -5    1    4    4    0  503  0.14750984425E+02 -0.50970343705E+02  0.36994809863E+03  0.37376363274E+03  0.47000000000E+01 0.  1.
          5    1    4    4  503    0 -0.49240430987E+02  0.45063624988E+01  0.25911302987E+03  0.26383058882E+03  0.47000000000E+01 0. -1.
         -5    1    3    3    0  502  0.54668554876E+02  0.17666921638E+01  0.26871987784E+03  0.27427036814E+03  0.47000000000E+01 0.  1.
<mgrwt>
<rscale>  0 0.10735689E+03</rscale>
<asrwt>0</asrwt>
<pdfrwt beam="1">  1        1 0.16025986E+00 0.10851232E+03</pdfrwt>
<pdfrwt beam="2">  1       -1 0.17654129E-02 0.10851232E+03</pdfrwt>
<totfact> 0.11628419E+04</totfact>
</mgrwt>
</event>
<event>
 8    1  0.2964543E-004  0.9804414E+02  0.7546771E-02  0.1285748E+00
         -3   -1    0    0    0  501 -0.00000000000E+00  0.00000000000E+00  0.47816681720E+02  0.47816681720E+02  0.00000000000E+00 0.  1.
          3   -1    0    0  501    0  0.00000000000E+00 -0.00000000000E+00 -0.19708637114E+03  0.19708637114E+03  0.00000000000E+00 0. -1.
         23    2    1    2    0    0 -0.32243937935E+02 -0.91795158066E+01 -0.67534588056E+02  0.11905282120E+03  0.92134242313E+02 0.  0.
         23    2    1    2    0    0  0.32243937935E+02  0.91795158066E+01 -0.81735101367E+02  0.12585023167E+03  0.89631015678E+02 0.  0.
          5    1    4    4  502    0 -0.19549872247E+02 -0.81466136795E+01 -0.65016635701E+02  0.68540628369E+02  0.47000000000E+01 0. -1.
         -5    1    4    4    0  502  0.51793810182E+02  0.17326129486E+02 -0.16718465666E+02  0.57309603300E+02  0.47000000000E+01 0.  1.
          5    1    3    3  503    0 -0.99228174150E+01 -0.34199637694E+02  0.75355141422E+01  0.36700837827E+02  0.47000000000E+01 0. -1.
         -5    1    3    3    0  503 -0.22321120520E+02  0.25020121887E+02 -0.75070102199E+02  0.82351983368E+02  0.47000000000E+01 0.  1.
<mgrwt>
<rscale>  0 0.97451665E+02</rscale>
<asrwt>0</asrwt>
<pdfrwt beam="1">  1        3 0.30320981E-01 0.98044141E+02</pdfrwt>
<pdfrwt beam="2">  1       -3 0.73564124E-02 0.98044141E+02</pdfrwt>
<totfact> 0.27644565E+03</totfact>
</mgrwt>
</event>
<event>
 8    1  0.2964543E-004  0.9444741E+02  0.7546771E-02  0.1292726E+00
         -1   -1    0    0    0  501 -0.00000000000E+00  0.00000000000E+00  0.56459973465E+02  0.56459973465E+02  0.00000000000E+00 0.  1.
          1   -1    0    0  501    0  0.00000000000E+00 -0.00000000000E+00 -0.17838344060E+03  0.17838344060E+03  0.00000000000E+00 0. -1.
         23    2    1    2    0    0  0.24383383401E+02 -0.22777804848E+00 -0.20565130549E+02  0.96660429988E+02  0.91245344330E+02 0.  0.
         23    2    1    2    0    0 -0.24383383401E+02  0.22777804848E+00 -0.10135833659E+03  0.13818298408E+03  0.90699632989E+02 0.  0.
          5    1    4    4  502    0 -0.69524767798E+01 -0.41711897038E+02 -0.72816614540E+02  0.84336045917E+02  0.47000000000E+01 0. -1.
         -5    1    3    3    0  503  0.49926091538E+02  0.10751837286E+02  0.12915735415E+02  0.52887832651E+02  0.47000000000E+01 0.  1.
          5    1    3    3  503    0 -0.25542708136E+02 -0.10979615335E+02 -0.33480865964E+02  0.43772597336E+02  0.47000000000E+01 0. -1.
         -5    1    4    4    0  502 -0.17430906621E+02  0.41939675086E+02 -0.28541722045E+02  0.53846938161E+02  0.47000000000E+01 0.  1.
<mgrwt>
<rscale>  0 0.94315362E+02</rscale>
<asrwt>0</asrwt>
<pdfrwt beam="1">  1        1 0.27443606E-01 0.94447415E+02</pdfrwt>
<pdfrwt beam="2">  1       -1 0.86861498E-02 0.94447415E+02</pdfrwt>
<totfact> 0.11696183E+04</totfact>
</mgrwt>
</event>
<event>
 8    1  0.2964543E-004  0.9713480E+02  0.7546771E-02  0.1289042E+00
          2   -1    0    0  501    0  0.00000000000E+00  0.00000000000E+00  0.14882978289E+03  0.14882978289E+03  0.00000000000E+00 0. -1.
         -2   -1    0    0    0  501 -0.00000000000E+00 -0.00000000000E+00 -0.68248956363E+02  0.68248956363E+02  0.00000000000E+00 0.  1.
         23    2    1    2    0    0  0.55991766677E+01  0.25465142934E+02  0.43741353456E+01  0.97233237459E+02  0.93570001191E+02 0.  0.
         23    2    1    2    0    0 -0.55991766677E+01 -0.25465142934E+02  0.76206691184E+02  0.11984550180E+03  0.88744916676E+02 0.  0.
          5    1    3    3  502    0 -0.22377769458E+02 -0.52199243535E+00  0.39170501489E+02  0.45359180205E+02  0.47000000000E+01 0. -1.
         -5    1    3    3    0  502  0.27976946126E+02  0.25987135369E+02 -0.34796366143E+02  0.51874057254E+02  0.47000000000E+01 0.  1.
          5    1    4    4  503    0  0.83629798991E+01 -0.55999929450E+02  0.36034763779E+02  0.67279459954E+02  0.47000000000E+01 0. -1.
         -5    1    4    4    0  503 -0.13962156567E+02  0.30534786516E+02  0.40171927405E+02  0.52566041843E+02  0.47000000000E+01 0.  1.
<mgrwt>
<rscale>  0 0.95953697E+02</rscale>
<asrwt>0</asrwt>
<pdfrwt beam="1">  1        2 0.22896890E-01 0.97134800E+02</pdfrwt>
<pdfrwt beam="2">  1       -2 0.10499839E-01 0.97134800E+02</pdfrwt>
<totfact> 0.13232568E+04</totfact>
</mgrwt>
</event>
<event>
 8    1  0.2964543E-004  0.4483105E+03  0.7546771E-02  0.1028238E+00
         -2   -1    0    0    0  501 -0.00000000000E+00  0.00000000000E+00  0.24082545741E+03  0.24082545741E+03  0.00000000000E+00 0.  1.
          2   -1    0    0  501    0  0.00000000000E+00 -0.00000000000E+00 -0.12299531293E+04  0.12299531293E+04  0.00000000000E+00 0. -1.
         23    2    1    2    0    0 -0.43776299804E+03 -0.31680944097E+02 -0.77523247170E+02  0.45496392578E+03  0.91335618655E+02 0.  0.
         23    2    1    2    0    0  0.43776299804E+03  0.31680944097E+02 -0.91160442472E+03  0.10158146609E+04  0.90645868673E+02 0.  0.
          5    1    3    3  502    0 -0.11596503094E+03 -0.37898413287E+02  0.65715202338E+01  0.12226795577E+03  0.47000000000E+01 0. -1.
         -5    1    4    4    0  503  0.19961953293E+03 -0.13660192736E+02 -0.33387656618E+03  0.38926881487E+03  0.47000000000E+01 0.  1.
          5    1    4    4  503    0  0.23814346511E+03  0.45341136833E+02 -0.57772785854E+03  0.62654584605E+03  0.47000000000E+01 0. -1.
         -5    1    3    3    0  502 -0.32179796710E+03  0.62174691906E+01 -0.84094767404E+02  0.33269597000E+03  0.47000000000E+01 0.  1.
<mgrwt>
<rscale>  0 0.44827551E+03</rscale>
<asrwt>0</asrwt>
<pdfrwt beam="1">  1        2 0.18922355E+00 0.44831052E+03</pdfrwt>
<pdfrwt beam="2">  1       -2 0.37050072E-01 0.44831052E+03</pdfrwt>
<totfact> 0.13034374E+02</totfact>
</mgrwt>
</event>
<event>
 7    1  0.2964543E-004  0.1623779E+03  0.7546771E-02  0.1195741E+00
          2   -1    0    0  501    0  0.00000000000E+00  0.00000000000E+00  0.98046108193E+03  0.98046108193E+03  0.00000000000E+00 0. -1.
         -2   -1    0    0    0  501 -0.00000000000E+00 -0.00000000000E+00 -0.25596996219E+02  0.25596996219E+02  0.00000000000E+00 0.  1.
         23    2    1    2    0    0 -0.35834521772E+02 -0.84675967088E+02  0.24506308401E+03  0.27792069980E+03  0.93433761984E+02 0.  0.
          5    1    3    3  502    0  0.35273419873E+01 -0.42411925070E+02  0.19995387121E+03  0.20448680677E+03  0.47000000000E+01 0. -1.
         -5    1    1    2    0  503  0.37246300858E+01 -0.23905250864E+02  0.29403290840E+02  0.38366357663E+02  0.47000000000E+01 0.  1.
          5    1    1    2  503    0  0.32109891686E+02  0.10858121795E+03  0.68039771086E+03  0.68977102069E+03  0.47000000000E+01 0. -1.
         -5    1    3    3    0  502 -0.39361863759E+02 -0.42264042018E+02  0.45109212801E+02  0.73433893032E+02  0.47000000000E+01 0.  1.
<mgrwt>
<rscale>  0 0.15391669E+03</rscale>
<asrwt>0</asrwt>
<pdfrwt beam="1">  1        2 0.15084014E+00 0.16237789E+03</pdfrwt>
<pdfrwt beam="2">  1       -2 0.39380002E-02 0.16237789E+03</pdfrwt>
<totfact> 0.74248459E+03</totfact>
</mgrwt>
</event>
<event>
 8    1  0.2964543E-004  0.1181826E+03  0.7546771E-02  0.1247948E+00
         -1   -1    0    0    0  501 -0.00000000000E+00  0.00000000000E+00  0.80359388831E+02  0.80359388831E+02  0.00000000000E+00 0.  1.
          1   -1    0    0  501    0  0.00000000000E+00 -0.00000000000E+00 -0.39506602915E+03  0.39506602915E+03  0.00000000000E+00 0. -1.
         23    2    1    2    0    0 -0.64818643452E+02 -0.22113251425E+02  0.21779197466E+02  0.12017260768E+03  0.96315470029E+02 0.  0.
         23    2    1    2    0    0  0.64818643452E+02  0.22113251425E+02 -0.33648583779E+03  0.35525281030E+03  0.91057057762E+02 0.  0.
          5    1    3    3  502    0 -0.26404920515E+02  0.17274717912E+02 -0.30496916534E+02  0.44133747002E+02  0.47000000000E+01 0. -1.
         -5    1    4    4    0  503  0.16750246025E+02  0.46112392529E+02 -0.86867626536E+02  0.99874911898E+02  0.47000000000E+01 0.  1.
          5    1    4    4  503    0  0.48068397427E+02 -0.23999141103E+02 -0.24961821125E+03  0.25537789841E+03  0.47000000000E+01 0. -1.
         -5    1    3    3    0  502 -0.38413722937E+02 -0.39387969337E+02  0.52276114000E+02  0.76038860679E+02  0.47000000000E+01 0.  1.
<mgrwt>
<rscale>  0 0.11710680E+03</rscale>
<asrwt>0</asrwt>
<pdfrwt beam="1">  1        1 0.60779389E-01 0.11818258E+03</pdfrwt>
<pdfrwt beam="2">  1       -1 0.12362983E-01 0.11818258E+03</pdfrwt>
<totfact> 0.26077864E+03</totfact>
</mgrwt>
</event>
<event>
 8    1  0.2964543E-004  0.1124625E+03  0.7546771E-02  0.1256530E+00
          1   -1    0    0  501    0  0.00000000000E+00  0.00000000000E+00  0.77235609122E+02  0.77235609122E+02  0.00000000000E+00 0. -1.
         -1   -1    0    0    0  501 -0.00000000000E+00 -0.00000000000E+00 -0.28041054538E+03  0.28041054538E+03  0.00000000000E+00 0.  1.
         23    2    1    2    0    0 -0.21609783850E+02 -0.60427007845E+02 -0.21790777909E+03  0.24521747311E+03  0.92354766505E+02 0.  0.
         23    2    1    2    0    0  0.21609783850E+02  0.60427007845E+02  0.14732842832E+02  0.11242868139E+03  0.91130377514E+02 0.  0.
          5    1    4    4  502    0  0.32454267985E+02  0.79916056763E+02  0.20780912874E+02  0.88847014462E+02  0.47000000000E+01 0. -1.
         -5    1    4    4    0  502 -0.10844484135E+02 -0.19489048917E+02 -0.60480700420E+01  0.23581666928E+02  0.47000000000E+01 0.  1.
          5    1    3    3  503    0 -0.46174601438E+02 -0.54917412306E+02 -0.92175637273E+02  0.11690361029E+03  0.47000000000E+01 0. -1.
         -5    1    3    3    0  503  0.24564817588E+02 -0.55095955393E+01 -0.12573214182E+03  0.12831386282E+03  0.47000000000E+01 0.  1.
<mgrwt>
<rscale>  0 0.11221081E+03</rscale>
<asrwt>0</asrwt>
<pdfrwt beam="1">  1        1 0.11882402E-01 0.11246248E+03</pdfrwt>
<pdfrwt beam="2">  1       -1 0.43140083E-01 0.11246248E+03</pdfrwt>
<totfact> 0.26240663E+03</totfact>
</mgrwt>
</event>
<event>
 8    1  0.2964543E-004  0.9165125E+02  0.7546771E-02  0.1299102E+00
         -3   -1    0    0    0  501 -0.00000000000E+00  0.00000000000E+00  0.31818850984E+03  0.31818850984E+03  0.00000000000E+00 0.  1.
          3   -1    0    0  501    0  0.00000000000E+00 -0.00000000000E+00 -0.32699680014E+02  0.32699680014E+02  0.00000000000E+00 0. -1.
         23    2    1    2    0    0 -0.23154907871E+01 -0.13928898685E+02  0.64928330140E+02  0.11204329179E+03  0.90214386127E+02 0.  0.
         23    2    1    2    0    0  0.23154907871E+01  0.13928898685E+02  0.22056049969E+03  0.23884489807E+03  0.90557029508E+02 0.  0.
          5    1    4    4  502    0 -0.42237195761E+02  0.38548206226E+01  0.13708783591E+03  0.14357578174E+03  0.47000000000E+01 0. -1.
         -5    1    3    3    0  503 -0.23583571544E+02 -0.11904227709E+02  0.80720506773E+02  0.85063421620E+02  0.47000000000E+01 0.  1.
          5    1    3    3  503    0  0.21268080757E+02 -0.20246709763E+01 -0.15792176632E+02  0.26979870171E+02  0.47000000000E+01 0. -1.
         -5    1    4    4    0  502  0.44552686548E+02  0.10074078062E+02  0.83472663783E+02  0.95269116331E+02  0.47000000000E+01 0.  1.
<mgrwt>
<rscale>  0 0.91566496E+02</rscale>
<asrwt>0</asrwt>
<pdfrwt beam="1">  1        3 0.50307202E-02 0.91651248E+02</pdfrwt>
<pdfrwt beam="2">  1       -3 0.48952076E-01 0.91651248E+02</pdfrwt>
<totfact> 0.20038539E+03</totfact>
</mgrwt>
</event>
<event>
 8    1  0.2964543E-004  0.1008215E+03  0.7546771E-02  0.1281257E+00
         -2   -1    0    0    0  501 -0.00000000000E+00  0.00000000000E+00  0.15139701466E+03  0.15139701466E+03  0.00000000000E+00 0.  1.
          2   -1    0    0  501    0  0.00000000000E+00 -0.00000000000E+00 -0.98316871767E+02  0.98316871767E+02  0.00000000000E+00 0. -1.
         23    2    1    2    0    0 -0.19832792544E+02  0.23440817772E+02  0.10089602535E+03  0.14263584877E+03  0.96032108300E+02 0.  0.
         23    2    1    2    0    0  0.19832792544E+02 -0.23440817772E+02 -0.47815882457E+02  0.10707803766E+03  0.90755363122E+02 0.  0.
          5    1    4    4  502    0 -0.22465466966E+02 -0.23337287909E+02 -0.54916052326E+02  0.63931127129E+02  0.47000000000E+01 0. -1.
         -5    1    4    4    0  502  0.42298259510E+02 -0.10352986263E+00  0.71001698684E+01  0.43146910528E+02  0.47000000000E+01 0.  1.
          5    1    3    3  503    0  0.25895549797E+02 -0.23316912200E+02  0.38111001181E+02  0.51853604550E+02  0.47000000000E+01 0. -1.
         -5    1    3    3    0  503 -0.45728342340E+02  0.46757729972E+02  0.62785024164E+02  0.90782244215E+02  0.47000000000E+01 0.  1.
<mgrwt>
<rscale>  0 0.99544297E+02</rscale>
<asrwt>0</asrwt>
<pdfrwt beam="1">  1        2 0.15125673E-01 0.10082151E+03</pdfrwt>
<pdfrwt beam="2">  1       -2 0.23291848E-01 0.10082151E+03</pdfrwt>
<totfact> 0.57750163E+03</totfact>
</mgrwt>
</event>
<event>
 8    1  0.2964543E-004  0.1260259E+03  0.7546771E-02  0.1237808E+00
         -1   -1    0    0    0  501 -0.00000000000E+00  0.00000000000E+00  0.47199800744E+02  0.47199800744E+02  0.00000000000E+00 0.  1.
          1   -1    0    0  501    0  0.00000000000E+00 -0.00000000000E+00 -0.31550555225E+03  0.31550555225E+03  0.00000000000E+00 0. -1.
         23    2    1    2    0    0 -0.69322580554E+02  0.21991069775E+02 -0.16685484151E+03  0.20910063041E+03  0.10292379791E+03 0.  0.
         23    2    1    2    0    0  0.69322580554E+02 -0.21991069775E+02 -0.10145090999E+03  0.15360472258E+03  0.89514782789E+02 0.  0.
          5    1    4    4  502    0  0.89317845296E+02 -0.11607544139E+02 -0.91661609203E+02  0.12859375246E+03  0.47000000000E+01 0. -1.
         -5    1    3    3    0  503 -0.90565265488E+02  0.21769942004E+02 -0.91445954703E+02  0.13061565878E+03  0.47000000000E+01 0.  1.
          5    1    3    3  503    0  0.21242684934E+02  0.22112777166E+00 -0.75408886812E+02  0.78484971624E+02  0.47000000000E+01 0. -1.
         -5    1    4    4    0  502 -0.19995264742E+02 -0.10383525636E+02 -0.97893007828E+01  0.25010970124E+02  0.47000000000E+01 0.  1.
<mgrwt>
<rscale>  0 0.12326366E+03</rscale>
<asrwt>0</asrwt>
<pdfrwt beam="1">  1        1 0.48539314E-01 0.12602593E+03</pdfrwt>
<pdfrwt beam="2">  1       -1 0.72615080E-02 0.12602593E+03</pdfrwt>
<totfact> 0.77652002E+03</totfact>
</mgrwt>
</event>
<event>
 8    1  0.2964543E-004  0.1566306E+03  0.7546771E-02  0.1192610E+00
         -3   -1    0    0    0  501 -0.00000000000E+00  0.00000000000E+00  0.58262176404E+03  0.58262176404E+03  0.00000000000E+00 0.  1.
          3   -1    0    0  501    0  0.00000000000E+00 -0.00000000000E+00 -0.42061726694E+02  0.42061726694E+02  0.00000000000E+00 0. -1.
         23    2    1    2    0    0 -0.54288572143E+02  0.11524352744E+03  0.27387434887E+03  0.31550007044E+03  0.91130762084E+02 0.  0.
         23    2    1    2    0    0  0.54288572143E+02 -0.11524352744E+03  0.26668568848E+03  0.30918342029E+03  0.90800943074E+02 0.  0.
          5    1    4    4  502    0  0.15057906268E+02 -0.11459856242E+03  0.21473579244E+03  0.24391211861E+03  0.47000000000E+01 0. -1.
         -5    1    4    4    0  502  0.39230665875E+02 -0.64496501762E+00  0.51949896032E+02  0.65271301677E+02  0.47000000000E+01 0.  1.
          5    1    3    3  503    0  0.15989431105E+02  0.21184797908E+02  0.11366014520E+03  0.11681256858E+03  0.47000000000E+01 0. -1.
         -5    1    3    3    0  503 -0.70278003248E+02  0.94058729533E+02  0.16021420367E+03  0.19868750187E+03  0.47000000000E+01 0.  1.
<mgrwt>
<rscale>  0 0.15658263E+03</rscale>
<asrwt>0</asrwt>
<pdfrwt beam="1">  1        3 0.64710353E-02 0.15663057E+03</pdfrwt>
<pdfrwt beam="2">  1       -3 0.89634112E-01 0.15663057E+03</pdfrwt>
<totfact> 0.41387309E+02</totfact>
</mgrwt>
</event>
<event>
 8    1  0.2964543E-004  0.1093174E+03  0.7546771E-02  0.1269257E+00
          1   -1    0    0  501    0  0.00000000000E+00  0.00000000000E+00  0.39724689184E+03  0.39724689184E+03  0.00000000000E+00 0. -1.
         -1   -1    0    0    0  501 -0.00000000000E+00 -0.00000000000E+00 -0.26847182068E+02  0.26847182068E+02  0.00000000000E+00 0.  1.
         23    2    1    2    0    0 -0.23076933294E+02 -0.28125387714E+01  0.23177009645E+03  0.25625704309E+03  0.10681684933E+03 0.  0.
         23    2    1    2    0    0  0.23076933294E+02  0.28125387714E+01  0.13862961333E+03  0.16783703082E+03  0.91709563289E+02 0.  0.
          5    1    3    3  502    0  0.32365742358E+01  0.49626601611E+02  0.94227731042E+02  0.10665003656E+03  0.47000000000E+01 0. -1.
         -5    1    4    4    0  503  0.47263622319E+01 -0.34154380277E+02  0.15881928533E+02  0.38251612332E+02  0.47000000000E+01 0.  1.
          5    1    4    4  503    0  0.18350571062E+02  0.36966919049E+02  0.12274768480E+03  0.12958541849E+03  0.47000000000E+01 0. -1.
         -5    1    3    3    0  502 -0.26313507530E+02 -0.52439140382E+02  0.13754236541E+03  0.14960700653E+03  0.47000000000E+01 0.  1.
<mgrwt>
<rscale>  0 0.10543906E+03</rscale>
<asrwt>0</asrwt>
<pdfrwt beam="1">  1        1 0.61114902E-01 0.10931740E+03</pdfrwt>
<pdfrwt beam="2">  1       -1 0.41303360E-02 0.10931740E+03</pdfrwt>
<totfact> 0.13287939E+04</totfact>
</mgrwt>
</event>
<event>
 8    1  0.2964543E-004  0.1084831E+03  0.7546771E-02  0.1263561E+00
         -1   -1    0    0    0  501 -0.00000000000E+00  0.00000000000E+00  0.45993272808E+02  0.45993272808E+02  0.00000000000E+00 0.  1.
          1   -1    0    0  501    0  0.00000000000E+00 -0.00000000000E+00 -0.29955304224E+03  0.29955304224E+03  0.00000000000E+00 0. -1.
         23    2    1    2    0    0  0.37657679921E+02 -0.48000214217E+02 -0.60058373601E+02  0.12370996764E+03  0.89303003485E+02 0.  0.
         23    2    1    2    0    0 -0.37657679921E+02  0.48000214217E+02 -0.19350139583E+03  0.22183634741E+03  0.89702025738E+02 0.  0.
          5    1    4    4  502    0 -0.65613598017E+02  0.43022167988E+02 -0.15472655383E+03  0.17354667281E+03  0.47000000000E+01 0. -1.
         -5    1    4    4    0  502  0.27955918095E+02  0.49780462296E+01 -0.38774842007E+02  0.48289674605E+02  0.47000000000E+01 0.  1.
          5    1    3    3  503    0  0.20259552746E+01 -0.49608315876E+02 -0.70401803031E+02  0.86276261908E+02  0.47000000000E+01 0. -1.
         -5    1    3    3    0  503  0.35631724647E+02  0.16081016587E+01  0.10343429431E+02  0.37433705729E+02  0.47000000000E+01 0.  1.
<mgrwt>
<rscale>  0 0.10840054E+03</rscale>
<asrwt>0</asrwt>
<pdfrwt beam="1">  1        1 0.46085084E-01 0.10848306E+03</pdfrwt>
<pdfrwt beam="2">  1       -1 0.70758880E-02 0.10848306E+03</pdfrwt>
<totfact> 0.85106978E+03</totfact>
</mgrwt>
</event>
<event>
 8    1  0.2964543E-004  0.1002325E+03  0.7546771E-02  0.1280039E+00
          1   -1    0    0  501    0  0.00000000000E+00  0.00000000000E+00  0.29361189138E+03  0.29361189138E+03  0.00000000000E+00 0. -1.
         -1   -1    0    0    0  501 -0.00000000000E+00 -0.00000000000E+00 -0.34096314080E+02  0.34096314080E+02  0.00000000000E+00 0.  1.
         23    2    1    2    0    0 -0.29371960456E+02 -0.33029234888E+02  0.12523406059E+03  0.16040612759E+03  0.89960621479E+02 0.  0.
         23    2    1    2    0    0  0.29371960456E+02  0.33029234888E+02  0.13428151671E+03  0.16730207788E+03  0.89469643530E+02 0.  0.
          5    1    3    3  502    0 -0.10877777267E+02 -0.18151526100E+02  0.13318440729E+03  0.13493694929E+03  0.47000000000E+01 0. -1.
         -5    1    4    4    0  503  0.27349823702E+02 -0.23911625953E+02  0.26216843176E+02  0.45046549017E+02  0.47000000000E+01 0.  1.
          5    1    4    4  503    0  0.20221367540E+01  0.56940860841E+02  0.10806467354E+03  0.12225552886E+03  0.47000000000E+01 0. -1.
         -5    1    3    3    0  502 -0.18494183189E+02 -0.14877708788E+02 -0.79503466982E+01  0.25469178299E+02  0.47000000000E+01 0.  1.
<mgrwt>
<rscale>  0 0.10012222E+03</rscale>
<asrwt>0</asrwt>
<pdfrwt beam="1">  1        1 0.45171059E-01 0.10023251E+03</pdfrwt>
<pdfrwt beam="2">  1       -1 0.52455870E-02 0.10023251E+03</pdfrwt>
<totfact> 0.13492678E+04</totfact>
</mgrwt>
</event>
<event>
 8    1  0.2964543E-004  0.1145378E+03  0.7546771E-02  0.1253100E+00
         -1   -1    0    0    0  501 -0.00000000000E+00  0.00000000000E+00  0.32200053758E+02  0.32200053758E+02  0.00000000000E+00 0.  1.
          1   -1    0    0  501    0  0.00000000000E+00 -0.00000000000E+00 -0.41808770741E+03  0.41808770741E+03  0.00000000000E+00 0. -1.
         23    2    1    2    0    0 -0.52621139296E+02  0.43944993070E+02 -0.14971574253E+03  0.18850384892E+03  0.91753750763E+02 0.  0.
         23    2    1    2    0    0  0.52621139296E+02 -0.43944993070E+02 -0.23617191113E+03  0.26178391226E+03  0.89741285887E+02 0.  0.
          5    1    3    3  502    0 -0.31872022953E+02 -0.25540680620E+02 -0.43979482741E+02  0.60203298213E+02  0.47000000000E+01 0. -1.
         -5    1    3    3    0  502 -0.20749116343E+02  0.69485673689E+02 -0.10573625979E+03  0.12830055070E+03  0.47000000000E+01 0.  1.
          5    1    4    4  503    0  0.14446285904E+02 -0.51103066009E+02 -0.20482978910E+03  0.21165431967E+03  0.47000000000E+01 0. -1.
         -5    1    4    4    0  503  0.38174853392E+02  0.71580729395E+01 -0.31342122033E+02  0.50129592590E+02  0.47000000000E+01 0.  1.
<mgrwt>
<rscale>  0 0.11413420E+03</rscale>
<asrwt>0</asrwt>
<pdfrwt beam="1">  1        1 0.64321184E-01 0.11453776E+03</pdfrwt>
<pdfrwt beam="2">  1       -1 0.49538545E-02 0.11453776E+03</pdfrwt>
<totfact> 0.95808819E+03</totfact>
</mgrwt>
</event>
<event>
 8    1  0.2964543E-004  0.1108159E+03  0.7546771E-02  0.1259299E+00
         -3   -1    0    0    0  501 -0.00000000000E+00  0.00000000000E+00  0.11513613389E+03  0.11513613389E+03  0.00000000000E+00 0.  1.
          3   -1    0    0  501    0  0.00000000000E+00 -0.00000000000E+00 -0.16347469025E+03  0.16347469025E+03  0.00000000000E+00 0. -1.
         23    2    1    2    0    0 -0.59457856739E+02  0.28956279313E+01  0.58271601993E+02  0.12520278218E+03  0.93469437134E+02 0.  0.
         23    2    1    2    0    0  0.59457856739E+02 -0.28956279313E+01 -0.10661015834E+03  0.15340804196E+03  0.92869155730E+02 0.  0.
          5    1    4    4  502    0  0.42078565236E+02 -0.25902569867E+02 -0.11307338891E+03  0.12348777291E+03  0.47000000000E+01 0. -1.
         -5    1    4    4    0  502  0.17379291503E+02  0.23006941936E+02  0.64632305700E+01  0.29920269046E+02  0.47000000000E+01 0.  1.
          5    1    3    3  503    0  0.13028470386E+02 -0.22771860031E+02 -0.29272296211E+01  0.26813379554E+02  0.47000000000E+01 0. -1.
         -5    1    3    3    0  503 -0.72486327126E+02  0.25667487962E+02  0.61198831614E+02  0.98389402628E+02  0.47000000000E+01 0.  1.
<mgrwt>
<rscale>  0 0.11068919E+03</rscale>
<asrwt>0</asrwt>
<pdfrwt beam="1">  1        3 0.25149952E-01 0.11081587E+03</pdfrwt>
<pdfrwt beam="2">  1       -3 0.17713251E-01 0.11081587E+03</pdfrwt>
<totfact> 0.92227378E+02</totfact>
</mgrwt>
</event>
<event>
 8    1  0.2964543E-004  0.9404446E+02  0.7546771E-02  0.1293793E+00
          1   -1    0    0  501    0  0.00000000000E+00  0.00000000000E+00  0.86531655837E+03  0.86531655837E+03  0.00000000000E+00 0. -1.
         -1   -1    0    0    0  501 -0.00000000000E+00 -0.00000000000E+00 -0.11864668565E+02  0.11864668565E+02  0.00000000000E+00 0.  1.
         23    2    1    2    0    0  0.21576496338E+02  0.97604350667E+01  0.59261615786E+03  0.59990944831E+03  0.90203239042E+02 0.  0.
         23    2    1    2    0    0 -0.21576496338E+02 -0.97604350667E+01  0.26083573194E+03  0.27727177862E+03  0.91014003718E+02 0.  0.
          5    1    4    4  502    0 -0.54457462218E+02  0.89414786575E+01  0.16880600052E+03  0.17766012790E+03  0.47000000000E+01 0. -1.
         -5    1    4    4    0  502  0.32880965880E+02 -0.18701913724E+02  0.92029731422E+02  0.99611650723E+02  0.47000000000E+01 0.  1.
          5    1    3    3  503    0 -0.25135239649E+02  0.31999536572E+02  0.28731315579E+03  0.29021834901E+03  0.47000000000E+01 0. -1.
         -5    1    3    3    0  503  0.46711735987E+02 -0.22239101505E+02  0.30530300207E+03  0.30969109930E+03  0.47000000000E+01 0.  1.
<mgrwt>
<rscale>  0 0.93847738E+02</rscale>
<asrwt>0</asrwt>
<pdfrwt beam="1">  1        1 0.13312557E+00 0.94044458E+02</pdfrwt>
<pdfrwt beam="2">  1       -1 0.18253343E-02 0.94044458E+02</pdfrwt>
<totfact> 0.14815938E+04</totfact>
</mgrwt>
</event>
<event>
 8    1  0.2964543E-004  0.1303868E+03  0.7546771E-02  0.1227000E+00
          1   -1    0    0  501    0  0.00000000000E+00  0.00000000000E+00  0.44275064378E+03  0.44275064378E+03  0.00000000000E+00 0. -1.
         -1   -1    0    0    0  501 -0.00000000000E+00 -0.00000000000E+00 -0.38350286774E+02  0.38350286774E+02  0.00000000000E+00 0.  1.
         23    2    1    2    0    0 -0.82575876796E+02  0.41967887572E+02  0.21072641744E+03  0.24780300643E+03  0.91763979714E+02 0.  0.
         23    2    1    2    0    0  0.82575876796E+02 -0.41967887572E+02  0.19367393956E+03  0.23329792412E+03  0.91314005045E+02 0.  0.
          5    1    3    3  502    0 -0.20511275761E+02 -0.67093306040E+01  0.14007874219E+03  0.14180927884E+03  0.47000000000E+01 0. -1.
         -5    1    4    4    0  503 -0.17733027100E+02 -0.13136774491E+02  0.56721676392E+02  0.61044849635E+02  0.47000000000E+01 0.  1.
          5    1    4    4  503    0  0.10030890390E+03 -0.28831113080E+02  0.13695226317E+03  0.17225307449E+03  0.47000000000E+01 0. -1.
         -5    1    3    3    0  502 -0.62064601034E+02  0.48677218176E+02  0.70647675247E+02  0.10599372759E+03  0.47000000000E+01 0.  1.
<mgrwt>
<rscale>  0 0.13030761E+03</rscale>
<asrwt>0</asrwt>
<pdfrwt beam="1">  1        1 0.68115480E-01 0.13038676E+03</pdfrwt>
<pdfrwt beam="2">  1       -1 0.59000445E-02 0.13038676E+03</pdfrwt>
<totfact> 0.69415773E+03</totfact>
</mgrwt>
</event>
<event>
 8    1  0.2964543E-004  0.1036421E+03  0.7546771E-02  0.1279088E+00
          1   -1    0    0  501    0  0.00000000000E+00  0.00000000000E+00  0.26002256828E+03  0.26002256828E+03  0.00000000000E+00 0. -1.
         -1   -1    0    0    0  501 -0.00000000000E+00 -0.00000000000E+00 -0.84991966614E+02  0.84991966614E+02  0.00000000000E+00 0.  1.
         23    2    1    2    0    0 -0.77351262920E+01 -0.61337310754E+01 -0.44596374488E+02  0.10216129838E+03  0.91381833165E+02 0.  0.
         23    2    1    2    0    0  0.77351262920E+01  0.61337310754E+01  0.21962697615E+03  0.24285323651E+03  0.10317088251E+03 0.  0.
          5    1    3    3  502    0  0.12642827111E+02  0.32262907768E+02  0.57950611656E+01  0.35445860533E+02  0.47000000000E+01 0. -1.
         -5    1    4    4    0  503 -0.22449861462E+02 -0.15454719508E+02  0.92302379434E+01  0.29157021920E+02  0.47000000000E+01 0.  1.
          5    1    4    4  503    0  0.30184987754E+02  0.21588450584E+02  0.21039673821E+03  0.21369621459E+03  0.47000000000E+01 0. -1.
         -5    1    3    3    0  502 -0.20377953403E+02 -0.38396638843E+02 -0.50391435653E+02  0.66715437843E+02  0.47000000000E+01 0.  1.
<mgrwt>
<rscale>  0 0.10057661E+03</rscale>
<asrwt>0</asrwt>
<pdfrwt beam="1">  1        1 0.40003472E-01 0.10364210E+03</pdfrwt>
<pdfrwt beam="2">  1       -1 0.13075687E-01 0.10364210E+03</pdfrwt>
<totfact> 0.39829442E+03</totfact>
</mgrwt>
</event>
<event>
 8    1  0.2964543E-004  0.1056098E+03  0.7546771E-02  0.1275221E+00
         -1   -1    0    0    0  501 -0.00000000000E+00  0.00000000000E+00  0.22975662742E+03  0.22975662742E+03  0.00000000000E+00 0.  1.
          1   -1    0    0  501    0  0.00000000000E+00 -0.00000000000E+00 -0.44654400172E+02  0.44654400172E+02  0.00000000000E+00 0. -1.
         23    2    1    2    0    0  0.17226432958E+00 -0.24254988881E+02  0.72866214213E+02  0.12830793178E+03  0.10278670159E+03 0.  0.
         23    2    1    2    0    0 -0.17226432958E+00  0.24254988881E+02  0.11223601303E+03  0.14610309581E+03  0.90337466326E+02 0.  0.
          5    1    4    4  502    0 -0.38460164624E+02 -0.11794022401E+02  0.53922577437E+02  0.67438991576E+02  0.47000000000E+01 0. -1.
         -5    1    3    3    0  503  0.41012154191E+02 -0.42780761731E+02  0.32315661795E+02  0.67665222699E+02  0.47000000000E+01 0.  1.
          5    1    3    3  503    0 -0.40839889861E+02  0.18525772850E+02  0.40550552419E+02  0.60642709084E+02  0.47000000000E+01 0. -1.
         -5    1    4    4    0  502  0.38287900295E+02  0.36049011282E+02  0.58313435595E+02  0.78664104230E+02  0.47000000000E+01 0.  1.
<mgrwt>
<rscale>  0 0.10245291E+03</rscale>
<asrwt>0</asrwt>
<pdfrwt beam="1">  1        1 0.68699079E-02 0.10560985E+03</pdfrwt>
<pdfrwt beam="2">  1       -1 0.35347173E-01 0.10560985E+03</pdfrwt>
<totfact> 0.76263964E+03</totfact>
</mgrwt>
</event>
<event>
 8    1  0.2964543E-004  0.1168746E+03  0.7546771E-02  0.1250289E+00
          2   -1    0    0  501    0  0.00000000000E+00  0.00000000000E+00  0.44945177614E+03  0.44945177614E+03  0.00000000000E+00 0. -1.
         -2   -1    0    0    0  501 -0.00000000000E+00 -0.00000000000E+00 -0.32466640504E+02  0.32466640504E+02  0.00000000000E+00 0.  1.
         23    2    1    2    0    0 -0.52084433287E+02  0.49159977738E+02  0.28805996552E+03  0.31086686785E+03  0.92358942131E+02 0.  0.
         23    2    1    2    0    0  0.52084433287E+02 -0.49159977738E+02  0.12892517012E+03  0.17105154879E+03  0.86645491817E+02 0.  0.
          5    1    3    3  502    0 -0.73920516315E+02  0.30823953256E+02  0.25309074122E+03  0.26550211321E+03  0.47000000000E+01 0. -1.
         -5    1    4    4    0  503  0.17907906058E+02  0.20141066795E+02  0.65466239910E+02  0.70952619677E+02  0.47000000000E+01 0.  1.
          5    1    4    4  503    0  0.34176527228E+02 -0.69301044534E+02  0.63458930209E+02  0.10009892912E+03  0.47000000000E+01 0. -1.
         -5    1    3    3    0  502  0.21836083029E+02  0.18336024483E+02  0.34969224299E+02  0.45364754644E+02  0.47000000000E+01 0.  1.
<mgrwt>
<rscale>  0 0.11574313E+03</rscale>
<asrwt>0</asrwt>
<pdfrwt beam="1">  1        2 0.69146423E-01 0.11687457E+03</pdfrwt>
<pdfrwt beam="2">  1       -2 0.49948681E-02 0.11687457E+03</pdfrwt>
<totfact> 0.12869452E+04</totfact>
</mgrwt>
</event>
<event>
 8    1  0.2964543E-004  0.9660680E+02  0.7546771E-02  0.1288462E+00
          2   -1    0    0  501    0  0.00000000000E+00  0.00000000000E+00  0.51337898136E+02  0.51337898136E+02  0.00000000000E+00 0. -1.
         -2   -1    0    0    0  501 -0.00000000000E+00 -0.00000000000E+00 -0.18578905490E+03  0.18578905490E+03  0.00000000000E+00 0.  1.
         23    2    1    2    0    0 -0.31621354552E+02 -0.27569082440E+01 -0.43831851203E+02  0.10467042215E+03  0.89594394281E+02 0.  0.
         23    2    1    2    0    0  0.31621354552E+02  0.27569082440E+01 -0.90619305557E+02  0.13245653088E+03  0.91243429498E+02 0.  0.
          5    1    3    3  502    0 -0.53368216002E+02 -0.90560699358E+01  0.87026730360E+00  0.54341754177E+02  0.47000000000E+01 0. -1.
         -5    1    3    3    0  502  0.21746861450E+02  0.62991616918E+01 -0.44702118506E+02  0.50328667973E+02  0.47000000000E+01 0.  1.
          5    1    4    4  503    0  0.22719769139E+02  0.36921390140E+02 -0.10610321220E+02  0.44878122465E+02  0.47000000000E+01 0. -1.
         -5    1    4    4    0  503  0.89015854121E+01 -0.34164481896E+02 -0.80008984336E+02  0.87578408416E+02  0.47000000000E+01 0.  1.
<mgrwt>
<rscale>  0 0.96215444E+02</rscale>
<asrwt>0</asrwt>
<pdfrwt beam="1">  1        2 0.78981383E-02 0.96606801E+02</pdfrwt>
<pdfrwt beam="2">  1       -2 0.28582931E-01 0.96606801E+02</pdfrwt>
<totfact> 0.87986365E+03</totfact>
</mgrwt>
</event>
<event>
 8    1  0.2964543E-004  0.1075638E+03  0.7546771E-02  0.1265944E+00
          3   -1    0    0  501    0  0.00000000000E+00  0.00000000000E+00  0.71652733143E+02  0.71652733143E+02  0.00000000000E+00 0. -1.
         -3   -1    0    0    0  501 -0.00000000000E+00 -0.00000000000E+00 -0.16137486778E+03  0.16137486778E+03  0.00000000000E+00 0.  1.
         23    2    1    2    0    0 -0.47971046529E+02  0.18334734819E+02 -0.30388266720E+02  0.11018431605E+03  0.92626955817E+02 0.  0.
         23    2    1    2    0    0  0.47971046529E+02 -0.18334734819E+02 -0.59333867915E+02  0.12284328487E+03  0.94512332262E+02 0.  0.
          5    1    3    3  502    0 -0.32559476113E+01 -0.33203707351E+02  0.34658997995E+01  0.33870190996E+02  0.47000000000E+01 0. -1.
         -5    1    3    3    0  502 -0.44715098918E+02  0.51538442170E+02 -0.33854166519E+02  0.76314125057E+02  0.47000000000E+01 0.  1.
          5    1    4    4  503    0  0.18685031399E+02  0.36775935542E+02 -0.88872113280E+01  0.42457889239E+02  0.47000000000E+01 0.  1.
         -5    1    4    4    0  503  0.29286015129E+02 -0.55110670361E+02 -0.50446656587E+02  0.80385395630E+02  0.47000000000E+01 0. -1.
<mgrwt>
<rscale>  0 0.10714817E+03</rscale>
<asrwt>0</asrwt>
<pdfrwt beam="1">  1        3 0.11023498E-01 0.10756377E+03</pdfrwt>
<pdfrwt beam="2">  1       -3 0.24826902E-01 0.10756377E+03</pdfrwt>
<totfact> 0.20939181E+03</totfact>
</mgrwt>
</event>
<event>
 8    1  0.2964543E-004  0.9428813E+02  0.7546771E-02  0.1297223E+00
          1   -1    0    0  501    0  0.00000000000E+00  0.00000000000E+00  0.72543685113E+03  0.72543685113E+03  0.00000000000E+00 0. -1.
         -1   -1    0    0    0  501 -0.00000000000E+00 -0.00000000000E+00 -0.11936964284E+02  0.11936964284E+02  0.00000000000E+00 0.  1.
         23    2    1    2    0    0  0.63850232106E+00  0.15667785203E+02  0.25804374004E+03  0.27226033185E+03  0.85400406013E+02 0.  0.
         23    2    1    2    0    0 -0.63850232106E+00 -0.15667785203E+02  0.45545614680E+03  0.46511348356E+03  0.92975070590E+02 0.  0.
          5    1    4    4  502    0  0.16027997091E+02 -0.51227006796E+02  0.29291451186E+03  0.29782898477E+03  0.47000000000E+01 0. -1.
         -5    1    3    3    0  503 -0.38114900541E+02  0.26077541671E+02  0.13637003037E+03  0.14405436128E+03  0.47000000000E+01 0.  1.
          5    1    3    3  503    0  0.38753402862E+02 -0.10409756469E+02  0.12167370968E+03  0.12820597057E+03  0.47000000000E+01 0. -1.
         -5    1    4    4    0  502 -0.16666499412E+02  0.35559221593E+02  0.16254163495E+03  0.16728449878E+03  0.47000000000E+01 0.  1.
<mgrwt>
<rscale>  0 0.92365081E+02</rscale>
<asrwt>0</asrwt>
<pdfrwt beam="1">  1        1 0.11160563E+00 0.94288127E+02</pdfrwt>
<pdfrwt beam="2">  1       -1 0.18364566E-02 0.94288127E+02</pdfrwt>
<totfact> 0.19071310E+04</totfact>
</mgrwt>
</event>
<event>
 8    1  0.2964543E-004  0.9988744E+02  0.7546771E-02  0.1282275E+00
         -1   -1    0    0    0  501 -0.00000000000E+00  0.00000000000E+00  0.12153293457E+03  0.12153293457E+03  0.00000000000E+00 0.  1.
          1   -1    0    0  501    0  0.00000000000E+00 -0.00000000000E+00 -0.79536614079E+02  0.79536614079E+02  0.00000000000E+00 0. -1.
         23    2    1    2    0    0  0.28833974043E+02  0.19998360467E+02  0.24719897537E+02  0.10290080151E+03  0.93520955604E+02 0.  0.
         23    2    1    2    0    0 -0.28833974043E+02 -0.19998360467E+02  0.17276422950E+02  0.98168747134E+02  0.90040522230E+02 0.  0.
          5    1    4    4  502    0 -0.49847919141E+02  0.17791175050E+02  0.10072867181E+02  0.54082285506E+02  0.47000000000E+01 0. -1.
         -5    1    4    4    0  502  0.21013945098E+02 -0.37789535516E+02  0.72035557698E+01  0.44086461628E+02  0.47000000000E+01 0.  1.
          5    1    3    3  503    0  0.39823519808E+01 -0.32305767446E+02 -0.11025526387E+02  0.34686798204E+02  0.47000000000E+01 0. -1.
         -5    1    3    3    0  503  0.24851622062E+02  0.52304127912E+02  0.35745423924E+02  0.68214003308E+02  0.47000000000E+01 0.  1.
<mgrwt>
<rscale>  0 0.99064617E+02</rscale>
<asrwt>0</asrwt>
<pdfrwt beam="1">  1        1 0.12236402E-01 0.99887445E+02</pdfrwt>
<pdfrwt beam="2">  1       -1 0.18697375E-01 0.99887445E+02</pdfrwt>
<totfact> 0.10056443E+04</totfact>
</mgrwt>
</event>
<event>
 8    1  0.2964543E-004  0.9459657E+02  0.7546771E-02  0.1294007E+00
         -1   -1    0    0    0  501 -0.00000000000E+00  0.00000000000E+00  0.50604698008E+02  0.50604698008E+02  0.00000000000E+00 0.  1.
          1   -1    0    0  501    0  0.00000000000E+00 -0.00000000000E+00 -0.35944610480E+03  0.35944610480E+03  0.00000000000E+00 0. -1.
         23    2    1    2    0    0 -0.18520648930E+02 -0.23613120993E+02 -0.30167907367E+03  0.31518347174E+03  0.86196075588E+02 0.  0.
         23    2    1    2    0    0  0.18520648930E+02  0.23613120993E+02 -0.71623331223E+01  0.94867331071E+02  0.89710186539E+02 0.  0.
          5    1    3    3  502    0 -0.47420250756E+02 -0.35673383700E+02 -0.20307779101E+03  0.21162218619E+03  0.47000000000E+01 0. -1.
         -5    1    4    4    0  503  0.13438072601E+01  0.50504728240E+02  0.18126987044E+02  0.53881453691E+02  0.47000000000E+01 0.  1.
          5    1    4    4  503    0  0.17176841670E+02 -0.26891607247E+02 -0.25289320167E+02  0.40985877380E+02  0.47000000000E+01 0. -1.
         -5    1    3    3    0  502  0.28899601826E+02  0.12060262707E+02 -0.98601282661E+02  0.10356128555E+03  0.47000000000E+01 0. -1.
<mgrwt>
<rscale>  0 0.93753935E+02</rscale>
<asrwt>0</asrwt>
<pdfrwt beam="1">  1        1 0.55299400E-01 0.94596572E+02</pdfrwt>
<pdfrwt beam="2">  1       -1 0.77853383E-02 0.94596572E+02</pdfrwt>
<totfact> 0.58382602E+03</totfact>
</mgrwt>
</event>
<event>
 8    1  0.2964543E-004  0.1025167E+03  0.7546771E-02  0.1275875E+00
         -4   -1    0    0    0  501 -0.00000000000E+00  0.00000000000E+00  0.14590091857E+03  0.14590091857E+03  0.00000000000E+00 0.  1.
          4   -1    0    0  501    0  0.00000000000E+00 -0.00000000000E+00 -0.79332279669E+02  0.79332279669E+02  0.00000000000E+00 0. -1.
         23    2    1    2    0    0 -0.29679314555E+02 -0.31123241070E+02 -0.35186928199E+01  0.10104820230E+03  0.91371987735E+02 0.  0.
         23    2    1    2    0    0  0.29679314555E+02  0.31123241070E+02  0.70087331716E+02  0.12418499593E+03  0.93059987643E+02 0.  0.
          5    1    3    3  502    0  0.11154102172E+01 -0.58982274924E+02 -0.29384731103E+01  0.59252658332E+02  0.47000000000E+01 0. -1.
         -5    1    4    4    0  503  0.93714518710E+01  0.33130514289E+02  0.89264411188E+02  0.95789770811E+02  0.47000000000E+01 0.  1.
          5    1    4    4  503    0  0.20307862684E+02 -0.20072732193E+01 -0.19177079472E+02  0.28395225120E+02  0.47000000000E+01 0. -1.
         -5    1    3    3    0  502 -0.30794724772E+02  0.27859033854E+02 -0.58021970956E+00  0.41795543972E+02  0.47000000000E+01 0.  1.
<mgrwt>
<rscale>  0 0.10213212E+03</rscale>
<asrwt>0</asrwt>
<pdfrwt beam="1">  1        4 0.12204966E-01 0.10251673E+03</pdfrwt>
<pdfrwt beam="2">  1       -4 0.22446295E-01 0.10251673E+03</pdfrwt>
<totfact> 0.15210936E+03</totfact>
</mgrwt>
</event>
<event>
 7    1  0.2964543E-004  0.1702465E+03  0.7546771E-02  0.1186158E+00
         -3   -1    0    0    0  501 -0.00000000000E+00  0.00000000000E+00  0.24116176046E+03  0.24116176046E+03  0.00000000000E+00 0.  1.
          3   -1    0    0  501    0  0.00000000000E+00 -0.00000000000E+00 -0.24546079163E+03  0.24546079163E+03  0.00000000000E+00 0. -1.
         23    2    1    2    0    0  0.97655088706E+02  0.43795809138E+02 -0.18894742152E+03  0.23546743129E+03  0.91045010032E+02 0.  0.
          5    1    3    3  502    0  0.59003238565E+02 -0.93650072341E+01 -0.14324494972E+03  0.15527488896E+03  0.47000000000E+01 0. -1.
         -5    1    3    3    0  502  0.38651850141E+02  0.53160816372E+02 -0.45702471799E+02  0.80192542329E+02  0.47000000000E+01 0.  1.
          5    1    1    2  503    0 -0.23265026915E+02  0.47069207609E+02  0.58095772794E+02  0.78447310973E+02  0.47000000000E+01 0. -1.
         -5    1    1    2    0  503 -0.74390061791E+02 -0.90865016747E+02  0.12655261756E+03  0.17270780982E+03  0.47000000000E+01 0.  1.
<mgrwt>
<rscale>  0 0.16226969E+03</rscale>
<asrwt>0</asrwt>
<pdfrwt beam="1">  1        3 0.37763199E-01 0.17024649E+03</pdfrwt>
<pdfrwt beam="2">  1       -3 0.37101809E-01 0.17024649E+03</pdfrwt>
<totfact> 0.11989823E+02</totfact>
</mgrwt>
</event>
<event>
 8    1  0.2964543E-004  0.1037687E+03  0.7546771E-02  0.1273730E+00
         -4   -1    0    0    0  501 -0.00000000000E+00  0.00000000000E+00  0.11144263394E+03  0.11144263394E+03  0.00000000000E+00 0.  1.
          4   -1    0    0  501    0  0.00000000000E+00 -0.00000000000E+00 -0.13608426315E+03  0.13608426315E+03  0.00000000000E+00 0. -1.
         23    2    1    2    0    0  0.41977540331E+02  0.99780414314E+01 -0.80642877908E+02  0.12961129539E+03  0.91837568199E+02 0.  0.
         23    2    1    2    0    0 -0.41977540331E+02 -0.99780414314E+01  0.56001248694E+02  0.11791560170E+03  0.94373057951E+02 0.  0.
          5    1    4    4  502    0 -0.61061089336E+02 -0.55591480519E+00  0.38175566276E+01  0.61363094860E+02  0.47000000000E+01 0. -1.
         -5    1    3    3    0  503 -0.25510354512E+02 -0.11076334058E+02 -0.11035098092E+02  0.30287402553E+02  0.47000000000E+01 0.  1.
          5    1    3    3  503    0  0.67487894843E+02  0.21054375490E+02 -0.69607779816E+02  0.99323892838E+02  0.47000000000E+01 0. -1.
         -5    1    4    4    0  502  0.19083549005E+02 -0.94221266262E+01  0.52183692066E+02  0.56552506845E+02  0.47000000000E+01 0.  1.
<mgrwt>
<rscale>  0 0.10318878E+03</rscale>
<asrwt>0</asrwt>
<pdfrwt beam="1">  1        4 0.20936040E-01 0.10376873E+03</pdfrwt>
<pdfrwt beam="2">  1       -4 0.17145021E-01 0.10376873E+03</pdfrwt>
<totfact> 0.96086296E+02</totfact>
</mgrwt>
</event>
<event>
 8    1  0.2964543E-004  0.1287754E+03  0.7546771E-02  0.1234079E+00
         -1   -1    0    0    0  501 -0.00000000000E+00  0.00000000000E+00  0.55683552123E+03  0.55683552123E+03  0.00000000000E+00 0.  1.
          1   -1    0    0  501    0  0.00000000000E+00 -0.00000000000E+00 -0.32358668249E+02  0.32358668249E+02  0.00000000000E+00 0. -1.
         23    2    1    2    0    0 -0.86629878057E+01  0.76913775158E+02  0.39228866125E+03  0.41288437669E+03  0.10291908765E+03 0.  0.
         23    2    1    2    0    0  0.86629878057E+01 -0.76913775158E+02  0.13218819173E+03  0.17630981279E+03  0.87296368116E+02 0.  0.
          5    1    3    3  502    0  0.13377434463E+02  0.32460565551E+02  0.27865832965E+02  0.45069265753E+02  0.47000000000E+01 0. -1.
         -5    1    4    4    0  503 -0.21123246652E+02 -0.67278993827E+01  0.81599624344E+02  0.84687926367E+02  0.47000000000E+01 0.  1.
          5    1    4    4  503    0  0.29786234457E+02 -0.70185875775E+02  0.50588567387E+02  0.91621886423E+02  0.47000000000E+01 0. -1.
         -5    1    3    3    0  502 -0.22040422268E+02  0.44453209607E+02  0.36442282828E+03  0.36781511093E+03  0.47000000000E+01 0.  1.
<mgrwt>
<rscale>  0 0.12563561E+03</rscale>
<asrwt>0</asrwt>
<pdfrwt beam="1">  1        1 0.49782571E-02 0.12877544E+03</pdfrwt>
<pdfrwt beam="2">  1       -1 0.85666996E-01 0.12877544E+03</pdfrwt>
<totfact> 0.22850705E+03</totfact>
</mgrwt>
</event>
<event>
 8    1  0.2964543E-004  0.9196315E+02  0.7546771E-02  0.1299922E+00
         -3   -1    0    0    0  501 -0.00000000000E+00  0.00000000000E+00  0.81147601007E+03  0.81147601007E+03  0.00000000000E+00 0.  1.
          3   -1    0    0  501    0  0.00000000000E+00 -0.00000000000E+00 -0.12816676953E+02  0.12816676953E+02  0.00000000000E+00 0. -1.
         23    2    1    2    0    0 -0.12773242156E+01 -0.13287781984E+02  0.21442282878E+03  0.23331174497E+03  0.90989142936E+02 0.  0.
         23    2    1    2    0    0  0.12773242156E+01  0.13287781984E+02  0.58423650434E+03  0.59098094205E+03  0.88022634373E+02 0.  0.
          5    1    3    3  502    0 -0.18313870245E+02  0.12988463964E+02  0.77284942716E+01  0.24205736163E+02  0.47000000000E+01 0. -1.
         -5    1    4    4    0  503 -0.35838816532E+02  0.30891291460E+02  0.32861929769E+03  0.33204130086E+03  0.47000000000E+01 0.  1.
          5    1    4    4  503    0  0.37116140748E+02 -0.17603509476E+02  0.25561720664E+03  0.25893964120E+03  0.47000000000E+01 0. -1.
         -5    1    3    3    0  502  0.17036546030E+02 -0.26276245948E+02  0.20669433451E+03  0.20910600881E+03  0.47000000000E+01 0.  1.
<mgrwt>
<rscale>  0 0.91220694E+02</rscale>
<asrwt>0</asrwt>
<pdfrwt beam="1">  1        3 0.19717971E-02 0.91963149E+02</pdfrwt>
<pdfrwt beam="2">  1       -3 0.12484242E+00 0.91963149E+02</pdfrwt>
<totfact> 0.11303575E+03</totfact>
</mgrwt>
</event>
<event>
 8    1  0.2964543E-004  0.1723877E+03  0.7546771E-02  0.1175435E+00
          2   -1    0    0  501    0  0.00000000000E+00  0.00000000000E+00  0.14055400406E+03  0.14055400406E+03  0.00000000000E+00 0. -1.
         -2   -1    0    0    0  501 -0.00000000000E+00 -0.00000000000E+00 -0.32061900563E+03  0.32061900563E+03  0.00000000000E+00 0.  1.
         23    2    1    2    0    0 -0.14252306644E+03 -0.33515507156E+02 -0.22472009478E+03  0.28309552352E+03  0.90597134352E+02 0.  0.
         23    2    1    2    0    0  0.14252306644E+03  0.33515507156E+02  0.44655093210E+02  0.17807748617E+03  0.91002198012E+02 0.  0.
          5    1    3    3  502    0 -0.25882153467E+02 -0.47804472292E+02 -0.70411022732E+02  0.89078367528E+02  0.47000000000E+01 0. -1.
         -5    1    3    3    0  502 -0.11664091297E+03  0.14288965136E+02 -0.15430907204E+03  0.19401715599E+03  0.47000000000E+01 0.  1.
          5    1    4    4  503    0  0.40905359270E+02 -0.75339964711E+01  0.53610535246E+02  0.68016093751E+02  0.47000000000E+01 0. -1.
         -5    1    4    4    0  503  0.10161770717E+03  0.41049503627E+02 -0.89554420368E+01  0.11006139242E+03  0.47000000000E+01 0.  1.
<mgrwt>
<rscale>  0 0.17233429E+03</rscale>
<asrwt>0</asrwt>
<pdfrwt beam="1">  1        2 0.21623693E-01 0.17238768E+03</pdfrwt>
<pdfrwt beam="2">  1       -2 0.49326001E-01 0.17238768E+03</pdfrwt>
<totfact> 0.99188878E+02</totfact>
</mgrwt>
</event>
<event>
 8    1  0.2964543E-004  0.9589284E+02  0.7546771E-02  0.1289633E+00
          1   -1    0    0  501    0  0.00000000000E+00  0.00000000000E+00  0.30803479822E+03  0.30803479822E+03  0.00000000000E+00 0. -1.
         -1   -1    0    0    0  501 -0.00000000000E+00 -0.00000000000E+00 -0.95378862093E+02  0.95378862093E+02  0.00000000000E+00 0.  1.
         23    2    1    2    0    0 -0.23352141429E+02 -0.12513791515E+02 -0.61322673163E+02  0.11313842012E+03  0.91312180879E+02 0.  0.
         23    2    1    2    0    0  0.23352141429E+02  0.12513791515E+02  0.27397860929E+03  0.29027524019E+03  0.92160290966E+02 0.  0.
          5    1    3    3  502    0 -0.24620847776E+02  0.22197116253E+02  0.89089764088E+01  0.34646182702E+02  0.47000000000E+01 0. -1.
         -5    1    3    3    0  502  0.12687063471E+01 -0.34710907768E+02 -0.70231649572E+02  0.78492237422E+02  0.47000000000E+01 0.  1.
          5    1    4    4  503    0  0.40764291759E+02  0.43643645111E+02  0.16903037742E+03  0.17933168636E+03  0.47000000000E+01 0. -1.
         -5    1    4    4    0  503 -0.17412150330E+02 -0.31129853597E+02  0.10494823186E+03  0.11094355383E+03  0.47000000000E+01 0.  1.
<mgrwt>
<rscale>  0 0.95688485E+02</rscale>
<asrwt>0</asrwt>
<pdfrwt beam="1">  1        1 0.47389969E-01 0.95892840E+02</pdfrwt>
<pdfrwt beam="2">  1       -1 0.14673671E-01 0.95892840E+02</pdfrwt>
<totfact> 0.26974343E+03</totfact>
</mgrwt>
</event>
<event>
 8    1  0.2964543E-004  0.1135678E+03  0.7546771E-02  0.1255001E+00
         -2   -1    0    0    0  501 -0.00000000000E+00  0.00000000000E+00  0.16994426544E+02  0.16994426544E+02  0.00000000000E+00 0. -1.
          2   -1    0    0  501    0  0.00000000000E+00 -0.00000000000E+00 -0.84510615581E+03  0.84510615581E+03  0.00000000000E+00 0.  1.
         23    2    1    2    0    0  0.61674050379E+02  0.33834342856E+02 -0.56522508068E+03  0.57652150248E+03  0.89158284760E+02 0.  0.
         23    2    1    2    0    0 -0.61674050379E+02 -0.33834342856E+02 -0.26288664858E+03  0.28557907987E+03  0.86588507392E+02 0.  0.
          5    1    4    4  502    0 -0.68036295184E+02  0.63186888948E+01 -0.13628600981E+03  0.15252812777E+03  0.47000000000E+01 0. -1.
         -5    1    4    4    0  502  0.63622448049E+01 -0.40153031751E+02 -0.12660063878E+03  0.13305095211E+03  0.47000000000E+01 0.  1.
          5    1    3    3  503    0  0.60470586209E+01  0.37161360164E+02 -0.85412230013E+02  0.93460540566E+02  0.47000000000E+01 0. -1.
         -5    1    3    3    0  503  0.55626991758E+02 -0.33270173075E+01 -0.47981285067E+03  0.48306096191E+03  0.47000000000E+01 0.  1.
<mgrwt>
<rscale>  0 0.11306295E+03</rscale>
<asrwt>0</asrwt>
<pdfrwt beam="1">  1        2 0.13001632E+00 0.11356783E+03</pdfrwt>
<pdfrwt beam="2">  1       -2 0.26145273E-02 0.11356783E+03</pdfrwt>
<totfact> 0.16153736E+04</totfact>
</mgrwt>
</event>
<event>
 8    1  0.2964543E-004  0.1105288E+03  0.7546771E-02  0.1259657E+00
         -2   -1    0    0    0  501 -0.00000000000E+00  0.00000000000E+00  0.42434359293E+02  0.42434359293E+02  0.00000000000E+00 0.  1.
          2   -1    0    0  501    0  0.00000000000E+00 -0.00000000000E+00 -0.29411251711E+03  0.29411251711E+03  0.00000000000E+00 0. -1.
         23    2    1    2    0    0  0.16502395632E+02 -0.57864244805E+02 -0.15108214353E+03  0.18719625874E+03  0.92714752353E+02 0.  0.
         23    2    1    2    0    0 -0.16502395632E+02  0.57864244805E+02 -0.10059601428E+03  0.14935061766E+03  0.92549711063E+02 0.  0.
          5    1    4    4  502    0 -0.21151276108E+02  0.80777548982E+02 -0.62502645520E+02  0.10440813952E+03  0.47000000000E+01 0. -1.
         -5    1    3    3    0  503  0.49917667846E+02 -0.50192197558E+02 -0.73026491431E+02  0.10181349964E+03  0.47000000000E+01 0.  1.
          5    1    3    3  503    0 -0.33415272215E+02 -0.76720472465E+01 -0.78055652103E+02  0.85382759099E+02  0.47000000000E+01 0. -1.
         -5    1    4    4    0  502  0.46488804763E+01 -0.22913304177E+02 -0.38093368763E+02  0.44942478144E+02  0.47000000000E+01 0.  1.
<mgrwt>
<rscale>  0 0.11049423E+03</rscale>
<asrwt>0</asrwt>
<pdfrwt beam="1">  1        2 0.45248080E-01 0.11052884E+03</pdfrwt>
<pdfrwt beam="2">  1       -2 0.65283629E-02 0.11052884E+03</pdfrwt>
<totfact> 0.13413582E+04</totfact>
</mgrwt>
</event>
<event>
 7    1  0.2964543E-004  0.1535622E+03  0.7546771E-02  0.1216383E+00
          2   -1    0    0  501    0  0.00000000000E+00  0.00000000000E+00  0.24974905434E+03  0.24974905434E+03  0.00000000000E+00 0. -1.
         -2   -1    0    0    0  501 -0.00000000000E+00 -0.00000000000E+00 -0.76081077442E+02  0.76081077442E+02  0.00000000000E+00 0.  1.
         23    2    1    2    0    0  0.14328563316E+02  0.38103959774E+02  0.13464726478E+03  0.16738781576E+03  0.90728030264E+02 0.  0.
          5    1    1    2  502    0  0.34787276635E+02  0.44731834377E+02  0.19149011334E+02  0.59998885468E+02  0.47000000000E+01 0. -1.
         -5    1    1    2    0  502 -0.49115839951E+02 -0.82835794151E+02  0.19871700786E+02  0.98443430552E+02  0.47000000000E+01 0.  1.
          5    1    3    3  503    0  0.64382004700E+01  0.62763339020E+02  0.56126728084E+02  0.84575331838E+02  0.47000000000E+01 0. -1.
         -5    1    3    3    0  503  0.78903628463E+01 -0.24659379245E+02  0.78520536693E+02  0.82812483921E+02  0.47000000000E+01 0.  1.
<mgrwt>
<rscale>  0 0.13775462E+03</rscale>
<asrwt>0</asrwt>
<pdfrwt beam="1">  1        2 0.38422931E-01 0.15356221E+03</pdfrwt>
<pdfrwt beam="2">  1       -2 0.11704781E-01 0.15356221E+03</pdfrwt>
<totfact> 0.65987925E+03</totfact>
</mgrwt>
</event>
<event>
 8    1  0.2964543E-004  0.1087618E+03  0.7546771E-02  0.1277225E+00
          2   -1    0    0  501    0  0.00000000000E+00  0.00000000000E+00  0.48116591276E+03  0.48116591276E+03  0.00000000000E+00 0. -1.
         -2   -1    0    0    0  501 -0.00000000000E+00 -0.00000000000E+00 -0.28077306489E+02  0.28077306489E+02  0.00000000000E+00 0.  1.
         23    2    1    2    0    0 -0.57063336186E+02  0.14979839492E+02  0.10373431676E+03  0.15029951575E+03  0.91370214150E+02 0.  0.
         23    2    1    2    0    0  0.57063336186E+02 -0.14979839492E+02  0.34935428951E+03  0.35894370349E+03  0.57546005535E+02 0.  0.
          5    1    3    3  502    0 -0.31964745208E+02 -0.22640715676E+02  0.96508636996E+02  0.10426098962E+03  0.47000000000E+01 0. -1.
         -5    1    4    4    0  503  0.42645919267E+02  0.11059268903E+02  0.27768488549E+03  0.28119738172E+03  0.47000000000E+01 0.  1.
          5    1    4    4  503    0  0.14417416919E+02 -0.26039108395E+02  0.71669404020E+02  0.77746321773E+02  0.47000000000E+01 0. -1.
         -5    1    3    3    0  502 -0.25098590978E+02  0.37620555168E+02  0.72256797674E+01  0.46038526131E+02  0.47000000000E+01 0.  1.
<mgrwt>
<rscale>  0 0.10147484E+03</rscale>
<asrwt>0</asrwt>
<pdfrwt beam="1">  1        2 0.74025519E-01 0.10876183E+03</pdfrwt>
<pdfrwt beam="2">  1       -2 0.43195860E-02 0.10876183E+03</pdfrwt>
<totfact> 0.14756030E+04</totfact>
</mgrwt>
</event>
<event>
 8    1  0.2964543E-004  0.1085099E+03  0.7546771E-02  0.1265124E+00
         -1   -1    0    0    0  501 -0.00000000000E+00  0.00000000000E+00  0.37666134811E+02  0.37666134811E+02  0.00000000000E+00 0.  1.
          1   -1    0    0  501    0  0.00000000000E+00 -0.00000000000E+00 -0.30243070729E+03  0.30243070729E+03  0.00000000000E+00 0. -1.
         23    2    1    2    0    0 -0.47742009669E+02 -0.24514840852E+02 -0.12426341440E+03  0.16257228847E+03  0.90044855009E+02 0.  0.
         23    2    1    2    0    0  0.47742009669E+02  0.24514840852E+02 -0.14050115809E+03  0.17752455363E+03  0.94308614711E+02 0.  0.
          5    1    4    4  502    0 -0.23648467188E+02 -0.27612101434E+01 -0.67511557076E+02  0.71741024670E+02  0.47000000000E+01 0. -1.
         -5    1    3    3    0  503 -0.28090317002E+02  0.33056639542E+02 -0.56507540137E+02  0.71393272929E+02  0.47000000000E+01 0.  1.
          5    1    3    3  503    0 -0.19651692666E+02 -0.57571480394E+02 -0.67755874259E+02  0.91179015546E+02  0.47000000000E+01 0. -1.
         -5    1    4    4    0  502  0.71390476856E+02  0.27276050995E+02 -0.72989601009E+02  0.10578352896E+03  0.47000000000E+01 0.  1.
<mgrwt>
<rscale>  0 0.10757677E+03</rscale>
<asrwt>0</asrwt>
<pdfrwt beam="1">  1        1 0.46527801E-01 0.10850987E+03</pdfrwt>
<pdfrwt beam="2">  1       -1 0.57947899E-02 0.10850987E+03</pdfrwt>
<totfact> 0.11315337E+04</totfact>
</mgrwt>
</event>
<event>
 8    1  0.2964543E-004  0.9614798E+02  0.7546771E-02  0.1291137E+00
         -1   -1    0    0    0  501 -0.00000000000E+00  0.00000000000E+00  0.70997931412E+02  0.70997931412E+02  0.00000000000E+00 0.  1.
          1   -1    0    0  501    0  0.00000000000E+00 -0.00000000000E+00 -0.13312733593E+03  0.13312733593E+03  0.00000000000E+00 0. -1.
         23    2    1    2    0    0  0.22853841632E+02  0.23210030755E+02 -0.58086939873E+02  0.11233221835E+03  0.90462318618E+02 0.  0.
         23    2    1    2    0    0 -0.22853841632E+02 -0.23210030755E+02 -0.40424646490E+01  0.91793049001E+02  0.85724084827E+02 0.  0.
          5    1    3    3  502    0  0.24560854226E+02  0.51843967183E+02 -0.60072105721E+02  0.83197237810E+02  0.47000000000E+01 0. -1.
         -5    1    4    4    0  503  0.21157451444E+02 -0.35378426289E+02 -0.15819047329E+02  0.44402737040E+02  0.47000000000E+01 0.  1.
          5    1    4    4  503    0 -0.44011293076E+02  0.12168395534E+02  0.11776582680E+02  0.47390311960E+02  0.47000000000E+01 0. -1.
         -5    1    3    3    0  502 -0.17070125936E+01 -0.28633936428E+02  0.19851658473E+01  0.29134980536E+02  0.47000000000E+01 0.  1.
<mgrwt>
<rscale>  0 0.95017193E+02</rscale>
<asrwt>0</asrwt>
<pdfrwt beam="1">  1        1 0.20481128E-01 0.96147983E+02</pdfrwt>
<pdfrwt beam="2">  1       -1 0.10922759E-01 0.96147983E+02</pdfrwt>
<totfact> 0.11933973E+04</totfact>
</mgrwt>
</event>
<event>
 8    1  0.2964543E-004  0.1344534E+03  0.7546771E-02  0.1223638E+00
         -3   -1    0    0    0  501 -0.00000000000E+00  0.00000000000E+00  0.13702894163E+03  0.13702894163E+03  0.00000000000E+00 0.  1.
          3   -1    0    0  501    0  0.00000000000E+00 -0.00000000000E+00 -0.12852625262E+03  0.12852625262E+03  0.00000000000E+00 0. -1.
         23    2    1    2    0    0 -0.41797950520E+02  0.80741246652E+02 -0.17861120291E+02  0.13563460344E+03  0.99053058777E+02 0.  0.
         23    2    1    2    0    0  0.41797950520E+02 -0.80741246652E+02  0.26363809298E+02  0.12992059081E+03  0.88983660842E+02 0.  0.
          5    1    4    4  502    0  0.40990858871E+02  0.46222825367E+01  0.12077723641E+02  0.43238610237E+02  0.47000000000E+01 0. -1.
         -5    1    4    4    0  502  0.80709164920E+00 -0.85363529189E+02  0.14286085657E+02  0.86681980572E+02  0.47000000000E+01 0.  1.
          5    1    3    3  503    0 -0.10187240831E+02  0.87581968159E+02 -0.39194665055E+02  0.96605863130E+02  0.47000000000E+01 0. -1.
         -5    1    3    3    0  503 -0.31610709690E+02 -0.68407215067E+01  0.21333544764E+02  0.39028740308E+02  0.47000000000E+01 0.  1.
<mgrwt>
<rscale>  0 0.13260677E+03</rscale>
<asrwt>0</asrwt>
<pdfrwt beam="1">  1        3 0.19773270E-01 0.13445343E+03</pdfrwt>
<pdfrwt beam="2">  1       -3 0.21081376E-01 0.13445343E+03</pdfrwt>
<totfact> 0.10766747E+03</totfact>
</mgrwt>
</event>
<event>
 8    1  0.2964543E-004  0.1185964E+03  0.7546771E-02  0.1245729E+00
          1   -1    0    0  501    0  0.00000000000E+00  0.00000000000E+00  0.28474147332E+03  0.28474147332E+03  0.00000000000E+00 0. -1.
         -1   -1    0    0    0  501 -0.00000000000E+00 -0.00000000000E+00 -0.52995471685E+02  0.52995471685E+02  0.00000000000E+00 0.  1.
         23    2    1    2    0    0  0.41470681616E+02 -0.66180892516E+02  0.16132951007E+03  0.19981093109E+03  0.88303280791E+02 0.  0.
         23    2    1    2    0    0 -0.41470681616E+02  0.66180892516E+02  0.70416491575E+02  0.13792601392E+03  0.89248949916E+02 0.  0.
          5    1    3    3  502    0  0.94933096712E+01 -0.42583532627E+02  0.15269012461E+03  0.15887052695E+03  0.47000000000E+01 0. -1.
         -5    1    4    4    0  503 -0.25337008865E+02  0.30102828583E+02 -0.16039346503E+02  0.42749209855E+02  0.47000000000E+01 0.  1.
          5    1    4    4  503    0 -0.16133672751E+02  0.36078063932E+02  0.86455838078E+02  0.95176804061E+02  0.47000000000E+01 0. -1.
         -5    1    3    3    0  502  0.31977371945E+02 -0.23597359888E+02  0.86393854513E+01  0.40940404141E+02  0.47000000000E+01 0.  1.
<mgrwt>
<rscale>  0 0.11841848E+03</rscale>
<asrwt>0</asrwt>
<pdfrwt beam="1">  1        1 0.43806380E-01 0.11859639E+03</pdfrwt>
<pdfrwt beam="2">  1       -1 0.81531497E-02 0.11859639E+03</pdfrwt>
<totfact> 0.73741969E+03</totfact>
</mgrwt>
</event>
<event>
 8    1  0.2964543E-004  0.1036373E+03  0.7546771E-02  0.1273410E+00
         -2   -1    0    0    0  501 -0.00000000000E+00  0.00000000000E+00  0.17803606225E+03  0.17803606225E+03  0.00000000000E+00 0.  1.
          2   -1    0    0  501    0  0.00000000000E+00 -0.00000000000E+00 -0.61784187358E+02  0.61784187358E+02  0.00000000000E+00 0. -1.
         23    2    1    2    0    0 -0.47748749981E+01  0.49778478082E+02  0.35573990966E+02  0.10848246601E+03  0.89455241811E+02 0.  0.
         23    2    1    2    0    0  0.47748749981E+01 -0.49778478082E+02  0.80677883931E+02  0.13133778360E+03  0.90774424451E+02 0.  0.
          5    1    4    4  502    0  0.47444709722E+02 -0.27175496112E+02  0.38311620308E+02  0.66928157902E+02  0.47000000000E+01 0. -1.
         -5    1    3    3    0  503 -0.88746114035E+01  0.27073940921E+02  0.64805272931E+02  0.70947659611E+02  0.47000000000E+01 0.  1.
          5    1    3    3  503    0  0.40997364054E+01  0.22704537161E+02 -0.29231281965E+02  0.37534806401E+02  0.47000000000E+01 0. -1.
         -5    1    4    4    0  502 -0.42669834724E+02 -0.22602981970E+02  0.42366263622E+02  0.64409625699E+02  0.47000000000E+01 0.  1.
<mgrwt>
<rscale>  0 0.10334773E+03</rscale>
<asrwt>0</asrwt>
<pdfrwt beam="1">  1        2 0.95052597E-02 0.10363731E+03</pdfrwt>
<pdfrwt beam="2">  1       -2 0.27390163E-01 0.10363731E+03</pdfrwt>
<totfact> 0.75969910E+03</totfact>
</mgrwt>
</event>
<event>
 8    1  0.2964543E-004  0.9395712E+02  0.7546771E-02  0.1294745E+00
         -2   -1    0    0    0  501 -0.00000000000E+00  0.00000000000E+00  0.16450065505E+03  0.16450065505E+03  0.00000000000E+00 0. -1.
          2   -1    0    0  501    0  0.00000000000E+00 -0.00000000000E+00 -0.13757992211E+03  0.13757992211E+03  0.00000000000E+00 0.  1.
         23    2    1    2    0    0  0.10435631728E+02 -0.11554866733E+02  0.13230241069E+03  0.16227097143E+03  0.92658097006E+02 0.  0.
         23    2    1    2    0    0 -0.10435631728E+02  0.11554866733E+02 -0.10538167775E+03  0.13980960573E+03  0.90548387584E+02 0.  0.
          5    1    3    3  502    0 -0.26582547277E+02 -0.35137738548E+02  0.93624425316E+02  0.10358047840E+03  0.47000000000E+01 0. -1.
         -5    1    4    4    0  503 -0.16574762265E+02  0.49883365458E+02 -0.60994903917E+02  0.80656935210E+02  0.47000000000E+01 0.  1.
          5    1    4    4  503    0  0.61391305375E+01 -0.38328498725E+02 -0.44386773833E+02  0.59152670519E+02  0.47000000000E+01 0. -1.
         -5    1    3    3    0  502  0.37018179005E+02  0.23582871815E+02  0.38677985374E+02  0.58690493033E+02  0.47000000000E+01 0.  1.
<mgrwt>
<rscale>  0 0.93432777E+02</rscale>
<asrwt>0</asrwt>
<pdfrwt beam="1">  1        2 0.21166142E-01 0.93957119E+02</pdfrwt>
<pdfrwt beam="2">  1       -2 0.25307793E-01 0.93957119E+02</pdfrwt>
<totfact> 0.34012145E+03</totfact>
</mgrwt>
</event>
<event>
 8    1  0.2964543E-004  0.9784254E+02  0.7546771E-02  0.1285879E+00
         -2   -1    0    0    0  501 -0.00000000000E+00  0.00000000000E+00  0.14232703068E+03  0.14232703068E+03  0.00000000000E+00 0.  1.
          2   -1    0    0  501    0  0.00000000000E+00 -0.00000000000E+00 -0.66163993980E+02  0.66163993980E+02  0.00000000000E+00 0. -1.
         23    2    1    2    0    0 -0.31287638455E+02  0.20958002026E+00  0.42329250982E+02  0.10496379250E+03  0.90811188758E+02 0.  0.
         23    2    1    2    0    0  0.31287638455E+02 -0.20958002026E+00  0.33833785722E+02  0.10352723216E+03  0.92704921657E+02 0.  0.
          5    1    4    4  502    0  0.59859389200E+02 -0.77148793303E+01  0.30650529203E+01  0.60614770377E+02  0.47000000000E+01 0. -1.
         -5    1    3    3    0  503 -0.39772435432E+02  0.31844533167E+02  0.49406608272E+02  0.71126815293E+02  0.47000000000E+01 0.  1.
          5    1    3    3  503    0  0.84847969775E+01 -0.31634953147E+02 -0.70773572896E+01  0.33836977208E+02  0.47000000000E+01 0. -1.
         -5    1    4    4    0  502 -0.28571750745E+02  0.75052993101E+01  0.30768732802E+02  0.42912461787E+02  0.47000000000E+01 0.  1.
<mgrwt>
<rscale>  0 0.97391333E+02</rscale>
<asrwt>0</asrwt>
<pdfrwt beam="1">  1        2 0.10179076E-01 0.97842541E+02</pdfrwt>
<pdfrwt beam="2">  1       -2 0.21896466E-01 0.97842541E+02</pdfrwt>
<totfact> 0.10238853E+04</totfact>
</mgrwt>
</event>
<event>
 8    1  0.2964543E-004  0.9946287E+02  0.7546771E-02  0.1281743E+00
         -1   -1    0    0    0  501 -0.00000000000E+00  0.00000000000E+00  0.13332363415E+03  0.13332363415E+03  0.00000000000E+00 0.  1.
          1   -1    0    0  501    0  0.00000000000E+00 -0.00000000000E+00 -0.80313094702E+02  0.80313094702E+02  0.00000000000E+00 0. -1.
         23    2    1    2    0    0 -0.39968067903E+02 -0.34599669822E+01 -0.39287632478E+01  0.99540430440E+02  0.91013429163E+02 0.  0.
         23    2    1    2    0    0  0.39968067903E+02  0.34599669822E+01  0.56939302700E+02  0.11409629842E+03  0.90368486195E+02 0.  0.
          5    1    4    4  502    0 -0.17614126325E+02  0.17673888535E+02 -0.74164217193E+01  0.26452166135E+02  0.47000000000E+01 0. -1.
         -5    1    3    3    0  503 -0.26342488992E+02 -0.46595076901E+02  0.13977420396E+01  0.53750084656E+02  0.47000000000E+01 0.  1.
          5    1    3    3  503    0 -0.13625578910E+02  0.43135109919E+02 -0.53265052874E+01  0.45790345783E+02  0.47000000000E+01 0. -1.
         -5    1    4    4    0  502  0.57582194228E+02 -0.14213921553E+02  0.64355724419E+02  0.87644132282E+02  0.47000000000E+01 0.  1.
<mgrwt>
<rscale>  0 0.99315086E+02</rscale>
<asrwt>0</asrwt>
<pdfrwt beam="1">  1        1 0.12355861E-01 0.99462868E+02</pdfrwt>
<pdfrwt beam="2">  1       -1 0.20511328E-01 0.99462868E+02</pdfrwt>
<totfact> 0.85680652E+03</totfact>
</mgrwt>
</event>
<event>
 8    1  0.2964543E-004  0.1337550E+03  0.7546771E-02  0.1222724E+00
          2   -1    0    0  501    0  0.00000000000E+00  0.00000000000E+00  0.11388352191E+04  0.11388352191E+04  0.00000000000E+00 0. -1.
         -2   -1    0    0    0  501 -0.00000000000E+00 -0.00000000000E+00 -0.27169127340E+02  0.27169127340E+02  0.00000000000E+00 0.  1.
         23    2    1    2    0    0 -0.14600123169E+02  0.94691657249E+02  0.17083819400E+03  0.21571622032E+03  0.90377683265E+02 0.  0.
         23    2    1    2    0    0  0.14600123169E+02 -0.94691657249E+02  0.94082789772E+03  0.95028812608E+03  0.93331216016E+02 0.  0.
          5    1    4    4  502    0 -0.13537876666E+02 -0.93511918068E+02  0.84549892418E+03  0.85077510173E+03  0.47000000000E+01 0. -1.
         -5    1    3    3    0  503 -0.47887529437E+02  0.31591333412E+02  0.55146093931E+02  0.79714550103E+02  0.47000000000E+01 0.  1.
          5    1    3    3  503    0  0.33287406268E+02  0.63100323838E+02  0.11569210007E+03  0.13600167022E+03  0.47000000000E+01 0. -1.
         -5    1    4    4    0  502  0.28137999835E+02 -0.11797391812E+01  0.95328973542E+02  0.99513024353E+02  0.47000000000E+01 0.  1.
<mgrwt>
<rscale>  0 0.13324103E+03</rscale>
<asrwt>0</asrwt>
<pdfrwt beam="1">  1        2 0.17520538E+00 0.13375496E+03</pdfrwt>
<pdfrwt beam="2">  1       -2 0.41798666E-02 0.13375496E+03</pdfrwt>
<totfact> 0.54470903E+03</totfact>
</mgrwt>
</event>
<event>
 8    1  0.2964543E-004  0.1237133E+03  0.7546771E-02  0.1237304E+00
         -1   -1    0    0    0  501 -0.00000000000E+00  0.00000000000E+00  0.34567049489E+02  0.34567049489E+02  0.00000000000E+00 0.  1.
          1   -1    0    0  501    0  0.00000000000E+00 -0.00000000000E+00 -0.59337418643E+03  0.59337418643E+03  0.00000000000E+00 0. -1.
         23    2    1    2    0    0  0.66581841473E+01  0.83400724575E+02 -0.11978942452E+03  0.17182552665E+03  0.90412903421E+02 0.  0.
         23    2    1    2    0    0 -0.66581841473E+01 -0.83400724575E+02 -0.43901771242E+03  0.45611570927E+03  0.91131641867E+02 0.  0.
          5    1    3    3  502    0  0.35188091969E+02  0.99346333819E+01 -0.68163054722E+02  0.77493166060E+02  0.47000000000E+01 0. -1.
         -5    1    3    3    0  502 -0.28529907822E+02  0.73466091193E+02 -0.51626369798E+02  0.94332360588E+02  0.47000000000E+01 0.  1.
          5    1    4    4  503    0  0.34948338898E+02 -0.48870261311E+02 -0.31544388497E+03  0.32114891157E+03  0.47000000000E+01 0. -1.
         -5    1    4    4    0  503 -0.41606523045E+02 -0.34530463264E+02 -0.12357382745E+03  0.13496679771E+03  0.47000000000E+01 0.  1.
<mgrwt>
<rscale>  0 0.12358100E+03</rscale>
<asrwt>0</asrwt>
<pdfrwt beam="1">  1        1 0.91288338E-01 0.12371333E+03</pdfrwt>
<pdfrwt beam="2">  1       -1 0.53180075E-02 0.12371333E+03</pdfrwt>
<totfact> 0.55011667E+03</totfact>
</mgrwt>
</event>
<event>
 8    1  0.2964543E-004  0.9479870E+02  0.7546771E-02  0.1292939E+00
          3   -1    0    0  501    0  0.00000000000E+00  0.00000000000E+00  0.13780972762E+03  0.13780972762E+03  0.00000000000E+00 0. -1.
         -3   -1    0    0    0  501 -0.00000000000E+00 -0.00000000000E+00 -0.82496939096E+02  0.82496939096E+02  0.00000000000E+00 0.  1.
         23    2    1    2    0    0 -0.19503539185E+02 -0.13057461390E+02  0.80567981481E+02  0.12441058355E+03  0.91847200937E+02 0.  0.
         23    2    1    2    0    0  0.19503539185E+02  0.13057461390E+02 -0.25255192962E+02  0.95896083164E+02  0.89483789906E+02 0.  0.
          5    1    3    3  502    0  0.17973699420E+02  0.17677879436E+02  0.70043239303E+02  0.74590258508E+02  0.47000000000E+01 0. -1.
         -5    1    4    4    0  503  0.17085309373E+02 -0.35203955068E+02 -0.26218889724E+02  0.47336523184E+02  0.47000000000E+01 0. -1.
          5    1    4    4  503    0  0.24182298122E+01  0.48261416458E+02  0.96369676159E+00  0.48559559980E+02  0.47000000000E+01 0.  1.
         -5    1    3    3    0  502 -0.37477238605E+02 -0.30735340826E+02  0.10524742178E+02  0.49820325040E+02  0.47000000000E+01 0.  1.
<mgrwt>
<rscale>  0 0.94221455E+02</rscale>
<asrwt>0</asrwt>
<pdfrwt beam="1">  1        3 0.21201496E-01 0.94798701E+02</pdfrwt>
<pdfrwt beam="2">  1       -3 0.12691837E-01 0.94798701E+02</pdfrwt>
<totfact> 0.21390322E+03</totfact>
</mgrwt>
</event>
<event>
 8    1  0.2964543E-004  0.9243125E+02  0.7546771E-02  0.1297366E+00
          3   -1    0    0  501    0  0.00000000000E+00  0.00000000000E+00  0.20633869984E+03  0.20633869984E+03  0.00000000000E+00 0. -1.
         -3   -1    0    0    0  501 -0.00000000000E+00 -0.00000000000E+00 -0.48910312634E+02  0.48910312634E+02  0.00000000000E+00 0.  1.
         23    2    1    2    0    0  0.17583792985E+02  0.58558347450E+01  0.28152821999E+02  0.96623586052E+02  0.90554157379E+02 0.  0.
         23    2    1    2    0    0 -0.17583792985E+02 -0.58558347450E+01  0.12927556520E+03  0.15862542642E+03  0.90035401769E+02 0.  0.
          5    1    4    4  502    0 -0.12692583244E+02  0.15774557574E+02  0.13388805136E+03  0.13549183973E+03  0.47000000000E+01 0. -1.
         -5    1    4    4    0  502 -0.48912097411E+01 -0.21630392319E+02 -0.46124861575E+01  0.23133586690E+02  0.47000000000E+01 0.  1.
          5    1    3    3  503    0 -0.27339166281E+02  0.30283627268E+02  0.11729405576E+02  0.42710619858E+02  0.47000000000E+01 0. -1.
         -5    1    3    3    0  503  0.44922959266E+02 -0.24427792523E+02  0.16423416423E+02  0.53912966193E+02  0.47000000000E+01 0.  1.
<mgrwt>
<rscale>  0 0.92303947E+02</rscale>
<asrwt>0</asrwt>
<pdfrwt beam="1">  1        3 0.31744415E-01 0.92431250E+02</pdfrwt>
<pdfrwt beam="2">  1       -3 0.75246636E-02 0.92431250E+02</pdfrwt>
<totfact> 0.24208018E+03</totfact>
</mgrwt>
</event>
<event>
 8    1  0.2964543E-004  0.1713552E+03  0.7546771E-02  0.1176910E+00
         -1   -1    0    0    0  501 -0.00000000000E+00  0.00000000000E+00  0.37922050898E+03  0.37922050898E+03  0.00000000000E+00 0.  1.
          1   -1    0    0  501    0  0.00000000000E+00 -0.00000000000E+00 -0.76616286686E+02  0.76616286686E+02  0.00000000000E+00 0. -1.
         23    2    1    2    0    0 -0.13979469315E+03  0.32067598415E+02  0.15203923459E+03  0.22908194494E+03  0.93764180478E+02 0.  0.
         23    2    1    2    0    0  0.13979469315E+03 -0.32067598415E+02  0.15056498770E+03  0.22675485072E+03  0.90427096065E+02 0.  0.
          5    1    4    4  502    0  0.12198225363E+02  0.19564950991E+02  0.11675560620E+01  0.23559227416E+02  0.47000000000E+01 0. -1.
         -5    1    4    4    0  502  0.12759646779E+03 -0.51632549405E+02  0.14939743163E+03  0.20319562330E+03  0.47000000000E+01 0.  1.
          5    1    3    3  503    0 -0.69235740758E+01  0.34857321312E+02  0.17425349032E+02  0.39858518737E+02  0.47000000000E+01 0. -1.
         -5    1    3    3    0  503 -0.13287111908E+03 -0.27897228972E+01  0.13461388556E+03  0.18922342621E+03  0.47000000000E+01 0.  1.
<mgrwt>
<rscale>  0 0.17090267E+03</rscale>
<asrwt>0</asrwt>
<pdfrwt beam="1">  1        1 0.11787121E-01 0.17135521E+03</pdfrwt>
<pdfrwt beam="2">  1       -1 0.58341616E-01 0.17135521E+03</pdfrwt>
<totfact> 0.15538518E+03</totfact>
</mgrwt>
</event>
<event>
 8    1  0.2964543E-004  0.1223681E+03  0.7546771E-02  0.1239493E+00
         -4   -1    0    0    0  501 -0.00000000000E+00  0.00000000000E+00  0.16973831264E+03  0.16973831264E+03  0.00000000000E+00 0.  1.
          4   -1    0    0  501    0  0.00000000000E+00 -0.00000000000E+00 -0.17957467892E+03  0.17957467892E+03  0.00000000000E+00 0. -1.
         23    2    1    2    0    0  0.67349665337E+02  0.43086228592E+02 -0.12980634518E+03  0.17839180258E+03  0.92636642124E+02 0.  0.
         23    2    1    2    0    0 -0.67349665337E+02 -0.43086228592E+02  0.11996997890E+03  0.17092118897E+03  0.91808803976E+02 0.  0.
          5    1    3    3  502    0  0.35513359392E+02  0.70186418972E+02 -0.70881117570E+02  0.10598846603E+03  0.47000000000E+01 0. -1.
         -5    1    3    3    0  502  0.31836305945E+02 -0.27100190381E+02 -0.58925227609E+02  0.72403336550E+02  0.47000000000E+01 0.  1.
          5    1    4    4  503    0 -0.40872968343E+02 -0.61786015288E+02  0.11628929448E+03  0.13796159334E+03  0.47000000000E+01 0.  1.
         -5    1    4    4    0  503 -0.26476696994E+02  0.18699786697E+02  0.36806844143E+01  0.32959595628E+02  0.47000000000E+01 0. -1.
<mgrwt>
<rscale>  0 0.12221141E+03</rscale>
<asrwt>0</asrwt>
<pdfrwt beam="1">  1        4 0.27626874E-01 0.12236808E+03</pdfrwt>
<pdfrwt beam="2">  1       -4 0.26113587E-01 0.12236808E+03</pdfrwt>
<totfact> 0.28034421E+02</totfact>
</mgrwt>
</event>
<event>
 8    1  0.2964543E-004  0.1184775E+03  0.7546771E-02  0.1246093E+00
          2   -1    0    0  501    0  0.00000000000E+00  0.00000000000E+00  0.31268963989E+03  0.31268963989E+03  0.00000000000E+00 0. -1.
         -2   -1    0    0    0  501 -0.00000000000E+00 -0.00000000000E+00 -0.72347167914E+02  0.72347167914E+02  0.00000000000E+00 0.  1.
         23    2    1    2    0    0 -0.67618217986E+02  0.28078362399E+02  0.23931933196E+03  0.26655491033E+03  0.91745080160E+02 0.  0.
         23    2    1    2    0    0  0.67618217986E+02 -0.28078362399E+02  0.10231400134E+01  0.11848189747E+03  0.93146633722E+02 0.  0.
          5    1    3    3  502    0 -0.88350694183E+02  0.34504312810E+02  0.19987326792E+03  0.22128670542E+03  0.47000000000E+01 0. -1.
         -5    1    4    4    0  503  0.34703393109E+02 -0.44977813662E+02  0.35942913199E+02  0.67389258968E+02  0.47000000000E+01 0.  1.
          5    1    4    4  503    0  0.32914824877E+02  0.16899451263E+02 -0.34919773185E+02  0.51092638501E+02  0.47000000000E+01 0. -1.
         -5    1    3    3    0  502  0.20732476198E+02 -0.64259504113E+01  0.39446064038E+02  0.45268204913E+02  0.47000000000E+01 0.  1.
<mgrwt>
<rscale>  0 0.11820184E+03</rscale>
<asrwt>0</asrwt>
<pdfrwt beam="1">  1        2 0.48106098E-01 0.11847748E+03</pdfrwt>
<pdfrwt beam="2">  1       -2 0.11130334E-01 0.11847748E+03</pdfrwt>
<totfact> 0.55407510E+03</totfact>
</mgrwt>
</event>
<event>
 8    1  0.2964543E-004  0.1067704E+03  0.7546771E-02  0.1267275E+00
         -1   -1    0    0    0  501 -0.00000000000E+00  0.00000000000E+00  0.26869251791E+03  0.26869251791E+03  0.00000000000E+00 0.  1.
          1   -1    0    0  501    0  0.00000000000E+00 -0.00000000000E+00 -0.48968637699E+02  0.48968637699E+02  0.00000000000E+00 0. -1.
         23    2    1    2    0    0  0.51273624284E+02 -0.18192180065E+02  0.17061690171E+03  0.20127105798E+03  0.91869318414E+02 0.  0.
         23    2    1    2    0    0 -0.51273624284E+02  0.18192180065E+02  0.49106978499E+02  0.11639009763E+03  0.90416920580E+02 0.  0.
          5    1    3    3  502    0 -0.54771929664E+01 -0.24936063701E+02  0.55753905626E+01  0.26551495167E+02  0.47000000000E+01 0. -1.
         -5    1    4    4    0  503  0.22379935047E+02  0.11998864885E+02  0.30617284541E+02  0.40054242771E+02  0.47000000000E+01 0.  1.
          5    1    4    4  503    0 -0.73653559331E+02  0.61933151800E+01  0.18489693958E+02  0.76335854864E+02  0.47000000000E+01 0. -1.
         -5    1    3    3    0  502  0.56750817251E+02  0.67438836358E+01  0.16504151115E+03  0.17471956281E+03  0.47000000000E+01 0.  1.
<mgrwt>
<rscale>  0 0.10645722E+03</rscale>
<asrwt>0</asrwt>
<pdfrwt beam="1">  1        1 0.75336367E-02 0.10677037E+03</pdfrwt>
<pdfrwt beam="2">  1       -1 0.41337310E-01 0.10677037E+03</pdfrwt>
<totfact> 0.51473683E+03</totfact>
</mgrwt>
</event>
<event>
 8    1  0.2964543E-004  0.9407873E+02  0.7546771E-02  0.1294324E+00
          2   -1    0    0  501    0  0.00000000000E+00  0.00000000000E+00  0.21056708935E+02  0.21056708935E+02  0.00000000000E+00 0. -1.
         -2   -1    0    0    0  501 -0.00000000000E+00 -0.00000000000E+00 -0.41230882831E+03  0.41230882831E+03  0.00000000000E+00 0.  1.
         23    2    1    2    0    0  0.16004808175E+02  0.14910751848E+02 -0.19773376196E+03  0.21819081295E+03  0.89610857764E+02 0.  0.
         23    2    1    2    0    0 -0.16004808175E+02 -0.14910751848E+02 -0.19351835741E+03  0.21517472430E+03  0.91500398446E+02 0.  0.
          5    1    4    4  502    0  0.20824328996E+02 -0.21537679349E+01 -0.16564203361E+03  0.16702594018E+03  0.47000000000E+01 0. -1.
         -5    1    3    3    0  503 -0.18499685129E+02  0.38864243929E+02 -0.14064364041E+03  0.14715770925E+03  0.47000000000E+01 0.  1.
          5    1    3    3  503    0  0.34504493303E+02 -0.23953492081E+02 -0.57090121557E+02  0.71033103694E+02  0.47000000000E+01 0. -1.
         -5    1    4    4    0  502 -0.36829137171E+02 -0.12756983913E+02 -0.27876323802E+02  0.48148784118E+02  0.47000000000E+01 0.  1.
<mgrwt>
<rscale>  0 0.93616151E+02</rscale>
<asrwt>0</asrwt>
<pdfrwt beam="1">  1        2 0.32394937E-02 0.94078729E+02</pdfrwt>
<pdfrwt beam="2">  1       -2 0.63432128E-01 0.94078729E+02</pdfrwt>
<totfact> 0.60513715E+03</totfact>
</mgrwt>
</event>
<event>
 8    1  0.2964543E-004  0.9502918E+02  0.7546771E-02  0.1294666E+00
          1   -1    0    0  501    0  0.00000000000E+00  0.00000000000E+00  0.43997305368E+03  0.43997305368E+03  0.00000000000E+00 0. -1.
         -1   -1    0    0    0  501 -0.00000000000E+00 -0.00000000000E+00 -0.20188502357E+02  0.20188502357E+02  0.00000000000E+00 0.  1.
         23    2    1    2    0    0 -0.44022705477E+01 -0.27745122005E+02  0.26662547189E+03  0.28305421277E+03  0.90782009926E+02 0.  0.
         23    2    1    2    0    0  0.44022705477E+01  0.27745122005E+02  0.15315907943E+03  0.17710734326E+03  0.84380896207E+02 0.  0.
          5    1    3    3  502    0 -0.36919393328E+02  0.15442561086E+02  0.99894167452E+02  0.10771466468E+03  0.47000000000E+01 0. -1.
         -5    1    4    4    0  503  0.12227872876E+02 -0.16938792779E+02  0.48656012049E+01  0.21959227012E+02  0.47000000000E+01 0.  1.
          5    1    4    4  503    0 -0.78256023284E+01  0.44683914784E+02  0.14829347822E+03  0.15514811625E+03  0.47000000000E+01 0. -1.
         -5    1    3    3    0  502  0.32517122780E+02 -0.43187683091E+02  0.16673130444E+03  0.17533954809E+03  0.47000000000E+01 0.  1.
<mgrwt>
<rscale>  0 0.93467375E+02</rscale>
<asrwt>0</asrwt>
<pdfrwt beam="1">  1        1 0.67688155E-01 0.95029180E+02</pdfrwt>
<pdfrwt beam="2">  1       -1 0.31059238E-02 0.95029180E+02</pdfrwt>
<totfact> 0.17456715E+04</totfact>
</mgrwt>
</event>
<event>
 8    1  0.2964543E-004  0.1031154E+03  0.7546771E-02  0.1274018E+00
          1   -1    0    0  501    0  0.00000000000E+00  0.00000000000E+00  0.16274817532E+03  0.16274817532E+03  0.00000000000E+00 0. -1.
         -1   -1    0    0    0  501 -0.00000000000E+00 -0.00000000000E+00 -0.66004598908E+02  0.66004598908E+02  0.00000000000E+00 0.  1.
         23    2    1    2    0    0 -0.35545738128E+02  0.31311828434E+02  0.61267273142E+02  0.11970525129E+03  0.91278356299E+02 0.  0.
         23    2    1    2    0    0  0.35545738128E+02 -0.31311828434E+02  0.35476303270E+02  0.10904752294E+03  0.91590742256E+02 0.  0.
          5    1    4    4  502    0  0.99671792845E+01  0.30703119255E+02  0.24756320933E+02  0.40951088154E+02  0.47000000000E+01 0. -1.
         -5    1    4    4    0  502  0.25578558844E+02 -0.62014947689E+02  0.10719982337E+02  0.68096434787E+02  0.47000000000E+01 0.  1.
          5    1    3    3  503    0 -0.19260820388E+02  0.60899416674E+02  0.56248908801E+02  0.85239356488E+02  0.47000000000E+01 0. -1.
         -5    1    3    3    0  503 -0.16284917740E+02 -0.29587588240E+02  0.50183643415E+01  0.34465894799E+02  0.47000000000E+01 0.  1.
<mgrwt>
<rscale>  0 0.10304603E+03</rscale>
<asrwt>0</asrwt>
<pdfrwt beam="1">  1        1 0.25038181E-01 0.10311544E+03</pdfrwt>
<pdfrwt beam="2">  1       -1 0.10154554E-01 0.10311544E+03</pdfrwt>
<totfact> 0.10437494E+04</totfact>
</mgrwt>
</event>
<event>
 8    1  0.2964543E-004  0.1536749E+03  0.7546771E-02  0.1196429E+00
          1   -1    0    0  501    0  0.00000000000E+00  0.00000000000E+00  0.17706814804E+03  0.17706814804E+03  0.00000000000E+00 0. -1.
         -1   -1    0    0    0  501 -0.00000000000E+00 -0.00000000000E+00 -0.18258413961E+03  0.18258413961E+03  0.00000000000E+00 0.  1.
         23    2    1    2    0    0  0.70395206227E+02  0.10062969347E+03  0.91685651423E+02  0.17894761412E+03  0.92380569670E+02 0.  0.
         23    2    1    2    0    0 -0.70395206227E+02 -0.10062969347E+03 -0.97201642991E+02  0.18070467353E+03  0.90134340662E+02 0.  0.
          5    1    3    3  502    0 -0.83659049274E+01  0.58759614134E+02  0.59035425736E+02  0.83844809679E+02  0.47000000000E+01 0.  1.
         -5    1    4    4    0  503 -0.47267442856E+02 -0.11281439420E+03 -0.63817220697E+02  0.13804356686E+03  0.47000000000E+01 0.  1.
          5    1    4    4  503    0 -0.23127763371E+02  0.12184700730E+02 -0.33384422293E+02  0.42661106669E+02  0.47000000000E+01 0. -1.
         -5    1    3    3    0  502  0.78761111155E+02  0.41870079340E+02  0.32650225688E+02  0.95102804437E+02  0.47000000000E+01 0. -1.
<mgrwt>
<rscale>  0 0.15333892E+03</rscale>
<asrwt>0</asrwt>
<pdfrwt beam="1">  1        1 0.27241254E-01 0.15367495E+03</pdfrwt>
<pdfrwt beam="2">  1       -1 0.28089868E-01 0.15367495E+03</pdfrwt>
<totfact> 0.19215031E+03</totfact>
</mgrwt>
</event>
<event>
 8    1  0.2964543E-004  0.1411349E+03  0.7546771E-02  0.1214027E+00
         -1   -1    0    0    0  501 -0.00000000000E+00  0.00000000000E+00  0.13433999393E+03  0.13433999393E+03  0.00000000000E+00 0.  1.
          1   -1    0    0  501    0  0.00000000000E+00 -0.00000000000E+00 -0.14766777690E+03  0.14766777690E+03  0.00000000000E+00 0. -1.
         23    2    1    2    0    0 -0.15966525648E+02  0.10615853155E+03 -0.35258286506E+02  0.13917916116E+03  0.81259635552E+02 0.  0.
         23    2    1    2    0    0  0.15966525648E+02 -0.10615853155E+03  0.21930503540E+02  0.14282860967E+03  0.91621509444E+02 0.  0.
          5    1    4    4  502    0 -0.18085359634E+02 -0.10448920250E+03  0.22051144273E+02  0.10841317556E+03  0.47000000000E+01 0. -1.
         -5    1    3    3    0  503  0.11390465165E+02  0.91424009116E+02 -0.40717650390E+00  0.92251547045E+02  0.47000000000E+01 0.  1.
          5    1    3    3  503    0 -0.27356990813E+02  0.14734522436E+02 -0.34851110002E+02  0.46927614111E+02  0.47000000000E+01 0. -1.
         -5    1    4    4    0  502  0.34051885282E+02 -0.16693290540E+01 -0.12064073321E+00  0.34415434109E+02  0.47000000000E+01 0.  1.
<mgrwt>
<rscale>  0 0.13948216E+03</rscale>
<asrwt>0</asrwt>
<pdfrwt beam="1">  1        1 0.22718119E-01 0.14113492E+03</pdfrwt>
<pdfrwt beam="2">  1       -1 0.20667691E-01 0.14113492E+03</pdfrwt>
<totfact> 0.39790992E+03</totfact>
</mgrwt>
</event>
<event>
 8    1  0.2964543E-004  0.8927436E+02  0.7546771E-02  0.1306652E+00
         -1   -1    0    0    0  501 -0.00000000000E+00  0.00000000000E+00  0.90077740655E+01  0.90077740655E+01  0.00000000000E+00 0.  1.
          1   -1    0    0  501    0  0.00000000000E+00 -0.00000000000E+00 -0.85868198267E+03  0.85868198267E+03  0.00000000000E+00 0. -1.
         23    2    1    2    0    0  0.59276248245E+01 -0.34693891778E+01 -0.39678902695E+03  0.40670805760E+03  0.89009768068E+02 0.  0.
         23    2    1    2    0    0 -0.59276248245E+01  0.34693891778E+01 -0.45288518165E+03  0.46098169914E+03  0.85743604883E+02 0.  0.
          5    1    3    3  502    0 -0.19810733688E+02  0.35594120941E+02 -0.21908939765E+03  0.22289383297E+03  0.47000000000E+01 0. -1.
         -5    1    3    3    0  502  0.25738358513E+02 -0.39063510119E+02 -0.17769962930E+03  0.18381422463E+03  0.47000000000E+01 0.  1.
          5    1    4    4  503    0 -0.38260343255E+02 -0.20713699710E+02 -0.27882255083E+03  0.28223574556E+03  0.47000000000E+01 0. -1.
         -5    1    4    4    0  503  0.32332718431E+02  0.24183088888E+02 -0.17406263083E+03  0.17874595358E+03  0.47000000000E+01 0.  1.
<mgrwt>
<rscale>  0 0.88448959E+02</rscale>
<asrwt>0</asrwt>
<pdfrwt beam="1">  1        1 0.13210493E+00 0.89274365E+02</pdfrwt>
<pdfrwt beam="2">  1       -1 0.13858113E-02 0.89274365E+02</pdfrwt>
<totfact> 0.22073749E+04</totfact>
</mgrwt>
</event>
<event>
 8    1  0.2964543E-004  0.9872525E+02  0.7546771E-02  0.1284782E+00
         -1   -1    0    0    0  501 -0.00000000000E+00  0.00000000000E+00  0.11468337273E+02  0.11468337273E+02  0.00000000000E+00 0.  1.
          1   -1    0    0  501    0  0.00000000000E+00 -0.00000000000E+00 -0.96622383842E+03  0.96622383842E+03  0.00000000000E+00 0. -1.
         23    2    1    2    0    0  0.16198721358E+02 -0.33613718371E+02 -0.28164869927E+03  0.29738383277E+03  0.87857120132E+02 0.  0.
         23    2    1    2    0    0 -0.16198721358E+02  0.33613718371E+02 -0.67310680188E+03  0.68030834292E+03  0.91402374565E+02 0.  0.
          5    1    3    3  502    0  0.31002006954E+02  0.19391660945E+02 -0.76360230770E+02  0.84794668421E+02  0.47000000000E+01 0. -1.
         -5    1    4    4    0  503  0.13771585665E+02 -0.20119274352E+02 -0.74483766191E+02  0.78513458707E+02  0.47000000000E+01 0.  1.
          5    1    4    4  503    0 -0.29970307023E+02  0.53732992722E+02 -0.59862303569E+03  0.60179488421E+03  0.47000000000E+01 0. -1.
         -5    1    3    3    0  502 -0.14803285597E+02 -0.53005379315E+02 -0.20528846850E+03  0.21258916435E+03  0.47000000000E+01 0.  1.
<mgrwt>
<rscale>  0 0.97896655E+02</rscale>
<asrwt>0</asrwt>
<pdfrwt beam="1">  1        1 0.14864978E+00 0.98725249E+02</pdfrwt>
<pdfrwt beam="2">  1       -1 0.17643600E-02 0.98725249E+02</pdfrwt>
<totfact> 0.13108253E+04</totfact>
</mgrwt>
</event>
<event>
 8    1  0.2964543E-004  0.9866786E+02  0.7546771E-02  0.1284049E+00
          3   -1    0    0  501    0  0.00000000000E+00  0.00000000000E+00  0.58699213869E+03  0.58699213869E+03  0.00000000000E+00 0. -1.
         -3   -1    0    0    0  501 -0.00000000000E+00 -0.00000000000E+00 -0.16627826798E+02  0.16627826798E+02  0.00000000000E+00 0.  1.
         23    2    1    2    0    0 -0.10371062942E+01 -0.36960077449E+02  0.33013614115E+03  0.34456526044E+03  0.91477997869E+02 0.  0.
         23    2    1    2    0    0  0.10371062942E+01  0.36960077449E+02  0.24022817074E+03  0.25905470505E+03  0.89625014786E+02 0.  0.
          5    1    4    4  502    0 -0.26695424231E+02 -0.19592596002E+02  0.73034647010E+02  0.80328482850E+02  0.47000000000E+01 0. -1.
         -5    1    3    3    0  503  0.27666105766E+02 -0.18855847850E+02  0.39829157297E+02  0.52243738164E+02  0.47000000000E+01 0.  1.
          5    1    3    3  503    0 -0.28703212060E+02 -0.18104229599E+02  0.29030698385E+03  0.29232152227E+03  0.47000000000E+01 0. -1.
         -5    1    4    4    0  502  0.27732530525E+02  0.56552673451E+02  0.16719352373E+03  0.17872622220E+03  0.47000000000E+01 0.  1.
<mgrwt>
<rscale>  0 0.98236170E+02</rscale>
<asrwt>0</asrwt>
<pdfrwt beam="1">  1        3 0.90306467E-01 0.98667862E+02</pdfrwt>
<pdfrwt beam="2">  1       -3 0.25581277E-02 0.98667862E+02</pdfrwt>
<totfact> 0.16169708E+03</totfact>
</mgrwt>
</event>
<event>
 8    1  0.2964543E-004  0.9293150E+02  0.7546771E-02  0.1296739E+00
          2   -1    0    0  501    0  0.00000000000E+00  0.00000000000E+00  0.10062948356E+04  0.10062948356E+04  0.00000000000E+00 0. -1.
         -2   -1    0    0    0  501 -0.00000000000E+00 -0.00000000000E+00 -0.91897990091E+01  0.91897990091E+01  0.00000000000E+00 0.  1.
         23    2    1    2    0    0 -0.12802563590E+02 -0.13077454857E+02  0.35813237949E+03  0.36999333173E+03  0.91111683246E+02 0.  0.
         23    2    1    2    0    0  0.12802563590E+02  0.13077454857E+02  0.63897265709E+03  0.64549130287E+03  0.89655117604E+02 0.  0.
          5    1    3    3  502    0 -0.50401211208E+02 -0.68655254025E+01  0.15312418053E+03  0.16142032770E+03  0.47000000000E+01 0. -1.
         -5    1    3    3    0  502  0.37598647618E+02 -0.62119294542E+01  0.20500819896E+03  0.20857300403E+03  0.47000000000E+01 0.  1.
          5    1    4    4  503    0 -0.18059825743E+01 -0.37814179245E+02  0.24611556292E+03  0.24905448005E+03  0.47000000000E+01 0. -1.
         -5    1    4    4    0  503  0.14608546165E+02  0.50891634102E+02  0.39285709417E+03  0.39643682281E+03  0.47000000000E+01 0.  1.
<mgrwt>
<rscale>  0 0.92572530E+02</rscale>
<asrwt>0</asrwt>
<pdfrwt beam="1">  1        2 0.15481450E+00 0.92931503E+02</pdfrwt>
<pdfrwt beam="2">  1       -2 0.14138160E-02 0.92931503E+02</pdfrwt>
<totfact> 0.30638719E+04</totfact>
</mgrwt>
</event>
<event>
 7    1  0.2964543E-004  0.2583539E+03  0.7546771E-02  0.1130922E+00
         -2   -1    0    0    0  501 -0.00000000000E+00  0.00000000000E+00  0.95730281492E+03  0.95730281492E+03  0.00000000000E+00 0.  1.
          2   -1    0    0  501    0  0.00000000000E+00 -0.00000000000E+00 -0.50228352416E+02  0.50228352416E+02  0.00000000000E+00 0. -1.
         23    2    1    2    0    0  0.32828061693E+02 -0.10752180296E+03  0.53486306100E+03  0.55444393151E+03  0.93225315364E+02 0.  0.
          5    1    1    2  502    0  0.51075086146E+02 -0.44549643964E+02  0.41765659807E+02  0.79748326260E+02  0.47000000000E+01 0. -1.
         -5    1    1    2    0  502 -0.83903147839E+02  0.15207144692E+03  0.33044574170E+03  0.37333890957E+03  0.47000000000E+01 0.  1.
          5    1    3    3  503    0 -0.26373717186E+02 -0.38914145878E+02  0.27888657758E+03  0.28285985375E+03  0.47000000000E+01 0. -1.
         -5    1    3    3    0  503  0.59201778879E+02 -0.68607657082E+02  0.25597648342E+03  0.27158407777E+03  0.47000000000E+01 0.  1.
<mgrwt>
<rscale>  0 0.22401856E+03</rscale>
<asrwt>0</asrwt>
<pdfrwt beam="1">  1        2 0.77274395E-02 0.25835386E+03</pdfrwt>
<pdfrwt beam="2">  1       -2 0.14727734E+00 0.25835386E+03</pdfrwt>
<totfact> 0.29542690E+02</totfact>
</mgrwt>
</event>
<event>
 8    1  0.2964543E-004  0.1012990E+03  0.7546771E-02  0.1280833E+00
          1   -1    0    0  501    0  0.00000000000E+00  0.00000000000E+00  0.68988766435E+02  0.68988766435E+02  0.00000000000E+00 0. -1.
         -1   -1    0    0    0  501 -0.00000000000E+00 -0.00000000000E+00 -0.14657394718E+03  0.14657394718E+03  0.00000000000E+00 0.  1.
         23    2    1    2    0    0  0.89265547707E+01 -0.34815270080E+02 -0.17046140034E+02  0.10272324522E+03  0.94708541371E+02 0.  0.
         23    2    1    2    0    0 -0.89265547707E+01  0.34815270080E+02 -0.60539040706E+02  0.11283946839E+03  0.88181538687E+02 0.  0.
          5    1    4    4  502    0  0.27823458365E+02 -0.11755846471E+02 -0.41367787267E+01  0.30847166805E+02  0.47000000000E+01 0. -1.
         -5    1    4    4    0  502 -0.36750013136E+02  0.46571116551E+02 -0.56402261979E+02  0.81992301582E+02  0.47000000000E+01 0.  1.
          5    1    3    3  503    0  0.20435589027E+02 -0.81769325846E+01 -0.52231241100E+02  0.56874142387E+02  0.47000000000E+01 0. -1.
         -5    1    3    3    0  503 -0.11509034257E+02 -0.26638337495E+02  0.35185101066E+02  0.45849102838E+02  0.47000000000E+01 0.  1.
<mgrwt>
<rscale>  0 0.99745093E+02</rscale>
<asrwt>0</asrwt>
<pdfrwt beam="1">  1        1 0.10613657E-01 0.10129903E+03</pdfrwt>
<pdfrwt beam="2">  1       -1 0.22549838E-01 0.10129903E+03</pdfrwt>
<totfact> 0.89875876E+03</totfact>
</mgrwt>
</event>
<event>
 8    1  0.2964543E-004  0.1036941E+03  0.7546771E-02  0.1274717E+00
         -1   -1    0    0    0  501 -0.00000000000E+00  0.00000000000E+00  0.13071767378E+02  0.13071767378E+02  0.00000000000E+00 0.  1.
          1   -1    0    0  501    0  0.00000000000E+00 -0.00000000000E+00 -0.80157383015E+03  0.80157383015E+03  0.00000000000E+00 0. -1.
         23    2    1    2    0    0  0.31564672358E+02  0.26664199041E+02 -0.35676921185E+03  0.37153295966E+03  0.95106054157E+02 0.  0.
         23    2    1    2    0    0 -0.31564672358E+02 -0.26664199041E+02 -0.43173285092E+03  0.44311263786E+03  0.90819861383E+02 0.  0.
          5    1    4    4  502    0 -0.41762883223E+02  0.61920702242E+01 -0.36878362826E+03  0.37122221730E+03  0.47000000000E+01 0. -1.
         -5    1    3    3    0  503  0.40604036312E+02 -0.23351053565E+02 -0.23198299716E+03  0.23671113290E+03  0.47000000000E+01 0.  1.
          5    1    3    3  503    0 -0.90393639547E+01  0.50015252606E+02 -0.12478621469E+03  0.13482182676E+03  0.47000000000E+01 0. -1.
         -5    1    4    4    0  502  0.10198210865E+02 -0.32856269265E+02 -0.62949222660E+02  0.71890420561E+02  0.47000000000E+01 0.  1.
<mgrwt>
<rscale>  0 0.10270079E+03</rscale>
<asrwt>0</asrwt>
<pdfrwt beam="1">  1        1 0.12331907E+00 0.10369412E+03</pdfrwt>
<pdfrwt beam="2">  1       -1 0.20110409E-02 0.10369412E+03</pdfrwt>
<totfact> 0.14600398E+04</totfact>
</mgrwt>
</event>
<event>
 8    1  0.2964543E-004  0.9224822E+02  0.7546771E-02  0.1297838E+00
         -1   -1    0    0    0  501 -0.00000000000E+00  0.00000000000E+00  0.82144281040E+02  0.82144281040E+02  0.00000000000E+00 0.  1.
          1   -1    0    0  501    0  0.00000000000E+00 -0.00000000000E+00 -0.11365253217E+03  0.11365253217E+03  0.00000000000E+00 0. -1.
         23    2    1    2    0    0  0.23348656550E+02  0.24041324830E+01  0.14342232566E+02  0.92782242970E+02  0.88610977649E+02 0.  0.
         23    2    1    2    0    0 -0.23348656550E+02 -0.24041324830E+01 -0.45850483697E+02  0.10301457024E+03  0.89212079963E+02 0.  0.
          5    1    3    3  502    0  0.21980484114E+02 -0.30483848687E+02 -0.21776669206E+02  0.43688900586E+02  0.47000000000E+01 0. -1.
         -5    1    3    3    0  502  0.13681724358E+01  0.32887981170E+02  0.36118901772E+02  0.49093342384E+02  0.47000000000E+01 0.  1.
          5    1    4    4  503    0 -0.10193298552E+02 -0.44943289313E+02 -0.15198318138E+02  0.48753271315E+02  0.47000000000E+01 0. -1.
         -5    1    4    4    0  503 -0.13155357998E+02  0.42539156830E+02 -0.30652165559E+02  0.54261298928E+02  0.47000000000E+01 0.  1.
<mgrwt>
<rscale>  0 0.92102582E+02</rscale>
<asrwt>0</asrwt>
<pdfrwt beam="1">  1        1 0.17485005E-01 0.92248224E+02</pdfrwt>
<pdfrwt beam="2">  1       -1 0.12637582E-01 0.92248224E+02</pdfrwt>
<totfact> 0.11616861E+04</totfact>
</mgrwt>
</event>
<event>
 8    1  0.2964543E-004  0.1130221E+03  0.7546771E-02  0.1255206E+00
          2   -1    0    0  501    0  0.00000000000E+00  0.00000000000E+00  0.71333367303E+03  0.71333367303E+03  0.00000000000E+00 0. -1.
         -2   -1    0    0    0  501 -0.00000000000E+00 -0.00000000000E+00 -0.20245724540E+02  0.20245724540E+02  0.00000000000E+00 0.  1.
         23    2    1    2    0    0  0.66018084027E+02 -0.16165861092E+02  0.47283776527E+03  0.48615793767E+03  0.90300972387E+02 0.  0.
         23    2    1    2    0    0 -0.66018084027E+02  0.16165861092E+02  0.22025018323E+03  0.24742145990E+03  0.89930601721E+02 0.  0.
          5    1    4    4  502    0  0.66074745609E+01  0.34549087438E+02  0.49563041771E+02  0.60958045183E+02  0.47000000000E+01 0. -1.
         -5    1    3    3    0  503  0.54100248654E+02 -0.42089952884E+02  0.19365766314E+03  0.20548426103E+03  0.47000000000E+01 0.  1.
          5    1    3    3  503    0  0.11917835373E+02  0.25924091793E+02  0.27918010213E+03  0.28067367664E+03  0.47000000000E+01 0. -1.
         -5    1    4    4    0  502 -0.72625558587E+02 -0.18383226346E+02  0.17068714145E+03  0.18646341472E+03  0.47000000000E+01 0.  1.
<mgrwt>
<rscale>  0 0.11294807E+03</rscale>
<asrwt>0</asrwt>
<pdfrwt beam="1">  1        2 0.10974362E+00 0.11302207E+03</pdfrwt>
<pdfrwt beam="2">  1       -2 0.31147274E-02 0.11302207E+03</pdfrwt>
<totfact> 0.15381007E+04</totfact>
</mgrwt>
</event>
<event>
 8    1  0.2964543E-004  0.9304978E+02  0.7546771E-02  0.1298740E+00
         -3   -1    0    0    0  501 -0.00000000000E+00  0.00000000000E+00  0.68137201678E+02  0.68137201678E+02  0.00000000000E+00 0.  1.
          3   -1    0    0  501    0  0.00000000000E+00 -0.00000000000E+00 -0.32179775083E+03  0.32179775083E+03  0.00000000000E+00 0. -1.
         23    2    1    2    0    0  0.19397816092E+02  0.42184279001E+01  0.28878556535E+02  0.92467967687E+02  0.85570343096E+02 0.  0.
         23    2    1    2    0    0 -0.19397816092E+02 -0.42184279001E+01 -0.28253910569E+03  0.29746698482E+03  0.90907592710E+02 0.  0.
          5    1    4    4  502    0 -0.91606369775E+01 -0.46727647192E+02 -0.12303832488E+03  0.13201480853E+03  0.47000000000E+01 0. -1.
         -5    1    4    4    0  502 -0.10237179114E+02  0.42509219292E+02 -0.15950078081E+03  0.16545217629E+03  0.47000000000E+01 0.  1.
          5    1    3    3  503    0 -0.62556471898E+01  0.40460632341E+02  0.23644375780E+02  0.47511497527E+02  0.47000000000E+01 0. -1.
         -5    1    3    3    0  503  0.25653463281E+02 -0.36242204441E+02  0.52341807551E+01  0.44956470160E+02  0.47000000000E+01 0.  1.
<mgrwt>
<rscale>  0 0.91719783E+02</rscale>
<asrwt>0</asrwt>
<pdfrwt beam="1">  1        3 0.49507347E-01 0.93049776E+02</pdfrwt>
<pdfrwt beam="2">  1       -3 0.10482646E-01 0.93049776E+02</pdfrwt>
<totfact> 0.60599455E+02</totfact>
</mgrwt>
</event>
<event>
 8    1  0.2964543E-004  0.1178031E+03  0.7546771E-02  0.1246917E+00
          1   -1    0    0  501    0  0.00000000000E+00  0.00000000000E+00  0.35542643841E+03  0.35542643841E+03  0.00000000000E+00 0. -1.
         -1   -1    0    0    0  501 -0.00000000000E+00 -0.00000000000E+00 -0.38939471001E+02  0.38939471001E+02  0.00000000000E+00 0.  1.
         23    2    1    2    0    0 -0.24270881293E+02 -0.69787420917E+02  0.16157479789E+03  0.19974999870E+03  0.91292315498E+02 0.  0.
         23    2    1    2    0    0  0.24270881293E+02  0.69787420917E+02  0.15491216951E+03  0.19461591071E+03  0.91750818203E+02 0.  0.
          5    1    3    3  502    0  0.33267684634E+02 -0.16591069801E+02  0.67690767227E+02  0.77370100206E+02  0.47000000000E+01 0. -1.
         -5    1    4    4    0  503 -0.22197744106E+02  0.37241039645E+02  0.19589157920E+02  0.47806484762E+02  0.47000000000E+01 0.  1.
          5    1    4    4  503    0  0.46468625399E+02  0.32546381271E+02  0.13532301159E+03  0.14680942595E+03  0.47000000000E+01 0. -1.
         -5    1    3    3    0  502 -0.57538565928E+02 -0.53196351116E+02  0.93884030667E+02  0.12237989849E+03  0.47000000000E+01 0.  1.
<mgrwt>
<rscale>  0 0.11771382E+03</rscale>
<asrwt>0</asrwt>
<pdfrwt beam="1">  1        1 0.54680988E-01 0.11780311E+03</pdfrwt>
<pdfrwt beam="2">  1       -1 0.59906881E-02 0.11780311E+03</pdfrwt>
<totfact> 0.88814381E+03</totfact>
</mgrwt>
</event>
<event>
 8    1  0.2964543E-004  0.9646062E+02  0.7546771E-02  0.1292933E+00
         -4   -1    0    0    0  501 -0.00000000000E+00  0.00000000000E+00  0.14647981100E+03  0.14647981100E+03  0.00000000000E+00 0. -1.
          4   -1    0    0  501    0  0.00000000000E+00 -0.00000000000E+00 -0.12447800686E+03  0.12447800686E+03  0.00000000000E+00 0.  1.
         23    2    1    2    0    0  0.23991989782E+02 -0.71071522920E+01 -0.87744942552E+02  0.13039871794E+03  0.93158593322E+02 0.  0.
         23    2    1    2    0    0 -0.23991989782E+02  0.71071522920E+01  0.10974674670E+03  0.14055909992E+03  0.84180668647E+02 0.  0.
          5    1    3    3  502    0 -0.32333770263E+02 -0.19635895820E+02 -0.28782876772E+02  0.47765940788E+02  0.47000000000E+01 0. -1.
         -5    1    4    4    0  503  0.59485338131E+01  0.39742972371E+02  0.34748842408E+02  0.53333488130E+02  0.47000000000E+01 0.  1.
          5    1    4    4  503    0 -0.29940523595E+02 -0.32635820079E+02  0.74997904288E+02  0.87225611795E+02  0.47000000000E+01 0. -1.
         -5    1    3    3    0  502  0.56325760045E+02  0.12528743528E+02 -0.58962065780E+02  0.82632777153E+02  0.47000000000E+01 0.  1.
<mgrwt>
<rscale>  0 0.94224103E+02</rscale>
<asrwt>0</asrwt>
<pdfrwt beam="1">  1        4 0.19150463E-01 0.96460617E+02</pdfrwt>
<pdfrwt beam="2">  1       -4 0.22535356E-01 0.96460617E+02</pdfrwt>
<totfact> 0.68030881E+02</totfact>
</mgrwt>
</event>
<event>
 8    1  0.2964543E-004  0.1067701E+03  0.7546771E-02  0.1269473E+00
          1   -1    0    0  501    0  0.00000000000E+00  0.00000000000E+00  0.11712194615E+03  0.11712194615E+03  0.00000000000E+00 0. -1.
         -1   -1    0    0    0  501 -0.00000000000E+00 -0.00000000000E+00 -0.95232248216E+02  0.95232248216E+02  0.00000000000E+00 0.  1.
         23    2    1    2    0    0 -0.37340742456E+02 -0.41277419797E+02 -0.81230804350E+01  0.10144606430E+03  0.84422527170E+02 0.  0.
         23    2    1    2    0    0  0.37340742456E+02  0.41277419797E+02  0.30012778366E+02  0.11090813006E+03  0.91113610490E+02 0.  0.
          5    1    4    4  502    0  0.11261331269E+02 -0.25044424854E+02 -0.93160608064E+01  0.29375496373E+02  0.47000000000E+01 0. -1.
         -5    1    3    3    0  503  0.19361487510E+02  0.11927768907E+02 -0.20972031571E+01  0.23315812891E+02  0.47000000000E+01 0.  1.
          5    1    3    3  503    0 -0.56702229966E+02 -0.53205188703E+02 -0.60258772779E+01  0.78130251408E+02  0.47000000000E+01 0. -1.
         -5    1    4    4    0  502  0.26079411187E+02  0.66321844651E+02  0.39328839173E+02  0.81532633690E+02  0.47000000000E+01 0.  1.
<mgrwt>
<rscale>  0 0.10532870E+03</rscale>
<asrwt>0</asrwt>
<pdfrwt beam="1">  1        1 0.18018761E-01 0.10677006E+03</pdfrwt>
<pdfrwt beam="2">  1       -1 0.14651115E-01 0.10677006E+03</pdfrwt>
<totfact> 0.90198174E+03</totfact>
</mgrwt>
</event>
<event>
 8    1  0.2964543E-004  0.1247423E+03  0.7546771E-02  0.1236043E+00
         -2   -1    0    0    0  501 -0.00000000000E+00  0.00000000000E+00  0.12163517787E+03  0.12163517787E+03  0.00000000000E+00 0.  1.
          2   -1    0    0  501    0  0.00000000000E+00 -0.00000000000E+00 -0.16678291957E+03  0.16678291957E+03  0.00000000000E+00 0. -1.
         23    2    1    2    0    0  0.47495211577E+02  0.68136787038E+02 -0.93589542186E+02  0.15594759193E+03  0.93071113411E+02 0.  0.
         23    2    1    2    0    0 -0.47495211577E+02 -0.68136787038E+02  0.48441800488E+02  0.13247050552E+03  0.91123048272E+02 0.  0.
          5    1    3    3  502    0  0.70853893877E+02  0.26946363023E+02 -0.67867571980E+02  0.10185518192E+03  0.47000000000E+01 0. -1.
         -5    1    4    4    0  503 -0.42489624490E+02  0.86116744057E+01  0.30895614925E+02  0.53443036469E+02  0.47000000000E+01 0.  1.
          5    1    4    4  503    0 -0.50055870871E+01 -0.76748461444E+02  0.17546185563E+02  0.79027469047E+02  0.47000000000E+01 0. -1.
         -5    1    3    3    0  502 -0.23358682299E+02  0.41190424015E+02 -0.25721970206E+02  0.54092410009E+02  0.47000000000E+01 0.  1.
<mgrwt>
<rscale>  0 0.12437909E+03</rscale>
<asrwt>0</asrwt>
<pdfrwt beam="1">  1        2 0.25658911E-01 0.12474233E+03</pdfrwt>
<pdfrwt beam="2">  1       -2 0.18713104E-01 0.12474233E+03</pdfrwt>
<totfact> 0.46826688E+03</totfact>
</mgrwt>
</event>
<event>
 8    1  0.2964543E-004  0.1029679E+03  0.7546771E-02  0.1274878E+00
         -1   -1    0    0    0  501 -0.00000000000E+00  0.00000000000E+00  0.46435535227E+02  0.46435535227E+02  0.00000000000E+00 0.  1.
          1   -1    0    0  501    0  0.00000000000E+00 -0.00000000000E+00 -0.22581925114E+03  0.22581925114E+03  0.00000000000E+00 0. -1.
         23    2    1    2    0    0  0.43989866803E+01  0.46173669175E+02 -0.96958589854E+02  0.14143321213E+03  0.91929465011E+02 0.  0.
         23    2    1    2    0    0 -0.43989866803E+01 -0.46173669175E+02 -0.82425126055E+02  0.13082157424E+03  0.90382653599E+02 0.  0.
          5    1    4    4  502    0 -0.58676840576E+01 -0.71926110661E+02 -0.45171081655E+02  0.85266122985E+02  0.47000000000E+01 0.  1.
         -5    1    3    3    0  503 -0.40692220270E+02  0.26269585838E+02 -0.26774196989E+02  0.55541836079E+02  0.47000000000E+01 0.  1.
          5    1    3    3  503    0  0.45091206950E+02  0.19904083337E+02 -0.70184392864E+02  0.85891376048E+02  0.47000000000E+01 0. -1.
         -5    1    4    4    0  502  0.14686973773E+01  0.25752441486E+02 -0.37254044400E+02  0.45555451250E+02  0.47000000000E+01 0. -1.
<mgrwt>
<rscale>  0 0.10262149E+03</rscale>
<asrwt>0</asrwt>
<pdfrwt beam="1">  1        1 0.34741424E-01 0.10296789E+03</pdfrwt>
<pdfrwt beam="2">  1       -1 0.71439284E-02 0.10296789E+03</pdfrwt>
<totfact> 0.11813155E+04</totfact>
</mgrwt>
</event>
<event>
 8    1  0.2964543E-004  0.1087994E+03  0.7546771E-02  0.1264338E+00
         -1   -1    0    0    0  501 -0.00000000000E+00  0.00000000000E+00  0.16663571839E+03  0.16663571839E+03  0.00000000000E+00 0.  1.
          1   -1    0    0  501    0  0.00000000000E+00 -0.00000000000E+00 -0.10208601927E+03  0.10208601927E+03  0.00000000000E+00 0. -1.
         23    2    1    2    0    0  0.16899871203E+02  0.52505562813E+02  0.10847854141E+03  0.15138866879E+03  0.90047183851E+02 0.  0.
         23    2    1    2    0    0 -0.16899871203E+02 -0.52505562813E+02 -0.43928842295E+02  0.11733306887E+03  0.93780947380E+02 0.  0.
          5    1    3    3  502    0  0.35952166062E+02  0.21525206807E+02  0.60560242092E+01  0.42598805169E+02  0.47000000000E+01 0. -1.
         -5    1    4    4    0  503  0.36867652010E+02 -0.11692494722E+02 -0.50368775901E+01  0.39286108657E+02  0.47000000000E+01 0.  1.
          5    1    4    4  503    0 -0.53767523213E+02 -0.40813068091E+02 -0.38891964705E+02  0.78046960210E+02  0.47000000000E+01 0. -1.
         -5    1    3    3    0  502 -0.19052294858E+02  0.30980356006E+02  0.10242251720E+03  0.10878986362E+03  0.47000000000E+01 0.  1.
<mgrwt>
<rscale>  0 0.10799005E+03</rscale>
<asrwt>0</asrwt>
<pdfrwt beam="1">  1        1 0.15705541E-01 0.10879938E+03</pdfrwt>
<pdfrwt beam="2">  1       -1 0.25636264E-01 0.10879938E+03</pdfrwt>
<totfact> 0.44153369E+03</totfact>
</mgrwt>
</event>
<event>
 8    1  0.2964543E-004  0.1054482E+03  0.7546771E-02  0.1269982E+00
         -2   -1    0    0    0  501 -0.00000000000E+00  0.00000000000E+00  0.52807539503E+03  0.52807539503E+03  0.00000000000E+00 0.  1.
          2   -1    0    0  501    0  0.00000000000E+00 -0.00000000000E+00 -0.20904129501E+02  0.20904129501E+02  0.00000000000E+00 0. -1.
         23    2    1    2    0    0  0.10924832419E+02 -0.52942421765E+02  0.23236693712E+03  0.25517391137E+03  0.90537724696E+02 0.  0.
         23    2    1    2    0    0 -0.10924832419E+02  0.52942421765E+02  0.27480432841E+03  0.29380561316E+03  0.88781008244E+02 0.  0.
          5    1    3    3  502    0 -0.22615730131E+02  0.10393623027E+02  0.24464869465E+02  0.35215316084E+02  0.47000000000E+01 0. -1.
         -5    1    3    3    0  502  0.33540562550E+02 -0.63336044792E+02  0.20790206766E+03  0.21995859529E+03  0.47000000000E+01 0.  1.
          5    1    4    4  503    0  0.19034992463E+02  0.45201887831E+02  0.64400983128E+02  0.81087102731E+02  0.47000000000E+01 0. -1.
         -5    1    4    4    0  503 -0.29959824882E+02  0.77405339344E+01  0.21040334528E+03  0.21271851043E+03  0.47000000000E+01 0.  1.
<mgrwt>
<rscale>  0 0.10507011E+03</rscale>
<asrwt>0</asrwt>
<pdfrwt beam="1">  1        2 0.32160203E-02 0.10544824E+03</pdfrwt>
<pdfrwt beam="2">  1       -2 0.81242358E-01 0.10544824E+03</pdfrwt>
<totfact> 0.36507377E+03</totfact>
</mgrwt>
</event>
<event>
 8    1  0.2964543E-004  0.9553407E+02  0.7546771E-02  0.1292247E+00
         -2   -1    0    0    0  501 -0.00000000000E+00  0.00000000000E+00  0.13399636526E+02  0.13399636526E+02  0.00000000000E+00 0.  1.
          2   -1    0    0  501    0  0.00000000000E+00 -0.00000000000E+00 -0.65481103138E+03  0.65481103138E+03  0.00000000000E+00 0. -1.
         23    2    1    2    0    0 -0.20015782155E+02 -0.14348006171E+02 -0.34449627818E+03  0.35749747536E+03  0.92305267391E+02 0.  0.
         23    2    1    2    0    0  0.20015782155E+02  0.14348006171E+02 -0.29691511667E+03  0.31071319254E+03  0.88190729106E+02 0.  0.
          5    1    4    4  502    0  0.13960707118E+02 -0.33901090234E+02 -0.76672896664E+02  0.85117614776E+02  0.47000000000E+01 0. -1.
         -5    1    3    3    0  503 -0.14251082105E+02  0.33291772032E+02 -0.71603692747E+02  0.80377946237E+02  0.47000000000E+01 0.  1.
          5    1    3    3  503    0 -0.57647000499E+01 -0.47639778202E+02 -0.27289258544E+03  0.27711952912E+03  0.47000000000E+01 0. -1.
         -5    1    4    4    0  502  0.60550750370E+01  0.48249096404E+02 -0.22024222000E+03  0.22559557777E+03  0.47000000000E+01 0.  1.
<mgrwt>
<rscale>  0 0.94525893E+02</rscale>
<asrwt>0</asrwt>
<pdfrwt beam="1">  1        2 0.10074017E+00 0.95534074E+02</pdfrwt>
<pdfrwt beam="2">  1       -2 0.20614824E-02 0.95534074E+02</pdfrwt>
<totfact> 0.30464393E+04</totfact>
</mgrwt>
</event>
<event>
 8    1  0.2964543E-004  0.9378539E+02  0.7546771E-02  0.1294084E+00
          2   -1    0    0  501    0  0.00000000000E+00  0.00000000000E+00  0.22779423496E+02  0.22779423496E+02  0.00000000000E+00 0. -1.
         -2   -1    0    0    0  501 -0.00000000000E+00 -0.00000000000E+00 -0.38543591485E+03  0.38543591485E+03  0.00000000000E+00 0.  1.
         23    2    1    2    0    0 -0.75581666014E+01  0.14342983596E+02 -0.18793593518E+03  0.21003717340E+03  0.92373434586E+02 0.  0.
         23    2    1    2    0    0  0.75581666014E+01 -0.14342983596E+02 -0.17472055617E+03  0.19817816494E+03  0.92111157036E+02 0.  0.
          5    1    3    3  502    0  0.65736913404E+01 -0.33309562327E+02 -0.34289968624E+02  0.48483319900E+02  0.47000000000E+01 0. -1.
         -5    1    4    4    0  503 -0.19938690350E+02 -0.40638319333E+02 -0.13714328072E+03  0.14449703740E+03  0.47000000000E+01 0.  1.
          5    1    4    4  503    0  0.27496856952E+02  0.26295335737E+02 -0.37577275448E+02  0.53681127538E+02  0.47000000000E+01 0. -1.
         -5    1    3    3    0  502 -0.14131857942E+02  0.47652545923E+02 -0.15364596656E+03  0.16155385350E+03  0.47000000000E+01 0.  1.
<mgrwt>
<rscale>  0 0.93720739E+02</rscale>
<asrwt>0</asrwt>
<pdfrwt beam="1">  1        2 0.35045269E-02 0.93785385E+02</pdfrwt>
<pdfrwt beam="2">  1       -2 0.59297829E-01 0.93785385E+02</pdfrwt>
<totfact> 0.62596545E+03</totfact>
</mgrwt>
</event>
<event>
 8    1  0.2964543E-004  0.9565593E+02  0.7546771E-02  0.1290802E+00
          1   -1    0    0  501    0  0.00000000000E+00  0.00000000000E+00  0.64306460390E+02  0.64306460390E+02  0.00000000000E+00 0. -1.
         -1   -1    0    0    0  501 -0.00000000000E+00 -0.00000000000E+00 -0.16142774349E+03  0.16142774349E+03  0.00000000000E+00 0.  1.
         23    2    1    2    0    0 -0.23479145659E+02 -0.13670396648E+02 -0.73103525783E+01  0.95934863614E+02  0.91716447687E+02 0.  0.
         23    2    1    2    0    0  0.23479145659E+02  0.13670396648E+02 -0.89810930525E+02  0.12979934027E+03  0.89686763056E+02 0.  0.
          5    1    4    4  502    0  0.22276306567E+02 -0.16596716086E+02 -0.94660804300E+02  0.98764582163E+02  0.47000000000E+01 0. -1.
         -5    1    4    4    0  502  0.12028390922E+01  0.30267112734E+02  0.48498737745E+01  0.31034758107E+02  0.47000000000E+01 0.  1.
          5    1    3    3  503    0  0.33734118039E+02 -0.14798846845E+02  0.42084380348E+01  0.37373754676E+02  0.47000000000E+01 0. -1.
         -5    1    3    3    0  503 -0.57213263699E+02  0.11284501975E+01 -0.11518790613E+02  0.58561108938E+02  0.47000000000E+01 0.  1.
<mgrwt>
<rscale>  0 0.95166099E+02</rscale>
<asrwt>0</asrwt>
<pdfrwt beam="1">  1        1 0.98933018E-02 0.95655929E+02</pdfrwt>
<pdfrwt beam="2">  1       -1 0.24835037E-01 0.95655929E+02</pdfrwt>
<totfact> 0.83864260E+03</totfact>
</mgrwt>
</event>
<event>
 8    1  0.2964543E-004  0.9012147E+02  0.7546771E-02  0.1302737E+00
          1   -1    0    0  501    0  0.00000000000E+00  0.00000000000E+00  0.20368838752E+03  0.20368838752E+03  0.00000000000E+00 0. -1.
         -1   -1    0    0    0  501 -0.00000000000E+00 -0.00000000000E+00 -0.15812346087E+03  0.15812346087E+03  0.00000000000E+00 0.  1.
         23    2    1    2    0    0 -0.52192677404E+01 -0.23239163486E+02 -0.13375561274E+03  0.16111871371E+03  0.86610487187E+02 0.  0.
         23    2    1    2    0    0  0.52192677404E+01  0.23239163486E+02  0.17932053939E+03  0.20069313468E+03  0.86917081074E+02 0.  0.
          5    1    3    3  502    0 -0.27353199762E+02  0.45074928767E+01 -0.64145143622E+01  0.28840094032E+02  0.47000000000E+01 0. -1.
         -5    1    3    3    0  502  0.22133932022E+02 -0.27746656362E+02 -0.12734109838E+03  0.13227861968E+03  0.47000000000E+01 0.  1.
          5    1    4    4  503    0  0.35521559937E+02 -0.16887646930E+02  0.80134845914E+02  0.89390476947E+02  0.47000000000E+01 0. -1.
         -5    1    4    4    0  503 -0.30302292196E+02  0.40126810416E+02  0.99185693479E+02  0.11130265773E+03  0.47000000000E+01 0.  1.
<mgrwt>
<rscale>  0 0.90047460E+02</rscale>
<asrwt>0</asrwt>
<pdfrwt beam="1">  1        1 0.31336675E-01 0.90121465E+02</pdfrwt>
<pdfrwt beam="2">  1       -1 0.24326686E-01 0.90121465E+02</pdfrwt>
<totfact> 0.20038671E+03</totfact>
</mgrwt>
</event>
<event>
 8    1  0.2964543E-004  0.1171050E+03  0.7546771E-02  0.1248280E+00
          2   -1    0    0  501    0  0.00000000000E+00  0.00000000000E+00  0.31759193491E+03  0.31759193491E+03  0.00000000000E+00 0. -1.
         -2   -1    0    0    0  501 -0.00000000000E+00 -0.00000000000E+00 -0.43195311341E+02  0.43195311341E+02  0.00000000000E+00 0.  1.
         23    2    1    2    0    0 -0.55488863245E+02 -0.45942483787E+02  0.15265056857E+03  0.19239486779E+03  0.92324770827E+02 0.  0.
         23    2    1    2    0    0  0.55488863245E+02  0.45942483787E+02  0.12174605500E+03  0.16839237846E+03  0.91346403614E+02 0.  0.
          5    1    4    4  502    0  0.50479493691E+02 -0.10334497616E+02  0.88926940022E+02  0.10288377805E+03  0.47000000000E+01 0. -1.
         -5    1    4    4    0  502  0.50093695548E+01  0.56276981403E+02  0.32819114978E+02  0.65508600405E+02  0.47000000000E+01 0.  1.
          5    1    3    3  503    0 -0.15191542472E+02 -0.30103785381E+02  0.14402763073E+03  0.14799685561E+03  0.47000000000E+01 0. -1.
         -5    1    3    3    0  503 -0.40297320774E+02 -0.15838698406E+02  0.86229378365E+01  0.44398012181E+02  0.47000000000E+01 0.  1.
<mgrwt>
<rscale>  0 0.11691211E+03</rscale>
<asrwt>0</asrwt>
<pdfrwt beam="1">  1        2 0.48860296E-01 0.11710503E+03</pdfrwt>
<pdfrwt beam="2">  1       -2 0.66454327E-02 0.11710503E+03</pdfrwt>
<totfact> 0.12100870E+04</totfact>
</mgrwt>
</event>
<event>
 8    1  0.2964543E-004  0.1009707E+03  0.7546771E-02  0.1279821E+00
          3   -1    0    0  501    0  0.00000000000E+00  0.00000000000E+00  0.61302219840E+02  0.61302219840E+02  0.00000000000E+00 0. -1.
         -3   -1    0    0    0  501 -0.00000000000E+00 -0.00000000000E+00 -0.25382348313E+03  0.25382348313E+03  0.00000000000E+00 0.  1.
         23    2    1    2    0    0  0.10222719537E+02 -0.40228456807E+02 -0.21438020378E+01  0.10099348442E+03  0.92044854698E+02 0.  0.
         23    2    1    2    0    0 -0.10222719537E+02  0.40228456807E+02 -0.19037746125E+03  0.21413221855E+03  0.88804259672E+02 0.  0.
          5    1    3    3  502    0 -0.22863091767E+02  0.20854701654E+02 -0.20306958731E+01  0.31366435436E+02  0.47000000000E+01 0. -1.
         -5    1    4    4    0  503  0.26608606493E+02  0.22615503760E+02 -0.15781201418E+03  0.16169786879E+03  0.47000000000E+01 0.  1.
          5    1    4    4  503    0 -0.36831326030E+02  0.17612953047E+02 -0.32565447071E+02  0.52434349763E+02  0.47000000000E+01 0. -1.
         -5    1    3    3    0  502  0.33085811304E+02 -0.61083158462E+02 -0.11310616471E+00  0.69627048984E+02  0.47000000000E+01 0.  1.
<mgrwt>
<rscale>  0 0.10022627E+03</rscale>
<asrwt>0</asrwt>
<pdfrwt beam="1">  1        3 0.94311108E-02 0.10097073E+03</pdfrwt>
<pdfrwt beam="2">  1       -3 0.39049766E-01 0.10097073E+03</pdfrwt>
<totfact> 0.11578570E+03</totfact>
</mgrwt>
</event>
<event>
 8    1  0.2964543E-004  0.9312205E+02  0.7546771E-02  0.1296591E+00
         -2   -1    0    0    0  501 -0.00000000000E+00  0.00000000000E+00  0.43879634858E+02  0.43879634858E+02  0.00000000000E+00 0.  1.
          2   -1    0    0  501    0  0.00000000000E+00 -0.00000000000E+00 -0.26776482188E+03  0.26776482188E+03  0.00000000000E+00 0. -1.
         23    2    1    2    0    0 -0.29103910464E+01  0.74517402927E+01 -0.19312589222E+03  0.21357381425E+03  0.90841428207E+02 0.  0.
         23    2    1    2    0    0  0.29103910464E+01 -0.74517402927E+01 -0.30759294802E+02  0.98070642486E+02  0.92777787705E+02 0.  0.
          5    1    3    3  502    0  0.43513278431E+01 -0.30658642229E+02 -0.15785128601E+03  0.16092857077E+03  0.47000000000E+01 0. -1.
         -5    1    4    4    0  503 -0.32593374213E+02 -0.10259133607E+01 -0.47670052416E+02  0.57947428227E+02  0.47000000000E+01 0.  1.
          5    1    4    4  503    0  0.35503765259E+02 -0.64258269321E+01  0.16910757614E+02  0.40123214258E+02  0.47000000000E+01 0. -1.
         -5    1    3    3    0  502 -0.72617188895E+01  0.38110382522E+02 -0.35274606210E+02  0.52645243474E+02  0.47000000000E+01 0.  1.
<mgrwt>
<rscale>  0 0.92635998E+02</rscale>
<asrwt>0</asrwt>
<pdfrwt beam="1">  1        2 0.41194588E-01 0.93122053E+02</pdfrwt>
<pdfrwt beam="2">  1       -2 0.67507131E-02 0.93122053E+02</pdfrwt>
<totfact> 0.13851006E+04</totfact>
</mgrwt>
</event>
<event>
 8    1  0.2964543E-004  0.1162960E+03  0.7546771E-02  0.1250804E+00
         -1   -1    0    0    0  501 -0.00000000000E+00  0.00000000000E+00  0.78328635325E+02  0.78328635325E+02  0.00000000000E+00 0.  1.
          1   -1    0    0  501    0  0.00000000000E+00 -0.00000000000E+00 -0.18312537153E+03  0.18312537153E+03  0.00000000000E+00 0. -1.
         23    2    1    2    0    0 -0.66634149385E+02  0.84194515562E+01 -0.89616166077E+02  0.14417141454E+03  0.90792855002E+02 0.  0.
         23    2    1    2    0    0  0.66634149385E+02 -0.84194515562E+01 -0.15180570130E+02  0.11728259232E+03  0.94940822210E+02 0.  0.
          5    1    3    3  502    0 -0.85000077184E+02 -0.48231754618E+01 -0.51569621956E+02  0.99648341940E+02  0.47000000000E+01 0. -1.
         -5    1    3    3    0  502  0.18365927798E+02  0.13242627018E+02 -0.38046544121E+02  0.44523072600E+02  0.47000000000E+01 0.  1.
          5    1    4    4  503    0  0.93511109176E+01 -0.39115153248E+02 -0.30080815456E+02  0.50441886835E+02  0.47000000000E+01 0. -1.
         -5    1    4    4    0  503  0.57283038468E+02  0.30695701691E+02  0.14900245326E+02  0.66840705481E+02  0.47000000000E+01 0.  1.
<mgrwt>
<rscale>  0 0.11544651E+03</rscale>
<asrwt>0</asrwt>
<pdfrwt beam="1">  1        1 0.28173134E-01 0.11629599E+03</pdfrwt>
<pdfrwt beam="2">  1       -1 0.12050559E-01 0.11629599E+03</pdfrwt>
<totfact> 0.70090301E+03</totfact>
</mgrwt>
</event>
<event>
 8    1  0.2964543E-004  0.1017884E+03  0.7546771E-02  0.1276836E+00
          1   -1    0    0  501    0  0.00000000000E+00  0.00000000000E+00  0.68817914750E+03  0.68817914750E+03  0.00000000000E+00 0. -1.
         -1   -1    0    0    0  501 -0.00000000000E+00 -0.00000000000E+00 -0.29187408238E+02  0.29187408238E+02  0.00000000000E+00 0.  1.
         23    2    1    2    0    0 -0.20051635887E+02  0.37891437376E+02  0.79680149018E+02  0.12926638106E+03  0.92320322772E+02 0.  0.
         23    2    1    2    0    0  0.20051635887E+02 -0.37891437376E+02  0.57931159024E+03  0.58810017468E+03  0.91771824308E+02 0.  0.
          5    1    4    4  502    0 -0.33832350127E+02 -0.14726168891E-01  0.15843909789E+03  0.16207919629E+03  0.47000000000E+01 0. -1.
         -5    1    4    4    0  502  0.53883986014E+02 -0.37876711207E+02  0.42087249235E+03  0.42602097838E+03  0.47000000000E+01 0.  1.
          5    1    3    3  503    0 -0.45389771851E+02  0.48401698591E+02  0.31446946476E+02  0.73579591313E+02  0.47000000000E+01 0. -1.
         -5    1    3    3    0  503  0.25338135963E+02 -0.10510261215E+02  0.48233202542E+02  0.55686789747E+02  0.47000000000E+01 0.  1.
<mgrwt>
<rscale>  0 0.10166383E+03</rscale>
<asrwt>0</asrwt>
<pdfrwt beam="1">  1        1 0.10587370E+00 0.10178836E+03</pdfrwt>
<pdfrwt beam="2">  1       -1 0.44903710E-02 0.10178836E+03</pdfrwt>
<totfact> 0.56902119E+03</totfact>
</mgrwt>
</event>
<event>
 8    1  0.2964543E-004  0.1026510E+03  0.7546771E-02  0.1275581E+00
         -1   -1    0    0    0  501 -0.00000000000E+00  0.00000000000E+00  0.11551415042E+02  0.11551415042E+02  0.00000000000E+00 0.  1.
          1   -1    0    0  501    0  0.00000000000E+00 -0.00000000000E+00 -0.89994238903E+03  0.89994238903E+03  0.00000000000E+00 0. -1.
         23    2    1    2    0    0  0.79672845880E+01 -0.44894706543E+02 -0.42618633104E+03  0.43802748255E+03  0.90301021080E+02 0.  0.
         23    2    1    2    0    0 -0.79672845880E+01  0.44894706543E+02 -0.46220464295E+03  0.47346632152E+03  0.91968545438E+02 0.  0.
          5    1    4    4  502    0  0.20578526392E+02  0.55615867651E+02 -0.39578660839E+03  0.40023209499E+03  0.47000000000E+01 0. -1.
         -5    1    3    3    0  503  0.38571511167E+02 -0.54459031076E+02 -0.32364936806E+03  0.33049137808E+03  0.47000000000E+01 0.  1.
          5    1    3    3  503    0 -0.30604226579E+02  0.95643245334E+01 -0.10253696298E+03  0.10753610447E+03  0.47000000000E+01 0. -1.
         -5    1    4    4    0  502 -0.28545810980E+02 -0.10721161108E+02 -0.66418034561E+02  0.73234226527E+02  0.47000000000E+01 0.  1.
<mgrwt>
<rscale>  0 0.10227612E+03</rscale>
<asrwt>0</asrwt>
<pdfrwt beam="1">  1        1 0.13845274E+00 0.10265099E+03</pdfrwt>
<pdfrwt beam="2">  1       -1 0.17771400E-02 0.10265099E+03</pdfrwt>
<totfact> 0.14582167E+04</totfact>
</mgrwt>
</event>
<event>
 8    1  0.2964543E-004  0.1001715E+03  0.7546771E-02  0.1280937E+00
          1   -1    0    0  501    0  0.00000000000E+00  0.00000000000E+00  0.12624400450E+02  0.12624400450E+02  0.00000000000E+00 0. -1.
         -1   -1    0    0    0  501 -0.00000000000E+00 -0.00000000000E+00 -0.78224506755E+03  0.78224506755E+03  0.00000000000E+00 0.  1.
         23    2    1    2    0    0  0.17106919298E+02 -0.34744831315E+02 -0.35944807031E+03  0.37264216332E+03  0.90329489332E+02 0.  0.
         23    2    1    2    0    0 -0.17106919298E+02  0.34744831315E+02 -0.41017259678E+03  0.42222730468E+03  0.92382290889E+02 0.  0.
          5    1    4    4  502    0 -0.18898836790E+02  0.64829014774E+02 -0.31849239588E+03  0.32560630126E+03  0.47000000000E+01 0. -1.
         -5    1    4    4    0  502  0.17919174919E+01 -0.30084183459E+02 -0.91680200908E+02  0.96621003416E+02  0.47000000000E+01 0.  1.
          5    1    3    3  503    0  0.23251810162E+02  0.91712880963E+01 -0.26532972209E+02  0.36753881637E+02  0.47000000000E+01 0. -1.
         -5    1    3    3    0  503 -0.61448908644E+01 -0.43916119411E+02 -0.33291509810E+03  0.33588828168E+03  0.47000000000E+01 0.  1.
<mgrwt>
<rscale>  0 0.99695668E+02</rscale>
<asrwt>0</asrwt>
<pdfrwt beam="1">  1        1 0.19422150E-02 0.10017154E+03</pdfrwt>
<pdfrwt beam="2">  1       -1 0.12034542E+00 0.10017154E+03</pdfrwt>
<totfact> 0.38831788E+03</totfact>
</mgrwt>
</event>
<event>
 8    1  0.2964543E-004  0.9728575E+02  0.7546771E-02  0.1286730E+00
          2   -1    0    0  501    0  0.00000000000E+00  0.00000000000E+00  0.25823977080E+02  0.25823977080E+02  0.00000000000E+00 0. -1.
         -2   -1    0    0    0  501 -0.00000000000E+00 -0.00000000000E+00 -0.41313358501E+03  0.41313358501E+03  0.00000000000E+00 0.  1.
         23    2    1    2    0    0 -0.33661681277E+02  0.93545381158E+01 -0.26968406601E+03  0.28631325480E+03  0.89583303364E+02 0.  0.
         23    2    1    2    0    0  0.33661681277E+02 -0.93545381158E+01 -0.11762554191E+03  0.15264430729E+03  0.90795926493E+02 0.  0.
          5    1    3    3  502    0 -0.33391990322E+02  0.36871411928E+02 -0.78167328717E+02  0.92772556901E+02  0.47000000000E+01 0. -1.
         -5    1    3    3    0  502 -0.26969095459E+00 -0.27516873812E+02 -0.19151673730E+03  0.19354069790E+03  0.47000000000E+01 0.  1.
          5    1    4    4  503    0 -0.10315933310E+01  0.30909544565E+02 -0.10553094731E+02  0.33013965809E+02  0.47000000000E+01 0. -1.
         -5    1    4    4    0  503  0.34693274608E+02 -0.40264082681E+02 -0.10707244718E+03  0.11963034148E+03  0.47000000000E+01 0.  1.
<mgrwt>
<rscale>  0 0.97001820E+02</rscale>
<asrwt>0</asrwt>
<pdfrwt beam="1">  1        2 0.39729198E-02 0.97285746E+02</pdfrwt>
<pdfrwt beam="2">  1       -2 0.63559008E-01 0.97285746E+02</pdfrwt>
<totfact> 0.46195198E+03</totfact>
</mgrwt>
</event>
<event>
 8    1  0.2964543E-004  0.1163659E+03  0.7546771E-02  0.1249231E+00
         -1   -1    0    0    0  501 -0.00000000000E+00  0.00000000000E+00  0.23161605549E+03  0.23161605549E+03  0.00000000000E+00 0.  1.
          1   -1    0    0  501    0  0.00000000000E+00 -0.00000000000E+00 -0.64173022422E+02  0.64173022422E+02  0.00000000000E+00 0. -1.
         23    2    1    2    0    0 -0.83241052775E+01  0.71239891080E+02  0.12791780953E+03  0.17292773023E+03  0.91633078514E+02 0.  0.
         23    2    1    2    0    0  0.83241052775E+01 -0.71239891080E+02  0.39525223534E+02  0.12286134768E+03  0.91587415337E+02 0.  0.
          5    1    4    4  502    0  0.32703099066E+02 -0.76795114332E+02  0.10489483574E+02  0.84256166180E+02  0.47000000000E+01 0. -1.
         -5    1    4    4    0  502 -0.24378993788E+02  0.55552232521E+01  0.29035739959E+02  0.38605181498E+02  0.47000000000E+01 0.  1.
          5    1    3    3  503    0  0.26499788287E+02  0.19517904002E+02  0.31834991320E+01  0.33397784696E+02  0.47000000000E+01 0. -1.
         -5    1    3    3    0  503 -0.34823893564E+02  0.51721987078E+02  0.12473431040E+03  0.13952994554E+03  0.47000000000E+01 0.  1.
<mgrwt>
<rscale>  0 0.11635696E+03</rscale>
<asrwt>0</asrwt>
<pdfrwt beam="1">  1        1 0.98727728E-02 0.11636595E+03</pdfrwt>
<pdfrwt beam="2">  1       -1 0.35633239E-01 0.11636595E+03</pdfrwt>
<totfact> 0.46768695E+03</totfact>
</mgrwt>
</event>
<event>
 8    1  0.2964543E-004  0.1003577E+03  0.7546771E-02  0.1281879E+00
         -2   -1    0    0    0  501 -0.00000000000E+00  0.00000000000E+00  0.23983187915E+02  0.23983187915E+02  0.00000000000E+00 0.  1.
          2   -1    0    0  501    0  0.00000000000E+00 -0.00000000000E+00 -0.43816779690E+03  0.43816779690E+03  0.00000000000E+00 0. -1.
         23    2    1    2    0    0 -0.12233608894E+02  0.46753447218E+02 -0.27775182295E+03  0.29532651375E+03  0.87955264518E+02 0.  0.
         23    2    1    2    0    0  0.12233608894E+02 -0.46753447218E+02 -0.13643278603E+03  0.16682447107E+03  0.82951510104E+02 0.  0.
          5    1    3    3  502    0  0.34203965585E+02  0.91558208527E+01 -0.15029826811E+03  0.15448430249E+03  0.47000000000E+01 0. -1.
         -5    1    4    4    0  503 -0.50794194884E+00 -0.20045770995E+02  0.58586130085E+01  0.21412713191E+02  0.47000000000E+01 0.  1.
          5    1    4    4  503    0  0.12741550843E+02 -0.26707676222E+02 -0.14229139904E+03  0.14541175788E+03  0.47000000000E+01 0. -1.
         -5    1    3    3    0  502 -0.46437574479E+02  0.37597626365E+02 -0.12745355484E+03  0.14084221126E+03  0.47000000000E+01 0.  1.
<mgrwt>
<rscale>  0 0.99250769E+02</rscale>
<asrwt>0</asrwt>
<pdfrwt beam="1">  1        2 0.67410434E-01 0.10035773E+03</pdfrwt>
<pdfrwt beam="2">  1       -2 0.36897210E-02 0.10035773E+03</pdfrwt>
<totfact> 0.20436310E+04</totfact>
</mgrwt>
</event>
<event>
 8    1  0.2964543E-004  0.1215589E+03  0.7546771E-02  0.1241862E+00
         -2   -1    0    0    0  501 -0.00000000000E+00  0.00000000000E+00  0.18916622388E+03  0.18916622388E+03  0.00000000000E+00 0.  1.
          2   -1    0    0  501    0  0.00000000000E+00 -0.00000000000E+00 -0.13312068787E+03  0.13312068787E+03  0.00000000000E+00 0. -1.
         23    2    1    2    0    0 -0.13766321882E+01  0.78944155426E+02 -0.77673722003E+02  0.14157331699E+03  0.88180055574E+02 0.  0.
         23    2    1    2    0    0  0.13766321882E+01 -0.78944155426E+02  0.13371925801E+03  0.18071359477E+03  0.92425583996E+02 0.  0.
          5    1    4    4  502    0 -0.41190442602E+02 -0.40895767434E+02  0.95478626579E+02  0.11183637373E+03  0.47000000000E+01 0.  1.
         -5    1    4    4    0  502  0.42567074790E+02 -0.38048387993E+02  0.38240631435E+02  0.68877221035E+02  0.47000000000E+01 0. -1.
          5    1    3    3  503    0 -0.44234852653E+02  0.42759219118E+02 -0.46220483906E+02  0.77094073321E+02  0.47000000000E+01 0. -1.
         -5    1    3    3    0  503  0.42858220465E+02  0.36184936309E+02 -0.31453238097E+02  0.64479243667E+02  0.47000000000E+01 0.  1.
<mgrwt>
<rscale>  0 0.12075191E+03</rscale>
<asrwt>0</asrwt>
<pdfrwt beam="1">  1        2 0.20480106E-01 0.12155889E+03</pdfrwt>
<pdfrwt beam="2">  1       -2 0.29102496E-01 0.12155889E+03</pdfrwt>
<totfact> 0.28017383E+03</totfact>
</mgrwt>
</event>
<event>
 8    1  0.2964543E-004  0.1421862E+03  0.7546771E-02  0.1210635E+00
         -2   -1    0    0    0  501 -0.00000000000E+00  0.00000000000E+00  0.30446510870E+03  0.30446510870E+03  0.00000000000E+00 0.  1.
          2   -1    0    0  501    0  0.00000000000E+00 -0.00000000000E+00 -0.81164268027E+02  0.81164268027E+02  0.00000000000E+00 0. -1.
         23    2    1    2    0    0  0.10723080195E+03 -0.19106889351E+02  0.28776199833E+02  0.14506889949E+03  0.91396924537E+02 0.  0.
         23    2    1    2    0    0 -0.10723080195E+03  0.19106889351E+02  0.19452464084E+03  0.24056047723E+03  0.90365863052E+02 0.  0.
          5    1    3    3  502    0  0.87574102617E+02  0.80702907757E+01 -0.15396659605E+02  0.89406376558E+02  0.47000000000E+01 0. -1.
         -5    1    4    4    0  503 -0.53983908232E+02  0.20344321758E+02  0.17385339829E+03  0.18323549840E+03  0.47000000000E+01 0.  1.
          5    1    4    4  503    0 -0.53246893722E+02 -0.12374324074E+01  0.20671242546E+02  0.57324978835E+02  0.47000000000E+01 0. -1.
         -5    1    3    3    0  502  0.19656699337E+02 -0.27177180127E+02  0.44172859438E+02  0.55662522934E+02  0.47000000000E+01 0.  1.
<mgrwt>
<rscale>  0 0.14202077E+03</rscale>
<asrwt>0</asrwt>
<pdfrwt beam="1">  1        2 0.12486811E-01 0.14218620E+03</pdfrwt>
<pdfrwt beam="2">  1       -2 0.46840785E-01 0.14218620E+03</pdfrwt>
<totfact> 0.20645309E+03</totfact>
</mgrwt>
</event>
<event>
 8    1  0.2964543E-004  0.9538458E+02  0.7546771E-02  0.1290760E+00
         -1   -1    0    0    0  501 -0.00000000000E+00  0.00000000000E+00  0.25875515569E+02  0.25875515569E+02  0.00000000000E+00 0.  1.
          1   -1    0    0  501    0  0.00000000000E+00 -0.00000000000E+00 -0.36467783830E+03  0.36467783830E+03  0.00000000000E+00 0. -1.
         23    2    1    2    0    0  0.26783449222E+02 -0.44220195697E+01 -0.12918720834E+03  0.16058503529E+03  0.91440206416E+02 0.  0.
         23    2    1    2    0    0 -0.26783449222E+02  0.44220195697E+01 -0.20961511438E+03  0.22996831858E+03  0.90609182550E+02 0.  0.
          5    1    3    3  502    0 -0.23585585475E+02  0.21693247305E+02 -0.76257429222E+02  0.82850240388E+02  0.47000000000E+01 0. -1.
         -5    1    3    3    0  502  0.50369034697E+02 -0.26115266874E+02 -0.52929779121E+02  0.77734794899E+02  0.47000000000E+01 0.  1.
          5    1    4    4  503    0 -0.15864269786E+02  0.44122213428E+02 -0.70396065353E+02  0.84712105338E+02  0.47000000000E+01 0. -1.
         -5    1    4    4    0  503 -0.10919179436E+02 -0.39700193858E+02 -0.13921904903E+03  0.14525621324E+03  0.47000000000E+01 0.  1.
<mgrwt>
<rscale>  0 0.95184866E+02</rscale>
<asrwt>0</asrwt>
<pdfrwt beam="1">  1        1 0.56104281E-01 0.95384583E+02</pdfrwt>
<pdfrwt beam="2">  1       -1 0.39808487E-02 0.95384583E+02</pdfrwt>
<totfact> 0.15400316E+04</totfact>
</mgrwt>
</event>
<event>
 8    1  0.2964543E-004  0.9904712E+02  0.7546771E-02  0.1285233E+00
          1   -1    0    0  501    0  0.00000000000E+00  0.00000000000E+00  0.32768472338E+03  0.32768472338E+03  0.00000000000E+00 0. -1.
         -1   -1    0    0    0  501 -0.00000000000E+00 -0.00000000000E+00 -0.58821803419E+02  0.58821803419E+02  0.00000000000E+00 0.  1.
         23    2    1    2    0    0 -0.35012417822E+01  0.35746150161E+02  0.27528576797E+03  0.29256210505E+03  0.92305391620E+02 0.  0.
         23    2    1    2    0    0  0.35012417822E+01 -0.35746150161E+02 -0.64228480067E+01  0.93944421745E+02  0.86569367880E+02 0.  0.
          5    1    3    3  502    0  0.79625738111E+01 -0.23527706850E+02  0.26952583549E+02  0.36952501015E+02  0.47000000000E+01 0. -1.
         -5    1    3    3    0  502 -0.11463815593E+02  0.59273857011E+02  0.24833318442E+03  0.25560960404E+03  0.47000000000E+01 0.  1.
          5    1    4    4  503    0  0.13413420562E+02 -0.53121950783E+02  0.21697336961E+02  0.59116207062E+02  0.47000000000E+01 0. -1.
         -5    1    4    4    0  503 -0.99121787803E+01  0.17375800622E+02 -0.28120184967E+02  0.34828214683E+02  0.47000000000E+01 0.  1.
<mgrwt>
<rscale>  0 0.97688801E+02</rscale>
<asrwt>0</asrwt>
<pdfrwt beam="1">  1        1 0.50413033E-01 0.99047116E+02</pdfrwt>
<pdfrwt beam="2">  1       -1 0.90495084E-02 0.99047116E+02</pdfrwt>
<totfact> 0.52380797E+03</totfact>
</mgrwt>
</event>
<event>
 8    1  0.2964543E-004  0.9439777E+02  0.7546771E-02  0.1294102E+00
          2   -1    0    0  501    0  0.00000000000E+00  0.00000000000E+00  0.10688074979E+04  0.10688074979E+04  0.00000000000E+00 0. -1.
         -2   -1    0    0    0  501 -0.00000000000E+00 -0.00000000000E+00 -0.81226168597E+01  0.81226168597E+01  0.00000000000E+00 0.  1.
         23    2    1    2    0    0 -0.31801586312E+01  0.48854869560E+00  0.56666779059E+03  0.57447656461E+03  0.94342918685E+02 0.  0.
         23    2    1    2    0    0  0.31801586312E+01 -0.48854869560E+00  0.49401709048E+03  0.50245355017E+03  0.91631502836E+02 0.  0.
          5    1    4    4  502    0  0.37666154660E+02 -0.22505640480E+02  0.34638539638E+03  0.34918501670E+03  0.47000000000E+01 0. -1.
         -5    1    3    3    0  503 -0.10671591068E+02  0.45140525679E+02  0.22414634625E+03  0.22894371459E+03  0.47000000000E+01 0.  1.
          5    1    3    3  503    0  0.74914324372E+01 -0.44651976983E+02  0.34252144434E+03  0.34553285002E+03  0.47000000000E+01 0. -1.
         -5    1    4    4    0  502 -0.34485996029E+02  0.22017091784E+02  0.14763169409E+03  0.15326853348E+03  0.47000000000E+01 0.  1.
<mgrwt>
<rscale>  0 0.93712901E+02</rscale>
<asrwt>0</asrwt>
<pdfrwt beam="1">  1        2 0.16443181E+00 0.94397767E+02</pdfrwt>
<pdfrwt beam="2">  1       -2 0.12496342E-02 0.94397767E+02</pdfrwt>
<totfact> 0.33665575E+04</totfact>
</mgrwt>
</event>
<event>
 8    1  0.2964543E-004  0.1059807E+03  0.7546771E-02  0.1269035E+00
          3   -1    0    0  501    0  0.00000000000E+00  0.00000000000E+00  0.12412485397E+03  0.12412485397E+03  0.00000000000E+00 0. -1.
         -3   -1    0    0    0  501 -0.00000000000E+00 -0.00000000000E+00 -0.10216133565E+03  0.10216133565E+03  0.00000000000E+00 0.  1.
         23    2    1    2    0    0 -0.27450131885E+02 -0.42859493886E+02 -0.29642404771E+02  0.10840881605E+03  0.91012929187E+02 0.  0.
         23    2    1    2    0    0  0.27450131885E+02  0.42859493886E+02  0.51605923099E+02  0.11787737357E+03  0.92959442475E+02 0.  0.
          5    1    4    4  502    0  0.52270796110E+02 -0.36747720302E+01  0.30972331861E+02  0.61050105785E+02  0.47000000000E+01 0. -1.
         -5    1    4    4    0  502 -0.24820664226E+02  0.46534265916E+02  0.20633591238E+02  0.56827267789E+02  0.47000000000E+01 0.  1.
          5    1    3    3  503    0  0.31047951482E+02 -0.16661758734E+02  0.41638939926E+01  0.35791304929E+02  0.47000000000E+01 0. -1.
         -5    1    3    3    0  503 -0.58498083367E+02 -0.26197735152E+02 -0.33806298764E+02  0.72617511116E+02  0.47000000000E+01 0.  1.
<mgrwt>
<rscale>  0 0.10555230E+03</rscale>
<asrwt>0</asrwt>
<pdfrwt beam="1">  1        3 0.19096132E-01 0.10598068E+03</pdfrwt>
<pdfrwt beam="2">  1       -3 0.15717128E-01 0.10598068E+03</pdfrwt>
<totfact> 0.18292717E+03</totfact>
</mgrwt>
</event>
<event>
 8    1  0.2964543E-004  0.1527020E+03  0.7546771E-02  0.1197287E+00
         -1   -1    0    0    0  501 -0.00000000000E+00  0.00000000000E+00  0.14570364004E+03  0.14570364004E+03  0.00000000000E+00 0.  1.
          1   -1    0    0  501    0  0.00000000000E+00 -0.00000000000E+00 -0.47308180700E+03  0.47308180700E+03  0.00000000000E+00 0. -1.
         23    2    1    2    0    0 -0.84863571477E+02 -0.86931076642E+02  0.88181214808E+02  0.17605810426E+03  0.91987453385E+02 0.  0.
         23    2    1    2    0    0  0.84863571477E+02  0.86931076642E+02 -0.41555938177E+03  0.44272734278E+03  0.92515201004E+02 0.  0.
          5    1    3    3  502    0 -0.31278190690E+02 -0.37916650951E+02 -0.13340978699E+02  0.51147525305E+02  0.47000000000E+01 0. -1.
         -5    1    3    3    0  502 -0.53585380786E+02 -0.49014425691E+02  0.10152219351E+03  0.12491057895E+03  0.47000000000E+01 0.  1.
          5    1    4    4  503    0  0.17992809731E+02  0.54226700757E+02 -0.29827912634E+03  0.30373805078E+03  0.47000000000E+01 0. -1.
         -5    1    4    4    0  503  0.66870761745E+02  0.32704375885E+02 -0.11728025543E+03  0.13898929200E+03  0.47000000000E+01 0.  1.
<mgrwt>
<rscale>  0 0.15262215E+03</rscale>
<asrwt>0</asrwt>
<pdfrwt beam="1">  1        1 0.72781815E-01 0.15270200E+03</pdfrwt>
<pdfrwt beam="2">  1       -1 0.22415945E-01 0.15270200E+03</pdfrwt>
<totfact> 0.81383538E+02</totfact>
</mgrwt>
</event>
<event>
 8    1  0.2964543E-004  0.1123641E+03  0.7546771E-02  0.1256650E+00
          2   -1    0    0  501    0  0.00000000000E+00  0.00000000000E+00  0.45748169910E+03  0.45748169910E+03  0.00000000000E+00 0. -1.
         -2   -1    0    0    0  501 -0.00000000000E+00 -0.00000000000E+00 -0.29922522782E+02  0.29922522782E+02  0.00000000000E+00 0.  1.
         23    2    1    2    0    0  0.37450665984E+02 -0.54166498123E+02  0.28554116295E+03  0.30685411355E+03  0.91044655852E+02 0.  0.
         23    2    1    2    0    0 -0.37450665984E+02  0.54166498123E+02  0.14201801336E+03  0.18055010833E+03  0.89959232976E+02 0.  0.
          5    1    3    3  502    0  0.28095101154E+02 -0.21384547085E+02  0.26370045227E+03  0.26609519366E+03  0.47000000000E+01 0. -1.
         -5    1    4    4    0  503 -0.64363107476E+02  0.23990536332E+02  0.10481239607E+03  0.12540288596E+03  0.47000000000E+01 0.  1.
          5    1    4    4  503    0  0.26912441492E+02  0.30175961791E+02  0.37205617292E+02  0.55147222370E+02  0.47000000000E+01 0. -1.
         -5    1    3    3    0  502  0.93555648302E+01 -0.32781951038E+02  0.21840710684E+02  0.40758919886E+02  0.47000000000E+01 0.  1.
<mgrwt>
<rscale>  0 0.11214404E+03</rscale>
<asrwt>0</asrwt>
<pdfrwt beam="1">  1        2 0.70381795E-01 0.11236410E+03</pdfrwt>
<pdfrwt beam="2">  1       -2 0.46034654E-02 0.11236410E+03</pdfrwt>
<totfact> 0.14215505E+04</totfact>
</mgrwt>
</event>
<event>
 8    1  0.2964543E-004  0.9723738E+02  0.7546771E-02  0.1286635E+00
         -1   -1    0    0    0  501 -0.00000000000E+00  0.00000000000E+00  0.66218397424E+02  0.66218397424E+02  0.00000000000E+00 0.  1.
          1   -1    0    0  501    0  0.00000000000E+00 -0.00000000000E+00 -0.15433412772E+03  0.15433412772E+03  0.00000000000E+00 0. -1.
         23    2    1    2    0    0  0.24165590420E+02  0.27658021676E+02 -0.12302100361E+02  0.97252833746E+02  0.89206670574E+02 0.  0.
         23    2    1    2    0    0 -0.24165590420E+02 -0.27658021676E+02 -0.75813629934E+02  0.12329969140E+03  0.90034246215E+02 0.  0.
          5    1    4    4  502    0 -0.21037001839E+02 -0.52208918449E+02 -0.16478796005E+02  0.58838485108E+02  0.47000000000E+01 0. -1.
         -5    1    3    3    0  503  0.48289671811E+02  0.43443027838E+02 -0.17835656396E+02  0.67523253109E+02  0.47000000000E+01 0.  1.
          5    1    3    3  503    0 -0.24124081391E+02 -0.15785006162E+02  0.55335560348E+01  0.29729580637E+02  0.47000000000E+01 0. -1.
         -5    1    4    4    0  502 -0.31285885816E+01  0.24550896773E+02 -0.59334833929E+02  0.64461206290E+02  0.47000000000E+01 0.  1.
<mgrwt>
<rscale>  0 0.97045368E+02</rscale>
<asrwt>0</asrwt>
<pdfrwt beam="1">  1        1 0.23743712E-01 0.97237377E+02</pdfrwt>
<pdfrwt beam="2">  1       -1 0.10187446E-01 0.97237377E+02</pdfrwt>
<totfact> 0.11037489E+04</totfact>
</mgrwt>
</event>
<event>
 8    1  0.5112555E-004  0.1214238E+03  0.7546771E-02  0.1241185E+00
          1   -1    0    0  501    0  0.00000000000E+00  0.00000000000E+00  0.15291610001E+03  0.15291610001E+03  0.00000000000E+00 0. -1.
         -1   -1    0    0    0  501 -0.00000000000E+00 -0.00000000000E+00 -0.21434503882E+03  0.21434503882E+03  0.00000000000E+00 0.  1.
         23    2    1    2    0    0 -0.61120405140E+02 -0.50076409482E+02  0.10590200061E+03  0.16111791390E+03  0.92197601576E+02 0.  0.
         23    2    1    2    0    0  0.61120405140E+02  0.50076409482E+02 -0.16733093941E+03  0.20614322493E+03  0.90840713279E+02 0.  0.
          5    1    4    4  502    0 -0.23469728193E+02  0.52663133449E+01 -0.36445210466E+02  0.43919307412E+02  0.47000000000E+01 0. -1.
         -5    1    4    4    0  502  0.84590133333E+02  0.44810096137E+02 -0.13088572895E+03  0.16222391752E+03  0.47000000000E+01 0.  1.
          5    1    3    3  503    0 -0.80895211154E+02 -0.57681582794E+02  0.82767667993E+02  0.12939774745E+03  0.47000000000E+01 0. -1.
         -5    1    3    3    0  503  0.19774806013E+02  0.76051733121E+01  0.23134332612E+02  0.31720166446E+02  0.47000000000E+01 0.  1.
<mgrwt>
<rscale>  0 0.12116626E+03</rscale>
<asrwt>0</asrwt>
<pdfrwt beam="1">  1        1 0.23525554E-01 0.12142384E+03</pdfrwt>
<pdfrwt beam="2">  1       -1 0.32976160E-01 0.12142384E+03</pdfrwt>
<totfact> 0.17484054E+03</totfact>
</mgrwt>
</event>
<event>
 8    1  0.2964543E-004  0.1774141E+03  0.7546771E-02  0.1170355E+00
          2   -1    0    0  501    0  0.00000000000E+00  0.00000000000E+00  0.18231512671E+03  0.18231512671E+03  0.00000000000E+00 0. -1.
         -2   -1    0    0    0  501 -0.00000000000E+00 -0.00000000000E+00 -0.17257734392E+03  0.17257734392E+03  0.00000000000E+00 0.  1.
         23    2    1    2    0    0  0.15116425636E+03  0.20422048155E+02  0.73905418633E+01  0.17756801356E+03  0.90598492697E+02 0.  0.
         23    2    1    2    0    0 -0.15116425636E+03 -0.20422048155E+02  0.23472409187E+01  0.17732445707E+03  0.90392262306E+02 0.  0.
          5    1    4    4  502    0 -0.17763522394E+02  0.20989012024E+02 -0.21915172237E+02  0.35474584251E+02  0.47000000000E+01 0. -1.
         -5    1    3    3    0  503  0.43092135791E+02 -0.26140347538E+02 -0.23508645640E+02  0.55812152406E+02  0.47000000000E+01 0.  1.
          5    1    3    3  503    0  0.10807212057E+03  0.46562395692E+02  0.30899187503E+02  0.12175586115E+03  0.47000000000E+01 0. -1.
         -5    1    4    4    0  502 -0.13340073396E+03 -0.41411060179E+02  0.24262413156E+02  0.14184987282E+03  0.47000000000E+01 0.  1.
<mgrwt>
<rscale>  0 0.17738783E+03</rscale>
<asrwt>0</asrwt>
<pdfrwt beam="1">  1        2 0.28048481E-01 0.17741415E+03</pdfrwt>
<pdfrwt beam="2">  1       -2 0.26550361E-01 0.17741415E+03</pdfrwt>
<totfact> 0.23673471E+03</totfact>
</mgrwt>
</event>
<event>
 8    1  0.7697811E-004  0.1038123E+03  0.7546771E-02  0.1273826E+00
         -1   -1    0    0    0  501 -0.00000000000E+00  0.00000000000E+00  0.14609276532E+03  0.14609276532E+03  0.00000000000E+00 0.  1.
          1   -1    0    0  501    0  0.00000000000E+00 -0.00000000000E+00 -0.41463109665E+03  0.41463109665E+03  0.00000000000E+00 0. -1.
         23    2    1    2    0    0 -0.20063437212E+02 -0.39705625673E+02 -0.38886392112E+03  0.40180491240E+03  0.90845804818E+02 0.  0.
         23    2    1    2    0    0  0.20063437212E+02  0.39705625673E+02  0.12032558980E+03  0.15891894957E+03  0.93797157474E+02 0.  0.
          5    1    3    3  502    0  0.19044983312E+02 -0.54935120307E+02 -0.24658505373E+03  0.25339072113E+03  0.47000000000E+01 0. -1.
         -5    1    4    4    0  503 -0.20872222317E+02  0.54443787436E+02  0.55014235518E+02  0.80302128020E+02  0.47000000000E+01 0.  1.
          5    1    4    4  503    0  0.40935659529E+02 -0.14738161763E+02  0.65311354279E+02  0.78616821552E+02  0.47000000000E+01 0. -1.
         -5    1    3    3    0  502 -0.39108420524E+02  0.15229494633E+02 -0.14227886739E+03  0.14841419127E+03  0.47000000000E+01 0.  1.
<mgrwt>
<rscale>  0 0.10314110E+03</rscale>
<asrwt>0</asrwt>
<pdfrwt beam="1">  1        1 0.63789399E-01 0.10381226E+03</pdfrwt>
<pdfrwt beam="2">  1       -1 0.22475810E-01 0.10381226E+03</pdfrwt>
<totfact> 0.95489465E+02</totfact>
</mgrwt>
</event>
<event>
 8    1  0.2964543E-004  0.9295170E+02  0.7546771E-02  0.1297622E+00
          1   -1    0    0  501    0  0.00000000000E+00  0.00000000000E+00  0.38898350162E+03  0.38898350162E+03  0.00000000000E+00 0. -1.
         -1   -1    0    0    0  501 -0.00000000000E+00 -0.00000000000E+00 -0.21536670699E+02  0.21536670699E+02  0.00000000000E+00 0.  1.
         23    2    1    2    0    0  0.63814726098E+01 -0.10659175056E+02  0.17859816118E+03  0.20133882240E+03  0.92117734580E+02 0.  0.
         23    2    1    2    0    0 -0.63814726098E+01  0.10659175056E+02  0.18884866974E+03  0.20918134992E+03  0.89099247380E+02 0.  0.
          5    1    3    3  502    0  0.35990087903E+02 -0.32047495379E+02  0.13933166894E+03  0.14750502485E+03  0.47000000000E+01 0. -1.
         -5    1    3    3    0  502 -0.29608615293E+02  0.21388320323E+02  0.39266492239E+02  0.53833797549E+02  0.47000000000E+01 0.  1.
          5    1    4    4  503    0  0.21955950787E+02  0.41493637443E+02  0.87230893755E+02  0.99172095614E+02  0.47000000000E+01 0. -1.
         -5    1    4    4    0  503 -0.28337423397E+02 -0.30834462387E+02  0.10161777599E+03  0.11000925430E+03  0.47000000000E+01 0.  1.
<mgrwt>
<rscale>  0 0.92194880E+02</rscale>
<asrwt>0</asrwt>
<pdfrwt beam="1">  1        1 0.59843611E-01 0.92951698E+02</pdfrwt>
<pdfrwt beam="2">  1       -1 0.33133342E-02 0.92951698E+02</pdfrwt>
<totfact> 0.18505426E+04</totfact>
</mgrwt>
</event>
<event>
 8    1  0.2964543E-004  0.1026946E+03  0.7546771E-02  0.1275090E+00
         -1   -1    0    0    0  501 -0.00000000000E+00  0.00000000000E+00  0.18405469623E+02  0.18405469623E+02  0.00000000000E+00 0.  1.
          1   -1    0    0  501    0  0.00000000000E+00 -0.00000000000E+00 -0.73974268340E+03  0.73974268340E+03  0.00000000000E+00 0. -1.
         23    2    1    2    0    0 -0.34647585425E+02 -0.26296095170E+02 -0.17761741124E+03  0.20481515846E+03  0.92246217059E+02 0.  0.
         23    2    1    2    0    0  0.34647585425E+02  0.26296095170E+02 -0.54371980254E+03  0.55333299456E+03  0.93028164595E+02 0.  0.
          5    1    4    4  502    0 -0.13997508175E+02  0.46479727243E+02 -0.30053811668E+03  0.30446928394E+03  0.47000000000E+01 0. -1.
         -5    1    3    3    0  503 -0.21085502734E+02 -0.54582566337E+02 -0.63961689298E+02  0.86816142919E+02  0.47000000000E+01 0.  1.
          5    1    3    3  503    0 -0.13562082691E+02  0.28286471167E+02 -0.11365572195E+03  0.11799901554E+03  0.47000000000E+01 0. -1.
         -5    1    4    4    0  502  0.48645093600E+02 -0.20183632074E+02 -0.24318168585E+03  0.24886371063E+03  0.47000000000E+01 0.  1.
<mgrwt>
<rscale>  0 0.10251718E+03</rscale>
<asrwt>0</asrwt>
<pdfrwt beam="1">  1        1 0.11380657E+00 0.10269459E+03</pdfrwt>
<pdfrwt beam="2">  1       -1 0.28316106E-02 0.10269459E+03</pdfrwt>
<totfact> 0.10035590E+04</totfact>
</mgrwt>
</event>
<event>
 8    1  0.2964543E-004  0.1221408E+03  0.7546771E-02  0.1240495E+00
         -3   -1    0    0    0  501 -0.00000000000E+00  0.00000000000E+00  0.24362263865E+02  0.24362263865E+02  0.00000000000E+00 0.  1.
          3   -1    0    0  501    0  0.00000000000E+00 -0.00000000000E+00 -0.61039009236E+03  0.61039009236E+03  0.00000000000E+00 0. -1.
         23    2    1    2    0    0  0.15032996676E+02 -0.74842257770E+02 -0.25721500827E+03  0.28474186117E+03  0.95346801112E+02 0.  0.
         23    2    1    2    0    0 -0.15032996676E+02  0.74842257770E+02 -0.32881282022E+03  0.35001049506E+03  0.92531731700E+02 0.  0.
          5    1    3    3  502    0 -0.25924007759E+02  0.86452124373E+01 -0.77999233905E+02  0.82781425248E+02  0.47000000000E+01 0. -1.
         -5    1    3    3    0  502  0.40957004435E+02 -0.83487470207E+02 -0.17921577437E+03  0.20196043592E+03  0.47000000000E+01 0.  1.
          5    1    4    4  503    0 -0.33513462304E+00  0.47120164401E+02 -0.30899408534E+03  0.31260175461E+03  0.47000000000E+01 0. -1.
         -5    1    4    4    0  503 -0.14697862053E+02  0.27722093368E+02 -0.19818734877E+02  0.37408740446E+02  0.47000000000E+01 0.  1.
<mgrwt>
<rscale>  0 0.12159091E+03</rscale>
<asrwt>0</asrwt>
<pdfrwt beam="1">  1        3 0.93906169E-01 0.12214077E+03</pdfrwt>
<pdfrwt beam="2">  1       -3 0.37480406E-02 0.12214077E+03</pdfrwt>
<totfact> 0.85492164E+02</totfact>
</mgrwt>
</event>
<event>
 8    1  0.2964543E-004  0.1007797E+03  0.7546771E-02  0.1278845E+00
          1   -1    0    0  501    0  0.00000000000E+00  0.00000000000E+00  0.16879467925E+03  0.16879467925E+03  0.00000000000E+00 0. -1.
         -1   -1    0    0    0  501 -0.00000000000E+00 -0.00000000000E+00 -0.10265683007E+03  0.10265683007E+03  0.00000000000E+00 0.  1.
         23    2    1    2    0    0 -0.17571126286E+02  0.37831671191E+02  0.12062928684E+03  0.15718767483E+03  0.91741814083E+02 0.  0.
         23    2    1    2    0    0  0.17571126286E+02 -0.37831671191E+02 -0.54491437663E+02  0.11426383449E+03  0.91361519639E+02 0.  0.
          5    1    4    4  502    0 -0.32493809165E+02  0.21973670919E+01 -0.53047349754E+01  0.33330260565E+02  0.47000000000E+01 0. -1.
         -5    1    3    3    0  503  0.31660022739E+02 -0.18718079514E+01  0.66431123279E+02  0.73763438403E+02  0.47000000000E+01 0.  1.
          5    1    3    3  503    0 -0.49231149026E+02  0.39703479142E+02  0.54198163563E+02  0.83424236431E+02  0.47000000000E+01 0. -1.
         -5    1    4    4    0  502  0.50064935452E+02 -0.40029038283E+02 -0.49186702687E+02  0.80933573929E+02  0.47000000000E+01 0.  1.
<mgrwt>
<rscale>  0 0.10069303E+03</rscale>
<asrwt>0</asrwt>
<pdfrwt beam="1">  1        1 0.25968412E-01 0.10077966E+03</pdfrwt>
<pdfrwt beam="2">  1       -1 0.15793358E-01 0.10077966E+03</pdfrwt>
<totfact> 0.50494303E+03</totfact>
</mgrwt>
</event>
<event>
 8    1  0.2964543E-004  0.1169069E+03  0.7546771E-02  0.1252976E+00
          1   -1    0    0  501    0  0.00000000000E+00  0.00000000000E+00  0.63440157363E+03  0.63440157363E+03  0.00000000000E+00 0. -1.
         -1   -1    0    0    0  501 -0.00000000000E+00 -0.00000000000E+00 -0.27526459697E+02  0.27526459697E+02  0.00000000000E+00 0.  1.
         23    2    1    2    0    0  0.33673866951E+02 -0.63867656096E+02  0.47006747284E+03  0.48197370374E+03  0.78244586118E+02 0.  0.
         23    2    1    2    0    0 -0.33673866951E+02  0.63867656096E+02  0.13680764109E+03  0.17995432959E+03  0.91946850229E+02 0.  0.
          5    1    3    3  502    0  0.19548549279E+02 -0.47901976027E+02  0.44775583889E+03  0.45075949945E+03  0.47000000000E+01 0. -1.
         -5    1    3    3    0  502  0.14125317672E+02 -0.15965680069E+02  0.22311633954E+02  0.31214204285E+02  0.47000000000E+01 0.  1.
          5    1    4    4  503    0 -0.91451698119E+01 -0.23169643981E+02  0.40372006324E+02  0.47670278243E+02  0.47000000000E+01 0. -1.
         -5    1    4    4    0  503 -0.24528697139E+02  0.87037300078E+02  0.96435634761E+02  0.13228405134E+03  0.47000000000E+01 0.  1.
<mgrwt>
<rscale>  0 0.11420469E+03</rscale>
<asrwt>0</asrwt>
<pdfrwt beam="1">  1        1 0.97600232E-01 0.11690693E+03</pdfrwt>
<pdfrwt beam="2">  1       -1 0.42348404E-02 0.11690693E+03</pdfrwt>
<totfact> 0.69992029E+03</totfact>
</mgrwt>
</event>
<event>
 8    1  0.2964543E-004  0.1177346E+03  0.7546771E-02  0.1247820E+00
         -1   -1    0    0    0  501 -0.00000000000E+00  0.00000000000E+00  0.14876209898E+03  0.14876209898E+03  0.00000000000E+00 0.  1.
          1   -1    0    0  501    0  0.00000000000E+00 -0.00000000000E+00 -0.13642969884E+03  0.13642969884E+03  0.00000000000E+00 0. -1.
         23    2    1    2    0    0 -0.28853105360E+02  0.67660273149E+02  0.88079695440E+02  0.14703557510E+03  0.91929393257E+02 0.  0.
         23    2    1    2    0    0  0.28853105360E+02 -0.67660273149E+02 -0.75747295297E+02  0.13815622272E+03  0.89101486401E+02 0.  0.
          5    1    3    3  502    0  0.13478233819E+02  0.16085115566E+02 -0.13514406594E+02  0.25399269975E+02  0.47000000000E+01 0. -1.
         -5    1    4    4    0  503 -0.28634879994E+02 -0.64296840988E+01 -0.98934956712E+01  0.31325204652E+02  0.47000000000E+01 0.  1.
          5    1    4    4  503    0  0.57487985354E+02 -0.61230589050E+02 -0.65853799625E+02  0.10683101806E+03  0.47000000000E+01 0. -1.
         -5    1    3    3    0  502 -0.42331339179E+02  0.51575157583E+02  0.10159410203E+03  0.12163630513E+03  0.47000000000E+01 0.  1.
<mgrwt>
<rscale>  0 0.11718204E+03</rscale>
<asrwt>0</asrwt>
<pdfrwt beam="1">  1        1 0.20989184E-01 0.11773456E+03</pdfrwt>
<pdfrwt beam="2">  1       -1 0.22886477E-01 0.11773456E+03</pdfrwt>
<totfact> 0.36909901E+03</totfact>
</mgrwt>
</event>
<event>
 8    1  0.2964543E-004  0.1154674E+03  0.7546771E-02  0.1251511E+00
         -2   -1    0    0    0  501 -0.00000000000E+00  0.00000000000E+00  0.18774033120E+03  0.18774033120E+03  0.00000000000E+00 0.  1.
          2   -1    0    0  501    0  0.00000000000E+00 -0.00000000000E+00 -0.14054391847E+03  0.14054391847E+03  0.00000000000E+00 0. -1.
         23    2    1    2    0    0 -0.30319746718E+02 -0.62199548263E+02 -0.92797992825E+02  0.14681482749E+03  0.90305344539E+02 0.  0.
         23    2    1    2    0    0  0.30319746718E+02  0.62199548263E+02  0.13999440555E+03  0.18146942218E+03  0.92437258490E+02 0.  0.
          5    1    3    3  502    0 -0.53743730529E+02 -0.65984504402E+02 -0.87304012959E+02  0.12200993431E+03  0.47000000000E+01 0. -1.
         -5    1    4    4    0  503  0.54927391221E+02  0.95607377081E+01  0.81742490464E+02  0.99057310478E+02  0.47000000000E+01 0.  1.
          5    1    4    4  503    0 -0.24607644502E+02  0.52638810554E+02  0.58251915086E+02  0.82412111706E+02  0.47000000000E+01 0. -1.
         -5    1    3    3    0  502  0.23423983811E+02  0.37849561392E+01 -0.54939798656E+01  0.24804893173E+02  0.47000000000E+01 0.  1.
<mgrwt>
<rscale>  0 0.11504014E+03</rscale>
<asrwt>0</asrwt>
<pdfrwt beam="1">  1        2 0.21622141E-01 0.11546739E+03</pdfrwt>
<pdfrwt beam="2">  1       -2 0.28883128E-01 0.11546739E+03</pdfrwt>
<totfact> 0.26651433E+03</totfact>
</mgrwt>
</event>
<event>
 8    1  0.2964543E-004  0.1081250E+03  0.7546771E-02  0.1264473E+00
          1   -1    0    0  501    0  0.00000000000E+00  0.00000000000E+00  0.37228294805E+03  0.37228294805E+03  0.00000000000E+00 0. -1.
         -1   -1    0    0    0  501 -0.00000000000E+00 -0.00000000000E+00 -0.32500801613E+02  0.32500801613E+02  0.00000000000E+00 0.  1.
         23    2    1    2    0    0  0.56950435369E+02  0.42292432682E+01  0.12948833272E+03  0.16869574017E+03  0.91813865262E+02 0.  0.
         23    2    1    2    0    0 -0.56950435369E+02 -0.42292432682E+01  0.21029381372E+03  0.23608800949E+03  0.90845041416E+02 0.  0.
          5    1    4    4  502    0 -0.32861790486E+02  0.16452818651E+02  0.19844742109E+03  0.20187635189E+03  0.47000000000E+01 0. -1.
         -5    1    4    4    0  502 -0.24088644883E+02 -0.20682061919E+02  0.11846392631E+02  0.34211657602E+02  0.47000000000E+01 0.  1.
          5    1    3    3  503    0  0.70802141206E+01 -0.35582838438E+02  0.19516332277E+02  0.41463779964E+02  0.47000000000E+01 0. -1.
         -5    1    3    3    0  503  0.49870221248E+02  0.39812081707E+02  0.10997200044E+03  0.12723196021E+03  0.47000000000E+01 0.  1.
<mgrwt>
<rscale>  0 0.10791909E+03</rscale>
<asrwt>0</asrwt>
<pdfrwt beam="1">  1        1 0.57274297E-01 0.10812504E+03</pdfrwt>
<pdfrwt beam="2">  1       -1 0.50001236E-02 0.10812504E+03</pdfrwt>
<totfact> 0.10877141E+04</totfact>
</mgrwt>
</event>
<event>
 8    1  0.2964543E-004  0.9259411E+02  0.7546771E-02  0.1299835E+00
          2   -1    0    0  501    0  0.00000000000E+00  0.00000000000E+00  0.61122671157E+03  0.61122671157E+03  0.00000000000E+00 0. -1.
         -2   -1    0    0    0  501 -0.00000000000E+00 -0.00000000000E+00 -0.36419303063E+02  0.36419303063E+02  0.00000000000E+00 0.  1.
         23    2    1    2    0    0  0.70207258220E+01 -0.31285900799E+01  0.26094603178E+02  0.91175520318E+02  0.87022804616E+02 0.  0.
         23    2    1    2    0    0 -0.70207258220E+01  0.31285900799E+01  0.54871280533E+03  0.55647049432E+03  0.92274534109E+02 0.  0.
          5    1    3    3  502    0 -0.33143982728E+02 -0.19244952459E+02  0.27848914299E+02  0.47608232627E+02  0.47000000000E+01 0. -1.
         -5    1    3    3    0  502  0.40164708550E+02  0.16116362379E+02 -0.17543111212E+01  0.43567287691E+02  0.47000000000E+01 0.  1.
          5    1    4    4  503    0  0.16249998597E+01 -0.42836519425E+02  0.32685204200E+03  0.32968463018E+03  0.47000000000E+01 0. -1.
         -5    1    4    4    0  503 -0.86457256817E+01  0.45965109505E+02  0.22186076334E+03  0.22678586414E+03  0.47000000000E+01 0.  1.
<mgrwt>
<rscale>  0 0.91257304E+02</rscale>
<asrwt>0</asrwt>
<pdfrwt beam="1">  1        2 0.94034871E-01 0.92594105E+02</pdfrwt>
<pdfrwt beam="2">  1       -2 0.56029702E-02 0.92594105E+02</pdfrwt>
<totfact> 0.76025107E+03</totfact>
</mgrwt>
</event>
<event>
 8    1  0.2964543E-004  0.1026581E+03  0.7546771E-02  0.1275083E+00
          2   -1    0    0  501    0  0.00000000000E+00  0.00000000000E+00  0.67009125902E+03  0.67009125902E+03  0.00000000000E+00 0. -1.
         -2   -1    0    0    0  501 -0.00000000000E+00 -0.00000000000E+00 -0.54878806246E+02  0.54878806246E+02  0.00000000000E+00 0.  1.
         23    2    1    2    0    0 -0.45322201540E+02  0.91438110371E+01  0.87326111270E+00  0.10211266784E+03  0.91041326415E+02 0.  0.
         23    2    1    2    0    0  0.45322201540E+02 -0.91438110371E+01  0.61433919166E+03  0.62285739743E+03  0.91656881285E+02 0.  0.
          5    1    3    3  502    0 -0.10958615526E+02 -0.37174864419E+02  0.16175133289E+02  0.42258569968E+02  0.47000000000E+01 0. -1.
         -5    1    4    4    0  503 -0.26880519584E+02  0.77460505418E-01  0.23412159528E+03  0.23570655423E+03  0.47000000000E+01 0.  1.
          5    1    4    4  503    0  0.72202721124E+02 -0.92212715426E+01  0.38021759638E+03  0.38715084319E+03  0.47000000000E+01 0. -1.
         -5    1    3    3    0  502 -0.34363586014E+02  0.46318675456E+02 -0.15301872177E+02  0.59854097870E+02  0.47000000000E+01 0.  1.
<mgrwt>
<rscale>  0 0.10252057E+03</rscale>
<asrwt>0</asrwt>
<pdfrwt beam="1">  1        2 0.10309096E+00 0.10265815E+03</pdfrwt>
<pdfrwt beam="2">  1       -2 0.84428937E-02 0.10265815E+03</pdfrwt>
<totfact> 0.36975934E+03</totfact>
</mgrwt>
</event>
<event>
 8    1  0.2964543E-004  0.1133287E+03  0.7546771E-02  0.1256012E+00
          1   -1    0    0  501    0  0.00000000000E+00  0.00000000000E+00  0.16489686709E+03  0.16489686709E+03  0.00000000000E+00 0. -1.
         -1   -1    0    0    0  501 -0.00000000000E+00 -0.00000000000E+00 -0.19001757310E+03  0.19001757310E+03  0.00000000000E+00 0.  1.
         23    2    1    2    0    0  0.20738221332E+02 -0.66187419824E+02 -0.15015636157E+03  0.18616223392E+03  0.85431821082E+02 0.  0.
         23    2    1    2    0    0 -0.20738221332E+02  0.66187419824E+02  0.12503565555E+03  0.16875220627E+03  0.89624458678E+02 0.  0.
          5    1    4    4  502    0 -0.12346472228E+02  0.45466808984E+02  0.13556711526E+03  0.14359734968E+03  0.47000000000E+01 0. -1.
         -5    1    4    4    0  502 -0.83917491041E+01  0.20720610840E+02 -0.10531459702E+02  0.25154856590E+02  0.47000000000E+01 0.  1.
          5    1    3    3  503    0  0.46706367219E+02 -0.63162915972E+02 -0.13300703347E+03  0.15454449082E+03  0.47000000000E+01 0. -1.
         -5    1    3    3    0  503 -0.25968145887E+02 -0.30245038518E+01 -0.17149328100E+02  0.31617743098E+02  0.47000000000E+01 0.  1.
<mgrwt>
<rscale>  0 0.11249816E+03</rscale>
<asrwt>0</asrwt>
<pdfrwt beam="1">  1        1 0.25368749E-01 0.11332869E+03</pdfrwt>
<pdfrwt beam="2">  1       -1 0.29233473E-01 0.11332869E+03</pdfrwt>
<totfact> 0.19429699E+03</totfact>
</mgrwt>
</event>
<event>
 8    1  0.2964543E-004  0.1097222E+03  0.7546771E-02  0.1262446E+00
         -1   -1    0    0    0  501 -0.00000000000E+00  0.00000000000E+00  0.56089060422E+02  0.56089060422E+02  0.00000000000E+00 0.  1.
          1   -1    0    0  501    0  0.00000000000E+00 -0.00000000000E+00 -0.28693683754E+03  0.28693683754E+03  0.00000000000E+00 0. -1.
         23    2    1    2    0    0 -0.15581800184E+02 -0.56674727460E+02 -0.24936318179E+02  0.10970532166E+03  0.89211100239E+02 0.  0.
         23    2    1    2    0    0  0.15581800184E+02  0.56674727460E+02 -0.20591145894E+03  0.23332057631E+03  0.92650662031E+02 0.  0.
          5    1    3    3  502    0  0.25856063686E+02 -0.21460297762E+02 -0.40608845285E+02  0.52917376397E+02  0.47000000000E+01 0. -1.
         -5    1    3    3    0  502 -0.41437863869E+02 -0.35214429698E+02  0.15672527106E+02  0.56787945260E+02  0.47000000000E+01 0.  1.
          5    1    4    4  503    0  0.51985971930E+02  0.50213594826E+02 -0.13815501717E+03  0.15598988798E+03  0.47000000000E+01 0. -1.
         -5    1    4    4    0  503 -0.36404171746E+02  0.64611326341E+01 -0.67756441770E+02  0.77330688325E+02  0.47000000000E+01 0.  1.
<mgrwt>
<rscale>  0 0.10899284E+03</rscale>
<asrwt>0</asrwt>
<pdfrwt beam="1">  1        1 0.44144127E-01 0.10972221E+03</pdfrwt>
<pdfrwt beam="2">  1       -1 0.86290865E-02 0.10972221E+03</pdfrwt>
<totfact> 0.66706325E+03</totfact>
</mgrwt>
</event>
<event>
 8    1  0.2964543E-004  0.9734031E+02  0.7546771E-02  0.1287714E+00
         -1   -1    0    0    0  501 -0.00000000000E+00  0.00000000000E+00  0.65372191152E+02  0.65372191152E+02  0.00000000000E+00 0.  1.
          1   -1    0    0  501    0  0.00000000000E+00 -0.00000000000E+00 -0.23573053490E+03  0.23573053490E+03  0.00000000000E+00 0. -1.
         23    2    1    2    0    0  0.91156269063E+01 -0.34888564779E+02 -0.18175853585E+03  0.20618268699E+03  0.90414757928E+02 0.  0.
         23    2    1    2    0    0 -0.91156269063E+01  0.34888564779E+02  0.11400192104E+02  0.94920039067E+02  0.87060569894E+02 0.  0.
          5    1    3    3  502    0 -0.43982642097E+01  0.28568696646E+02 -0.34878480315E+02  0.45542436751E+02  0.47000000000E+01 0. -1.
         -5    1    4    4    0  503 -0.44028827756E+02  0.26677712868E+02  0.23489382446E+02  0.56780975028E+02  0.47000000000E+01 0.  1.
          5    1    4    4  503    0  0.34913200850E+02  0.82108519116E+01 -0.12089190342E+02  0.38139064040E+02  0.47000000000E+01 0. -1.
         -5    1    3    3    0  502  0.13513891116E+02 -0.63457261426E+02 -0.14688005554E+03  0.16064025024E+03  0.47000000000E+01 0.  1.
<mgrwt>
<rscale>  0 0.96553991E+02</rscale>
<asrwt>0</asrwt>
<pdfrwt beam="1">  1        1 0.36266236E-01 0.97340305E+02</pdfrwt>
<pdfrwt beam="2">  1       -1 0.10057260E-01 0.97340305E+02</pdfrwt>
<totfact> 0.66762099E+03</totfact>
</mgrwt>
</event>
<event>
 8    1  0.2964543E-004  0.9512016E+02  0.7546771E-02  0.1292390E+00
          2   -1    0    0  501    0  0.00000000000E+00  0.00000000000E+00  0.53165200195E+03  0.53165200195E+03  0.00000000000E+00 0. -1.
         -2   -1    0    0    0  501 -0.00000000000E+00 -0.00000000000E+00 -0.26711523669E+02  0.26711523669E+02  0.00000000000E+00 0.  1.
         23    2    1    2    0    0  0.15109260963E+02  0.66763762831E+01  0.42676965366E+03  0.43724156124E+03  0.93674872953E+02 0.  0.
         23    2    1    2    0    0 -0.15109260963E+02 -0.66763762831E+01  0.78170824620E+02  0.12112196438E+03  0.91032898813E+02 0.  0.
          5    1    3    3  502    0  0.31066953365E+02 -0.29802794964E+02  0.11463321135E+03  0.12254070884E+03  0.47000000000E+01 0. -1.
         -5    1    3    3    0  502 -0.15957692402E+02  0.36479171247E+02  0.31213644231E+03  0.31470085240E+03  0.47000000000E+01 0.  1.
          5    1    4    4  503    0  0.15047540284E+02  0.32600857290E+02  0.55941557538E+02  0.66639269387E+02  0.47000000000E+01 0. -1.
         -5    1    4    4    0  503 -0.30156801248E+02 -0.39277233573E+02  0.22229267082E+02  0.54482694993E+02  0.47000000000E+01 0.  1.
<mgrwt>
<rscale>  0 0.94463216E+02</rscale>
<asrwt>0</asrwt>
<pdfrwt beam="1">  1        2 0.81792608E-01 0.95120164E+02</pdfrwt>
<pdfrwt beam="2">  1       -2 0.41094656E-02 0.95120164E+02</pdfrwt>
<totfact> 0.14086224E+04</totfact>
</mgrwt>
</event>
<event>
 8    1  0.2964543E-004  0.9354101E+02  0.7546771E-02  0.1294562E+00
         -1   -1    0    0    0  501 -0.00000000000E+00  0.00000000000E+00  0.33966324598E+03  0.33966324598E+03  0.00000000000E+00 0.  1.
          1   -1    0    0  501    0  0.00000000000E+00 -0.00000000000E+00 -0.34438629742E+02  0.34438629742E+02  0.00000000000E+00 0. -1.
         23    2    1    2    0    0 -0.18459619450E+02 -0.12776631020E+01  0.24674757644E+03  0.26388309432E+03  0.91692589744E+02 0.  0.
         23    2    1    2    0    0  0.18459619450E+02  0.12776631020E+01  0.58477039797E+02  0.11021878140E+03  0.91576337650E+02 0.  0.
          5    1    4    4  502    0  0.31622125955E+02  0.39909602209E+02  0.41130536988E+02  0.65624281111E+02  0.47000000000E+01 0. -1.
         -5    1    3    3    0  503 -0.48736953338E+02  0.18035673539E+02  0.18578071382E+03  0.19296927157E+03  0.47000000000E+01 0.  1.
          5    1    3    3  503    0  0.30277333888E+02 -0.19313336641E+02  0.60966862618E+02  0.70913822750E+02  0.47000000000E+01 0. -1.
         -5    1    4    4    0  502 -0.13162506505E+02 -0.38631939107E+02  0.17346502809E+02  0.44594500293E+02  0.47000000000E+01 0.  1.
<mgrwt>
<rscale>  0 0.93512511E+02</rscale>
<asrwt>0</asrwt>
<pdfrwt beam="1">  1        1 0.52982510E-02 0.93541012E+02</pdfrwt>
<pdfrwt beam="2">  1       -1 0.52255882E-01 0.93541012E+02</pdfrwt>
<totfact> 0.53765681E+03</totfact>
</mgrwt>
</event>
<event>
 8    1  0.2964543E-004  0.9724657E+02  0.7546771E-02  0.1287789E+00
          2   -1    0    0  501    0  0.00000000000E+00  0.00000000000E+00  0.71157810030E+03  0.71157810030E+03  0.00000000000E+00 0. -1.
         -2   -1    0    0    0  501 -0.00000000000E+00 -0.00000000000E+00 -0.13019637437E+02  0.13019637437E+02  0.00000000000E+00 0.  1.
         23    2    1    2    0    0 -0.27285799679E+02  0.11582623368E+02  0.31975381224E+03  0.33421459459E+03  0.92618695560E+02 0.  0.
         23    2    1    2    0    0  0.27285799679E+02 -0.11582623368E+02  0.37880465063E+03  0.39038314315E+03  0.89595552853E+02 0.  0.
          5    1    4    4  502    0  0.16097570972E+02 -0.50167041448E+02  0.24259803970E+03  0.24829772996E+03  0.47000000000E+01 0. -1.
         -5    1    4    4    0  502  0.11188228707E+02  0.38584418080E+02  0.13620661093E+03  0.14208541319E+03  0.47000000000E+01 0.  1.
          5    1    3    3  503    0 -0.14232308440E+02 -0.34580586410E+02  0.22251083662E+03  0.22568016744E+03  0.47000000000E+01 0. -1.
         -5    1    3    3    0  503 -0.13053491239E+02  0.46163209779E+02  0.97242975617E+02  0.10853442715E+03  0.47000000000E+01 0.  1.
<mgrwt>
<rscale>  0 0.96519766E+02</rscale>
<asrwt>0</asrwt>
<pdfrwt beam="1">  1        2 0.10947352E+00 0.97246567E+02</pdfrwt>
<pdfrwt beam="2">  1       -2 0.20030217E-02 0.97246567E+02</pdfrwt>
<totfact> 0.28883000E+04</totfact>
</mgrwt>
</event>
<event>
 8    1  0.2964543E-004  0.9456042E+02  0.7546771E-02  0.1294960E+00
          3   -1    0    0  501    0  0.00000000000E+00  0.00000000000E+00  0.20829245067E+03  0.20829245067E+03  0.00000000000E+00 0. -1.
         -3   -1    0    0    0  501 -0.00000000000E+00 -0.00000000000E+00 -0.49724497615E+02  0.49724497615E+02  0.00000000000E+00 0.  1.
         23    2    1    2    0    0 -0.81750014204E+00  0.12112662378E+02  0.13228974201E+03  0.15987308815E+03  0.88946296023E+02 0.  0.
         23    2    1    2    0    0  0.81750014204E+00 -0.12112662378E+02  0.26278211044E+02  0.98143860138E+02  0.93777865249E+02 0.  0.
          5    1    4    4  502    0  0.20930864702E+02  0.36154979808E+02  0.12658828895E+02  0.43904665027E+02  0.47000000000E+01 0. -1.
         -5    1    3    3    0  503 -0.21588813184E+02 -0.29118427890E+02  0.89796380101E+02  0.96950706943E+02  0.47000000000E+01 0.  1.
          5    1    3    3  503    0  0.20771313041E+02  0.41231090267E+02  0.42493361910E+02  0.62922381205E+02  0.47000000000E+01 0. -1.
         -5    1    4    4    0  502 -0.20113364560E+02 -0.48267642186E+02  0.13619382149E+02  0.54239195111E+02  0.47000000000E+01 0.  1.
<mgrwt>
<rscale>  0 0.93339621E+02</rscale>
<asrwt>0</asrwt>
<pdfrwt beam="1">  1        3 0.32044992E-01 0.94560419E+02</pdfrwt>
<pdfrwt beam="2">  1       -3 0.76499228E-02 0.94560419E+02</pdfrwt>
<totfact> 0.23273436E+03</totfact>
</mgrwt>
</event>
<event>
 8    1  0.2964543E-004  0.1599305E+03  0.7546771E-02  0.1195669E+00
         -3   -1    0    0    0  501 -0.00000000000E+00  0.00000000000E+00  0.11561728149E+04  0.11561728149E+04  0.00000000000E+00 0.  1.
          3   -1    0    0  501    0  0.00000000000E+00 -0.00000000000E+00 -0.20733455556E+02  0.20733455556E+02  0.00000000000E+00 0. -1.
         23    2    1    2    0    0  0.63447700365E+02 -0.81241786523E+02  0.44352712272E+03  0.47148071485E+03  0.12227803288E+03 0.  0.
         23    2    1    2    0    0 -0.63447700365E+02  0.81241786523E+02  0.69191223659E+03  0.70542555557E+03  0.90867115925E+02 0.  0.
          5    1    4    4  502    0 -0.31110443365E+02  0.62387980178E+02  0.62262483378E+03  0.62653323407E+03  0.47000000000E+01 0. -1.
         -5    1    4    4    0  502 -0.32337257000E+02  0.18853806345E+02  0.69287402808E+02  0.78892321501E+02  0.47000000000E+01 0.  1.
          5    1    3    3  503    0  0.57036194120E+02 -0.23405512847E+02  0.69909112175E+02  0.93329092123E+02  0.47000000000E+01 0. -1.
         -5    1    3    3    0  503  0.64115062449E+01 -0.57836273676E+02  0.37361801055E+03  0.37815162273E+03  0.47000000000E+01 0.  1.
<mgrwt>
<rscale>  0 0.15397717E+03</rscale>
<asrwt>0</asrwt>
<pdfrwt beam="1">  1        3 0.31897633E-02 0.15993047E+03</pdfrwt>
<pdfrwt beam="2">  1       -3 0.17787269E+00 0.15993047E+03</pdfrwt>
<totfact> 0.24365904E+02</totfact>
</mgrwt>
</event>
<event>
 8    1  0.2964543E-004  0.9724721E+02  0.7546771E-02  0.1287443E+00
          1   -1    0    0  501    0  0.00000000000E+00  0.00000000000E+00  0.76702930953E+03  0.76702930953E+03  0.00000000000E+00 0. -1.
         -1   -1    0    0    0  501 -0.00000000000E+00 -0.00000000000E+00 -0.12164587182E+02  0.12164587182E+02  0.00000000000E+00 0.  1.
         23    2    1    2    0    0  0.24761629682E+02 -0.36850327804E+01  0.41173925612E+03  0.42255387541E+03  0.91628842743E+02 0.  0.
         23    2    1    2    0    0 -0.24761629682E+02  0.36850327804E+01  0.34312546623E+03  0.35664002130E+03  0.93969683667E+02 0.  0.
          5    1    3    3  502    0  0.36657047503E+00  0.39045825050E+02  0.26024501819E+03  0.26320005760E+03  0.47000000000E+01 0. -1.
         -5    1    4    4    0  503 -0.31415109996E+01 -0.24026386598E+02  0.20538939397E+02  0.32110346866E+02  0.47000000000E+01 0.  1.
          5    1    4    4  503    0 -0.21620118682E+02  0.27711419379E+02  0.32258652683E+03  0.32452967444E+03  0.47000000000E+01 0. -1.
         -5    1    3    3    0  502  0.24395059207E+02 -0.42730857831E+02  0.15149423793E+03  0.15935381781E+03  0.47000000000E+01 0.  1.
<mgrwt>
<rscale>  0 0.96677206E+02</rscale>
<asrwt>0</asrwt>
<pdfrwt beam="1">  1        1 0.11800447E+00 0.97247207E+02</pdfrwt>
<pdfrwt beam="2">  1       -1 0.18714756E-02 0.97247207E+02</pdfrwt>
<totfact> 0.17176682E+04</totfact>
</mgrwt>
</event>
<event>
 8    1  0.2964543E-004  0.9395423E+02  0.7546771E-02  0.1294276E+00
          2   -1    0    0  501    0  0.00000000000E+00  0.00000000000E+00  0.34445373221E+03  0.34445373221E+03  0.00000000000E+00 0. -1.
         -2   -1    0    0    0  501 -0.00000000000E+00 -0.00000000000E+00 -0.28143152463E+02  0.28143152463E+02  0.00000000000E+00 0.  1.
         23    2    1    2    0    0  0.38853099515E+01 -0.14978471544E+02  0.21849698354E+03  0.23784097587E+03  0.92671180755E+02 0.  0.
         23    2    1    2    0    0 -0.38853099515E+01  0.14978471544E+02  0.97813596205E+02  0.13475590880E+03  0.91390399452E+02 0.  0.
          5    1    3    3  502    0 -0.37326366741E+02  0.28248259846E+01  0.15752057855E+03  0.16197549185E+03  0.47000000000E+01 0. -1.
         -5    1    4    4    0  503  0.23173365569E+02 -0.30025667668E+02  0.54271403467E+02  0.66377863968E+02  0.47000000000E+01 0.  1.
          5    1    4    4  503    0 -0.27058675520E+02  0.45004139213E+02  0.43542192738E+02  0.68378044836E+02  0.47000000000E+01 0. -1.
         -5    1    3    3    0  502  0.41211676693E+02 -0.17803297529E+02  0.60976404999E+02  0.75865484018E+02  0.47000000000E+01 0.  1.
<mgrwt>
<rscale>  0 0.93636866E+02</rscale>
<asrwt>0</asrwt>
<pdfrwt beam="1">  1        2 0.52992879E-01 0.93954233E+02</pdfrwt>
<pdfrwt beam="2">  1       -2 0.43297160E-02 0.93954233E+02</pdfrwt>
<totfact> 0.20675605E+04</totfact>
</mgrwt>
</event>
<event>
 8    1  0.2964543E-004  0.9527133E+02  0.7546771E-02  0.1290940E+00
         -3   -1    0    0    0  501 -0.00000000000E+00  0.00000000000E+00  0.22085936639E+02  0.22085936639E+02  0.00000000000E+00 0.  1.
          3   -1    0    0  501    0  0.00000000000E+00 -0.00000000000E+00 -0.42866040408E+03  0.42866040408E+03  0.00000000000E+00 0. -1.
         23    2    1    2    0    0  0.22679142511E+02 -0.88405641059E+01 -0.25331222659E+03  0.27063575167E+03  0.92109320194E+02 0.  0.
         23    2    1    2    0    0 -0.22679142511E+02  0.88405641059E+01 -0.15326224085E+03  0.18011058904E+03  0.91422156700E+02 0.  0.
          5    1    3    3  502    0  0.31387572076E+02 -0.34813004153E+02 -0.64957656888E+02  0.80241586022E+02  0.47000000000E+01 0. -1.
         -5    1    3    3    0  502 -0.87084295648E+01  0.25972440047E+02 -0.18835456970E+03  0.19039416565E+03  0.47000000000E+01 0.  1.
          5    1    4    4  503    0  0.17227393186E+01 -0.24883990749E+02 -0.12946921208E+03  0.13193387626E+03  0.47000000000E+01 0. -1.
         -5    1    4    4    0  503 -0.24401881829E+02  0.33724554855E+02 -0.23793028768E+02  0.48176712787E+02  0.47000000000E+01 0.  1.
<mgrwt>
<rscale>  0 0.95104844E+02</rscale>
<asrwt>0</asrwt>
<pdfrwt beam="1">  1        3 0.65947744E-01 0.95271328E+02</pdfrwt>
<pdfrwt beam="2">  1       -3 0.33978370E-02 0.95271328E+02</pdfrwt>
<totfact> 0.20351618E+03</totfact>
</mgrwt>
</event>
<event>
 8    1  0.2964543E-004  0.9204970E+02  0.7546771E-02  0.1300698E+00
         -2   -1    0    0    0  501 -0.00000000000E+00  0.00000000000E+00  0.54883221109E+02  0.54883221109E+02  0.00000000000E+00 0.  1.
          2   -1    0    0  501    0  0.00000000000E+00 -0.00000000000E+00 -0.15593817647E+03  0.15593817647E+03  0.00000000000E+00 0. -1.
         23    2    1    2    0    0  0.16682293779E+01 -0.44416927898E+01 -0.77129521494E+02  0.12009209042E+03  0.91927337994E+02 0.  0.
         23    2    1    2    0    0 -0.16682293779E+01  0.44416927898E+01 -0.23925433865E+02  0.90729307161E+02  0.87389182214E+02 0.  0.
          5    1    4    4  502    0  0.31022276796E+02 -0.11600736973E+02  0.15487791466E+02  0.36863538089E+02  0.47000000000E+01 0. -1.
         -5    1    4    4    0  502 -0.32690506174E+02  0.16042429763E+02 -0.39413225332E+02  0.53865769071E+02  0.47000000000E+01 0.  1.
          5    1    3    3  503    0  0.35497523311E+02  0.10273069731E+02 -0.73905953430E+02  0.82763458575E+02  0.47000000000E+01 0. -1.
         -5    1    3    3    0  503 -0.33829293933E+02 -0.14714762521E+02 -0.32235680640E+01  0.37328631841E+02  0.47000000000E+01 0.  1.
<mgrwt>
<rscale>  0 0.90895208E+02</rscale>
<asrwt>0</asrwt>
<pdfrwt beam="1">  1        2 0.23990488E-01 0.92049699E+02</pdfrwt>
<pdfrwt beam="2">  1       -2 0.84435726E-02 0.92049699E+02</pdfrwt>
<totfact> 0.17527123E+04</totfact>
</mgrwt>
</event>
<event>
 8    1  0.2964543E-004  0.9168966E+02  0.7546771E-02  0.1299549E+00
         -2   -1    0    0    0  501 -0.00000000000E+00  0.00000000000E+00  0.61426631853E+02  0.61426631853E+02  0.00000000000E+00 0.  1.
          2   -1    0    0  501    0  0.00000000000E+00 -0.00000000000E+00 -0.28734905096E+03  0.28734905096E+03  0.00000000000E+00 0. -1.
         23    2    1    2    0    0  0.11557465969E+02  0.13346008367E+01 -0.24029316969E+03  0.25719214815E+03  0.90948543082E+02 0.  0.
         23    2    1    2    0    0 -0.11557465969E+02 -0.13346008367E+01  0.14370750586E+02  0.91583534666E+02  0.89697654208E+02 0.  0.
          5    1    4    4  502    0 -0.44040390546E+02  0.51359641704E+01 -0.15024525061E+02  0.47050616156E+02  0.47000000000E+01 0. -1.
         -5    1    4    4    0  502  0.32482924577E+02 -0.64705650071E+01  0.29395275647E+02  0.44532918509E+02  0.47000000000E+01 0.  1.
          5    1    3    3  503    0 -0.30299360497E+02 -0.31134784669E+01 -0.18495847808E+03  0.18750859609E+03  0.47000000000E+01 0. -1.
         -5    1    3    3    0  503  0.41856826466E+02  0.44480793036E+01 -0.55334691615E+02  0.69683552058E+02  0.47000000000E+01 0.  1.
<mgrwt>
<rscale>  0 0.91377914E+02</rscale>
<asrwt>0</asrwt>
<pdfrwt beam="1">  1        2 0.44207545E-01 0.91689660E+02</pdfrwt>
<pdfrwt beam="2">  1       -2 0.94502514E-02 0.91689660E+02</pdfrwt>
<totfact> 0.76808324E+03</totfact>
</mgrwt>
</event>
<event>
 8    1  0.2964543E-004  0.1582587E+03  0.7546771E-02  0.1199531E+00
          2   -1    0    0  501    0  0.00000000000E+00  0.00000000000E+00  0.68768230724E+02  0.68768230724E+02  0.00000000000E+00 0. -1.
         -2   -1    0    0    0  501 -0.00000000000E+00 -0.00000000000E+00 -0.30499807933E+03  0.30499807933E+03  0.00000000000E+00 0.  1.
         23    2    1    2    0    0 -0.78537376197E+02  0.54926866962E+02 -0.11377333592E+03  0.19491075486E+03  0.12593947046E+03 0.  0.
         23    2    1    2    0    0  0.78537376197E+02 -0.54926866962E+02 -0.12245651268E+03  0.17885555519E+03  0.88366463944E+02 0.  0.
          5    1    4    4  502    0  0.57540522492E+02 -0.67581322492E+02 -0.49479225527E+02  0.10172723646E+03  0.47000000000E+01 0. -1.
         -5    1    4    4    0  502  0.20996853705E+02  0.12654455529E+02 -0.72977287153E+02  0.77128318733E+02  0.47000000000E+01 0.  1.
          5    1    3    3  503    0 -0.66069278714E+02  0.80158779245E+02 -0.32764951100E+02  0.10902390334E+03  0.47000000000E+01 0.  1.
         -5    1    3    3    0  503 -0.12468097483E+02 -0.25231912282E+02 -0.81008384820E+02  0.85886851516E+02  0.47000000000E+01 0.  1.
<mgrwt>
<rscale>  0 0.15076892E+03</rscale>
<asrwt>0</asrwt>
<pdfrwt beam="1">  1        2 0.10579728E-01 0.15825875E+03</pdfrwt>
<pdfrwt beam="2">  1       -2 0.46922781E-01 0.15825875E+03</pdfrwt>
<totfact> 0.25288247E+03</totfact>
</mgrwt>
</event>
<event>
 8    1  0.2964543E-004  0.1412636E+03  0.7546771E-02  0.1212918E+00
         -1   -1    0    0    0  501 -0.00000000000E+00  0.00000000000E+00  0.13988582003E+03  0.13988582003E+03  0.00000000000E+00 0.  1.
          1   -1    0    0  501    0  0.00000000000E+00 -0.00000000000E+00 -0.42987233463E+03  0.42987233463E+03  0.00000000000E+00 0. -1.
         23    2    1    2    0    0 -0.10151444916E+03  0.34227043807E+02  0.90033809580E+02  0.16433138786E+03  0.86151287008E+02 0.  0.
         23    2    1    2    0    0  0.10151444916E+03 -0.34227043807E+02 -0.38002032418E+03  0.40542676679E+03  0.92080087535E+02 0.  0.
          5    1    3    3  502    0 -0.78310726313E+02  0.15271874751E+02  0.12267275950E+02  0.80860225533E+02  0.47000000000E+01 0. -1.
         -5    1    3    3    0  502 -0.23203722852E+02  0.18955169056E+02  0.77766533630E+02  0.83471162331E+02  0.47000000000E+01 0.  1.
          5    1    4    4  503    0  0.84225433028E+02 -0.49106537850E+02 -0.36473329256E+03  0.37756832538E+03  0.47000000000E+01 0. -1.
         -5    1    4    4    0  503  0.17289016137E+02  0.14879494043E+02 -0.15287031622E+02  0.27858441409E+02  0.47000000000E+01 0.  1.
<mgrwt>
<rscale>  0 0.14030619E+03</rscale>
<asrwt>0</asrwt>
<pdfrwt beam="1">  1        1 0.66134205E-01 0.14126364E+03</pdfrwt>
<pdfrwt beam="2">  1       -1 0.21520895E-01 0.14126364E+03</pdfrwt>
<totfact> 0.98270619E+02</totfact>
</mgrwt>
</event>
<event>
 8    1  0.2964543E-004  0.9392081E+02  0.7546771E-02  0.1293861E+00
          2   -1    0    0  501    0  0.00000000000E+00  0.00000000000E+00  0.33682296552E+03  0.33682296552E+03  0.00000000000E+00 0. -1.
         -2   -1    0    0    0  501 -0.00000000000E+00 -0.00000000000E+00 -0.78664967049E+02  0.78664967049E+02  0.00000000000E+00 0.  1.
         23    2    1    2    0    0 -0.17725183427E-01 -0.21793791641E+02 -0.40686920059E+02  0.10235499385E+03  0.91357263722E+02 0.  0.
         23    2    1    2    0    0  0.17725183427E-01  0.21793791641E+02  0.29884491853E+03  0.31313293871E+03  0.90933944753E+02 0.  0.
          5    1    4    4  502    0 -0.38190155141E+02 -0.14933765427E+01  0.21048111652E+03  0.21397455114E+03  0.47000000000E+01 0. -1.
         -5    1    4    4    0  502  0.38207880325E+02  0.23287168184E+02  0.88363802004E+02  0.99158387570E+02  0.47000000000E+01 0.  1.
          5    1    3    3  503    0  0.26966439117E+02  0.25288034931E+02 -0.27493327906E+02  0.46310329610E+02  0.47000000000E+01 0. -1.
         -5    1    3    3    0  503 -0.26984164300E+02 -0.47081826572E+02 -0.13193592153E+02  0.56044664244E+02  0.47000000000E+01 0.  1.
<mgrwt>
<rscale>  0 0.93817716E+02</rscale>
<asrwt>0</asrwt>
<pdfrwt beam="1">  1        2 0.51818917E-01 0.93920814E+02</pdfrwt>
<pdfrwt beam="2">  1       -2 0.12102303E-01 0.93920814E+02</pdfrwt>
<totfact> 0.44241747E+03</totfact>
</mgrwt>
</event>
<event>
 8    1  0.2964543E-004  0.1000002E+03  0.7546771E-02  0.1280490E+00
         -3   -1    0    0    0  501 -0.00000000000E+00  0.00000000000E+00  0.69675867815E+03  0.69675867815E+03  0.00000000000E+00 0.  1.
          3   -1    0    0  501    0  0.00000000000E+00 -0.00000000000E+00 -0.17438180750E+02  0.17438180750E+02  0.00000000000E+00 0. -1.
         23    2    1    2    0    0 -0.35957300508E+02 -0.18899508186E+02  0.18867042770E+03  0.21353354560E+03  0.91377929158E+02 0.  0.
         23    2    1    2    0    0  0.35957300508E+02  0.18899508186E+02  0.49065006970E+03  0.50066331330E+03  0.90973312139E+02 0.  0.
          5    1    3    3  502    0 -0.85344071883E+01  0.32907200686E+02  0.35102910437E+02  0.49091998168E+02  0.47000000000E+01 0. -1.
         -5    1    4    4    0  503  0.44588797842E+02 -0.22042408410E+02  0.35858234295E+03  0.36204615084E+03  0.47000000000E+01 0.  1.
          5    1    4    4  503    0 -0.86314973338E+01  0.40941916596E+02  0.13206772674E+03  0.13861716246E+03  0.47000000000E+01 0. -1.
         -5    1    3    3    0  502 -0.27422893320E+02 -0.51806708872E+02  0.15356751727E+03  0.16444154743E+03  0.47000000000E+01 0.  1.
<mgrwt>
<rscale>  0 0.99907697E+02</rscale>
<asrwt>0</asrwt>
<pdfrwt beam="1">  1        3 0.26827976E-02 0.10000022E+03</pdfrwt>
<pdfrwt beam="2">  1       -3 0.10719362E+00 0.10000022E+03</pdfrwt>
<totfact> 0.10238587E+03</totfact>
</mgrwt>
</event>
<event>
 8    1  0.2964543E-004  0.1315170E+03  0.7546771E-02  0.1226248E+00
         -1   -1    0    0    0  501 -0.00000000000E+00  0.00000000000E+00  0.28012698383E+02  0.28012698383E+02  0.00000000000E+00 0.  1.
          1   -1    0    0  501    0  0.00000000000E+00 -0.00000000000E+00 -0.78594634907E+03  0.78594634907E+03  0.00000000000E+00 0. -1.
         23    2    1    2    0    0 -0.94115682942E+02 -0.15579532318E+01 -0.18653452689E+03  0.22823636493E+03  0.91850528369E+02 0.  0.
         23    2    1    2    0    0  0.94115682942E+02  0.15579532318E+01 -0.57139912381E+03  0.58572268253E+03  0.87828885620E+02 0.  0.
          5    1    4    4  502    0  0.98678819579E+02 -0.24433497221E+02 -0.46402861223E+03  0.47505699468E+03  0.47000000000E+01 0. -1.
         -5    1    4    4    0  502 -0.45631366369E+01  0.25991450452E+02 -0.10737051157E+03  0.11066568785E+03  0.47000000000E+01 0.  1.
          5    1    3    3  503    0 -0.30873675350E+02 -0.60746682220E+00 -0.15365341477E+03  0.15679609279E+03  0.47000000000E+01 0. -1.
         -5    1    3    3    0  503 -0.63242007592E+02 -0.95048640961E+00 -0.32881112118E+02  0.71440272135E+02  0.47000000000E+01 0.  1.
<mgrwt>
<rscale>  0 0.13081726E+03</rscale>
<asrwt>0</asrwt>
<pdfrwt beam="1">  1        1 0.12091482E+00 0.13151695E+03</pdfrwt>
<pdfrwt beam="2">  1       -1 0.43096461E-02 0.13151695E+03</pdfrwt>
<totfact> 0.50529203E+03</totfact>
</mgrwt>
</event>
<event>
 8    1  0.2964543E-004  0.1022557E+03  0.7546771E-02  0.1277927E+00
         -2   -1    0    0    0  501 -0.00000000000E+00  0.00000000000E+00  0.77149256774E+02  0.77149256774E+02  0.00000000000E+00 0.  1.
          2   -1    0    0  501    0  0.00000000000E+00 -0.00000000000E+00 -0.18292966524E+03  0.18292966524E+03  0.00000000000E+00 0. -1.
         23    2    1    2    0    0  0.28560145674E+02  0.29419055996E+02 -0.12381845499E+03  0.16058406333E+03  0.93675337317E+02 0.  0.
         23    2    1    2    0    0 -0.28560145674E+02 -0.29419055996E+02  0.18038046528E+02  0.99494858685E+02  0.88840829609E+02 0.  0.
          5    1    3    3  502    0  0.19734509033E+02 -0.30924578920E+02 -0.69737859341E+02  0.78938200218E+02  0.47000000000E+01 0. -1.
         -5    1    3    3    0  502  0.88256366405E+01  0.60343634916E+02 -0.54080595653E+02  0.81645863111E+02  0.47000000000E+01 0.  1.
          5    1    4    4  503    0 -0.23401041666E+02 -0.59012134176E+02  0.24852372965E+02  0.68335723988E+02  0.47000000000E+01 0. -1.
         -5    1    4    4    0  503 -0.51591040073E+01  0.29593078179E+02 -0.68143264362E+01  0.31159134697E+02  0.47000000000E+01 0.  1.
<mgrwt>
<rscale>  0 0.10113502E+03</rscale>
<asrwt>0</asrwt>
<pdfrwt beam="1">  1        2 0.28143025E-01 0.10225572E+03</pdfrwt>
<pdfrwt beam="2">  1       -2 0.11869117E-01 0.10225572E+03</pdfrwt>
<totfact> 0.87523545E+03</totfact>
</mgrwt>
</event>
<event>
 8    1  0.2964543E-004  0.9461885E+02  0.7546771E-02  0.1292413E+00
          3   -1    0    0  501    0  0.00000000000E+00  0.00000000000E+00  0.10232583902E+03  0.10232583902E+03  0.00000000000E+00 0. -1.
         -3   -1    0    0    0  501 -0.00000000000E+00 -0.00000000000E+00 -0.16122624242E+03  0.16122624242E+03  0.00000000000E+00 0.  1.
         23    2    1    2    0    0 -0.16476087064E+02 -0.23875309235E+02 -0.11887802605E+03  0.15152511208E+03  0.89366563519E+02 0.  0.
         23    2    1    2    0    0  0.16476087064E+02  0.23875309235E+02  0.59977622658E+02  0.11202696937E+03  0.90062393981E+02 0.  0.
          5    1    3    3  502    0  0.27412020745E+02 -0.15386646312E+02 -0.93473545415E+01  0.33130511662E+02  0.47000000000E+01 0. -1.
         -5    1    4    4    0  503 -0.80654159437E+01 -0.28453799546E+02  0.41478535498E+02  0.51158856027E+02  0.47000000000E+01 0.  1.
          5    1    4    4  503    0  0.24541503007E+02  0.52329108781E+02  0.18499087160E+02  0.60868113339E+02  0.47000000000E+01 0. -1.
         -5    1    3    3    0  502 -0.43888107809E+02 -0.84886629234E+01 -0.10953067151E+03  0.11839460041E+03  0.47000000000E+01 0.  1.
<mgrwt>
<rscale>  0 0.94452893E+02</rscale>
<asrwt>0</asrwt>
<pdfrwt beam="1">  1        3 0.15742437E-01 0.94618849E+02</pdfrwt>
<pdfrwt beam="2">  1       -3 0.24804037E-01 0.94618849E+02</pdfrwt>
<totfact> 0.11255897E+03</totfact>
</mgrwt>
</event>
<event>
 8    1  0.2964543E-004  0.1307604E+03  0.7546771E-02  0.1239659E+00
         -2   -1    0    0    0  501 -0.00000000000E+00  0.00000000000E+00  0.21116301992E+02  0.21116301992E+02  0.00000000000E+00 0.  1.
          2   -1    0    0  501    0  0.00000000000E+00 -0.00000000000E+00 -0.62737783856E+03  0.62737783856E+03  0.00000000000E+00 0. -1.
         23    2    1    2    0    0  0.75967867399E+02 -0.15900625433E+02 -0.26071984141E+03  0.27903868100E+03  0.62159496640E+02 0.  0.
         23    2    1    2    0    0 -0.75967867399E+02  0.15900625433E+02 -0.34554169516E+03  0.36945545955E+03  0.10523462707E+03 0.  0.
          5    1    4    4  502    0 -0.16564061093E+02  0.26365424015E+02 -0.27381516098E+03  0.27561991235E+03  0.47000000000E+01 0. -1.
         -5    1    3    3    0  503  0.22284412333E+02 -0.35367370391E+02 -0.11573276288E+03  0.12314060388E+03  0.47000000000E+01 0.  1.
          5    1    3    3  503    0  0.53683455066E+02  0.19466744958E+02 -0.14498707854E+03  0.15589807712E+03  0.47000000000E+01 0. -1.
         -5    1    4    4    0  502 -0.59403806306E+02 -0.10464798582E+02 -0.71726534181E+02  0.93835547202E+02  0.47000000000E+01 0.  1.
<mgrwt>
<rscale>  0 0.12210805E+03</rscale>
<asrwt>0</asrwt>
<pdfrwt beam="1">  1        2 0.96519664E-01 0.13076037E+03</pdfrwt>
<pdfrwt beam="2">  1       -2 0.32486619E-02 0.13076037E+03</pdfrwt>
<totfact> 0.16990105E+04</totfact>
</mgrwt>
</event>
<event>
 8    1  0.2964543E-004  0.1144771E+03  0.7546771E-02  0.1260692E+00
         -1   -1    0    0    0  501 -0.00000000000E+00  0.00000000000E+00  0.49158837029E+02  0.49158837029E+02  0.00000000000E+00 0.  1.
          1   -1    0    0  501    0  0.00000000000E+00 -0.00000000000E+00 -0.46264875831E+03  0.46264875831E+03  0.00000000000E+00 0. -1.
         23    2    1    2    0    0  0.33189959112E+02  0.94969997825E+01 -0.33115005097E+02  0.11917051888E+03  0.10914780170E+03 0.  0.
         23    2    1    2    0    0 -0.33189959112E+02 -0.94969997825E+01 -0.38037491619E+03  0.39263707646E+03  0.91033128897E+02 0.  0.
          5    1    4    4  502    0 -0.60554896356E+02 -0.47384398426E+01 -0.32328614245E+03  0.32897624258E+03  0.47000000000E+01 0. -1.
         -5    1    3    3    0  503  0.60135382783E+02 -0.23285483091E+01  0.15343089467E+02  0.62283118050E+02  0.47000000000E+01 0.  1.
          5    1    3    3  503    0 -0.26945423671E+02  0.11825548092E+02 -0.48458094564E+02  0.56887400831E+02  0.47000000000E+01 0. -1.
         -5    1    4    4    0  502  0.27364937244E+02 -0.47585599399E+01 -0.57088773739E+02  0.63660833879E+02  0.47000000000E+01 0.  1.
<mgrwt>
<rscale>  0 0.10993428E+03</rscale>
<asrwt>0</asrwt>
<pdfrwt beam="1">  1        1 0.71176730E-01 0.11447711E+03</pdfrwt>
<pdfrwt beam="2">  1       -1 0.75628982E-02 0.11447711E+03</pdfrwt>
<totfact> 0.44962169E+03</totfact>
</mgrwt>
</event>
<event>
 8    1  0.2964543E-004  0.1064281E+03  0.7546771E-02  0.1270022E+00
          2   -1    0    0  501    0  0.00000000000E+00  0.00000000000E+00  0.47849618542E+03  0.47849618542E+03  0.00000000000E+00 0. -1.
         -2   -1    0    0    0  501 -0.00000000000E+00 -0.00000000000E+00 -0.95387827645E+02  0.95387827645E+02  0.00000000000E+00 0.  1.
         23    2    1    2    0    0  0.42403093091E+02 -0.26286663311E+02 -0.58102885536E+02  0.12125546136E+03  0.94010268748E+02 0.  0.
         23    2    1    2    0    0 -0.42403093091E+02  0.26286663311E+02  0.44121124332E+03  0.45262855171E+03  0.87842094825E+02 0.  0.
          5    1    4    4  502    0 -0.64779213976E+02  0.37596705007E+01  0.23121901222E+03  0.24019742567E+03  0.47000000000E+01 0. -1.
         -5    1    4    4    0  502  0.22376120884E+02  0.22526992810E+02  0.20999223110E+03  0.21243112604E+03  0.47000000000E+01 0.  1.
          5    1    3    3  503    0  0.61887892849E+02 -0.44046063652E+02 -0.28324364912E+02  0.81206690933E+02  0.47000000000E+01 0. -1.
         -5    1    3    3    0  503 -0.19484799758E+02  0.17759400341E+02 -0.29778520624E+02  0.40048770426E+02  0.47000000000E+01 0.  1.
<mgrwt>
<rscale>  0 0.10504979E+03</rscale>
<asrwt>0</asrwt>
<pdfrwt beam="1">  1        2 0.73614796E-01 0.10642811E+03</pdfrwt>
<pdfrwt beam="2">  1       -2 0.14675051E-01 0.10642811E+03</pdfrwt>
<totfact> 0.22537571E+03</totfact>
</mgrwt>
</event>
<event>
 8    1  0.2964543E-004  0.9584443E+02  0.7546771E-02  0.1289307E+00
          1   -1    0    0  501    0  0.00000000000E+00  0.00000000000E+00  0.82168170654E+03  0.82168170654E+03  0.00000000000E+00 0. -1.
         -1   -1    0    0    0  501 -0.00000000000E+00 -0.00000000000E+00 -0.11179518064E+02  0.11179518064E+02  0.00000000000E+00 0.  1.
         23    2    1    2    0    0  0.22108218395E+02 -0.16180597027E+02  0.41334806073E+03  0.42430577346E+03  0.91805147166E+02 0.  0.
         23    2    1    2    0    0 -0.22108218395E+02  0.16180597027E+02  0.39715412775E+03  0.40855545114E+03  0.91845361493E+02 0.  0.
          5    1    4    4  502    0  0.17649488349E+02  0.17450189177E+02  0.29981503463E+02  0.39204516209E+02  0.47000000000E+01 0. -1.
         -5    1    4    4    0  502 -0.39757706744E+02 -0.12695921493E+01  0.36717262428E+03  0.36935093493E+03  0.47000000000E+01 0.  1.
          5    1    3    3  503    0  0.56580289683E+02 -0.69345090151E+01  0.29912246690E+03  0.30454188021E+03  0.47000000000E+01 0. -1.
         -5    1    3    3    0  503 -0.34472071289E+02 -0.92460880121E+01  0.11422559383E+03  0.11976389325E+03  0.47000000000E+01 0.  1.
<mgrwt>
<rscale>  0 0.95834798E+02</rscale>
<asrwt>0</asrwt>
<pdfrwt beam="1">  1        1 0.12641252E+00 0.95844434E+02</pdfrwt>
<pdfrwt beam="2">  1       -1 0.17199265E-02 0.95844434E+02</pdfrwt>
<totfact> 0.17474613E+04</totfact>
</mgrwt>
</event>
<event>
 7    1  0.2964543E-004  0.1087723E+03  0.7546771E-02  0.1285964E+00
         -1   -1    0    0    0  501 -0.00000000000E+00  0.00000000000E+00  0.39446850967E+02  0.39446850967E+02  0.00000000000E+00 0.  1.
          1   -1    0    0  501    0  0.00000000000E+00 -0.00000000000E+00 -0.37455598432E+03  0.37455598432E+03  0.00000000000E+00 0. -1.
         23    2    1    2    0    0  0.50979061469E+02  0.32200118050E+02 -0.32593603585E+03  0.34360690779E+03  0.90530079583E+02 0.  0.
          5    1    1    2  502    0 -0.43166268495E+02 -0.83611010630E+01 -0.71424305265E+01  0.44792176333E+02  0.47000000000E+01 0.  1.
         -5    1    3    3    0  503  0.27932019500E+02 -0.26419807859E+02 -0.18725853304E+03  0.19122252000E+03  0.47000000000E+01 0. -1.
          5    1    3    3  503    0  0.23047041970E+02  0.58619925910E+02 -0.13867750281E+03  0.15238438779E+03  0.47000000000E+01 0.  1.
         -5    1    1    2    0  502 -0.78127929742E+01 -0.23839016987E+02 -0.20306669755E+01  0.25603751158E+02  0.47000000000E+01 0. -1.
<mgrwt>
<rscale>  0 0.97352215E+02</rscale>
<asrwt>0</asrwt>
<pdfrwt beam="1">  1        1 0.57623996E-01 0.10877227E+03</pdfrwt>
<pdfrwt beam="2">  1       -1 0.60687464E-02 0.10877227E+03</pdfrwt>
<totfact> 0.81151256E+03</totfact>
</mgrwt>
</event>
<event>
 8    1  0.2964543E-004  0.1311680E+03  0.7546771E-02  0.1227791E+00
          1   -1    0    0  501    0  0.00000000000E+00  0.00000000000E+00  0.75536096578E+03  0.75536096578E+03  0.00000000000E+00 0. -1.
         -1   -1    0    0    0  501 -0.00000000000E+00 -0.00000000000E+00 -0.38404513203E+02  0.38404513203E+02  0.00000000000E+00 0.  1.
         23    2    1    2    0    0 -0.89987725712E+02 -0.20948862936E+02  0.93465378138E+02  0.15662642511E+03  0.85202197704E+02 0.  0.
         23    2    1    2    0    0  0.89987725712E+02  0.20948862936E+02  0.62349107444E+03  0.63713905388E+03  0.93104287944E+02 0.  0.
          5    1    3    3  502    0 -0.39109329064E+02  0.10240147162E+02  0.87457154107E+02  0.96463692850E+02  0.47000000000E+01 0. -1.
         -5    1    4    4    0  503  0.57104646908E+01 -0.31104835530E+02  0.15770786663E+03  0.16091606942E+03  0.47000000000E+01 0.  1.
          5    1    4    4  503    0  0.84277261021E+02  0.52053698467E+02  0.46578320781E+03  0.47622298446E+03  0.47000000000E+01 0. -1.
         -5    1    3    3    0  502 -0.50878396648E+02 -0.31189010099E+02  0.60082240309E+01  0.60162732255E+02  0.47000000000E+01 0.  1.
<mgrwt>
<rscale>  0 0.12977457E+03</rscale>
<asrwt>0</asrwt>
<pdfrwt beam="1">  1        1 0.11620937E+00 0.13116804E+03</pdfrwt>
<pdfrwt beam="2">  1       -1 0.59083872E-02 0.13116804E+03</pdfrwt>
<totfact> 0.33605075E+03</totfact>
</mgrwt>
</event>
<event>
 8    1  0.2964543E-004  0.9374912E+02  0.7546771E-02  0.1295716E+00
          2   -1    0    0  501    0  0.00000000000E+00  0.00000000000E+00  0.14890428321E+03  0.14890428321E+03  0.00000000000E+00 0. -1.
         -2   -1    0    0    0  501 -0.00000000000E+00 -0.00000000000E+00 -0.62674899829E+02  0.62674899829E+02  0.00000000000E+00 0.  1.
         23    2    1    2    0    0  0.26145629658E+01 -0.13866485883E+02  0.11245976022E+02  0.91531651580E+02  0.89735477343E+02 0.  0.
         23    2    1    2    0    0 -0.26145629658E+01  0.13866485883E+02  0.74983407361E+02  0.12004753146E+03  0.92681082536E+02 0.  0.
          5    1    3    3  502    0 -0.77975184068E+01  0.25632921914E+02  0.34780620247E+02  0.44154609317E+02  0.47000000000E+01 0. -1.
         -5    1    4    4    0  503 -0.12288577193E+02 -0.24809302120E+02 -0.68436445262E+01  0.28903911007E+02  0.47000000000E+01 0.  1.
          5    1    4    4  503    0  0.96740142268E+01  0.38675788003E+02  0.81827051887E+02  0.91143620454E+02  0.47000000000E+01 0. -1.
         -5    1    3    3    0  502  0.10412081373E+02 -0.39499407797E+02 -0.23534644225E+02  0.47377042263E+02  0.47000000000E+01 0.  1.
<mgrwt>
<rscale>  0 0.93012753E+02</rscale>
<asrwt>0</asrwt>
<pdfrwt beam="1">  1        2 0.22908351E-01 0.93749125E+02</pdfrwt>
<pdfrwt beam="2">  1       -2 0.96422923E-02 0.93749125E+02</pdfrwt>
<totfact> 0.15050419E+04</totfact>
</mgrwt>
</event>
<event>
 8    1  0.2964543E-004  0.9578364E+02  0.7546771E-02  0.1290171E+00
         -1   -1    0    0    0  501 -0.00000000000E+00  0.00000000000E+00  0.76192048795E+02  0.76192048795E+02  0.00000000000E+00 0.  1.
          1   -1    0    0  501    0  0.00000000000E+00 -0.00000000000E+00 -0.19500143218E+03  0.19500143218E+03  0.00000000000E+00 0. -1.
         23    2    1    2    0    0 -0.17877931559E+02  0.21023979949E+02 -0.14445611375E+03  0.17332649591E+03  0.91721737959E+02 0.  0.
         23    2    1    2    0    0  0.17877931559E+02 -0.21023979949E+02  0.25646730367E+02  0.97866985065E+02  0.90324768571E+02 0.  0.
          5    1    4    4  502    0  0.33326777708E+01  0.28906701339E+02 -0.13681153622E+02  0.32495662601E+02  0.47000000000E+01 0. -1.
         -5    1    4    4    0  502  0.14545253788E+02 -0.49930681288E+02  0.39327883989E+02  0.65371322464E+02  0.47000000000E+01 0.  1.
          5    1    3    3  503    0  0.17158586373E+02  0.38590560042E+02 -0.11899059936E+03  0.12635070695E+03  0.47000000000E+01 0. -1.
         -5    1    3    3    0  503 -0.35036517933E+02 -0.17566580093E+02 -0.25465514389E+02  0.46975788957E+02  0.47000000000E+01 0.  1.
<mgrwt>
<rscale>  0 0.95447657E+02</rscale>
<asrwt>0</asrwt>
<pdfrwt beam="1">  1        1 0.30000220E-01 0.95783638E+02</pdfrwt>
<pdfrwt beam="2">  1       -1 0.11721854E-01 0.95783638E+02</pdfrwt>
<totfact> 0.66678490E+03</totfact>
</mgrwt>
</event>
<event>
 8    1  0.2964543E-004  0.1586429E+03  0.7546771E-02  0.1190350E+00
          2   -1    0    0  501    0  0.00000000000E+00  0.00000000000E+00  0.67315530773E+03  0.67315530773E+03  0.00000000000E+00 0. -1.
         -2   -1    0    0    0  501 -0.00000000000E+00 -0.00000000000E+00 -0.40109869859E+02  0.40109869859E+02  0.00000000000E+00 0.  1.
         23    2    1    2    0    0 -0.61840192152E+02 -0.11468910156E+03  0.41136676478E+03  0.44089701601E+03  0.90497315883E+02 0.  0.
         23    2    1    2    0    0  0.61840192152E+02  0.11468910156E+03  0.22167867309E+03  0.27236816158E+03  0.89806358101E+02 0.  0.
          5    1    3    3  502    0 -0.79979366352E+02 -0.10620455857E+03  0.30799061888E+03  0.33549429000E+03  0.47000000000E+01 0. -1.
         -5    1    3    3    0  502  0.18139174200E+02 -0.84845429901E+01  0.10337614590E+03  0.10540272601E+03  0.47000000000E+01 0.  1.
          5    1    4    4  503    0  0.50969488589E+02  0.66522673263E+02  0.20246779802E+03  0.21917676442E+03  0.47000000000E+01 0. -1.
         -5    1    4    4    0  503  0.10870703563E+02  0.48166428294E+02  0.19210875069E+02  0.53191397157E+02  0.47000000000E+01 0.  1.
<mgrwt>
<rscale>  0 0.15854450E+03</rscale>
<asrwt>0</asrwt>
<pdfrwt beam="1">  1        2 0.10356235E+00 0.15864288E+03</pdfrwt>
<pdfrwt beam="2">  1       -2 0.61707497E-02 0.15864288E+03</pdfrwt>
<totfact> 0.60661664E+03</totfact>
</mgrwt>
</event>
<event>
 8    1  0.2964543E-004  0.1209622E+03  0.7546771E-02  0.1242055E+00
          2   -1    0    0  501    0  0.00000000000E+00  0.00000000000E+00  0.40517842018E+03  0.40517842018E+03  0.00000000000E+00 0. -1.
         -2   -1    0    0    0  501 -0.00000000000E+00 -0.00000000000E+00 -0.48596636504E+02  0.48596636504E+02  0.00000000000E+00 0.  1.
         23    2    1    2    0    0 -0.71141035447E+02  0.36102727215E+02  0.29578215565E+03  0.31956053791E+03  0.90925243780E+02 0.  0.
         23    2    1    2    0    0  0.71141035447E+02 -0.36102727215E+02  0.60799628027E+02  0.13421451877E+03  0.89176725903E+02 0.  0.
          5    1    3    3  502    0 -0.33066491039E+02 -0.29752611132E+02  0.10672093437E+03  0.11571542046E+03  0.47000000000E+01 0. -1.
         -5    1    3    3    0  502 -0.38074544409E+02  0.65855338347E+02  0.18906122128E+03  0.20384511746E+03  0.47000000000E+01 0. -1.
          5    1    4    4  503    0  0.15282120924E+02 -0.57248829876E+02  0.25517502158E+02  0.64685428486E+02  0.47000000000E+01 0. -1.
         -5    1    4    4    0  503  0.55858914523E+02  0.21146102660E+02  0.35282125868E+02  0.69529090281E+02  0.47000000000E+01 0.  1.
<mgrwt>
<rscale>  0 0.12063367E+03</rscale>
<asrwt>0</asrwt>
<pdfrwt beam="1">  1        2 0.62335139E-01 0.12096220E+03</pdfrwt>
<pdfrwt beam="2">  1       -2 0.74764059E-02 0.12096220E+03</pdfrwt>
<totfact> 0.78306980E+03</totfact>
</mgrwt>
</event>
<event>
 8    1  0.2964543E-004  0.9500690E+02  0.7546771E-02  0.1291270E+00
          3   -1    0    0  501    0  0.00000000000E+00  0.00000000000E+00  0.25072217090E+03  0.25072217090E+03  0.00000000000E+00 0. -1.
         -3   -1    0    0    0  501 -0.00000000000E+00 -0.00000000000E+00 -0.35927914122E+02  0.35927914122E+02  0.00000000000E+00 0.  1.
         23    2    1    2    0    0 -0.14684575984E+02  0.22305674338E+02  0.10702285744E+03  0.14298037835E+03  0.90974263936E+02 0.  0.
         23    2    1    2    0    0  0.14684575984E+02 -0.22305674338E+02  0.10777139933E+03  0.14366970667E+03  0.91176368762E+02 0.  0.
          5    1    3    3  502    0 -0.18620324948E+02 -0.32247940413E+02  0.28300258584E+02  0.47006816505E+02  0.47000000000E+01 0. -1.
         -5    1    4    4    0  503  0.20713844767E+02  0.34743560536E+01 -0.93757092711E+01  0.23476124879E+02  0.47000000000E+01 0.  1.
          5    1    4    4  503    0 -0.60292687828E+01 -0.25780030391E+02  0.11714710860E+03  0.12019358179E+03  0.47000000000E+01 0. -1.
         -5    1    3    3    0  502  0.39357489635E+01  0.54553614751E+02  0.78722598860E+02  0.95973561847E+02  0.47000000000E+01 0.  1.
<mgrwt>
<rscale>  0 0.94958373E+02</rscale>
<asrwt>0</asrwt>
<pdfrwt beam="1">  1        3 0.38572641E-01 0.95006895E+02</pdfrwt>
<pdfrwt beam="2">  1       -3 0.55273716E-02 0.95006895E+02</pdfrwt>
<totfact> 0.27610655E+03</totfact>
</mgrwt>
</event>
<event>
 8    1  0.2964543E-004  0.1178346E+03  0.7546771E-02  0.1247153E+00
         -2   -1    0    0    0  501 -0.00000000000E+00  0.00000000000E+00  0.44234025811E+02  0.44234025811E+02  0.00000000000E+00 0.  1.
          2   -1    0    0  501    0  0.00000000000E+00 -0.00000000000E+00 -0.43537434880E+03  0.43537434880E+03  0.00000000000E+00 0. -1.
         23    2    1    2    0    0 -0.10286137446E+02  0.72774898485E+02 -0.66854322709E+02  0.13457735655E+03  0.90772099001E+02 0.  0.
         23    2    1    2    0    0  0.10286137446E+02 -0.72774898485E+02 -0.32428600028E+03  0.34503101806E+03  0.92103219143E+02 0.  0.
          5    1    4    4  502    0 -0.36851881087E+02 -0.42063398459E+02 -0.11074144220E+03  0.12414969855E+03  0.47000000000E+01 0. -1.
         -5    1    4    4    0  502  0.47138018533E+02 -0.30711500026E+02 -0.21354455808E+03  0.22088131951E+03  0.47000000000E+01 0.  1.
          5    1    3    3  503    0  0.16688900209E+02  0.16880909110E+02 -0.68154824243E+02  0.72323264239E+02  0.47000000000E+01 0. -1.
         -5    1    3    3    0  503 -0.26975037655E+02  0.55893989375E+02  0.13005015341E+01  0.62254092307E+02  0.47000000000E+01 0.  1.
<mgrwt>
<rscale>  0 0.11757437E+03</rscale>
<asrwt>0</asrwt>
<pdfrwt beam="1">  1        2 0.66980669E-01 0.11783460E+03</pdfrwt>
<pdfrwt beam="2">  1       -2 0.68052348E-02 0.11783460E+03</pdfrwt>
<totfact> 0.83571660E+03</totfact>
</mgrwt>
</event>
<event>
 8    1  0.2964543E-004  0.9498923E+02  0.7546771E-02  0.1291935E+00
         -1   -1    0    0    0  501 -0.00000000000E+00  0.00000000000E+00  0.81899185385E+02  0.81899185385E+02  0.00000000000E+00 0.  1.
          1   -1    0    0  501    0  0.00000000000E+00 -0.00000000000E+00 -0.19368507625E+03  0.19368507625E+03  0.00000000000E+00 0. -1.
         23    2    1    2    0    0 -0.20186935475E+02 -0.73194064372E+01  0.35178678981E+02  0.10129409694E+03  0.92530365533E+02 0.  0.
         23    2    1    2    0    0  0.20186935475E+02  0.73194064372E+01 -0.14696456985E+03  0.17429016470E+03  0.91199729410E+02 0.  0.
          5    1    3    3  502    0  0.22268890004E+02 -0.28489743100E+02 -0.75920084530E+01  0.37246443001E+02  0.47000000000E+01 0. -1.
         -5    1    4    4    0  503 -0.35022510127E+02 -0.38959713157E+01 -0.72986944702E+02  0.81184597708E+02  0.47000000000E+01 0.  1.
          5    1    4    4  503    0  0.55209445602E+02  0.11215377753E+02 -0.73977625146E+02  0.93105566988E+02  0.47000000000E+01 0. -1.
         -5    1    3    3    0  502 -0.42455825479E+02  0.21170336663E+02  0.42770687434E+02  0.64047653939E+02  0.47000000000E+01 0.  1.
<mgrwt>
<rscale>  0 0.94663637E+02</rscale>
<asrwt>0</asrwt>
<pdfrwt beam="1">  1        1 0.29797704E-01 0.94989234E+02</pdfrwt>
<pdfrwt beam="2">  1       -1 0.12599875E-01 0.94989234E+02</pdfrwt>
<totfact> 0.60165742E+03</totfact>
</mgrwt>
</event>
<event>
 8    1  0.2964543E-004  0.9554274E+02  0.7546771E-02  0.1290721E+00
         -4   -1    0    0    0  501 -0.00000000000E+00  0.00000000000E+00  0.10207112144E+03  0.10207112144E+03  0.00000000000E+00 0.  1.
          4   -1    0    0  501    0  0.00000000000E+00 -0.00000000000E+00 -0.15769438321E+03  0.15769438321E+03  0.00000000000E+00 0. -1.
         23    2    1    2    0    0 -0.10965459905E+02 -0.20394455245E+02  0.58317409257E+02  0.11193451394E+03  0.92694336786E+02 0.  0.
         23    2    1    2    0    0  0.10965459905E+02  0.20394455245E+02 -0.11394067102E+03  0.14783099071E+03  0.91298138999E+02 0.  0.
          5    1    3    3  502    0  0.19294279076E+02 -0.49035737500E+02  0.39244689483E+02  0.65871150057E+02  0.47000000000E+01 0. -1.
         -5    1    4    4    0  503 -0.36909838345E+02 -0.67686896637E+01 -0.57752466895E+02  0.69033243868E+02  0.47000000000E+01 0.  1.
          5    1    4    4  503    0  0.47875298250E+02  0.27163144909E+02 -0.56188204128E+02  0.78797746839E+02  0.47000000000E+01 0. -1.
         -5    1    3    3    0  502 -0.30259738981E+02  0.28641282255E+02  0.19072719774E+02  0.46063363880E+02  0.47000000000E+01 0.  1.
<mgrwt>
<rscale>  0 0.95202435E+02</rscale>
<asrwt>0</asrwt>
<pdfrwt beam="1">  1        4 0.24260674E-01 0.95542740E+02</pdfrwt>
<pdfrwt beam="2">  1       -4 0.15703249E-01 0.95542740E+02</pdfrwt>
<totfact> 0.84148580E+02</totfact>
</mgrwt>
</event>
<event>
 8    1  0.2964543E-004  0.1048376E+03  0.7546771E-02  0.1270965E+00
         -1   -1    0    0    0  501 -0.00000000000E+00  0.00000000000E+00  0.13407357891E+02  0.13407357891E+02  0.00000000000E+00 0.  1.
          1   -1    0    0  501    0  0.00000000000E+00 -0.00000000000E+00 -0.81258604459E+03  0.81258604459E+03  0.00000000000E+00 0. -1.
         23    2    1    2    0    0  0.52714639958E+02 -0.32472253689E+01 -0.41657625489E+03  0.42956570734E+03  0.90562371013E+02 0.  0.
         23    2    1    2    0    0 -0.52714639958E+02  0.32472253689E+01 -0.38260243181E+03  0.39642769514E+03  0.89335988893E+02 0.  0.
          5    1    4    4  502    0 -0.52909546338E+02  0.25440619104E+02 -0.35858557094E+03  0.36339007537E+03  0.47000000000E+01 0. -1.
         -5    1    3    3    0  503  0.84349021541E+01 -0.38945701696E+02 -0.25651015197E+03  0.25962947313E+03  0.47000000000E+01 0.  1.
          5    1    3    3  503    0  0.44279737804E+02  0.35698476327E+02 -0.16006610292E+03  0.16993623421E+03  0.47000000000E+01 0. -1.
         -5    1    4    4    0  502  0.19490638001E+00 -0.22193393735E+02 -0.24016860869E+02  0.33037619769E+02  0.47000000000E+01 0.  1.
<mgrwt>
<rscale>  0 0.10457220E+03</rscale>
<asrwt>0</asrwt>
<pdfrwt beam="1">  1        1 0.12501327E+00 0.10483759E+03</pdfrwt>
<pdfrwt beam="2">  1       -1 0.20626699E-02 0.10483759E+03</pdfrwt>
<totfact> 0.13806928E+04</totfact>
</mgrwt>
</event>
<event>
 8    1  0.2964543E-004  0.1082051E+03  0.7546771E-02  0.1269795E+00
         -1   -1    0    0    0  501 -0.00000000000E+00  0.00000000000E+00  0.56652089474E+02  0.56652089474E+02  0.00000000000E+00 0.  1.
          1   -1    0    0  501    0  0.00000000000E+00 -0.00000000000E+00 -0.34295400757E+03  0.34295400757E+03  0.00000000000E+00 0. -1.
         23    2    1    2    0    0  0.14316734893E+02 -0.35499534902E+02 -0.12071560531E+02  0.10887638209E+03  0.10120848841E+03 0.  0.
         23    2    1    2    0    0 -0.14316734893E+02  0.35499534902E+02 -0.27423035757E+03  0.29072971496E+03  0.88635727969E+02 0.  0.
          5    1    4    4  502    0 -0.38124991359E+02 -0.13668757330E+02 -0.13740438074E+03  0.14332621442E+03  0.47000000000E+01 0. -1.
         -5    1    3    3    0  503  0.14924375897E+02  0.23398232717E+02  0.26218145769E+02  0.38466809820E+02  0.47000000000E+01 0.  1.
          5    1    3    3  503    0 -0.60764100345E+00 -0.58897767619E+02 -0.38289706300E+02  0.70409572266E+02  0.47000000000E+01 0. -1.
         -5    1    4    4    0  502  0.23808256465E+02  0.49168292232E+02 -0.13682597683E+03  0.14740350054E+03  0.47000000000E+01 0.  1.
<mgrwt>
<rscale>  0 0.10516504E+03</rscale>
<asrwt>0</asrwt>
<pdfrwt beam="1">  1        1 0.52762155E-01 0.10820510E+03</pdfrwt>
<pdfrwt beam="2">  1       -1 0.87157061E-02 0.10820510E+03</pdfrwt>
<totfact> 0.52706700E+03</totfact>
</mgrwt>
</event>
<event>
 8    1  0.2964543E-004  0.1071174E+03  0.7546771E-02  0.1267928E+00
         -1   -1    0    0    0  501 -0.00000000000E+00  0.00000000000E+00  0.43185126439E+02  0.43185126439E+02  0.00000000000E+00 0.  1.
          1   -1    0    0  501    0  0.00000000000E+00 -0.00000000000E+00 -0.70300957478E+03  0.70300957478E+03  0.00000000000E+00 0. -1.
         23    2    1    2    0    0  0.46224794403E+02 -0.43334531918E+00 -0.30186547403E+02  0.10751010527E+03  0.92251155468E+02 0.  0.
         23    2    1    2    0    0 -0.46224794403E+02  0.43334531918E+00 -0.62963790094E+03  0.63868459595E+03  0.96629226426E+02 0.  0.
          5    1    4    4  502    0 -0.63691007030E+02 -0.13646676715E+02 -0.58373654934E+03  0.58737826416E+03  0.47000000000E+01 0. -1.
         -5    1    4    4    0  502  0.17466212628E+02  0.14080022034E+02 -0.45901351596E+02  0.51306331796E+02  0.47000000000E+01 0.  1.
          5    1    3    3  503    0  0.11106904720E+02  0.24268326175E+02 -0.52361338500E+02  0.58958585102E+02  0.47000000000E+01 0. -1.
         -5    1    3    3    0  503  0.35117889683E+02 -0.24701671494E+02  0.22174791096E+02  0.48551520167E+02  0.47000000000E+01 0.  1.
<mgrwt>
<rscale>  0 0.10612050E+03</rscale>
<asrwt>0</asrwt>
<pdfrwt beam="1">  1        1 0.10815531E+00 0.10711735E+03</pdfrwt>
<pdfrwt beam="2">  1       -1 0.66438661E-02 0.10711735E+03</pdfrwt>
<totfact> 0.31070706E+03</totfact>
</mgrwt>
</event>
<event>
 8    1  0.2964543E-004  0.9317003E+02  0.7546771E-02  0.1296959E+00
         -2   -1    0    0    0  501 -0.00000000000E+00  0.00000000000E+00  0.29593334730E+02  0.29593334730E+02  0.00000000000E+00 0.  1.
          2   -1    0    0  501    0  0.00000000000E+00 -0.00000000000E+00 -0.43888377230E+03  0.43888377230E+03  0.00000000000E+00 0. -1.
         23    2    1    2    0    0 -0.22516305106E+02  0.51613580357E+01 -0.67833737827E+02  0.11524786740E+03  0.90260907040E+02 0.  0.
         23    2    1    2    0    0  0.22516305106E+02 -0.51613580357E+01 -0.34145669974E+03  0.35322923964E+03  0.87433370749E+02 0.  0.
          5    1    3    3  502    0  0.31399464671E+02 -0.74556849193E+01 -0.79826079958E+01  0.33575670502E+02  0.47000000000E+01 0. -1.
         -5    1    4    4    0  503 -0.13409286409E+02  0.18136606164E+02 -0.25569396542E+02  0.34418446866E+02  0.47000000000E+01 0.  1.
          5    1    4    4  503    0  0.35925591515E+02 -0.23297964200E+02 -0.31588730320E+03  0.31881079277E+03  0.47000000000E+01 0. -1.
         -5    1    3    3    0  502 -0.53915769777E+02  0.12617042955E+02 -0.59851129831E+02  0.81672196895E+02  0.47000000000E+01 0.  1.
<mgrwt>
<rscale>  0 0.92478232E+02</rscale>
<asrwt>0</asrwt>
<pdfrwt beam="1">  1        2 0.67520581E-01 0.93170032E+02</pdfrwt>
<pdfrwt beam="2">  1       -2 0.45528207E-02 0.93170032E+02</pdfrwt>
<totfact> 0.14859565E+04</totfact>
</mgrwt>
</event>
<event>
 8    1  0.2964543E-004  0.1003360E+03  0.7546771E-02  0.1284288E+00
          3   -1    0    0  501    0  0.00000000000E+00  0.00000000000E+00  0.12336960813E+03  0.12336960813E+03  0.00000000000E+00 0. -1.
         -3   -1    0    0    0  501 -0.00000000000E+00 -0.00000000000E+00 -0.89995842253E+02  0.89995842253E+02  0.00000000000E+00 0.  1.
         23    2    1    2    0    0  0.41787572772E+02 -0.21008329326E+02 -0.27741475281E+02  0.95881882554E+02  0.78969581562E+02 0.  0.
         23    2    1    2    0    0 -0.41787572772E+02  0.21008329326E+02  0.61115241159E+02  0.11748356783E+03  0.88768039682E+02 0.  0.
          5    1    4    4  502    0 -0.14097240168E+02  0.34209874270E+02  0.74786668957E+02  0.83571427723E+02  0.47000000000E+01 0. -1.
         -5    1    4    4    0  502 -0.27690332603E+02 -0.13201544944E+02 -0.13671427799E+02  0.33912140107E+02  0.47000000000E+01 0.  1.
          5    1    3    3  503    0  0.56727670892E+02 -0.38539238239E+01 -0.39941732702E+02  0.69644191322E+02  0.47000000000E+01 0. -1.
         -5    1    3    3    0  503 -0.14940098121E+02 -0.17154405502E+02  0.12200257422E+02  0.26237691231E+02  0.47000000000E+01 0.  1.
<mgrwt>
<rscale>  0 0.98125254E+02</rscale>
<asrwt>0</asrwt>
<pdfrwt beam="1">  1        3 0.18979940E-01 0.10033602E+03</pdfrwt>
<pdfrwt beam="2">  1       -3 0.13845514E-01 0.10033602E+03</pdfrwt>
<totfact> 0.22683277E+03</totfact>
</mgrwt>
</event>
<event>
 8    1  0.2964543E-004  0.1028443E+03  0.7546771E-02  0.1274983E+00
          2   -1    0    0  501    0  0.00000000000E+00  0.00000000000E+00  0.41122194550E+03  0.41122194550E+03  0.00000000000E+00 0. -1.
         -2   -1    0    0    0  501 -0.00000000000E+00 -0.00000000000E+00 -0.47045374280E+02  0.47045374280E+02  0.00000000000E+00 0.  1.
         23    2    1    2    0    0 -0.50540226741E+01 -0.45772799685E+02  0.26313328026E+02  0.10509806534E+03  0.90733234097E+02 0.  0.
         23    2    1    2    0    0  0.50540226741E+01  0.45772799685E+02  0.33786324320E+03  0.35316925444E+03  0.91957918887E+02 0.  0.
          5    1    4    4  502    0 -0.65837743858E+01  0.68429479701E+02  0.17188563180E+03  0.18518288310E+03  0.47000000000E+01 0. -1.
         -5    1    3    3    0  503 -0.20014700997E+02 -0.19772239988E+02 -0.29828255063E+02  0.41271594714E+02  0.47000000000E+01 0.  1.
          5    1    3    3  503    0  0.14960678323E+02 -0.26000559697E+02  0.56141583089E+02  0.63826470623E+02  0.47000000000E+01 0. -1.
         -5    1    4    4    0  502  0.11637797060E+02 -0.22656680016E+02  0.16597761140E+03  0.16798637134E+03  0.47000000000E+01 0.  1.
<mgrwt>
<rscale>  0 0.10256982E+03</rscale>
<asrwt>0</asrwt>
<pdfrwt beam="1">  1        2 0.63264912E-01 0.10284431E+03</pdfrwt>
<pdfrwt beam="2">  1       -2 0.72377502E-02 0.10284431E+03</pdfrwt>
<totfact> 0.80078612E+03</totfact>
</mgrwt>
</event>
<event>
 8    1  0.2964543E-004  0.1213627E+03  0.7546771E-02  0.1241251E+00
          1   -1    0    0  501    0  0.00000000000E+00  0.00000000000E+00  0.46851753344E+03  0.46851753344E+03  0.00000000000E+00 0. -1.
         -1   -1    0    0    0  501 -0.00000000000E+00 -0.00000000000E+00 -0.72203376410E+02  0.72203376410E+02  0.00000000000E+00 0.  1.
         23    2    1    2    0    0  0.68341292858E+02  0.39940102608E+02 -0.59320932931E+01  0.12056504573E+03  0.90746881020E+02 0.  0.
         23    2    1    2    0    0 -0.68341292858E+02 -0.39940102608E+02  0.40224625032E+03  0.42015586412E+03  0.91995435491E+02 0.  0.
          5    1    4    4  502    0 -0.12806776620E+02 -0.48080086730E+02  0.29313107969E+03  0.29736110732E+03  0.47000000000E+01 0. -1.
         -5    1    3    3    0  503  0.71748504151E+02  0.17449101584E+02 -0.36233524603E+02  0.82384933690E+02  0.47000000000E+01 0.  1.
          5    1    3    3  503    0 -0.34072112924E+01  0.22491001024E+02  0.30301431310E+02  0.38180112039E+02  0.47000000000E+01 0. -1.
         -5    1    4    4    0  502 -0.55534516238E+02  0.81399841226E+01  0.10911517063E+03  0.12279475680E+03  0.47000000000E+01 0.  1.
<mgrwt>
<rscale>  0 0.12112609E+03</rscale>
<asrwt>0</asrwt>
<pdfrwt beam="1">  1        1 0.72079619E-01 0.12136270E+03</pdfrwt>
<pdfrwt beam="2">  1       -1 0.11108212E-01 0.12136270E+03</pdfrwt>
<totfact> 0.24789003E+03</totfact>
</mgrwt>
</event>
<event>
 8    1  0.2964543E-004  0.1024780E+03  0.7546771E-02  0.1278671E+00
          1   -1    0    0  501    0  0.00000000000E+00  0.00000000000E+00  0.73697742147E+02  0.73697742147E+02  0.00000000000E+00 0. -1.
         -1   -1    0    0    0  501 -0.00000000000E+00 -0.00000000000E+00 -0.13907570912E+03  0.13907570912E+03  0.00000000000E+00 0.  1.
         23    2    1    2    0    0  0.86256675841E+01 -0.43733945457E+02 -0.53086271053E+02  0.10956093047E+03  0.84843297824E+02 0.  0.
         23    2    1    2    0    0 -0.86256675841E+01  0.43733945457E+02 -0.12291695918E+02  0.10321252079E+03  0.92275015757E+02 0.  0.
          5    1    3    3  502    0 -0.35953829994E+02 -0.55043946952E+01 -0.24254478516E+02  0.43969830342E+02  0.47000000000E+01 0. -1.
         -5    1    4    4    0  503 -0.95150845478E+01 -0.27337348121E+02  0.53957891937E+01  0.29817310028E+02  0.47000000000E+01 0.  1.
          5    1    4    4  503    0  0.88941696369E+00  0.71071293578E+02 -0.17687485112E+02  0.73395210764E+02  0.47000000000E+01 0. -1.
         -5    1    3    3    0  502  0.44579497578E+02 -0.38229550762E+02 -0.28831792537E+02  0.65591100133E+02  0.47000000000E+01 0.  1.
<mgrwt>
<rscale>  0 0.10077678E+03</rscale>
<asrwt>0</asrwt>
<pdfrwt beam="1">  1        1 0.11338114E-01 0.10247799E+03</pdfrwt>
<pdfrwt beam="2">  1       -1 0.21396263E-01 0.10247799E+03</pdfrwt>
<totfact> 0.89798063E+03</totfact>
</mgrwt>
</event>
<event>
 8    1  0.2964543E-004  0.1470467E+03  0.7546771E-02  0.1206725E+00
          1   -1    0    0  501    0  0.00000000000E+00  0.00000000000E+00  0.61916363075E+03  0.61916363075E+03  0.00000000000E+00 0. -1.
         -1   -1    0    0    0  501 -0.00000000000E+00 -0.00000000000E+00 -0.62528182009E+02  0.62528182009E+02  0.00000000000E+00 0.  1.
         23    2    1    2    0    0  0.11057170499E+03 -0.32980904684E+02  0.40317024871E+02  0.14484226471E+03  0.77717289802E+02 0.  0.
         23    2    1    2    0    0 -0.11057170499E+03  0.32980904684E+02  0.51631842387E+03  0.53684954805E+03  0.91153060249E+02 0.  0.
          5    1    4    4  502    0 -0.72295282641E+02 -0.16709030460E+02  0.18087240379E+03  0.19555744947E+03  0.47000000000E+01 0. -1.
         -5    1    4    4    0  502 -0.38276422349E+02  0.49689935145E+02  0.33544602008E+03  0.34129209858E+03  0.47000000000E+01 0.  1.
          5    1    3    3  503    0  0.63092751207E+02  0.15732079325E+02  0.40322925897E+02  0.76656519146E+02  0.47000000000E+01 0. -1.
         -5    1    3    3    0  503  0.47478953784E+02 -0.48712984009E+02 -0.59010258903E-02  0.68185745566E+02  0.47000000000E+01 0.  1.
<mgrwt>
<rscale>  0 0.14502311E+03</rscale>
<asrwt>0</asrwt>
<pdfrwt beam="1">  1        1 0.95255939E-01 0.14704667E+03</pdfrwt>
<pdfrwt beam="2">  1       -1 0.96197207E-02 0.14704667E+03</pdfrwt>
<totfact> 0.21468894E+03</totfact>
</mgrwt>
</event>
<event>
 8    1  0.2964543E-004  0.9942882E+02  0.7546771E-02  0.1282172E+00
          1   -1    0    0  501    0  0.00000000000E+00  0.00000000000E+00  0.16141579465E+03  0.16141579465E+03  0.00000000000E+00 0. -1.
         -1   -1    0    0    0  501 -0.00000000000E+00 -0.00000000000E+00 -0.60798777023E+02  0.60798777023E+02  0.00000000000E+00 0.  1.
         23    2    1    2    0    0  0.34070425088E+02 -0.15101656969E+02  0.41871316892E+02  0.10672800073E+03  0.90822932414E+02 0.  0.
         23    2    1    2    0    0 -0.34070425088E+02  0.15101656969E+02  0.58745700735E+02  0.11548657094E+03  0.92180457825E+02 0.  0.
          5    1    4    4  502    0  0.16759069319E+01 -0.31690397086E+02  0.44262750941E+02  0.54665995394E+02  0.47000000000E+01 0. -1.
         -5    1    4    4    0  502 -0.35746332020E+02  0.46792054055E+02  0.14482949794E+02  0.60820575551E+02  0.47000000000E+01 0.  1.
          5    1    3    3  503    0  0.51836870976E+02  0.28479380951E+01 -0.59275644851E+01  0.52463301122E+02  0.47000000000E+01 0. -1.
         -5    1    3    3    0  503 -0.17766445887E+02 -0.17949595064E+02  0.47798881377E+02  0.54264699606E+02  0.47000000000E+01 0.  1.
<mgrwt>
<rscale>  0 0.99113010E+02</rscale>
<asrwt>0</asrwt>
<pdfrwt beam="1">  1        1 0.24833199E-01 0.99428822E+02</pdfrwt>
<pdfrwt beam="2">  1       -1 0.93536581E-02 0.99428822E+02</pdfrwt>
<totfact> 0.11900132E+04</totfact>
</mgrwt>
</event>
<event>
 8    1  0.2964543E-004  0.9729564E+02  0.7546771E-02  0.1289914E+00
          1   -1    0    0  501    0  0.00000000000E+00  0.00000000000E+00  0.51846736961E+02  0.51846736961E+02  0.00000000000E+00 0. -1.
         -1   -1    0    0    0  501 -0.00000000000E+00 -0.00000000000E+00 -0.19651545709E+03  0.19651545709E+03  0.00000000000E+00 0.  1.
         23    2    1    2    0    0  0.22579161735E+02  0.19464755938E+02 -0.12005343874E+03  0.15452918867E+03  0.92616125650E+02 0.  0.
         23    2    1    2    0    0 -0.22579161735E+02 -0.19464755938E+02 -0.24615281392E+02  0.93833005380E+02  0.85498687430E+02 0.  0.
          5    1    3    3  502    0  0.22278710977E+02 -0.11068078096E+02  0.49230297102E+01  0.25790880889E+02  0.47000000000E+01 0. -1.
         -5    1    4    4    0  503  0.20665342511E+02  0.15879500336E+02 -0.26887089628E+02  0.37738846043E+02  0.47000000000E+01 0.  1.
          5    1    4    4  503    0 -0.43244504246E+02 -0.35344256274E+02  0.22718082361E+01  0.56094159337E+02  0.47000000000E+01 0. -1.
         -5    1    3    3    0  502  0.30045075791E+00  0.30532834034E+02 -0.12497646845E+03  0.12873830778E+03  0.47000000000E+01 0.  1.
<mgrwt>
<rscale>  0 0.95562676E+02</rscale>
<asrwt>0</asrwt>
<pdfrwt beam="1">  1        1 0.79764211E-02 0.97295642E+02</pdfrwt>
<pdfrwt beam="2">  1       -1 0.30233147E-01 0.97295642E+02</pdfrwt>
<totfact> 0.80748333E+03</totfact>
</mgrwt>
</event>
<event>
 8    1  0.2964543E-004  0.9638726E+02  0.7546771E-02  0.1289687E+00
          2   -1    0    0  501    0  0.00000000000E+00  0.00000000000E+00  0.34774661729E+03  0.34774661729E+03  0.00000000000E+00 0. -1.
         -2   -1    0    0    0  501 -0.00000000000E+00 -0.00000000000E+00 -0.46927974297E+02  0.46927974297E+02  0.00000000000E+00 0.  1.
         23    2    1    2    0    0 -0.39225979399E+01 -0.22801556449E+02  0.17162107407E+02  0.95088988392E+02  0.90620527651E+02 0.  0.
         23    2    1    2    0    0  0.39225979399E+01  0.22801556449E+02  0.28365653558E+03  0.29958560319E+03  0.93569256221E+02 0.  0.
          5    1    3    3  502    0  0.41087154520E+02 -0.71580978077E+01  0.21230974493E+02  0.47034422593E+02  0.47000000000E+01 0. -1.
         -5    1    4    4    0  503  0.23748713938E+02 -0.12904568616E+02  0.23270234351E+02  0.35973922661E+02  0.47000000000E+01 0.  1.
          5    1    4    4  503    0 -0.19826115999E+02  0.35706125065E+02  0.26038630123E+03  0.26361168053E+03  0.47000000000E+01 0. -1.
         -5    1    3    3    0  502 -0.45009752460E+02 -0.15643458641E+02 -0.40688670857E+01  0.48054565799E+02  0.47000000000E+01 0.  1.
<mgrwt>
<rscale>  0 0.95664202E+02</rscale>
<asrwt>0</asrwt>
<pdfrwt beam="1">  1        2 0.53499478E-01 0.96387258E+02</pdfrwt>
<pdfrwt beam="2">  1       -2 0.72196886E-02 0.96387258E+02</pdfrwt>
<totfact> 0.95438265E+03</totfact>
</mgrwt>
</event>
<event>
 8    1  0.2964543E-004  0.1298567E+03  0.7546771E-02  0.1228315E+00
          2   -1    0    0  501    0  0.00000000000E+00  0.00000000000E+00  0.10331107511E+04  0.10331107511E+04  0.00000000000E+00 0. -1.
         -2   -1    0    0    0  501 -0.00000000000E+00 -0.00000000000E+00 -0.17434515587E+02  0.17434515587E+02  0.00000000000E+00 0.  1.
         23    2    1    2    0    0  0.21722146193E+02  0.87422047699E+02  0.64969688477E+03  0.66221082793E+03  0.91119001791E+02 0.  0.
         23    2    1    2    0    0 -0.21722146193E+02 -0.87422047699E+02  0.36597935071E+03  0.38833443873E+03  0.93532267662E+02 0.  0.
          5    1    4    4  502    0  0.31405175982E+02 -0.39920944007E+02  0.21978476051E+03  0.22562667795E+03  0.47000000000E+01 0. -1.
         -5    1    3    3    0  503 -0.16788440728E+02 -0.12071428702E+02  0.96818292339E+02  0.99113282987E+02  0.47000000000E+01 0.  1.
          5    1    3    3  503    0  0.38510586921E+02  0.99493476402E+02  0.55287859243E+03  0.56309754494E+03  0.47000000000E+01 0. -1.
         -5    1    4    4    0  502 -0.53127322175E+02 -0.47501103693E+02  0.14619459020E+03  0.16270776078E+03  0.47000000000E+01 0.  1.
<mgrwt>
<rscale>  0 0.12942267E+03</rscale>
<asrwt>0</asrwt>
<pdfrwt beam="1">  1        2 0.15894007E+00 0.12985666E+03</pdfrwt>
<pdfrwt beam="2">  1       -2 0.26822340E-02 0.12985666E+03</pdfrwt>
<totfact> 0.12035481E+04</totfact>
</mgrwt>
</event>
<event>
 8    1  0.2964543E-004  0.9315383E+02  0.7546771E-02  0.1296316E+00
         -1   -1    0    0    0  501 -0.00000000000E+00  0.00000000000E+00  0.14529540011E+03  0.14529540011E+03  0.00000000000E+00 0.  1.
          1   -1    0    0  501    0  0.00000000000E+00 -0.00000000000E+00 -0.64425200514E+02  0.64425200514E+02  0.00000000000E+00 0. -1.
         23    2    1    2    0    0  0.23577922244E+02 -0.30570680577E+00  0.71349241515E+02  0.11608147781E+03  0.88477021605E+02 0.  0.
         23    2    1    2    0    0 -0.23577922244E+02  0.30570680577E+00  0.95209580813E+01  0.93639122813E+02  0.90120057725E+02 0.  0.
          5    1    4    4  502    0 -0.35740395415E+02  0.28751987508E+02 -0.20329400476E+02  0.50392729375E+02  0.47000000000E+01 0. -1.
         -5    1    4    4    0  502  0.12162473171E+02 -0.28446280703E+02  0.29850358557E+02  0.43246393439E+02  0.47000000000E+01 0.  1.
          5    1    3    3  503    0 -0.21700112312E+02 -0.24548170667E+02  0.73823960079E+01  0.33913084913E+02  0.47000000000E+01 0. -1.
         -5    1    3    3    0  503  0.45278034556E+02  0.24242463862E+02  0.63966845507E+02  0.82168392898E+02  0.47000000000E+01 0.  1.
<mgrwt>
<rscale>  0 0.92754123E+02</rscale>
<asrwt>0</asrwt>
<pdfrwt beam="1">  1        1 0.99115693E-02 0.93153833E+02</pdfrwt>
<pdfrwt beam="2">  1       -1 0.22353138E-01 0.93153833E+02</pdfrwt>
<totfact> 0.98945804E+03</totfact>
</mgrwt>
</event>
<event>
 8    1  0.2964543E-004  0.9456422E+02  0.7546771E-02  0.1293909E+00
          2   -1    0    0  501    0  0.00000000000E+00  0.00000000000E+00  0.25008117398E+03  0.25008117398E+03  0.00000000000E+00 0. -1.
         -2   -1    0    0    0  501 -0.00000000000E+00 -0.00000000000E+00 -0.35856322772E+02  0.35856322772E+02  0.00000000000E+00 0.  1.
         23    2    1    2    0    0 -0.70258142590E+01 -0.27146867387E+02  0.13196592838E+03  0.16060225505E+03  0.87130727068E+02 0.  0.
         23    2    1    2    0    0  0.70258142590E+01  0.27146867387E+02  0.82258922822E+02  0.12533524170E+03  0.90311006817E+02 0.  0.
          5    1    3    3  502    0  0.95721223861E+01 -0.43424984757E+02  0.25393734115E+02  0.51422626931E+02  0.47000000000E+01 0. -1.
         -5    1    4    4    0  503 -0.18962660726E+02  0.27924208945E+02 -0.47444165434E+01  0.34408479120E+02  0.47000000000E+01 0.  1.
          5    1    4    4  503    0  0.25988474984E+02 -0.77734155775E+00  0.87003339365E+02  0.90926762576E+02  0.47000000000E+01 0. -1.
         -5    1    3    3    0  502 -0.16597936645E+02  0.16278117370E+02  0.10657219427E+03  0.10917962812E+03  0.47000000000E+01 0.  1.
<mgrwt>
<rscale>  0 0.93796838E+02</rscale>
<asrwt>0</asrwt>
<pdfrwt beam="1">  1        2 0.38474026E-01 0.94564224E+02</pdfrwt>
<pdfrwt beam="2">  1       -2 0.55163575E-02 0.94564224E+02</pdfrwt>
<totfact> 0.20189592E+04</totfact>
</mgrwt>
</event>
<event>
 8    1  0.2964543E-004  0.9594000E+02  0.7546771E-02  0.1290503E+00
         -1   -1    0    0    0  501 -0.00000000000E+00  0.00000000000E+00  0.24592350649E+03  0.24592350649E+03  0.00000000000E+00 0.  1.
          1   -1    0    0  501    0  0.00000000000E+00 -0.00000000000E+00 -0.51497209440E+02  0.51497209440E+02  0.00000000000E+00 0. -1.
         23    2    1    2    0    0 -0.25573941133E+02 -0.17748465845E+02  0.17668406906E+03  0.19985397013E+03  0.88064264111E+02 0.  0.
         23    2    1    2    0    0  0.25573941133E+02  0.17748465845E+02  0.17742227989E+02  0.97566745797E+02  0.90749373146E+02 0.  0.
          5    1    4    4  502    0 -0.14845836553E+01  0.51054843430E+02  0.18111982187E+02  0.54396092921E+02  0.47000000000E+01 0. -1.
         -5    1    4    4    0  502  0.27058524788E+02 -0.33306377585E+02 -0.36975419755E+00  0.43170652876E+02  0.47000000000E+01 0.  1.
          5    1    3    3  503    0  0.11388642243E+02  0.21439472282E+02  0.13993503093E+02  0.28412326070E+02  0.47000000000E+01 0. -1.
         -5    1    3    3    0  503 -0.36962583376E+02 -0.39187938127E+02  0.16269056597E+03  0.17144164406E+03  0.47000000000E+01 0.  1.
<mgrwt>
<rscale>  0 0.95299673E+02</rscale>
<asrwt>0</asrwt>
<pdfrwt beam="1">  1        1 0.79226477E-02 0.95939998E+02</pdfrwt>
<pdfrwt beam="2">  1       -1 0.37834385E-01 0.95939998E+02</pdfrwt>
<totfact> 0.55673509E+03</totfact>
</mgrwt>
</event>
<event>
 8    1  0.2964543E-004  0.1073347E+03  0.7546771E-02  0.1265594E+00
          1   -1    0    0  501    0  0.00000000000E+00  0.00000000000E+00  0.25195124199E+02  0.25195124199E+02  0.00000000000E+00 0. -1.
         -1   -1    0    0    0  501 -0.00000000000E+00 -0.00000000000E+00 -0.45721537593E+03  0.45721537593E+03  0.00000000000E+00 0.  1.
         23    2    1    2    0    0 -0.50929716775E+02 -0.29125210096E+02 -0.21452729607E+03  0.23987406189E+03  0.89863735153E+02 0.  0.
         23    2    1    2    0    0  0.50929716775E+02  0.29125210096E+02 -0.21749295566E+03  0.24253643824E+03  0.89881167084E+02 0.  0.
          5    1    4    4  502    0  0.12570388513E+01 -0.27247148742E+02 -0.31767611561E+02  0.42133815464E+02  0.47000000000E+01 0. -1.
         -5    1    4    4    0  502  0.49672677924E+02  0.56372358838E+02 -0.18572534410E+03  0.20040262278E+03  0.47000000000E+01 0.  1.
          5    1    3    3  503    0  0.20065857475E+02  0.27280254427E+01 -0.94452041687E+02  0.96712765123E+02  0.47000000000E+01 0. -1.
         -5    1    3    3    0  503 -0.70995574250E+02 -0.31853235539E+02 -0.12007525438E+03  0.14316129677E+03  0.47000000000E+01 0.  1.
<mgrwt>
<rscale>  0 0.10733105E+03</rscale>
<asrwt>0</asrwt>
<pdfrwt beam="1">  1        1 0.38761729E-02 0.10733470E+03</pdfrwt>
<pdfrwt beam="2">  1       -1 0.70340828E-01 0.10733470E+03</pdfrwt>
<totfact> 0.47378610E+03</totfact>
</mgrwt>
</event>
<event>
 8    1  0.2964543E-004  0.9442481E+02  0.7546771E-02  0.1295018E+00
          1   -1    0    0  501    0  0.00000000000E+00  0.00000000000E+00  0.50136488931E+03  0.50136488931E+03  0.00000000000E+00 0. -1.
         -1   -1    0    0    0  501 -0.00000000000E+00 -0.00000000000E+00 -0.22047464264E+02  0.22047464264E+02  0.00000000000E+00 0.  1.
         23    2    1    2    0    0  0.85082862777E+01  0.18058414692E+02  0.11847343491E+03  0.15149917498E+03  0.92290562705E+02 0.  0.
         23    2    1    2    0    0 -0.85082862777E+01 -0.18058414692E+02  0.36084399014E+03  0.37191317859E+03  0.87821010669E+02 0.  0.
          5    1    4    4  502    0 -0.46674843614E+02 -0.20616482131E+01  0.15764045412E+03  0.16448524005E+03  0.47000000000E+01 0. -1.
         -5    1    4    4    0  502  0.38166557336E+02 -0.15996766479E+02  0.20320353602E+03  0.20742793854E+03  0.47000000000E+01 0.  1.
          5    1    3    3  503    0 -0.25780912454E+02  0.27663702660E+02  0.10732797363E+03  0.11389170214E+03  0.47000000000E+01 0. -1.
         -5    1    3    3    0  503  0.34289198732E+02 -0.96052879685E+01  0.11145461276E+02  0.37607472843E+02  0.47000000000E+01 0.  1.
<mgrwt>
<rscale>  0 0.93314489E+02</rscale>
<asrwt>0</asrwt>
<pdfrwt beam="1">  1        1 0.77133052E-01 0.94424813E+02</pdfrwt>
<pdfrwt beam="2">  1       -1 0.33919179E-02 0.94424813E+02</pdfrwt>
<totfact> 0.13008657E+04</totfact>
</mgrwt>
</event>
<event>
 7    1  0.2964543E-004  0.1646707E+03  0.7546771E-02  0.1195266E+00
          1   -1    0    0  501    0  0.00000000000E+00  0.00000000000E+00  0.49381955527E+02  0.49381955527E+02  0.00000000000E+00 0. -1.
         -1   -1    0    0    0  501 -0.00000000000E+00 -0.00000000000E+00 -0.68057174281E+03  0.68057174281E+03  0.00000000000E+00 0.  1.
         23    2    1    2    0    0  0.60186741036E+02 -0.64830325210E+02 -0.69814902535E+02  0.14492532334E+03  0.91125264689E+02 0.  0.
          5    1    1    2  502    0  0.26544332741E+02 -0.13410003666E+02 -0.36611924441E+02  0.47402033820E+02  0.47000000000E+01 0. -1.
         -5    1    3    3    0  503 -0.16781047690E+02 -0.34893651743E+02 -0.42803073025E+02  0.57908233905E+02  0.47000000000E+01 0.  1.
          5    1    3    3  503    0  0.76967788726E+02 -0.29936673466E+02 -0.27011829510E+02  0.87017089431E+02  0.47000000000E+01 0. -1.
         -5    1    1    2    0  502 -0.86731073777E+02  0.78240328876E+02 -0.52476296031E+03  0.53762634118E+03  0.47000000000E+01 0.  1.
<mgrwt>
<rscale>  0 0.15431706E+03</rscale>
<asrwt>0</asrwt>
<pdfrwt beam="1">  1        1 0.75972241E-02 0.16467070E+03</pdfrwt>
<pdfrwt beam="2">  1       -1 0.10470334E+00 0.16467070E+03</pdfrwt>
<totfact> 0.84079725E+02</totfact>
</mgrwt>
</event>
<event>
 8    1  0.2964543E-004  0.9214292E+02  0.7546771E-02  0.1298215E+00
         -1   -1    0    0    0  501 -0.00000000000E+00  0.00000000000E+00  0.36505590252E+02  0.36505590252E+02  0.00000000000E+00 0.  1.
          1   -1    0    0  501    0  0.00000000000E+00 -0.00000000000E+00 -0.30438531129E+03  0.30438531129E+03  0.00000000000E+00 0. -1.
         23    2    1    2    0    0  0.43013888600E+01 -0.14616569855E+02 -0.21743689222E+03  0.23584426328E+03  0.90064245734E+02 0.  0.
         23    2    1    2    0    0 -0.43013888600E+01  0.14616569855E+02 -0.50442828814E+02  0.10504663827E+03  0.90874480312E+02 0.  0.
          5    1    3    3  502    0  0.41719059302E+02 -0.43906589375E+01 -0.58279636006E+02  0.71960848855E+02  0.47000000000E+01 0. -1.
         -5    1    4    4    0  503 -0.18231451351E+02 -0.12670569524E+02  0.18614899396E+02  0.29351893124E+02  0.47000000000E+01 0.  1.
          5    1    4    4  503    0  0.13930062491E+02  0.27287139379E+02 -0.69057728211E+02  0.75694745142E+02  0.47000000000E+01 0. -1.
         -5    1    3    3    0  502 -0.37417670442E+02 -0.10225910918E+02 -0.15915725622E+03  0.16388341442E+03  0.47000000000E+01 0.  1.
<mgrwt>
<rscale>  0 0.91942519E+02</rscale>
<asrwt>0</asrwt>
<pdfrwt beam="1">  1        1 0.46828509E-01 0.92142917E+02</pdfrwt>
<pdfrwt beam="2">  1       -1 0.56162447E-02 0.92142917E+02</pdfrwt>
<totfact> 0.11589050E+04</totfact>
</mgrwt>
</event>
<event>
 8    1  0.2964543E-004  0.9824429E+02  0.7546771E-02  0.1288903E+00
         -2   -1    0    0    0  501 -0.00000000000E+00  0.00000000000E+00  0.21284651949E+02  0.21284651949E+02  0.00000000000E+00 0.  1.
          2   -1    0    0  501    0  0.00000000000E+00 -0.00000000000E+00 -0.68514390022E+03  0.68514390022E+03  0.00000000000E+00 0. -1.
         23    2    1    2    0    0  0.33750315105E+02  0.15985084352E+02 -0.10090055032E+03  0.13496163666E+03  0.81480768434E+02 0.  0.
         23    2    1    2    0    0 -0.33750315105E+02 -0.15985084352E+02 -0.56295869796E+03  0.57146691551E+03  0.90869869744E+02 0.  0.
          5    1    3    3  502    0 -0.22715757140E+02 -0.21636174512E+01 -0.55275951953E+02  0.59985062534E+02  0.47000000000E+01 0. -1.
         -5    1    4    4    0  503  0.15998797108E+02  0.22514351549E+02 -0.88388293244E+02  0.92722370101E+02  0.47000000000E+01 0.  1.
          5    1    4    4  503    0 -0.49749112213E+02 -0.38499435901E+02 -0.47457040471E+03  0.47874454541E+03  0.47000000000E+01 0. -1.
         -5    1    3    3    0  502  0.56466072245E+02  0.18148701803E+02 -0.45624598365E+02  0.74976574128E+02  0.47000000000E+01 0.  1.
<mgrwt>
<rscale>  0 0.96016325E+02</rscale>
<asrwt>0</asrwt>
<pdfrwt beam="1">  1        2 0.10540676E+00 0.98244287E+02</pdfrwt>
<pdfrwt beam="2">  1       -2 0.32745616E-02 0.98244287E+02</pdfrwt>
<totfact> 0.14818339E+04</totfact>
</mgrwt>
</event>
<event>
 8    1  0.2964543E-004  0.1171652E+03  0.7546771E-02  0.1248276E+00
          1   -1    0    0  501    0  0.00000000000E+00  0.00000000000E+00  0.36512195425E+03  0.36512195425E+03  0.00000000000E+00 0. -1.
         -1   -1    0    0    0  501 -0.00000000000E+00 -0.00000000000E+00 -0.29979670757E+03  0.29979670757E+03  0.00000000000E+00 0.  1.
         23    2    1    2    0    0 -0.21466151960E+02 -0.68661922150E+02 -0.27845856798E+03  0.30171762550E+03  0.91209079734E+02 0.  0.
         23    2    1    2    0    0  0.21466151960E+02  0.68661922150E+02  0.34378381466E+03  0.36320103632E+03  0.92479329208E+02 0.  0.
          5    1    4    4  502    0 -0.26402680324E+01  0.86588878260E+02  0.25541058459E+03  0.26974295463E+03  0.47000000000E+01 0. -1.
         -5    1    4    4    0  502  0.24106419992E+02 -0.17926956110E+02  0.88373230067E+02  0.93458081687E+02  0.47000000000E+01 0.  1.
          5    1    3    3  503    0  0.20951748054E+02 -0.24921335954E+02 -0.25893081402E+02  0.41863951041E+02  0.47000000000E+01 0. -1.
         -5    1    3    3    0  503 -0.42417900014E+02 -0.43740586196E+02 -0.25256548657E+03  0.25985367446E+03  0.47000000000E+01 0.  1.
<mgrwt>
<rscale>  0 0.11691439E+03</rscale>
<asrwt>0</asrwt>
<pdfrwt beam="1">  1        1 0.56172608E-01 0.11716519E+03</pdfrwt>
<pdfrwt beam="2">  1       -1 0.46122571E-01 0.11716519E+03</pdfrwt>
<totfact> 0.33181174E+02</totfact>
</mgrwt>
</event>
<event>
 8    1  0.2964543E-004  0.1041717E+03  0.7546771E-02  0.1273246E+00
         -3   -1    0    0    0  501 -0.00000000000E+00  0.00000000000E+00  0.53060596185E+02  0.53060596185E+02  0.00000000000E+00 0.  1.
          3   -1    0    0  501    0  0.00000000000E+00 -0.00000000000E+00 -0.20244329466E+03  0.20244329466E+03  0.00000000000E+00 0. -1.
         23    2    1    2    0    0 -0.38697304637E+02  0.32491819970E+02 -0.56479385189E+02  0.11592322349E+03  0.87721565432E+02 0.  0.
         23    2    1    2    0    0  0.38697304637E+02 -0.32491819970E+02 -0.92903313282E+02  0.13958066735E+03  0.91096307982E+02 0.  0.
          5    1    4    4  502    0  0.50852154862E+02  0.99702398468E+01 -0.23297688268E+02  0.57010697376E+02  0.47000000000E+01 0. -1.
         -5    1    3    3    0  503 -0.65360838911E+02  0.10810717273E+02 -0.39895394232E+02  0.77476727809E+02  0.47000000000E+01 0.  1.
          5    1    3    3  503    0  0.26663534273E+02  0.21681102697E+02 -0.16583990958E+02  0.38446495682E+02  0.47000000000E+01 0. -1.
         -5    1    4    4    0  502 -0.12154850225E+02 -0.42462059817E+02 -0.69605625014E+02  0.82569969974E+02  0.47000000000E+01 0.  1.
<mgrwt>
<rscale>  0 0.10342929E+03</rscale>
<asrwt>0</asrwt>
<pdfrwt beam="1">  1        3 0.31145122E-01 0.10417167E+03</pdfrwt>
<pdfrwt beam="2">  1       -3 0.81631687E-02 0.10417167E+03</pdfrwt>
<totfact> 0.22519876E+03</totfact>
</mgrwt>
</event>
<event>
 8    1  0.2964543E-004  0.9570440E+02  0.7546771E-02  0.1291338E+00
          2   -1    0    0  501    0  0.00000000000E+00  0.00000000000E+00  0.28040363146E+03  0.28040363146E+03  0.00000000000E+00 0. -1.
         -2   -1    0    0    0  501 -0.00000000000E+00 -0.00000000000E+00 -0.72042373784E+02  0.72042373784E+02  0.00000000000E+00 0.  1.
         23    2    1    2    0    0 -0.15332571757E+01  0.38371912914E+02  0.23541931281E+03  0.25299013129E+03  0.84303019585E+02 0.  0.
         23    2    1    2    0    0  0.15332571757E+01 -0.38371912914E+02 -0.27058055129E+02  0.99455873953E+02  0.87661724477E+02 0.  0.
          5    1    3    3  502    0  0.37461782169E+02  0.10797290219E+02  0.64985687764E+02  0.75928889190E+02  0.47000000000E+01 0. -1.
         -5    1    4    4    0  503 -0.12044210261E+01 -0.61541740696E+02 -0.38803922092E+02  0.72915504851E+02  0.47000000000E+01 0.  1.
          5    1    4    4  503    0  0.27376782018E+01  0.23169827782E+02  0.11745866963E+02  0.26540369103E+02  0.47000000000E+01 0. -1.
         -5    1    3    3    0  502 -0.38995039345E+02  0.27574622695E+02  0.17043362504E+03  0.17706124210E+03  0.47000000000E+01 0.  1.
<mgrwt>
<rscale>  0 0.94928352E+02</rscale>
<asrwt>0</asrwt>
<pdfrwt beam="1">  1        2 0.43139020E-01 0.95704402E+02</pdfrwt>
<pdfrwt beam="2">  1       -2 0.11083442E-01 0.95704402E+02</pdfrwt>
<totfact> 0.61650662E+03</totfact>
</mgrwt>
</event>
<event>
 8    1  0.2964543E-004  0.1246032E+03  0.7546771E-02  0.1250175E+00
          1   -1    0    0  501    0  0.00000000000E+00  0.00000000000E+00  0.24403812444E+03  0.24403812444E+03  0.00000000000E+00 0. -1.
         -1   -1    0    0    0  501 -0.00000000000E+00 -0.00000000000E+00 -0.59293808646E+02  0.59293808646E+02  0.00000000000E+00 0.  1.
         23    2    1    2    0    0 -0.43345252678E+01 -0.20837936976E+02  0.39201784152E+02  0.13062438802E+03  0.12277191511E+03 0.  0.
         23    2    1    2    0    0  0.43345252678E+01  0.20837936976E+02  0.14554253164E+03  0.17270754506E+03  0.90511103616E+02 0.  0.
          5    1    4    4  502    0  0.25196102879E+02  0.32151955746E+02  0.14251235096E+03  0.14832549355E+03  0.47000000000E+01 0. -1.
         -5    1    4    4    0  502 -0.20861577611E+02 -0.11314018770E+02  0.30301806776E+01  0.24382051515E+02  0.47000000000E+01 0.  1.
          5    1    3    3  503    0  0.38095878989E+02  0.36356775250E+02  0.21629769623E+02  0.57123095473E+02  0.47000000000E+01 0. -1.
         -5    1    3    3    0  503 -0.42430404256E+02 -0.57194712226E+02  0.17572014529E+02  0.73501292550E+02  0.47000000000E+01 0.  1.
<mgrwt>
<rscale>  0 0.11580949E+03</rscale>
<asrwt>0</asrwt>
<pdfrwt beam="1">  1        1 0.37544326E-01 0.12460317E+03</pdfrwt>
<pdfrwt beam="2">  1       -1 0.91221245E-02 0.12460317E+03</pdfrwt>
<totfact> 0.75530891E+03</totfact>
</mgrwt>
</event>
<event>
 8    1  0.2964543E-004  0.1120341E+03  0.7546771E-02  0.1257019E+00
          3   -1    0    0  501    0  0.00000000000E+00  0.00000000000E+00  0.10603064295E+03  0.10603064295E+03  0.00000000000E+00 0. -1.
         -3   -1    0    0    0  501 -0.00000000000E+00 -0.00000000000E+00 -0.12424634538E+03  0.12424634538E+03  0.00000000000E+00 0.  1.
         23    2    1    2    0    0  0.15753145058E+02 -0.63076307664E+02 -0.34949514868E+02  0.11700006178E+03  0.90778652220E+02 0.  0.
         23    2    1    2    0    0 -0.15753145058E+02  0.63076307664E+02  0.16733812437E+02  0.11327692655E+03  0.91240667700E+02 0.  0.
          5    1    4    4  502    0  0.21933616701E+02  0.67395839830E+02 -0.12326130072E+01  0.71041481564E+02  0.47000000000E+01 0. -1.
         -5    1    3    3    0  503 -0.11742621657E+02 -0.22912643960E+02 -0.57480907613E+02  0.63158714020E+02  0.47000000000E+01 0.  1.
          5    1    3    3  503    0  0.27495766715E+02 -0.40163663704E+02  0.22531392745E+02  0.53841347758E+02  0.47000000000E+01 0. -1.
         -5    1    4    4    0  502 -0.37686761759E+02 -0.43195321660E+01  0.17966425444E+02  0.42235444987E+02  0.47000000000E+01 0.  1.
<mgrwt>
<rscale>  0 0.11194000E+03</rscale>
<asrwt>0</asrwt>
<pdfrwt beam="1">  1        3 0.16312407E-01 0.11203411E+03</pdfrwt>
<pdfrwt beam="2">  1       -3 0.19114822E-01 0.11203411E+03</pdfrwt>
<totfact> 0.17313622E+03</totfact>
</mgrwt>
</event>
<event>
 8    1  0.2964543E-004  0.1015451E+03  0.7546771E-02  0.1277210E+00
         -1   -1    0    0    0  501 -0.00000000000E+00  0.00000000000E+00  0.65666168821E+02  0.65666168821E+02  0.00000000000E+00 0.  1.
          1   -1    0    0  501    0  0.00000000000E+00 -0.00000000000E+00 -0.16395141341E+03  0.16395141341E+03  0.00000000000E+00 0. -1.
         23    2    1    2    0    0 -0.33355994452E+02  0.29410937660E+02 -0.73446855552E+02  0.12532296550E+03  0.91289536483E+02 0.  0.
         23    2    1    2    0    0  0.33355994452E+02 -0.29410937660E+02 -0.24838389038E+02  0.10429461673E+03  0.91009866988E+02 0.  0.
          5    1    4    4  502    0 -0.24080931504E+02 -0.16686938617E+02  0.14843237164E+02  0.33177656216E+02  0.47000000000E+01 0. -1.
         -5    1    3    3    0  503  0.21243103385E+02  0.27148396242E+02 -0.14587950417E+01  0.34821300132E+02  0.47000000000E+01 0.  1.
          5    1    3    3  503    0 -0.54599097837E+02  0.22625414184E+01 -0.71988060510E+02  0.90501665367E+02  0.47000000000E+01 0. -1.
         -5    1    4    4    0  502  0.57436925956E+02 -0.12723999043E+02 -0.39681626201E+02  0.71116960515E+02  0.47000000000E+01 0.  1.
<mgrwt>
<rscale>  0 0.10148219E+03</rscale>
<asrwt>0</asrwt>
<pdfrwt beam="1">  1        1 0.25223294E-01 0.10154509E+03</pdfrwt>
<pdfrwt beam="2">  1       -1 0.10102488E-01 0.10154509E+03</pdfrwt>
<totfact> 0.10408944E+04</totfact>
</mgrwt>
</event>
<event>
 8    1  0.2964543E-004  0.2804402E+03  0.7546771E-02  0.1095655E+00
         -3   -1    0    0    0  501 -0.00000000000E+00  0.00000000000E+00  0.50195711490E+03  0.50195711490E+03  0.00000000000E+00 0.  1.
          3   -1    0    0  501    0  0.00000000000E+00 -0.00000000000E+00 -0.19887805451E+03  0.19887805451E+03  0.00000000000E+00 0. -1.
         23    2    1    2    0    0 -0.23769899848E+03 -0.11640648506E+03  0.31423370441E+03  0.42017324815E+03  0.88042341089E+02 0.  0.
         23    2    1    2    0    0  0.23769899848E+03  0.11640648506E+03 -0.11154644021E+02  0.28066192127E+03  0.92711403426E+02 0.  0.
          5    1    3    3  502    0 -0.21885952420E+02  0.13272376487E+02  0.41299643879E+02  0.48814971838E+02  0.47000000000E+01 0. -1.
         -5    1    3    3    0  502 -0.21581304606E+03 -0.12967886155E+03  0.27293406054E+03  0.37135827631E+03  0.47000000000E+01 0.  1.
          5    1    4    4  503    0  0.35200669608E+02  0.38146513896E+02 -0.34137446363E+02  0.62303281674E+02  0.47000000000E+01 0. -1.
         -5    1    4    4    0  503  0.20249832887E+03  0.78259971166E+02  0.22982802341E+02  0.21835863960E+03  0.47000000000E+01 0.  1.
<mgrwt>
<rscale>  0 0.28006222E+03</rscale>
<asrwt>0</asrwt>
<pdfrwt beam="1">  1        3 0.30596624E-01 0.28044017E+03</pdfrwt>
<pdfrwt beam="2">  1       -3 0.77224171E-01 0.28044017E+03</pdfrwt>
<totfact> 0.41609086E+01</totfact>
</mgrwt>
</event>
<event>
 8    1  0.2964543E-004  0.1039543E+03  0.7546771E-02  0.1272926E+00
         -1   -1    0    0    0  501 -0.00000000000E+00  0.00000000000E+00  0.10259074112E+04  0.10259074112E+04  0.00000000000E+00 0.  1.
          1   -1    0    0  501    0  0.00000000000E+00 -0.00000000000E+00 -0.10827561966E+02  0.10827561966E+02  0.00000000000E+00 0. -1.
         23    2    1    2    0    0  0.97474176290E+01  0.46593244319E+02  0.60871613823E+03  0.61728536705E+03  0.90774142005E+02 0.  0.
         23    2    1    2    0    0 -0.97474176290E+01 -0.46593244319E+02  0.40636371095E+03  0.41944960607E+03  0.92415171313E+02 0.  0.
          5    1    4    4  502    0 -0.26970666511E+01 -0.68712772997E+02  0.36771985452E+03  0.37412391095E+03  0.47000000000E+01 0. -1.
         -5    1    3    3    0  503  0.48256039832E+01  0.73155964509E+02  0.39021895533E+03  0.39707430627E+03  0.47000000000E+01 0.  1.
          5    1    3    3  503    0  0.49218136458E+01 -0.26562720191E+02  0.21849718290E+03  0.22021106078E+03  0.47000000000E+01 0. -1.
         -5    1    4    4    0  502 -0.70503509780E+01  0.22119528678E+02  0.38643856439E+02  0.45325695122E+02  0.47000000000E+01 0.  1.
<mgrwt>
<rscale>  0 0.10358839E+03</rscale>
<asrwt>0</asrwt>
<pdfrwt beam="1">  1        1 0.16657796E-02 0.10395435E+03</pdfrwt>
<pdfrwt beam="2">  1       -1 0.15783183E+00 0.10395435E+03</pdfrwt>
<totfact> 0.24599097E+03</totfact>
</mgrwt>
</event>
<event>
 8    1  0.2964543E-004  0.1042756E+03  0.7546771E-02  0.1272657E+00
         -1   -1    0    0    0  501 -0.00000000000E+00  0.00000000000E+00  0.13139067850E+03  0.13139067850E+03  0.00000000000E+00 0.  1.
          1   -1    0    0  501    0  0.00000000000E+00 -0.00000000000E+00 -0.88757757421E+02  0.88757757421E+02  0.00000000000E+00 0. -1.
         23    2    1    2    0    0  0.22391864346E+02 -0.42784430154E+02  0.53600770044E+02  0.11529765724E+03  0.89936667511E+02 0.  0.
         23    2    1    2    0    0 -0.22391864346E+02  0.42784430154E+02 -0.10967848963E+02  0.10485077868E+03  0.92420176516E+02 0.  0.
          5    1    3    3  502    0  0.53734013186E+01 -0.69603451216E+02  0.37179796441E+02  0.79233459638E+02  0.47000000000E+01 0. -1.
         -5    1    3    3    0  502  0.17018463028E+02  0.26819021062E+02  0.16420973603E+02  0.36064197601E+02  0.47000000000E+01 0.  1.
          5    1    4    4  503    0 -0.16826804245E+02 -0.27953697796E+02 -0.64955100667E+01  0.33598098348E+02  0.47000000000E+01 0. -1.
         -5    1    4    4    0  503 -0.55650601016E+01  0.70738127951E+02 -0.44723388961E+01  0.71252680336E+02  0.47000000000E+01 0.  1.
<mgrwt>
<rscale>  0 0.10372251E+03</rscale>
<asrwt>0</asrwt>
<pdfrwt beam="1">  1        1 0.13655039E-01 0.10427556E+03</pdfrwt>
<pdfrwt beam="2">  1       -1 0.20213951E-01 0.10427556E+03</pdfrwt>
<totfact> 0.77366982E+03</totfact>
</mgrwt>
</event>
<event>
 8    1  0.2964543E-004  0.1331689E+03  0.7546771E-02  0.1222935E+00
         -2   -1    0    0    0  501 -0.00000000000E+00  0.00000000000E+00  0.78164959430E+02  0.78164959430E+02  0.00000000000E+00 0.  1.
          2   -1    0    0  501    0  0.00000000000E+00 -0.00000000000E+00 -0.25217770742E+03  0.25217770742E+03  0.00000000000E+00 0. -1.
         23    2    1    2    0    0  0.31361535322E+02 -0.91006522019E+02 -0.13993104231E+03  0.19317000442E+03  0.92022937669E+02 0.  0.
         23    2    1    2    0    0 -0.31361535322E+02  0.91006522019E+02 -0.34081705673E+02  0.13717266243E+03  0.91591722922E+02 0.  0.
          5    1    4    4  502    0 -0.43572137551E+02  0.19522280376E+02  0.14068721655E+02  0.49996695200E+02  0.47000000000E+01 0. -1.
         -5    1    3    3    0  503 -0.29468714214E+02 -0.11858665236E+02 -0.45408772415E+02  0.55615462516E+02  0.47000000000E+01 0.  1.
          5    1    3    3  503    0  0.60830249536E+02 -0.79147856783E+02 -0.94522269897E+02  0.13755454190E+03  0.47000000000E+01 0. -1.
         -5    1    4    4    0  502  0.12210602229E+02  0.71484241642E+02 -0.48150427329E+02  0.87175967227E+02  0.47000000000E+01 0.  1.
<mgrwt>
<rscale>  0 0.13309443E+03</rscale>
<asrwt>0</asrwt>
<pdfrwt beam="1">  1        2 0.38796571E-01 0.13316889E+03</pdfrwt>
<pdfrwt beam="2">  1       -2 0.12025378E-01 0.13316889E+03</pdfrwt>
<totfact> 0.61988251E+03</totfact>
</mgrwt>
</event>
<event>
 8    1  0.2964543E-004  0.1205562E+03  0.7546771E-02  0.1242713E+00
          1   -1    0    0  501    0  0.00000000000E+00  0.00000000000E+00  0.41369165675E+03  0.41369165675E+03  0.00000000000E+00 0. -1.
         -1   -1    0    0    0  501 -0.00000000000E+00 -0.00000000000E+00 -0.60001583139E+02  0.60001583139E+02  0.00000000000E+00 0.  1.
         23    2    1    2    0    0 -0.74696705210E+02 -0.14378965759E+02  0.22669755341E+02  0.12140322619E+03  0.91861162067E+02 0.  0.
         23    2    1    2    0    0  0.74696705210E+02  0.14378965759E+02  0.33102031827E+03  0.35229001370E+03  0.93527804531E+02 0.  0.
          5    1    4    4  502    0  0.35999879537E+02  0.24940181069E+02  0.29470139950E+03  0.29797484596E+03  0.47000000000E+01 0. -1.
         -5    1    3    3    0  503 -0.92711386078E+02  0.95919866334E+00  0.27457003266E+02  0.96810630609E+02  0.47000000000E+01 0.  1.
          5    1    3    3  503    0  0.18014680868E+02 -0.15338164422E+02 -0.47872479250E+01  0.24592595579E+02  0.47000000000E+01 0. -1.
         -5    1    4    4    0  502  0.38696825673E+02 -0.10561215311E+02  0.36318918771E+02  0.54315167741E+02  0.47000000000E+01 0.  1.
<mgrwt>
<rscale>  0 0.12023284E+03</rscale>
<asrwt>0</asrwt>
<pdfrwt beam="1">  1        1 0.63644868E-01 0.12055622E+03</pdfrwt>
<pdfrwt beam="2">  1       -1 0.92310131E-02 0.12055622E+03</pdfrwt>
<totfact> 0.38482954E+03</totfact>
</mgrwt>
</event>
<event>
 8    1  0.2964543E-004  0.9604070E+02  0.7546771E-02  0.1290909E+00
         -1   -1    0    0    0  501 -0.00000000000E+00  0.00000000000E+00  0.31609579819E+02  0.31609579819E+02  0.00000000000E+00 0.  1.
          1   -1    0    0  501    0  0.00000000000E+00 -0.00000000000E+00 -0.35646330712E+03  0.35646330712E+03  0.00000000000E+00 0. -1.
         23    2    1    2    0    0 -0.14983928046E+02  0.17645024064E+02 -0.24930273376E+03  0.26587726763E+03  0.89459507091E+02 0.  0.
         23    2    1    2    0    0  0.14983928046E+02 -0.17645024064E+02 -0.75550993538E+02  0.12219561930E+03  0.93209182910E+02 0.  0.
          5    1    3    3  502    0 -0.23895144502E+02  0.50096147367E+02 -0.12194143850E+03  0.13406120370E+03  0.47000000000E+01 0. -1.
         -5    1    3    3    0  502  0.89112164557E+01 -0.32451123303E+02 -0.12736129526E+03  0.13181606394E+03  0.47000000000E+01 0.  1.
          5    1    4    4  503    0 -0.36029392873E+02 -0.22127023625E+02 -0.21783086186E+02  0.47794509822E+02  0.47000000000E+01 0. -1.
         -5    1    4    4    0  503  0.51013320919E+02  0.44819995610E+01 -0.53767907352E+02  0.74401109483E+02  0.47000000000E+01 0.  1.
<mgrwt>
<rscale>  0 0.95118839E+02</rscale>
<asrwt>0</asrwt>
<pdfrwt beam="1">  1        1 0.54840506E-01 0.96040704E+02</pdfrwt>
<pdfrwt beam="2">  1       -1 0.48630125E-02 0.96040704E+02</pdfrwt>
<totfact> 0.11835580E+04</totfact>
</mgrwt>
</event>
<event>
 8    1  0.2964543E-004  0.1520917E+03  0.7546771E-02  0.1198806E+00
         -1   -1    0    0    0  501 -0.00000000000E+00  0.00000000000E+00  0.12004969900E+03  0.12004969900E+03  0.00000000000E+00 0.  1.
          1   -1    0    0  501    0  0.00000000000E+00 -0.00000000000E+00 -0.19970269382E+03  0.19970269382E+03  0.00000000000E+00 0. -1.
         23    2    1    2    0    0 -0.11485628675E+03 -0.24854609067E+02 -0.25306388145E+01  0.14922452416E+03  0.91933869056E+02 0.  0.
         23    2    1    2    0    0  0.11485628675E+03  0.24854609067E+02 -0.77122356007E+02  0.17052786867E+03  0.96551426714E+02 0.  0.
          5    1    3    3  502    0 -0.80337238016E+02  0.25187914175E+02 -0.18205709757E+02  0.86267263202E+02  0.47000000000E+01 0. -1.
         -5    1    3    3    0  502 -0.34519048729E+02 -0.50042523243E+02  0.15675070943E+02  0.62957260953E+02  0.47000000000E+01 0.  1.
          5    1    4    4  503    0  0.33093202096E+02  0.47737087319E+02 -0.60275477927E+02  0.83840400583E+02  0.47000000000E+01 0. -1.
         -5    1    4    4    0  503  0.81763084650E+02 -0.22882478252E+02 -0.16846878080E+02  0.86687468088E+02  0.47000000000E+01 0.  1.
<mgrwt>
<rscale>  0 0.15136437E+03</rscale>
<asrwt>0</asrwt>
<pdfrwt beam="1">  1        1 0.30723491E-01 0.15209174E+03</pdfrwt>
<pdfrwt beam="2">  1       -1 0.18469185E-01 0.15209174E+03</pdfrwt>
<totfact> 0.32764237E+03</totfact>
</mgrwt>
</event>
<event>
 8    1  0.2964543E-004  0.1030016E+03  0.7546771E-02  0.1275188E+00
         -1   -1    0    0    0  501 -0.00000000000E+00  0.00000000000E+00  0.11974127483E+02  0.11974127483E+02  0.00000000000E+00 0.  1.
          1   -1    0    0  501    0  0.00000000000E+00 -0.00000000000E+00 -0.87431474727E+03  0.87431474727E+03  0.00000000000E+00 0. -1.
         23    2    1    2    0    0 -0.42912869369E+02  0.11844726804E+02 -0.38884535797E+03  0.40171989140E+03  0.90533677813E+02 0.  0.
         23    2    1    2    0    0  0.42912869369E+02 -0.11844726804E+02 -0.47349526182E+03  0.48456898336E+03  0.92884469951E+02 0.  0.
          5    1    4    4  502    0  0.50891010746E+02  0.19269302872E+02 -0.40616980323E+03  0.40982581674E+03  0.47000000000E+01 0. -1.
         -5    1    3    3    0  503 -0.55029296895E+02 -0.20435175004E+02 -0.16517268994E+03  0.17535657215E+03  0.47000000000E+01 0.  1.
          5    1    3    3  503    0  0.12116427526E+02  0.32279901808E+02 -0.22367266803E+03  0.22636331925E+03  0.47000000000E+01 0. -1.
         -5    1    4    4    0  502 -0.79781413771E+01 -0.31114029676E+02 -0.67325458586E+02  0.74743166620E+02  0.47000000000E+01 0.  1.
<mgrwt>
<rscale>  0 0.10246882E+03</rscale>
<asrwt>0</asrwt>
<pdfrwt beam="1">  1        1 0.13450994E+00 0.10300163E+03</pdfrwt>
<pdfrwt beam="2">  1       -1 0.18421738E-02 0.10300163E+03</pdfrwt>
<totfact> 0.14495969E+04</totfact>
</mgrwt>
</event>
<event>
 8    1  0.2964543E-004  0.1185524E+03  0.7546771E-02  0.1245559E+00
         -2   -1    0    0    0  501 -0.00000000000E+00  0.00000000000E+00  0.12114165125E+03  0.12114165125E+03  0.00000000000E+00 0.  1.
          2   -1    0    0  501    0  0.00000000000E+00 -0.00000000000E+00 -0.13474303595E+03  0.13474303595E+03  0.00000000000E+00 0. -1.
         23    2    1    2    0    0 -0.11000201804E+02  0.72969055377E+02 -0.54659544749E+02  0.13054627116E+03  0.92785643282E+02 0.  0.
         23    2    1    2    0    0  0.11000201804E+02 -0.72969055377E+02  0.41058160044E+02  0.12533841604E+03  0.92619968402E+02 0.  0.
          5    1    4    4  502    0 -0.22555460339E+02 -0.66603028926E+02 -0.15957300448E+01  0.70493606856E+02  0.47000000000E+01 0.  1.
         -5    1    4    4    0  502  0.33555662143E+02 -0.63660264509E+01  0.42653890088E+02  0.54844809183E+02  0.47000000000E+01 0. -1.
          5    1    3    3  503    0 -0.22457707177E+02  0.92510889478E+02 -0.41794014422E+02  0.10407421835E+03  0.47000000000E+01 0. -1.
         -5    1    3    3    0  503  0.11457505372E+02 -0.19541834101E+02 -0.12865530327E+02  0.26472052810E+02  0.47000000000E+01 0.  1.
<mgrwt>
<rscale>  0 0.11851995E+03</rscale>
<asrwt>0</asrwt>
<pdfrwt beam="1">  1        2 0.20729698E-01 0.11855236E+03</pdfrwt>
<pdfrwt beam="2">  1       -2 0.18637177E-01 0.11855236E+03</pdfrwt>
<totfact> 0.59525654E+03</totfact>
</mgrwt>
</event>
<event>
 8    1  0.2964543E-004  0.9871086E+02  0.7546771E-02  0.1283699E+00
          2   -1    0    0  501    0  0.00000000000E+00  0.00000000000E+00  0.22912832830E+03  0.22912832830E+03  0.00000000000E+00 0. -1.
         -2   -1    0    0    0  501 -0.00000000000E+00 -0.00000000000E+00 -0.46606675503E+02  0.46606675503E+02  0.00000000000E+00 0.  1.
         23    2    1    2    0    0 -0.38266683138E+02  0.68360127963E+01  0.13411795981E+03  0.16579524411E+03  0.89383251866E+02 0.  0.
         23    2    1    2    0    0  0.38266683138E+02 -0.68360127963E+01  0.48403692984E+02  0.10993975970E+03  0.90734575320E+02 0.  0.
          5    1    3    3  502    0 -0.33068884837E+02  0.38985955355E+02  0.37074800858E+02  0.63325245503E+02  0.47000000000E+01 0. -1.
         -5    1    3    3    0  502 -0.51977983014E+01 -0.32149942558E+02  0.97043158957E+02  0.10246999860E+03  0.47000000000E+01 0.  1.
          5    1    4    4  503    0  0.11893137412E+02  0.39185201306E+02  0.37200055599E+02  0.55523516238E+02  0.47000000000E+01 0. -1.
         -5    1    4    4    0  503  0.26373545727E+02 -0.46021214102E+02  0.11203637386E+02  0.54416243460E+02  0.47000000000E+01 0.  1.
<mgrwt>
<rscale>  0 0.98399215E+02</rscale>
<asrwt>0</asrwt>
<pdfrwt beam="1">  1        2 0.35250512E-01 0.98710857E+02</pdfrwt>
<pdfrwt beam="2">  1       -2 0.71702579E-02 0.98710857E+02</pdfrwt>
<totfact> 0.14979342E+04</totfact>
</mgrwt>
</event>
<event>
 8    1  0.2964543E-004  0.1131936E+03  0.7546771E-02  0.1255362E+00
          2   -1    0    0  501    0  0.00000000000E+00  0.00000000000E+00  0.26643764912E+03  0.26643764912E+03  0.00000000000E+00 0. -1.
         -2   -1    0    0    0  501 -0.00000000000E+00 -0.00000000000E+00 -0.51822620115E+02  0.51822620115E+02  0.00000000000E+00 0.  1.
         23    2    1    2    0    0  0.34249699387E+02  0.57860500456E+02  0.15253760283E+03  0.18916183782E+03  0.89406941514E+02 0.  0.
         23    2    1    2    0    0 -0.34249699387E+02 -0.57860500456E+02  0.62077426179E+02  0.12909843141E+03  0.91059973267E+02 0.  0.
          5    1    4    4  502    0  0.16183130139E+02 -0.46747778740E+02  0.59017964568E+02  0.77152178582E+02  0.47000000000E+01 0. -1.
         -5    1    4    4    0  502 -0.50432829525E+02 -0.11112721716E+02  0.30594616106E+01  0.51946252831E+02  0.47000000000E+01 0.  1.
          5    1    3    3  503    0  0.51238579158E+02  0.76003781454E-01  0.69732831266E+02  0.86661153507E+02  0.47000000000E+01 0. -1.
         -5    1    3    3    0  503 -0.16988879771E+02  0.57784496675E+02  0.82804771563E+02  0.10250068432E+03  0.47000000000E+01 0.  1.
<mgrwt>
<rscale>  0 0.11286079E+03</rscale>
<asrwt>0</asrwt>
<pdfrwt beam="1">  1        2 0.40990407E-01 0.11319363E+03</pdfrwt>
<pdfrwt beam="2">  1       -2 0.79727110E-02 0.11319363E+03</pdfrwt>
<totfact> 0.10993866E+04</totfact>
</mgrwt>
</event>
<event>
 8    1  0.2964543E-004  0.9178150E+02  0.7546771E-02  0.1299821E+00
         -1   -1    0    0    0  501 -0.00000000000E+00  0.00000000000E+00  0.12590200304E+02  0.12590200304E+02  0.00000000000E+00 0.  1.
          1   -1    0    0  501    0  0.00000000000E+00 -0.00000000000E+00 -0.66159986810E+03  0.66159986810E+03  0.00000000000E+00 0. -1.
         23    2    1    2    0    0  0.49462021094E+01  0.17490623202E+02 -0.35656155098E+03  0.36767784352E+03  0.87866206029E+02 0.  0.
         23    2    1    2    0    0 -0.49462021094E+01 -0.17490623202E+02 -0.29244811682E+03  0.30651222489E+03  0.89963637985E+02 0.  0.
          5    1    3    3  502    0 -0.22384987715E+02  0.25236209642E+02 -0.31658141654E+03  0.31840828703E+03  0.47000000000E+01 0. -1.
         -5    1    3    3    0  502  0.27331189825E+02 -0.77455864396E+01 -0.39980134439E+02  0.49269556486E+02  0.47000000000E+01 0.  1.
          5    1    4    4  503    0  0.20327763023E+02 -0.47204521303E+02 -0.18665029010E+03  0.19365408742E+03  0.47000000000E+01 0. -1.
         -5    1    4    4    0  503 -0.25273965132E+02  0.29713898101E+02 -0.10579782672E+03  0.11285813747E+03  0.47000000000E+01 0.  1.
<mgrwt>
<rscale>  0 0.91263393E+02</rscale>
<asrwt>0</asrwt>
<pdfrwt beam="1">  1        1 0.10178463E+00 0.91781496E+02</pdfrwt>
<pdfrwt beam="2">  1       -1 0.19369533E-02 0.91781496E+02</pdfrwt>
<totfact> 0.20064130E+04</totfact>
</mgrwt>
</event>
<event>
 8    1  0.2964543E-004  0.1501841E+03  0.7546771E-02  0.1200631E+00
          1   -1    0    0  501    0  0.00000000000E+00  0.00000000000E+00  0.11647543844E+04  0.11647543844E+04  0.00000000000E+00 0. -1.
         -1   -1    0    0    0  501 -0.00000000000E+00 -0.00000000000E+00 -0.19265620362E+02  0.19265620362E+02  0.00000000000E+00 0.  1.
         23    2    1    2    0    0  0.11776030505E+03 -0.17812792263E+02  0.53696781994E+03  0.55724014710E+03  0.89427942356E+02 0.  0.
         23    2    1    2    0    0 -0.11776030505E+03  0.17812792263E+02  0.60852094408E+03  0.62677985764E+03  0.91490248406E+02 0.  0.
          5    1    3    3  502    0  0.55568642571E+02  0.34619869684E+02  0.19713292348E+03  0.20777364831E+03  0.47000000000E+01 0. -1.
         -5    1    3    3    0  502  0.62191662476E+02 -0.52432661947E+02  0.33983489646E+03  0.34946649878E+03  0.47000000000E+01 0.  1.
          5    1    4    4  503    0 -0.25502630618E+01 -0.23533124599E+02  0.58474088063E+02  0.63258365217E+02  0.47000000000E+01 0. -1.
         -5    1    4    4    0  503 -0.11521004199E+03  0.41345916862E+02  0.55004685601E+03  0.56352149243E+03  0.47000000000E+01 0.  1.
<mgrwt>
<rscale>  0 0.14987124E+03</rscale>
<asrwt>0</asrwt>
<pdfrwt beam="1">  1        1 0.17919293E+00 0.15018406E+03</pdfrwt>
<pdfrwt beam="2">  1       -1 0.29639425E-02 0.15018406E+03</pdfrwt>
<totfact> 0.45806655E+03</totfact>
</mgrwt>
</event>
<event>
 7    1  0.2964543E-004  0.1540677E+03  0.7546771E-02  0.1206845E+00
         -1   -1    0    0    0  501 -0.00000000000E+00  0.00000000000E+00  0.47451173796E+02  0.47451173796E+02  0.00000000000E+00 0.  1.
          1   -1    0    0  501    0  0.00000000000E+00 -0.00000000000E+00 -0.50586981492E+03  0.50586981492E+03  0.00000000000E+00 0. -1.
         23    2    1    2    0    0 -0.66398820912E+02  0.45169557434E+02 -0.80042598401E+02  0.14478057102E+03  0.90030571750E+02 0.  0.
          5    1    3    3  502    0  0.41064240192E+01  0.23429242420E+02  0.11729063419E+02  0.26934235598E+02  0.47000000000E+01 0. -1.
         -5    1    3    3    0  502 -0.70505244931E+02  0.21740315015E+02 -0.91771661820E+02  0.11784633542E+03  0.47000000000E+01 0.  1.
          5    1    1    2  503    0  0.10436899767E+03 -0.24292415683E+02 -0.30357838013E+03  0.32197038997E+03  0.47000000000E+01 0. -1.
         -5    1    1    2    0  503 -0.37970176758E+02 -0.20877141752E+02 -0.74797662588E+02  0.86570027719E+02  0.47000000000E+01 0.  1.
<mgrwt>
<rscale>  0 0.14493011E+03</rscale>
<asrwt>0</asrwt>
<pdfrwt beam="1">  1        1 0.77826122E-01 0.15406766E+03</pdfrwt>
<pdfrwt beam="2">  1       -1 0.73001809E-02 0.15406766E+03</pdfrwt>
<totfact> 0.42862909E+03</totfact>
</mgrwt>
</event>
<event>
 8    1  0.2964543E-004  0.9624998E+02  0.7546771E-02  0.1289580E+00
         -1   -1    0    0    0  501 -0.00000000000E+00  0.00000000000E+00  0.11611996273E+03  0.11611996273E+03  0.00000000000E+00 0.  1.
          1   -1    0    0  501    0  0.00000000000E+00 -0.00000000000E+00 -0.10639752060E+03  0.10639752060E+03  0.00000000000E+00 0. -1.
         23    2    1    2    0    0  0.30579647136E+02  0.97394178393E+01 -0.52633384041E+02  0.10783397200E+03  0.88475540818E+02 0.  0.
         23    2    1    2    0    0 -0.30579647136E+02 -0.97394178393E+01  0.62355826173E+02  0.11468351133E+03  0.90741873661E+02 0.  0.
          5    1    4    4  502    0 -0.56000097833E+02 -0.19328047561E+02  0.17359651904E+02  0.61911484347E+02  0.47000000000E+01 0. -1.
         -5    1    4    4    0  502  0.25420450697E+02  0.95886297219E+01  0.44996174269E+02  0.52772026988E+02  0.47000000000E+01 0.  1.
          5    1    3    3  503    0  0.19767261080E+02 -0.26119000097E+02  0.10118736872E+02  0.34603838119E+02  0.47000000000E+01 0. -1.
         -5    1    3    3    0  503  0.10812386055E+02  0.35858417937E+02 -0.62752120914E+02  0.73230133881E+02  0.47000000000E+01 0.  1.
<mgrwt>
<rscale>  0 0.95712087E+02</rscale>
<asrwt>0</asrwt>
<pdfrwt beam="1">  1        1 0.16368849E-01 0.96249980E+02</pdfrwt>
<pdfrwt beam="2">  1       -1 0.17864610E-01 0.96249980E+02</pdfrwt>
<totfact> 0.74085435E+03</totfact>
</mgrwt>
</event>
<event>
 8    1  0.2964543E-004  0.9615832E+02  0.7546771E-02  0.1288864E+00
         -1   -1    0    0    0  501 -0.00000000000E+00  0.00000000000E+00  0.10964826030E+03  0.10964826030E+03  0.00000000000E+00 0.  1.
          1   -1    0    0  501    0  0.00000000000E+00 -0.00000000000E+00 -0.88690166621E+02  0.88690166621E+02  0.00000000000E+00 0. -1.
         23    2    1    2    0    0 -0.26280794300E+02 -0.17946884508E+01  0.33568904117E+02  0.10184936965E+03  0.92479844928E+02 0.  0.
         23    2    1    2    0    0  0.26280794300E+02  0.17946884508E+01 -0.12610810438E+02  0.96489057276E+02  0.91963060945E+02 0.  0.
          5    1    4    4  502    0  0.25187427744E+02 -0.38747447554E+02  0.13069083671E+02  0.48256213655E+02  0.47000000000E+01 0. -1.
         -5    1    3    3    0  503 -0.45649282403E+02 -0.34738293029E+02  0.22370279272E+02  0.61750509157E+02  0.47000000000E+01 0.  1.
          5    1    3    3  503    0  0.19368488103E+02  0.32943604579E+02  0.11198624845E+02  0.40098860488E+02  0.47000000000E+01 0. -1.
         -5    1    4    4    0  502  0.10933665555E+01  0.40542136005E+02 -0.25679894109E+02  0.48232843620E+02  0.47000000000E+01 0.  1.
<mgrwt>
<rscale>  0 0.96033852E+02</rscale>
<asrwt>0</asrwt>
<pdfrwt beam="1">  1        1 0.13644641E-01 0.96158321E+02</pdfrwt>
<pdfrwt beam="2">  1       -1 0.16868963E-01 0.96158321E+02</pdfrwt>
<totfact> 0.10235372E+04</totfact>
</mgrwt>
</event>
<event>
 8    1  0.2964543E-004  0.2315943E+03  0.7546771E-02  0.1125643E+00
          2   -1    0    0  501    0  0.00000000000E+00  0.00000000000E+00  0.37523574644E+03  0.37523574644E+03  0.00000000000E+00 0. -1.
         -2   -1    0    0    0  501 -0.00000000000E+00 -0.00000000000E+00 -0.17608937380E+03  0.17608937380E+03  0.00000000000E+00 0.  1.
         23    2    1    2    0    0 -0.14930155032E+03  0.15051524048E+03 -0.20918100938E+02  0.23185006437E+03  0.91493687514E+02 0.  0.
         23    2    1    2    0    0  0.14930155032E+03 -0.15051524048E+03  0.22006447358E+03  0.31947505587E+03  0.93220964629E+02 0.  0.
          5    1    3    3  502    0 -0.37397210387E+02  0.39858739921E+02  0.34650666480E+02  0.64884737654E+02  0.47000000000E+01 0. -1.
         -5    1    4    4    0  503  0.11405116814E+02 -0.55107887593E+02  0.93912036727E+02  0.10958337742E+03  0.47000000000E+01 0.  1.
          5    1    4    4  503    0  0.13789643351E+03 -0.95407352884E+02  0.12615243686E+03  0.20989167845E+03  0.47000000000E+01 0. -1.
         -5    1    3    3    0  502 -0.11190433994E+03  0.11065650056E+03 -0.55568767418E+02  0.16696532671E+03  0.47000000000E+01 0.  1.
<mgrwt>
<rscale>  0 0.23142169E+03</rscale>
<asrwt>0</asrwt>
<pdfrwt beam="1">  1        2 0.57728576E-01 0.23159434E+03</pdfrwt>
<pdfrwt beam="2">  1       -2 0.27090673E-01 0.23159434E+03</pdfrwt>
<totfact> 0.10536566E+03</totfact>
</mgrwt>
</event>
<event>
 8    1  0.2964543E-004  0.9302729E+02  0.7546771E-02  0.1297538E+00
         -3   -1    0    0    0  501 -0.00000000000E+00  0.00000000000E+00  0.56726225247E+03  0.56726225247E+03  0.00000000000E+00 0.  1.
          3   -1    0    0  501    0  0.00000000000E+00 -0.00000000000E+00 -0.14907139487E+02  0.14907139487E+02  0.00000000000E+00 0. -1.
         23    2    1    2    0    0  0.18284631080E+02  0.84656321471E+01  0.24105095436E+03  0.25726270348E+03  0.87593043925E+02 0.  0.
         23    2    1    2    0    0 -0.18284631080E+02 -0.84656321471E+01  0.31130415863E+03  0.32490668848E+03  0.90818953848E+02 0.  0.
          5    1    3    3  502    0 -0.26211204049E+02  0.15787145914E+02  0.37034025144E+02  0.48268729134E+02  0.47000000000E+01 0. -1.
         -5    1    3    3    0  502  0.44495835129E+02 -0.73215137673E+01  0.20401692921E+03  0.20899397435E+03  0.47000000000E+01 0.  1.
          5    1    4    4  503    0 -0.22045231358E+00 -0.41726882984E+02  0.78753114295E+02  0.89248665951E+02  0.47000000000E+01 0. -1.
         -5    1    4    4    0  503 -0.18064178766E+02  0.33261250837E+02  0.23255104433E+03  0.23565802253E+03  0.47000000000E+01 0.  1.
<mgrwt>
<rscale>  0 0.92230458E+02</rscale>
<asrwt>0</asrwt>
<pdfrwt beam="1">  1        3 0.22934065E-02 0.93027292E+02</pdfrwt>
<pdfrwt beam="2">  1       -3 0.87271099E-01 0.93027292E+02</pdfrwt>
<totfact> 0.20312723E+03</totfact>
</mgrwt>
</event>
<event>
 8    1  0.2964543E-004  0.9409280E+02  0.7546771E-02  0.1297111E+00
          2   -1    0    0  501    0  0.00000000000E+00  0.00000000000E+00  0.18330298107E+02  0.18330298107E+02  0.00000000000E+00 0. -1.
         -2   -1    0    0    0  501 -0.00000000000E+00 -0.00000000000E+00 -0.49087524094E+03  0.49087524094E+03  0.00000000000E+00 0.  1.
         23    2    1    2    0    0  0.14540156383E+02  0.10314380307E+02 -0.17065077383E+03  0.19487211644E+03  0.92388595435E+02 0.  0.
         23    2    1    2    0    0 -0.14540156383E+02 -0.10314380307E+02 -0.30189416900E+03  0.31433342261E+03  0.85718193545E+02 0.  0.
          5    1    4    4  502    0 -0.16693987744E+02  0.23206564264E+02 -0.35649351468E+02  0.45936914479E+02  0.47000000000E+01 0. -1.
         -5    1    3    3    0  503  0.30174142397E+02 -0.20189508301E+02 -0.15038340609E+03  0.15477517224E+03  0.47000000000E+01 0.  1.
          5    1    3    3  503    0 -0.15633986014E+02  0.30503888607E+02 -0.20267367746E+02  0.40096944200E+02  0.47000000000E+01 0. -1.
         -5    1    4    4    0  502  0.21538313616E+01 -0.33520944570E+02 -0.26624481753E+03  0.26839650813E+03  0.47000000000E+01 0.  1.
<mgrwt>
<rscale>  0 0.92413247E+02</rscale>
<asrwt>0</asrwt>
<pdfrwt beam="1">  1        2 0.28200461E-02 0.94092801E+02</pdfrwt>
<pdfrwt beam="2">  1       -2 0.75519261E-01 0.94092801E+02</pdfrwt>
<totfact> 0.50404807E+03</totfact>
</mgrwt>
</event>
<event>
 8    1  0.2964543E-004  0.9373219E+02  0.7546771E-02  0.1294711E+00
         -2   -1    0    0    0  501 -0.00000000000E+00  0.00000000000E+00  0.26028520224E+03  0.26028520224E+03  0.00000000000E+00 0.  1.
          2   -1    0    0  501    0  0.00000000000E+00 -0.00000000000E+00 -0.24001960364E+03  0.24001960364E+03  0.00000000000E+00 0. -1.
         23    2    1    2    0    0 -0.13969874305E+02  0.11203889614E+02  0.24226603270E+03  0.25976634518E+03  0.92005646341E+02 0.  0.
         23    2    1    2    0    0  0.13969874305E+02 -0.11203889614E+02 -0.22200043409E+03  0.24053846070E+03  0.90850832723E+02 0.  0.
          5    1    4    4  502    0  0.33066989448E+02 -0.19609463246E+02 -0.21435382024E+03  0.21782471644E+03  0.47000000000E+01 0. -1.
         -5    1    4    4    0  502 -0.19097115143E+02  0.84055736325E+01 -0.76466138547E+01  0.22713744260E+02  0.47000000000E+01 0.  1.
          5    1    3    3  503    0  0.27063677806E+02 -0.22054749564E+02  0.56520614047E+02  0.66599733085E+02  0.47000000000E+01 0. -1.
         -5    1    3    3    0  503 -0.41033552111E+02  0.33258639177E+02  0.18574541865E+03  0.19316661210E+03  0.47000000000E+01 0.  1.
<mgrwt>
<rscale>  0 0.93447577E+02</rscale>
<asrwt>0</asrwt>
<pdfrwt beam="1">  1        2 0.36926093E-01 0.93732190E+02</pdfrwt>
<pdfrwt beam="2">  1       -2 0.40043877E-01 0.93732190E+02</pdfrwt>
<totfact> 0.81541634E+02</totfact>
</mgrwt>
</event>
<event>
 8    1  0.2964543E-004  0.3372196E+03  0.7546771E-02  0.1068023E+00
          1   -1    0    0  501    0  0.00000000000E+00  0.00000000000E+00  0.57821370965E+03  0.57821370965E+03  0.00000000000E+00 0. -1.
         -1   -1    0    0    0  501 -0.00000000000E+00 -0.00000000000E+00 -0.19958356374E+03  0.19958356374E+03  0.00000000000E+00 0.  1.
         23    2    1    2    0    0 -0.25755895068E+03  0.19643227205E+03  0.23779238323E+03  0.41234919029E+03  0.92543971333E+02 0.  0.
         23    2    1    2    0    0  0.25755895068E+03 -0.19643227205E+03  0.14083776267E+03  0.36544808310E+03  0.93780464212E+02 0.  0.
          5    1    3    3  502    0 -0.12843819221E+03  0.15310903258E+03  0.12826345285E+03  0.23751283842E+03  0.47000000000E+01 0. -1.
         -5    1    3    3    0  502 -0.12912075846E+03  0.43323239477E+02  0.10952893038E+03  0.17483635187E+03  0.47000000000E+01 0.  1.
          5    1    4    4  503    0  0.20488405101E+03 -0.18399983980E+03  0.86675817305E+02  0.28873552381E+03  0.47000000000E+01 0. -1.
         -5    1    4    4    0  503  0.52674899670E+02 -0.12432432255E+02  0.54161945367E+02  0.76712559290E+02  0.47000000000E+01 0.  1.
<mgrwt>
<rscale>  0 0.33713408E+03</rscale>
<asrwt>0</asrwt>
<pdfrwt beam="1">  1        1 0.88955955E-01 0.33721955E+03</pdfrwt>
<pdfrwt beam="2">  1       -1 0.30705164E-01 0.33721955E+03</pdfrwt>
<totfact> 0.36438741E+02</totfact>
</mgrwt>
</event>
<event>
 8    1  0.2964543E-004  0.1025635E+03  0.7546771E-02  0.1276283E+00
         -1   -1    0    0    0  501 -0.00000000000E+00  0.00000000000E+00  0.68991384885E+02  0.68991384885E+02  0.00000000000E+00 0.  1.
          1   -1    0    0  501    0  0.00000000000E+00 -0.00000000000E+00 -0.25702865270E+03  0.25702865270E+03  0.00000000000E+00 0. -1.
         23    2    1    2    0    0  0.18092032375E+02 -0.37302074819E+02  0.11093621314E+02  0.10316169022E+03  0.93810977359E+02 0.  0.
         23    2    1    2    0    0 -0.18092032375E+02  0.37302074819E+02 -0.19913088912E+03  0.22285834737E+03  0.91071211509E+02 0.  0.
          5    1    3    3  502    0 -0.36335424560E+02 -0.34676195035E+01 -0.43924691607E+01  0.37063071220E+02  0.47000000000E+01 0. -1.
         -5    1    4    4    0  503 -0.18115720008E+02 -0.26916594380E+02 -0.94247676868E+02  0.99786757436E+02  0.47000000000E+01 0.  1.
          5    1    4    4  503    0  0.23687632833E-01  0.64218669199E+02 -0.10488321226E+03  0.12307158993E+03  0.47000000000E+01 0. -1.
         -5    1    3    3    0  502  0.54427456935E+02 -0.33834455315E+02  0.15486090475E+02  0.66098618995E+02  0.47000000000E+01 0.  1.
<mgrwt>
<rscale>  0 0.10193272E+03</rscale>
<asrwt>0</asrwt>
<pdfrwt beam="1">  1        1 0.39542869E-01 0.10256347E+03</pdfrwt>
<pdfrwt beam="2">  1       -1 0.10614059E-01 0.10256347E+03</pdfrwt>
<totfact> 0.55547053E+03</totfact>
</mgrwt>
</event>
<event>
 8    1  0.2964543E-004  0.1189274E+03  0.7546771E-02  0.1246333E+00
         -1   -1    0    0    0  501 -0.00000000000E+00  0.00000000000E+00  0.20004332920E+02  0.20004332920E+02  0.00000000000E+00 0.  1.
          1   -1    0    0  501    0  0.00000000000E+00 -0.00000000000E+00 -0.70611901110E+03  0.70611901110E+03  0.00000000000E+00 0. -1.
         23    2    1    2    0    0 -0.28200925923E+02  0.67503162612E+02 -0.40803987867E+03  0.42501796651E+03  0.93764386007E+02 0.  0.
         23    2    1    2    0    0  0.28200925923E+02 -0.67503162612E+02 -0.27807479951E+03  0.30110537751E+03  0.89369374282E+02 0.  0.
          5    1    4    4  502    0  0.42391353214E+02  0.35896237598E+01 -0.10716682120E+03  0.11539813600E+03  0.47000000000E+01 0. -1.
         -5    1    3    3    0  503 -0.21036540884E+02 -0.13154187169E+02 -0.34387886804E+02  0.42663631482E+02  0.47000000000E+01 0.  1.
          5    1    3    3  503    0 -0.71643850390E+01  0.80657349781E+02 -0.37365199186E+03  0.38235433502E+03  0.47000000000E+01 0. -1.
         -5    1    4    4    0  502 -0.14190427291E+02 -0.71092786372E+02 -0.17090797831E+03  0.18570724151E+03  0.47000000000E+01 0.  1.
<mgrwt>
<rscale>  0 0.11805960E+03</rscale>
<asrwt>0</asrwt>
<pdfrwt beam="1">  1        1 0.10863368E+00 0.11892741E+03</pdfrwt>
<pdfrwt beam="2">  1       -1 0.30775900E-02 0.11892741E+03</pdfrwt>
<totfact> 0.96062965E+03</totfact>
</mgrwt>
</event>
<event>
 8    1  0.2964543E-004  0.1130847E+03  0.7546771E-02  0.1255536E+00
         -2   -1    0    0    0  501 -0.00000000000E+00  0.00000000000E+00  0.68210635648E+02  0.68210635648E+02  0.00000000000E+00 0.  1.
          2   -1    0    0  501    0  0.00000000000E+00 -0.00000000000E+00 -0.21437960622E+03  0.21437960622E+03  0.00000000000E+00 0. -1.
         23    2    1    2    0    0 -0.63205799919E+02 -0.21941007607E+02 -0.12542456119E+03  0.16887711240E+03  0.91168950773E+02 0.  0.
         23    2    1    2    0    0  0.63205799919E+02  0.21941007607E+02 -0.20744409373E+02  0.11371312946E+03  0.89576583618E+02 0.  0.
          5    1    4    4  502    0  0.67803755541E+02  0.47885675234E+02 -0.65030140922E+01  0.83395241773E+02  0.47000000000E+01 0.  1.
         -5    1    3    3    0  503  0.51709802465E+01  0.26731155890E+02 -0.20352056331E+02  0.34316030202E+02  0.47000000000E+01 0.  1.
          5    1    3    3  503    0 -0.68376780166E+02 -0.48672163497E+02 -0.10507250486E+03  0.13456108220E+03  0.47000000000E+01 0. -1.
         -5    1    4    4    0  502 -0.45979556220E+01 -0.25944667627E+02 -0.14241395281E+02  0.30317887685E+02  0.47000000000E+01 0. -1.
<mgrwt>
<rscale>  0 0.11276342E+03</rscale>
<asrwt>0</asrwt>
<pdfrwt beam="1">  1        2 0.32981478E-01 0.11308474E+03</pdfrwt>
<pdfrwt beam="2">  1       -2 0.10493944E-01 0.11308474E+03</pdfrwt>
<totfact> 0.90374288E+03</totfact>
</mgrwt>
</event>
<event>
 8    1  0.2964543E-004  0.9347289E+02  0.7546771E-02  0.1295187E+00
         -1   -1    0    0    0  501 -0.00000000000E+00  0.00000000000E+00  0.90355497142E+02  0.90355497142E+02  0.00000000000E+00 0.  1.
          1   -1    0    0  501    0  0.00000000000E+00 -0.00000000000E+00 -0.13400261088E+03  0.13400261088E+03  0.00000000000E+00 0. -1.
         23    2    1    2    0    0  0.92618170140E-01 -0.10292424409E+02  0.38037671647E+02  0.10091603719E+03  0.92904464477E+02 0.  0.
         23    2    1    2    0    0 -0.92618170140E-01  0.10292424409E+02 -0.81684785388E+02  0.12344207083E+03  0.91976073570E+02 0.  0.
          5    1    3    3  502    0 -0.21924237423E+02 -0.56867097321E+01 -0.24856725254E+02  0.33955230002E+02  0.47000000000E+01 0. -1.
         -5    1    4    4    0  503  0.13549443046E+02 -0.38808073717E+02 -0.36365950526E+02  0.55083812052E+02  0.47000000000E+01 0.  1.
          5    1    4    4  503    0 -0.13642061216E+02  0.49100498126E+02 -0.45318834862E+02  0.68358258782E+02  0.47000000000E+01 0. -1.
         -5    1    3    3    0  502  0.22016855593E+02 -0.46057146769E+01  0.62894396901E+02  0.66960807189E+02  0.47000000000E+01 0.  1.
<mgrwt>
<rscale>  0 0.93241364E+02</rscale>
<asrwt>0</asrwt>
<pdfrwt beam="1">  1        1 0.20615786E-01 0.93472895E+02</pdfrwt>
<pdfrwt beam="2">  1       -1 0.13900846E-01 0.93472895E+02</pdfrwt>
<totfact> 0.81622870E+03</totfact>
</mgrwt>
</event>
<event>
 8    1  0.2964543E-004  0.9928045E+02  0.7546771E-02  0.1288746E+00
          1   -1    0    0  501    0  0.00000000000E+00  0.00000000000E+00  0.22658153572E+03  0.22658153572E+03  0.00000000000E+00 0. -1.
         -1   -1    0    0    0  501 -0.00000000000E+00 -0.00000000000E+00 -0.11934450010E+03  0.11934450010E+03  0.00000000000E+00 0.  1.
         23    2    1    2    0    0 -0.22031748751E+02  0.29340211075E+02 -0.87663540701E+02  0.13244434721E+03  0.92251627633E+02 0.  0.
         23    2    1    2    0    0  0.22031748751E+02 -0.29340211075E+02  0.19490057633E+03  0.21348168861E+03  0.79006017383E+02 0.  0.
          5    1    4    4  502    0  0.26074835223E+02 -0.51446843788E+02  0.17015174986E+03  0.17972307239E+03  0.47000000000E+01 0. -1.
         -5    1    3    3    0  503 -0.17333854966E+02  0.59664273130E+02 -0.78204431918E+02  0.99991555582E+02  0.47000000000E+01 0.  1.
          5    1    3    3  503    0 -0.46978937850E+01 -0.30324062055E+02 -0.94591087833E+01  0.32452791629E+02  0.47000000000E+01 0. -1.
         -5    1    4    4    0  502 -0.40430864727E+01  0.22106632713E+02  0.24748826462E+02  0.33758616224E+02  0.47000000000E+01 0.  1.
<mgrwt>
<rscale>  0 0.96087112E+02</rscale>
<asrwt>0</asrwt>
<pdfrwt beam="1">  1        1 0.34858698E-01 0.99280455E+02</pdfrwt>
<pdfrwt beam="2">  1       -1 0.18360692E-01 0.99280455E+02</pdfrwt>
<totfact> 0.27705427E+03</totfact>
</mgrwt>
</event>
<event>
 8    1  0.2964543E-004  0.1140287E+03  0.7546771E-02  0.1253529E+00
          2   -1    0    0  501    0  0.00000000000E+00  0.00000000000E+00  0.12444239756E+04  0.12444239756E+04  0.00000000000E+00 0. -1.
         -2   -1    0    0    0  501 -0.00000000000E+00 -0.00000000000E+00 -0.23368549320E+02  0.23368549320E+02  0.00000000000E+00 0.  1.
         23    2    1    2    0    0 -0.50531099210E+02 -0.43121010708E+02  0.13893075587E+03  0.17973394588E+03  0.92680757558E+02 0.  0.
         23    2    1    2    0    0  0.50531099210E+02  0.43121010708E+02  0.10821246704E+04  0.10880585790E+04  0.92004649725E+02 0.  0.
          5    1    4    4  502    0  0.42850719387E+00  0.60080738263E+02  0.55123399394E+03  0.55451860637E+03  0.47000000000E+01 0. -1.
         -5    1    4    4    0  502  0.50102592016E+02 -0.16959727556E+02  0.53089067645E+03  0.53353997266E+03  0.47000000000E+01 0.  1.
          5    1    3    3  503    0 -0.67072820420E+02 -0.59863291136E+02  0.10912126091E+03  0.14146348097E+03  0.47000000000E+01 0. -1.
         -5    1    3    3    0  503  0.16541721210E+02  0.16742280428E+02  0.29809494959E+02  0.38270464908E+02  0.47000000000E+01 0.  1.
<mgrwt>
<rscale>  0 0.11389120E+03</rscale>
<asrwt>0</asrwt>
<pdfrwt beam="1">  1        2 0.19144979E+00 0.11402866E+03</pdfrwt>
<pdfrwt beam="2">  1       -2 0.35951624E-02 0.11402866E+03</pdfrwt>
<totfact> 0.59167854E+03</totfact>
</mgrwt>
</event>
<event>
 8    1  0.2964543E-004  0.9793956E+02  0.7546771E-02  0.1286033E+00
         -1   -1    0    0    0  501 -0.00000000000E+00  0.00000000000E+00  0.26702846578E+03  0.26702846578E+03  0.00000000000E+00 0.  1.
          1   -1    0    0  501    0  0.00000000000E+00 -0.00000000000E+00 -0.39759325675E+02  0.39759325675E+02  0.00000000000E+00 0. -1.
         23    2    1    2    0    0  0.32440986098E+01  0.29331911043E+02  0.16527605133E+03  0.19087704665E+03  0.90812931967E+02 0.  0.
         23    2    1    2    0    0 -0.32440986098E+01 -0.29331911043E+02  0.61993088770E+02  0.11591074480E+03  0.93387753609E+02 0.  0.
          5    1    3    3  502    0  0.32697661787E+02  0.27448684024E+01  0.16884010370E+02  0.37199881654E+02  0.47000000000E+01 0. -1.
         -5    1    3    3    0  502 -0.29453563177E+02  0.26587042641E+02  0.14839204096E+03  0.15367716500E+03  0.47000000000E+01 0.  1.
          5    1    4    4  503    0  0.25702849595E+02 -0.40531654787E+02  0.20763403117E+01  0.48268547794E+02  0.47000000000E+01 0. -1.
         -5    1    4    4    0  503 -0.28946948205E+02  0.11199743744E+02  0.59916748458E+02  0.67642197008E+02  0.47000000000E+01 0.  1.
<mgrwt>
<rscale>  0 0.97320720E+02</rscale>
<asrwt>0</asrwt>
<pdfrwt beam="1">  1        1 0.61168195E-02 0.97939561E+02</pdfrwt>
<pdfrwt beam="2">  1       -1 0.41081301E-01 0.97939561E+02</pdfrwt>
<totfact> 0.68311616E+03</totfact>
</mgrwt>
</event>
<event>
 8    1  0.2964543E-004  0.9389831E+02  0.7546771E-02  0.1295638E+00
         -1   -1    0    0    0  501 -0.00000000000E+00  0.00000000000E+00  0.26304063261E+03  0.26304063261E+03  0.00000000000E+00 0.  1.
          1   -1    0    0  501    0  0.00000000000E+00 -0.00000000000E+00 -0.33092352302E+02  0.33092352302E+02  0.00000000000E+00 0. -1.
         23    2    1    2    0    0 -0.23358572765E+01 -0.88776714643E+01  0.13540255769E+03  0.16288214620E+03  0.90069260256E+02 0.  0.
         23    2    1    2    0    0  0.23358572765E+01  0.88776714643E+01  0.94545722621E+02  0.13325083871E+03  0.93448504919E+02 0.  0.
          5    1    4    4  502    0 -0.33113029564E+02 -0.27189891621E+02  0.44147462477E+02  0.61699687004E+02  0.47000000000E+01 0. -1.
         -5    1    3    3    0  503  0.91932048194E+01  0.20252848685E+02  0.12845325088E+03  0.13044930263E+03  0.47000000000E+01 0.  1.
          5    1    3    3  503    0 -0.11529062096E+02 -0.29130520150E+02  0.69493068050E+01  0.32432843570E+02  0.47000000000E+01 0. -1.
         -5    1    4    4    0  502  0.35448886840E+02  0.36067563085E+02  0.50398260144E+02  0.71551151707E+02  0.47000000000E+01 0.  1.
<mgrwt>
<rscale>  0 0.93046165E+02</rscale>
<asrwt>0</asrwt>
<pdfrwt beam="1">  1        1 0.50911313E-02 0.93898309E+02</pdfrwt>
<pdfrwt beam="2">  1       -1 0.40467788E-01 0.93898309E+02</pdfrwt>
<totfact> 0.89464767E+03</totfact>
</mgrwt>
</event>
<event>
 8    1  0.2964543E-004  0.1003726E+03  0.7546771E-02  0.1284790E+00
         -2   -1    0    0    0  501 -0.00000000000E+00  0.00000000000E+00  0.14347842149E+02  0.14347842149E+02  0.00000000000E+00 0.  1.
          2   -1    0    0  501    0  0.00000000000E+00 -0.00000000000E+00 -0.70472280525E+03  0.70472280525E+03  0.00000000000E+00 0. -1.
         23    2    1    2    0    0  0.37863752879E+02  0.17331228622E+02 -0.24937789777E+03  0.26881963952E+03  0.91327035582E+02 0.  0.
         23    2    1    2    0    0 -0.37863752879E+02 -0.17331228622E+02 -0.44099706532E+03  0.45025100787E+03  0.80706401217E+02 0.  0.
          5    1    4    4  502    0 -0.77400715448E+01  0.31517829018E+02 -0.18190950268E+03  0.18484166040E+03  0.47000000000E+01 0. -1.
         -5    1    3    3    0  503 -0.10763920535E+02 -0.26083733267E+02 -0.37971991822E+02  0.47541406051E+02  0.47000000000E+01 0.  1.
          5    1    3    3  503    0  0.48627673414E+02  0.43414961889E+02 -0.21140590595E+03  0.22127823347E+03  0.47000000000E+01 0. -1.
         -5    1    4    4    0  502 -0.30123681334E+02 -0.48849057640E+02 -0.25908756264E+03  0.26540934747E+03  0.47000000000E+01 0.  1.
<mgrwt>
<rscale>  0 0.97893108E+02</rscale>
<asrwt>0</asrwt>
<pdfrwt beam="1">  1        2 0.10841889E+00 0.10037262E+03</pdfrwt>
<pdfrwt beam="2">  1       -2 0.22073603E-02 0.10037262E+03</pdfrwt>
<totfact> 0.25475224E+04</totfact>
</mgrwt>
</event>
