<event>
 8    1  0.2954813E-003  0.9159444E+02  0.7546771E-02  0.1299126E+00
          1   -1    0    0  501    0  0.00000000000E+00  0.00000000000E+00  0.28555559082E+03  0.28555559082E+03  0.00000000000E+00 0. -1.
         -1   -1    0    0    0  501 -0.00000000000E+00 -0.00000000000E+00 -0.39096634844E+02  0.39096634844E+02  0.00000000000E+00 0.  1.
         23    2    1    2    0    0  0.71197159893E+01  0.57726215195E+01  0.20428107736E+03  0.22381317234E+03  0.90981119094E+02 0.  0.
         23    2    1    2    0    0 -0.71197159893E+01 -0.57726215195E+01  0.42177878617E+02  0.10083905332E+03  0.91134668022E+02 0.  0.
          5    1    3    3  502    0 -0.20384517332E+02  0.20254911831E+02  0.18424944416E+03  0.18653615647E+03  0.47000000000E+01 0. -1.
         -5    1    4    4    0  503  0.24069709717E+02 -0.38815013886E+02  0.20920227857E+02  0.50454951813E+02  0.47000000000E+01 0.  1.
          5    1    4    4  503    0 -0.31189425706E+02  0.33042392366E+02  0.21257650760E+02  0.50384101511E+02  0.47000000000E+01 0. -1.
         -5    1    3    3    0  502  0.27504233321E+02 -0.14482290311E+02  0.20031633204E+02  0.37277015868E+02  0.47000000000E+01 0.  1.
<mgrwt>
<rscale>  0 0.91556221E+02</rscale>
<asrwt>0</asrwt>
<pdfrwt beam="1">  1        1 0.43931628E-01 0.91594439E+02</pdfrwt>
<pdfrwt beam="2">  1       -1 0.60148671E-02 0.91594439E+02</pdfrwt>
<totfact> 0.11319967E+04</totfact>
</mgrwt>
</event>
<event>
 8    1  0.2954813E-003  0.9810404E+02  0.7546771E-02  0.1286866E+00
          1   -1    0    0  501    0  0.00000000000E+00  0.00000000000E+00  0.16873569775E+03  0.16873569775E+03  0.00000000000E+00 0. -1.
         -1   -1    0    0    0  501 -0.00000000000E+00 -0.00000000000E+00 -0.19739278973E+03  0.19739278973E+03  0.00000000000E+00 0.  1.
         23    2    1    2    0    0  0.86181923210E+01 -0.27382581539E+02 -0.17002653125E+03  0.19405373588E+03  0.89015459703E+02 0.  0.
         23    2    1    2    0    0 -0.86181923210E+01  0.27382581539E+02  0.14136943927E+03  0.17207475161E+03  0.93810035554E+02 0.  0.
          5    1    4    4  502    0  0.12201865935E+02  0.39719893210E+02  0.14136656382E+03  0.14742167689E+03  0.47000000000E+01 0. -1.
         -5    1    4    4    0  502 -0.20820058256E+02 -0.12337311671E+02  0.28754506775E-02  0.24653074724E+02  0.47000000000E+01 0.  1.
          5    1    3    3  503    0 -0.14258602438E+02 -0.28162848634E+02 -0.11668410668E+02  0.33980812147E+02  0.47000000000E+01 0. -1.
         -5    1    3    3    0  503  0.22876794759E+02  0.78026709498E+00 -0.15835812059E+03  0.16007292373E+03  0.47000000000E+01 0.  1.
<mgrwt>
<rscale>  0 0.96939930E+02</rscale>
<asrwt>0</asrwt>
<pdfrwt beam="1">  1        1 0.25959338E-01 0.98104035E+02</pdfrwt>
<pdfrwt beam="2">  1       -1 0.30368121E-01 0.98104035E+02</pdfrwt>
<totfact> 0.17615101E+03</totfact>
</mgrwt>
</event>
<event>
 8    1  0.2954813E-003  0.2392904E+03  0.7546771E-02  0.1120650E+00
          1   -1    0    0  501    0  0.00000000000E+00  0.00000000000E+00  0.78897117788E+03  0.78897117788E+03  0.00000000000E+00 0. -1.
         -1   -1    0    0    0  501 -0.00000000000E+00 -0.00000000000E+00 -0.74416220485E+02  0.74416220485E+02  0.00000000000E+00 0.  1.
         23    2    1    2    0    0  0.69606246740E+02  0.20989124327E+03  0.27601218223E+03  0.36380789747E+03  0.85288322396E+02 0.  0.
         23    2    1    2    0    0 -0.69606246740E+02 -0.20989124327E+03  0.43854277517E+03  0.49957950090E+03  0.91436034879E+02 0.  0.
          5    1    3    3  502    0 -0.63159114903E+00  0.11293517319E+03  0.10021474046E+03  0.15106235949E+03  0.47000000000E+01 0. -1.
         -5    1    3    3    0  502  0.70237837889E+02  0.96956070087E+02  0.17579744177E+03  0.21274553798E+03  0.47000000000E+01 0.  1.
          5    1    4    4  503    0 -0.44004706471E+02 -0.11823271231E+03  0.33918788172E+03  0.36191973911E+03  0.47000000000E+01 0. -1.
         -5    1    4    4    0  503 -0.25601540269E+02 -0.91658530964E+02  0.99354893447E+02  0.13765976178E+03  0.47000000000E+01 0.  1.
<mgrwt>
<rscale>  0 0.23871813E+03</rscale>
<asrwt>0</asrwt>
<pdfrwt beam="1">  1        1 0.12138018E+00 0.23929043E+03</pdfrwt>
<pdfrwt beam="2">  1       -1 0.11448650E-01 0.23929043E+03</pdfrwt>
<totfact> 0.11626245E+03</totfact>
</mgrwt>
</event>
<event>
 8    1  0.2954813E-003  0.9582612E+02  0.7546771E-02  0.1292808E+00
         -1   -1    0    0    0  501 -0.00000000000E+00  0.00000000000E+00  0.11612088370E+03  0.11612088370E+03  0.00000000000E+00 0.  1.
          1   -1    0    0  501    0  0.00000000000E+00 -0.00000000000E+00 -0.77197231410E+02  0.77197231410E+02  0.00000000000E+00 0. -1.
         23    2    1    2    0    0 -0.82218905028E+01  0.29058781457E+02  0.94673647260E+00  0.95830792402E+02  0.90943016220E+02 0.  0.
         23    2    1    2    0    0  0.82218905028E+01 -0.29058781457E+02  0.37976915819E+02  0.97487322710E+02  0.84554832451E+02 0.  0.
          5    1    3    3  502    0  0.25505915651E+02  0.49547830187E+02 -0.21623055884E+01  0.55966997194E+02  0.47000000000E+01 0. -1.
         -5    1    3    3    0  502 -0.33727806154E+02 -0.20489048730E+02  0.31090420610E+01  0.39863795208E+02  0.47000000000E+01 0.  1.
          5    1    4    4  503    0  0.17161050674E+01  0.29850546621E+02  0.14580943835E+02  0.33596042524E+02  0.47000000000E+01 0. -1.
         -5    1    4    4    0  503  0.65057854354E+01 -0.58909328078E+02  0.23395971984E+02  0.63891280186E+02  0.47000000000E+01 0.  1.
<mgrwt>
<rscale>  0 0.94279031E+02</rscale>
<asrwt>0</asrwt>
<pdfrwt beam="1">  1        1 0.11876497E-01 0.95826116E+02</pdfrwt>
<pdfrwt beam="2">  1       -1 0.17864751E-01 0.95826116E+02</pdfrwt>
<totfact> 0.11189837E+04</totfact>
</mgrwt>
</event>
<event>
 8    1  0.2954813E-003  0.9514488E+02  0.7546771E-02  0.1293528E+00
          2   -1    0    0  501    0  0.00000000000E+00  0.00000000000E+00  0.84777123197E+02  0.84777123197E+02  0.00000000000E+00 0. -1.
         -2   -1    0    0    0  501 -0.00000000000E+00 -0.00000000000E+00 -0.11063306282E+03  0.11063306282E+03  0.00000000000E+00 0.  1.
         23    2    1    2    0    0  0.10899687310E+02 -0.11535006481E+02  0.15221205676E+02  0.91776792738E+02  0.89103507366E+02 0.  0.
         23    2    1    2    0    0 -0.10899687310E+02  0.11535006481E+02 -0.41077145294E+02  0.10363339327E+03  0.93811986324E+02 0.  0.
          5    1    4    4  502    0 -0.31148559393E+02 -0.26400270685E+02  0.38320842817E+01  0.41279315818E+02  0.47000000000E+01 0. -1.
         -5    1    4    4    0  502  0.20248872083E+02  0.37935277166E+02 -0.44909229576E+02  0.62354077456E+02  0.47000000000E+01 0.  1.
          5    1    3    3  503    0 -0.36575608781E+02 -0.16244988959E+02  0.17161582017E+02  0.43798227376E+02  0.47000000000E+01 0. -1.
         -5    1    3    3    0  503  0.47475296090E+02  0.47099824778E+01 -0.19403763405E+01  0.47978565362E+02  0.47000000000E+01 0.  1.
<mgrwt>
<rscale>  0 0.93963273E+02</rscale>
<asrwt>0</asrwt>
<pdfrwt beam="1">  1        2 0.13042634E-01 0.95144881E+02</pdfrwt>
<pdfrwt beam="2">  1       -2 0.17020471E-01 0.95144881E+02</pdfrwt>
<totfact> 0.11566936E+04</totfact>
</mgrwt>
</event>
<event>
 8    1  0.2954813E-003  0.1084680E+03  0.7546771E-02  0.1264192E+00
          3   -1    0    0  501    0  0.00000000000E+00  0.00000000000E+00  0.35914747851E+02  0.35914747851E+02  0.00000000000E+00 0. -1.
         -3   -1    0    0    0  501 -0.00000000000E+00 -0.00000000000E+00 -0.52576493642E+03  0.52576493642E+03  0.00000000000E+00 0.  1.
         23    2    1    2    0    0 -0.44971982780E+02 -0.34626050630E+02 -0.41830400311E+03  0.43174062918E+03  0.90555448473E+02 0.  0.
         23    2    1    2    0    0  0.44971982780E+02  0.34626050630E+02 -0.71546185455E+02  0.12993905509E+03  0.92432996093E+02 0.  0.
          5    1    3    3  502    0 -0.60431836431E+02 -0.49662777476E+02 -0.24994324559E+03  0.26193914243E+03  0.47000000000E+01 0. -1.
         -5    1    4    4    0  503 -0.27213918563E+02  0.13515459001E+01 -0.10384223814E+02  0.29535506498E+02  0.47000000000E+01 0.  1.
          5    1    4    4  503    0  0.72185901344E+02  0.33274504729E+02 -0.61161961641E+02  0.10040354859E+03  0.47000000000E+01 0. -1.
         -5    1    3    3    0  502  0.15459853651E+02  0.15036726846E+02 -0.16836075752E+03  0.16980148675E+03  0.47000000000E+01 0.  1.
<mgrwt>
<rscale>  0 0.10806689E+03</rscale>
<asrwt>0</asrwt>
<pdfrwt beam="1">  1        3 0.55253461E-02 0.10846797E+03</pdfrwt>
<pdfrwt beam="2">  1       -3 0.80886910E-01 0.10846797E+03</pdfrwt>
<totfact> 0.63218437E+02</totfact>
</mgrwt>
</event>
<event>
 8    1  0.2954813E-003  0.1026881E+03  0.7546771E-02  0.1277163E+00
          2   -1    0    0  501    0  0.00000000000E+00  0.00000000000E+00  0.53926982562E+03  0.53926982562E+03  0.00000000000E+00 0. -1.
         -2   -1    0    0    0  501 -0.00000000000E+00 -0.00000000000E+00 -0.24788189162E+02  0.24788189162E+02  0.00000000000E+00 0.  1.
         23    2    1    2    0    0 -0.21481199569E+02 -0.30935701979E+02  0.39274235416E+03  0.40479311826E+03  0.90512166293E+02 0.  0.
         23    2    1    2    0    0  0.21481199569E+02  0.30935701979E+02  0.12173928230E+03  0.15926489652E+03  0.95532166407E+02 0.  0.
          5    1    3    3  502    0  0.11593092474E+02  0.23485104131E+02  0.55384229212E+02  0.61444712991E+02  0.47000000000E+01 0. -1.
         -5    1    3    3    0  502 -0.33074292043E+02 -0.54420806110E+02  0.33735812495E+03  0.34334840527E+03  0.47000000000E+01 0.  1.
          5    1    4    4  503    0 -0.36897953997E+02  0.22231547279E+02  0.55626800730E+02  0.70513343866E+02  0.47000000000E+01 0. -1.
         -5    1    4    4    0  503  0.58379153567E+02  0.87041547006E+01  0.66112481569E+02  0.88751552659E+02  0.47000000000E+01 0.  1.
<mgrwt>
<rscale>  0 0.10150462E+03</rscale>
<asrwt>0</asrwt>
<pdfrwt beam="1">  1        2 0.82964580E-01 0.10268814E+03</pdfrwt>
<pdfrwt beam="2">  1       -2 0.38135680E-02 0.10268814E+03</pdfrwt>
<totfact> 0.15585051E+04</totfact>
</mgrwt>
</event>
<event>
 8    1  0.2954813E-003  0.1001926E+03  0.7546771E-02  0.1280776E+00
          1   -1    0    0  501    0  0.00000000000E+00  0.00000000000E+00  0.87409584126E+02  0.87409584126E+02  0.00000000000E+00 0. -1.
         -1   -1    0    0    0  501 -0.00000000000E+00 -0.00000000000E+00 -0.15677660572E+03  0.15677660572E+03  0.00000000000E+00 0.  1.
         23    2    1    2    0    0  0.93196520096E+01 -0.39596176294E+02 -0.99455434982E+02  0.14117344245E+03  0.91563334441E+02 0.  0.
         23    2    1    2    0    0 -0.93196520096E+01  0.39596176294E+02  0.30088413386E+02  0.10301274740E+03  0.89730710553E+02 0.  0.
          5    1    3    3  502    0  0.20885077596E+02 -0.71710141977E+01  0.11192335771E+02  0.25198577158E+02  0.47000000000E+01 0. -1.
         -5    1    3    3    0  502 -0.11565425586E+02 -0.32425162096E+02 -0.11064777075E+03  0.11597486529E+03  0.47000000000E+01 0.  1.
          5    1    4    4  503    0 -0.23855283975E+02  0.59143802245E+02 -0.89113595300E-01  0.63946554706E+02  0.47000000000E+01 0. -1.
         -5    1    4    4    0  503  0.14535631966E+02 -0.19547625952E+02  0.30177526981E+02  0.39066192695E+02  0.47000000000E+01 0.  1.
<mgrwt>
<rscale>  0 0.99771965E+02</rscale>
<asrwt>0</asrwt>
<pdfrwt beam="1">  1        1 0.13447628E-01 0.10019260E+03</pdfrwt>
<pdfrwt beam="2">  1       -1 0.24119478E-01 0.10019260E+03</pdfrwt>
<totfact> 0.59194898E+03</totfact>
</mgrwt>
</event>
<event>
 8    1  0.2954813E-003  0.9844795E+02  0.7546771E-02  0.1284865E+00
          2   -1    0    0  501    0  0.00000000000E+00  0.00000000000E+00  0.97202081801E+02  0.97202081801E+02  0.00000000000E+00 0. -1.
         -2   -1    0    0    0  501 -0.00000000000E+00 -0.00000000000E+00 -0.98413010096E+02  0.98413010096E+02  0.00000000000E+00 0.  1.
         23    2    1    2    0    0 -0.62452780362E+01  0.33506171872E+02  0.95300281543E+01  0.96582944296E+02  0.89865325021E+02 0.  0.
         23    2    1    2    0    0  0.62452780362E+01 -0.33506171872E+02 -0.10740956449E+02  0.99032147601E+02  0.92359791369E+02 0.  0.
          5    1    4    4  502    0  0.23699791793E+02  0.20926872284E+02 -0.24231843702E+02  0.40110925741E+02  0.47000000000E+01 0. -1.
         -5    1    3    3    0  503  0.36765383134E+02  0.17459210838E+01 -0.11636743792E+02  0.38887600125E+02  0.47000000000E+01 0.  1.
          5    1    3    3  503    0 -0.43010661170E+02  0.31760250788E+02  0.21166771946E+02  0.57695344171E+02  0.47000000000E+01 0. -1.
         -5    1    4    4    0  502 -0.17454513757E+02 -0.54433044156E+02  0.13490887252E+02  0.58921221860E+02  0.47000000000E+01 0.  1.
<mgrwt>
<rscale>  0 0.97858594E+02</rscale>
<asrwt>0</asrwt>
<pdfrwt beam="1">  1        2 0.14954166E-01 0.98447946E+02</pdfrwt>
<pdfrwt beam="2">  1       -2 0.15140463E-01 0.98447946E+02</pdfrwt>
<totfact> 0.11974009E+04</totfact>
</mgrwt>
</event>
<event>
 8    1  0.2954813E-003  0.3477276E+03  0.7546771E-02  0.1063900E+00
         -2   -1    0    0    0  501 -0.00000000000E+00  0.00000000000E+00  0.90323454102E+02  0.90323454102E+02  0.00000000000E+00 0.  1.
          2   -1    0    0  501    0  0.00000000000E+00 -0.00000000000E+00 -0.14937866333E+04  0.14937866333E+04  0.00000000000E+00 0. -1.
         23    2    1    2    0    0 -0.27569004465E+03 -0.19152679102E+03 -0.96432039026E+03  0.10239664474E+04  0.76850230000E+02 0.  0.
         23    2    1    2    0    0  0.27569004465E+03  0.19152679102E+03 -0.43914278893E+03  0.56014364003E+03  0.90702789368E+02 0.  0.
          5    1    4    4  502    0  0.13898964838E+03  0.85763150008E+02 -0.28497758581E+03  0.32849315772E+03  0.47000000000E+01 0. -1.
         -5    1    4    4    0  502  0.13670039627E+03  0.10576364101E+03 -0.15416520312E+03  0.23165048231E+03  0.47000000000E+01 0.  1.
          5    1    3    3  503    0 -0.13857139723E+01 -0.20396566015E+02 -0.54526555870E+02  0.58422387862E+02  0.47000000000E+01 0.  1.
         -5    1    3    3    0  503 -0.27430433068E+03 -0.17113022501E+03 -0.90979383439E+03  0.96554405950E+03  0.47000000000E+01 0.  1.
<mgrwt>
<rscale>  0 0.34688618E+03</rscale>
<asrwt>0</asrwt>
<pdfrwt beam="1">  1        2 0.22981333E+00 0.34772764E+03</pdfrwt>
<pdfrwt beam="2">  1       -2 0.13895916E-01 0.34772764E+03</pdfrwt>
<totfact> 0.53175047E+02</totfact>
</mgrwt>
</event>
<event>
 8    1  0.2954813E-003  0.9226302E+02  0.7546771E-02  0.1298818E+00
          2   -1    0    0  501    0  0.00000000000E+00  0.00000000000E+00  0.25000931743E+03  0.25000931743E+03  0.00000000000E+00 0. -1.
         -2   -1    0    0    0  501 -0.00000000000E+00 -0.00000000000E+00 -0.34834738714E+02  0.34834738714E+02  0.00000000000E+00 0.  1.
         23    2    1    2    0    0  0.15270610511E+02  0.29191365818E+01  0.13705033472E+03  0.16394797692E+03  0.88625233346E+02 0.  0.
         23    2    1    2    0    0 -0.15270610511E+02 -0.29191365818E+01  0.78124243997E+02  0.12089607922E+03  0.90943672501E+02 0.  0.
          5    1    3    3  502    0 -0.32659511411E+02 -0.33832222531E+01  0.91631436142E+02  0.97449987008E+02  0.47000000000E+01 0. -1.
         -5    1    4    4    0  503  0.30361654973E+02  0.45278212118E+01  0.12679052042E+01  0.31081004508E+02  0.47000000000E+01 0.  1.
          5    1    4    4  503    0 -0.45632265485E+02 -0.74469577937E+01  0.76856338793E+02  0.89815074716E+02  0.47000000000E+01 0. -1.
         -5    1    3    3    0  502  0.47930121923E+02  0.63023588349E+01  0.45418898582E+02  0.66497989916E+02  0.47000000000E+01 0.  1.
<mgrwt>
<rscale>  0 0.91686528E+02</rscale>
<asrwt>0</asrwt>
<pdfrwt beam="1">  1        2 0.38462971E-01 0.92263018E+02</pdfrwt>
<pdfrwt beam="2">  1       -2 0.53591907E-02 0.92263018E+02</pdfrwt>
<totfact> 0.21032031E+04</totfact>
</mgrwt>
</event>
<event>
 8    1  0.2954813E-003  0.1446276E+03  0.7546771E-02  0.1207306E+00
          1   -1    0    0  501    0  0.00000000000E+00  0.00000000000E+00  0.14050491017E+03  0.14050491017E+03  0.00000000000E+00 0. -1.
         -1   -1    0    0    0  501 -0.00000000000E+00 -0.00000000000E+00 -0.15602518031E+03  0.15602518031E+03  0.00000000000E+00 0.  1.
         23    2    1    2    0    0  0.90862651193E+02 -0.67975661290E+02 -0.40008418269E+02  0.14984398263E+03  0.89307523139E+02 0.  0.
         23    2    1    2    0    0 -0.90862651193E+02  0.67975661290E+02  0.24488148126E+02  0.14668610785E+03  0.89668461160E+02 0.  0.
          5    1    4    4  502    0 -0.76157880861E+02  0.88970915605E+02  0.12101030556E+02  0.11783196333E+03  0.47000000000E+01 0. -1.
         -5    1    3    3    0  503  0.28494678518E+02 -0.90968402550E+01 -0.54869444873E+02  0.62669332110E+02  0.47000000000E+01 0.  1.
          5    1    3    3  503    0  0.62367972676E+02 -0.58878821035E+02  0.14861026604E+02  0.87174650523E+02  0.47000000000E+01 0. -1.
         -5    1    4    4    0  502 -0.14704770332E+02 -0.20995254315E+02  0.12387117570E+02  0.28854144520E+02  0.47000000000E+01 0.  1.
<mgrwt>
<rscale>  0 0.14457170E+03</rscale>
<asrwt>0</asrwt>
<pdfrwt beam="1">  1        1 0.21616140E-01 0.14462761E+03</pdfrwt>
<pdfrwt beam="2">  1       -1 0.24003874E-01 0.14462761E+03</pdfrwt>
<totfact> 0.33271127E+03</totfact>
</mgrwt>
</event>
<event>
 8    1  0.2954813E-003  0.1022107E+03  0.7546771E-02  0.1276394E+00
          1   -1    0    0  501    0  0.00000000000E+00  0.00000000000E+00  0.10012853910E+04  0.10012853910E+04  0.00000000000E+00 0. -1.
         -1   -1    0    0    0  501 -0.00000000000E+00 -0.00000000000E+00 -0.15016521363E+02  0.15016521363E+02  0.00000000000E+00 0.  1.
         23    2    1    2    0    0  0.31396998106E+02 -0.32018666674E+02  0.21052732324E+03  0.23402730261E+03  0.91848015930E+02 0.  0.
         23    2    1    2    0    0 -0.31396998106E+02  0.32018666674E+02  0.77574154641E+03  0.78227460977E+03  0.90375061579E+02 0.  0.
          5    1    4    4  502    0 -0.26266628648E+02 -0.28739396574E+02  0.26536424263E+03  0.26824645377E+03  0.47000000000E+01 0. -1.
         -5    1    4    4    0  502 -0.51303694580E+01  0.60758063248E+02  0.51037730378E+03  0.51402815600E+03  0.47000000000E+01 0.  1.
          5    1    3    3  503    0 -0.27835572257E+02 -0.20697718540E+02  0.12115114070E+03  0.12610671484E+03  0.47000000000E+01 0. -1.
         -5    1    3    3    0  503  0.59232570363E+02 -0.11320948134E+02  0.89376182548E+02  0.10792058777E+03  0.47000000000E+01 0.  1.
<mgrwt>
<rscale>  0 0.10187869E+03</rscale>
<asrwt>0</asrwt>
<pdfrwt beam="1">  1        1 0.15404385E+00 0.10221069E+03</pdfrwt>
<pdfrwt beam="2">  1       -1 0.23102348E-02 0.10221069E+03</pdfrwt>
<totfact> 0.84232503E+03</totfact>
</mgrwt>
</event>
<event>
 8    1  0.2954813E-003  0.9526751E+02  0.7546771E-02  0.1292225E+00
          1   -1    0    0  501    0  0.00000000000E+00  0.00000000000E+00  0.22546361727E+03  0.22546361727E+03  0.00000000000E+00 0. -1.
         -1   -1    0    0    0  501 -0.00000000000E+00 -0.00000000000E+00 -0.43354051366E+02  0.43354051366E+02  0.00000000000E+00 0.  1.
         23    2    1    2    0    0  0.64861452410E+01  0.24940501291E+02  0.49929241623E+02  0.10755848796E+03  0.91715868191E+02 0.  0.
         23    2    1    2    0    0 -0.64861452410E+01 -0.24940501291E+02  0.13218032428E+03  0.16125918068E+03  0.88706180964E+02 0.  0.
          5    1    3    3  502    0 -0.15047443197E+02 -0.31088436203E+02  0.21712673227E+02  0.41066368125E+02  0.47000000000E+01 0. -1.
         -5    1    4    4    0  503 -0.27398159308E+02  0.10499502036E+02  0.86171405377E+01  0.30939356611E+02  0.47000000000E+01 0.  1.
          5    1    4    4  503    0  0.20912014067E+02 -0.35440003327E+02  0.12356318374E+03  0.13031982406E+03  0.47000000000E+01 0. -1.
         -5    1    3    3    0  502  0.21533588438E+02  0.56028937495E+02  0.28216568396E+02  0.66492119833E+02  0.47000000000E+01 0.  1.
<mgrwt>
<rscale>  0 0.94535649E+02</rscale>
<asrwt>0</asrwt>
<pdfrwt beam="1">  1        1 0.34686710E-01 0.95267514E+02</pdfrwt>
<pdfrwt beam="2">  1       -1 0.66698542E-02 0.95267514E+02</pdfrwt>
<totfact> 0.13013641E+04</totfact>
</mgrwt>
</event>
<event>
 8    1  0.2954813E-003  0.1156713E+03  0.7546771E-02  0.1250528E+00
         -1   -1    0    0    0  501 -0.00000000000E+00  0.00000000000E+00  0.37413345263E+02  0.37413345263E+02  0.00000000000E+00 0.  1.
          1   -1    0    0  501    0  0.00000000000E+00 -0.00000000000E+00 -0.44763513312E+03  0.44763513312E+03  0.00000000000E+00 0. -1.
         23    2    1    2    0    0 -0.40398686622E+02  0.56658356927E+02 -0.31417027802E+03  0.33469638806E+03  0.92067829891E+02 0.  0.
         23    2    1    2    0    0  0.40398686622E+02 -0.56658356927E+02 -0.96051509840E+02  0.15035209032E+03  0.92399324844E+02 0.  0.
          5    1    4    4  502    0 -0.23309876477E+02  0.75782335562E+01 -0.17979832384E+02  0.30759459322E+02  0.47000000000E+01 0. -1.
         -5    1    4    4    0  502  0.63708563099E+02 -0.64236590484E+02 -0.78071677456E+02  0.11959263100E+03  0.47000000000E+01 0.  1.
          5    1    3    3  503    0 -0.36918915180E+02 -0.15225550740E+02 -0.15168155043E+03  0.15692101974E+03  0.47000000000E+01 0. -1.
         -5    1    3    3    0  503 -0.34797714423E+01  0.71883907667E+02 -0.16248872759E+03  0.17777536833E+03  0.47000000000E+01 0.  1.
<mgrwt>
<rscale>  0 0.11560512E+03</rscale>
<asrwt>0</asrwt>
<pdfrwt beam="1">  1        1 0.68866939E-01 0.11567134E+03</pdfrwt>
<pdfrwt beam="2">  1       -1 0.57558997E-02 0.11567134E+03</pdfrwt>
<totfact> 0.70461399E+03</totfact>
</mgrwt>
</event>
<event>
 8    1  0.2954813E-003  0.1051331E+03  0.7546771E-02  0.1270233E+00
         -1   -1    0    0    0  501 -0.00000000000E+00  0.00000000000E+00  0.26268394800E+02  0.26268394800E+02  0.00000000000E+00 0.  1.
          1   -1    0    0  501    0  0.00000000000E+00 -0.00000000000E+00 -0.45667081689E+03  0.45667081689E+03  0.00000000000E+00 0. -1.
         23    2    1    2    0    0  0.50709004672E+02  0.13583271522E+02 -0.14397312930E+03  0.17782495727E+03  0.90208342444E+02 0.  0.
         23    2    1    2    0    0 -0.50709004672E+02 -0.13583271522E+02 -0.28642929280E+03  0.30511425443E+03  0.91088199367E+02 0.  0.
          5    1    4    4  502    0 -0.54994879633E+02  0.17399004404E+02 -0.25115586797E+03  0.25773731231E+03  0.47000000000E+01 0. -1.
         -5    1    3    3    0  503  0.74589868457E+02 -0.96285571288E+00 -0.91188830185E+02  0.11790703252E+03  0.47000000000E+01 0.  1.
          5    1    3    3  503    0 -0.23880863786E+02  0.14546127235E+02 -0.52784299115E+02  0.59917924745E+02  0.47000000000E+01 0. -1.
         -5    1    4    4    0  502  0.42858749610E+01 -0.30982275926E+02 -0.35273424825E+02  0.47376942119E+02  0.47000000000E+01 0.  1.
<mgrwt>
<rscale>  0 0.10494223E+03</rscale>
<asrwt>0</asrwt>
<pdfrwt beam="1">  1        1 0.70257043E-01 0.10513310E+03</pdfrwt>
<pdfrwt beam="2">  1       -1 0.40412919E-02 0.10513310E+03</pdfrwt>
<totfact> 0.11469362E+04</totfact>
</mgrwt>
</event>
<event>
 8    1  0.2954813E-003  0.1477657E+03  0.7546771E-02  0.1203423E+00
          1   -1    0    0  501    0  0.00000000000E+00  0.00000000000E+00  0.35373624504E+02  0.35373624504E+02  0.00000000000E+00 0. -1.
         -1   -1    0    0    0  501 -0.00000000000E+00 -0.00000000000E+00 -0.93117709772E+03  0.93117709772E+03  0.00000000000E+00 0.  1.
         23    2    1    2    0    0 -0.67243164330E+02 -0.93617862361E+02 -0.16568212365E+03  0.22162664341E+03  0.91552474955E+02 0.  0.
         23    2    1    2    0    0  0.67243164330E+02  0.93617862361E+02 -0.73012134957E+03  0.74492407881E+03  0.92459454895E+02 0.  0.
          5    1    4    4  502    0 -0.21726380399E+02  0.24869032183E+02 -0.12198506343E+03  0.12646323603E+03  0.47000000000E+01 0. -1.
         -5    1    4    4    0  502  0.88969544729E+02  0.68748830177E+02 -0.60813628614E+03  0.61846084278E+03  0.47000000000E+01 0.  1.
          5    1    3    3  503    0 -0.63147959365E+02 -0.65539755426E+02 -0.53198136007E+02  0.10552372239E+03  0.47000000000E+01 0. -1.
         -5    1    3    3    0  503 -0.40952049653E+01 -0.28078106935E+02 -0.11248398764E+03  0.11610292102E+03  0.47000000000E+01 0.  1.
<mgrwt>
<rscale>  0 0.14762403E+03</rscale>
<asrwt>0</asrwt>
<pdfrwt beam="1">  1        1 0.54420960E-02 0.14776569E+03</pdfrwt>
<pdfrwt beam="2">  1       -1 0.14325802E+00 0.14776569E+03</pdfrwt>
<totfact> 0.62580411E+02</totfact>
</mgrwt>
</event>
<event>
 8    1  0.2954813E-003  0.1067082E+03  0.7546771E-02  0.1269095E+00
          1   -1    0    0  501    0  0.00000000000E+00  0.00000000000E+00  0.71042667603E+02  0.71042667603E+02  0.00000000000E+00 0. -1.
         -1   -1    0    0    0  501 -0.00000000000E+00 -0.00000000000E+00 -0.15399625462E+03  0.15399625462E+03  0.00000000000E+00 0.  1.
         23    2    1    2    0    0  0.42942618320E+02  0.32296260486E+02 -0.35092422375E+02  0.11233040860E+03  0.92192872167E+02 0.  0.
         23    2    1    2    0    0 -0.42942618320E+02 -0.32296260486E+02 -0.47861164644E+02  0.11270851362E+03  0.86749069463E+02 0.  0.
          5    1    4    4  502    0 -0.52045118897E+02  0.11058494591E+02 -0.10212231650E+02  0.54381654801E+02  0.47000000000E+01 0. -1.
         -5    1    4    4    0  502  0.91025005772E+01 -0.43354755078E+02 -0.37648932994E+02  0.58326858823E+02  0.47000000000E+01 0.  1.
          5    1    3    3  503    0  0.20973912473E+02 -0.50821764000E+01  0.27981473238E+02  0.35648090635E+02  0.47000000000E+01 0. -1.
         -5    1    3    3    0  503  0.21968705847E+02  0.37378436886E+02 -0.63073895613E+02  0.76682317965E+02  0.47000000000E+01 0.  1.
<mgrwt>
<rscale>  0 0.10552196E+03</rscale>
<asrwt>0</asrwt>
<pdfrwt beam="1">  1        1 0.10929641E-01 0.10670821E+03</pdfrwt>
<pdfrwt beam="2">  1       -1 0.23691731E-01 0.10670821E+03</pdfrwt>
<totfact> 0.80211882E+03</totfact>
</mgrwt>
</event>
<event>
 8    1  0.2954813E-003  0.1027041E+03  0.7546771E-02  0.1285399E+00
          2   -1    0    0  501    0  0.00000000000E+00  0.00000000000E+00  0.48504980048E+02  0.48504980048E+02  0.00000000000E+00 0. -1.
         -2   -1    0    0    0  501 -0.00000000000E+00 -0.00000000000E+00 -0.21129416665E+03  0.21129416665E+03  0.00000000000E+00 0.  1.
         23    2    1    2    0    0  0.13334529391E+02  0.75115660317E+01 -0.24052887002E+02  0.87184250959E+02  0.82391255263E+02 0.  0.
         23    2    1    2    0    0 -0.13334529391E+02 -0.75115660317E+01 -0.13873629960E+03  0.17261489574E+03  0.10155741286E+03 0.  0.
          5    1    3    3  502    0  0.75787334934E+01 -0.36207616620E+02 -0.12305517217E+01  0.37309957923E+02  0.47000000000E+01 0. -1.
         -5    1    4    4    0  503  0.27014299621E+02  0.26555145487E+02 -0.99760671530E+02  0.10681399590E+03  0.47000000000E+01 0.  1.
          5    1    4    4  503    0 -0.40348829012E+02 -0.34066711518E+02 -0.38975628070E+02  0.65800899840E+02  0.47000000000E+01 0. -1.
         -5    1    3    3    0  502  0.57557958973E+01  0.43719182652E+02 -0.22822335280E+02  0.49874293036E+02  0.47000000000E+01 0.  1.
<mgrwt>
<rscale>  0 0.97611919E+02</rscale>
<asrwt>0</asrwt>
<pdfrwt beam="1">  1        2 0.74623044E-02 0.10270415E+03</pdfrwt>
<pdfrwt beam="2">  1       -2 0.32506796E-01 0.10270415E+03</pdfrwt>
<totfact> 0.75440655E+03</totfact>
</mgrwt>
</event>
<event>
 8    1  0.2954813E-003  0.8702988E+02  0.7546771E-02  0.1310396E+00
          2   -1    0    0  501    0  0.00000000000E+00  0.00000000000E+00  0.32436487096E+03  0.32436487096E+03  0.00000000000E+00 0. -1.
         -2   -1    0    0    0  501 -0.00000000000E+00 -0.00000000000E+00 -0.25922039319E+02  0.25922039319E+02  0.00000000000E+00 0.  1.
         23    2    1    2    0    0  0.86833259860E+01  0.17667727738E+02  0.20545497951E+03  0.22312765042E+03  0.84774117636E+02 0.  0.
         23    2    1    2    0    0 -0.86833259860E+01 -0.17667727738E+02  0.92987852123E+02  0.12715925986E+03  0.84470041856E+02 0.  0.
          5    1    4    4  502    0 -0.72412274550E+01  0.33817765390E+02  0.34324806891E+02  0.48952619942E+02  0.47000000000E+01 0. -1.
         -5    1    4    4    0  502 -0.14420985311E+01 -0.51485493128E+02  0.58663045232E+02  0.78206639915E+02  0.47000000000E+01 0.  1.
          5    1    3    3  503    0 -0.16517699480E+02  0.43509030743E+02  0.81833082902E+02  0.94258228339E+02  0.47000000000E+01 0. -1.
         -5    1    3    3    0  503  0.25201025466E+02 -0.25841303005E+02  0.12362189661E+03  0.12886942208E+03  0.47000000000E+01 0.  1.
<mgrwt>
<rscale>  0 0.86955742E+02</rscale>
<asrwt>0</asrwt>
<pdfrwt beam="1">  1        2 0.49902285E-01 0.87029879E+02</pdfrwt>
<pdfrwt beam="2">  1       -2 0.39880063E-02 0.87029879E+02</pdfrwt>
<totfact> 0.24645247E+04</totfact>
</mgrwt>
</event>
<event>
 8    1  0.2954813E-003  0.1068056E+03  0.7546771E-02  0.1268468E+00
          1   -1    0    0  501    0  0.00000000000E+00  0.00000000000E+00  0.15269230810E+03  0.15269230810E+03  0.00000000000E+00 0. -1.
         -1   -1    0    0    0  501 -0.00000000000E+00 -0.00000000000E+00 -0.72175771859E+02  0.72175771859E+02  0.00000000000E+00 0.  1.
         23    2    1    2    0    0  0.32610718845E+02 -0.33615439093E+02  0.45185964000E+02  0.11597075163E+03  0.95989515892E+02 0.  0.
         23    2    1    2    0    0 -0.32610718845E+02  0.33615439093E+02  0.35330572237E+02  0.10889732833E+03  0.91743784822E+02 0.  0.
          5    1    3    3  502    0  0.57324821938E+02 -0.36618312638E+02  0.56184714114E+02  0.88350710980E+02  0.47000000000E+01 0. -1.
         -5    1    4    4    0  503 -0.11540599609E+02 -0.31782333810E+02  0.11770371591E+02  0.36110023943E+02  0.47000000000E+01 0.  1.
          5    1    4    4  503    0 -0.21070119235E+02  0.65397772903E+02  0.23560200645E+02  0.72787304385E+02  0.47000000000E+01 0. -1.
         -5    1    3    3    0  502 -0.24714103094E+02  0.30028735454E+01 -0.10998750113E+02  0.27620040646E+02  0.47000000000E+01 0.  1.
<mgrwt>
<rscale>  0 0.10584296E+03</rscale>
<asrwt>0</asrwt>
<pdfrwt beam="1">  1        1 0.23491124E-01 0.10680564E+03</pdfrwt>
<pdfrwt beam="2">  1       -1 0.11103965E-01 0.10680564E+03</pdfrwt>
<totfact> 0.98958538E+03</totfact>
</mgrwt>
</event>
<event>
 8    1  0.2954813E-003  0.1090968E+03  0.7546771E-02  0.1267022E+00
         -2   -1    0    0    0  501 -0.00000000000E+00  0.00000000000E+00  0.74839950189E+02  0.74839950189E+02  0.00000000000E+00 0.  1.
          2   -1    0    0  501    0  0.00000000000E+00 -0.00000000000E+00 -0.15724079261E+03  0.15724079261E+03  0.00000000000E+00 0. -1.
         23    2    1    2    0    0 -0.92188240938E+01  0.59869850134E+02 -0.71488920915E+02  0.12243962781E+03  0.78812505173E+02 0.  0.
         23    2    1    2    0    0  0.92188240938E+01 -0.59869850134E+02 -0.10911921510E+02  0.10964111499E+03  0.90734328638E+02 0.  0.
          5    1    3    3  502    0 -0.29013356516E+02  0.33453252377E+02 -0.76702144553E+02  0.88691622659E+02  0.47000000000E+01 0. -1.
         -5    1    4    4    0  503  0.23246434318E+02 -0.77684638255E+02 -0.21731946588E+02  0.84081313214E+02  0.47000000000E+01 0.  1.
          5    1    4    4  503    0 -0.14027610224E+02  0.17814788120E+02  0.10820025078E+02  0.25559801781E+02  0.47000000000E+01 0. -1.
         -5    1    3    3    0  502  0.19794532422E+02  0.26416597757E+02  0.52132236382E+01  0.33748005150E+02  0.47000000000E+01 0.  1.
<mgrwt>
<rscale>  0 0.10658790E+03</rscale>
<asrwt>0</asrwt>
<pdfrwt beam="1">  1        2 0.24190891E-01 0.10909676E+03</pdfrwt>
<pdfrwt beam="2">  1       -2 0.11513839E-01 0.10909676E+03</pdfrwt>
<totfact> 0.10890930E+04</totfact>
</mgrwt>
</event>
<event>
 8    1  0.2954813E-003  0.9889410E+02  0.7546771E-02  0.1285029E+00
          2   -1    0    0  501    0  0.00000000000E+00  0.00000000000E+00  0.22309392971E+03  0.22309392971E+03  0.00000000000E+00 0. -1.
         -2   -1    0    0    0  501 -0.00000000000E+00 -0.00000000000E+00 -0.59260188202E+02  0.59260188202E+02  0.00000000000E+00 0.  1.
         23    2    1    2    0    0 -0.35640666025E+02 -0.18940427859E+02  0.42581086491E+01  0.94619128993E+02  0.85473102201E+02 0.  0.
         23    2    1    2    0    0  0.35640666025E+02  0.18940427859E+02  0.15957563285E+03  0.18773498892E+03  0.90283146711E+02 0.  0.
          5    1    4    4  502    0  0.10417691231E+02  0.45808454032E+02  0.13543881041E+03  0.14343187970E+03  0.47000000000E+01 0. -1.
         -5    1    3    3    0  503 -0.57418241208E+02 -0.21100889592E+02 -0.17088729676E+02  0.63688434170E+02  0.47000000000E+01 0.  1.
          5    1    3    3  503    0  0.21777575183E+02  0.21604617329E+01  0.21346838325E+02  0.30930694823E+02  0.47000000000E+01 0. -1.
         -5    1    4    4    0  502  0.25222974794E+02 -0.26868026173E+02  0.24136822449E+02  0.44303109212E+02  0.47000000000E+01 0.  1.
<mgrwt>
<rscale>  0 0.97782801E+02</rscale>
<asrwt>0</asrwt>
<pdfrwt beam="1">  1        2 0.34322143E-01 0.98894102E+02</pdfrwt>
<pdfrwt beam="2">  1       -2 0.91169522E-02 0.98894102E+02</pdfrwt>
<totfact> 0.10664341E+04</totfact>
</mgrwt>
</event>
<event>
 8    1  0.2954813E-003  0.1362023E+03  0.7546771E-02  0.1218893E+00
         -1   -1    0    0    0  501 -0.00000000000E+00  0.00000000000E+00  0.16605666802E+02  0.16605666802E+02  0.00000000000E+00 0.  1.
          1   -1    0    0  501    0  0.00000000000E+00 -0.00000000000E+00 -0.11138907362E+04  0.11138907362E+04  0.00000000000E+00 0. -1.
         23    2    1    2    0    0  0.76196389249E+02 -0.65094197148E+02 -0.50806710020E+03  0.52574116845E+03  0.90710824387E+02 0.  0.
         23    2    1    2    0    0 -0.76196389249E+02  0.65094197148E+02 -0.58921796923E+03  0.60475523459E+03  0.92238464080E+02 0.  0.
          5    1    4    4  502    0 -0.13015348436E+02 -0.21482750021E+02 -0.68751968378E+02  0.73347331234E+02  0.47000000000E+01 0. -1.
         -5    1    4    4    0  502 -0.63181040813E+02  0.86576947168E+02 -0.52046600085E+03  0.53140790335E+03  0.47000000000E+01 0.  1.
          5    1    3    3  503    0  0.71161475711E+02 -0.86020641322E+02 -0.44912980485E+03  0.46282089188E+03  0.47000000000E+01 0. -1.
         -5    1    3    3    0  503  0.50349135385E+01  0.20926444175E+02 -0.58937295349E+02  0.62920276567E+02  0.47000000000E+01 0.  1.
<mgrwt>
<rscale>  0 0.13594414E+03</rscale>
<asrwt>0</asrwt>
<pdfrwt beam="1">  1        1 0.17136778E+00 0.13620234E+03</pdfrwt>
<pdfrwt beam="2">  1       -1 0.25547183E-02 0.13620234E+03</pdfrwt>
<totfact> 0.61473938E+03</totfact>
</mgrwt>
</event>
<event>
 8    1  0.2954813E-003  0.1012707E+03  0.7546771E-02  0.1281560E+00
          1   -1    0    0  501    0  0.00000000000E+00  0.00000000000E+00  0.45516785799E+02  0.45516785799E+02  0.00000000000E+00 0. -1.
         -1   -1    0    0    0  501 -0.00000000000E+00 -0.00000000000E+00 -0.51666154384E+03  0.51666154384E+03  0.00000000000E+00 0.  1.
         23    2    1    2    0    0 -0.55859663370E+00  0.42001445559E+02 -0.45582616791E+03  0.46694031105E+03  0.92148387247E+02 0.  0.
         23    2    1    2    0    0  0.55859663370E+00 -0.42001445559E+02 -0.15318590127E+02  0.95238018586E+02  0.84090353320E+02 0.  0.
          5    1    3    3  502    0 -0.33817919420E+02 -0.10159245238E+02 -0.11095147710E+03  0.11652974817E+03  0.47000000000E+01 0. -1.
         -5    1    3    3    0  502  0.33259322786E+02  0.52160690797E+02 -0.34487469082E+03  0.35041056289E+03  0.47000000000E+01 0.  1.
          5    1    4    4  503    0  0.30785909912E+02 -0.48401099973E+02  0.52976353263E+01  0.57797869059E+02  0.47000000000E+01 0. -1.
         -5    1    4    4    0  503 -0.30227313278E+02  0.63996544140E+01 -0.20616225453E+02  0.37440149527E+02  0.47000000000E+01 0.  1.
<mgrwt>
<rscale>  0 0.99401413E+02</rscale>
<asrwt>0</asrwt>
<pdfrwt beam="1">  1        1 0.70025825E-02 0.10127072E+03</pdfrwt>
<pdfrwt beam="2">  1       -1 0.79486390E-01 0.10127072E+03</pdfrwt>
<totfact> 0.16610939E+03</totfact>
</mgrwt>
</event>
<event>
 8    1  0.2954813E-003  0.1347754E+03  0.7546771E-02  0.1221535E+00
          1   -1    0    0  501    0  0.00000000000E+00  0.00000000000E+00  0.58865527073E+02  0.58865527073E+02  0.00000000000E+00 0. -1.
         -1   -1    0    0    0  501 -0.00000000000E+00 -0.00000000000E+00 -0.30500926563E+03  0.30500926563E+03  0.00000000000E+00 0.  1.
         23    2    1    2    0    0  0.82115318513E+02  0.54722521962E+02 -0.10440616515E+03  0.16828859922E+03  0.87652298101E+02 0.  0.
         23    2    1    2    0    0 -0.82115318513E+02 -0.54722521962E+02 -0.14173757341E+03  0.19558619348E+03  0.91798362839E+02 0.  0.
          5    1    3    3  502    0  0.72552718718E+02 -0.34918297655E+01 -0.56267530062E+02  0.92001167426E+02  0.47000000000E+01 0. -1.
         -5    1    4    4    0  503 -0.30673774438E+02  0.17619333768E+02 -0.79296012823E+02  0.86955557674E+02  0.47000000000E+01 0.  1.
          5    1    4    4  503    0 -0.51441544075E+02 -0.72341855730E+02 -0.62441560583E+02  0.10863063580E+03  0.47000000000E+01 0. -1.
         -5    1    3    3    0  502  0.95625997951E+01  0.58214351727E+02 -0.48138635087E+02  0.76287431795E+02  0.47000000000E+01 0.  1.
<mgrwt>
<rscale>  0 0.13407270E+03</rscale>
<asrwt>0</asrwt>
<pdfrwt beam="1">  1        1 0.90562349E-02 0.13477544E+03</pdfrwt>
<pdfrwt beam="2">  1       -1 0.46924503E-01 0.13477544E+03</pdfrwt>
<totfact> 0.32634216E+03</totfact>
</mgrwt>
</event>
<event>
 8    1  0.2954813E-003  0.1105024E+03  0.7546771E-02  0.1260467E+00
         -1   -1    0    0    0  501 -0.00000000000E+00  0.00000000000E+00  0.71831486560E+02  0.71831486560E+02  0.00000000000E+00 0.  1.
          1   -1    0    0  501    0  0.00000000000E+00 -0.00000000000E+00 -0.19396653126E+03  0.19396653126E+03  0.00000000000E+00 0. -1.
         23    2    1    2    0    0  0.62688514236E+01  0.58992311666E+02 -0.10994333087E+03  0.15462509644E+03  0.91115273751E+02 0.  0.
         23    2    1    2    0    0 -0.62688514236E+01 -0.58992311666E+02 -0.12191713828E+02  0.11117292138E+03  0.93227620527E+02 0.  0.
          5    1    4    4  502    0  0.61860388180E+01  0.24494235427E+02 -0.61102416646E+01  0.26413248543E+02  0.47000000000E+01 0. -1.
         -5    1    3    3    0  503 -0.27550076180E+02 -0.36453833993E+01 -0.63570655167E+02  0.69538577178E+02  0.47000000000E+01 0.  1.
          5    1    3    3  503    0  0.33818927603E+02  0.62637695065E+02 -0.46372675705E+02  0.85086519258E+02  0.47000000000E+01 0. -1.
         -5    1    4    4    0  502 -0.12454890242E+02 -0.83486547093E+02 -0.60814721637E+01  0.84759672841E+02  0.47000000000E+01 0.  1.
<mgrwt>
<rscale>  0 0.11005565E+03</rscale>
<asrwt>0</asrwt>
<pdfrwt beam="1">  1        1 0.29841005E-01 0.11050240E+03</pdfrwt>
<pdfrwt beam="2">  1       -1 0.11050998E-01 0.11050240E+03</pdfrwt>
<totfact> 0.74250185E+03</totfact>
</mgrwt>
</event>
<event>
 8    1  0.2954813E-003  0.1094082E+03  0.7546771E-02  0.1263399E+00
         -1   -1    0    0    0  501 -0.00000000000E+00  0.00000000000E+00  0.27069840622E+02  0.27069840622E+02  0.00000000000E+00 0.  1.
          1   -1    0    0  501    0  0.00000000000E+00 -0.00000000000E+00 -0.53196444173E+03  0.53196444173E+03  0.00000000000E+00 0. -1.
         23    2    1    2    0    0 -0.12347904508E+02  0.51373834240E+02 -0.37280430500E+03  0.38751751703E+03  0.91624421358E+02 0.  0.
         23    2    1    2    0    0  0.12347904508E+02 -0.51373834240E+02 -0.13209029611E+03  0.17151676532E+03  0.95804033682E+02 0.  0.
          5    1    3    3  502    0  0.14799293029E+02  0.57870499323E+02 -0.13088598518E+03  0.14394875784E+03  0.47000000000E+01 0. -1.
         -5    1    4    4    0  503 -0.35327545209E+02 -0.47491569998E+02 -0.88857458012E+02  0.10687011985E+03  0.47000000000E+01 0.  1.
          5    1    4    4  503    0  0.47675449717E+02 -0.38822642421E+01 -0.43232838099E+02  0.64646645478E+02  0.47000000000E+01 0. -1.
         -5    1    3    3    0  502 -0.27147197537E+02 -0.64966650828E+01 -0.24191831982E+03  0.24356875919E+03  0.47000000000E+01 0.  1.
<mgrwt>
<rscale>  0 0.10848646E+03</rscale>
<asrwt>0</asrwt>
<pdfrwt beam="1">  1        1 0.81840676E-01 0.10940820E+03</pdfrwt>
<pdfrwt beam="2">  1       -1 0.41645912E-02 0.10940820E+03</pdfrwt>
<totfact> 0.90437640E+03</totfact>
</mgrwt>
</event>
<event>
 7    1  0.2954813E-003  0.1534602E+03  0.7546771E-02  0.1214871E+00
         -1   -1    0    0    0  501 -0.00000000000E+00  0.00000000000E+00  0.12543089158E+02  0.12543089158E+02  0.00000000000E+00 0.  1.
          1   -1    0    0  501    0  0.00000000000E+00 -0.00000000000E+00 -0.13100169166E+04  0.13100169166E+04  0.00000000000E+00 0. -1.
         23    2    1    2    0    0 -0.49068293223E+02 -0.13915053314E+01 -0.51034926847E+03  0.52061542126E+03  0.90412429090E+02 0.  0.
          5    1    3    3  502    0 -0.13001076441E+02 -0.40915222955E+02 -0.31757061210E+03  0.32049378641E+03  0.47000000000E+01 0. -1.
         -5    1    3    3    0  502 -0.36067216782E+02  0.39523717623E+02 -0.19277865637E+03  0.20012163485E+03  0.47000000000E+01 0.  1.
          5    1    1    2  503    0  0.21240301279E+02 -0.70877154261E+02 -0.32470586979E+03  0.33306262665E+03  0.47000000000E+01 0. -1.
         -5    1    1    2    0  503  0.27827991944E+02  0.72268659592E+02 -0.46241868915E+03  0.46888195782E+03  0.47000000000E+01 0.  1.
<mgrwt>
<rscale>  0 0.13886038E+03</rscale>
<asrwt>0</asrwt>
<pdfrwt beam="1">  1        1 0.20154102E+00 0.15346024E+03</pdfrwt>
<pdfrwt beam="2">  1       -1 0.19297065E-02 0.15346024E+03</pdfrwt>
<totfact> 0.68084547E+03</totfact>
</mgrwt>
</event>
<event>
 8    1  0.2954813E-003  0.1138477E+03  0.7546771E-02  0.1255883E+00
         -1   -1    0    0    0  501 -0.00000000000E+00  0.00000000000E+00  0.40959912249E+02  0.40959912249E+02  0.00000000000E+00 0.  1.
          1   -1    0    0  501    0  0.00000000000E+00 -0.00000000000E+00 -0.82408382774E+03  0.82408382774E+03  0.00000000000E+00 0. -1.
         23    2    1    2    0    0  0.55809433385E+02 -0.40339172146E+02 -0.50781053542E+02  0.12465960094E+03  0.90660680805E+02 0.  0.
         23    2    1    2    0    0 -0.55809433385E+02  0.40339172146E+02 -0.73234286195E+03  0.74038413905E+03  0.84265439190E+02 0.  0.
          5    1    4    4  502    0 -0.15164078446E+02  0.60855684309E+02 -0.44347999097E+03  0.44791735396E+03  0.47000000000E+01 0. -1.
         -5    1    3    3    0  503  0.14245044858E+02  0.27785833910E+02 -0.26180723021E+02  0.41018217013E+02  0.47000000000E+01 0. -1.
          5    1    3    3  503    0  0.41564388527E+02 -0.68125006056E+02 -0.24600330521E+02  0.83641383928E+02  0.47000000000E+01 0.  1.
         -5    1    4    4    0  502 -0.40645354939E+02 -0.20516512162E+02 -0.28886287098E+03  0.29246678509E+03  0.47000000000E+01 0.  1.
<mgrwt>
<rscale>  0 0.11257038E+03</rscale>
<asrwt>0</asrwt>
<pdfrwt beam="1">  1        1 0.12678212E+00 0.11384771E+03</pdfrwt>
<pdfrwt beam="2">  1       -1 0.63015252E-02 0.11384771E+03</pdfrwt>
<totfact> 0.26689913E+03</totfact>
</mgrwt>
</event>
<event>
 8    1  0.2954813E-003  0.1107196E+03  0.7546771E-02  0.1259537E+00
          2   -1    0    0  501    0  0.00000000000E+00  0.00000000000E+00  0.35512971907E+03  0.35512971907E+03  0.00000000000E+00 0. -1.
         -2   -1    0    0    0  501 -0.00000000000E+00 -0.00000000000E+00 -0.54887451109E+02  0.54887451109E+02  0.00000000000E+00 0.  1.
         23    2    1    2    0    0 -0.24626351526E+02  0.58341026424E+02  0.24355779051E+02  0.11274258722E+03  0.90041959369E+02 0.  0.
         23    2    1    2    0    0  0.24626351526E+02 -0.58341026424E+02  0.27588648891E+03  0.29727458296E+03  0.90822300977E+02 0.  0.
          5    1    3    3  502    0 -0.17435327681E+02 -0.22316308652E+02  0.29907083358E+01  0.28862477709E+02  0.47000000000E+01 0. -1.
         -5    1    4    4    0  503 -0.32472464248E+02 -0.32400197911E+02  0.14313197919E+03  0.15037648495E+03  0.47000000000E+01 0.  1.
          5    1    4    4  503    0  0.57098815774E+02 -0.25940828513E+02  0.13275450972E+03  0.14689809801E+03  0.47000000000E+01 0. -1.
         -5    1    3    3    0  502 -0.71910238455E+01  0.80657335076E+02  0.21365070716E+02  0.83880109515E+02  0.47000000000E+01 0.  1.
<mgrwt>
<rscale>  0 0.11055942E+03</rscale>
<asrwt>0</asrwt>
<pdfrwt beam="1">  1        2 0.54635340E-01 0.11071957E+03</pdfrwt>
<pdfrwt beam="2">  1       -2 0.84442235E-02 0.11071957E+03</pdfrwt>
<totfact> 0.74226278E+03</totfact>
</mgrwt>
</event>
<event>
 8    1  0.2954813E-003  0.9522869E+02  0.7546771E-02  0.1291077E+00
         -1   -1    0    0    0  501 -0.00000000000E+00  0.00000000000E+00  0.41561826616E+03  0.41561826616E+03  0.00000000000E+00 0.  1.
          1   -1    0    0  501    0  0.00000000000E+00 -0.00000000000E+00 -0.34996705547E+02  0.34996705547E+02  0.00000000000E+00 0. -1.
         23    2    1    2    0    0 -0.46154789578E+01 -0.29243510391E+02  0.51634064939E+02  0.10832626973E+03  0.90509770217E+02 0.  0.
         23    2    1    2    0    0  0.46154789578E+01  0.29243510391E+02  0.32898749567E+03  0.34228870198E+03  0.89734595598E+02 0.  0.
          5    1    4    4  502    0  0.39724130780E+02 -0.10388829145E+02  0.14153651950E+03  0.14744697585E+03  0.47000000000E+01 0. -1.
         -5    1    3    3    0  503 -0.21021602238E+02  0.10431487298E+02  0.59763825105E+02  0.64378012389E+02  0.47000000000E+01 0.  1.
          5    1    3    3  503    0  0.16406123280E+02 -0.39674997689E+02 -0.81297601657E+01  0.43948257338E+02  0.47000000000E+01 0. -1.
         -5    1    4    4    0  502 -0.35108651822E+02  0.39632339536E+02  0.18745097618E+03  0.19484172613E+03  0.47000000000E+01 0.  1.
<mgrwt>
<rscale>  0 0.95044043E+02</rscale>
<asrwt>0</asrwt>
<pdfrwt beam="1">  1        1 0.53841088E-02 0.95228693E+02</pdfrwt>
<pdfrwt beam="2">  1       -1 0.63941268E-01 0.95228693E+02</pdfrwt>
<totfact> 0.36150647E+03</totfact>
</mgrwt>
</event>
<event>
 8    1  0.2954813E-003  0.1009623E+03  0.7546771E-02  0.1279248E+00
         -2   -1    0    0    0  501 -0.00000000000E+00  0.00000000000E+00  0.13320986863E+03  0.13320986863E+03  0.00000000000E+00 0.  1.
          2   -1    0    0  501    0  0.00000000000E+00 -0.00000000000E+00 -0.77238754007E+02  0.77238754007E+02  0.00000000000E+00 0. -1.
         23    2    1    2    0    0  0.37882452721E+02  0.24317907115E+02  0.45097956351E+02  0.10890248919E+03  0.88314696710E+02 0.  0.
         23    2    1    2    0    0 -0.37882452721E+02 -0.24317907115E+02  0.10873158271E+02  0.10154613344E+03  0.90371183547E+02 0.  0.
          5    1    3    3  502    0  0.19162878849E+02  0.16785660709E+02 -0.24882583700E+02  0.35919455770E+02  0.47000000000E+01 0. -1.
         -5    1    3    3    0  502  0.18719573873E+02  0.75322464065E+01  0.69980540051E+02  0.72983033424E+02  0.47000000000E+01 0.  1.
          5    1    4    4  503    0 -0.29584187050E+02  0.57624137101E+01  0.45447884137E+02  0.54736000107E+02  0.47000000000E+01 0. -1.
         -5    1    4    4    0  503 -0.82982656708E+01 -0.30080320826E+02 -0.34574725866E+02  0.46810133335E+02  0.47000000000E+01 0.  1.
<mgrwt>
<rscale>  0 0.10050003E+03</rscale>
<asrwt>0</asrwt>
<pdfrwt beam="1">  1        2 0.11882885E-01 0.10096233E+03</pdfrwt>
<pdfrwt beam="2">  1       -2 0.20493826E-01 0.10096233E+03</pdfrwt>
<totfact> 0.95360502E+03</totfact>
</mgrwt>
</event>
<event>
 8    1  0.2954813E-003  0.1316350E+03  0.7546771E-02  0.1226381E+00
         -2   -1    0    0    0  501 -0.00000000000E+00  0.00000000000E+00  0.17746821263E+02  0.17746821263E+02  0.00000000000E+00 0. -1.
          2   -1    0    0  501    0  0.00000000000E+00 -0.00000000000E+00 -0.10911405597E+04  0.10911405597E+04  0.00000000000E+00 0.  1.
         23    2    1    2    0    0 -0.11831080331E+02  0.89815574627E+02 -0.33077497173E+03  0.35469217146E+03  0.90485593654E+02 0.  0.
         23    2    1    2    0    0  0.11831080331E+02 -0.89815574627E+02 -0.74261876674E+03  0.75419520955E+03  0.95503766831E+02 0.  0.
          5    1    4    4  502    0  0.48874041500E+02 -0.32344262963E+02 -0.24936195420E+03  0.25619972186E+03  0.47000000000E+01 0. -1.
         -5    1    4    4    0  502 -0.37042961169E+02 -0.57471311664E+02 -0.49325681255E+03  0.49799548769E+03  0.47000000000E+01 0.  1.
          5    1    3    3  503    0  0.12061600246E+01  0.38580487144E+02 -0.29580677321E+02  0.48857090387E+02  0.47000000000E+01 0. -1.
         -5    1    3    3    0  503 -0.13037240356E+02  0.51235087483E+02 -0.30119429441E+03  0.30583508107E+03  0.47000000000E+01 0.  1.
<mgrwt>
<rscale>  0 0.13072713E+03</rscale>
<asrwt>0</asrwt>
<pdfrwt beam="1">  1        2 0.16786781E+00 0.13163503E+03</pdfrwt>
<pdfrwt beam="2">  1       -2 0.27302797E-02 0.13163503E+03</pdfrwt>
<totfact> 0.10860820E+04</totfact>
</mgrwt>
</event>
<event>
 8    1  0.2954813E-003  0.9890431E+02  0.7546771E-02  0.1284451E+00
          1   -1    0    0  501    0  0.00000000000E+00  0.00000000000E+00  0.90974890675E+01  0.90974890675E+01  0.00000000000E+00 0. -1.
         -1   -1    0    0    0  501 -0.00000000000E+00 -0.00000000000E+00 -0.11449179081E+04  0.11449179081E+04  0.00000000000E+00 0.  1.
         23    2    1    2    0    0  0.20480128806E+02 -0.31331442011E+02 -0.40127570290E+03  0.41328471014E+03  0.91547621314E+02 0.  0.
         23    2    1    2    0    0 -0.20480128806E+02  0.31331442011E+02 -0.73454471617E+03  0.74073068706E+03  0.87891499949E+02 0.  0.
          5    1    3    3  502    0  0.33861316453E+02 -0.58264660950E+02 -0.24928481430E+03  0.25827575982E+03  0.47000000000E+01 0. -1.
         -5    1    3    3    0  502 -0.13381187647E+02  0.26933218939E+02 -0.15199088860E+03  0.15500895033E+03  0.47000000000E+01 0.  1.
          5    1    4    4  503    0  0.34038305272E+02  0.88701766819E+01 -0.32604730136E+03  0.32797289367E+03  0.47000000000E+01 0. -1.
         -5    1    4    4    0  503 -0.54518434077E+02  0.22461265329E+02 -0.40849741481E+03  0.41275779338E+03  0.47000000000E+01 0.  1.
<mgrwt>
<rscale>  0 0.98049758E+02</rscale>
<asrwt>0</asrwt>
<pdfrwt beam="1">  1        1 0.13996139E-02 0.98904307E+02</pdfrwt>
<pdfrwt beam="2">  1       -1 0.17614120E+00 0.98904307E+02</pdfrwt>
<totfact> 0.23180207E+03</totfact>
</mgrwt>
</event>
<event>
 8    1  0.2954813E-003  0.2219004E+03  0.7546771E-02  0.1132630E+00
         -2   -1    0    0    0  501 -0.00000000000E+00  0.00000000000E+00  0.40081720473E+03  0.40081720473E+03  0.00000000000E+00 0.  1.
          2   -1    0    0  501    0  0.00000000000E+00 -0.00000000000E+00 -0.12291771637E+03  0.12291771637E+03  0.00000000000E+00 0. -1.
         23    2    1    2    0    0  0.19443149983E+03 -0.52933444395E+02  0.12192436314E+03  0.25319028286E+03  0.92920457101E+02 0.  0.
         23    2    1    2    0    0 -0.19443149983E+03  0.52933444395E+02  0.15597512522E+03  0.27054463823E+03  0.90887864583E+02 0.  0.
          5    1    3    3  502    0  0.83504038251E+01 -0.26328241561E+02  0.38167973414E+02  0.47347542093E+02  0.47000000000E+01 0. -1.
         -5    1    3    3    0  502  0.18608109600E+03 -0.26605202835E+02  0.83756389725E+02  0.20584274077E+03  0.47000000000E+01 0.  1.
          5    1    4    4  503    0 -0.17731568777E+03  0.40673462830E+02  0.16639693150E+03  0.24658712967E+03  0.47000000000E+01 0. -1.
         -5    1    4    4    0  503 -0.17115812062E+02  0.12259981565E+02 -0.10421806278E+02  0.23957508564E+02  0.47000000000E+01 0.  1.
<mgrwt>
<rscale>  0 0.22168920E+03</rscale>
<asrwt>0</asrwt>
<pdfrwt beam="1">  1        2 0.18910418E-01 0.22190036E+03</pdfrwt>
<pdfrwt beam="2">  1       -2 0.61664185E-01 0.22190036E+03</pdfrwt>
<totfact> 0.73836950E+02</totfact>
</mgrwt>
</event>
<event>
 8    1  0.2954813E-003  0.9730102E+02  0.7546771E-02  0.1289781E+00
          1   -1    0    0  501    0  0.00000000000E+00  0.00000000000E+00  0.40625587264E+02  0.40625587264E+02  0.00000000000E+00 0. -1.
         -1   -1    0    0    0  501 -0.00000000000E+00 -0.00000000000E+00 -0.39654103927E+03  0.39654103927E+03  0.00000000000E+00 0.  1.
         23    2    1    2    0    0 -0.40993701696E+01  0.27735570718E+01 -0.27787939021E+02  0.94916493536E+02  0.90622699891E+02 0.  0.
         23    2    1    2    0    0  0.40993701696E+01 -0.27735570718E+01 -0.32812751299E+03  0.34225013300E+03  0.97175054948E+02 0.  0.
          5    1    3    3  502    0  0.18974112626E+02 -0.25796398330E+02  0.17200467997E+02  0.36652656330E+02  0.47000000000E+01 0. -1.
         -5    1    3    3    0  502 -0.23073482795E+02  0.28569955401E+02 -0.44988407018E+02  0.58263837206E+02  0.47000000000E+01 0.  1.
          5    1    4    4  503    0 -0.36795665657E+02 -0.60005760019E+01 -0.25913789102E+03  0.26184817067E+03  0.47000000000E+01 0. -1.
         -5    1    4    4    0  503  0.40895035827E+02  0.32270189301E+01 -0.68989621969E+02  0.80401962326E+02  0.47000000000E+01 0.  1.
<mgrwt>
<rscale>  0 0.95622258E+02</rscale>
<asrwt>0</asrwt>
<pdfrwt beam="1">  1        1 0.62500902E-02 0.97301021E+02</pdfrwt>
<pdfrwt beam="2">  1       -1 0.61006315E-01 0.97301021E+02</pdfrwt>
<totfact> 0.32387172E+03</totfact>
</mgrwt>
</event>
<event>
 8    1  0.2954813E-003  0.1249636E+03  0.7546771E-02  0.1235395E+00
         -2   -1    0    0    0  501 -0.00000000000E+00  0.00000000000E+00  0.39437398725E+02  0.39437398725E+02  0.00000000000E+00 0.  1.
          2   -1    0    0  501    0  0.00000000000E+00 -0.00000000000E+00 -0.48372484981E+03  0.48372484981E+03  0.00000000000E+00 0. -1.
         23    2    1    2    0    0 -0.81473493482E+02  0.25815934780E+02 -0.10985603405E+03  0.16638587785E+03  0.91167535352E+02 0.  0.
         23    2    1    2    0    0  0.81473493482E+02 -0.25815934780E+02 -0.33443141703E+03  0.35677637068E+03  0.90225347608E+02 0.  0.
          5    1    3    3  502    0 -0.38984489551E+02  0.27526999796E+02 -0.11373181254E+03  0.12342828414E+03  0.47000000000E+01 0. -1.
         -5    1    3    3    0  502 -0.42489003931E+02 -0.17110650163E+01  0.38757784839E+01  0.42957593711E+02  0.47000000000E+01 0.  1.
          5    1    4    4  503    0  0.70873429949E+02  0.22418687242E+02 -0.21019468234E+03  0.22300119976E+03  0.47000000000E+01 0. -1.
         -5    1    4    4    0  503  0.10600063533E+02 -0.48234622022E+02 -0.12423673469E+03  0.13377517092E+03  0.47000000000E+01 0.  1.
<mgrwt>
<rscale>  0 0.12479186E+03</rscale>
<asrwt>0</asrwt>
<pdfrwt beam="1">  1        2 0.74419211E-01 0.12496364E+03</pdfrwt>
<pdfrwt beam="2">  1       -2 0.60672918E-02 0.12496364E+03</pdfrwt>
<totfact> 0.89146799E+03</totfact>
</mgrwt>
</event>
<event>
 8    1  0.2954813E-003  0.1585795E+03  0.7546771E-02  0.1190642E+00
         -1   -1    0    0    0  501 -0.00000000000E+00  0.00000000000E+00  0.65643111072E+02  0.65643111072E+02  0.00000000000E+00 0.  1.
          1   -1    0    0  501    0  0.00000000000E+00 -0.00000000000E+00 -0.38316902421E+03  0.38316902421E+03  0.00000000000E+00 0. -1.
         23    2    1    2    0    0 -0.74424869370E+02 -0.10363785686E+03 -0.17874796731E+03  0.23895252498E+03  0.94167971305E+02 0.  0.
         23    2    1    2    0    0  0.74424869370E+02  0.10363785686E+03 -0.13877794582E+03  0.20985961030E+03  0.92205592199E+02 0.  0.
          5    1    4    4  502    0  0.25228867340E+02 -0.14386618272E+02 -0.23945763778E+02  0.37933628030E+02  0.47000000000E+01 0. -1.
         -5    1    4    4    0  502  0.49196002030E+02  0.11802447513E+03 -0.11483218204E+03  0.17192598227E+03  0.47000000000E+01 0.  1.
          5    1    3    3  503    0 -0.36005032311E+02 -0.11070292976E+03 -0.11283485510E+03  0.16218907342E+03  0.47000000000E+01 0. -1.
         -5    1    3    3    0  503 -0.38419837059E+02  0.70650728982E+01 -0.65913112211E+02  0.76763451564E+02  0.47000000000E+01 0.  1.
<mgrwt>
<rscale>  0 0.15828941E+03</rscale>
<asrwt>0</asrwt>
<pdfrwt beam="1">  1        1 0.58949080E-01 0.15857955E+03</pdfrwt>
<pdfrwt beam="2">  1       -1 0.10098940E-01 0.15857955E+03</pdfrwt>
<totfact> 0.37447157E+03</totfact>
</mgrwt>
</event>
<event>
 8    1  0.2954813E-003  0.1357603E+03  0.7546771E-02  0.1228382E+00
         -1   -1    0    0    0  501 -0.00000000000E+00  0.00000000000E+00  0.42342123983E+02  0.42342123983E+02  0.00000000000E+00 0.  1.
          1   -1    0    0  501    0  0.00000000000E+00 -0.00000000000E+00 -0.36588389795E+03  0.36588389795E+03  0.00000000000E+00 0. -1.
         23    2    1    2    0    0  0.22197529156E+02 -0.62744483448E+02 -0.12645803715E+03  0.16890853933E+03  0.90049203193E+02 0.  0.
         23    2    1    2    0    0 -0.22197529156E+02  0.62744483448E+02 -0.19708373682E+03  0.23931748261E+03  0.11832691011E+03 0.  0.
          5    1    4    4  502    0 -0.20498391190E+02  0.81718463398E+01 -0.18072361561E+03  0.18212654489E+03  0.47000000000E+01 0. -1.
         -5    1    4    4    0  502 -0.16991379659E+01  0.54572637108E+02 -0.16360121211E+02  0.57190937715E+02  0.47000000000E+01 0.  1.
          5    1    3    3  503    0  0.83804843704E+01  0.19235773283E+02 -0.55453683175E+02  0.59476453070E+02  0.47000000000E+01 0. -1.
         -5    1    3    3    0  503  0.13817044786E+02 -0.81980256731E+02 -0.71004353972E+02  0.10943208626E+03  0.47000000000E+01 0.  1.
<mgrwt>
<rscale>  0 0.12937790E+03</rscale>
<asrwt>0</asrwt>
<pdfrwt beam="1">  1        1 0.56289832E-01 0.13576030E+03</pdfrwt>
<pdfrwt beam="2">  1       -1 0.65141728E-02 0.13576030E+03</pdfrwt>
<totfact> 0.76375757E+03</totfact>
</mgrwt>
</event>
<event>
 8    1  0.2954813E-003  0.9172612E+02  0.7546771E-02  0.1299588E+00
         -2   -1    0    0    0  501 -0.00000000000E+00  0.00000000000E+00  0.11184459258E+02  0.11184459258E+02  0.00000000000E+00 0.  1.
          2   -1    0    0  501    0  0.00000000000E+00 -0.00000000000E+00 -0.74176495417E+03  0.74176495417E+03  0.00000000000E+00 0. -1.
         23    2    1    2    0    0  0.57488211518E+01  0.37583645980E+01 -0.35214418043E+03  0.36389449665E+03  0.91468610100E+02 0.  0.
         23    2    1    2    0    0 -0.57488211518E+01 -0.37583645980E+01 -0.37843631448E+03  0.38905491677E+03  0.90013942806E+02 0.  0.
          5    1    4    4  502    0  0.39091777758E+01  0.41426591359E+02 -0.22007595024E+03  0.22402445853E+03  0.47000000000E+01 0. -1.
         -5    1    3    3    0  503 -0.31870253727E+02 -0.22257510276E+02 -0.23144994642E+03  0.23473874315E+03  0.47000000000E+01 0.  1.
          5    1    3    3  503    0  0.37619074879E+02  0.26015874874E+02 -0.12069423401E+03  0.12915575351E+03  0.47000000000E+01 0. -1.
         -5    1    4    4    0  502 -0.96579989276E+01 -0.45184955957E+02 -0.15836036423E+03  0.16503045824E+03  0.47000000000E+01 0.  1.
<mgrwt>
<rscale>  0 0.91361319E+02</rscale>
<asrwt>0</asrwt>
<pdfrwt beam="1">  1        2 0.11411772E+00 0.91726119E+02</pdfrwt>
<pdfrwt beam="2">  1       -2 0.17206855E-02 0.91726119E+02</pdfrwt>
<totfact> 0.33992423E+04</totfact>
</mgrwt>
</event>
<event>
 8    1  0.2954813E-003  0.1180395E+03  0.7546771E-02  0.1249278E+00
          2   -1    0    0  501    0  0.00000000000E+00  0.00000000000E+00  0.96355279065E+03  0.96355279065E+03  0.00000000000E+00 0. -1.
         -2   -1    0    0    0  501 -0.00000000000E+00 -0.00000000000E+00 -0.14344264709E+02  0.14344264709E+02  0.00000000000E+00 0.  1.
         23    2    1    2    0    0  0.40315996778E+02 -0.55714722777E+02  0.38041474499E+03  0.39830730337E+03  0.95936540398E+02 0.  0.
         23    2    1    2    0    0 -0.40315996778E+02  0.55714722777E+02  0.56879378095E+03  0.57958975199E+03  0.87569432046E+02 0.  0.
          5    1    3    3  502    0 -0.20585740552E+02 -0.10301431354E+02  0.21430673304E+03  0.21559071879E+03  0.47000000000E+01 0. -1.
         -5    1    3    3    0  502  0.60901737330E+02 -0.45413291423E+02  0.16610801196E+03  0.18271658459E+03  0.47000000000E+01 0.  1.
          5    1    4    4  503    0  0.25227288114E+01  0.65939384016E+02  0.30375077538E+03  0.31087134005E+03  0.47000000000E+01 0. -1.
         -5    1    4    4    0  503 -0.42838725589E+02 -0.10224661239E+02  0.26504300558E+03  0.26871841193E+03  0.47000000000E+01 0.  1.
<mgrwt>
<rscale>  0 0.11632932E+03</rscale>
<asrwt>0</asrwt>
<pdfrwt beam="1">  1        2 0.14823884E+00 0.11803953E+03</pdfrwt>
<pdfrwt beam="2">  1       -2 0.22068107E-02 0.11803953E+03</pdfrwt>
<totfact> 0.17478182E+04</totfact>
</mgrwt>
</event>
<event>
 8    1  0.2954813E-003  0.9301288E+02  0.7546771E-02  0.1296044E+00
         -3   -1    0    0    0  501 -0.00000000000E+00  0.00000000000E+00  0.15189809294E+03  0.15189809294E+03  0.00000000000E+00 0.  1.
          3   -1    0    0  501    0  0.00000000000E+00 -0.00000000000E+00 -0.10301528473E+03  0.10301528473E+03  0.00000000000E+00 0. -1.
         23    2    1    2    0    0 -0.77047883083E+01 -0.11463891539E+02  0.10994589247E+03  0.14364749593E+03  0.91409623360E+02 0.  0.
         23    2    1    2    0    0  0.77047883083E+01  0.11463891539E+02 -0.61063084258E+02  0.11126588175E+03  0.91981582993E+02 0.  0.
          5    1    4    4  502    0 -0.17671378476E+02  0.42085350924E+02 -0.11054611341E+02  0.47199034011E+02  0.47000000000E+01 0. -1.
         -5    1    3    3    0  503 -0.42797505726E+02 -0.14034473663E+02  0.94783636359E+02  0.10504580272E+03  0.47000000000E+01 0.  1.
          5    1    3    3  503    0  0.35092717418E+02  0.25705821235E+01  0.15162256113E+02  0.38601693210E+02  0.47000000000E+01 0. -1.
         -5    1    4    4    0  502  0.25376166784E+02 -0.30621459384E+02 -0.50008472916E+02  0.64066847737E+02  0.47000000000E+01 0.  1.
<mgrwt>
<rscale>  0 0.92871164E+02</rscale>
<asrwt>0</asrwt>
<pdfrwt beam="1">  1        3 0.15848505E-01 0.93012882E+02</pdfrwt>
<pdfrwt beam="2">  1       -3 0.23368937E-01 0.93012882E+02</pdfrwt>
<totfact> 0.12336743E+03</totfact>
</mgrwt>
</event>
<event>
 8    1  0.2954813E-003  0.9178298E+02  0.7546771E-02  0.1302991E+00
         -2   -1    0    0    0  501 -0.00000000000E+00  0.00000000000E+00  0.13370533348E+03  0.13370533348E+03  0.00000000000E+00 0.  1.
          2   -1    0    0  501    0  0.00000000000E+00 -0.00000000000E+00 -0.13782154719E+03  0.13782154719E+03  0.00000000000E+00 0. -1.
         23    2    1    2    0    0 -0.17156351367E+02 -0.68603048473E+01  0.10113411866E+03  0.13187821929E+03  0.82597521700E+02 0.  0.
         23    2    1    2    0    0  0.17156351367E+02  0.68603048473E+01 -0.10525033236E+03  0.13964866138E+03  0.89903904196E+02 0.  0.
          5    1    4    4  502    0 -0.81452095548E+00 -0.38210797742E+02 -0.68565228087E+02  0.78638470300E+02  0.47000000000E+01 0. -1.
         -5    1    4    4    0  502  0.17970872323E+02  0.45071102589E+02 -0.36685104270E+02  0.61010191083E+02  0.47000000000E+01 0.  1.
          5    1    3    3  503    0  0.23006510333E+02  0.50006623148E+01  0.19192841579E+01  0.24084845712E+02  0.47000000000E+01 0. -1.
         -5    1    3    3    0  503 -0.40162861700E+02 -0.11860967162E+02  0.99214834499E+02  0.10779337357E+03  0.47000000000E+01 0.  1.
<mgrwt>
<rscale>  0 0.89942348E+02</rscale>
<asrwt>0</asrwt>
<pdfrwt beam="1">  1        2 0.21203315E-01 0.91782984E+02</pdfrwt>
<pdfrwt beam="2">  1       -2 0.20570051E-01 0.91782984E+02</pdfrwt>
<totfact> 0.48292157E+03</totfact>
</mgrwt>
</event>
<event>
 8    1  0.2954813E-003  0.9928501E+02  0.7546771E-02  0.1286949E+00
          2   -1    0    0  501    0  0.00000000000E+00  0.00000000000E+00  0.16305838343E+03  0.16305838343E+03  0.00000000000E+00 0. -1.
         -2   -1    0    0    0  501 -0.00000000000E+00 -0.00000000000E+00 -0.57021331352E+02  0.57021331352E+02  0.00000000000E+00 0.  1.
         23    2    1    2    0    0 -0.24874234058E+01  0.39872092047E+02  0.34728043698E+02  0.10518341614E+03  0.90893030605E+02 0.  0.
         23    2    1    2    0    0  0.24874234058E+01 -0.39872092047E+02  0.71309008382E+02  0.11489629864E+03  0.80747840629E+02 0.  0.
          5    1    4    4  502    0  0.26660439340E+02 -0.25059491185E+02  0.77200267256E+02  0.85561255184E+02  0.47000000000E+01 0. -1.
         -5    1    3    3    0  503  0.24035702655E+02 -0.12599082028E+02  0.37039374035E+02  0.46156874883E+02  0.47000000000E+01 0.  1.
          5    1    3    3  503    0 -0.26523126061E+02  0.52471174076E+02 -0.23113303366E+01  0.59026541258E+02  0.47000000000E+01 0. -1.
         -5    1    4    4    0  502 -0.24173015934E+02 -0.14812600862E+02 -0.58912588742E+01  0.29335043460E+02  0.47000000000E+01 0.  1.
<mgrwt>
<rscale>  0 0.96901783E+02</rscale>
<asrwt>0</asrwt>
<pdfrwt beam="1">  1        2 0.25085905E-01 0.99285014E+02</pdfrwt>
<pdfrwt beam="2">  1       -2 0.87725126E-02 0.99285014E+02</pdfrwt>
<totfact> 0.15860636E+04</totfact>
</mgrwt>
</event>
<event>
 8    1  0.2954813E-003  0.1145779E+03  0.7546771E-02  0.1257178E+00
         -2   -1    0    0    0  501 -0.00000000000E+00  0.00000000000E+00  0.83417850080E+02  0.83417850080E+02  0.00000000000E+00 0.  1.
          2   -1    0    0  501    0  0.00000000000E+00 -0.00000000000E+00 -0.20419738536E+03  0.20419738536E+03  0.00000000000E+00 0. -1.
         23    2    1    2    0    0  0.26466949921E+02 -0.39579139283E+02  0.16068157103E+02  0.11569911356E+03  0.10421656059E+03 0.  0.
         23    2    1    2    0    0 -0.26466949921E+02  0.39579139283E+02 -0.13684769238E+03  0.17191612188E+03  0.92524885020E+02 0.  0.
          5    1    4    4  502    0 -0.57618826372E+01  0.67853957504E+02 -0.97440942349E+02  0.11897136667E+03  0.47000000000E+01 0. -1.
         -5    1    4    4    0  502 -0.20705067283E+02 -0.28274818221E+02 -0.39406750032E+02  0.52944755215E+02  0.47000000000E+01 0.  1.
          5    1    3    3  503    0 -0.34105601358E+02  0.49883500103E+01 -0.96184526950E+01  0.36092662856E+02  0.47000000000E+01 0. -1.
         -5    1    3    3    0  503  0.60572551278E+02 -0.44567489293E+02  0.25686609798E+02  0.79606450701E+02  0.47000000000E+01 0.  1.
<mgrwt>
<rscale>  0 0.11185194E+03</rscale>
<asrwt>0</asrwt>
<pdfrwt beam="1">  1        2 0.31414982E-01 0.11457792E+03</pdfrwt>
<pdfrwt beam="2">  1       -2 0.12833516E-01 0.11457792E+03</pdfrwt>
<totfact> 0.69274148E+03</totfact>
</mgrwt>
</event>
<event>
 8    1  0.2954813E-003  0.9303380E+02  0.7546771E-02  0.1295885E+00
         -1   -1    0    0    0  501 -0.00000000000E+00  0.00000000000E+00  0.36512602261E+02  0.36512602261E+02  0.00000000000E+00 0.  1.
          1   -1    0    0  501    0  0.00000000000E+00 -0.00000000000E+00 -0.23621889918E+03  0.23621889918E+03  0.00000000000E+00 0. -1.
         23    2    1    2    0    0  0.17844504418E+02  0.39036434901E+01 -0.96488035600E+02  0.13377360417E+03  0.90839261270E+02 0.  0.
         23    2    1    2    0    0 -0.17844504418E+02 -0.39036434901E+01 -0.10321826132E+03  0.13895789727E+03  0.91222930089E+02 0.  0.
          5    1    3    3  502    0  0.51490368523E+02  0.24137575525E+01 -0.31957023823E+02  0.60831124005E+02  0.47000000000E+01 0. -1.
         -5    1    3    3    0  502 -0.33645864105E+02  0.14898859375E+01 -0.64531011777E+02  0.72942480164E+02  0.47000000000E+01 0.  1.
          5    1    4    4  503    0 -0.26558581686E+02  0.35845074065E+02 -0.80400650965E+02  0.92068356516E+02  0.47000000000E+01 0. -1.
         -5    1    4    4    0  503  0.87140772684E+01 -0.39748717556E+02 -0.22817610351E+02  0.46889540753E+02  0.47000000000E+01 0.  1.
<mgrwt>
<rscale>  0 0.92939613E+02</rscale>
<asrwt>0</asrwt>
<pdfrwt beam="1">  1        1 0.36341369E-01 0.93033799E+02</pdfrwt>
<pdfrwt beam="2">  1       -1 0.56173234E-02 0.93033799E+02</pdfrwt>
<totfact> 0.15803201E+04</totfact>
</mgrwt>
</event>
<event>
 8    1  0.2954813E-003  0.1039792E+03  0.7546771E-02  0.1274778E+00
         -3   -1    0    0    0  501 -0.00000000000E+00  0.00000000000E+00  0.35452658381E+03  0.35452658381E+03  0.00000000000E+00 0.  1.
          3   -1    0    0  501    0  0.00000000000E+00 -0.00000000000E+00 -0.42278972882E+02  0.42278972882E+02  0.00000000000E+00 0. -1.
         23    2    1    2    0    0 -0.37326168742E+02  0.17227817138E+02  0.47704868683E+02  0.11440029844E+03  0.95507241771E+02 0.  0.
         23    2    1    2    0    0  0.37326168742E+02 -0.17227817138E+02  0.26454274225E+03  0.28240525825E+03  0.89887857119E+02 0.  0.
          5    1    3    3  502    0 -0.29023083923E+02  0.56317169342E+02  0.32745819262E+02  0.71472663601E+02  0.47000000000E+01 0. -1.
         -5    1    3    3    0  502 -0.83030848190E+01 -0.39089352204E+02  0.14959049421E+02  0.42927634838E+02  0.47000000000E+01 0.  1.
          5    1    4    4  503    0 -0.24619340918E+01  0.33121255199E+02  0.72849153941E+02  0.80200797348E+02  0.47000000000E+01 0. -1.
         -5    1    4    4    0  503  0.39788102834E+02 -0.50349072337E+02  0.19169358830E+03  0.20220446090E+03  0.47000000000E+01 0.  1.
<mgrwt>
<rscale>  0 0.10267056E+03</rscale>
<asrwt>0</asrwt>
<pdfrwt beam="1">  1        3 0.65044576E-02 0.10397920E+03</pdfrwt>
<pdfrwt beam="2">  1       -3 0.54542549E-01 0.10397920E+03</pdfrwt>
<totfact> 0.11020792E+03</totfact>
</mgrwt>
</event>
<event>
 7    1  0.2954813E-003  0.1656695E+03  0.7546771E-02  0.1191385E+00
          2   -1    0    0  501    0  0.00000000000E+00  0.00000000000E+00  0.65595154233E+03  0.65595154233E+03  0.00000000000E+00 0. -1.
         -2   -1    0    0    0  501 -0.00000000000E+00 -0.00000000000E+00 -0.40469142010E+02  0.40469142010E+02  0.00000000000E+00 0.  1.
         23    2    1    2    0    0  0.82991066279E+02  0.58766826567E+02  0.15008777807E+03  0.20241810032E+03  0.90031601239E+02 0.  0.
          5    1    1    2  502    0 -0.44906079991E+02 -0.96241173913E+02  0.36516040277E+03  0.38031977247E+03  0.47000000000E+01 0. -1.
         -5    1    1    2    0  502 -0.38084986289E+02  0.37474347347E+02  0.10023421947E+03  0.11368281155E+03  0.47000000000E+01 0.  1.
          5    1    3    3  503    0  0.18399431554E+02  0.66101425258E+02  0.93723499436E+02  0.11625025526E+03  0.47000000000E+01 0. -1.
         -5    1    3    3    0  503  0.64591634725E+02 -0.73345986910E+01  0.56364278639E+02  0.86167845052E+02  0.47000000000E+01 0.  1.
<mgrwt>
<rscale>  0 0.15764202E+03</rscale>
<asrwt>0</asrwt>
<pdfrwt beam="1">  1        2 0.10091561E+00 0.16566955E+03</pdfrwt>
<pdfrwt beam="2">  1       -2 0.62260223E-02 0.16566955E+03</pdfrwt>
<totfact> 0.61820849E+03</totfact>
</mgrwt>
</event>
<event>
 8    1  0.2954813E-003  0.1116994E+03  0.7546771E-02  0.1258128E+00
          1   -1    0    0  501    0  0.00000000000E+00  0.00000000000E+00  0.81838094814E+03  0.81838094814E+03  0.00000000000E+00 0. -1.
         -1   -1    0    0    0  501 -0.00000000000E+00 -0.00000000000E+00 -0.15089528575E+02  0.15089528575E+02  0.00000000000E+00 0.  1.
         23    2    1    2    0    0 -0.40133169387E+02  0.45886130118E+02  0.38174927252E+03  0.39775528698E+03  0.93597825993E+02 0.  0.
         23    2    1    2    0    0  0.40133169387E+02 -0.45886130118E+02  0.42154214705E+03  0.43571518974E+03  0.91835377747E+02 0.  0.
          5    1    4    4  502    0 -0.29402101645E+02 -0.77014825226E+01  0.11628552293E+03  0.12028386948E+03  0.47000000000E+01 0. -1.
         -5    1    4    4    0  502  0.69535271032E+02 -0.38184647595E+02  0.30525662412E+03  0.31543132026E+03  0.47000000000E+01 0.  1.
          5    1    3    3  503    0 -0.11933278795E+02 -0.28046930917E+02  0.13943998722E+03  0.14280978087E+03  0.47000000000E+01 0. -1.
         -5    1    3    3    0  503 -0.28199890592E+02  0.73933061035E+02  0.24230928530E+03  0.25494550611E+03  0.47000000000E+01 0.  1.
<mgrwt>
<rscale>  0 0.11132943E+03</rscale>
<asrwt>0</asrwt>
<pdfrwt beam="1">  1        1 0.12590473E+00 0.11169942E+03</pdfrwt>
<pdfrwt beam="2">  1       -1 0.23214666E-02 0.11169942E+03</pdfrwt>
<totfact> 0.11581414E+04</totfact>
</mgrwt>
</event>
<event>
 8    1  0.2954813E-003  0.1019153E+03  0.7546771E-02  0.1278229E+00
          2   -1    0    0  501    0  0.00000000000E+00  0.00000000000E+00  0.59193757499E+03  0.59193757499E+03  0.00000000000E+00 0. -1.
         -2   -1    0    0    0  501 -0.00000000000E+00 -0.00000000000E+00 -0.17470189905E+02  0.17470189905E+02  0.00000000000E+00 0.  1.
         23    2    1    2    0    0 -0.37191671206E+02 -0.22860389417E+02  0.34620754903E+03  0.36089665712E+03  0.92091868817E+02 0.  0.
         23    2    1    2    0    0  0.37191671206E+02  0.22860389417E+02  0.22825983606E+03  0.24851110778E+03  0.88030677157E+02 0.  0.
          5    1    3    3  502    0  0.12147346080E+02  0.27494359847E+02  0.12654458933E+03  0.13015037813E+03  0.47000000000E+01 0. -1.
         -5    1    4    4    0  503 -0.79596040329E+01  0.42624104196E+02  0.14721118372E+03  0.15353628941E+03  0.47000000000E+01 0.  1.
          5    1    4    4  503    0  0.45151275239E+02 -0.19763714779E+02  0.81048652338E+02  0.94974818365E+02  0.47000000000E+01 0. -1.
         -5    1    3    3    0  502 -0.49339017286E+02 -0.50354749264E+02  0.21966295970E+03  0.23074627898E+03  0.47000000000E+01 0.  1.
<mgrwt>
<rscale>  0 0.10098918E+03</rscale>
<asrwt>0</asrwt>
<pdfrwt beam="1">  1        2 0.91067304E-01 0.10191531E+03</pdfrwt>
<pdfrwt beam="2">  1       -2 0.26877220E-02 0.10191531E+03</pdfrwt>
<totfact> 0.23425818E+04</totfact>
</mgrwt>
</event>
<event>
 8    1  0.2954813E-003  0.1000067E+03  0.7546771E-02  0.1281611E+00
          1   -1    0    0  501    0  0.00000000000E+00  0.00000000000E+00  0.49393567644E+03  0.49393567644E+03  0.00000000000E+00 0. -1.
         -1   -1    0    0    0  501 -0.00000000000E+00 -0.00000000000E+00 -0.22718560901E+02  0.22718560901E+02  0.00000000000E+00 0.  1.
         23    2    1    2    0    0 -0.36430951761E+02  0.13457311213E+02  0.13959079973E+03  0.17027677488E+03  0.89444257639E+02 0.  0.
         23    2    1    2    0    0  0.36430951761E+02 -0.13457311213E+02  0.33162631581E+03  0.34637746246E+03  0.92157580752E+02 0.  0.
          5    1    4    4  502    0 -0.26634168524E+02  0.12826014450E+02  0.74532338908E+02  0.80318398407E+02  0.47000000000E+01 0.  1.
         -5    1    4    4    0  502  0.63065120285E+02 -0.26283325662E+02  0.25709397690E+03  0.26605906405E+03  0.47000000000E+01 0. -1.
          5    1    3    3  503    0 -0.27120807938E+02 -0.34531917828E+02  0.91215426045E+02  0.10134266387E+03  0.47000000000E+01 0. -1.
         -5    1    3    3    0  503 -0.93101438226E+01  0.47989229041E+02  0.48375373684E+02  0.68934111012E+02  0.47000000000E+01 0.  1.
<mgrwt>
<rscale>  0 0.99377077E+02</rscale>
<asrwt>0</asrwt>
<pdfrwt beam="1">  1        1 0.75990096E-01 0.10000667E+03</pdfrwt>
<pdfrwt beam="2">  1       -1 0.34951636E-02 0.10000667E+03</pdfrwt>
<totfact> 0.12760226E+04</totfact>
</mgrwt>
</event>
<event>
 8    1  0.2954813E-003  0.1136741E+03  0.7546771E-02  0.1258499E+00
          2   -1    0    0  501    0  0.00000000000E+00  0.00000000000E+00  0.31321510966E+03  0.31321510966E+03  0.00000000000E+00 0. -1.
         -2   -1    0    0    0  501 -0.00000000000E+00 -0.00000000000E+00 -0.47398864993E+02  0.47398864993E+02  0.00000000000E+00 0.  1.
         23    2    1    2    0    0 -0.49275980601E+02  0.32707107360E+01  0.20937076902E+03  0.23369710256E+03  0.91320299008E+02 0.  0.
         23    2    1    2    0    0  0.49275980601E+02 -0.32707107360E+01  0.56445475650E+02  0.12691687210E+03  0.10238642922E+03 0.  0.
          5    1    4    4  502    0 -0.24429368880E+02 -0.33979619186E+01 -0.10519412027E+02  0.27222935890E+02  0.47000000000E+01 0. -1.
         -5    1    3    3    0  503  0.26707595931E+02 -0.18810948465E+01  0.63541314514E+02  0.69111669408E+02  0.47000000000E+01 0.  1.
          5    1    3    3  503    0 -0.75983576533E+02  0.51518055825E+01  0.14582945451E+03  0.16458543315E+03  0.47000000000E+01 0. -1.
         -5    1    4    4    0  502  0.73705349482E+02  0.12725118266E+00  0.66964887677E+02  0.99693936208E+02  0.47000000000E+01 0.  1.
<mgrwt>
<rscale>  0 0.11112570E+03</rscale>
<asrwt>0</asrwt>
<pdfrwt beam="1">  1        2 0.48186939E-01 0.11367410E+03</pdfrwt>
<pdfrwt beam="2">  1       -2 0.72921333E-02 0.11367410E+03</pdfrwt>
<totfact> 0.10633333E+04</totfact>
</mgrwt>
</event>
<event>
 8    1  0.2954813E-003  0.9859238E+02  0.7546771E-02  0.1284761E+00
         -1   -1    0    0    0  501 -0.00000000000E+00  0.00000000000E+00  0.32427738881E+03  0.32427738881E+03  0.00000000000E+00 0.  1.
          1   -1    0    0  501    0  0.00000000000E+00 -0.00000000000E+00 -0.47396353985E+02  0.47396353985E+02  0.00000000000E+00 0. -1.
         23    2    1    2    0    0 -0.59017759139E+01 -0.29892814896E+02  0.25253101656E+03  0.27011893047E+03  0.90906055538E+02 0.  0.
         23    2    1    2    0    0  0.59017759139E+01  0.29892814896E+02  0.24350018267E+02  0.10155481232E+03  0.93765906253E+02 0.  0.
          5    1    4    4  502    0 -0.19949965950E+02  0.45377911759E+02 -0.14783254141E+02  0.51940260108E+02  0.47000000000E+01 0. -1.
         -5    1    4    4    0  502  0.25851741864E+02 -0.15485096864E+02  0.39133272409E+02  0.49614552217E+02  0.47000000000E+01 0.  1.
          5    1    3    3  503    0  0.27229956304E+02 -0.66630400017E+01  0.21805956033E+02  0.35825358908E+02  0.47000000000E+01 0. -1.
         -5    1    3    3    0  503 -0.33131732217E+02 -0.23229774894E+02  0.23072506053E+03  0.23429357156E+03  0.47000000000E+01 0.  1.
<mgrwt>
<rscale>  0 0.97906303E+02</rscale>
<asrwt>0</asrwt>
<pdfrwt beam="1">  1        1 0.72917470E-02 0.98592376E+02</pdfrwt>
<pdfrwt beam="2">  1       -1 0.49888828E-01 0.98592376E+02</pdfrwt>
<totfact> 0.38252751E+03</totfact>
</mgrwt>
</event>
<event>
 8    1  0.2954813E-003  0.1068485E+03  0.7546771E-02  0.1268682E+00
          1   -1    0    0  501    0  0.00000000000E+00  0.00000000000E+00  0.18960951309E+03  0.18960951309E+03  0.00000000000E+00 0. -1.
         -1   -1    0    0    0  501 -0.00000000000E+00 -0.00000000000E+00 -0.77667898625E+02  0.77667898625E+02  0.00000000000E+00 0.  1.
         23    2    1    2    0    0  0.47355554022E+02 -0.30795795518E+02 -0.10801199047E+02  0.10739306372E+03  0.90695505484E+02 0.  0.
         23    2    1    2    0    0 -0.47355554022E+02  0.30795795518E+02  0.12274281351E+03  0.15988434800E+03  0.85476762620E+02 0.  0.
          5    1    3    3  502    0  0.66067984049E+02 -0.16135796598E+02  0.17254480513E+02  0.70321757273E+02  0.47000000000E+01 0. -1.
         -5    1    4    4    0  503  0.12099928560E+02 -0.19531403292E+02  0.19711197801E+02  0.30635033939E+02  0.47000000000E+01 0.  1.
          5    1    4    4  503    0 -0.59455482582E+02  0.50327198810E+02  0.10303161571E+03  0.12924931406E+03  0.47000000000E+01 0. -1.
         -5    1    3    3    0  502 -0.18712430027E+02 -0.14659998920E+02 -0.28055679559E+02  0.37071306443E+02  0.47000000000E+01 0.  1.
<mgrwt>
<rscale>  0 0.10573300E+03</rscale>
<asrwt>0</asrwt>
<pdfrwt beam="1">  1        1 0.29170694E-01 0.10684851E+03</pdfrwt>
<pdfrwt beam="2">  1       -1 0.11948908E-01 0.10684851E+03</pdfrwt>
<totfact> 0.67589157E+03</totfact>
</mgrwt>
</event>
<event>
 8    1  0.2954813E-003  0.8755790E+02  0.7546771E-02  0.1311639E+00
          2   -1    0    0  501    0  0.00000000000E+00  0.00000000000E+00  0.19385321708E+03  0.19385321708E+03  0.00000000000E+00 0. -1.
         -2   -1    0    0    0  501 -0.00000000000E+00 -0.00000000000E+00 -0.37946859252E+02  0.37946859252E+02  0.00000000000E+00 0.  1.
         23    2    1    2    0    0 -0.30312369846E+01  0.11721792769E+02  0.69429234423E+02  0.11174436999E+03  0.86716761979E+02 0.  0.
         23    2    1    2    0    0  0.30312369846E+01 -0.11721792769E+02  0.86477123407E+02  0.12005570635E+03  0.82392298974E+02 0.  0.
          5    1    3    3  502    0 -0.48505029418E+00 -0.37616467572E+02  0.31220271297E+02  0.49112414380E+02  0.47000000000E+01 0. -1.
         -5    1    4    4    0  503 -0.20597448069E+02  0.28821497255E+02  0.31654911366E+02  0.47739469882E+02  0.47000000000E+01 0.  1.
          5    1    4    4  503    0  0.23628685054E+02 -0.40543290024E+02  0.54822212041E+02  0.72316236465E+02  0.47000000000E+01 0. -1.
         -5    1    3    3    0  502 -0.25461866904E+01  0.49338260341E+02  0.38208963126E+02  0.62631955608E+02  0.47000000000E+01 0.  1.
<mgrwt>
<rscale>  0 0.86467506E+02</rscale>
<asrwt>0</asrwt>
<pdfrwt beam="1">  1        2 0.29823571E-01 0.87557899E+02</pdfrwt>
<pdfrwt beam="2">  1       -2 0.58379785E-02 0.87557899E+02</pdfrwt>
<totfact> 0.24091566E+04</totfact>
</mgrwt>
</event>
<event>
 8    1  0.2954813E-003  0.1042033E+03  0.7546771E-02  0.1277385E+00
         -1   -1    0    0    0  501 -0.00000000000E+00  0.00000000000E+00  0.86177933536E+02  0.86177933536E+02  0.00000000000E+00 0.  1.
          1   -1    0    0  501    0  0.00000000000E+00 -0.00000000000E+00 -0.15742925675E+03  0.15742925675E+03  0.00000000000E+00 0. -1.
         23    2    1    2    0    0  0.18537767247E+02  0.81142233085E+01  0.30190669085E+02  0.98180917491E+02  0.91205957180E+02 0.  0.
         23    2    1    2    0    0 -0.18537767247E+02 -0.81142233085E+01 -0.10144199229E+03  0.14542627279E+03  0.10221953621E+03 0.  0.
          5    1    3    3  502    0 -0.21791144085E+02  0.13525896537E+02 -0.20385884813E+02  0.33098008056E+02  0.47000000000E+01 0. -1.
         -5    1    4    4    0  503 -0.29183434625E+02  0.41275852737E+02 -0.67154825837E+02  0.84185684703E+02  0.47000000000E+01 0. -1.
          5    1    4    4  503    0  0.10645667378E+02 -0.49390076046E+02 -0.34287166457E+02  0.61240588088E+02  0.47000000000E+01 0.  1.
         -5    1    3    3    0  502  0.40328911332E+02 -0.54116732287E+01  0.50576553898E+02  0.65082909435E+02  0.47000000000E+01 0.  1.
<mgrwt>
<rscale>  0 0.10139709E+03</rscale>
<asrwt>0</asrwt>
<pdfrwt beam="1">  1        1 0.24219885E-01 0.10420328E+03</pdfrwt>
<pdfrwt beam="2">  1       -1 0.13258144E-01 0.10420328E+03</pdfrwt>
<totfact> 0.72423601E+03</totfact>
</mgrwt>
</event>
<event>
 8    1  0.2954813E-003  0.9828228E+02  0.7546771E-02  0.1284658E+00
          2   -1    0    0  501    0  0.00000000000E+00  0.00000000000E+00  0.40308678257E+03  0.40308678257E+03  0.00000000000E+00 0. -1.
         -2   -1    0    0    0  501 -0.00000000000E+00 -0.00000000000E+00 -0.24258493673E+02  0.24258493673E+02  0.00000000000E+00 0.  1.
         23    2    1    2    0    0  0.43026880867E+01  0.37160649779E+02  0.22459546545E+03  0.24515817157E+03  0.90884426447E+02 0.  0.
         23    2    1    2    0    0 -0.43026880867E+01 -0.37160649779E+02  0.15423282345E+03  0.18218710467E+03  0.89470387634E+02 0.  0.
          5    1    4    4  502    0 -0.29594479395E+02 -0.23735510486E+02  0.14753496799E+03  0.15240690420E+03  0.47000000000E+01 0. -1.
         -5    1    3    3    0  503  0.41379680087E+02  0.42935726004E+02  0.15098301998E+03  0.16239986704E+03  0.47000000000E+01 0.  1.
          5    1    3    3  503    0 -0.37076992000E+02 -0.57750762250E+01  0.73612445470E+02  0.82758304534E+02  0.47000000000E+01 0. -1.
         -5    1    4    4    0  502  0.25291791308E+02 -0.13425139293E+02  0.66978554655E+01  0.29780200477E+02  0.47000000000E+01 0.  1.
<mgrwt>
<rscale>  0 0.97954110E+02</rscale>
<asrwt>0</asrwt>
<pdfrwt beam="1">  1        2 0.62013346E-01 0.98282277E+02</pdfrwt>
<pdfrwt beam="2">  1       -2 0.37320763E-02 0.98282277E+02</pdfrwt>
<totfact> 0.21911404E+04</totfact>
</mgrwt>
</event>
<event>
 8    1  0.2954813E-003  0.9504814E+02  0.7546771E-02  0.1291986E+00
          2   -1    0    0  501    0  0.00000000000E+00  0.00000000000E+00  0.78894966488E+02  0.78894966488E+02  0.00000000000E+00 0. -1.
         -2   -1    0    0    0  501 -0.00000000000E+00 -0.00000000000E+00 -0.11285093110E+03  0.11285093110E+03  0.00000000000E+00 0.  1.
         23    2    1    2    0    0 -0.17020840182E+02 -0.61038274887E+01 -0.12327883970E+02  0.95844274956E+02  0.93312285408E+02 0.  0.
         23    2    1    2    0    0  0.17020840182E+02  0.61038274887E+01 -0.21628080640E+02  0.95901622631E+02  0.91664505893E+02 0.  0.
          5    1    3    3  502    0  0.35368573297E+02  0.11656719478E+02  0.45692333140E+01  0.37812471212E+02  0.47000000000E+01 0. -1.
         -5    1    4    4    0  503  0.71204991007E+01 -0.38490032624E+02 -0.29592954331E+02  0.49295203264E+02  0.47000000000E+01 0.  1.
          5    1    4    4  503    0  0.99003410816E+01  0.44593860113E+02  0.79648736905E+01  0.46606419367E+02  0.47000000000E+01 0. -1.
         -5    1    3    3    0  502 -0.52389413479E+02 -0.17760546967E+02 -0.16897117284E+02  0.58031803744E+02  0.47000000000E+01 0.  1.
<mgrwt>
<rscale>  0 0.94641241E+02</rscale>
<asrwt>0</asrwt>
<pdfrwt beam="1">  1        2 0.12137687E-01 0.95048137E+02</pdfrwt>
<pdfrwt beam="2">  1       -2 0.17361681E-01 0.95048137E+02</pdfrwt>
<totfact> 0.12187866E+04</totfact>
</mgrwt>
</event>
<event>
 8    1  0.2954813E-003  0.1075439E+03  0.7546771E-02  0.1265289E+00
          3   -1    0    0  501    0  0.00000000000E+00  0.00000000000E+00  0.57501932400E+03  0.57501932400E+03  0.00000000000E+00 0. -1.
         -3   -1    0    0    0  501 -0.00000000000E+00 -0.00000000000E+00 -0.20743893243E+02  0.20743893243E+02  0.00000000000E+00 0.  1.
         23    2    1    2    0    0 -0.40442711889E+02 -0.42189758364E+02  0.33041807627E+03  0.34741303291E+03  0.90022895176E+02 0.  0.
         23    2    1    2    0    0  0.40442711889E+02  0.42189758364E+02  0.22385735449E+03  0.24835018433E+03  0.90277961004E+02 0.  0.
          5    1    3    3  502    0 -0.75711621675E+01 -0.60903758589E+02  0.26160483204E+03  0.26874852270E+03  0.47000000000E+01 0. -1.
         -5    1    4    4    0  503 -0.42676227179E+01  0.43610707282E+02  0.41524833908E+02  0.60551698774E+02  0.47000000000E+01 0.  1.
          5    1    4    4  503    0  0.44710334607E+02 -0.14209489184E+01  0.18233252058E+03  0.18779848556E+03  0.47000000000E+01 0. -1.
         -5    1    3    3    0  502 -0.32871549721E+02  0.18714000225E+02  0.68813244229E+02  0.78664510211E+02  0.47000000000E+01 0.  1.
<mgrwt>
<rscale>  0 0.10749039E+03</rscale>
<asrwt>0</asrwt>
<pdfrwt beam="1">  1        3 0.88464499E-01 0.10754394E+03</pdfrwt>
<pdfrwt beam="2">  1       -3 0.31913686E-02 0.10754394E+03</pdfrwt>
<totfact> 0.12248984E+03</totfact>
</mgrwt>
</event>
<event>
 8    1  0.2954813E-003  0.2647891E+03  0.7546771E-02  0.1104743E+00
         -3   -1    0    0    0  501 -0.00000000000E+00  0.00000000000E+00  0.69412178855E+02  0.69412178855E+02  0.00000000000E+00 0.  1.
          3   -1    0    0  501    0  0.00000000000E+00 -0.00000000000E+00 -0.10169394981E+04  0.10169394981E+04  0.00000000000E+00 0. -1.
         23    2    1    2    0    0 -0.24776772905E+03 -0.28776773271E+02 -0.40359879028E+03  0.48270620041E+03  0.88861364851E+02 0.  0.
         23    2    1    2    0    0  0.24776772905E+03  0.28776773271E+02 -0.54392852899E+03  0.60364547657E+03  0.79452290701E+02 0.  0.
          5    1    4    4  502    0  0.10253397516E+03  0.46584827766E+02 -0.19472196821E+03  0.22499354912E+03  0.47000000000E+01 0. -1.
         -5    1    3    3    0  503 -0.14983871669E+02  0.17364183721E+02 -0.16542664748E+02  0.28666723626E+02  0.47000000000E+01 0.  1.
          5    1    3    3  503    0 -0.23278385738E+03 -0.46140956992E+02 -0.38705612553E+03  0.45403947679E+03  0.47000000000E+01 0. -1.
         -5    1    4    4    0  502  0.14523375388E+03 -0.17808054495E+02 -0.34920656079E+03  0.37865192746E+03  0.47000000000E+01 0.  1.
<mgrwt>
<rscale>  0 0.26403404E+03</rscale>
<asrwt>0</asrwt>
<pdfrwt beam="1">  1        3 0.15645223E+00 0.26478915E+03</pdfrwt>
<pdfrwt beam="2">  1       -3 0.10678797E-01 0.26478915E+03</pdfrwt>
<totfact> 0.50853256E+01</totfact>
</mgrwt>
</event>
<event>
 8    1  0.2954813E-003  0.1973683E+03  0.7546771E-02  0.1152111E+00
         -1   -1    0    0    0  501 -0.00000000000E+00  0.00000000000E+00  0.76050380690E+02  0.76050380690E+02  0.00000000000E+00 0.  1.
          1   -1    0    0  501    0  0.00000000000E+00 -0.00000000000E+00 -0.55263738231E+03  0.55263738231E+03  0.00000000000E+00 0. -1.
         23    2    1    2    0    0  0.14238727875E+03  0.10180848445E+03 -0.15127637107E+03  0.24818646678E+03  0.89849191387E+02 0.  0.
         23    2    1    2    0    0 -0.14238727875E+03 -0.10180848445E+03 -0.32531063056E+03  0.38050129623E+03  0.91187309554E+02 0.  0.
          5    1    3    3  502    0  0.48107110910E+02  0.79373297172E+02 -0.10644029513E+03  0.14130124150E+03  0.47000000000E+01 0. -1.
         -5    1    4    4    0  503 -0.48966037829E+02  0.72671734162E+01 -0.53453024514E+02  0.73005482669E+02  0.47000000000E+01 0.  1.
          5    1    4    4  503    0 -0.93421240920E+02 -0.10907565786E+03 -0.27185760604E+03  0.30749581356E+03  0.47000000000E+01 0. -1.
         -5    1    3    3    0  502  0.94280167839E+02  0.22435187274E+02 -0.44836075943E+02  0.10688522527E+03  0.47000000000E+01 0.  1.
<mgrwt>
<rscale>  0 0.19721442E+03</rscale>
<asrwt>0</asrwt>
<pdfrwt beam="1">  1        1 0.85021136E-01 0.19736826E+03</pdfrwt>
<pdfrwt beam="2">  1       -1 0.11700059E-01 0.19736826E+03</pdfrwt>
<totfact> 0.18665941E+03</totfact>
</mgrwt>
</event>
<event>
 8    1  0.2954813E-003  0.1387943E+03  0.7546771E-02  0.1215278E+00
          1   -1    0    0  501    0  0.00000000000E+00  0.00000000000E+00  0.12208685077E+04  0.12208685077E+04  0.00000000000E+00 0. -1.
         -1   -1    0    0    0  501 -0.00000000000E+00 -0.00000000000E+00 -0.23955906170E+02  0.23955906170E+02  0.00000000000E+00 0.  1.
         23    2    1    2    0    0 -0.10095128528E+03  0.24955961834E+02  0.23116214280E+03  0.26915140828E+03  0.90512884648E+02 0.  0.
         23    2    1    2    0    0  0.10095128528E+03 -0.24955961834E+02  0.96575045877E+03  0.97567300563E+03  0.91923355328E+02 0.  0.
          5    1    3    3  502    0 -0.15412416724E+02 -0.30174006895E+02  0.40786097381E+02  0.53231654314E+02  0.47000000000E+01 0. -1.
         -5    1    3    3    0  502 -0.85538868559E+02  0.55129968729E+02  0.19037604541E+03  0.21591975397E+03  0.47000000000E+01 0.  1.
          5    1    4    4  503    0  0.64252978117E+02 -0.58246314472E+02  0.69271215604E+03  0.69813558817E+03  0.47000000000E+01 0. -1.
         -5    1    4    4    0  503  0.36698307166E+02  0.33290352637E+02  0.27303830273E+03  0.27753741745E+03  0.47000000000E+01 0.  1.
<mgrwt>
<rscale>  0 0.13856121E+03</rscale>
<asrwt>0</asrwt>
<pdfrwt beam="1">  1        1 0.18782588E+00 0.13879433E+03</pdfrwt>
<pdfrwt beam="2">  1       -1 0.36855250E-02 0.13879433E+03</pdfrwt>
<totfact> 0.30414155E+03</totfact>
</mgrwt>
</event>
<event>
 8    1  0.2954813E-003  0.1380734E+03  0.7546771E-02  0.1216310E+00
          1   -1    0    0  501    0  0.00000000000E+00  0.00000000000E+00  0.10305313471E+03  0.10305313471E+03  0.00000000000E+00 0. -1.
         -1   -1    0    0    0  501 -0.00000000000E+00 -0.00000000000E+00 -0.20449324726E+03  0.20449324726E+03  0.00000000000E+00 0.  1.
         23    2    1    2    0    0  0.50490369125E+02  0.88925621640E+02 -0.13655883237E+01  0.13702017646E+03  0.91190023391E+02 0.  0.
         23    2    1    2    0    0 -0.50490369125E+02 -0.88925621640E+02 -0.10007452422E+03  0.17052620552E+03  0.92775173465E+02 0.  0.
          5    1    4    4  502    0 -0.14809223431E+02 -0.48821375625E+02  0.59658374170E+01  0.51580238780E+02  0.47000000000E+01 0. -1.
         -5    1    4    4    0  502 -0.35681145694E+02 -0.40104246015E+02 -0.10604036164E+03  0.11894596674E+03  0.47000000000E+01 0.  1.
          5    1    3    3  503    0  0.46903929699E+02  0.21392598292E+02  0.32620529013E+02  0.61186688062E+02  0.47000000000E+01 0. -1.
         -5    1    3    3    0  503  0.35864394253E+01  0.67533023348E+02 -0.33986117337E+02  0.75833488393E+02  0.47000000000E+01 0.  1.
<mgrwt>
<rscale>  0 0.13780766E+03</rscale>
<asrwt>0</asrwt>
<pdfrwt beam="1">  1        1 0.15854329E-01 0.13807345E+03</pdfrwt>
<pdfrwt beam="2">  1       -1 0.31460499E-01 0.13807345E+03</pdfrwt>
<totfact> 0.31463348E+03</totfact>
</mgrwt>
</event>
<event>
 8    1  0.2954813E-003  0.1001137E+03  0.7546771E-02  0.1281748E+00
          1   -1    0    0  501    0  0.00000000000E+00  0.00000000000E+00  0.64895822199E+03  0.64895822199E+03  0.00000000000E+00 0. -1.
         -1   -1    0    0    0  501 -0.00000000000E+00 -0.00000000000E+00 -0.25852410057E+02  0.25852410057E+02  0.00000000000E+00 0.  1.
         23    2    1    2    0    0 -0.58069213907E+01 -0.27181036580E+02  0.89660113624E+02  0.13205187290E+03  0.92877511134E+02 0.  0.
         23    2    1    2    0    0  0.58069213907E+01  0.27181036580E+02  0.53344569831E+03  0.54275875915E+03  0.96178108253E+02 0.  0.
          5    1    4    4  502    0  0.47561781709E+02  0.21565584807E+02  0.37865515508E+03  0.38226824875E+03  0.47000000000E+01 0. -1.
         -5    1    3    3    0  503 -0.46478117652E-01 -0.59424561431E+02  0.37964203424E+02  0.70672847708E+02  0.47000000000E+01 0.  1.
          5    1    3    3  503    0 -0.57604432731E+01  0.32243524851E+02  0.51695910201E+02  0.61379025188E+02  0.47000000000E+01 0. -1.
         -5    1    4    4    0  502 -0.41754860318E+02  0.56154517732E+01  0.15479054322E+03  0.16049051040E+03  0.47000000000E+01 0.  1.
<mgrwt>
<rscale>  0 0.99312528E+02</rscale>
<asrwt>0</asrwt>
<pdfrwt beam="1">  1        1 0.99839715E-01 0.10011372E+03</pdfrwt>
<pdfrwt beam="2">  1       -1 0.39772943E-02 0.10011372E+03</pdfrwt>
<totfact> 0.73623818E+03</totfact>
</mgrwt>
</event>
<event>
 8    1  0.2954813E-003  0.1258757E+03  0.7546771E-02  0.1234645E+00
         -1   -1    0    0    0  501 -0.00000000000E+00  0.00000000000E+00  0.41834098868E+03  0.41834098868E+03  0.00000000000E+00 0.  1.
          1   -1    0    0  501    0  0.00000000000E+00 -0.00000000000E+00 -0.45662045974E+02  0.45662045974E+02  0.00000000000E+00 0. -1.
         23    2    1    2    0    0 -0.19375264614E+02  0.82485538723E+02  0.84760002002E+02  0.14977061358E+03  0.89820452984E+02 0.  0.
         23    2    1    2    0    0  0.19375264614E+02 -0.82485538723E+02  0.28791894071E+03  0.31423242108E+03  0.93088307875E+02 0.  0.
          5    1    4    4  502    0  0.49848362054E+02 -0.16290488924E+02  0.11198507245E+03  0.12374564914E+03  0.47000000000E+01 0. -1.
         -5    1    4    4    0  502 -0.30473097440E+02 -0.66195049799E+02  0.17593386825E+03  0.19048677194E+03  0.47000000000E+01 0.  1.
          5    1    3    3  503    0 -0.49830059392E+02  0.51304476143E+02  0.25538557165E+02  0.76088711340E+02  0.47000000000E+01 0. -1.
         -5    1    3    3    0  503  0.30454794778E+02  0.31181062579E+02  0.59221444837E+02  0.73681902236E+02  0.47000000000E+01 0.  1.
<mgrwt>
<rscale>  0 0.12527213E+03</rscale>
<asrwt>0</asrwt>
<pdfrwt beam="1">  1        1 0.70249304E-02 0.12587572E+03</pdfrwt>
<pdfrwt beam="2">  1       -1 0.64360150E-01 0.12587572E+03</pdfrwt>
<totfact> 0.25371920E+03</totfact>
</mgrwt>
</event>
<event>
 8    1  0.2954813E-003  0.1412385E+03  0.7546771E-02  0.1217902E+00
         -1   -1    0    0    0  501 -0.00000000000E+00  0.00000000000E+00  0.21473127702E+02  0.21473127702E+02  0.00000000000E+00 0.  1.
          1   -1    0    0  501    0  0.00000000000E+00 -0.00000000000E+00 -0.87666315321E+03  0.87666315321E+03  0.00000000000E+00 0. -1.
         23    2    1    2    0    0 -0.55180121174E+02 -0.62250667511E+02 -0.28507684258E+03  0.31078856156E+03  0.91655509616E+02 0.  0.
         23    2    1    2    0    0  0.55180121174E+02  0.62250667511E+02 -0.57011318293E+03  0.58734771935E+03  0.11414162563E+03 0.  0.
          5    1    4    4  502    0  0.68027350177E+02  0.83647907028E+02 -0.36357428527E+03  0.37925327109E+03  0.47000000000E+01 0. -1.
         -5    1    4    4    0  502 -0.12847229003E+02 -0.21397239517E+02 -0.20653889766E+03  0.20809444826E+03  0.47000000000E+01 0.  1.
          5    1    3    3  503    0 -0.23149220493E+02  0.93926102583E+01 -0.16706057149E+03  0.16898352608E+03  0.47000000000E+01 0. -1.
         -5    1    3    3    0  503 -0.32030900681E+02 -0.71643277769E+02 -0.11801627109E+03  0.14180503549E+03  0.47000000000E+01 0.  1.
<mgrwt>
<rscale>  0 0.13665472E+03</rscale>
<asrwt>0</asrwt>
<pdfrwt beam="1">  1        1 0.13487127E+00 0.14123846E+03</pdfrwt>
<pdfrwt beam="2">  1       -1 0.33035577E-02 0.14123846E+03</pdfrwt>
<totfact> 0.63316438E+03</totfact>
</mgrwt>
</event>
<event>
 8    1  0.2954813E-003  0.1023941E+03  0.7546771E-02  0.1276665E+00
         -2   -1    0    0    0  501 -0.00000000000E+00  0.00000000000E+00  0.11885001155E+03  0.11885001155E+03  0.00000000000E+00 0.  1.
          2   -1    0    0  501    0  0.00000000000E+00 -0.00000000000E+00 -0.95767813477E+02  0.95767813477E+02  0.00000000000E+00 0. -1.
         23    2    1    2    0    0  0.46115647475E+02  0.13532431074E+02  0.45904459266E+02  0.11221303205E+03  0.90414410071E+02 0.  0.
         23    2    1    2    0    0 -0.46115647475E+02 -0.13532431074E+02 -0.22822261187E+02  0.10240479298E+03  0.87499179352E+02 0.  0.
          5    1    4    4  502    0 -0.26473197827E+02  0.33739597519E+02 -0.26892851506E+02  0.50838037984E+02  0.47000000000E+01 0. -1.
         -5    1    3    3    0  503 -0.10180877624E+02 -0.28342249443E+02  0.23246279359E+02  0.38332921578E+02  0.47000000000E+01 0.  1.
          5    1    3    3  503    0  0.56296525099E+02  0.41874680517E+02  0.22658179907E+02  0.73880110472E+02  0.47000000000E+01 0. -1.
         -5    1    4    4    0  502 -0.19642449648E+02 -0.47272028593E+02  0.40705903186E+01  0.51566754998E+02  0.47000000000E+01 0.  1.
<mgrwt>
<rscale>  0 0.10174676E+03</rscale>
<asrwt>0</asrwt>
<pdfrwt beam="1">  1        2 0.14733510E-01 0.10239407E+03</pdfrwt>
<pdfrwt beam="2">  1       -2 0.18284617E-01 0.10239407E+03</pdfrwt>
<totfact> 0.89704457E+03</totfact>
</mgrwt>
</event>
<event>
 8    1  0.2954813E-003  0.1391421E+03  0.7546771E-02  0.1215314E+00
         -2   -1    0    0    0  501 -0.00000000000E+00  0.00000000000E+00  0.49302784871E+02  0.49302784871E+02  0.00000000000E+00 0.  1.
          2   -1    0    0  501    0  0.00000000000E+00 -0.00000000000E+00 -0.45349947290E+03  0.45349947290E+03  0.00000000000E+00 0. -1.
         23    2    1    2    0    0  0.65513819374E+01 -0.10308523265E+03 -0.10353704191E+03  0.17150670157E+03  0.89583167164E+02 0.  0.
         23    2    1    2    0    0 -0.65513819374E+01  0.10308523265E+03 -0.30065964611E+03  0.33129555620E+03  0.93225731215E+02 0.  0.
          5    1    4    4  502    0 -0.34164902766E+02  0.56470809145E+02 -0.24378339826E+03  0.25260369778E+03  0.47000000000E+01 0. -1.
         -5    1    4    4    0  502  0.27613520829E+02  0.46614423503E+02 -0.56876247856E+02  0.78691858418E+02  0.47000000000E+01 0.  1.
          5    1    3    3  503    0 -0.39308888061E+02 -0.36006843807E+02 -0.27696202787E+02  0.60256544295E+02  0.47000000000E+01 0. -1.
         -5    1    3    3    0  503  0.45860269999E+02 -0.67078388842E+02 -0.75840839124E+02  0.11125015727E+03  0.47000000000E+01 0.  1.
<mgrwt>
<rscale>  0 0.13853468E+03</rscale>
<asrwt>0</asrwt>
<pdfrwt beam="1">  1        2 0.69769152E-01 0.13914210E+03</pdfrwt>
<pdfrwt beam="2">  1       -2 0.75850436E-02 0.13914210E+03</pdfrwt>
<totfact> 0.68474237E+03</totfact>
</mgrwt>
</event>
<event>
 7    1  0.2954813E-003  0.1364272E+03  0.7546771E-02  0.1238780E+00
         -1   -1    0    0    0  501 -0.00000000000E+00  0.00000000000E+00  0.49376672947E+03  0.49376672947E+03  0.00000000000E+00 0.  1.
          1   -1    0    0  501    0  0.00000000000E+00 -0.00000000000E+00 -0.37908631422E+02  0.37908631422E+02  0.00000000000E+00 0. -1.
         23    2    1    2    0    0  0.35638215151E+01  0.50104064037E+01  0.47228558638E+02  0.10087321513E+03  0.88921672182E+02 0.  0.
          5    1    3    3  502    0 -0.25812490918E+02 -0.31852523559E+02  0.16700554658E+02  0.44518158883E+02  0.47000000000E+01 0. -1.
         -5    1    3    3    0  502  0.29376312433E+02  0.36862929963E+02  0.30528003980E+02  0.56355056247E+02  0.47000000000E+01 0.  1.
          5    1    1    2  503    0 -0.57759557679E+02 -0.41169476804E+02  0.21673733282E+03  0.22809702708E+03  0.47000000000E+01 0. -1.
         -5    1    1    2    0  503  0.54195736164E+02  0.36159070400E+02  0.19189220659E+03  0.20270511868E+03  0.47000000000E+01 0.  1.
<mgrwt>
<rscale>  0 0.12265539E+03</rscale>
<asrwt>0</asrwt>
<pdfrwt beam="1">  1        1 0.58320975E-02 0.13642723E+03</pdfrwt>
<pdfrwt beam="2">  1       -1 0.75964107E-01 0.13642723E+03</pdfrwt>
<totfact> 0.23635782E+03</totfact>
</mgrwt>
</event>
<event>
 8    1  0.2954813E-003  0.9898076E+02  0.7546771E-02  0.1285895E+00
          1   -1    0    0  501    0  0.00000000000E+00  0.00000000000E+00  0.21055542411E+03  0.21055542411E+03  0.00000000000E+00 0. -1.
         -1   -1    0    0    0  501 -0.00000000000E+00 -0.00000000000E+00 -0.75594044769E+02  0.75594044769E+02  0.00000000000E+00 0.  1.
         23    2    1    2    0    0  0.21623471852E+02 -0.19588065686E+02 -0.24237038845E+02  0.10190498342E+03  0.94582898776E+02 0.  0.
         23    2    1    2    0    0 -0.21623471852E+02  0.19588065686E+02  0.15919841818E+03  0.18424448546E+03  0.88037646597E+02 0.  0.
          5    1    3    3  502    0 -0.24415596220E+02 -0.24114662143E+02  0.18045571937E+02  0.39055997434E+02  0.47000000000E+01 0. -1.
         -5    1    4    4    0  503  0.15658702585E+02 -0.27097313636E+02  0.69519978936E+02  0.76384401838E+02  0.47000000000E+01 0.  1.
          5    1    4    4  503    0 -0.37282174437E+02  0.46685379322E+02  0.89678439246E+02  0.10786008362E+03  0.47000000000E+01 0. -1.
         -5    1    3    3    0  502  0.46039068072E+02  0.45265964566E+01 -0.42282610782E+02  0.62848985982E+02  0.47000000000E+01 0.  1.
<mgrwt>
<rscale>  0 0.97383945E+02</rscale>
<asrwt>0</asrwt>
<pdfrwt beam="1">  1        1 0.32393142E-01 0.98980764E+02</pdfrwt>
<pdfrwt beam="2">  1       -1 0.11629853E-01 0.98980764E+02</pdfrwt>
<totfact> 0.61561914E+03</totfact>
</mgrwt>
</event>
<event>
 8    1  0.2954813E-003  0.1171606E+03  0.7546771E-02  0.1248530E+00
         -2   -1    0    0    0  501 -0.00000000000E+00  0.00000000000E+00  0.24756223930E+02  0.24756223930E+02  0.00000000000E+00 0.  1.
          2   -1    0    0  501    0  0.00000000000E+00 -0.00000000000E+00 -0.54715042207E+03  0.54715042207E+03  0.00000000000E+00 0. -1.
         23    2    1    2    0    0 -0.51973578554E+02  0.48330121441E+02 -0.26675672005E+03  0.29135160933E+03  0.93217804411E+02 0.  0.
         23    2    1    2    0    0  0.51973578554E+02 -0.48330121441E+02 -0.25563747809E+03  0.28055503667E+03  0.91233518467E+02 0.  0.
          5    1    3    3  502    0 -0.56483008737E+02  0.71492735292E+02 -0.22984706188E+03  0.24729193948E+03  0.47000000000E+01 0. -1.
         -5    1    3    3    0  502  0.45094301824E+01 -0.23162613851E+02 -0.36909658167E+02  0.44059669847E+02  0.47000000000E+01 0.  1.
          5    1    4    4  503    0 -0.25854082551E+02 -0.17814824722E+02 -0.64865780647E+02  0.72218149127E+02  0.47000000000E+01 0. -1.
         -5    1    4    4    0  503  0.77827661105E+02 -0.30515296720E+02 -0.19077169744E+03  0.20833688755E+03  0.47000000000E+01 0.  1.
<mgrwt>
<rscale>  0 0.11676550E+03</rscale>
<asrwt>0</asrwt>
<pdfrwt beam="1">  1        2 0.84176979E-01 0.11716063E+03</pdfrwt>
<pdfrwt beam="2">  1       -2 0.38086502E-02 0.11716063E+03</pdfrwt>
<totfact> 0.15539972E+04</totfact>
</mgrwt>
</event>
<event>
 8    1  0.2954813E-003  0.9419743E+02  0.7546771E-02  0.1298703E+00
         -1   -1    0    0    0  501 -0.00000000000E+00  0.00000000000E+00  0.21380000595E+03  0.21380000595E+03  0.00000000000E+00 0.  1.
          1   -1    0    0  501    0  0.00000000000E+00 -0.00000000000E+00 -0.39145471695E+02  0.39145471695E+02  0.00000000000E+00 0. -1.
         23    2    1    2    0    0 -0.11549106254E+02 -0.24109098457E+02  0.10930962563E+03  0.13830206332E+03  0.80400472511E+02 0.  0.
         23    2    1    2    0    0  0.11549106254E+02  0.24109098457E+02  0.65344908620E+02  0.11464341432E+03  0.90324553033E+02 0.  0.
          5    1    3    3  502    0 -0.26185126659E+02 -0.38984310272E+02  0.10680077973E+03  0.11676443747E+03  0.47000000000E+01 0. -1.
         -5    1    4    4    0  503  0.20364711546E+02 -0.30975552565E+02  0.18754468614E+02  0.41809405952E+02  0.47000000000E+01 0.  1.
          5    1    4    4  503    0 -0.88156052921E+01  0.55084651022E+02  0.46590440005E+02  0.72834008367E+02  0.47000000000E+01 0. -1.
         -5    1    3    3    0  502  0.14636020405E+02  0.14875211815E+02  0.25088459011E+01  0.21537625858E+02  0.47000000000E+01 0.  1.
<mgrwt>
<rscale>  0 0.91735254E+02</rscale>
<asrwt>0</asrwt>
<pdfrwt beam="1">  1        1 0.60223804E-02 0.94197428E+02</pdfrwt>
<pdfrwt beam="2">  1       -1 0.32892308E-01 0.94197428E+02</pdfrwt>
<totfact> 0.10174107E+04</totfact>
</mgrwt>
</event>
<event>
 8    1  0.2954813E-003  0.1146269E+03  0.7546771E-02  0.1253056E+00
          1   -1    0    0  501    0  0.00000000000E+00  0.00000000000E+00  0.16458538170E+03  0.16458538170E+03  0.00000000000E+00 0. -1.
         -1   -1    0    0    0  501 -0.00000000000E+00 -0.00000000000E+00 -0.90490695404E+02  0.90490695404E+02  0.00000000000E+00 0.  1.
         23    2    1    2    0    0  0.68021708672E+02 -0.13217278476E+02 -0.95558049060E+01  0.11317215250E+03  0.88966136219E+02 0.  0.
         23    2    1    2    0    0 -0.68021708672E+02  0.13217278476E+02  0.83650491202E+02  0.14190392460E+03  0.91310841842E+02 0.  0.
          5    1    4    4  502    0 -0.26067179978E+02  0.45395172789E+02  0.14109099885E+02  0.54418528868E+02  0.47000000000E+01 0. -1.
         -5    1    3    3    0  503  0.30485902613E+02 -0.40914898704E+02 -0.32803023804E+02  0.60840344877E+02  0.47000000000E+01 0.  1.
          5    1    3    3  503    0  0.37535806059E+02  0.27697620228E+02  0.23247218898E+02  0.52331807625E+02  0.47000000000E+01 0. -1.
         -5    1    4    4    0  502 -0.41954528694E+02 -0.32177894313E+02  0.69541391316E+02  0.87485395733E+02  0.47000000000E+01 0.  1.
<mgrwt>
<rscale>  0 0.11415930E+03</rscale>
<asrwt>0</asrwt>
<pdfrwt beam="1">  1        1 0.25320828E-01 0.11462687E+03</pdfrwt>
<pdfrwt beam="2">  1       -1 0.13921645E-01 0.11462687E+03</pdfrwt>
<totfact> 0.63989117E+03</totfact>
</mgrwt>
</event>
<event>
 8    1  0.2954813E-003  0.9241891E+02  0.7546771E-02  0.1298952E+00
         -2   -1    0    0    0  501 -0.00000000000E+00  0.00000000000E+00  0.23744699251E+03  0.23744699251E+03  0.00000000000E+00 0.  1.
          2   -1    0    0  501    0  0.00000000000E+00 -0.00000000000E+00 -0.73499771460E+03  0.73499771460E+03  0.00000000000E+00 0. -1.
         23    2    1    2    0    0 -0.12424712686E+02  0.15018384513E+02  0.22600578580E+03  0.24300980568E+03  0.87150588531E+02 0.  0.
         23    2    1    2    0    0  0.12424712686E+02 -0.15018384513E+02 -0.72355650789E+03  0.72943490144E+03  0.90340079492E+02 0.  0.
          5    1    3    3  502    0  0.89769293203E+01  0.46572465837E+02  0.92092220738E+02  0.10369497073E+03  0.47000000000E+01 0. -1.
         -5    1    3    3    0  502 -0.21401642006E+02 -0.31554081324E+02  0.13391356506E+03  0.13931483495E+03  0.47000000000E+01 0.  1.
          5    1    4    4  503    0  0.15633073940E+02 -0.52164436536E+02 -0.45089426267E+03  0.45419516460E+03  0.47000000000E+01 0. -1.
         -5    1    4    4    0  503 -0.32083612540E+01  0.37146052024E+02 -0.27266224523E+03  0.27523973684E+03  0.47000000000E+01 0.  1.
<mgrwt>
<rscale>  0 0.91630066E+02</rscale>
<asrwt>0</asrwt>
<pdfrwt beam="1">  1        2 0.11307657E+00 0.92418912E+02</pdfrwt>
<pdfrwt beam="2">  1       -2 0.36530308E-01 0.92418912E+02</pdfrwt>
<totfact> 0.28921561E+02</totfact>
</mgrwt>
</event>
<event>
 8    1  0.2954813E-003  0.9816205E+02  0.7546771E-02  0.1286815E+00
         -1   -1    0    0    0  501 -0.00000000000E+00  0.00000000000E+00  0.15296954392E+02  0.15296954392E+02  0.00000000000E+00 0.  1.
          1   -1    0    0  501    0  0.00000000000E+00 -0.00000000000E+00 -0.90511825376E+03  0.90511825376E+03  0.00000000000E+00 0. -1.
         23    2    1    2    0    0 -0.11076075636E+02  0.22306650656E+02 -0.71927631912E+03  0.72594366992E+03  0.94950105481E+02 0.  0.
         23    2    1    2    0    0  0.11076075636E+02 -0.22306650656E+02 -0.17054498025E+03  0.19447153823E+03  0.90073985036E+02 0.  0.
          5    1    3    3  502    0  0.31595890607E+02  0.37816044597E+02 -0.46252392062E+03  0.46516536918E+03  0.47000000000E+01 0. -1.
         -5    1    4    4    0  503  0.19959769258E+02 -0.49823231949E+02 -0.62459478002E+02  0.82486503278E+02  0.47000000000E+01 0.  1.
          5    1    4    4  503    0 -0.88836936225E+01  0.27516581293E+02 -0.10808550225E+03  0.11198503496E+03  0.47000000000E+01 0. -1.
         -5    1    3    3    0  502 -0.42671966243E+02 -0.15509393941E+02 -0.25675239850E+03  0.26077830074E+03  0.47000000000E+01 0.  1.
<mgrwt>
<rscale>  0 0.96963173E+02</rscale>
<asrwt>0</asrwt>
<pdfrwt beam="1">  1        1 0.13924897E+00 0.98162053E+02</pdfrwt>
<pdfrwt beam="2">  1       -1 0.23533774E-02 0.98162053E+02</pdfrwt>
<totfact> 0.96356414E+03</totfact>
</mgrwt>
</event>
<event>
 8    1  0.2954813E-003  0.9694006E+02  0.7546771E-02  0.1286887E+00
          2   -1    0    0  501    0  0.00000000000E+00  0.00000000000E+00  0.63202463504E+03  0.63202463504E+03  0.00000000000E+00 0. -1.
         -2   -1    0    0    0  501 -0.00000000000E+00 -0.00000000000E+00 -0.17243079030E+02  0.17243079030E+02  0.00000000000E+00 0.  1.
         23    2    1    2    0    0 -0.19266571401E+02 -0.32664747661E+02  0.18671886103E+03  0.21036562220E+03  0.89171606618E+02 0.  0.
         23    2    1    2    0    0  0.19266571401E+02  0.32664747661E+02  0.42806269499E+03  0.43890209187E+03  0.89214286403E+02 0.  0.
          5    1    4    4  502    0  0.43823486134E+02  0.70379094868E+01  0.10823473277E+03  0.11707637458E+03  0.47000000000E+01 0. -1.
         -5    1    4    4    0  502 -0.24556914733E+02  0.25626838174E+02  0.31982796222E+03  0.32182571730E+03  0.47000000000E+01 0.  1.
          5    1    3    3  503    0 -0.19911541928E+02  0.28751377888E+02  0.69751954332E+02  0.78169919826E+02  0.47000000000E+01 0. -1.
         -5    1    3    3    0  503  0.64497052784E+00 -0.61416125548E+02  0.11696690669E+03  0.13219570237E+03  0.47000000000E+01 0.  1.
<mgrwt>
<rscale>  0 0.96930240E+02</rscale>
<asrwt>0</asrwt>
<pdfrwt beam="1">  1        2 0.97234541E-01 0.96940061E+02</pdfrwt>
<pdfrwt beam="2">  1       -2 0.26527819E-02 0.96940061E+02</pdfrwt>
<totfact> 0.22066518E+04</totfact>
</mgrwt>
</event>
<event>
 8    1  0.2954813E-003  0.1041192E+03  0.7546771E-02  0.1272930E+00
          1   -1    0    0  501    0  0.00000000000E+00  0.00000000000E+00  0.60182273169E+02  0.60182273169E+02  0.00000000000E+00 0. -1.
         -1   -1    0    0    0  501 -0.00000000000E+00 -0.00000000000E+00 -0.36585459989E+03  0.36585459989E+03  0.00000000000E+00 0.  1.
         23    2    1    2    0    0  0.35860113950E+02 -0.26153051660E+02 -0.30684100015E+03  0.32402502425E+03  0.94185386792E+02 0.  0.
         23    2    1    2    0    0 -0.35860113950E+02  0.26153051660E+02  0.11686734229E+01  0.10201184881E+03  0.91842918164E+02 0.  0.
          5    1    3    3  502    0 -0.30919092690E+02  0.16283679186E+01 -0.81249416481E+02  0.87075826458E+02  0.47000000000E+01 0. -1.
         -5    1    3    3    0  502  0.66779206640E+02 -0.27781419579E+02 -0.22559158367E+03  0.23694919779E+03  0.47000000000E+01 0.  1.
          5    1    4    4  503    0  0.10011709752E+02  0.47725347399E+02  0.10883939972E+02  0.50184591917E+02  0.47000000000E+01 0. -1.
         -5    1    4    4    0  503 -0.45871823702E+02 -0.21572295739E+02 -0.97152665494E+01  0.51827256896E+02  0.47000000000E+01 0.  1.
<mgrwt>
<rscale>  0 0.10358665E+03</rscale>
<asrwt>0</asrwt>
<pdfrwt beam="1">  1        1 0.92588112E-02 0.10411924E+03</pdfrwt>
<pdfrwt beam="2">  1       -1 0.56285323E-01 0.10411924E+03</pdfrwt>
<totfact> 0.22405430E+03</totfact>
</mgrwt>
</event>
<event>
 8    1  0.2954813E-003  0.9801832E+02  0.7546771E-02  0.1286143E+00
          1   -1    0    0  501    0  0.00000000000E+00  0.00000000000E+00  0.29751540185E+02  0.29751540185E+02  0.00000000000E+00 0. -1.
         -1   -1    0    0    0  501 -0.00000000000E+00 -0.00000000000E+00 -0.32874951345E+03  0.32874951345E+03  0.00000000000E+00 0.  1.
         23    2    1    2    0    0  0.22782766841E+02  0.19820132417E+02 -0.19059194047E+03  0.21431956983E+03  0.93250727223E+02 0.  0.
         23    2    1    2    0    0 -0.22782766841E+02 -0.19820132417E+02 -0.10840603280E+03  0.14418148381E+03  0.90136231400E+02 0.  0.
          5    1    3    3  502    0 -0.22394162132E+02 -0.85988156000E+01 -0.10817788566E+02  0.26731118135E+02  0.47000000000E+01 0. -1.
         -5    1    4    4    0  503  0.87701125770E+00 -0.41473224289E+02 -0.13474832275E+02  0.43868651524E+02  0.47000000000E+01 0.  1.
          5    1    4    4  503    0 -0.23659778099E+02  0.21653091871E+02 -0.94931200526E+02  0.10031283228E+03  0.47000000000E+01 0. -1.
         -5    1    3    3    0  502  0.45176928973E+02  0.28418948017E+02 -0.17977415190E+03  0.18758845170E+03  0.47000000000E+01 0.  1.
<mgrwt>
<rscale>  0 0.97270255E+02</rscale>
<asrwt>0</asrwt>
<pdfrwt beam="1">  1        1 0.45771598E-02 0.98018316E+02</pdfrwt>
<pdfrwt beam="2">  1       -1 0.50576851E-01 0.98018316E+02</pdfrwt>
<totfact> 0.69821944E+03</totfact>
</mgrwt>
</event>
<event>
 8    1  0.2954813E-003  0.1038810E+03  0.7546771E-02  0.1272439E+00
          3   -1    0    0  501    0  0.00000000000E+00  0.00000000000E+00  0.11073956942E+03  0.11073956942E+03  0.00000000000E+00 0. -1.
         -3   -1    0    0    0  501 -0.00000000000E+00 -0.00000000000E+00 -0.15617475920E+03  0.15617475920E+03  0.00000000000E+00 0.  1.
         23    2    1    2    0    0 -0.24882206567E+02  0.43663833527E+02  0.59235898773E+02  0.11958321000E+03  0.90915333412E+02 0.  0.
         23    2    1    2    0    0  0.24882206567E+02 -0.43663833527E+02 -0.10467108855E+03  0.14733111861E+03  0.90690502095E+02 0.  0.
          5    1    4    4  502    0  0.23097266060E+01 -0.66904394118E+02 -0.87776964038E+02  0.11049171102E+03  0.47000000000E+01 0. -1.
         -5    1    3    3    0  503 -0.48639641588E+02  0.46216279412E+02  0.14734535801E+02  0.68854598698E+02  0.47000000000E+01 0.  1.
          5    1    3    3  503    0  0.23757435021E+02 -0.25524458853E+01  0.44501362971E+02  0.50728611306E+02  0.47000000000E+01 0. -1.
         -5    1    4    4    0  502  0.22572479961E+02  0.23240560591E+02 -0.16894124513E+02  0.36839407585E+02  0.47000000000E+01 0.  1.
<mgrwt>
<rscale>  0 0.10383174E+03</rscale>
<asrwt>0</asrwt>
<pdfrwt beam="1">  1        3 0.17036857E-01 0.10388095E+03</pdfrwt>
<pdfrwt beam="2">  1       -3 0.24026886E-01 0.10388095E+03</pdfrwt>
<totfact> 0.10584394E+03</totfact>
</mgrwt>
</event>
<event>
 8    1  0.2954813E-003  0.1150692E+03  0.7546771E-02  0.1252544E+00
          1   -1    0    0  501    0  0.00000000000E+00  0.00000000000E+00  0.55443499361E+03  0.55443499361E+03  0.00000000000E+00 0. -1.
         -1   -1    0    0    0  501 -0.00000000000E+00 -0.00000000000E+00 -0.23466458235E+02  0.23466458235E+02  0.00000000000E+00 0.  1.
         23    2    1    2    0    0 -0.43220231089E+02  0.48915612448E+02  0.25025469456E+03  0.27544205232E+03  0.94763846068E+02 0.  0.
         23    2    1    2    0    0  0.43220231089E+02 -0.48915612448E+02  0.28071384082E+03  0.30245939953E+03  0.91764385347E+02 0.  0.
          5    1    3    3  502    0  0.20287373196E+02  0.40400633369E+02  0.14666155142E+03  0.15354311887E+03  0.47000000000E+01 0. -1.
         -5    1    4    4    0  503  0.20009794148E+02 -0.36651076387E+01  0.42360816318E+01  0.21303972949E+02  0.47000000000E+01 0.  1.
          5    1    4    4  503    0  0.23210436942E+02 -0.45250504809E+02  0.27647775919E+03  0.28115542658E+03  0.47000000000E+01 0. -1.
         -5    1    3    3    0  502 -0.63507604286E+02  0.85149790791E+01  0.10359314314E+03  0.12189893345E+03  0.47000000000E+01 0.  1.
<mgrwt>
<rscale>  0 0.11444985E+03</rscale>
<asrwt>0</asrwt>
<pdfrwt beam="1">  1        1 0.85297681E-01 0.11506916E+03</pdfrwt>
<pdfrwt beam="2">  1       -1 0.36102248E-02 0.11506916E+03</pdfrwt>
<totfact> 0.10587584E+04</totfact>
</mgrwt>
</event>
<event>
 8    1  0.2954813E-003  0.9415101E+02  0.7546771E-02  0.1300433E+00
          1   -1    0    0  501    0  0.00000000000E+00  0.00000000000E+00  0.10676692951E+04  0.10676692951E+04  0.00000000000E+00 0. -1.
         -1   -1    0    0    0  501 -0.00000000000E+00 -0.00000000000E+00 -0.79271441999E+01  0.79271441999E+01  0.00000000000E+00 0.  1.
         23    2    1    2    0    0 -0.35416951544E+00 -0.23042336521E+02  0.65004680461E+03  0.65522197578E+03  0.78891790831E+02 0.  0.
         23    2    1    2    0    0  0.35416951544E+00  0.23042336521E+02  0.40969534627E+03  0.42037446350E+03  0.91287118994E+02 0.  0.
          5    1    3    3  502    0  0.34772557965E+02  0.51105675588E+01  0.34817045038E+03  0.34997142913E+03  0.47000000000E+01 0. -1.
         -5    1    3    3    0  502 -0.35126727480E+02 -0.28152904080E+02  0.30187635422E+03  0.30525054665E+03  0.47000000000E+01 0.  1.
          5    1    4    4  503    0  0.23781068001E+02  0.50759292163E+02  0.28114164262E+03  0.28671372159E+03  0.47000000000E+01 0. -1.
         -5    1    4    4    0  503 -0.23426898486E+02 -0.27716955642E+02  0.12855370366E+03  0.13366074190E+03  0.47000000000E+01 0.  1.
<mgrwt>
<rscale>  0 0.91006377E+02</rscale>
<asrwt>0</asrwt>
<pdfrwt beam="1">  1        1 0.16425670E+00 0.94151011E+02</pdfrwt>
<pdfrwt beam="2">  1       -1 0.12195615E-02 0.94151011E+02</pdfrwt>
<totfact> 0.18668546E+04</totfact>
</mgrwt>
</event>
<event>
 8    1  0.2954813E-003  0.1136647E+03  0.7546771E-02  0.1254022E+00
         -2   -1    0    0    0  501 -0.00000000000E+00  0.00000000000E+00  0.89768569666E+02  0.89768569666E+02  0.00000000000E+00 0.  1.
          2   -1    0    0  501    0  0.00000000000E+00 -0.00000000000E+00 -0.14663026647E+03  0.14663026647E+03  0.00000000000E+00 0. -1.
         23    2    1    2    0    0  0.15158376501E+02 -0.63671999517E+02 -0.11632132591E+02  0.11425836631E+03  0.92928832245E+02 0.  0.
         23    2    1    2    0    0 -0.15158376501E+02  0.63671999517E+02 -0.45229564212E+02  0.12214046983E+03  0.92675136848E+02 0.  0.
          5    1    3    3  502    0  0.27950081479E+02 -0.83312659929E+01 -0.40691048155E+02  0.50283878606E+02  0.47000000000E+01 0. -1.
         -5    1    3    3    0  502 -0.12791704978E+02 -0.55340733524E+02  0.29058915563E+02  0.63974487704E+02  0.47000000000E+01 0.  1.
          5    1    4    4  503    0 -0.49061237627E+02  0.52393483342E+02 -0.11622995615E+02  0.72864711358E+02  0.47000000000E+01 0.  1.
         -5    1    4    4    0  503  0.33902861126E+02  0.11278516175E+02 -0.33606568598E+02  0.49275758468E+02  0.47000000000E+01 0. -1.
<mgrwt>
<rscale>  0 0.11361285E+03</rscale>
<asrwt>0</asrwt>
<pdfrwt beam="1">  1        2 0.22558503E-01 0.11366472E+03</pdfrwt>
<pdfrwt beam="2">  1       -2 0.13810549E-01 0.11366472E+03</pdfrwt>
<totfact> 0.88292908E+03</totfact>
</mgrwt>
</event>
<event>
 8    1  0.2954813E-003  0.9951029E+02  0.7546771E-02  0.1281692E+00
         -1   -1    0    0    0  501 -0.00000000000E+00  0.00000000000E+00  0.25246433099E+02  0.25246433099E+02  0.00000000000E+00 0.  1.
          1   -1    0    0  501    0  0.00000000000E+00 -0.00000000000E+00 -0.39210498516E+03  0.39210498516E+03  0.00000000000E+00 0. -1.
         23    2    1    2    0    0 -0.35345676944E+02 -0.19583896043E+02 -0.16590507009E+03  0.19310914060E+03  0.90187593596E+02 0.  0.
         23    2    1    2    0    0  0.35345676944E+02  0.19583896043E+02 -0.20095348197E+03  0.22424227766E+03  0.90936523526E+02 0.  0.
          5    1    3    3  502    0  0.22136841805E+02  0.18369501812E+02 -0.39667748201E+02  0.49224979525E+02  0.47000000000E+01 0. -1.
         -5    1    3    3    0  502 -0.57482518749E+02 -0.37953397854E+02 -0.12623732189E+03  0.14388416108E+03  0.47000000000E+01 0.  1.
          5    1    4    4  503    0  0.13020092149E+02 -0.36449914975E+02 -0.76570474870E+02  0.85925821049E+02  0.47000000000E+01 0. -1.
         -5    1    4    4    0  503  0.22325584795E+02  0.56033811018E+02 -0.12438300710E+03  0.13831645661E+03  0.47000000000E+01 0.  1.
<mgrwt>
<rscale>  0 0.99338861E+02</rscale>
<asrwt>0</asrwt>
<pdfrwt beam="1">  1        1 0.60323844E-01 0.99510287E+02</pdfrwt>
<pdfrwt beam="2">  1       -1 0.38840666E-02 0.99510287E+02</pdfrwt>
<totfact> 0.14647339E+04</totfact>
</mgrwt>
</event>
<event>
 8    1  0.2954813E-003  0.1138562E+03  0.7546771E-02  0.1254474E+00
          2   -1    0    0  501    0  0.00000000000E+00  0.00000000000E+00  0.15116190158E+03  0.15116190158E+03  0.00000000000E+00 0. -1.
         -2   -1    0    0    0  501 -0.00000000000E+00 -0.00000000000E+00 -0.19690506192E+03  0.19690506192E+03  0.00000000000E+00 0.  1.
         23    2    1    2    0    0 -0.64495064619E+02  0.22509638494E+02 -0.15440744268E+03  0.19067842222E+03  0.88601947819E+02 0.  0.
         23    2    1    2    0    0  0.64495064619E+02 -0.22509638494E+02  0.10866428234E+03  0.15738854129E+03  0.91087482604E+02 0.  0.
          5    1    4    4  502    0  0.44191611455E+02 -0.57051824664E+02  0.58512078503E+02  0.93024526611E+02  0.47000000000E+01 0. -1.
         -5    1    3    3    0  503 -0.28494975331E+02 -0.74776710764E+01 -0.13741767316E+03  0.14061858370E+03  0.47000000000E+01 0.  1.
          5    1    3    3  503    0 -0.36000089288E+02  0.29987309571E+02 -0.16989769521E+02  0.50059838517E+02  0.47000000000E+01 0. -1.
         -5    1    4    4    0  502  0.20303453164E+02  0.34542186169E+02  0.50152203833E+02  0.64364014675E+02  0.47000000000E+01 0.  1.
<mgrwt>
<rscale>  0 0.11335827E+03</rscale>
<asrwt>0</asrwt>
<pdfrwt beam="1">  1        2 0.23255677E-01 0.11385617E+03</pdfrwt>
<pdfrwt beam="2">  1       -2 0.30293086E-01 0.11385617E+03</pdfrwt>
<totfact> 0.22557790E+03</totfact>
</mgrwt>
</event>
<event>
 8    1  0.2954813E-003  0.1022525E+03  0.7546771E-02  0.1278692E+00
          1   -1    0    0  501    0  0.00000000000E+00  0.00000000000E+00  0.92411417871E+02  0.92411417871E+02  0.00000000000E+00 0. -1.
         -1   -1    0    0    0  501 -0.00000000000E+00 -0.00000000000E+00 -0.11189986037E+03  0.11189986037E+03  0.00000000000E+00 0.  1.
         23    2    1    2    0    0  0.17602307216E+02 -0.24245634980E+02  0.12330739813E+02  0.97222409930E+02  0.91664921390E+02 0.  0.
         23    2    1    2    0    0 -0.17602307216E+02  0.24245634980E+02 -0.31819182314E+02  0.10708886831E+03  0.97764376532E+02 0.  0.
          5    1    3    3  502    0  0.29146630566E+02  0.29101170978E+02  0.84059737128E+01  0.42298399730E+02  0.47000000000E+01 0. -1.
         -5    1    3    3    0  502 -0.11544323350E+02 -0.53346805958E+02  0.39247661006E+01  0.54924010201E+02  0.47000000000E+01 0.  1.
          5    1    4    4  503    0 -0.35971779238E+02  0.37477006155E+02 -0.53979667532E+02  0.75062569892E+02  0.47000000000E+01 0. -1.
         -5    1    4    4    0  503  0.18369472023E+02 -0.13231371174E+02  0.22160485217E+02  0.32026298422E+02  0.47000000000E+01 0.  1.
<mgrwt>
<rscale>  0 0.10076659E+03</rscale>
<asrwt>0</asrwt>
<pdfrwt beam="1">  1        1 0.14217141E-01 0.10225246E+03</pdfrwt>
<pdfrwt beam="2">  1       -1 0.17215363E-01 0.10225246E+03</pdfrwt>
<totfact> 0.94554169E+03</totfact>
</mgrwt>
</event>
<event>
 8    1  0.2954813E-003  0.8865282E+02  0.7546771E-02  0.1306293E+00
          2   -1    0    0  501    0  0.00000000000E+00  0.00000000000E+00  0.27372785683E+03  0.27372785683E+03  0.00000000000E+00 0. -1.
         -2   -1    0    0    0  501 -0.00000000000E+00 -0.00000000000E+00 -0.28932722311E+02  0.28932722311E+02  0.00000000000E+00 0.  1.
         23    2    1    2    0    0  0.77156437505E+01 -0.36916714422E+01  0.13788025955E+03  0.16392159213E+03  0.88239236149E+02 0.  0.
         23    2    1    2    0    0 -0.77156437505E+01  0.36916714422E+01  0.10691487497E+03  0.13873898701E+03  0.88003161482E+02 0.  0.
          5    1    4    4  502    0  0.33537020083E+02 -0.17947874792E+02  0.29905720041E+02  0.48613784225E+02  0.47000000000E+01 0. -1.
         -5    1    4    4    0  502 -0.41252663833E+02  0.21639546234E+02  0.77009154925E+02  0.90125202784E+02  0.47000000000E+01 0.  1.
          5    1    3    3  503    0 -0.99993414296E+01  0.27098017296E+02  0.12067606555E+03  0.12417363717E+03  0.47000000000E+01 0. -1.
         -5    1    3    3    0  503  0.17714985180E+02 -0.30789688738E+02  0.17204194000E+02  0.39747954963E+02  0.47000000000E+01 0.  1.
<mgrwt>
<rscale>  0 0.88594018E+02</rscale>
<asrwt>0</asrwt>
<pdfrwt beam="1">  1        2 0.42111976E-01 0.88652819E+02</pdfrwt>
<pdfrwt beam="2">  1       -2 0.44511882E-02 0.88652819E+02</pdfrwt>
<totfact> 0.25080082E+04</totfact>
</mgrwt>
</event>
<event>
 8    1  0.2954813E-003  0.1198319E+03  0.7546771E-02  0.1253520E+00
          1   -1    0    0  501    0  0.00000000000E+00  0.00000000000E+00  0.29798518983E+02  0.29798518983E+02  0.00000000000E+00 0. -1.
         -1   -1    0    0    0  501 -0.00000000000E+00 -0.00000000000E+00 -0.56884578789E+03  0.56884578789E+03  0.00000000000E+00 0.  1.
         23    2    1    2    0    0  0.30142602934E+02  0.21829320805E+02 -0.45234429520E+03  0.46794769109E+03  0.11390603336E+03 0.  0.
         23    2    1    2    0    0 -0.30142602934E+02 -0.21829320805E+02 -0.86702973698E+02  0.13069661578E+03  0.90438398754E+02 0.  0.
          5    1    3    3  502    0  0.32163761436E+02 -0.36765322341E+02 -0.10813940717E+03  0.11875360146E+03  0.47000000000E+01 0. -1.
         -5    1    4    4    0  503 -0.80255642766E+01 -0.29816975706E+02 -0.98955292021E+02  0.10376753607E+03  0.47000000000E+01 0.  1.
          5    1    4    4  503    0 -0.22117038657E+02  0.79876549005E+01  0.12252318324E+02  0.26929079711E+02  0.47000000000E+01 0. -1.
         -5    1    3    3    0  502 -0.20211585022E+01  0.58594643146E+02 -0.34420488804E+03  0.34919408963E+03  0.47000000000E+01 0.  1.
<mgrwt>
<rscale>  0 0.11389650E+03</rscale>
<asrwt>0</asrwt>
<pdfrwt beam="1">  1        1 0.45843880E-02 0.11983188E+03</pdfrwt>
<pdfrwt beam="2">  1       -1 0.87514727E-01 0.11983188E+03</pdfrwt>
<totfact> 0.24362617E+03</totfact>
</mgrwt>
</event>
<event>
 8    1  0.2954813E-003  0.1351241E+03  0.7546771E-02  0.1220560E+00
          1   -1    0    0  501    0  0.00000000000E+00  0.00000000000E+00  0.10094974322E+04  0.10094974322E+04  0.00000000000E+00 0. -1.
         -1   -1    0    0    0  501 -0.00000000000E+00 -0.00000000000E+00 -0.19366909990E+02  0.19366909990E+02  0.00000000000E+00 0.  1.
         23    2    1    2    0    0 -0.76931840826E+02 -0.65873145093E+02  0.35067279192E+03  0.37528594584E+03  0.87237347372E+02 0.  0.
         23    2    1    2    0    0  0.76931840826E+02  0.65873145093E+02  0.63945773031E+03  0.65357839637E+03  0.89446922633E+02 0.  0.
          5    1    4    4  502    0  0.16517197012E+02  0.70729212217E+02  0.29864292871E+03  0.30738433292E+03  0.47000000000E+01 0. -1.
         -5    1    4    4    0  502  0.60414643814E+02 -0.48560671238E+01  0.34081480161E+03  0.34619406345E+03  0.47000000000E+01 0.  1.
          5    1    3    3  503    0 -0.52901845451E+02 -0.59143206042E+02  0.33739174514E+03  0.34662920212E+03  0.47000000000E+01 0. -1.
         -5    1    3    3    0  503 -0.24029995375E+02 -0.67299390513E+01  0.13281046783E+02  0.28656743726E+02  0.47000000000E+01 0.  1.
<mgrwt>
<rscale>  0 0.13475956E+03</rscale>
<asrwt>0</asrwt>
<pdfrwt beam="1">  1        1 0.15530726E+00 0.13512413E+03</pdfrwt>
<pdfrwt beam="2">  1       -1 0.29795254E-02 0.13512413E+03</pdfrwt>
<totfact> 0.58353381E+03</totfact>
</mgrwt>
</event>
<event>
 8    1  0.2954813E-003  0.9725081E+02  0.7546771E-02  0.1286856E+00
         -1   -1    0    0    0  501 -0.00000000000E+00  0.00000000000E+00  0.93073155340E+01  0.93073155340E+01  0.00000000000E+00 0.  1.
          1   -1    0    0  501    0  0.00000000000E+00 -0.00000000000E+00 -0.10297828828E+04  0.10297828828E+04  0.00000000000E+00 0. -1.
         23    2    1    2    0    0 -0.10859166476E+02 -0.31694894019E+02 -0.42403493831E+03  0.43477311005E+03  0.89997447258E+02 0.  0.
         23    2    1    2    0    0  0.10859166476E+02  0.31694894019E+02 -0.59644062899E+03  0.60431708831E+03  0.91297489111E+02 0.  0.
          5    1    4    4  502    0  0.28401274730E+02  0.58297411195E+02 -0.39266344356E+03  0.39800991252E+03  0.47000000000E+01 0. -1.
         -5    1    3    3    0  503 -0.20587257348E+02  0.19555318573E+02 -0.28064090001E+03  0.28211283276E+03  0.47000000000E+01 0. -1.
          5    1    3    3  503    0  0.97280908723E+01 -0.51250212592E+02 -0.14339403830E+03  0.15266027729E+03  0.47000000000E+01 0.  1.
         -5    1    4    4    0  502 -0.17542108254E+02 -0.26602517175E+02 -0.20377718543E+03  0.20630717579E+03  0.47000000000E+01 0.  1.
<mgrwt>
<rscale>  0 0.96944509E+02</rscale>
<asrwt>0</asrwt>
<pdfrwt beam="1">  1        1 0.15842806E+00 0.97250806E+02</pdfrwt>
<pdfrwt beam="2">  1       -1 0.14318954E-02 0.97250806E+02</pdfrwt>
<totfact> 0.15855778E+04</totfact>
</mgrwt>
</event>
<event>
 8    1  0.2954813E-003  0.1292762E+03  0.7546771E-02  0.1235350E+00
         -4   -1    0    0    0  501 -0.00000000000E+00  0.00000000000E+00  0.66322454090E+03  0.66322454090E+03  0.00000000000E+00 0.  1.
          4   -1    0    0  501    0  0.00000000000E+00 -0.00000000000E+00 -0.24653548467E+02  0.24653548467E+02  0.00000000000E+00 0. -1.
         23    2    1    2    0    0 -0.24265539904E+02 -0.62063624145E+02  0.22682907790E+03  0.26108192665E+03  0.11077739830E+03 0.  0.
         23    2    1    2    0    0  0.24265539904E+02  0.62063624145E+02  0.41174191453E+03  0.42679616272E+03  0.90459109305E+02 0.  0.
          5    1    4    4  502    0  0.53985010418E+02  0.57137681209E+02  0.33692461553E+03  0.34600488799E+03  0.47000000000E+01 0. -1.
         -5    1    4    4    0  502 -0.29719470514E+02  0.49259429359E+01  0.74817299007E+02  0.80791274728E+02  0.47000000000E+01 0.  1.
          5    1    3    3  503    0  0.69178269739E+01  0.20890576772E+02  0.63030182228E+01  0.23368580757E+02  0.47000000000E+01 0. -1.
         -5    1    3    3    0  503 -0.31183366878E+02 -0.82954200916E+02  0.22052605968E+03  0.23771334590E+03  0.47000000000E+01 0.  1.
<mgrwt>
<rscale>  0 0.12482073E+03</rscale>
<asrwt>0</asrwt>
<pdfrwt beam="1">  1        4 0.37928541E-02 0.12927622E+03</pdfrwt>
<pdfrwt beam="2">  1       -4 0.10203453E+00 0.12927622E+03</pdfrwt>
<totfact> 0.50006941E+02</totfact>
</mgrwt>
</event>
<event>
 8    1  0.2954813E-003  0.9357051E+02  0.7546771E-02  0.1294815E+00
          1   -1    0    0  501    0  0.00000000000E+00  0.00000000000E+00  0.99095328854E+02  0.99095328854E+02  0.00000000000E+00 0. -1.
         -1   -1    0    0    0  501 -0.00000000000E+00 -0.00000000000E+00 -0.87731274622E+02  0.87731274622E+02  0.00000000000E+00 0.  1.
         23    2    1    2    0    0 -0.25834683429E+01  0.18504716924E+02  0.46824743073E+01  0.93017845994E+02  0.91001622242E+02 0.  0.
         23    2    1    2    0    0  0.25834683429E+01 -0.18504716924E+02  0.66815799244E+01  0.93808757481E+02  0.91686098253E+02 0.  0.
          5    1    3    3  502    0  0.34064704326E+02  0.33120990794E+02 -0.13066201739E+02  0.49499694342E+02  0.47000000000E+01 0. -1.
         -5    1    3    3    0  502 -0.36648172669E+02 -0.14616273871E+02  0.17748676046E+02  0.43518151653E+02  0.47000000000E+01 0.  1.
          5    1    4    4  503    0  0.40236713913E+02  0.13631262096E+02  0.10255985152E+02  0.43955428383E+02  0.47000000000E+01 0. -1.
         -5    1    4    4    0  503 -0.37653245570E+02 -0.32135979019E+02 -0.35744052276E+01  0.49853329099E+02  0.47000000000E+01 0.  1.
<mgrwt>
<rscale>  0 0.93402405E+02</rscale>
<asrwt>0</asrwt>
<pdfrwt beam="1">  1        1 0.15245435E-01 0.93570505E+02</pdfrwt>
<pdfrwt beam="2">  1       -1 0.13497119E-01 0.93570505E+02</pdfrwt>
<totfact> 0.12518522E+04</totfact>
</mgrwt>
</event>
<event>
 8    1  0.2954813E-003  0.1318775E+03  0.7546771E-02  0.1225137E+00
          4   -1    0    0  501    0  0.00000000000E+00  0.00000000000E+00  0.31001451071E+02  0.31001451071E+02  0.00000000000E+00 0. -1.
         -4   -1    0    0    0  501 -0.00000000000E+00 -0.00000000000E+00 -0.57998251967E+03  0.57998251967E+03  0.00000000000E+00 0.  1.
         23    2    1    2    0    0  0.83563902399E+02 -0.39787568259E+02 -0.21342859267E+03  0.25088532907E+03  0.93945238315E+02 0.  0.
         23    2    1    2    0    0 -0.83563902399E+02  0.39787568259E+02 -0.33555247593E+03  0.36009864167E+03  0.92247445811E+02 0.  0.
          5    1    3    3  502    0 -0.95128528562E+01 -0.36368590256E+02 -0.74156961788E+02  0.83273727599E+02  0.47000000000E+01 0. -1.
         -5    1    3    3    0  502  0.93076755255E+02 -0.34189780032E+01 -0.13927163088E+03  0.16761160147E+03  0.47000000000E+01 0.  1.
          5    1    4    4  503    0 -0.40093663717E+02 -0.24026521454E+02 -0.76780202421E+02  0.90011471976E+02  0.47000000000E+01 0. -1.
         -5    1    4    4    0  503 -0.43470238682E+02  0.63814089714E+02 -0.25877227351E+03  0.27008716970E+03  0.47000000000E+01 0.  1.
<mgrwt>
<rscale>  0 0.13157549E+03</rscale>
<asrwt>0</asrwt>
<pdfrwt beam="1">  1        4 0.47694542E-02 0.13187753E+03</pdfrwt>
<pdfrwt beam="2">  1       -4 0.89228077E-01 0.13187753E+03</pdfrwt>
<totfact> 0.47367544E+02</totfact>
</mgrwt>
</event>
<event>
 7    1  0.2954813E-003  0.1081003E+03  0.7546771E-02  0.1286857E+00
          2   -1    0    0  501    0  0.00000000000E+00  0.00000000000E+00  0.75009993074E+03  0.75009993074E+03  0.00000000000E+00 0. -1.
         -2   -1    0    0    0  501 -0.00000000000E+00 -0.00000000000E+00 -0.12991117913E+02  0.12991117913E+02  0.00000000000E+00 0.  1.
         23    2    1    2    0    0  0.22030336761E+02  0.54820559083E+02  0.27095959449E+03  0.29172722951E+03  0.90526488692E+02 0.  0.
          5    1    3    3  502    0  0.37961226023E+02  0.21075478372E+02  0.23719976967E+03  0.24118675586E+03  0.47000000000E+01 0. -1.
         -5    1    3    3    0  502 -0.15930889262E+02  0.33745080711E+02  0.33759824816E+02  0.50540473647E+02  0.47000000000E+01 0.  1.
          5    1    1    2  503    0  0.74676382043E+01 -0.27191162734E+02  0.16168230154E+03  0.16419007760E+03  0.47000000000E+01 0. -1.
         -5    1    1    2    0  503 -0.29497974965E+02 -0.27629396349E+02  0.30446691679E+03  0.30717374154E+03  0.47000000000E+01 0.  1.
<mgrwt>
<rscale>  0 0.96943784E+02</rscale>
<asrwt>0</asrwt>
<pdfrwt beam="1">  1        2 0.11539996E+00 0.10810030E+03</pdfrwt>
<pdfrwt beam="2">  1       -2 0.19986341E-02 0.10810030E+03</pdfrwt>
<totfact> 0.27497945E+04</totfact>
</mgrwt>
</event>
<event>
 8    1  0.2954813E-003  0.9564395E+02  0.7546771E-02  0.1290216E+00
         -1   -1    0    0    0  501 -0.00000000000E+00  0.00000000000E+00  0.45653299675E+02  0.45653299675E+02  0.00000000000E+00 0.  1.
          1   -1    0    0  501    0  0.00000000000E+00 -0.00000000000E+00 -0.26749352754E+03  0.26749352754E+03  0.00000000000E+00 0. -1.
         23    2    1    2    0    0  0.21069132398E+02  0.31976694504E+01 -0.31817453722E+02  0.10079739524E+03  0.93239643367E+02 0.  0.
         23    2    1    2    0    0 -0.21069132398E+02 -0.31976694504E+01 -0.19002277414E+03  0.21234943198E+03  0.92355255069E+02 0.  0.
          5    1    4    4  502    0  0.21961270125E+02  0.22651896892E+01 -0.15435218368E+03  0.15599395846E+03  0.47000000000E+01 0. -1.
         -5    1    3    3    0  503 -0.31834766425E+02  0.13303294490E+02 -0.31161099165E+02  0.46728300834E+02  0.47000000000E+01 0.  1.
          5    1    3    3  503    0  0.52903898824E+02 -0.10105625040E+02 -0.65635455745E+00  0.54069094403E+02  0.47000000000E+01 0. -1.
         -5    1    4    4    0  502 -0.43030402523E+02 -0.54628591396E+01 -0.35670590461E+02  0.56355473515E+02  0.47000000000E+01 0.  1.
<mgrwt>
<rscale>  0 0.95427727E+02</rscale>
<asrwt>0</asrwt>
<pdfrwt beam="1">  1        1 0.41152851E-01 0.95643947E+02</pdfrwt>
<pdfrwt beam="2">  1       -1 0.70235845E-02 0.95643947E+02</pdfrwt>
<totfact> 0.97831325E+03</totfact>
</mgrwt>
</event>
<event>
 8    1  0.2954813E-003  0.9333385E+02  0.7546771E-02  0.1295896E+00
         -3   -1    0    0    0  501 -0.00000000000E+00  0.00000000000E+00  0.11374405469E+03  0.11374405469E+03  0.00000000000E+00 0.  1.
          3   -1    0    0  501    0  0.00000000000E+00 -0.00000000000E+00 -0.12530238987E+03  0.12530238987E+03  0.00000000000E+00 0. -1.
         23    2    1    2    0    0 -0.12912363959E+01 -0.19223046395E+02  0.69759110410E+02  0.11525737037E+03  0.89703595997E+02 0.  0.
         23    2    1    2    0    0  0.12912363959E+01  0.19223046395E+02 -0.81317445589E+02  0.12378907419E+03  0.91323683272E+02 0.  0.
          5    1    3    3  502    0 -0.19081744626E+01 -0.41155772222E+02 -0.53291444581E+00  0.41470624721E+02  0.47000000000E+01 0. -1.
         -5    1    3    3    0  502  0.61693806672E+00  0.21932725827E+02  0.70292024856E+02  0.73786745646E+02  0.47000000000E+01 0.  1.
          5    1    4    4  503    0  0.39465278734E+02 -0.88022468190E+01 -0.17818555702E+02  0.44436231860E+02  0.47000000000E+01 0. -1.
         -5    1    4    4    0  503 -0.38174042338E+02  0.28025293214E+02 -0.63498889887E+02  0.79352842325E+02  0.47000000000E+01 0.  1.
<mgrwt>
<rscale>  0 0.92935158E+02</rscale>
<asrwt>0</asrwt>
<pdfrwt beam="1">  1        3 0.19277291E-01 0.93333852E+02</pdfrwt>
<pdfrwt beam="2">  1       -3 0.17499085E-01 0.93333852E+02</pdfrwt>
<totfact> 0.14611816E+03</totfact>
</mgrwt>
</event>
<event>
 8    1  0.2954813E-003  0.9229645E+02  0.7546771E-02  0.1299682E+00
         -1   -1    0    0    0  501 -0.00000000000E+00  0.00000000000E+00  0.22166489776E+02  0.22166489776E+02  0.00000000000E+00 0.  1.
          1   -1    0    0  501    0  0.00000000000E+00 -0.00000000000E+00 -0.41313469874E+03  0.41313469874E+03  0.00000000000E+00 0. -1.
         23    2    1    2    0    0 -0.78111030699E+01  0.35287207048E+01 -0.12024866979E+03  0.14928072714E+03  0.88042760689E+02 0.  0.
         23    2    1    2    0    0  0.78111030699E+01 -0.35287207048E+01 -0.27071953917E+03  0.28602046137E+03  0.91897607322E+02 0.  0.
          5    1    4    4  502    0  0.37097038605E+01 -0.45537437924E+02 -0.99128112220E+02  0.10925151160E+03  0.47000000000E+01 0. -1.
         -5    1    4    4    0  502  0.41013992093E+01  0.42008717219E+02 -0.17159142695E+03  0.17676894976E+03  0.47000000000E+01 0.  1.
          5    1    3    3  503    0 -0.24167760969E+02 -0.12453630100E+02 -0.12273873141E+03  0.12580166835E+03  0.47000000000E+01 0. -1.
         -5    1    3    3    0  503  0.16356657899E+02  0.15982350805E+02  0.24900616176E+01  0.23479058792E+02  0.47000000000E+01 0.  1.
<mgrwt>
<rscale>  0 0.91321757E+02</rscale>
<asrwt>0</asrwt>
<pdfrwt beam="1">  1        1 0.63559183E-01 0.92296454E+02</pdfrwt>
<pdfrwt beam="2">  1       -1 0.34102293E-02 0.92296454E+02</pdfrwt>
<totfact> 0.16457397E+04</totfact>
</mgrwt>
</event>
<event>
 8    1  0.2954813E-003  0.1079041E+03  0.7546771E-02  0.1265963E+00
          2   -1    0    0  501    0  0.00000000000E+00  0.00000000000E+00  0.69010582429E+02  0.69010582429E+02  0.00000000000E+00 0. -1.
         -2   -1    0    0    0  501 -0.00000000000E+00 -0.00000000000E+00 -0.26609143403E+03  0.26609143403E+03  0.00000000000E+00 0.  1.
         23    2    1    2    0    0  0.59010335355E+02  0.45991190191E+01 -0.20144579824E+03  0.22710969321E+03  0.86573850232E+02 0.  0.
         23    2    1    2    0    0 -0.59010335355E+02 -0.45991190191E+01  0.43649466430E+01  0.10799232325E+03  0.90221491607E+02 0.  0.
          5    1    4    4  502    0 -0.38109919586E+02 -0.44647385883E+02  0.16164665554E+02  0.61066696730E+02  0.47000000000E+01 0. -1.
         -5    1    4    4    0  502 -0.20900415769E+02  0.40048266864E+02 -0.11799718911E+02  0.46925626522E+02  0.47000000000E+01 0.  1.
          5    1    3    3  503    0 -0.18783488321E+02  0.16476111311E+02 -0.60284219824E+02  0.65425979834E+02  0.47000000000E+01 0. -1.
         -5    1    3    3    0  503  0.77793823676E+02 -0.11876992292E+02 -0.14116157842E+03  0.16168371337E+03  0.47000000000E+01 0.  1.
<mgrwt>
<rscale>  0 0.10713826E+03</rscale>
<asrwt>0</asrwt>
<pdfrwt beam="1">  1        2 0.10617013E-01 0.10790407E+03</pdfrwt>
<pdfrwt beam="2">  1       -2 0.40937144E-01 0.10790407E+03</pdfrwt>
<totfact> 0.32009570E+03</totfact>
</mgrwt>
</event>
<event>
 8    1  0.2954813E-003  0.9963591E+02  0.7546771E-02  0.1284037E+00
          1   -1    0    0  501    0  0.00000000000E+00  0.00000000000E+00  0.60225205946E+02  0.60225205946E+02  0.00000000000E+00 0. -1.
         -1   -1    0    0    0  501 -0.00000000000E+00 -0.00000000000E+00 -0.18784761054E+03  0.18784761054E+03  0.00000000000E+00 0.  1.
         23    2    1    2    0    0  0.19158737367E+02 -0.78826895591E+01 -0.14189280704E+02  0.10064119336E+03  0.97458299300E+02 0.  0.
         23    2    1    2    0    0 -0.19158737367E+02  0.78826895591E+01 -0.11343312389E+03  0.14743162313E+03  0.91868470594E+02 0.  0.
          5    1    4    4  502    0  0.16249260690E+02  0.22924356970E+02 -0.10010746001E+01  0.28507135349E+02  0.47000000000E+01 0. -1.
         -5    1    4    4    0  502 -0.35407998057E+02 -0.15041667410E+02 -0.11243204929E+03  0.11892448778E+03  0.47000000000E+01 0.  1.
          5    1    3    3  503    0  0.28077035828E+02 -0.37293250126E+02 -0.38884883230E+02  0.60936283031E+02  0.47000000000E+01 0. -1.
         -5    1    3    3    0  503 -0.89182984606E+01  0.29410560567E+02  0.24695602526E+02  0.39704910331E+02  0.47000000000E+01 0.  1.
<mgrwt>
<rscale>  0 0.98241798E+02</rscale>
<asrwt>0</asrwt>
<pdfrwt beam="1">  1        1 0.92654165E-02 0.99635908E+02</pdfrwt>
<pdfrwt beam="2">  1       -1 0.28899632E-01 0.99635908E+02</pdfrwt>
<totfact> 0.71530990E+03</totfact>
</mgrwt>
</event>
<event>
 8    1  0.2954813E-003  0.1008004E+03  0.7546771E-02  0.1279055E+00
         -2   -1    0    0    0  501 -0.00000000000E+00  0.00000000000E+00  0.39802213810E+02  0.39802213810E+02  0.00000000000E+00 0.  1.
          2   -1    0    0  501    0  0.00000000000E+00 -0.00000000000E+00 -0.28604989528E+03  0.28604989528E+03  0.00000000000E+00 0. -1.
         23    2    1    2    0    0  0.29841615985E+02  0.20731001880E+02 -0.17879806222E+03  0.20525462094E+03  0.94023485785E+02 0.  0.
         23    2    1    2    0    0 -0.29841615985E+02 -0.20731001880E+02 -0.67449619247E+02  0.12059748815E+03  0.93134346659E+02 0.  0.
          5    1    3    3  502    0 -0.10899588800E+02  0.46399653532E+02 -0.11938743521E+03  0.12863583703E+03  0.47000000000E+01 0. -1.
         -5    1    3    3    0  502  0.40741204785E+02 -0.25668651652E+02 -0.59410627012E+02  0.76618783904E+02  0.47000000000E+01 0.  1.
          5    1    4    4  503    0 -0.58566628528E+02 -0.25574922474E+02 -0.64537715418E+02  0.90946871018E+02  0.47000000000E+01 0. -1.
         -5    1    4    4    0  503  0.28725012543E+02  0.48439205939E+01 -0.29119038290E+01  0.29650617130E+02  0.47000000000E+01 0.  1.
<mgrwt>
<rscale>  0 0.10059250E+03</rscale>
<asrwt>0</asrwt>
<pdfrwt beam="1">  1        2 0.44007676E-01 0.10080036E+03</pdfrwt>
<pdfrwt beam="2">  1       -2 0.61234175E-02 0.10080036E+03</pdfrwt>
<totfact> 0.15085805E+04</totfact>
</mgrwt>
</event>
<event>
 7    1  0.2954813E-003  0.2032150E+03  0.7546771E-02  0.1166671E+00
         -1   -1    0    0    0  501 -0.00000000000E+00  0.00000000000E+00  0.75689326856E+03  0.75689326856E+03  0.00000000000E+00 0.  1.
          1   -1    0    0  501    0  0.00000000000E+00 -0.00000000000E+00 -0.64352145251E+02  0.64352145251E+02  0.00000000000E+00 0. -1.
         23    2    1    2    0    0  0.18631182099E+02 -0.86154413194E+02  0.35078252206E+02  0.13309297929E+03  0.93346416636E+02 0.  0.
          5    1    3    3  502    0  0.46899926813E+02 -0.51433616770E+02 -0.86907163611E+01  0.70303901883E+02  0.47000000000E+01 0. -1.
         -5    1    3    3    0  502 -0.28268744714E+02 -0.34720796424E+02  0.43768968567E+02  0.62789077406E+02  0.47000000000E+01 0.  1.
          5    1    1    2  503    0 -0.88286881122E+01 -0.46835414014E+02  0.64349725262E+02  0.80215203552E+02  0.47000000000E+01 0. -1.
         -5    1    1    2    0  503 -0.98024939868E+01  0.13298982721E+03  0.59311314585E+03  0.60793723097E+03  0.47000000000E+01 0.  1.
<mgrwt>
<rscale>  0 0.18117457E+03</rscale>
<asrwt>0</asrwt>
<pdfrwt beam="1">  1        1 0.99003306E-02 0.20321502E+03</pdfrwt>
<pdfrwt beam="2">  1       -1 0.11644511E+00 0.20321502E+03</pdfrwt>
<totfact> 0.46234641E+02</totfact>
</mgrwt>
</event>
<event>
 8    1  0.2954813E-003  0.1249402E+03  0.7546771E-02  0.1238035E+00
          1   -1    0    0  501    0  0.00000000000E+00  0.00000000000E+00  0.64549838554E+03  0.64549838554E+03  0.00000000000E+00 0. -1.
         -1   -1    0    0    0  501 -0.00000000000E+00 -0.00000000000E+00 -0.27359683119E+02  0.27359683119E+02  0.00000000000E+00 0.  1.
         23    2    1    2    0    0 -0.40407976715E+02 -0.63203907121E+02  0.17971002369E+03  0.21887383207E+03  0.99912578261E+02 0.  0.
         23    2    1    2    0    0  0.40407976715E+02  0.63203907121E+02  0.43842867873E+03  0.45398423658E+03  0.90853961256E+02 0.  0.
          5    1    4    4  502    0 -0.15099659660E+02  0.56979313510E+02  0.17708946050E+03  0.18670138969E+03  0.47000000000E+01 0. -1.
         -5    1    4    4    0  502  0.55507636374E+02  0.62245936111E+01  0.26133921823E+03  0.26728284690E+03  0.47000000000E+01 0.  1.
          5    1    3    3  503    0 -0.22502506304E+02  0.22584774440E+02  0.78818660063E+02  0.85152251882E+02  0.47000000000E+01 0. -1.
         -5    1    3    3    0  503 -0.17905470411E+02 -0.85788681561E+02  0.10089136363E+03  0.13372158019E+03  0.47000000000E+01 0.  1.
<mgrwt>
<rscale>  0 0.12312129E+03</rscale>
<asrwt>0</asrwt>
<pdfrwt beam="1">  1        1 0.99307432E-01 0.12494023E+03</pdfrwt>
<pdfrwt beam="2">  1       -1 0.42091825E-02 0.12494023E+03</pdfrwt>
<totfact> 0.69221859E+03</totfact>
</mgrwt>
</event>
<event>
 8    1  0.2954813E-003  0.9230747E+02  0.7546771E-02  0.1297589E+00
         -1   -1    0    0    0  501 -0.00000000000E+00  0.00000000000E+00  0.31255439924E+03  0.31255439924E+03  0.00000000000E+00 0.  1.
          1   -1    0    0  501    0  0.00000000000E+00 -0.00000000000E+00 -0.32398274306E+02  0.32398274306E+02  0.00000000000E+00 0. -1.
         23    2    1    2    0    0 -0.47160172488E+01 -0.11868275469E+02  0.70378405125E+02  0.11576419094E+03  0.91022696157E+02 0.  0.
         23    2    1    2    0    0  0.47160172488E+01  0.11868275469E+02  0.20977771980E+03  0.22918848260E+03  0.91419757427E+02 0.  0.
          5    1    3    3  502    0 -0.27851609498E+02 -0.35401930817E+02  0.93777874099E+01  0.46249775717E+02  0.47000000000E+01 0. -1.
         -5    1    4    4    0  503 -0.34020760751E+02 -0.19037181747E+02  0.63365819487E+02  0.74546250946E+02  0.47000000000E+01 0.  1.
          5    1    4    4  503    0  0.38736778000E+02  0.30905457216E+02  0.14641190032E+03  0.15464223165E+03  0.47000000000E+01 0. -1.
         -5    1    3    3    0  502  0.23135592249E+02  0.23533655347E+02  0.61000617715E+02  0.69514415227E+02  0.47000000000E+01 0.  1.
<mgrwt>
<rscale>  0 0.92209005E+02</rscale>
<asrwt>0</asrwt>
<pdfrwt beam="1">  1        1 0.49843501E-02 0.92307469E+02</pdfrwt>
<pdfrwt beam="2">  1       -1 0.48085290E-01 0.92307469E+02</pdfrwt>
<totfact> 0.67789274E+03</totfact>
</mgrwt>
</event>
<event>
 8    1  0.2954813E-003  0.1314315E+03  0.7546771E-02  0.1225363E+00
         -2   -1    0    0    0  501 -0.00000000000E+00  0.00000000000E+00  0.41378493311E+02  0.41378493311E+02  0.00000000000E+00 0.  1.
          2   -1    0    0  501    0  0.00000000000E+00 -0.00000000000E+00 -0.10552635963E+04  0.10552635963E+04  0.00000000000E+00 0. -1.
         23    2    1    2    0    0 -0.41722462135E+02  0.84866221200E+02 -0.93330202704E+03  0.94251095575E+03  0.91275345457E+02 0.  0.
         23    2    1    2    0    0  0.41722462135E+02 -0.84866221200E+02 -0.80583075957E+02  0.15413113387E+03  0.91212581090E+02 0.  0.
          5    1    4    4  502    0  0.36664515380E+02 -0.34603151925E+02 -0.89296826393E+02  0.10265319291E+03  0.47000000000E+01 0. -1.
         -5    1    3    3    0  503 -0.40445118887E+02  0.63334215203E+01 -0.16018542150E+03  0.16540066243E+03  0.47000000000E+01 0.  1.
          5    1    3    3  503    0 -0.12773432481E+01  0.78532799679E+02 -0.77311660554E+03  0.77711029333E+03  0.47000000000E+01 0. -1.
         -5    1    4    4    0  502  0.50579467543E+01 -0.50263069275E+02  0.87137504359E+01  0.51477940955E+02  0.47000000000E+01 0.  1.
<mgrwt>
<rscale>  0 0.13142056E+03</rscale>
<asrwt>0</asrwt>
<pdfrwt beam="1">  1        2 0.16234822E+00 0.13143146E+03</pdfrwt>
<pdfrwt beam="2">  1       -2 0.63659229E-02 0.13143146E+03</pdfrwt>
<totfact> 0.32293224E+03</totfact>
</mgrwt>
</event>
<event>
 8    1  0.2954813E-003  0.9298991E+02  0.7546771E-02  0.1296507E+00
          1   -1    0    0  501    0  0.00000000000E+00  0.00000000000E+00  0.92686257723E+02  0.92686257723E+02  0.00000000000E+00 0. -1.
         -1   -1    0    0    0  501 -0.00000000000E+00 -0.00000000000E+00 -0.20104291868E+03  0.20104291868E+03  0.00000000000E+00 0.  1.
         23    2    1    2    0    0  0.16921982184E+02 -0.18693562807E+02 -0.16249363840E+03  0.18721993892E+03  0.89505978776E+02 0.  0.
         23    2    1    2    0    0 -0.16921982184E+02  0.18693562807E+02  0.54136977442E+02  0.10650923749E+03  0.88190717039E+02 0.  0.
          5    1    3    3  502    0  0.24384096842E+02  0.52704492574E+00 -0.15434453852E+01  0.24886425593E+02  0.47000000000E+01 0. -1.
         -5    1    3    3    0  502 -0.74621146582E+01 -0.19220607733E+02 -0.16095019302E+03  0.16233351333E+03  0.47000000000E+01 0.  1.
          5    1    4    4  503    0  0.14683798239E+02  0.32355381557E+02  0.61317243362E+02  0.71023791647E+02  0.47000000000E+01 0. -1.
         -5    1    4    4    0  503 -0.31605780423E+02 -0.13661818750E+02 -0.71802659207E+01  0.35485445839E+02  0.47000000000E+01 0.  1.
<mgrwt>
<rscale>  0 0.92671958E+02</rscale>
<asrwt>0</asrwt>
<pdfrwt beam="1">  1        1 0.14259424E-01 0.92989908E+02</pdfrwt>
<pdfrwt beam="2">  1       -1 0.30929680E-01 0.92989908E+02</pdfrwt>
<totfact> 0.36266154E+03</totfact>
</mgrwt>
</event>
<event>
 8    1  0.2954813E-003  0.1079837E+03  0.7546771E-02  0.1265518E+00
          2   -1    0    0  501    0  0.00000000000E+00  0.00000000000E+00  0.56560338580E+03  0.56560338580E+03  0.00000000000E+00 0. -1.
         -2   -1    0    0    0  501 -0.00000000000E+00 -0.00000000000E+00 -0.20325300549E+02  0.20325300549E+02  0.00000000000E+00 0.  1.
         23    2    1    2    0    0 -0.55959806147E+02 -0.93853292362E+01  0.24270298734E+03  0.26466218379E+03  0.89004197414E+02 0.  0.
         23    2    1    2    0    0  0.55959806147E+02  0.93853292362E+01  0.30257509791E+03  0.32126650256E+03  0.91874324377E+02 0.  0.
          5    1    4    4  502    0  0.21011384104E+02  0.46263929624E+02  0.20379391561E+03  0.21008540998E+03  0.47000000000E+01 0. -1.
         -5    1    3    3    0  503 -0.21739448733E+02  0.31175128907E+02  0.17156115450E+03  0.17578342364E+03  0.47000000000E+01 0.  1.
          5    1    3    3  503    0 -0.34220357415E+02 -0.40560458143E+02  0.71141832841E+02  0.88878760153E+02  0.47000000000E+01 0. -1.
         -5    1    4    4    0  502  0.34948422043E+02 -0.36878600388E+02  0.98781182299E+02  0.11118109257E+03  0.47000000000E+01 0.  1.
<mgrwt>
<rscale>  0 0.10737069E+03</rscale>
<asrwt>0</asrwt>
<pdfrwt beam="1">  1        2 0.87015893E-01 0.10798368E+03</pdfrwt>
<pdfrwt beam="2">  1       -2 0.31269698E-02 0.10798368E+03</pdfrwt>
<totfact> 0.19874408E+04</totfact>
</mgrwt>
</event>
<event>
 8    1  0.2954813E-003  0.9250761E+02  0.7546771E-02  0.1300091E+00
          2   -1    0    0  501    0  0.00000000000E+00  0.00000000000E+00  0.14250474465E+02  0.14250474465E+02  0.00000000000E+00 0. -1.
         -2   -1    0    0    0  501 -0.00000000000E+00 -0.00000000000E+00 -0.60742326592E+03  0.60742326592E+03  0.00000000000E+00 0.  1.
         23    2    1    2    0    0 -0.43343675015E+00  0.70448193694E+01 -0.36903058397E+03  0.37919201564E+03  0.86909121959E+02 0.  0.
         23    2    1    2    0    0  0.43343675015E+00 -0.70448193694E+01 -0.22414220749E+03  0.24248172474E+03  0.92237954806E+02 0.  0.
          5    1    4    4  502    0  0.29108426931E+02 -0.33063656107E+02 -0.65220295221E+02  0.78843406714E+02  0.47000000000E+01 0. -1.
         -5    1    4    4    0  502 -0.28674990181E+02  0.26018836737E+02 -0.15892191227E+03  0.16363831802E+03  0.47000000000E+01 0.  1.
          5    1    3    3  503    0  0.32413007281E+02  0.31547753947E+02 -0.21310578523E+03  0.21790371616E+03  0.47000000000E+01 0. -1.
         -5    1    3    3    0  503 -0.32846444031E+02 -0.24502934578E+02 -0.15592479874E+03  0.16128829948E+03  0.47000000000E+01 0.  1.
<mgrwt>
<rscale>  0 0.91149923E+02</rscale>
<asrwt>0</asrwt>
<pdfrwt beam="1">  1        2 0.21923813E-02 0.92507609E+02</pdfrwt>
<pdfrwt beam="2">  1       -2 0.93449709E-01 0.92507609E+02</pdfrwt>
<totfact> 0.44158167E+03</totfact>
</mgrwt>
</event>
<event>
 8    1  0.2954813E-003  0.9889274E+02  0.7546771E-02  0.1283321E+00
          3   -1    0    0  501    0  0.00000000000E+00  0.00000000000E+00  0.60220822986E+02  0.60220822986E+02  0.00000000000E+00 0. -1.
         -3   -1    0    0    0  501 -0.00000000000E+00 -0.00000000000E+00 -0.22164122118E+03  0.22164122118E+03  0.00000000000E+00 0.  1.
         23    2    1    2    0    0 -0.33453707972E+02 -0.16102898371E+02 -0.15520818187E+03  0.18403628617E+03  0.91658720248E+02 0.  0.
         23    2    1    2    0    0  0.33453707972E+02  0.16102898371E+02 -0.62122163317E+01  0.97825757996E+02  0.90293041718E+02 0.  0.
          5    1    4    4  502    0  0.24124069011E+02 -0.19209956471E+02  0.32047450668E+02  0.44722726075E+02  0.47000000000E+01 0. -1.
         -5    1    3    3    0  503 -0.62464930216E+02 -0.10385349370E+02 -0.13083668319E+03  0.14543056988E+03  0.47000000000E+01 0.  1.
          5    1    3    3  503    0  0.29011222244E+02 -0.57175490010E+01 -0.24371498682E+02  0.38605716295E+02  0.47000000000E+01 0. -1.
         -5    1    4    4    0  502  0.93296389608E+01  0.35312854842E+02 -0.38259667000E+02  0.53103031921E+02  0.47000000000E+01 0.  1.
<mgrwt>
<rscale>  0 0.98575109E+02</rscale>
<asrwt>0</asrwt>
<pdfrwt beam="1">  1        3 0.92647419E-02 0.98892744E+02</pdfrwt>
<pdfrwt beam="2">  1       -3 0.34098650E-01 0.98892744E+02</pdfrwt>
<totfact> 0.15336314E+03</totfact>
</mgrwt>
</event>
<event>
 8    1  0.2954813E-003  0.1002422E+03  0.7546771E-02  0.1282465E+00
          2   -1    0    0  501    0  0.00000000000E+00  0.00000000000E+00  0.78868850540E+03  0.78868850540E+03  0.00000000000E+00 0. -1.
         -2   -1    0    0    0  501 -0.00000000000E+00 -0.00000000000E+00 -0.16277185552E+02  0.16277185552E+02  0.00000000000E+00 0.  1.
         23    2    1    2    0    0 -0.24468922488E+02  0.17036359312E+02  0.19008272259E+03  0.21489516925E+03  0.95705415902E+02 0.  0.
         23    2    1    2    0    0  0.24468922488E+02 -0.17036359312E+02  0.58232859726E+03  0.59007052170E+03  0.90485687778E+02 0.  0.
          5    1    4    4  502    0  0.15902935302E+02 -0.49749184609E+02  0.46280521383E+03  0.46576672344E+03  0.47000000000E+01 0. -1.
         -5    1    3    3    0  503  0.14286475333E+02  0.22886666320E+02  0.79256149410E+01  0.28509792088E+02  0.47000000000E+01 0.  1.
          5    1    3    3  503    0 -0.38755397821E+02 -0.58503070086E+01  0.18215710765E+03  0.18638537716E+03  0.47000000000E+01 0. -1.
         -5    1    4    4    0  502  0.85659871863E+01  0.32712825298E+02  0.11952338343E+03  0.12430379826E+03  0.47000000000E+01 0.  1.
<mgrwt>
<rscale>  0 0.98975657E+02</rscale>
<asrwt>0</asrwt>
<pdfrwt beam="1">  1        2 0.12133666E+00 0.10024217E+03</pdfrwt>
<pdfrwt beam="2">  1       -2 0.25041830E-02 0.10024217E+03</pdfrwt>
<totfact> 0.18548169E+04</totfact>
</mgrwt>
</event>
<event>
 8    1  0.2954813E-003  0.1017292E+03  0.7546771E-02  0.1277165E+00
         -2   -1    0    0    0  501 -0.00000000000E+00  0.00000000000E+00  0.12387731984E+02  0.12387731984E+02  0.00000000000E+00 0.  1.
          2   -1    0    0  501    0  0.00000000000E+00 -0.00000000000E+00 -0.87487858351E+03  0.87487858351E+03  0.00000000000E+00 0. -1.
         23    2    1    2    0    0  0.30756327483E+02 -0.20991545669E+02 -0.32679138879E+03  0.34199321483E+03  0.93702457434E+02 0.  0.
         23    2    1    2    0    0 -0.30756327483E+02  0.20991545669E+02 -0.53569946273E+03  0.54527310067E+03  0.94669125216E+02 0.  0.
          5    1    3    3  502    0 -0.18503549339E+02  0.15584850996E+02 -0.19491851465E+03  0.19647031906E+03  0.47000000000E+01 0. -1.
         -5    1    3    3    0  502  0.49259876822E+02 -0.36576396665E+02 -0.13187287414E+03  0.14552289577E+03  0.47000000000E+01 0.  1.
          5    1    4    4  503    0 -0.64304421579E+02  0.71510888952E+01 -0.32325751995E+03  0.32970245815E+03  0.47000000000E+01 0. -1.
         -5    1    4    4    0  503  0.33548094096E+02  0.13840456774E+02 -0.21244194279E+03  0.21557064252E+03  0.47000000000E+01 0.  1.
<mgrwt>
<rscale>  0 0.10150376E+03</rscale>
<asrwt>0</asrwt>
<pdfrwt beam="1">  1        2 0.13459673E+00 0.10172925E+03</pdfrwt>
<pdfrwt beam="2">  1       -2 0.19058046E-02 0.10172925E+03</pdfrwt>
<totfact> 0.24209164E+04</totfact>
</mgrwt>
</event>
<event>
 8    1  0.2954813E-003  0.9984718E+02  0.7546771E-02  0.1280797E+00
         -2   -1    0    0    0  501 -0.00000000000E+00  0.00000000000E+00  0.11467946618E+03  0.11467946618E+03  0.00000000000E+00 0.  1.
          2   -1    0    0  501    0  0.00000000000E+00 -0.00000000000E+00 -0.11909332158E+03  0.11909332158E+03  0.00000000000E+00 0. -1.
         23    2    1    2    0    0  0.27443947113E+02  0.30114771703E+02  0.58815608967E+02  0.11558892976E+03  0.90782460403E+02 0.  0.
         23    2    1    2    0    0 -0.27443947113E+02 -0.30114771703E+02 -0.63229464367E+02  0.11818385799E+03  0.91155852353E+02 0.  0.
          5    1    3    3  502    0 -0.26088994651E+02  0.18438672622E+02 -0.34974506705E+01  0.32479877635E+02  0.47000000000E+01 0. -1.
         -5    1    3    3    0  502  0.53532941764E+02  0.11676099080E+02  0.62313059637E+02  0.83109052124E+02  0.47000000000E+01 0.  1.
          5    1    4    4  503    0 -0.48675317587E+02 -0.42368989687E+02 -0.66765804562E+02  0.92974085035E+02  0.47000000000E+01 0. -1.
         -5    1    4    4    0  503  0.21231370474E+02  0.12254217985E+02  0.35363401946E+01  0.25209772958E+02  0.47000000000E+01 0.  1.
<mgrwt>
<rscale>  0 0.99761876E+02</rscale>
<asrwt>0</asrwt>
<pdfrwt beam="1">  1        2 0.18322050E-01 0.99847179E+02</pdfrwt>
<pdfrwt beam="2">  1       -2 0.17642995E-01 0.99847179E+02</pdfrwt>
<totfact> 0.73947466E+03</totfact>
</mgrwt>
</event>
<event>
 8    1  0.2954813E-003  0.9390528E+02  0.7546771E-02  0.1295282E+00
          1   -1    0    0  501    0  0.00000000000E+00  0.00000000000E+00  0.30129132772E+03  0.30129132772E+03  0.00000000000E+00 0. -1.
         -1   -1    0    0    0  501 -0.00000000000E+00 -0.00000000000E+00 -0.32776488664E+02  0.32776488664E+02  0.00000000000E+00 0.  1.
         23    2    1    2    0    0 -0.13954456702E+01 -0.47608090335E+01  0.71508632259E+02  0.11582564048E+03  0.90980667917E+02 0.  0.
         23    2    1    2    0    0  0.13954456702E+01  0.47608090335E+01  0.19700620679E+03  0.21824217590E+03  0.93774139580E+02 0.  0.
          5    1    3    3  502    0 -0.25331071121E+02  0.35005812575E+02  0.43066847025E+02  0.61187526432E+02  0.47000000000E+01 0. -1.
         -5    1    4    4    0  503 -0.28429556009E+02 -0.24111147228E+02  0.36478017273E+02  0.52367192207E+02  0.47000000000E+01 0. -1.
          5    1    4    4  503    0  0.29825001679E+02  0.28871956261E+02  0.16052818952E+03  0.16587498369E+03  0.47000000000E+01 0. -1.
         -5    1    3    3    0  502  0.23935625451E+02 -0.39766621608E+02  0.28441785234E+02  0.54638114052E+02  0.47000000000E+01 0.  1.
<mgrwt>
<rscale>  0 0.93200013E+02</rscale>
<asrwt>0</asrwt>
<pdfrwt beam="1">  1        1 0.46352510E-01 0.93905281E+02</pdfrwt>
<pdfrwt beam="2">  1       -1 0.50425369E-02 0.93905281E+02</pdfrwt>
<totfact> 0.13768995E+04</totfact>
</mgrwt>
</event>
<event>
 8    1  0.2954813E-003  0.1290923E+03  0.7546771E-02  0.1230030E+00
         -4   -1    0    0    0  501 -0.00000000000E+00  0.00000000000E+00  0.51817118396E+03  0.51817118396E+03  0.00000000000E+00 0.  1.
          4   -1    0    0  501    0  0.00000000000E+00 -0.00000000000E+00 -0.59804256538E+02  0.59804256538E+02  0.00000000000E+00 0. -1.
         23    2    1    2    0    0  0.91237215908E+02 -0.10210589388E+02  0.42694479170E+03  0.44511392247E+03  0.86116567015E+02 0.  0.
         23    2    1    2    0    0 -0.91237215908E+02  0.10210589388E+02  0.31422135717E+02  0.13286151802E+03  0.90754320318E+02 0.  0.
          5    1    3    3  502    0  0.27633648347E+02 -0.33172364161E+02  0.74707448423E+02  0.86413639635E+02  0.47000000000E+01 0. -1.
         -5    1    4    4    0  503 -0.53452803225E+01  0.25657199640E+02 -0.18302303742E+02  0.32309878324E+02  0.47000000000E+01 0.  1.
          5    1    4    4  503    0 -0.85891935585E+02 -0.15446610251E+02  0.49724439458E+02  0.10055163970E+03  0.47000000000E+01 0. -1.
         -5    1    3    3    0  502  0.63603567561E+02  0.22961774773E+02  0.35223734328E+03  0.35870028284E+03  0.47000000000E+01 0.  1.
<mgrwt>
<rscale>  0 0.12828041E+03</rscale>
<asrwt>0</asrwt>
<pdfrwt beam="1">  1        4 0.92006552E-02 0.12909234E+03</pdfrwt>
<pdfrwt beam="2">  1       -4 0.79718641E-01 0.12909234E+03</pdfrwt>
<totfact> 0.20713580E+02</totfact>
</mgrwt>
</event>
<event>
 8    1  0.2954813E-003  0.1053264E+03  0.7546771E-02  0.1270941E+00
          1   -1    0    0  501    0  0.00000000000E+00  0.00000000000E+00  0.10548086335E+03  0.10548086335E+03  0.00000000000E+00 0. -1.
         -1   -1    0    0    0  501 -0.00000000000E+00 -0.00000000000E+00 -0.26563600879E+03  0.26563600879E+03  0.00000000000E+00 0.  1.
         23    2    1    2    0    0  0.47945294643E+02 -0.39331697546E+01 -0.22515907550E+03  0.24734623212E+03  0.90384335821E+02 0.  0.
         23    2    1    2    0    0 -0.47945294643E+02  0.39331697546E+01  0.65003930062E+02  0.12377064002E+03  0.93698662238E+02 0.  0.
          5    1    3    3  502    0 -0.64164331579E+01 -0.21140901375E+02 -0.99858217592E+01  0.24696456459E+02  0.47000000000E+01 0. -1.
         -5    1    3    3    0  502  0.54361727801E+02  0.17207731621E+02 -0.21517325374E+03  0.22264977566E+03  0.47000000000E+01 0.  1.
          5    1    4    4  503    0 -0.21640541249E+02  0.11059929037E+02  0.85716308101E+02  0.89218891107E+02  0.47000000000E+01 0. -1.
         -5    1    4    4    0  503 -0.26304753394E+02 -0.71267592825E+01 -0.20712378040E+02  0.34551748914E+02  0.47000000000E+01 0.  1.
<mgrwt>
<rscale>  0 0.10458433E+03</rscale>
<asrwt>0</asrwt>
<pdfrwt beam="1">  1        1 0.16227825E-01 0.10532645E+03</pdfrwt>
<pdfrwt beam="2">  1       -1 0.40867078E-01 0.10532645E+03</pdfrwt>
<totfact> 0.19231657E+03</totfact>
</mgrwt>
</event>
<event>
 8    1  0.2954813E-003  0.1182355E+03  0.7546771E-02  0.1247290E+00
         -1   -1    0    0    0  501 -0.00000000000E+00  0.00000000000E+00  0.30897651311E+02  0.30897651311E+02  0.00000000000E+00 0.  1.
          1   -1    0    0  501    0  0.00000000000E+00 -0.00000000000E+00 -0.56822555690E+03  0.56822555690E+03  0.00000000000E+00 0. -1.
         23    2    1    2    0    0  0.16560332640E+02  0.70637836657E+02 -0.12970335583E+03  0.17550667615E+03  0.93357829220E+02 0.  0.
         23    2    1    2    0    0 -0.16560332640E+02 -0.70637836657E+02 -0.40762454976E+03  0.42361653206E+03  0.89606049348E+02 0.  0.
          5    1    4    4  502    0  0.16353962136E+02 -0.78928632432E+02 -0.29945158482E+03  0.31014597006E+03  0.47000000000E+01 0. -1.
         -5    1    4    4    0  502 -0.32914294776E+02  0.82907957753E+01 -0.10817296495E+03  0.11347056200E+03  0.47000000000E+01 0.  1.
          5    1    3    3  503    0  0.52882141153E+01  0.43734474461E+02 -0.13790271917E+03  0.14484446631E+03  0.47000000000E+01 0. -1.
         -5    1    3    3    0  503  0.11272118525E+02  0.26903362196E+02  0.81993633423E+01  0.30662209847E+02  0.47000000000E+01 0.  1.
<mgrwt>
<rscale>  0 0.11749370E+03</rscale>
<asrwt>0</asrwt>
<pdfrwt beam="1">  1        1 0.87419311E-01 0.11823550E+03</pdfrwt>
<pdfrwt beam="2">  1       -1 0.47534851E-02 0.11823550E+03</pdfrwt>
<totfact> 0.68623949E+03</totfact>
</mgrwt>
</event>
<event>
 8    1  0.2954813E-003  0.9164327E+02  0.7546771E-02  0.1301410E+00
          1   -1    0    0  501    0  0.00000000000E+00  0.00000000000E+00  0.15789691410E+03  0.15789691410E+03  0.00000000000E+00 0. -1.
         -1   -1    0    0    0  501 -0.00000000000E+00 -0.00000000000E+00 -0.54175690908E+02  0.54175690908E+02  0.00000000000E+00 0.  1.
         23    2    1    2    0    0  0.34558760369E+01  0.90663303768E+01  0.79315586001E+02  0.12120004916E+03  0.91128197106E+02 0.  0.
         23    2    1    2    0    0 -0.34558760369E+01 -0.90663303768E+01  0.24405637193E+02  0.90872555852E+02  0.86994510485E+02 0.  0.
          5    1    3    3  502    0 -0.42780852552E+01 -0.38008049088E+02  0.15856669601E+02  0.41670586506E+02  0.47000000000E+01 0. -1.
         -5    1    3    3    0  502  0.77339612921E+01  0.47074379465E+02  0.63458916401E+02  0.79529462654E+02  0.47000000000E+01 0.  1.
          5    1    4    4  503    0  0.33453402768E+02  0.20891627659E+02  0.96302842526E+01  0.40870804222E+02  0.47000000000E+01 0. -1.
         -5    1    4    4    0  503 -0.36909278804E+02 -0.29957958036E+02  0.14775352941E+02  0.50001751630E+02  0.47000000000E+01 0.  1.
<mgrwt>
<rscale>  0 0.90598193E+02</rscale>
<asrwt>0</asrwt>
<pdfrwt beam="1">  1        1 0.24291833E-01 0.91643274E+02</pdfrwt>
<pdfrwt beam="2">  1       -1 0.83347218E-02 0.91643274E+02</pdfrwt>
<totfact> 0.14429998E+04</totfact>
</mgrwt>
</event>
<event>
 8    1  0.2954813E-003  0.9569908E+02  0.7546771E-02  0.1290054E+00
         -2   -1    0    0    0  501 -0.00000000000E+00  0.00000000000E+00  0.15604065973E+03  0.15604065973E+03  0.00000000000E+00 0.  1.
          2   -1    0    0  501    0  0.00000000000E+00 -0.00000000000E+00 -0.65777567477E+02  0.65777567477E+02  0.00000000000E+00 0. -1.
         23    2    1    2    0    0  0.18682466133E+02  0.20503662702E+02  0.73355665914E+01  0.95187708754E+02  0.90760424390E+02 0.  0.
         23    2    1    2    0    0 -0.18682466133E+02 -0.20503662702E+02  0.82927525663E+02  0.12663051845E+03  0.91590823592E+02 0.  0.
          5    1    3    3  502    0  0.54196618969E+02  0.15263953520E+02 -0.55158523666E+01  0.56769502482E+02  0.47000000000E+01 0. -1.
         -5    1    4    4    0  503 -0.47469155423E+02 -0.30201077572E+02  0.26486202378E+02  0.62362125682E+02  0.47000000000E+01 0.  1.
          5    1    4    4  503    0  0.28786689290E+02  0.96974148695E+01  0.56441323284E+02  0.64268392772E+02  0.47000000000E+01 0. -1.
         -5    1    3    3    0  502 -0.35514152835E+02  0.52397091827E+01  0.12851418958E+02  0.38418206272E+02  0.47000000000E+01 0.  1.
<mgrwt>
<rscale>  0 0.95499846E+02</rscale>
<asrwt>0</asrwt>
<pdfrwt beam="1">  1        2 0.10119626E-01 0.95699079E+02</pdfrwt>
<pdfrwt beam="2">  1       -2 0.24006255E-01 0.95699079E+02</pdfrwt>
<totfact> 0.87919820E+03</totfact>
</mgrwt>
</event>
<event>
 8    1  0.2954813E-003  0.1009666E+03  0.7546771E-02  0.1278775E+00
         -1   -1    0    0    0  501 -0.00000000000E+00  0.00000000000E+00  0.24580555910E+02  0.24580555910E+02  0.00000000000E+00 0.  1.
          1   -1    0    0  501    0  0.00000000000E+00 -0.00000000000E+00 -0.57681470060E+03  0.57681470060E+03  0.00000000000E+00 0. -1.
         23    2    1    2    0    0  0.39252733362E+02 -0.85495066927E+00 -0.43836547816E+03  0.44984280638E+03  0.93020159083E+02 0.  0.
         23    2    1    2    0    0 -0.39252733362E+02  0.85495066927E+00 -0.11386866654E+03  0.15155245014E+03  0.91981323679E+02 0.  0.
          5    1    4    4  502    0 -0.62728305836E+02 -0.20246703182E+02 -0.90216594280E+02  0.11182975108E+03  0.47000000000E+01 0. -1.
         -5    1    3    3    0  503  0.27069802289E+02  0.29246666788E+02 -0.38577145538E+03  0.38785286837E+03  0.47000000000E+01 0.  1.
          5    1    3    3  503    0  0.12182931073E+02 -0.30101617457E+02 -0.52594022773E+02  0.61989938010E+02  0.47000000000E+01 0. -1.
         -5    1    4    4    0  502  0.23475572474E+02  0.21101653851E+02 -0.23652072259E+02  0.39722699057E+02  0.47000000000E+01 0.  1.
<mgrwt>
<rscale>  0 0.10072670E+03</rscale>
<asrwt>0</asrwt>
<pdfrwt beam="1">  1        1 0.88740718E-01 0.10096662E+03</pdfrwt>
<pdfrwt beam="2">  1       -1 0.37816242E-02 0.10096662E+03</pdfrwt>
<totfact> 0.92985218E+03</totfact>
</mgrwt>
</event>
<event>
 7    1  0.2954813E-003  0.4057452E+03  0.7546771E-02  0.1048145E+00
         -2   -1    0    0    0  501 -0.00000000000E+00  0.00000000000E+00  0.14520772824E+03  0.14520772824E+03  0.00000000000E+00 0.  1.
          2   -1    0    0  501    0  0.00000000000E+00 -0.00000000000E+00 -0.97032348345E+03  0.97032348345E+03  0.00000000000E+00 0. -1.
         23    2    1    2    0    0  0.15069331121E+03  0.28845921743E+03 -0.30030552889E+03  0.45216483088E+03  0.91391626707E+02 0.  0.
          5    1    3    3  502    0  0.12901397275E+03  0.15131565599E+03 -0.18456491484E+03  0.27134356580E+03  0.47000000000E+01 0. -1.
         -5    1    1    2    0  503 -0.16299530000E+03 -0.13657772853E+03 -0.15447405123E+03  0.26287880526E+03  0.47000000000E+01 0.  1.
          5    1    1    2  503    0  0.12301988791E+02 -0.15188148890E+03 -0.37033617508E+03  0.40048757555E+03  0.47000000000E+01 0. -1.
         -5    1    3    3    0  502  0.21679338460E+02  0.13714356144E+03 -0.11574061405E+03  0.18082126507E+03  0.47000000000E+01 0.  1.
<mgrwt>
<rscale>  0 0.38764252E+03</rscale>
<asrwt>0</asrwt>
<pdfrwt beam="1">  1        2 0.14928054E+00 0.40574522E+03</pdfrwt>
<pdfrwt beam="2">  1       -2 0.22339649E-01 0.40574522E+03</pdfrwt>
<totfact> 0.47282250E+02</totfact>
</mgrwt>
</event>
<event>
 8    1  0.2954813E-003  0.1154411E+03  0.7546771E-02  0.1251203E+00
         -3   -1    0    0    0  501 -0.00000000000E+00  0.00000000000E+00  0.56148725345E+03  0.56148725345E+03  0.00000000000E+00 0.  1.
          3   -1    0    0  501    0  0.00000000000E+00 -0.00000000000E+00 -0.26934242457E+02  0.26934242457E+02  0.00000000000E+00 0. -1.
         23    2    1    2    0    0  0.31555175082E+02 -0.67274090089E+02  0.16209657007E+03  0.19848503087E+03  0.87174980234E+02 0.  0.
         23    2    1    2    0    0 -0.31555175082E+02  0.67274090089E+02  0.37245644092E+03  0.38993646503E+03  0.88346556868E+02 0.  0.
          5    1    4    4  502    0  0.21494675003E+02  0.80983103857E+01  0.18209046064E+03  0.18359365332E+03  0.47000000000E+01 0. -1.
         -5    1    4    4    0  502 -0.53049850085E+02  0.59175779703E+02  0.19036598028E+03  0.20634281171E+03  0.47000000000E+01 0.  1.
          5    1    3    3  503    0  0.55057522019E+02 -0.34000257177E+02  0.59640929983E+02  0.88127627611E+02  0.47000000000E+01 0. -1.
         -5    1    3    3    0  503 -0.23502346937E+02 -0.33273832912E+02  0.10245564009E+03  0.11035740326E+03  0.47000000000E+01 0.  1.
<mgrwt>
<rscale>  0 0.11521691E+03</rscale>
<asrwt>0</asrwt>
<pdfrwt beam="1">  1        3 0.41437300E-02 0.11544109E+03</pdfrwt>
<pdfrwt beam="2">  1       -3 0.86382646E-01 0.11544109E+03</pdfrwt>
<totfact> 0.86988194E+02</totfact>
</mgrwt>
</event>
<event>
 8    1  0.2954813E-003  0.1287541E+03  0.7546771E-02  0.1229544E+00
         -2   -1    0    0    0  501 -0.00000000000E+00  0.00000000000E+00  0.17150784284E+02  0.17150784284E+02  0.00000000000E+00 0.  1.
          2   -1    0    0  501    0  0.00000000000E+00 -0.00000000000E+00 -0.10713157259E+04  0.10713157259E+04  0.00000000000E+00 0. -1.
         23    2    1    2    0    0 -0.77722978202E+02 -0.43493704023E+02 -0.35215246400E+03  0.37474448716E+03  0.92138532255E+02 0.  0.
         23    2    1    2    0    0  0.77722978202E+02  0.43493704023E+02 -0.70201247765E+03  0.71372202306E+03  0.92978727615E+02 0.  0.
          5    1    3    3  502    0  0.18544908422E+02 -0.21514797905E+02 -0.94045945819E+02  0.98354105569E+02  0.47000000000E+01 0. -1.
         -5    1    3    3    0  502 -0.96267886624E+02 -0.21978906118E+02 -0.25810651818E+03  0.27639038159E+03  0.47000000000E+01 0.  1.
          5    1    4    4  503    0  0.84557849121E+01 -0.27445377640E+02 -0.13692514296E+03  0.13998333410E+03  0.47000000000E+01 0. -1.
         -5    1    4    4    0  503  0.69267193290E+02  0.70939081663E+02 -0.56508733469E+03  0.57373868896E+03  0.47000000000E+01 0.  1.
<mgrwt>
<rscale>  0 0.12860243E+03</rscale>
<asrwt>0</asrwt>
<pdfrwt beam="1">  1        2 0.16481777E+00 0.12875406E+03</pdfrwt>
<pdfrwt beam="2">  1       -2 0.26385827E-02 0.12875406E+03</pdfrwt>
<totfact> 0.11706232E+04</totfact>
</mgrwt>
</event>
<event>
 8    1  0.2954813E-003  0.1318911E+03  0.7546771E-02  0.1225168E+00
         -2   -1    0    0    0  501 -0.00000000000E+00  0.00000000000E+00  0.21284280484E+02  0.21284280484E+02  0.00000000000E+00 0.  1.
          2   -1    0    0  501    0  0.00000000000E+00 -0.00000000000E+00 -0.81593739316E+03  0.81593739316E+03  0.00000000000E+00 0. -1.
         23    2    1    2    0    0  0.45620549817E+02  0.82369604344E+02 -0.43395516521E+03  0.45316662515E+03  0.90426315053E+02 0.  0.
         23    2    1    2    0    0 -0.45620549817E+02 -0.82369604344E+02 -0.36069794747E+03  0.38405504850E+03  0.92354126496E+02 0.  0.
          5    1    3    3  502    0  0.30860281400E+01  0.50766913796E+02 -0.35047245982E+03  0.35417486952E+03  0.47000000000E+01 0. -1.
         -5    1    3    3    0  502  0.42534521677E+02  0.31602690548E+02 -0.83482705387E+02  0.98991755631E+02  0.47000000000E+01 0.  1.
          5    1    4    4  503    0 -0.28382208667E+02  0.10976839000E+02 -0.14677256160E+03  0.14996771520E+03  0.47000000000E+01 0. -1.
         -5    1    4    4    0  503 -0.17238341150E+02 -0.93346443344E+02 -0.21392538587E+03  0.23408733329E+03  0.47000000000E+01 0.  1.
<mgrwt>
<rscale>  0 0.13155418E+03</rscale>
<asrwt>0</asrwt>
<pdfrwt beam="1">  1        2 0.12552881E+00 0.13189113E+03</pdfrwt>
<pdfrwt beam="2">  1       -2 0.32745053E-02 0.13189113E+03</pdfrwt>
<totfact> 0.12271831E+04</totfact>
</mgrwt>
</event>
<event>
 7    1  0.2954813E-003  0.1690628E+03  0.7546771E-02  0.1188384E+00
         -2   -1    0    0    0  501 -0.00000000000E+00  0.00000000000E+00  0.48862076387E+02  0.48862076387E+02  0.00000000000E+00 0.  1.
          2   -1    0    0  501    0  0.00000000000E+00 -0.00000000000E+00 -0.50513916546E+03  0.50513916546E+03  0.00000000000E+00 0. -1.
         23    2    1    2    0    0 -0.65314331355E+02 -0.84524317845E+02 -0.14124096854E+03  0.19646804621E+03  0.85090303800E+02 0.  0.
          5    1    1    2  502    0  0.10390561260E+03  0.61455058174E+02 -0.25690786354E+03  0.28389582747E+03  0.47000000000E+01 0. -1.
         -5    1    1    2    0  502 -0.38591281244E+02  0.23069259672E+02 -0.58128256997E+02  0.73637368173E+02  0.47000000000E+01 0.  1.
          5    1    3    3  503    0  0.69157985089E+01 -0.53754795143E+02 -0.36611772464E+02  0.65573761161E+02  0.47000000000E+01 0. -1.
         -5    1    3    3    0  503 -0.72230129864E+02 -0.30769522703E+02 -0.10462919608E+03  0.13089428505E+03  0.47000000000E+01 0.  1.
<mgrwt>
<rscale>  0 0.16027762E+03</rscale>
<asrwt>0</asrwt>
<pdfrwt beam="1">  1        2 0.77713710E-01 0.16906280E+03</pdfrwt>
<pdfrwt beam="2">  1       -2 0.75172433E-02 0.16906280E+03</pdfrwt>
<totfact> 0.62366583E+03</totfact>
</mgrwt>
</event>
<event>
 8    1  0.2954813E-003  0.2659582E+03  0.7546771E-02  0.1103626E+00
          1   -1    0    0  501    0  0.00000000000E+00  0.00000000000E+00  0.43184486436E+03  0.43184486436E+03  0.00000000000E+00 0. -1.
         -1   -1    0    0    0  501 -0.00000000000E+00 -0.00000000000E+00 -0.17028108012E+03  0.17028108012E+03  0.00000000000E+00 0.  1.
         23    2    1    2    0    0  0.18318362642E+03  0.16968187280E+03  0.18973642661E+03  0.32663917921E+03  0.91351315610E+02 0.  0.
         23    2    1    2    0    0 -0.18318362642E+03 -0.16968187280E+03  0.71827357626E+02  0.27548676528E+03  0.91572974137E+02 0.  0.
          5    1    4    4  502    0 -0.70158496092E+02 -0.88973575596E+02  0.75907211401E+02  0.13646430475E+03  0.47000000000E+01 0. -1.
         -5    1    4    4    0  502 -0.11302513033E+03 -0.80708297208E+02 -0.40798537755E+01  0.13902246053E+03  0.47000000000E+01 0.  1.
          5    1    3    3  503    0  0.56918038935E+02  0.11460151204E+03  0.90842958951E+02  0.15699586908E+03  0.47000000000E+01 0. -1.
         -5    1    3    3    0  503  0.12626558749E+03  0.55080360768E+02  0.98893467660E+02  0.16964331013E+03  0.47000000000E+01 0.  1.
<mgrwt>
<rscale>  0 0.26593918E+03</rscale>
<asrwt>0</asrwt>
<pdfrwt beam="1">  1        1 0.66437671E-01 0.26595825E+03</pdfrwt>
<pdfrwt beam="2">  1       -1 0.26197089E-01 0.26595825E+03</pdfrwt>
<totfact> 0.70820522E+02</totfact>
</mgrwt>
</event>
<event>
 8    1  0.2954813E-003  0.9509760E+02  0.7546771E-02  0.1291723E+00
         -2   -1    0    0    0  501 -0.00000000000E+00  0.00000000000E+00  0.71632714662E+01  0.71632714662E+01  0.00000000000E+00 0.  1.
          2   -1    0    0  501    0  0.00000000000E+00 -0.00000000000E+00 -0.12471181245E+04  0.12471181245E+04  0.00000000000E+00 0. -1.
         23    2    1    2    0    0 -0.18408190936E+02 -0.15790189953E+02 -0.59615356999E+03  0.60369084127E+03  0.91953038154E+02 0.  0.
         23    2    1    2    0    0  0.18408190936E+02  0.15790189953E+02 -0.64380128309E+03  0.65059055474E+03  0.90552670989E+02 0.  0.
          5    1    4    4  502    0  0.18385583368E+02 -0.36497214299E+02 -0.26728946218E+03  0.27043635651E+03  0.47000000000E+01 0. -1.
         -5    1    4    4    0  502  0.22607567618E-01  0.52287404252E+02 -0.37651182090E+03  0.38015419823E+03  0.47000000000E+01 0.  1.
          5    1    3    3  503    0  0.22187487459E+02 -0.36952326332E+02 -0.18717008815E+03  0.19212623694E+03  0.47000000000E+01 0. -1.
         -5    1    3    3    0  503 -0.40595678394E+02  0.21162136379E+02 -0.40898348184E+03  0.41156460433E+03  0.47000000000E+01 0.  1.
<mgrwt>
<rscale>  0 0.94757430E+02</rscale>
<asrwt>0</asrwt>
<pdfrwt beam="1">  1        2 0.19186438E+00 0.95097596E+02</pdfrwt>
<pdfrwt beam="2">  1       -2 0.11020414E-02 0.95097596E+02</pdfrwt>
<totfact> 0.32109117E+04</totfact>
</mgrwt>
</event>
<event>
 8    1  0.2954813E-003  0.1179382E+03  0.7546771E-02  0.1252659E+00
         -3   -1    0    0    0  501 -0.00000000000E+00  0.00000000000E+00  0.70867149825E+02  0.70867149825E+02  0.00000000000E+00 0.  1.
          3   -1    0    0  501    0  0.00000000000E+00 -0.00000000000E+00 -0.23994284762E+03  0.23994284762E+03  0.00000000000E+00 0. -1.
         23    2    1    2    0    0  0.71744659178E+01 -0.50712981938E+02 -0.71287000039E+01  0.11815342246E+03  0.10623621499E+03 0.  0.
         23    2    1    2    0    0 -0.71744659178E+01  0.50712981938E+02 -0.16194699779E+03  0.19265657499E+03  0.90919999422E+02 0.  0.
          5    1    3    3  502    0  0.31054624820E+02 -0.30126894355E+01 -0.43266838604E+02  0.53549746434E+02  0.47000000000E+01 0. -1.
         -5    1    4    4    0  503  0.40191052552E+02  0.14825872819E+02 -0.51526449274E+02  0.67172853035E+02  0.47000000000E+01 0.  1.
          5    1    4    4  503    0 -0.47365518469E+02  0.35887109118E+02 -0.11042054851E+03  0.12548372195E+03  0.47000000000E+01 0. -1.
         -5    1    3    3    0  502 -0.23880158902E+02 -0.47700292502E+02  0.36138138600E+02  0.64603676021E+02  0.47000000000E+01 0.  1.
<mgrwt>
<rscale>  0 0.11438469E+03</rscale>
<asrwt>0</asrwt>
<pdfrwt beam="1">  1        3 0.36914285E-01 0.11793817E+03</pdfrwt>
<pdfrwt beam="2">  1       -3 0.10902638E-01 0.11793817E+03</pdfrwt>
<totfact> 0.10431349E+03</totfact>
</mgrwt>
</event>
<event>
 8    1  0.2954813E-003  0.1071817E+03  0.7546771E-02  0.1266859E+00
          1   -1    0    0  501    0  0.00000000000E+00  0.00000000000E+00  0.83764657834E+02  0.83764657834E+02  0.00000000000E+00 0. -1.
         -1   -1    0    0    0  501 -0.00000000000E+00 -0.00000000000E+00 -0.13911424599E+03  0.13911424599E+03  0.00000000000E+00 0.  1.
         23    2    1    2    0    0 -0.48322176421E+02 -0.23071889231E+02 -0.47561082256E+02  0.11541457579E+03  0.90504822810E+02 0.  0.
         23    2    1    2    0    0  0.48322176421E+02  0.23071889231E+02 -0.77885058987E+01  0.10746432804E+03  0.92847057946E+02 0.  0.
          5    1    4    4  502    0  0.44642976092E+02 -0.20410287895E+02  0.22434074477E+02  0.54175205251E+02  0.47000000000E+01 0. -1.
         -5    1    4    4    0  502  0.36792003283E+01  0.43482177126E+02 -0.30222580375E+02  0.53289122785E+02  0.47000000000E+01 0.  1.
          5    1    3    3  503    0  0.16177828828E+02  0.19815272911E+02 -0.36809366345E+01  0.26267974430E+02  0.47000000000E+01 0. -1.
         -5    1    3    3    0  503 -0.64500005249E+02 -0.42887162142E+02 -0.43880145621E+02  0.89146601357E+02  0.47000000000E+01 0.  1.
<mgrwt>
<rscale>  0 0.10667248E+03</rscale>
<asrwt>0</asrwt>
<pdfrwt beam="1">  1        1 0.12886870E-01 0.10718172E+03</pdfrwt>
<pdfrwt beam="2">  1       -1 0.21402192E-01 0.10718172E+03</pdfrwt>
<totfact> 0.76276043E+03</totfact>
</mgrwt>
</event>
<event>
 8    1  0.2954813E-003  0.1204274E+03  0.7546771E-02  0.1243963E+00
         -2   -1    0    0    0  501 -0.00000000000E+00  0.00000000000E+00  0.41663534046E+02  0.41663534046E+02  0.00000000000E+00 0.  1.
          2   -1    0    0  501    0  0.00000000000E+00 -0.00000000000E+00 -0.38842646337E+03  0.38842646337E+03  0.00000000000E+00 0. -1.
         23    2    1    2    0    0 -0.59149785931E+02  0.51200575429E+02 -0.92993885460E+02  0.14919592433E+03  0.86552671843E+02 0.  0.
         23    2    1    2    0    0  0.59149785931E+02 -0.51200575429E+02 -0.25376904386E+03  0.28089407309E+03  0.91556302745E+02 0.  0.
          5    1    4    4  502    0  0.30849921921E+02  0.22382552754E+02 -0.11477334688E+03  0.12102771379E+03  0.47000000000E+01 0. -1.
         -5    1    3    3    0  503 -0.53161964585E+02 -0.85926448984E+01 -0.58900473082E+02  0.79946130327E+02  0.47000000000E+01 0.  1.
          5    1    3    3  503    0 -0.59878213454E+01  0.59793220327E+02 -0.34093412377E+02  0.69249794000E+02  0.47000000000E+01 0. -1.
         -5    1    4    4    0  502  0.28299864010E+02 -0.73583128183E+02 -0.13899569698E+03  0.15986635930E+03  0.47000000000E+01 0.  1.
<mgrwt>
<rscale>  0 0.11947648E+03</rscale>
<asrwt>0</asrwt>
<pdfrwt beam="1">  1        2 0.59757921E-01 0.12042738E+03</pdfrwt>
<pdfrwt beam="2">  1       -2 0.64097741E-02 0.12042738E+03</pdfrwt>
<totfact> 0.10354063E+04</totfact>
</mgrwt>
</event>
<event>
 8    1  0.2954813E-003  0.9291962E+02  0.7546771E-02  0.1295986E+00
          2   -1    0    0  501    0  0.00000000000E+00  0.00000000000E+00  0.10539458791E+03  0.10539458791E+03  0.00000000000E+00 0. -1.
         -2   -1    0    0    0  501 -0.00000000000E+00 -0.00000000000E+00 -0.17902740875E+03  0.17902740875E+03  0.00000000000E+00 0.  1.
         23    2    1    2    0    0 -0.21416259835E+02  0.18742081605E+01  0.67955538279E+02  0.11511737815E+03  0.90398488527E+02 0.  0.
         23    2    1    2    0    0  0.21416259835E+02 -0.18742081605E+01 -0.14158835912E+03  0.16930461852E+03  0.90302943310E+02 0.  0.
          5    1    4    4  502    0  0.30817454557E+02  0.38223369351E+02 -0.94296209369E+02  0.10641713476E+03  0.47000000000E+01 0.  1.
         -5    1    3    3    0  503  0.22517389281E+02 -0.25802443362E+02  0.48307377114E+02  0.59401107625E+02  0.47000000000E+01 0.  1.
          5    1    3    3  503    0 -0.43933649116E+02  0.27676651522E+02  0.19648161165E+02  0.55716270526E+02  0.47000000000E+01 0. -1.
         -5    1    4    4    0  502 -0.94011947216E+01 -0.40097577511E+02 -0.47292149752E+02  0.62887483752E+02  0.47000000000E+01 0. -1.
<mgrwt>
<rscale>  0 0.92896373E+02</rscale>
<asrwt>0</asrwt>
<pdfrwt beam="1">  1        2 0.16214552E-01 0.92919619E+02</pdfrwt>
<pdfrwt beam="2">  1       -2 0.27542678E-01 0.92919619E+02</pdfrwt>
<totfact> 0.39603262E+03</totfact>
</mgrwt>
</event>
<event>
 8    1  0.2954813E-003  0.2507015E+03  0.7546771E-02  0.1114046E+00
          1   -1    0    0  501    0  0.00000000000E+00  0.00000000000E+00  0.46051875216E+03  0.46051875216E+03  0.00000000000E+00 0. -1.
         -1   -1    0    0    0  501 -0.00000000000E+00 -0.00000000000E+00 -0.14700893569E+03  0.14700893569E+03  0.00000000000E+00 0.  1.
         23    2    1    2    0    0 -0.20394952161E+03  0.98244912848E+02  0.25011902351E+03  0.34893603214E+03  0.89159174179E+02 0.  0.
         23    2    1    2    0    0  0.20394952161E+03 -0.98244912848E+02  0.63390792953E+02  0.25859165571E+03  0.10772084991E+03 0.  0.
          5    1    4    4  502    0  0.85378340970E+01 -0.23443631758E+02  0.40840107912E+02  0.48088490259E+02  0.47000000000E+01 0. -1.
         -5    1    4    4    0  502  0.19541168751E+03 -0.74801281089E+02  0.22550685041E+02  0.21050316545E+03  0.47000000000E+01 0.  1.
          5    1    3    3  503    0 -0.17020944946E+03  0.65841189999E+02  0.23877812596E+03  0.30057179246E+03  0.47000000000E+01 0. -1.
         -5    1    3    3    0  503 -0.33740072148E+02  0.32403722849E+02  0.11340897557E+02  0.48364239686E+02  0.47000000000E+01 0.  1.
<mgrwt>
<rscale>  0 0.24883131E+03</rscale>
<asrwt>0</asrwt>
<pdfrwt beam="1">  1        1 0.70849038E-01 0.25070152E+03</pdfrwt>
<pdfrwt beam="2">  1       -1 0.22616760E-01 0.25070152E+03</pdfrwt>
<totfact> 0.83157520E+02</totfact>
</mgrwt>
</event>
<event>
 8    1  0.2954813E-003  0.8462647E+02  0.7546771E-02  0.1318263E+00
          3   -1    0    0  501    0  0.00000000000E+00  0.00000000000E+00  0.51185275857E+02  0.51185275857E+02  0.00000000000E+00 0. -1.
         -3   -1    0    0    0  501 -0.00000000000E+00 -0.00000000000E+00 -0.18573338215E+03  0.18573338215E+03  0.00000000000E+00 0.  1.
         23    2    1    2    0    0 -0.51271393096E+00 -0.18448154147E+01 -0.12975900239E+03  0.15491622826E+03  0.84604803988E+02 0.  0.
         23    2    1    2    0    0  0.51271393096E+00  0.18448154147E+01 -0.47891038976E+01  0.82002429742E+02  0.81840068108E+02 0.  0.
          5    1    3    3  502    0  0.36072170354E+02  0.11066510095E+02 -0.32216592627E+02  0.49836411992E+02  0.47000000000E+01 0. -1.
         -5    1    3    3    0  502 -0.36584884285E+02 -0.12911325510E+02 -0.97542409764E+02  0.10507981627E+03  0.47000000000E+01 0.  1.
          5    1    4    4  503    0  0.17644567748E+02  0.34281172749E+02  0.13006867797E+02  0.40960934876E+02  0.47000000000E+01 0. -1.
         -5    1    4    4    0  503 -0.17131853817E+02 -0.32436357334E+02 -0.17795971694E+02  0.41041494866E+02  0.47000000000E+01 0.  1.
<mgrwt>
<rscale>  0 0.83926839E+02</rscale>
<asrwt>0</asrwt>
<pdfrwt beam="1">  1        3 0.78746578E-02 0.84626468E+02</pdfrwt>
<pdfrwt beam="2">  1       -3 0.28574367E-01 0.84626468E+02</pdfrwt>
<totfact> 0.26776998E+03</totfact>
</mgrwt>
</event>
<event>
 8    1  0.2954813E-003  0.1310839E+03  0.7546771E-02  0.1226483E+00
          2   -1    0    0  501    0  0.00000000000E+00  0.00000000000E+00  0.42278097332E+02  0.42278097332E+02  0.00000000000E+00 0. -1.
         -2   -1    0    0    0  501 -0.00000000000E+00 -0.00000000000E+00 -0.43421549869E+03  0.43421549869E+03  0.00000000000E+00 0.  1.
         23    2    1    2    0    0 -0.25993118119E+02  0.90238208795E+02 -0.26286022531E+03  0.29373197865E+03  0.91457097690E+02 0.  0.
         23    2    1    2    0    0  0.25993118119E+02 -0.90238208795E+02 -0.12907717605E+03  0.18276161738E+03  0.89007386724E+02 0.  0.
          5    1    3    3  502    0 -0.48109299335E+02  0.75199064576E+02 -0.24607072279E+03  0.26180583380E+03  0.47000000000E+01 0. -1.
         -5    1    3    3    0  502  0.22116181216E+02  0.15039144219E+02 -0.16789502514E+02  0.31926144851E+02  0.47000000000E+01 0.  1.
          5    1    4    4  503    0 -0.36261311284E+01 -0.58309740695E+02 -0.14907895047E+02  0.60477351311E+02  0.47000000000E+01 0. -1.
         -5    1    4    4    0  503  0.29619249247E+02 -0.31928468100E+02 -0.11416928101E+03  0.12228426606E+03  0.47000000000E+01 0.  1.
<mgrwt>
<rscale>  0 0.13065747E+03</rscale>
<asrwt>0</asrwt>
<pdfrwt beam="1">  1        2 0.65043228E-02 0.13108386E+03</pdfrwt>
<pdfrwt beam="2">  1       -2 0.66802383E-01 0.13108386E+03</pdfrwt>
<totfact> 0.22483264E+03</totfact>
</mgrwt>
</event>
<event>
 8    1  0.2954813E-003  0.9338946E+02  0.7546771E-02  0.1295818E+00
         -2   -1    0    0    0  501 -0.00000000000E+00  0.00000000000E+00  0.56699377917E+02  0.56699377917E+02  0.00000000000E+00 0.  1.
          2   -1    0    0  501    0  0.00000000000E+00 -0.00000000000E+00 -0.28538516898E+03  0.28538516898E+03  0.00000000000E+00 0. -1.
         23    2    1    2    0    0  0.16642111545E+02  0.56915762942E+01  0.24444237734E+01  0.93421443526E+02  0.91718247832E+02 0.  0.
         23    2    1    2    0    0 -0.16642111545E+02 -0.56915762942E+01 -0.23113021484E+03  0.24866310337E+03  0.90015603374E+02 0.  0.
          5    1    4    4  502    0 -0.22647592767E+02  0.34603078321E+02 -0.17021283645E+03  0.17522781223E+03  0.47000000000E+01 0. -1.
         -5    1    4    4    0  502  0.60054812226E+01 -0.40294654615E+02 -0.60917378389E+02  0.73435291142E+02  0.47000000000E+01 0.  1.
          5    1    3    3  503    0 -0.19752129900E+02  0.35373164302E+02 -0.14481333559E+02  0.43280554640E+02  0.47000000000E+01 0. -1.
         -5    1    3    3    0  503  0.36394241444E+02 -0.29681588007E+02  0.16925757333E+02  0.50140888886E+02  0.47000000000E+01 0.  1.
<mgrwt>
<rscale>  0 0.92968720E+02</rscale>
<asrwt>0</asrwt>
<pdfrwt beam="1">  1        2 0.43905409E-01 0.93389458E+02</pdfrwt>
<pdfrwt beam="2">  1       -2 0.87229814E-02 0.93389458E+02</pdfrwt>
<totfact> 0.87668443E+03</totfact>
</mgrwt>
</event>
<event>
 8    1  0.2954813E-003  0.9895550E+02  0.7546771E-02  0.1282989E+00
         -1   -1    0    0    0  501 -0.00000000000E+00  0.00000000000E+00  0.57259680675E+02  0.57259680675E+02  0.00000000000E+00 0.  1.
          1   -1    0    0  501    0  0.00000000000E+00 -0.00000000000E+00 -0.17052287647E+03  0.17052287647E+03  0.00000000000E+00 0. -1.
         23    2    1    2    0    0 -0.23061316874E+02 -0.21718517089E+02 -0.47406271723E+02  0.10891571868E+03  0.92799573578E+02 0.  0.
         23    2    1    2    0    0  0.23061316874E+02  0.21718517089E+02 -0.65856924074E+02  0.11886683847E+03  0.93747920074E+02 0.  0.
          5    1    3    3  502    0  0.21550114918E+01 -0.48083934599E+02 -0.52955333173E+02  0.71715173795E+02  0.47000000000E+01 0. -1.
         -5    1    4    4    0  503  0.26942316485E+01  0.52892242146E+02 -0.61162060867E+02  0.81041568672E+02  0.47000000000E+01 0.  1.
          5    1    4    4  503    0  0.20367085225E+02 -0.31173725057E+02 -0.46948632067E+01  0.37825269795E+02  0.47000000000E+01 0. -1.
         -5    1    3    3    0  502 -0.25216328365E+02  0.26365417510E+02  0.55490614494E+01  0.37200544884E+02  0.47000000000E+01 0.  1.
<mgrwt>
<rscale>  0 0.98730239E+02</rscale>
<asrwt>0</asrwt>
<pdfrwt beam="1">  1        1 0.26234289E-01 0.98955499E+02</pdfrwt>
<pdfrwt beam="2">  1       -1 0.88091817E-02 0.98955499E+02</pdfrwt>
<totfact> 0.12161125E+04</totfact>
</mgrwt>
</event>
<event>
 8    1  0.2954813E-003  0.3066579E+03  0.7546771E-02  0.1082039E+00
          1   -1    0    0  501    0  0.00000000000E+00  0.00000000000E+00  0.31089487035E+04  0.31089487035E+04  0.00000000000E+00 0. -1.
         -1   -1    0    0    0  501 -0.00000000000E+00 -0.00000000000E+00 -0.60339326715E+02  0.60339326715E+02  0.00000000000E+00 0.  1.
         23    2    1    2    0    0 -0.22764349587E+03 -0.18326830757E+03  0.26437481058E+04  0.26613985753E+04  0.90716570242E+02 0.  0.
         23    2    1    2    0    0  0.22764349587E+03  0.18326830757E+03  0.40486127102E+03  0.50788945492E+03  0.92898955157E+02 0.  0.
          5    1    4    4  502    0  0.54888026058E+02  0.13718193663E+02  0.12849010865E+03  0.14047306597E+03  0.47000000000E+01 0. -1.
         -5    1    3    3    0  503 -0.54987057071E+02 -0.22514954401E+01  0.41857816975E+03  0.42220660803E+03  0.47000000000E+01 0.  1.
          5    1    3    3  503    0 -0.17265643880E+03 -0.18101681213E+03  0.22251699360E+04  0.22391919673E+04  0.47000000000E+01 0. -1.
         -5    1    4    4    0  502  0.17275546981E+03  0.16955011391E+03  0.27637116238E+03  0.36741638895E+03  0.47000000000E+01 0.  1.
<mgrwt>
<rscale>  0 0.30649422E+03</rscale>
<asrwt>0</asrwt>
<pdfrwt beam="1">  1        1 0.47829968E+00 0.30665787E+03</pdfrwt>
<pdfrwt beam="2">  1       -1 0.92829758E-02 0.30665787E+03</pdfrwt>
<totfact> 0.41038272E+01</totfact>
</mgrwt>
</event>
<event>
 8    1  0.2954813E-003  0.1017792E+03  0.7546771E-02  0.1281583E+00
         -3   -1    0    0    0  501 -0.00000000000E+00  0.00000000000E+00  0.25343271932E+03  0.25343271932E+03  0.00000000000E+00 0.  1.
          3   -1    0    0  501    0  0.00000000000E+00 -0.00000000000E+00 -0.39387337795E+02  0.39387337795E+02  0.00000000000E+00 0. -1.
         23    2    1    2    0    0  0.31913643915E+01 -0.20491023596E+02  0.14586060687E+03  0.17786038172E+03  0.99644025883E+02 0.  0.
         23    2    1    2    0    0 -0.31913643915E+01  0.20491023596E+02  0.68184774659E+02  0.11495967540E+03  0.90202531108E+02 0.  0.
          5    1    4    4  502    0 -0.23405225517E+02 -0.16703030151E+01 -0.13736575512E+02  0.27593078851E+02  0.47000000000E+01 0. -1.
         -5    1    3    3    0  503  0.47208316611E+02  0.92443568175E+01  0.73634955293E+02  0.88081098603E+02  0.47000000000E+01 0.  1.
          5    1    3    3  503    0 -0.44016952220E+02 -0.29735380414E+02  0.72225651578E+02  0.89779283117E+02  0.47000000000E+01 0. -1.
         -5    1    4    4    0  502  0.20213861126E+02  0.22161326611E+02  0.81921350171E+02  0.87366596549E+02  0.47000000000E+01 0.  1.
<mgrwt>
<rscale>  0 0.99390528E+02</rscale>
<asrwt>0</asrwt>
<pdfrwt beam="1">  1        3 0.60595906E-02 0.10177917E+03</pdfrwt>
<pdfrwt beam="2">  1       -3 0.38989648E-01 0.10177917E+03</pdfrwt>
<totfact> 0.23709199E+03</totfact>
</mgrwt>
</event>
<event>
 8    1  0.2954813E-003  0.1572467E+03  0.7546771E-02  0.1194212E+00
         -2   -1    0    0    0  501 -0.00000000000E+00  0.00000000000E+00  0.31883445232E+02  0.31883445232E+02  0.00000000000E+00 0.  1.
          2   -1    0    0  501    0  0.00000000000E+00 -0.00000000000E+00 -0.74415343164E+03  0.74415343164E+03  0.00000000000E+00 0. -1.
         23    2    1    2    0    0  0.94395541465E+01  0.11601506270E+03 -0.32634523797E+03  0.36225367509E+03  0.10572563932E+03 0.  0.
         23    2    1    2    0    0 -0.94395541465E+01 -0.11601506270E+03 -0.38592474844E+03  0.41378320179E+03  0.93434611735E+02 0.  0.
          5    1    4    4  502    0  0.16980772294E+02 -0.48073089416E+02 -0.28285666639E+03  0.28745321754E+03  0.47000000000E+01 0. -1.
         -5    1    3    3    0  503 -0.20970123780E+02  0.12342110287E+03 -0.25086680043E+03  0.28040819582E+03  0.47000000000E+01 0.  1.
          5    1    3    3  503    0  0.30409677927E+02 -0.74060401657E+01 -0.75478437547E+02  0.81845479271E+02  0.47000000000E+01 0. -1.
         -5    1    4    4    0  502 -0.26420326441E+02 -0.67941973284E+02 -0.10306808205E+03  0.12632998425E+03  0.47000000000E+01 0.  1.
<mgrwt>
<rscale>  0 0.15521086E+03</rscale>
<asrwt>0</asrwt>
<pdfrwt beam="1">  1        2 0.11448514E+00 0.15724666E+03</pdfrwt>
<pdfrwt beam="2">  1       -2 0.49051454E-02 0.15724666E+03</pdfrwt>
<totfact> 0.76119831E+03</totfact>
</mgrwt>
</event>
<event>
 8    1  0.2954813E-003  0.1045219E+03  0.7546771E-02  0.1273092E+00
         -1   -1    0    0    0  501 -0.00000000000E+00  0.00000000000E+00  0.16248782403E+03  0.16248782403E+03  0.00000000000E+00 0.  1.
          1   -1    0    0  501    0  0.00000000000E+00 -0.00000000000E+00 -0.31037984212E+03  0.31037984212E+03  0.00000000000E+00 0. -1.
         23    2    1    2    0    0 -0.49863249852E+02  0.15316943480E+01 -0.28399663688E+03  0.30125969776E+03  0.87261824175E+02 0.  0.
         23    2    1    2    0    0  0.49863249852E+02 -0.15316943480E+01  0.13610461880E+03  0.17160796839E+03  0.91848450099E+02 0.  0.
          5    1    4    4  502    0  0.37584137679E+02  0.42557811473E+02  0.89686862890E+02  0.10625233220E+03  0.47000000000E+01 0. -1.
         -5    1    4    4    0  502  0.12279112172E+02 -0.44089505821E+02  0.46417755906E+02  0.65355636197E+02  0.47000000000E+01 0.  1.
          5    1    3    3  503    0  0.44031440504E+01  0.29135531340E+02 -0.16320239264E+03  0.16590773890E+03  0.47000000000E+01 0. -1.
         -5    1    3    3    0  503 -0.54266393902E+02 -0.27603836992E+02 -0.12079424425E+03  0.13535195886E+03  0.47000000000E+01 0.  1.
<mgrwt>
<rscale>  0 0.10350551E+03</rscale>
<asrwt>0</asrwt>
<pdfrwt beam="1">  1        1 0.47750745E-01 0.10452190E+03</pdfrwt>
<pdfrwt beam="2">  1       -1 0.24998127E-01 0.10452190E+03</pdfrwt>
<totfact> 0.11505723E+03</totfact>
</mgrwt>
</event>
<event>
 8    1  0.2954813E-003  0.1538689E+03  0.7546771E-02  0.1196517E+00
         -3   -1    0    0    0  501 -0.00000000000E+00  0.00000000000E+00  0.24231310847E+03  0.24231310847E+03  0.00000000000E+00 0.  1.
          3   -1    0    0  501    0  0.00000000000E+00 -0.00000000000E+00 -0.18559446178E+03  0.18559446178E+03  0.00000000000E+00 0. -1.
         23    2    1    2    0    0 -0.87217846172E+02 -0.84996499070E+02  0.17697055598E+03  0.23450848057E+03  0.94044097256E+02 0.  0.
         23    2    1    2    0    0  0.87217846172E+02  0.84996499070E+02 -0.12025190929E+03  0.19339908969E+03  0.90062914999E+02 0.  0.
          5    1    4    4  502    0  0.68345258334E+02  0.72442992251E+01 -0.38517324207E+02  0.78925461494E+02  0.47000000000E+01 0. -1.
         -5    1    3    3    0  503 -0.65366318444E+02 -0.65014184002E+02  0.18203365506E+03  0.20410277137E+03  0.47000000000E+01 0.  1.
          5    1    3    3  503    0 -0.21851527728E+02 -0.19982315068E+02 -0.50630990742E+01  0.30405709196E+02  0.47000000000E+01 0. -1.
         -5    1    4    4    0  502  0.18872587838E+02  0.77752199845E+02 -0.81734585084E+02  0.11447362819E+03  0.47000000000E+01 0.  1.
<mgrwt>
<rscale>  0 0.15326527E+03</rscale>
<asrwt>0</asrwt>
<pdfrwt beam="1">  1        3 0.28552994E-01 0.15386894E+03</pdfrwt>
<pdfrwt beam="2">  1       -3 0.37278940E-01 0.15386894E+03</pdfrwt>
<totfact> 0.19875322E+02</totfact>
</mgrwt>
</event>
<event>
 8    1  0.2954813E-003  0.1466388E+03  0.7546771E-02  0.1209079E+00
          1   -1    0    0  501    0  0.00000000000E+00  0.00000000000E+00  0.35645943049E+03  0.35645943049E+03  0.00000000000E+00 0. -1.
         -1   -1    0    0    0  501 -0.00000000000E+00 -0.00000000000E+00 -0.55280223191E+02  0.55280223191E+02  0.00000000000E+00 0.  1.
         23    2    1    2    0    0  0.12848531670E+02 -0.97432444809E+02  0.17248938559E+03  0.22639684700E+03  0.10883371777E+03 0.  0.
         23    2    1    2    0    0 -0.12848531670E+02  0.97432444809E+02  0.12868982171E+03  0.18534280668E+03  0.90181592960E+02 0.  0.
          5    1    4    4  502    0  0.19264547283E+02  0.91026397258E+02  0.11848349110E+03  0.15072277679E+03  0.47000000000E+01 0. -1.
         -5    1    4    4    0  502 -0.32113078953E+02  0.64060475506E+01  0.10206330608E+02  0.34620029889E+02  0.47000000000E+01 0.  1.
          5    1    3    3  503    0 -0.13203616947E+02  0.15827481322E+02  0.63776458029E+02  0.67189071018E+02  0.47000000000E+01 0. -1.
         -5    1    3    3    0  503  0.26052148617E+02 -0.11325992613E+03  0.10871292756E+03  0.15920777598E+03  0.47000000000E+01 0.  1.
<mgrwt>
<rscale>  0 0.14320607E+03</rscale>
<asrwt>0</asrwt>
<pdfrwt beam="1">  1        1 0.54839911E-01 0.14663882E+03</pdfrwt>
<pdfrwt beam="2">  1       -1 0.85046500E-02 0.14663882E+03</pdfrwt>
<totfact> 0.53074791E+03</totfact>
</mgrwt>
</event>
<event>
 8    1  0.2954813E-003  0.9426123E+02  0.7546771E-02  0.1294081E+00
         -1   -1    0    0    0  501 -0.00000000000E+00  0.00000000000E+00  0.31403950108E+03  0.31403950108E+03  0.00000000000E+00 0.  1.
          1   -1    0    0  501    0  0.00000000000E+00 -0.00000000000E+00 -0.41404551373E+02  0.41404551373E+02  0.00000000000E+00 0. -1.
         23    2    1    2    0    0 -0.33744554357E+01 -0.17514232592E+02  0.34951203054E+02  0.10053241399E+03  0.92558329577E+02 0.  0.
         23    2    1    2    0    0  0.33744554357E+01  0.17514232592E+02  0.23768374665E+03  0.25491163847E+03  0.90378342043E+02 0.  0.
          5    1    3    3  502    0  0.26437177132E+01  0.37791975966E+02  0.10577339561E+02  0.39613038295E+02  0.47000000000E+01 0. -1.
         -5    1    3    3    0  502 -0.60181731489E+01 -0.55306208557E+02  0.24373863493E+02  0.60919375691E+02  0.47000000000E+01 0.  1.
          5    1    4    4  503    0  0.45224696184E+02  0.47883481923E+01  0.14995435942E+03  0.15676926144E+03  0.47000000000E+01 0. -1.
         -5    1    4    4    0  503 -0.41850240748E+02  0.12725884399E+02  0.87729387235E+02  0.98142377030E+02  0.47000000000E+01 0.  1.
<mgrwt>
<rscale>  0 0.93721696E+02</rscale>
<asrwt>0</asrwt>
<pdfrwt beam="1">  1        1 0.63699312E-02 0.94261231E+02</pdfrwt>
<pdfrwt beam="2">  1       -1 0.48313768E-01 0.94261231E+02</pdfrwt>
<totfact> 0.48400027E+03</totfact>
</mgrwt>
</event>
<event>
 8    1  0.2954813E-003  0.9500727E+02  0.7546771E-02  0.1292207E+00
         -1   -1    0    0    0  501 -0.00000000000E+00  0.00000000000E+00  0.13206275137E+02  0.13206275137E+02  0.00000000000E+00 0.  1.
          1   -1    0    0  501    0  0.00000000000E+00 -0.00000000000E+00 -0.83554307890E+03  0.83554307890E+03  0.00000000000E+00 0. -1.
         23    2    1    2    0    0  0.86038268859E+01  0.16403033067E+02 -0.59664902992E+03  0.60387928173E+03  0.91307374647E+02 0.  0.
         23    2    1    2    0    0 -0.86038268859E+01 -0.16403033067E+02 -0.22568777384E+03  0.24487007231E+03  0.93184203164E+02 0.  0.
          5    1    4    4  502    0 -0.42310385944E+02 -0.32979214199E+02 -0.16272270124E+03  0.17140176436E+03  0.47000000000E+01 0. -1.
         -5    1    3    3    0  503  0.49843232255E+02  0.69876818691E+01 -0.31339826180E+03  0.31744879272E+03  0.47000000000E+01 0.  1.
          5    1    3    3  503    0 -0.41239405369E+02  0.94153511976E+01 -0.28325076812E+03  0.28643048901E+03  0.47000000000E+01 0. -1.
         -5    1    4    4    0  502  0.33706559058E+02  0.16576181132E+02 -0.62965072602E+02  0.73468307945E+02  0.47000000000E+01 0.  1.
<mgrwt>
<rscale>  0 0.94543865E+02</rscale>
<asrwt>0</asrwt>
<pdfrwt beam="1">  1        1 0.12854511E+00 0.95007268E+02</pdfrwt>
<pdfrwt beam="2">  1       -1 0.20317343E-02 0.95007268E+02</pdfrwt>
<totfact> 0.13424149E+04</totfact>
</mgrwt>
</event>
<event>
 8    1  0.2954813E-003  0.1261683E+03  0.7546771E-02  0.1233760E+00
         -1   -1    0    0    0  501 -0.00000000000E+00  0.00000000000E+00  0.46982949402E+02  0.46982949402E+02  0.00000000000E+00 0.  1.
          1   -1    0    0  501    0  0.00000000000E+00 -0.00000000000E+00 -0.35695152347E+03  0.35695152347E+03  0.00000000000E+00 0. -1.
         23    2    1    2    0    0  0.30719212441E+02 -0.80707487385E+02 -0.20394282910E+03  0.23913185494E+03  0.90188679856E+02 0.  0.
         23    2    1    2    0    0 -0.30719212441E+02  0.80707487385E+02 -0.10602574497E+03  0.16480261794E+03  0.91984105953E+02 0.  0.
          5    1    3    3  502    0 -0.14023972590E+02 -0.76626959009E+02 -0.14714800921E+03  0.16656226844E+03  0.47000000000E+01 0. -1.
         -5    1    3    3    0  502  0.44743185031E+02 -0.40805283762E+01 -0.56794819887E+02  0.72569586498E+02  0.47000000000E+01 0.  1.
          5    1    4    4  503    0 -0.25286817395E+02 -0.12177412900E+02 -0.79815151799E+01  0.29555153586E+02  0.47000000000E+01 0. -1.
         -5    1    4    4    0  503 -0.54323950462E+01  0.92884900286E+02 -0.98044229795E+02  0.13524746435E+03  0.47000000000E+01 0.  1.
<mgrwt>
<rscale>  0 0.12584132E+03</rscale>
<asrwt>0</asrwt>
<pdfrwt beam="1">  1        1 0.54915620E-01 0.12616832E+03</pdfrwt>
<pdfrwt beam="2">  1       -1 0.72281459E-02 0.12616832E+03</pdfrwt>
<totfact> 0.67089155E+03</totfact>
</mgrwt>
</event>
<event>
 8    1  0.2954813E-003  0.1030702E+03  0.7546771E-02  0.1274110E+00
          2   -1    0    0  501    0  0.00000000000E+00  0.00000000000E+00  0.95968123348E+02  0.95968123348E+02  0.00000000000E+00 0. -1.
         -2   -1    0    0    0  501 -0.00000000000E+00 -0.00000000000E+00 -0.11243567750E+03  0.11243567750E+03  0.00000000000E+00 0.  1.
         23    2    1    2    0    0  0.12271667235E+02 -0.45620925758E+02 -0.22247363704E+02  0.10517170587E+03  0.91292276999E+02 0.  0.
         23    2    1    2    0    0 -0.12271667235E+02  0.45620925758E+02  0.57798095524E+01  0.10323209498E+03  0.91605657858E+02 0.  0.
          5    1    4    4  502    0  0.34083950787E+02  0.16810151005E+02  0.24360716133E+02  0.45385365137E+02  0.47000000000E+01 0. -1.
         -5    1    3    3    0  503  0.29809145333E+02 -0.18845260566E+02  0.28092936205E+02  0.45332461392E+02  0.47000000000E+01 0.  1.
          5    1    3    3  503    0 -0.17537478098E+02 -0.26775665192E+02 -0.50340299909E+02  0.59839244475E+02  0.47000000000E+01 0. -1.
         -5    1    4    4    0  502 -0.46355618022E+02  0.28810774753E+02 -0.18580906581E+02  0.57846729842E+02  0.47000000000E+01 0.  1.
<mgrwt>
<rscale>  0 0.10300049E+03</rscale>
<asrwt>0</asrwt>
<pdfrwt beam="1">  1        2 0.14764327E-01 0.10307017E+03</pdfrwt>
<pdfrwt beam="2">  1       -2 0.17297797E-01 0.10307017E+03</pdfrwt>
<totfact> 0.98152046E+03</totfact>
</mgrwt>
</event>
<event>
 8    1  0.2954813E-003  0.1032144E+03  0.7546771E-02  0.1273805E+00
         -1   -1    0    0    0  501 -0.00000000000E+00  0.00000000000E+00  0.83107122727E+03  0.83107122727E+03  0.00000000000E+00 0.  1.
          1   -1    0    0  501    0  0.00000000000E+00 -0.00000000000E+00 -0.22118114684E+02  0.22118114684E+02  0.00000000000E+00 0. -1.
         23    2    1    2    0    0  0.47971479116E+01 -0.51498896975E+02  0.12711484431E+03  0.16358319856E+03  0.89028816622E+02 0.  0.
         23    2    1    2    0    0 -0.47971479116E+01  0.51498896975E+02  0.68183826827E+03  0.68960614339E+03  0.89319986036E+02 0.  0.
          5    1    4    4  502    0 -0.95557736138E+01 -0.18801510367E+02  0.60024977565E+02  0.63795748551E+02  0.47000000000E+01 0. -1.
         -5    1    3    3    0  503  0.42425421885E+02 -0.43146282102E+02  0.97090018970E+02  0.11449925705E+03  0.47000000000E+01 0.  1.
          5    1    3    3  503    0 -0.37628273973E+02 -0.83526148733E+01  0.30024825340E+02  0.49083941510E+02  0.47000000000E+01 0. -1.
         -5    1    4    4    0  502  0.47586257022E+01  0.70300407343E+02  0.62181329071E+03  0.62581039484E+03  0.47000000000E+01 0.  1.
<mgrwt>
<rscale>  0 0.10315136E+03</rscale>
<asrwt>0</asrwt>
<pdfrwt beam="1">  1        1 0.34027875E-02 0.10321438E+03</pdfrwt>
<pdfrwt beam="2">  1       -1 0.12785709E+00 0.10321438E+03</pdfrwt>
<totfact> 0.15570949E+03</totfact>
</mgrwt>
</event>
<event>
 8    1  0.2954813E-003  0.1272496E+03  0.7546771E-02  0.1232127E+00
          2   -1    0    0  501    0  0.00000000000E+00  0.00000000000E+00  0.32522196762E+03  0.32522196762E+03  0.00000000000E+00 0. -1.
         -2   -1    0    0    0  501 -0.00000000000E+00 -0.00000000000E+00 -0.52159852507E+02  0.52159852507E+02  0.00000000000E+00 0.  1.
         23    2    1    2    0    0  0.83740593932E+02 -0.25037584612E+02  0.18040779678E+03  0.21997376781E+03  0.90565543506E+02 0.  0.
         23    2    1    2    0    0 -0.83740593932E+02  0.25037584612E+02  0.92654318340E+02  0.15740805232E+03  0.92482995810E+02 0.  0.
          5    1    3    3  502    0  0.58554129365E+02  0.17351656549E+01  0.17229105688E+03  0.18203816948E+03  0.47000000000E+01 0. -1.
         -5    1    3    3    0  502  0.25186464568E+02 -0.26772750267E+02  0.81167398975E+01  0.37935598332E+02  0.47000000000E+01 0.  1.
          5    1    4    4  503    0 -0.47113525261E+02  0.59881695278E+02  0.52016052065E+02  0.92375653526E+02  0.47000000000E+01 0. -1.
         -5    1    4    4    0  503 -0.36627068671E+02 -0.34844110666E+02  0.40638266275E+02  0.65032398798E+02  0.47000000000E+01 0.  1.
<mgrwt>
<rscale>  0 0.12690155E+03</rscale>
<asrwt>0</asrwt>
<pdfrwt beam="1">  1        2 0.50034148E-01 0.12724965E+03</pdfrwt>
<pdfrwt beam="2">  1       -2 0.80245929E-02 0.12724965E+03</pdfrwt>
<totfact> 0.88996562E+03</totfact>
</mgrwt>
</event>
<event>
 8    1  0.2954813E-003  0.1083711E+03  0.7546771E-02  0.1264003E+00
         -1   -1    0    0    0  501 -0.00000000000E+00  0.00000000000E+00  0.45925511911E+03  0.45925511911E+03  0.00000000000E+00 0.  1.
          1   -1    0    0  501    0  0.00000000000E+00 -0.00000000000E+00 -0.25475614257E+02  0.25475614257E+02  0.00000000000E+00 0. -1.
         23    2    1    2    0    0  0.47504701218E+02  0.32242331785E+02  0.20126426346E+03  0.22820076121E+03  0.90950640849E+02 0.  0.
         23    2    1    2    0    0 -0.47504701218E+02 -0.32242331785E+02  0.23251524139E+03  0.25652997216E+03  0.91913135849E+02 0.  0.
          5    1    3    3  502    0 -0.11482264166E+02  0.36011894925E+02  0.35181609210E+02  0.51851080925E+02  0.47000000000E+01 0. -1.
         -5    1    4    4    0  503 -0.38349400099E+01 -0.42439065322E+02  0.18923269867E+03  0.19402805281E+03  0.47000000000E+01 0.  1.
          5    1    4    4  503    0 -0.43669761208E+02  0.10196733537E+02  0.43282542726E+02  0.62501919360E+02  0.47000000000E+01 0. -1.
         -5    1    3    3    0  502  0.58986965384E+02 -0.37695631394E+01  0.16608265425E+03  0.17634968028E+03  0.47000000000E+01 0.  1.
<mgrwt>
<rscale>  0 0.10816672E+03</rscale>
<asrwt>0</asrwt>
<pdfrwt beam="1">  1        1 0.39193256E-02 0.10837107E+03</pdfrwt>
<pdfrwt beam="2">  1       -1 0.70654627E-01 0.10837107E+03</pdfrwt>
<totfact> 0.46294168E+03</totfact>
</mgrwt>
</event>
<event>
 8    1  0.2954813E-003  0.1302159E+03  0.7546771E-02  0.1228468E+00
          1   -1    0    0  501    0  0.00000000000E+00  0.00000000000E+00  0.17689523392E+03  0.17689523392E+03  0.00000000000E+00 0. -1.
         -1   -1    0    0    0  501 -0.00000000000E+00 -0.00000000000E+00 -0.36195247421E+03  0.36195247421E+03  0.00000000000E+00 0.  1.
         23    2    1    2    0    0  0.64932338473E+02  0.60802203086E+02  0.13926939626E+03  0.19066239735E+03  0.95095050077E+02 0.  0.
         23    2    1    2    0    0 -0.64932338473E+02 -0.60802203086E+02 -0.32432663655E+03  0.34818531078E+03  0.90178306635E+02 0.  0.
          5    1    4    4  502    0 -0.18501622174E+01 -0.45640463142E+02 -0.22370073311E+03  0.22836502133E+03  0.47000000000E+01 0. -1.
         -5    1    3    3    0  503  0.58441665111E+02  0.37586235023E+01  0.27384177563E+02  0.64819276858E+02  0.47000000000E+01 0.  1.
          5    1    3    3  503    0  0.64906733626E+01  0.57043579583E+02  0.11188521870E+03  0.12584312049E+03  0.47000000000E+01 0. -1.
         -5    1    4    4    0  502 -0.63082176256E+02 -0.15161739944E+02 -0.10062590344E+03  0.11982028944E+03  0.47000000000E+01 0.  1.
<mgrwt>
<rscale>  0 0.12932019E+03</rscale>
<asrwt>0</asrwt>
<pdfrwt beam="1">  1        1 0.27214652E-01 0.13021592E+03</pdfrwt>
<pdfrwt beam="2">  1       -1 0.55684995E-01 0.13021592E+03</pdfrwt>
<totfact> 0.57625178E+02</totfact>
</mgrwt>
</event>
<event>
 8    1  0.2954813E-003  0.9995713E+02  0.7546771E-02  0.1281297E+00
          3   -1    0    0  501    0  0.00000000000E+00  0.00000000000E+00  0.11689502532E+02  0.11689502532E+02  0.00000000000E+00 0. -1.
         -3   -1    0    0    0  501 -0.00000000000E+00 -0.00000000000E+00 -0.88275988604E+03  0.88275988604E+03  0.00000000000E+00 0.  1.
         23    2    1    2    0    0  0.34655095634E+02  0.19582702134E+02 -0.53021938285E+03  0.53924405002E+03  0.89817000919E+02 0.  0.
         23    2    1    2    0    0 -0.34655095634E+02 -0.19582702134E+02 -0.34085100066E+03  0.35520533856E+03  0.91689530543E+02 0.  0.
          5    1    3    3  502    0  0.64227123934E+02  0.68672509894E+01 -0.31597040417E+03  0.32253940674E+03  0.47000000000E+01 0. -1.
         -5    1    4    4    0  503 -0.31011243585E+02  0.33803355347E+02 -0.14854274236E+03  0.15553584914E+03  0.47000000000E+01 0.  1.
          5    1    4    4  503    0 -0.36438520487E+01 -0.53386057481E+02 -0.19230825830E+03  0.19966948941E+03  0.47000000000E+01 0. -1.
         -5    1    3    3    0  502 -0.29572028300E+02  0.12715451145E+02 -0.21424897868E+03  0.21670464328E+03  0.47000000000E+01 0.  1.
<mgrwt>
<rscale>  0 0.99525639E+02</rscale>
<asrwt>0</asrwt>
<pdfrwt beam="1">  1        3 0.17983847E-02 0.99957130E+02</pdfrwt>
<pdfrwt beam="2">  1       -3 0.13580924E+00 0.99957130E+02</pdfrwt>
<totfact> 0.10792064E+03</totfact>
</mgrwt>
</event>
<event>
 8    1  0.2954813E-003  0.1125612E+03  0.7546771E-02  0.1265035E+00
         -1   -1    0    0    0  501 -0.00000000000E+00  0.00000000000E+00  0.11790773816E+02  0.11790773816E+02  0.00000000000E+00 0.  1.
          1   -1    0    0  501    0  0.00000000000E+00 -0.00000000000E+00 -0.96498689910E+03  0.96498689910E+03  0.00000000000E+00 0. -1.
         23    2    1    2    0    0  0.25375527938E+02  0.28061862661E+02 -0.63759291795E+03  0.64745251040E+03  0.10601244571E+03 0.  0.
         23    2    1    2    0    0 -0.25375527938E+02 -0.28061862661E+02 -0.31560320733E+03  0.32932516252E+03  0.86129510823E+02 0.  0.
          5    1    3    3  502    0  0.64129364589E+02  0.14930723403E+02 -0.48205107212E+03  0.48654992348E+03  0.47000000000E+01 0. -1.
         -5    1    4    4    0  503 -0.54593668666E+02 -0.20693718900E+02 -0.15182572721E+03  0.16273241872E+03  0.47000000000E+01 0.  1.
          5    1    4    4  503    0  0.29218140727E+02 -0.73681437610E+01 -0.16377748013E+03  0.16659274380E+03  0.47000000000E+01 0. -1.
         -5    1    3    3    0  502 -0.38753836651E+02  0.13131139257E+02 -0.15554184583E+03  0.16090258692E+03  0.47000000000E+01 0.  1.
<mgrwt>
<rscale>  0 0.10762359E+03</rscale>
<asrwt>0</asrwt>
<pdfrwt beam="1">  1        1 0.14845953E+00 0.11256120E+03</pdfrwt>
<pdfrwt beam="2">  1       -1 0.18139651E-02 0.11256120E+03</pdfrwt>
<totfact> 0.12745384E+04</totfact>
</mgrwt>
</event>
<event>
 8    1  0.2954813E-003  0.1139996E+03  0.7546771E-02  0.1255547E+00
          1   -1    0    0  501    0  0.00000000000E+00  0.00000000000E+00  0.34308871639E+03  0.34308871639E+03  0.00000000000E+00 0. -1.
         -1   -1    0    0    0  501 -0.00000000000E+00 -0.00000000000E+00 -0.36346376087E+02  0.36346376087E+02  0.00000000000E+00 0.  1.
         23    2    1    2    0    0  0.42580128981E+02  0.35663161253E+02  0.14815456754E+03  0.18693764562E+03  0.99553900047E+02 0.  0.
         23    2    1    2    0    0 -0.42580128981E+02 -0.35663161253E+02  0.15858777276E+03  0.19249744685E+03  0.93916222878E+02 0.  0.
          5    1    3    3  502    0 -0.31221727625E+02  0.12462594847E+02  0.28236621456E+02  0.44153248323E+02  0.47000000000E+01 0. -1.
         -5    1    4    4    0  503  0.93720236910E+01 -0.20974930814E+02 -0.14885803505E+01  0.23496561922E+02  0.47000000000E+01 0.  1.
          5    1    4    4  503    0 -0.51952152672E+02 -0.14688230440E+02  0.16007635311E+03  0.16900088493E+03  0.47000000000E+01 0. -1.
         -5    1    3    3    0  502  0.73801856606E+02  0.23200566407E+02  0.11991794608E+03  0.14278439730E+03  0.47000000000E+01 0.  1.
<mgrwt>
<rscale>  0 0.11275726E+03</rscale>
<asrwt>0</asrwt>
<pdfrwt beam="1">  1        1 0.52782877E-01 0.11399959E+03</pdfrwt>
<pdfrwt beam="2">  1       -1 0.55917504E-02 0.11399959E+03</pdfrwt>
<totfact> 0.10250851E+04</totfact>
</mgrwt>
</event>
<event>
 8    1  0.2954813E-003  0.1516181E+03  0.7546771E-02  0.1198574E+00
          1   -1    0    0  501    0  0.00000000000E+00  0.00000000000E+00  0.11961407701E+04  0.11961407701E+04  0.00000000000E+00 0. -1.
         -1   -1    0    0    0  501 -0.00000000000E+00 -0.00000000000E+00 -0.19925878443E+02  0.19925878443E+02  0.00000000000E+00 0.  1.
         23    2    1    2    0    0 -0.21384165806E+02  0.11688016229E+03  0.70563706680E+03  0.72174214452E+03  0.94179606342E+02 0.  0.
         23    2    1    2    0    0  0.21384165806E+02 -0.11688016229E+03  0.47057782490E+03  0.49432450406E+03  0.93781507499E+02 0.  0.
          5    1    3    3  502    0  0.24263617061E+02  0.99877987771E+01  0.25284311010E+03  0.25424438550E+03  0.47000000000E+01 0. -1.
         -5    1    3    3    0  502 -0.45647782867E+02  0.10689236351E+03  0.45279395671E+03  0.46749775902E+03  0.47000000000E+01 0.  1.
          5    1    4    4  503    0  0.53992987278E+02 -0.45866830413E+02  0.26497712040E+03  0.27432457626E+03  0.47000000000E+01 0. -1.
         -5    1    4    4    0  503 -0.32608821472E+02 -0.71013331872E+02  0.20560070450E+03  0.21999992780E+03  0.47000000000E+01 0.  1.
<mgrwt>
<rscale>  0 0.15155634E+03</rscale>
<asrwt>0</asrwt>
<pdfrwt beam="1">  1        1 0.18402160E+00 0.15161812E+03</pdfrwt>
<pdfrwt beam="2">  1       -1 0.30655207E-02 0.15161812E+03</pdfrwt>
<totfact> 0.41496752E+03</totfact>
</mgrwt>
</event>
<event>
 8    1  0.2954813E-003  0.1197458E+03  0.7546771E-02  0.1250158E+00
          3   -1    0    0  501    0  0.00000000000E+00  0.00000000000E+00  0.53818251907E+02  0.53818251907E+02  0.00000000000E+00 0. -1.
         -3   -1    0    0    0  501 -0.00000000000E+00 -0.00000000000E+00 -0.29817220188E+03  0.29817220188E+03  0.00000000000E+00 0.  1.
         23    2    1    2    0    0 -0.25682788327E+02 -0.45248605032E+02 -0.19716007017E+03  0.22328024715E+03  0.90966662161E+02 0.  0.
         23    2    1    2    0    0  0.25682788327E+02  0.45248605032E+02 -0.47193879807E+02  0.12871020664E+03  0.10785181096E+03 0.  0.
          5    1    4    4  502    0 -0.21579537293E+02  0.21147593589E+02  0.24650959661E+02  0.39276671913E+02  0.47000000000E+01 0. -1.
         -5    1    4    4    0  502  0.47262325620E+02  0.24101011443E+02 -0.71844839467E+02  0.89433534726E+02  0.47000000000E+01 0.  1.
          5    1    3    3  503    0 -0.13200826466E+02 -0.69155619673E+02 -0.17273898778E+03  0.18659477338E+03  0.47000000000E+01 0. -1.
         -5    1    3    3    0  503 -0.12481961860E+02  0.23907014641E+02 -0.24421082386E+02  0.36685473772E+02  0.47000000000E+01 0.  1.
<mgrwt>
<rscale>  0 0.11581912E+03</rscale>
<asrwt>0</asrwt>
<pdfrwt beam="1">  1        3 0.82797310E-02 0.11974579E+03</pdfrwt>
<pdfrwt beam="2">  1       -3 0.45872647E-01 0.11974579E+03</pdfrwt>
<totfact> 0.10801143E+03</totfact>
</mgrwt>
</event>
<event>
 8    1  0.2954813E-003  0.1063856E+03  0.7546771E-02  0.1269109E+00
          2   -1    0    0  501    0  0.00000000000E+00  0.00000000000E+00  0.61208253688E+03  0.61208253688E+03  0.00000000000E+00 0. -1.
         -2   -1    0    0    0  501 -0.00000000000E+00 -0.00000000000E+00 -0.23384027430E+02  0.23384027430E+02  0.00000000000E+00 0.  1.
         23    2    1    2    0    0 -0.22316002036E+02 -0.47376503667E+02  0.13675472601E+03  0.17117023604E+03  0.88627634369E+02 0.  0.
         23    2    1    2    0    0  0.22316002036E+02  0.47376503667E+02  0.45194378344E+03  0.46429632827E+03  0.92603239730E+02 0.  0.
          5    1    3    3  502    0  0.48289582093E+01 -0.64722183390E+02  0.63101141610E+02  0.90642837184E+02  0.47000000000E+01 0. -1.
         -5    1    3    3    0  502 -0.27144960245E+02  0.17345679723E+02  0.73653584404E+02  0.80527398861E+02  0.47000000000E+01 0.  1.
          5    1    4    4  503    0  0.11375934562E+02 -0.20667550101E+02  0.40588477184E+02  0.47181288606E+02  0.47000000000E+01 0. -1.
         -5    1    4    4    0  503  0.10940067474E+02  0.68044053768E+02  0.41135530625E+03  0.41711503966E+03  0.47000000000E+01 0.  1.
<mgrwt>
<rscale>  0 0.10551447E+03</rscale>
<asrwt>0</asrwt>
<pdfrwt beam="1">  1        2 0.94166532E-01 0.10638561E+03</pdfrwt>
<pdfrwt beam="2">  1       -2 0.35975432E-02 0.10638561E+03</pdfrwt>
<totfact> 0.14789585E+04</totfact>
</mgrwt>
</event>
<event>
 7    1  0.2954813E-003  0.1576493E+03  0.7546771E-02  0.1210227E+00
          1   -1    0    0  501    0  0.00000000000E+00  0.00000000000E+00  0.73482485556E+03  0.73482485556E+03  0.00000000000E+00 0. -1.
         -1   -1    0    0    0  501 -0.00000000000E+00 -0.00000000000E+00 -0.58939958901E+02  0.58939958901E+02  0.00000000000E+00 0.  1.
         23    2    1    2    0    0 -0.32892859100E+02 -0.34640360432E+02  0.61644826221E+03  0.62528330263E+03  0.93214021546E+02 0.  0.
          5    1    3    3  502    0 -0.61503213229E+02 -0.22339558040E+02  0.51211567372E+03  0.51630054654E+03  0.47000000000E+01 0. -1.
         -5    1    1    2    0  503  0.61451541868E+02  0.74309269814E+02  0.72331400711E+01  0.96812023497E+02  0.47000000000E+01 0.  1.
          5    1    1    2  503    0 -0.28558682768E+02 -0.39668909382E+02  0.52203494376E+02  0.71669488334E+02  0.47000000000E+01 0. -1.
         -5    1    3    3    0  502  0.28610354128E+02 -0.12300802392E+02  0.10433258849E+03  0.10898275609E+03  0.47000000000E+01 0.  1.
<mgrwt>
<rscale>  0 0.14233070E+03</rscale>
<asrwt>0</asrwt>
<pdfrwt beam="1">  1        1 0.11304997E+00 0.15764931E+03</pdfrwt>
<pdfrwt beam="2">  1       -1 0.90676865E-02 0.15764931E+03</pdfrwt>
<totfact> 0.18455835E+03</totfact>
</mgrwt>
</event>
<event>
 8    1  0.2954813E-003  0.1022470E+03  0.7546771E-02  0.1276046E+00
         -2   -1    0    0    0  501 -0.00000000000E+00  0.00000000000E+00  0.29255021607E+03  0.29255021607E+03  0.00000000000E+00 0.  1.
          2   -1    0    0  501    0  0.00000000000E+00 -0.00000000000E+00 -0.37923003571E+02  0.37923003571E+02  0.00000000000E+00 0. -1.
         23    2    1    2    0    0  0.88154727228E+01 -0.46156925594E+02  0.16989276936E+03  0.19828768489E+03  0.90809022448E+02 0.  0.
         23    2    1    2    0    0 -0.88154727228E+01  0.46156925594E+02  0.84734443138E+02  0.13218553475E+03  0.89916157636E+02 0.  0.
          5    1    4    4  502    0  0.53845415268E+00  0.28056647487E+02 -0.13682719189E+02  0.31571699440E+02  0.47000000000E+01 0. -1.
         -5    1    4    4    0  502 -0.93539268755E+01  0.18100278107E+02  0.98417162327E+02  0.10061383531E+03  0.47000000000E+01 0.  1.
          5    1    3    3  503    0 -0.18278696263E+02  0.18300482849E+02  0.80602560399E+02  0.84781372674E+02  0.47000000000E+01 0. -1.
         -5    1    3    3    0  503  0.27094168986E+02 -0.64457408443E+02  0.89290208961E+02  0.11350631221E+03  0.47000000000E+01 0.  1.
<mgrwt>
<rscale>  0 0.10204840E+03</rscale>
<asrwt>0</asrwt>
<pdfrwt beam="1">  1        2 0.58343084E-02 0.10224702E+03</pdfrwt>
<pdfrwt beam="2">  1       -2 0.45007724E-01 0.10224702E+03</pdfrwt>
<totfact> 0.56111985E+03</totfact>
</mgrwt>
</event>
<event>
 8    1  0.2954813E-003  0.9621604E+02  0.7546771E-02  0.1288752E+00
         -1   -1    0    0    0  501 -0.00000000000E+00  0.00000000000E+00  0.17258548809E+03  0.17258548809E+03  0.00000000000E+00 0.  1.
          1   -1    0    0  501    0  0.00000000000E+00 -0.00000000000E+00 -0.77034418718E+02  0.77034418718E+02  0.00000000000E+00 0. -1.
         23    2    1    2    0    0  0.24782918861E+02  0.17300948709E+02  0.11707377979E+03  0.15153809907E+03  0.91345550861E+02 0.  0.
         23    2    1    2    0    0 -0.24782918861E+02 -0.17300948709E+02 -0.21522710420E+02  0.98081807735E+02  0.90792610113E+02 0.  0.
          5    1    4    4  502    0 -0.44882111870E+02 -0.42503774817E+02 -0.21155760981E+02  0.65502908808E+02  0.47000000000E+01 0. -1.
         -5    1    4    4    0  502  0.20099193008E+02  0.25202826108E+02 -0.36694943970E+00  0.32578898927E+02  0.47000000000E+01 0.  1.
          5    1    3    3  503    0 -0.12469889570E+02  0.46374177068E+02  0.51463140644E+02  0.70545072752E+02  0.47000000000E+01 0. -1.
         -5    1    3    3    0  503  0.37252808432E+02 -0.29073228358E+02  0.65610639145E+02  0.80993026319E+02  0.47000000000E+01 0.  1.
<mgrwt>
<rscale>  0 0.96084568E+02</rscale>
<asrwt>0</asrwt>
<pdfrwt beam="1">  1        1 0.11851449E-01 0.96216036E+02</pdfrwt>
<pdfrwt beam="2">  1       -1 0.26551613E-01 0.96216036E+02</pdfrwt>
<totfact> 0.59423319E+03</totfact>
</mgrwt>
</event>
<event>
 8    1  0.2954813E-003  0.1109100E+03  0.7546771E-02  0.1261439E+00
         -1   -1    0    0    0  501 -0.00000000000E+00  0.00000000000E+00  0.71257566939E+02  0.71257566939E+02  0.00000000000E+00 0.  1.
          1   -1    0    0  501    0  0.00000000000E+00 -0.00000000000E+00 -0.30038458391E+03  0.30038458391E+03  0.00000000000E+00 0. -1.
         23    2    1    2    0    0  0.11065953423E+02  0.39861942862E+02 -0.23804312056E+03  0.26037432695E+03  0.97050672725E+02 0.  0.
         23    2    1    2    0    0 -0.11065953423E+02 -0.39861942862E+02  0.89161035839E+01  0.11126782390E+03  0.10290579147E+03 0.  0.
          5    1    3    3  502    0  0.47986030140E+02  0.10748149092E+02 -0.69060846893E+02  0.84909789607E+02  0.47000000000E+01 0. -1.
         -5    1    3    3    0  502 -0.36920076717E+02  0.29113793771E+02 -0.16898227367E+03  0.17546453735E+03  0.47000000000E+01 0.  1.
          5    1    4    4  503    0  0.30119442503E+02 -0.34081170413E+02 -0.29533533715E+02  0.54433690001E+02  0.47000000000E+01 0. -1.
         -5    1    4    4    0  503 -0.41185395926E+02 -0.57807724488E+01  0.38449637299E+02  0.56834133900E+02  0.47000000000E+01 0.  1.
<mgrwt>
<rscale>  0 0.10953206E+03</rscale>
<asrwt>0</asrwt>
<pdfrwt beam="1">  1        1 0.46213013E-01 0.11091002E+03</pdfrwt>
<pdfrwt beam="2">  1       -1 0.10962703E-01 0.11091002E+03</pdfrwt>
<totfact> 0.43899915E+03</totfact>
</mgrwt>
</event>
<event>
 7    1  0.2954813E-003  0.1402283E+03  0.7546771E-02  0.1225100E+00
          4   -1    0    0  501    0  0.00000000000E+00  0.00000000000E+00  0.61382618793E+02  0.61382618793E+02  0.00000000000E+00 0. -1.
         -4   -1    0    0    0  501 -0.00000000000E+00 -0.00000000000E+00 -0.30721354435E+03  0.30721354435E+03  0.00000000000E+00 0.  1.
         23    2    1    2    0    0  0.23590247868E+02 -0.48279620813E+02 -0.18740145335E+03  0.21668175582E+03  0.94574082119E+02 0.  0.
          5    1    1    2  502    0 -0.76620061725E+02  0.39240973148E+02 -0.37055905690E+02  0.93838787177E+02  0.47000000000E+01 0. -1.
         -5    1    1    2    0  502  0.53029813857E+02  0.90386476658E+01 -0.21373566517E+02  0.58075620143E+02  0.47000000000E+01 0.  1.
          5    1    3    3  503    0 -0.24896117410E+02 -0.44097960607E+02 -0.52056990193E+02  0.72776830239E+02  0.47000000000E+01 0. -1.
         -5    1    3    3    0  503  0.48486365278E+02 -0.41816602065E+01 -0.13534446316E+03  0.14390492558E+03  0.47000000000E+01 0.  1.
<mgrwt>
<rscale>  0 0.13160052E+03</rscale>
<asrwt>0</asrwt>
<pdfrwt beam="1">  1        4 0.94434796E-02 0.14022833E+03</pdfrwt>
<pdfrwt beam="2">  1       -4 0.47263623E-01 0.14022833E+03</pdfrwt>
<totfact> 0.60673723E+02</totfact>
</mgrwt>
</event>
<event>
 8    1  0.2954813E-003  0.9830918E+02  0.7546771E-02  0.1289287E+00
          1   -1    0    0  501    0  0.00000000000E+00  0.00000000000E+00  0.10947763043E+03  0.10947763043E+03  0.00000000000E+00 0. -1.
         -1   -1    0    0    0  501 -0.00000000000E+00 -0.00000000000E+00 -0.84406737545E+02  0.84406737545E+02  0.00000000000E+00 0.  1.
         23    2    1    2    0    0 -0.30472171339E+02 -0.19467952266E+02  0.35365113518E+02  0.10447672681E+03  0.91417398776E+02 0.  0.
         23    2    1    2    0    0  0.30472171339E+02  0.19467952266E+02 -0.10294220633E+02  0.89407641167E+02  0.81118437664E+02 0.  0.
          5    1    4    4  502    0 -0.90284849061E+01 -0.20934905289E+02  0.14606837820E+02  0.27481512154E+02  0.47000000000E+01 0. -1.
         -5    1    3    3    0  503 -0.22494277656E+02  0.25824542714E+02  0.45507187916E+02  0.57147998090E+02  0.47000000000E+01 0.  1.
          5    1    3    3  503    0 -0.79778936827E+01 -0.45292494980E+02 -0.10142074398E+02  0.47328728720E+02  0.47000000000E+01 0. -1.
         -5    1    4    4    0  502  0.39500656245E+02  0.40402857556E+02 -0.24901058453E+02  0.61926129013E+02  0.47000000000E+01 0.  1.
<mgrwt>
<rscale>  0 0.95843958E+02</rscale>
<asrwt>0</asrwt>
<pdfrwt beam="1">  1        1 0.16842712E-01 0.98309182E+02</pdfrwt>
<pdfrwt beam="2">  1       -1 0.12985652E-01 0.98309182E+02</pdfrwt>
<totfact> 0.11755402E+04</totfact>
</mgrwt>
</event>
<event>
 8    1  0.2954813E-003  0.1422043E+03  0.7546771E-02  0.1211162E+00
          1   -1    0    0  501    0  0.00000000000E+00  0.00000000000E+00  0.77488732591E+03  0.77488732591E+03  0.00000000000E+00 0. -1.
         -1   -1    0    0    0  501 -0.00000000000E+00 -0.00000000000E+00 -0.26252684633E+02  0.26252684633E+02  0.00000000000E+00 0.  1.
         23    2    1    2    0    0 -0.10558757497E+03 -0.10639806007E+02  0.43676995106E+03  0.45933652295E+03  0.94657856003E+02 0.  0.
         23    2    1    2    0    0  0.10558757497E+03  0.10639806007E+02  0.31186469022E+03  0.34180348760E+03  0.91148766689E+02 0.  0.
          5    1    3    3  502    0 -0.50964073557E+02 -0.51980969856E+02  0.20403094034E+03  0.21667965441E+03  0.47000000000E+01 0. -1.
         -5    1    3    3    0  502 -0.54623501414E+02  0.41341163849E+02  0.23273901072E+03  0.24265686853E+03  0.47000000000E+01 0.  1.
          5    1    4    4  503    0  0.19212959472E+02  0.40311164851E+02  0.14139230038E+03  0.14835093674E+03  0.47000000000E+01 0. -1.
         -5    1    4    4    0  503  0.86374615499E+02 -0.29671358844E+02  0.17047238984E+03  0.19345255086E+03  0.47000000000E+01 0.  1.
<mgrwt>
<rscale>  0 0.14162288E+03</rscale>
<asrwt>0</asrwt>
<pdfrwt beam="1">  1        1 0.11921342E+00 0.14220426E+03</pdfrwt>
<pdfrwt beam="2">  1       -1 0.40388752E-02 0.14220426E+03</pdfrwt>
<totfact> 0.56980159E+03</totfact>
</mgrwt>
</event>
<event>
 8    1  0.2954813E-003  0.1292236E+03  0.7546771E-02  0.1241041E+00
          3   -1    0    0  501    0  0.00000000000E+00  0.00000000000E+00  0.88546488700E+02  0.88546488700E+02  0.00000000000E+00 0. -1.
         -3   -1    0    0    0  501 -0.00000000000E+00 -0.00000000000E+00 -0.15191185379E+03  0.15191185379E+03  0.00000000000E+00 0.  1.
         23    2    1    2    0    0 -0.27300998658E+02  0.37566588283E+02 -0.53272660668E+02  0.13977382658E+03  0.12059085015E+03 0.  0.
         23    2    1    2    0    0  0.27300998658E+02 -0.37566588283E+02 -0.10092704417E+02  0.10068451591E+03  0.88763258039E+02 0.  0.
          5    1    4    4  502    0  0.59317708411E+02 -0.29347423480E+02 -0.22342649477E+01  0.66384815552E+02  0.47000000000E+01 0. -1.
         -5    1    3    3    0  503 -0.73223744688E+02  0.28339995035E+02 -0.48615088444E+02  0.92468313108E+02  0.47000000000E+01 0.  1.
          5    1    3    3  503    0  0.45922746029E+02  0.92265932479E+01 -0.46575722245E+01  0.47305513472E+02  0.47000000000E+01 0. -1.
         -5    1    4    4    0  502 -0.32016709752E+02 -0.82191648023E+01 -0.78584394693E+01  0.34299700353E+02  0.47000000000E+01 0.  1.
<mgrwt>
<rscale>  0 0.12125478E+03</rscale>
<asrwt>0</asrwt>
<pdfrwt beam="1">  1        3 0.13622537E-01 0.12922363E+03</pdfrwt>
<pdfrwt beam="2">  1       -3 0.23371054E-01 0.12922363E+03</pdfrwt>
<totfact> 0.16924713E+03</totfact>
</mgrwt>
</event>
<event>
 8    1  0.2954813E-003  0.1046728E+03  0.7546771E-02  0.1271174E+00
          2   -1    0    0  501    0  0.00000000000E+00  0.00000000000E+00  0.11731825256E+04  0.11731825256E+04  0.00000000000E+00 0. -1.
         -2   -1    0    0    0  501 -0.00000000000E+00 -0.00000000000E+00 -0.97232112069E+01  0.97232112069E+01  0.00000000000E+00 0.  1.
         23    2    1    2    0    0  0.31595621489E+02 -0.40077233535E+02  0.45127511520E+03  0.46307052820E+03  0.90446760817E+02 0.  0.
         23    2    1    2    0    0 -0.31595621489E+02  0.40077233535E+02  0.71218419918E+03  0.71983520859E+03  0.91388872555E+02 0.  0.
          5    1    3    3  502    0 -0.13543695317E+02 -0.42641832825E+02  0.33854461990E+03  0.34152058101E+03  0.47000000000E+01 0. -1.
         -5    1    4    4    0  503 -0.39204559874E+02  0.66186937965E+02  0.52706864179E+03  0.53267358808E+03  0.47000000000E+01 0.  1.
          5    1    4    4  503    0  0.76089383847E+01 -0.26109704430E+02  0.18511555738E+03  0.18716162052E+03  0.47000000000E+01 0. -1.
         -5    1    3    3    0  502  0.45139316806E+02  0.25645992906E+01  0.11273049530E+03  0.12154994719E+03  0.47000000000E+01 0.  1.
<mgrwt>
<rscale>  0 0.10446680E+03</rscale>
<asrwt>0</asrwt>
<pdfrwt beam="1">  1        2 0.18048951E+00 0.10467279E+03</pdfrwt>
<pdfrwt beam="2">  1       -2 0.14958796E-02 0.10467279E+03</pdfrwt>
<totfact> 0.22971433E+04</totfact>
</mgrwt>
</event>
<event>
 8    1  0.2954813E-003  0.1022708E+03  0.7546771E-02  0.1275909E+00
          1   -1    0    0  501    0  0.00000000000E+00  0.00000000000E+00  0.16828483210E+03  0.16828483210E+03  0.00000000000E+00 0. -1.
         -1   -1    0    0    0  501 -0.00000000000E+00 -0.00000000000E+00 -0.11920189035E+03  0.11920189035E+03  0.00000000000E+00 0.  1.
         23    2    1    2    0    0 -0.37903733637E+02 -0.28651904988E+02  0.12427199535E+03  0.16055083642E+03  0.89863327136E+02 0.  0.
         23    2    1    2    0    0  0.37903733637E+02  0.28651904988E+02 -0.75189053595E+02  0.12693588604E+03  0.90563241442E+02 0.  0.
          5    1    4    4  502    0 -0.25666295067E+02  0.27722846051E+02 -0.22442873631E+02  0.44193749246E+02  0.47000000000E+01 0. -1.
         -5    1    3    3    0  503  0.26758483192E+02 -0.23416959437E+02  0.53696267387E+02  0.64573597881E+02  0.47000000000E+01 0.  1.
          5    1    3    3  503    0 -0.64662216829E+02 -0.52349455508E+01  0.70575727961E+02  0.95977238538E+02  0.47000000000E+01 0. -1.
         -5    1    4    4    0  502  0.63570028704E+02  0.92905893723E+00 -0.52746179964E+02  0.82742136791E+02  0.47000000000E+01 0.  1.
<mgrwt>
<rscale>  0 0.10211567E+03</rscale>
<asrwt>0</asrwt>
<pdfrwt beam="1">  1        1 0.25889974E-01 0.10227084E+03</pdfrwt>
<pdfrwt beam="2">  1       -1 0.18338752E-01 0.10227084E+03</pdfrwt>
<totfact> 0.40120737E+03</totfact>
</mgrwt>
</event>
<event>
 8    1  0.2954813E-003  0.1110226E+03  0.7546771E-02  0.1264276E+00
         -3   -1    0    0    0  501 -0.00000000000E+00  0.00000000000E+00  0.23842998621E+02  0.23842998621E+02  0.00000000000E+00 0.  1.
          3   -1    0    0  501    0  0.00000000000E+00 -0.00000000000E+00 -0.51848194792E+03  0.51848194792E+03  0.00000000000E+00 0. -1.
         23    2    1    2    0    0  0.39311062059E+02 -0.24176585795E+01 -0.34665797587E+03  0.36400243100E+03  0.10380179608E+03 0.  0.
         23    2    1    2    0    0 -0.39311062059E+02  0.24176585795E+01 -0.14798097343E+03  0.17832251554E+03  0.91374757874E+02 0.  0.
          5    1    3    3  502    0  0.40427583141E+02  0.27191097998E+02 -0.68276027636E+02  0.84008637882E+02  0.47000000000E+01 0. -1.
         -5    1    3    3    0  502 -0.11165210827E+01 -0.29608756577E+02 -0.27838194823E+03  0.27999379312E+03  0.47000000000E+01 0.  1.
          5    1    4    4  503    0 -0.19966341996E+02 -0.18792331857E+02 -0.14658350341E+03  0.14919993304E+03  0.47000000000E+01 0. -1.
         -5    1    4    4    0  503 -0.19344720062E+02  0.21209990437E+02 -0.13974700255E+01  0.29122582494E+02  0.47000000000E+01 0.  1.
<mgrwt>
<rscale>  0 0.10802293E+03</rscale>
<asrwt>0</asrwt>
<pdfrwt beam="1">  1        3 0.79766448E-01 0.11102260E+03</pdfrwt>
<pdfrwt beam="2">  1       -3 0.36681539E-02 0.11102260E+03</pdfrwt>
<totfact> 0.12442788E+03</totfact>
</mgrwt>
</event>
<event>
 8    1  0.2954813E-003  0.1047776E+03  0.7546771E-02  0.1271454E+00
         -2   -1    0    0    0  501 -0.00000000000E+00  0.00000000000E+00  0.32089448225E+02  0.32089448225E+02  0.00000000000E+00 0.  1.
          2   -1    0    0  501    0  0.00000000000E+00 -0.00000000000E+00 -0.38552139870E+03  0.38552139870E+03  0.00000000000E+00 0. -1.
         23    2    1    2    0    0  0.42238364742E+02 -0.22475835774E+02 -0.25267167600E+03  0.27353484942E+03  0.93215317124E+02 0.  0.
         23    2    1    2    0    0 -0.42238364742E+02  0.22475835774E+02 -0.10076027447E+03  0.14407599750E+03  0.91192200839E+02 0.  0.
          5    1    3    3  502    0 -0.68486132486E+01 -0.22238872043E+02 -0.19991770530E+03  0.20132225367E+03  0.47000000000E+01 0. -1.
         -5    1    4    4    0  503 -0.35582598978E+02  0.50266088608E+02 -0.32209073504E+02  0.69658563220E+02  0.47000000000E+01 0.  1.
          5    1    4    4  503    0 -0.66557657633E+01 -0.27790252833E+02 -0.68551200967E+02  0.74417434277E+02  0.47000000000E+01 0. -1.
         -5    1    3    3    0  502  0.49086977990E+02 -0.23696373135E+00 -0.52753970706E+02  0.72212595752E+02  0.47000000000E+01 0.  1.
<mgrwt>
<rscale>  0 0.10432572E+03</rscale>
<asrwt>0</asrwt>
<pdfrwt beam="1">  1        2 0.59310984E-01 0.10477756E+03</pdfrwt>
<pdfrwt beam="2">  1       -2 0.49368382E-02 0.10477756E+03</pdfrwt>
<totfact> 0.15276856E+04</totfact>
</mgrwt>
</event>
<event>
 8    1  0.2954813E-003  0.1091265E+03  0.7546771E-02  0.1262694E+00
         -1   -1    0    0    0  501 -0.00000000000E+00  0.00000000000E+00  0.94977975758E+02  0.94977975758E+02  0.00000000000E+00 0.  1.
          1   -1    0    0  501    0  0.00000000000E+00 -0.00000000000E+00 -0.18283624952E+03  0.18283624952E+03  0.00000000000E+00 0. -1.
         23    2    1    2    0    0 -0.20891073683E+02 -0.55931692424E+02  0.34609469992E+02  0.11448318860E+03  0.91344369736E+02 0.  0.
         23    2    1    2    0    0  0.20891073683E+02  0.55931692424E+02 -0.12246774376E+03  0.16333103668E+03  0.90077123092E+02 0.  0.
          5    1    3    3  502    0 -0.21355138054E+02  0.93759824644E+01 -0.18529164802E+02  0.30155777502E+02  0.47000000000E+01 0. -1.
         -5    1    4    4    0  503  0.56149847636E+00  0.32923146689E+02  0.36345902336E+01  0.33459663994E+02  0.47000000000E+01 0.  1.
          5    1    4    4  503    0  0.20329575206E+02  0.23008545735E+02 -0.12610233399E+03  0.12987137269E+03  0.47000000000E+01 0. -1.
         -5    1    3    3    0  502  0.46406437154E+00 -0.65307674889E+02  0.53138634794E+02  0.84327411101E+02  0.47000000000E+01 0.  1.
<mgrwt>
<rscale>  0 0.10886086E+03</rscale>
<asrwt>0</asrwt>
<pdfrwt beam="1">  1        1 0.28128653E-01 0.10912646E+03</pdfrwt>
<pdfrwt beam="2">  1       -1 0.14611996E-01 0.10912646E+03</pdfrwt>
<totfact> 0.51904455E+03</totfact>
</mgrwt>
</event>
<event>
 8    1  0.2954813E-003  0.9385049E+02  0.7546771E-02  0.1294794E+00
         -1   -1    0    0    0  501 -0.00000000000E+00  0.00000000000E+00  0.12778883788E+02  0.12778883788E+02  0.00000000000E+00 0.  1.
          1   -1    0    0  501    0  0.00000000000E+00 -0.00000000000E+00 -0.68502810882E+03  0.68502810882E+03  0.00000000000E+00 0. -1.
         23    2    1    2    0    0 -0.22275213266E+01  0.14766181279E+02 -0.30033231273E+03  0.31465443212E+03  0.92654798178E+02 0.  0.
         23    2    1    2    0    0  0.22275213266E+01 -0.14766181279E+02 -0.37191691231E+03  0.38315256049E+03  0.90888354521E+02 0.  0.
          5    1    3    3  502    0 -0.56321316415E+01  0.41219137410E+02 -0.27294805663E+03  0.27614030820E+03  0.47000000000E+01 0. -1.
         -5    1    3    3    0  502  0.34046103149E+01 -0.26452956131E+02 -0.27384256101E+02  0.38514123925E+02  0.47000000000E+01 0.  1.
          5    1    4    4  503    0  0.26980804425E+02  0.28096852070E+02 -0.21487431109E+03  0.21842723381E+03  0.47000000000E+01 0. -1.
         -5    1    4    4    0  503 -0.24753283098E+02 -0.42863033349E+02 -0.15704260122E+03  0.16472532668E+03  0.47000000000E+01 0.  1.
<mgrwt>
<rscale>  0 0.93411538E+02</rscale>
<asrwt>0</asrwt>
<pdfrwt beam="1">  1        1 0.10538895E+00 0.93850485E+02</pdfrwt>
<pdfrwt beam="2">  1       -1 0.19659819E-02 0.93850485E+02</pdfrwt>
<totfact> 0.18754896E+04</totfact>
</mgrwt>
</event>
<event>
 8    1  0.2954813E-003  0.9541691E+02  0.7546771E-02  0.1291706E+00
         -1   -1    0    0    0  501 -0.00000000000E+00  0.00000000000E+00  0.11466760465E+03  0.11466760465E+03  0.00000000000E+00 0.  1.
          1   -1    0    0  501    0  0.00000000000E+00 -0.00000000000E+00 -0.24040775935E+03  0.24040775935E+03  0.00000000000E+00 0. -1.
         23    2    1    2    0    0  0.24883368564E+02  0.16006923983E+02 -0.20883986921E+03  0.22854493766E+03  0.87995988045E+02 0.  0.
         23    2    1    2    0    0 -0.24883368564E+02 -0.16006923983E+02  0.83099714509E+02  0.12653042635E+03  0.90713739828E+02 0.  0.
          5    1    3    3  502    0  0.10699888244E+02 -0.20219777577E+02 -0.17563687229E+03  0.17718275289E+03  0.47000000000E+01 0. -1.
         -5    1    4    4    0  503  0.13837986008E+02 -0.17081193905E+02  0.84545728500E+02  0.87483296975E+02  0.47000000000E+01 0.  1.
          5    1    4    4  503    0 -0.38721354572E+02  0.10742699221E+01 -0.14460139905E+01  0.39047129372E+02  0.47000000000E+01 0. -1.
         -5    1    3    3    0  502  0.14183480320E+02  0.36226701560E+02 -0.33202996918E+02  0.51362184769E+02  0.47000000000E+01 0.  1.
<mgrwt>
<rscale>  0 0.94765271E+02</rscale>
<asrwt>0</asrwt>
<pdfrwt beam="1">  1        1 0.36985808E-01 0.95416908E+02</pdfrwt>
<pdfrwt beam="2">  1       -1 0.17641170E-01 0.95416908E+02</pdfrwt>
<totfact> 0.27387471E+03</totfact>
</mgrwt>
</event>
<event>
 8    1  0.2954813E-003  0.1326893E+03  0.7546771E-02  0.1225346E+00
          1   -1    0    0  501    0  0.00000000000E+00  0.00000000000E+00  0.12528591504E+04  0.12528591504E+04  0.00000000000E+00 0. -1.
         -1   -1    0    0    0  501 -0.00000000000E+00 -0.00000000000E+00 -0.17983085249E+02  0.17983085249E+02  0.00000000000E+00 0.  1.
         23    2    1    2    0    0 -0.46550031969E+02 -0.83549463323E+02  0.31023060223E+03  0.33741589848E+03  0.91973059571E+02 0.  0.
         23    2    1    2    0    0  0.46550031969E+02  0.83549463323E+02  0.92464546289E+03  0.93342633714E+03  0.84664493906E+02 0.  0.
          5    1    4    4  502    0  0.60205631716E+02  0.29788155668E+02  0.37770450660E+03  0.38365979280E+03  0.47000000000E+01 0. -1.
         -5    1    3    3    0  503 -0.45317783510E+02 -0.46994418432E+02  0.76002965221E+02  0.10030312851E+03  0.47000000000E+01 0.  1.
          5    1    3    3  503    0 -0.12322484584E+01 -0.36555044890E+02  0.23422763701E+03  0.23711276997E+03  0.47000000000E+01 0. -1.
         -5    1    4    4    0  502 -0.13655599748E+02  0.53761307654E+02  0.54694095629E+03  0.54976654434E+03  0.47000000000E+01 0.  1.
<mgrwt>
<rscale>  0 0.13143229E+03</rscale>
<asrwt>0</asrwt>
<pdfrwt beam="1">  1        1 0.19274749E+00 0.13268934E+03</pdfrwt>
<pdfrwt beam="2">  1       -1 0.27666295E-02 0.13268934E+03</pdfrwt>
<totfact> 0.43909043E+03</totfact>
</mgrwt>
</event>
<event>
 8    1  0.2954813E-003  0.1023198E+03  0.7546771E-02  0.1277231E+00
          1   -1    0    0  501    0  0.00000000000E+00  0.00000000000E+00  0.19524629560E+02  0.19524629560E+02  0.00000000000E+00 0. -1.
         -1   -1    0    0    0  501 -0.00000000000E+00 -0.00000000000E+00 -0.53191112237E+03  0.53191112237E+03  0.00000000000E+00 0.  1.
         23    2    1    2    0    0 -0.33013650121E+02 -0.30355235592E+02 -0.29532078949E+03  0.31146314694E+03  0.88224609781E+02 0.  0.
         23    2    1    2    0    0  0.33013650121E+02  0.30355235592E+02 -0.21706570332E+03  0.23997260499E+03  0.91967332069E+02 0.  0.
          5    1    4    4  502    0  0.56202726047E+01 -0.23535806977E+02 -0.13877150236E+03  0.14094375312E+03  0.47000000000E+01 0. -1.
         -5    1    4    4    0  502  0.27393377516E+02  0.53891042569E+02 -0.78294200952E+02  0.99028851875E+02  0.47000000000E+01 0.  1.
          5    1    3    3  503    0  0.77278735772E+01 -0.46863408357E+02 -0.94922199201E+02  0.10624600215E+03  0.47000000000E+01 0. -1.
         -5    1    3    3    0  503 -0.40741523698E+02  0.16508172765E+02 -0.20039859029E+03  0.20521714478E+03  0.47000000000E+01 0.  1.
<mgrwt>
<rscale>  0 0.10147165E+03</rscale>
<asrwt>0</asrwt>
<pdfrwt beam="1">  1        1 0.30037891E-02 0.10231975E+03</pdfrwt>
<pdfrwt beam="2">  1       -1 0.81832482E-01 0.10231975E+03</pdfrwt>
<totfact> 0.49444094E+03</totfact>
</mgrwt>
</event>
<event>
 8    1  0.2954813E-003  0.1224809E+03  0.7546771E-02  0.1246703E+00
          4   -1    0    0  501    0  0.00000000000E+00  0.00000000000E+00  0.35110134531E+03  0.35110134531E+03  0.00000000000E+00 0. -1.
         -4   -1    0    0    0  501 -0.00000000000E+00 -0.00000000000E+00 -0.49422266723E+02  0.49422266723E+02  0.00000000000E+00 0.  1.
         23    2    1    2    0    0  0.44334091243E+02  0.28569913664E+02  0.58642554095E+02  0.13579591986E+03  0.11054334483E+03 0.  0.
         23    2    1    2    0    0 -0.44334091243E+02 -0.28569913664E+02  0.24303652449E+03  0.26472769218E+03  0.90731731788E+02 0.  0.
          5    1    4    4  502    0 -0.64538184841E+02  0.36775930343E+01  0.12808356872E+03  0.14354857216E+03  0.47000000000E+01 0. -1.
         -5    1    3    3    0  503  0.32339852514E+02 -0.16841319113E+02 -0.21643446425E+02  0.42661749416E+02  0.47000000000E+01 0.  1.
          5    1    3    3  503    0  0.11994238729E+02  0.45411232777E+02  0.80286000520E+02  0.93134170445E+02  0.47000000000E+01 0. -1.
         -5    1    4    4    0  502  0.20204093599E+02 -0.32247506699E+02  0.11495295578E+03  0.12117912002E+03  0.47000000000E+01 0.  1.
<mgrwt>
<rscale>  0 0.11784049E+03</rscale>
<asrwt>0</asrwt>
<pdfrwt beam="1">  1        4 0.54015590E-01 0.12248095E+03</pdfrwt>
<pdfrwt beam="2">  1       -4 0.76034259E-02 0.12248095E+03</pdfrwt>
<totfact> 0.64463182E+02</totfact>
</mgrwt>
</event>
<event>
 8    1  0.2954813E-003  0.9075149E+02  0.7546771E-02  0.1301222E+00
          1   -1    0    0  501    0  0.00000000000E+00  0.00000000000E+00  0.67359184038E+02  0.67359184038E+02  0.00000000000E+00 0. -1.
         -1   -1    0    0    0  501 -0.00000000000E+00 -0.00000000000E+00 -0.12264357351E+03  0.12264357351E+03  0.00000000000E+00 0.  1.
         23    2    1    2    0    0 -0.46518085757E+00 -0.56529212999E-02 -0.35266607231E+02  0.97363062842E+02  0.90750294738E+02 0.  0.
         23    2    1    2    0    0  0.46518085757E+00  0.56529212999E-02 -0.20017782243E+02  0.92639694708E+02  0.90449903286E+02 0.  0.
          5    1    4    4  502    0  0.34841220931E+02  0.12396685352E+02 -0.36596153936E+02  0.52239419662E+02  0.47000000000E+01 0. -1.
         -5    1    4    4    0  502 -0.34376040074E+02 -0.12391032431E+02  0.16578371693E+02  0.40400275047E+02  0.47000000000E+01 0.  1.
          5    1    3    3  503    0 -0.40426839340E+01 -0.30377065352E+02  0.17936101429E+02  0.35817637098E+02  0.47000000000E+01 0. -1.
         -5    1    3    3    0  503  0.35775030764E+01  0.30371412431E+02 -0.53202708659E+02  0.61545425744E+02  0.47000000000E+01 0.  1.
<mgrwt>
<rscale>  0 0.90676297E+02</rscale>
<asrwt>0</asrwt>
<pdfrwt beam="1">  1        1 0.10362952E-01 0.90751487E+02</pdfrwt>
<pdfrwt beam="2">  1       -1 0.18868242E-01 0.90751487E+02</pdfrwt>
<totfact> 0.12196865E+04</totfact>
</mgrwt>
</event>
<event>
 8    1  0.2954813E-003  0.9446014E+02  0.7546771E-02  0.1292916E+00
         -2   -1    0    0    0  501 -0.00000000000E+00  0.00000000000E+00  0.32434998590E+02  0.32434998590E+02  0.00000000000E+00 0.  1.
          2   -1    0    0  501    0  0.00000000000E+00 -0.00000000000E+00 -0.27260679055E+03  0.27260679055E+03  0.00000000000E+00 0. -1.
         23    2    1    2    0    0  0.22452077083E+02 -0.32794837369E+01 -0.12314279317E+03  0.15464729056E+03  0.90756741837E+02 0.  0.
         23    2    1    2    0    0 -0.22452077083E+02  0.32794837369E+01 -0.11702899879E+03  0.15039449858E+03  0.91694426586E+02 0.  0.
          5    1    4    4  502    0 -0.12071996337E+01 -0.43016495356E+02 -0.55048542007E+02  0.70030765959E+02  0.47000000000E+01 0. -1.
         -5    1    4    4    0  502 -0.21244877449E+02  0.46295979093E+02 -0.61980456785E+02  0.80363732624E+02  0.47000000000E+01 0.  1.
          5    1    3    3  503    0 -0.12764962104E+02 -0.16469268866E+02 -0.11356610535E+03  0.11555748076E+03  0.47000000000E+01 0. -1.
         -5    1    3    3    0  503  0.35217039186E+02  0.13189785129E+02 -0.95766878201E+01  0.39089809803E+02  0.47000000000E+01 0.  1.
<mgrwt>
<rscale>  0 0.94231827E+02</rscale>
<asrwt>0</asrwt>
<pdfrwt beam="1">  1        2 0.41939507E-01 0.94460143E+02</pdfrwt>
<pdfrwt beam="2">  1       -2 0.49899997E-02 0.94460143E+02</pdfrwt>
<totfact> 0.21413398E+04</totfact>
</mgrwt>
</event>
<event>
 8    1  0.2954813E-003  0.1057224E+03  0.7546771E-02  0.1273831E+00
         -3   -1    0    0    0  501 -0.00000000000E+00  0.00000000000E+00  0.39953338280E+02  0.39953338280E+02  0.00000000000E+00 0.  1.
          3   -1    0    0  501    0  0.00000000000E+00 -0.00000000000E+00 -0.25538158363E+03  0.25538158363E+03  0.00000000000E+00 0. -1.
         23    2    1    2    0    0 -0.17681582693E+02 -0.12300770467E+02 -0.12379814147E+03  0.16279803966E+03  0.10350494947E+03 0.  0.
         23    2    1    2    0    0  0.17681582693E+02  0.12300770467E+02 -0.91630103883E+02  0.13253688225E+03  0.93305958542E+02 0.  0.
          5    1    3    3  502    0  0.31185991751E+02  0.54267754858E+01 -0.10080415275E+03  0.10576191746E+03  0.47000000000E+01 0. -1.
         -5    1    4    4    0  503 -0.21058715965E+02 -0.30486834830E+02 -0.29429649146E+02  0.47551139470E+02  0.47000000000E+01 0.  1.
          5    1    4    4  503    0  0.38740298658E+02  0.42787605297E+02 -0.62200454737E+02  0.84985742785E+02  0.47000000000E+01 0. -1.
         -5    1    3    3    0  502 -0.48867574445E+02 -0.17727545953E+02 -0.22993988717E+02  0.57036122193E+02  0.47000000000E+01 0.  1.
<mgrwt>
<rscale>  0 0.10313856E+03</rscale>
<asrwt>0</asrwt>
<pdfrwt beam="1">  1        3 0.39289475E-01 0.10572238E+03</pdfrwt>
<pdfrwt beam="2">  1       -3 0.61466674E-02 0.10572238E+03</pdfrwt>
<totfact> 0.23020097E+03</totfact>
</mgrwt>
</event>
<event>
 8    1  0.2954813E-003  0.1708817E+03  0.7546771E-02  0.1176934E+00
         -1   -1    0    0    0  501 -0.00000000000E+00  0.00000000000E+00  0.14853465608E+03  0.14853465608E+03  0.00000000000E+00 0.  1.
          1   -1    0    0  501    0  0.00000000000E+00 -0.00000000000E+00 -0.19843876945E+03  0.19843876945E+03  0.00000000000E+00 0. -1.
         23    2    1    2    0    0  0.13090998766E+03  0.61777365225E+02 -0.41744174854E+02  0.17589703183E+03  0.90792741707E+02 0.  0.
         23    2    1    2    0    0 -0.13090998766E+03 -0.61777365225E+02 -0.81599385200E+01  0.17107639371E+03  0.90811233687E+02 0.  0.
          5    1    4    4  502    0 -0.12050998931E+03 -0.82853156952E+02 -0.11968732038E+02  0.14680818671E+03  0.47000000000E+01 0. -1.
         -5    1    4    4    0  502 -0.10399998357E+02  0.21075791727E+02  0.38087935177E+01  0.24268206996E+02  0.47000000000E+01 0.  1.
          5    1    3    3  503    0  0.98252147216E+02  0.14604542954E+02 -0.59214796444E+02  0.11573789019E+03  0.47000000000E+01 0. -1.
         -5    1    3    3    0  503  0.32657840447E+02  0.47172822271E+02  0.17470621590E+02  0.60159141637E+02  0.47000000000E+01 0.  1.
<mgrwt>
<rscale>  0 0.17087922E+03</rscale>
<asrwt>0</asrwt>
<pdfrwt beam="1">  1        1 0.30529041E-01 0.17088168E+03</pdfrwt>
<pdfrwt beam="2">  1       -1 0.22851486E-01 0.17088168E+03</pdfrwt>
<totfact> 0.23520496E+03</totfact>
</mgrwt>
</event>
<event>
 8    1  0.2954813E-003  0.1369619E+03  0.7546771E-02  0.1217837E+00
          1   -1    0    0  501    0  0.00000000000E+00  0.00000000000E+00  0.96724018135E+03  0.96724018135E+03  0.00000000000E+00 0. -1.
         -1   -1    0    0    0  501 -0.00000000000E+00 -0.00000000000E+00 -0.29506577100E+02  0.29506577100E+02  0.00000000000E+00 0.  1.
         23    2    1    2    0    0  0.67280086748E+02  0.76778512966E+02  0.17616092756E+03  0.22313951373E+03  0.91307283730E+02 0.  0.
         23    2    1    2    0    0 -0.67280086748E+02 -0.76778512966E+02  0.76157267668E+03  0.77360724472E+03  0.89742281440E+02 0.  0.
          5    1    3    3  502    0  0.57015462943E+02  0.17296517924E+01  0.10238538234E+03  0.11729710664E+03  0.47000000000E+01 0. -1.
         -5    1    4    4    0  503  0.19042096452E+01 -0.58131520517E+02  0.23379069908E+03  0.24096282009E+03  0.47000000000E+01 0.  1.
          5    1    4    4  503    0 -0.69184296394E+02 -0.18646992449E+02  0.52778197761E+03  0.53264442462E+03  0.47000000000E+01 0. -1.
         -5    1    3    3    0  502  0.10264623806E+02  0.75048861173E+02  0.73775545223E+02  0.10584240709E+03  0.47000000000E+01 0.  1.
<mgrwt>
<rscale>  0 0.13670161E+03</rscale>
<asrwt>0</asrwt>
<pdfrwt beam="1">  1        1 0.14880616E+00 0.13696193E+03</pdfrwt>
<pdfrwt beam="2">  1       -1 0.45394741E-02 0.13696193E+03</pdfrwt>
<totfact> 0.33846960E+03</totfact>
</mgrwt>
</event>
<event>
 8    1  0.2954813E-003  0.9299903E+02  0.7546771E-02  0.1297578E+00
         -1   -1    0    0    0  501 -0.00000000000E+00  0.00000000000E+00  0.27812487220E+03  0.27812487220E+03  0.00000000000E+00 0.  1.
          1   -1    0    0  501    0  0.00000000000E+00 -0.00000000000E+00 -0.35595764216E+03  0.35595764216E+03  0.00000000000E+00 0. -1.
         23    2    1    2    0    0 -0.14715379118E+02 -0.14141927946E+02  0.26437966215E+03  0.28025956716E+03  0.90731927780E+02 0.  0.
         23    2    1    2    0    0  0.14715379118E+02  0.14141927946E+02 -0.34221243210E+03  0.35382294720E+03  0.87548802211E+02 0.  0.
          5    1    3    3  502    0  0.55436187327E+01  0.34529444298E+02  0.64840724216E+02  0.73820212334E+02  0.47000000000E+01 0. -1.
         -5    1    4    4    0  503  0.43887260624E+02 -0.99077769353E+01 -0.11756318279E+03  0.12596605748E+03  0.47000000000E+01 0.  1.
          5    1    4    4  503    0 -0.29171881506E+02  0.24049704882E+02 -0.22464924931E+03  0.22785688972E+03  0.47000000000E+01 0. -1.
         -5    1    3    3    0  502 -0.20258997851E+02 -0.48671372244E+02  0.19953893793E+03  0.20643935483E+03  0.47000000000E+01 0.  1.
<mgrwt>
<rscale>  0 0.92213426E+02</rscale>
<asrwt>0</asrwt>
<pdfrwt beam="1">  1        1 0.54762714E-01 0.92999028E+02</pdfrwt>
<pdfrwt beam="2">  1       -1 0.42788442E-01 0.92999028E+02</pdfrwt>
<totfact> 0.39196095E+02</totfact>
</mgrwt>
</event>
<event>
 8    1  0.2954813E-003  0.1108532E+03  0.7546771E-02  0.1260786E+00
          1   -1    0    0  501    0  0.00000000000E+00  0.00000000000E+00  0.28726277734E+03  0.28726277734E+03  0.00000000000E+00 0. -1.
         -1   -1    0    0    0  501 -0.00000000000E+00 -0.00000000000E+00 -0.60024336292E+02  0.60024336292E+02  0.00000000000E+00 0.  1.
         23    2    1    2    0    0 -0.33564119790E+02  0.51667493296E+02  0.20918494360E+03  0.23497341216E+03  0.87510478201E+02 0.  0.
         23    2    1    2    0    0  0.33564119790E+02 -0.51667493296E+02  0.18053497447E+02  0.11231370146E+03  0.92153994845E+02 0.  0.
          5    1    4    4  502    0 -0.21514543760E+02 -0.50533951600E+02  0.14005283629E+02  0.56875247930E+02  0.47000000000E+01 0. -1.
         -5    1    4    4    0  502  0.55078663550E+02 -0.11335416958E+01  0.40482138181E+01  0.55438453535E+02  0.47000000000E+01 0.  1.
          5    1    3    3  503    0  0.22981366643E+02  0.10909305363E+02  0.11402035608E+03  0.11691829522E+03  0.47000000000E+01 0. -1.
         -5    1    3    3    0  503 -0.56545486433E+02  0.40758187933E+02  0.95164587523E+02  0.11805511695E+03  0.47000000000E+01 0.  1.
<mgrwt>
<rscale>  0 0.10988330E+03</rscale>
<asrwt>0</asrwt>
<pdfrwt beam="1">  1        1 0.44194273E-01 0.11085323E+03</pdfrwt>
<pdfrwt beam="2">  1       -1 0.92345135E-02 0.11085323E+03</pdfrwt>
<totfact> 0.60177933E+03</totfact>
</mgrwt>
</event>
<event>
 8    1  0.2954813E-003  0.9332113E+02  0.7546771E-02  0.1295964E+00
         -1   -1    0    0    0  501 -0.00000000000E+00  0.00000000000E+00  0.11423334848E+03  0.11423334848E+03  0.00000000000E+00 0.  1.
          1   -1    0    0  501    0  0.00000000000E+00 -0.00000000000E+00 -0.95394069522E+02  0.95394069522E+02  0.00000000000E+00 0. -1.
         23    2    1    2    0    0  0.42961399515E+01  0.11134447480E+02 -0.39232743119E+02  0.99712939016E+02  0.90890204838E+02 0.  0.
         23    2    1    2    0    0 -0.42961399515E+01 -0.11134447480E+02  0.58072022079E+02  0.10991447899E+03  0.92554849703E+02 0.  0.
          5    1    3    3  502    0 -0.20858293564E+02 -0.31061345438E+02 -0.32739985770E+02  0.49938684995E+02  0.47000000000E+01 0. -1.
         -5    1    4    4    0  503  0.39899106051E+02 -0.85157081739E+01  0.61621312537E+01  0.41527314035E+02  0.47000000000E+01 0.  1.
          5    1    4    4  503    0 -0.44195246002E+02 -0.26187393063E+01  0.51909890825E+02  0.68387164952E+02  0.47000000000E+01 0. -1.
         -5    1    3    3    0  502  0.25154433515E+02  0.42195792918E+02 -0.64927573488E+01  0.49774254022E+02  0.47000000000E+01 0.  1.
<mgrwt>
<rscale>  0 0.92905680E+02</rscale>
<asrwt>0</asrwt>
<pdfrwt beam="1">  1        1 0.14676011E-01 0.93321128E+02</pdfrwt>
<pdfrwt beam="2">  1       -1 0.17574361E-01 0.93321128E+02</pdfrwt>
<totfact> 0.87167885E+03</totfact>
</mgrwt>
</event>
<event>
 8    1  0.2954813E-003  0.1101422E+03  0.7546771E-02  0.1260382E+00
          1   -1    0    0  501    0  0.00000000000E+00  0.00000000000E+00  0.32356206026E+03  0.32356206026E+03  0.00000000000E+00 0. -1.
         -1   -1    0    0    0  501 -0.00000000000E+00 -0.00000000000E+00 -0.40648278174E+02  0.40648278174E+02  0.00000000000E+00 0.  1.
         23    2    1    2    0    0 -0.99938579689E+01  0.59669351289E+02  0.90182477174E+02  0.14222686845E+03  0.91843857931E+02 0.  0.
         23    2    1    2    0    0  0.99938579689E+01 -0.59669351289E+02  0.19273130491E+03  0.22198346998E+03  0.92038015911E+02 0.  0.
          5    1    4    4  502    0  0.41544397728E+02 -0.54935787002E+02  0.84857735315E+02  0.10939288331E+03  0.47000000000E+01 0. -1.
         -5    1    3    3    0  503 -0.41581283391E+02  0.56604248306E+02  0.35523693418E+02  0.78848378859E+02  0.47000000000E+01 0.  1.
          5    1    3    3  503    0  0.31587425422E+02  0.30651029825E+01  0.54658783756E+02  0.63378489591E+02  0.47000000000E+01 0. -1.
         -5    1    4    4    0  502 -0.31550539759E+02 -0.47335642863E+01  0.10787356959E+03  0.11259058667E+03  0.47000000000E+01 0.  1.
<mgrwt>
<rscale>  0 0.11010163E+03</rscale>
<asrwt>0</asrwt>
<pdfrwt beam="1">  1        1 0.49778777E-01 0.11014220E+03</pdfrwt>
<pdfrwt beam="2">  1       -1 0.62535815E-02 0.11014220E+03</pdfrwt>
<totfact> 0.93129580E+03</totfact>
</mgrwt>
</event>
<event>
 8    1  0.2954813E-003  0.1283938E+03  0.7546771E-02  0.1240033E+00
         -1   -1    0    0    0  501 -0.00000000000E+00  0.00000000000E+00  0.22116956449E+02  0.22116956449E+02  0.00000000000E+00 0.  1.
          1   -1    0    0  501    0  0.00000000000E+00 -0.00000000000E+00 -0.61178620786E+03  0.61178620786E+03  0.00000000000E+00 0. -1.
         23    2    1    2    0    0  0.41736706169E+02 -0.19296568564E+02 -0.26669879301E+03  0.28634756224E+03  0.93554102052E+02 0.  0.
         23    2    1    2    0    0 -0.41736706169E+02  0.19296568564E+02 -0.32297045840E+03  0.34755560206E+03  0.11987772656E+03 0.  0.
          5    1    4    4  502    0 -0.78807281550E+01  0.53722383377E+02 -0.27114208953E+03  0.27656522389E+03  0.47000000000E+01 0. -1.
         -5    1    3    3    0  503 -0.17231506994E+02 -0.25103570097E+02 -0.17054140072E+03  0.17330197179E+03  0.47000000000E+01 0.  1.
          5    1    3    3  503    0  0.58968213164E+02  0.58070015333E+01 -0.96157392285E+02  0.11304559046E+03  0.47000000000E+01 0. -1.
         -5    1    4    4    0  502 -0.33855978014E+02 -0.34425814813E+02 -0.51828368869E+02  0.70990378168E+02  0.47000000000E+01 0.  1.
<mgrwt>
<rscale>  0 0.12187658E+03</rscale>
<asrwt>0</asrwt>
<pdfrwt beam="1">  1        1 0.94120955E-01 0.12839385E+03</pdfrwt>
<pdfrwt beam="2">  1       -1 0.34026087E-02 0.12839385E+03</pdfrwt>
<totfact> 0.10191220E+04</totfact>
</mgrwt>
</event>
<event>
 8    1  0.2954813E-003  0.1144773E+03  0.7546771E-02  0.1254883E+00
         -3   -1    0    0    0  501 -0.00000000000E+00  0.00000000000E+00  0.26003261481E+03  0.26003261481E+03  0.00000000000E+00 0.  1.
          3   -1    0    0  501    0  0.00000000000E+00 -0.00000000000E+00 -0.51162635319E+02  0.51162635319E+02  0.00000000000E+00 0. -1.
         23    2    1    2    0    0  0.49835938815E+02 -0.37524235068E+02  0.14486985551E+03  0.18464105776E+03  0.95986229022E+02 0.  0.
         23    2    1    2    0    0 -0.49835938815E+02  0.37524235068E+02  0.64000123982E+02  0.12655419236E+03  0.89600550893E+02 0.  0.
          5    1    4    4  502    0 -0.68493528670E+02  0.49377339562E+02  0.39870046790E+02  0.93494362198E+02  0.47000000000E+01 0. -1.
         -5    1    3    3    0  503  0.36522677440E+02  0.28453874378E+02  0.51032639791E+02  0.69064819254E+02  0.47000000000E+01 0.  1.
          5    1    3    3  503    0  0.13313261375E+02 -0.65978109446E+02  0.93837215714E+02  0.11557623851E+03  0.47000000000E+01 0. -1.
         -5    1    4    4    0  502  0.18657589855E+02 -0.11853104494E+02  0.24130077192E+02  0.33059830166E+02  0.47000000000E+01 0.  1.
<mgrwt>
<rscale>  0 0.11312895E+03</rscale>
<asrwt>0</asrwt>
<pdfrwt beam="1">  1        3 0.78711748E-02 0.11447727E+03</pdfrwt>
<pdfrwt beam="2">  1       -3 0.40005017E-01 0.11447727E+03</pdfrwt>
<totfact> 0.15174159E+03</totfact>
</mgrwt>
</event>
<event>
 8    1  0.2954813E-003  0.1091041E+03  0.7546771E-02  0.1263634E+00
         -1   -1    0    0    0  501 -0.00000000000E+00  0.00000000000E+00  0.11242680386E+03  0.11242680386E+03  0.00000000000E+00 0.  1.
          1   -1    0    0  501    0  0.00000000000E+00 -0.00000000000E+00 -0.18053128044E+03  0.18053128044E+03  0.00000000000E+00 0. -1.
         23    2    1    2    0    0  0.38245089584E+02 -0.47453012615E+02 -0.12974547731E+03  0.16764519828E+03  0.86928409282E+02 0.  0.
         23    2    1    2    0    0 -0.38245089584E+02  0.47453012615E+02  0.61641000728E+02  0.12531288603E+03  0.90494370818E+02 0.  0.
          5    1    4    4  502    0 -0.25575564408E+02 -0.16765870211E+02  0.49798759586E+02  0.58627726845E+02  0.47000000000E+01 0. -1.
         -5    1    4    4    0  502 -0.12669525176E+02  0.64218882826E+02  0.11842241142E+02  0.66685159180E+02  0.47000000000E+01 0.  1.
          5    1    3    3  503    0 -0.19568236973E+02 -0.43010130287E+02 -0.50243482397E+02  0.69132371063E+02  0.47000000000E+01 0. -1.
         -5    1    3    3    0  503  0.57813326557E+02 -0.44428823284E+01 -0.79501994914E+02  0.98512827217E+02  0.47000000000E+01 0.  1.
<mgrwt>
<rscale>  0 0.10836181E+03</rscale>
<asrwt>0</asrwt>
<pdfrwt beam="1">  1        1 0.27774043E-01 0.10910411E+03</pdfrwt>
<pdfrwt beam="2">  1       -1 0.17296432E-01 0.10910411E+03</pdfrwt>
<totfact> 0.40493318E+03</totfact>
</mgrwt>
</event>
<event>
 8    1  0.2954813E-003  0.9865388E+02  0.7546771E-02  0.1284625E+00
          1   -1    0    0  501    0  0.00000000000E+00  0.00000000000E+00  0.61121022141E+02  0.61121022141E+02  0.00000000000E+00 0. -1.
         -1   -1    0    0    0  501 -0.00000000000E+00 -0.00000000000E+00 -0.15513376984E+03  0.15513376984E+03  0.00000000000E+00 0.  1.
         23    2    1    2    0    0 -0.29452556633E+02 -0.65270190302E-01 -0.42074855044E+02  0.10476428618E+03  0.91311581295E+02 0.  0.
         23    2    1    2    0    0  0.29452556633E+02  0.65270190302E-01 -0.51937892655E+02  0.11149050581E+03  0.94154823769E+02 0.  0.
          5    1    3    3  502    0  0.30336335726E+02 -0.14934087070E+02 -0.14033297656E+02  0.36909939921E+02  0.47000000000E+01 0. -1.
         -5    1    3    3    0  502 -0.59788892359E+02  0.14868816880E+02 -0.28041557388E+02  0.67854346254E+02  0.47000000000E+01 0.  1.
          5    1    4    4  503    0  0.14561823719E+02  0.28907185866E+02  0.15730069313E+02  0.36293211284E+02  0.47000000000E+01 0. -1.
         -5    1    4    4    0  503  0.14890732914E+02 -0.28841915676E+02 -0.67667961968E+02  0.75197294522E+02  0.47000000000E+01 0.  1.
<mgrwt>
<rscale>  0 0.97969333E+02</rscale>
<asrwt>0</asrwt>
<pdfrwt beam="1">  1        1 0.94032343E-02 0.98653881E+02</pdfrwt>
<pdfrwt beam="2">  1       -1 0.23866734E-01 0.98653881E+02</pdfrwt>
<totfact> 0.95905180E+03</totfact>
</mgrwt>
</event>
<event>
 8    1  0.2954813E-003  0.9360255E+02  0.7546771E-02  0.1294801E+00
         -2   -1    0    0    0  501 -0.00000000000E+00  0.00000000000E+00  0.58388325050E+02  0.58388325050E+02  0.00000000000E+00 0.  1.
          2   -1    0    0  501    0  0.00000000000E+00 -0.00000000000E+00 -0.21054773983E+03  0.21054773983E+03  0.00000000000E+00 0. -1.
         23    2    1    2    0    0  0.54752858648E+01 -0.16812859673E+02 -0.34926431455E+01  0.93667685831E+02  0.91917276979E+02 0.  0.
         23    2    1    2    0    0 -0.54752858648E+01  0.16812859673E+02 -0.14866677164E+03  0.17526837905E+03  0.91129274662E+02 0.  0.
          5    1    4    4  502    0 -0.45078504165E+02  0.17370185275E+02 -0.10749597415E+03  0.11794604416E+03  0.47000000000E+01 0. -1.
         -5    1    3    3    0  503  0.38455709338E+02  0.19644452211E+02 -0.76547585658E+01  0.44107044925E+02  0.47000000000E+01 0.  1.
          5    1    3    3  503    0 -0.32980423473E+02 -0.36457311884E+02  0.41621154203E+01  0.49560640906E+02  0.47000000000E+01 0. -1.
         -5    1    4    4    0  502  0.39603218301E+02 -0.55732560238E+00 -0.41170797481E+02  0.57322334886E+02  0.47000000000E+01 0.  1.
<mgrwt>
<rscale>  0 0.93408521E+02</rscale>
<asrwt>0</asrwt>
<pdfrwt beam="1">  1        2 0.32391960E-01 0.93602547E+02</pdfrwt>
<pdfrwt beam="2">  1       -2 0.89828193E-02 0.93602547E+02</pdfrwt>
<totfact> 0.11546927E+04</totfact>
</mgrwt>
</event>
<event>
 8    1  0.2954813E-003  0.1079317E+03  0.7546771E-02  0.1266435E+00
         -1   -1    0    0    0  501 -0.00000000000E+00  0.00000000000E+00  0.12738376420E+03  0.12738376420E+03  0.00000000000E+00 0.  1.
          1   -1    0    0  501    0  0.00000000000E+00 -0.00000000000E+00 -0.88011665323E+02  0.88011665323E+02  0.00000000000E+00 0. -1.
         23    2    1    2    0    0  0.50637846795E+02  0.14082433549E+02  0.20051957379E+02  0.10977853576E+03  0.94269504379E+02 0.  0.
         23    2    1    2    0    0 -0.50637846795E+02 -0.14082433549E+02  0.19320141494E+02  0.10561689376E+03  0.89549728740E+02 0.  0.
          5    1    3    3  502    0 -0.21539702454E+02  0.15319756136E+02 -0.13483483675E+02  0.30042437350E+02  0.47000000000E+01 0. -1.
         -5    1    4    4    0  503 -0.60948772788E+02 -0.41660731062E+02  0.15144331875E+02  0.75510331776E+02  0.47000000000E+01 0. -1.
          5    1    4    4  503    0  0.10310925993E+02  0.27578297512E+02  0.41758096193E+01  0.30106561984E+02  0.47000000000E+01 0.  1.
         -5    1    3    3    0  502  0.72177549250E+02 -0.12373225868E+01  0.33535441054E+02  0.79736098409E+02  0.47000000000E+01 0.  1.
<mgrwt>
<rscale>  0 0.10689254E+03</rscale>
<asrwt>0</asrwt>
<pdfrwt beam="1">  1        1 0.13540256E-01 0.10793167E+03</pdfrwt>
<pdfrwt beam="2">  1       -1 0.19597502E-01 0.10793167E+03</pdfrwt>
<totfact> 0.82416090E+03</totfact>
</mgrwt>
</event>
<event>
 8    1  0.2954813E-003  0.1002902E+03  0.7546771E-02  0.1282636E+00
          1   -1    0    0  501    0  0.00000000000E+00  0.00000000000E+00  0.61864099528E+03  0.61864099528E+03  0.00000000000E+00 0. -1.
         -1   -1    0    0    0  501 -0.00000000000E+00 -0.00000000000E+00 -0.17785892220E+02  0.17785892220E+02  0.00000000000E+00 0.  1.
         23    2    1    2    0    0 -0.58478093623E+01  0.22648774522E+02  0.42458462041E+03  0.43626852035E+03  0.97524141123E+02 0.  0.
         23    2    1    2    0    0  0.58478093623E+01 -0.22648774522E+02  0.17627048266E+03  0.20015836715E+03  0.91896273174E+02 0.  0.
          5    1    4    4  502    0 -0.15544905860E+02 -0.19532038852E+02  0.17621330369E+03  0.17803472425E+03  0.47000000000E+01 0. -1.
         -5    1    4    4    0  502  0.21392715222E+02 -0.31167356699E+01  0.57178962187E-01  0.22123642902E+02  0.47000000000E+01 0.  1.
          5    1    3    3  503    0 -0.50796859270E+02  0.10171590428E+02  0.25911780285E+03  0.26428754779E+03  0.47000000000E+01 0. -1.
         -5    1    3    3    0  503  0.44949049907E+02  0.12477184094E+02  0.16546681756E+03  0.17198097257E+03  0.47000000000E+01 0.  1.
<mgrwt>
<rscale>  0 0.98895473E+02</rscale>
<asrwt>0</asrwt>
<pdfrwt beam="1">  1        1 0.95175521E-01 0.10029019E+03</pdfrwt>
<pdfrwt beam="2">  1       -1 0.27362916E-02 0.10029019E+03</pdfrwt>
<totfact> 0.13511101E+04</totfact>
</mgrwt>
</event>
<event>
 8    1  0.2954813E-003  0.1217216E+03  0.7546771E-02  0.1242384E+00
          1   -1    0    0  501    0  0.00000000000E+00  0.00000000000E+00  0.19366335082E+03  0.19366335082E+03  0.00000000000E+00 0. -1.
         -1   -1    0    0    0  501 -0.00000000000E+00 -0.00000000000E+00 -0.86882443303E+02  0.86882443303E+02  0.00000000000E+00 0.  1.
         23    2    1    2    0    0  0.56275867066E+02  0.55336169160E+02  0.10970071114E+03  0.16386089984E+03  0.92666518450E+02 0.  0.
         23    2    1    2    0    0 -0.56275867066E+02 -0.55336169160E+02 -0.29198036228E+01  0.11668489428E+03  0.85893972246E+02 0.  0.
          5    1    4    4  502    0 -0.52131052160E+02 -0.38201255198E+00  0.21031958598E+02  0.56411220651E+02  0.47000000000E+01 0. -1.
         -5    1    3    3    0  503  0.41949352651E+02  0.80848175025E+01 -0.53350052490E+00  0.42982404362E+02  0.47000000000E+01 0.  1.
          5    1    3    3  503    0  0.14326514415E+02  0.47251351657E+02  0.11023421166E+03  0.12087849548E+03  0.47000000000E+01 0. -1.
         -5    1    4    4    0  502 -0.41448149065E+01 -0.54954156608E+02 -0.23951762221E+02  0.60273673627E+02  0.47000000000E+01 0.  1.
<mgrwt>
<rscale>  0 0.12043297E+03</rscale>
<asrwt>0</asrwt>
<pdfrwt beam="1">  1        1 0.29794362E-01 0.12172160E+03</pdfrwt>
<pdfrwt beam="2">  1       -1 0.13366530E-01 0.12172160E+03</pdfrwt>
<totfact> 0.55902091E+03</totfact>
</mgrwt>
</event>
<event>
 8    1  0.2954813E-003  0.1096164E+03  0.7546771E-02  0.1261506E+00
         -2   -1    0    0    0  501 -0.00000000000E+00  0.00000000000E+00  0.23012256505E+03  0.23012256505E+03  0.00000000000E+00 0.  1.
          2   -1    0    0  501    0  0.00000000000E+00 -0.00000000000E+00 -0.55451947144E+02  0.55451947144E+02  0.00000000000E+00 0. -1.
         23    2    1    2    0    0 -0.18435808173E+02 -0.58019822907E+02  0.51817180268E+02  0.12124673589E+03  0.91156853390E+02 0.  0.
         23    2    1    2    0    0  0.18435808173E+02  0.58019822907E+02  0.12285343763E+03  0.16432777630E+03  0.90578540793E+02 0.  0.
          5    1    3    3  502    0  0.12968395310E+02 -0.25763710579E+02 -0.20665178802E+02  0.35792285127E+02  0.47000000000E+01 0. -1.
         -5    1    4    4    0  503  0.44005861158E+02  0.50615073005E+02  0.42479955248E+02  0.79530107691E+02  0.47000000000E+01 0.  1.
          5    1    4    4  503    0 -0.25570052985E+02  0.74047499021E+01  0.80373482385E+02  0.84797668609E+02  0.47000000000E+01 0. -1.
         -5    1    3    3    0  502 -0.31404203482E+02 -0.32256112328E+02  0.72482359070E+02  0.85454450763E+02  0.47000000000E+01 0.  1.
<mgrwt>
<rscale>  0 0.10949607E+03</rscale>
<asrwt>0</asrwt>
<pdfrwt beam="1">  1        2 0.85310689E-02 0.10961638E+03</pdfrwt>
<pdfrwt beam="2">  1       -2 0.35403471E-01 0.10961638E+03</pdfrwt>
<totfact> 0.54939911E+03</totfact>
</mgrwt>
</event>
<event>
 8    1  0.2954813E-003  0.9635608E+02  0.7546771E-02  0.1288849E+00
          2   -1    0    0  501    0  0.00000000000E+00  0.00000000000E+00  0.18336993254E+03  0.18336993254E+03  0.00000000000E+00 0. -1.
         -2   -1    0    0    0  501 -0.00000000000E+00 -0.00000000000E+00 -0.77678764004E+02  0.77678764004E+02  0.00000000000E+00 0.  1.
         23    2    1    2    0    0  0.18441572702E+02  0.21538681390E+02 -0.24879151593E+02  0.99516160292E+02  0.92089562794E+02 0.  0.
         23    2    1    2    0    0 -0.18441572702E+02 -0.21538681390E+02  0.13057032013E+03  0.16153253625E+03  0.90775246457E+02 0.  0.
          5    1    3    3  502    0 -0.26019206635E+02  0.34173530029E+02  0.61560740992E+01  0.43644203703E+02  0.47000000000E+01 0. -1.
         -5    1    4    4    0  503  0.26778466926E+02 -0.16154714294E+02  0.10977170416E+02  0.33476101254E+02  0.47000000000E+01 0.  1.
          5    1    4    4  503    0 -0.45220039628E+02 -0.53839670961E+01  0.11959314971E+03  0.12805643500E+03  0.47000000000E+01 0. -1.
         -5    1    3    3    0  502  0.44460779337E+02 -0.12634848638E+02 -0.31035225692E+02  0.55871956589E+02  0.47000000000E+01 0.  1.
<mgrwt>
<rscale>  0 0.96040701E+02</rscale>
<asrwt>0</asrwt>
<pdfrwt beam="1">  1        2 0.28210759E-01 0.96356079E+02</pdfrwt>
<pdfrwt beam="2">  1       -2 0.11950579E-01 0.96356079E+02</pdfrwt>
<totfact> 0.85929608E+03</totfact>
</mgrwt>
</event>
<event>
 8    1  0.2954813E-003  0.1355493E+03  0.7546771E-02  0.1221013E+00
         -1   -1    0    0    0  501 -0.00000000000E+00  0.00000000000E+00  0.57783004843E+02  0.57783004843E+02  0.00000000000E+00 0.  1.
          1   -1    0    0  501    0  0.00000000000E+00 -0.00000000000E+00 -0.34887868274E+03  0.34887868274E+03  0.00000000000E+00 0. -1.
         23    2    1    2    0    0 -0.62468918317E+02 -0.72644894199E+02 -0.77872604393E+02  0.15632577018E+03  0.95885126578E+02 0.  0.
         23    2    1    2    0    0  0.62468918317E+02  0.72644894199E+02 -0.21322307350E+03  0.25033591740E+03  0.89578714315E+02 0.  0.
          5    1    4    4  502    0  0.73090810201E+02  0.40525994226E+02 -0.19365831757E+03  0.21097454042E+03  0.47000000000E+01 0. -1.
         -5    1    3    3    0  503 -0.68945319850E+02 -0.44729758471E+02 -0.10530324634E+02  0.82989072528E+02  0.47000000000E+01 0.  1.
          5    1    3    3  503    0  0.64764015331E+01 -0.27915135728E+02 -0.67342279760E+02  0.73336697654E+02  0.47000000000E+01 0. -1.
         -5    1    4    4    0  502 -0.10621891884E+02  0.32118899973E+02 -0.19564755931E+02  0.39361376975E+02  0.47000000000E+01 0.  1.
<mgrwt>
<rscale>  0 0.13443939E+03</rscale>
<asrwt>0</asrwt>
<pdfrwt beam="1">  1        1 0.53673642E-01 0.13554927E+03</pdfrwt>
<pdfrwt beam="2">  1       -1 0.88896933E-02 0.13554927E+03</pdfrwt>
<totfact> 0.50757739E+03</totfact>
</mgrwt>
</event>
<event>
 8    1  0.2954813E-003  0.9311337E+02  0.7546771E-02  0.1296427E+00
          3   -1    0    0  501    0  0.00000000000E+00  0.00000000000E+00  0.57236756976E+03  0.57236756976E+03  0.00000000000E+00 0. -1.
         -3   -1    0    0    0  501 -0.00000000000E+00 -0.00000000000E+00 -0.15179893550E+02  0.15179893550E+02  0.00000000000E+00 0.  1.
         23    2    1    2    0    0 -0.14738218412E+02  0.10486511011E+02  0.32186843594E+03  0.33506624573E+03  0.91339569616E+02 0.  0.
         23    2    1    2    0    0  0.14738218412E+02 -0.10486511011E+02  0.23531924027E+03  0.25248121758E+03  0.89690793252E+02 0.  0.
          5    1    4    4  502    0  0.12166831311E+02 -0.45620784300E+02  0.78842582041E+02  0.92019185430E+02  0.47000000000E+01 0. -1.
         -5    1    4    4    0  502  0.25713871017E+01  0.35134273289E+02  0.15647665823E+03  0.16046203215E+03  0.47000000000E+01 0.  1.
          5    1    3    3  503    0 -0.25201327100E+02 -0.30799002701E+02  0.23283662404E+03  0.23625974890E+03  0.47000000000E+01 0. -1.
         -5    1    3    3    0  503  0.10463108687E+02  0.41285513712E+02  0.89031811897E+02  0.98806496828E+02  0.47000000000E+01 0.  1.
<mgrwt>
<rscale>  0 0.92706506E+02</rscale>
<asrwt>0</asrwt>
<pdfrwt beam="1">  1        3 0.88056532E-01 0.93113366E+02</pdfrwt>
<pdfrwt beam="2">  1       -3 0.23353687E-02 0.93113366E+02</pdfrwt>
<totfact> 0.19412157E+03</totfact>
</mgrwt>
</event>
<event>
 8    1  0.2954813E-003  0.1096098E+03  0.7546771E-02  0.1267988E+00
         -1   -1    0    0    0  501 -0.00000000000E+00  0.00000000000E+00  0.29829095460E+02  0.29829095460E+02  0.00000000000E+00 0.  1.
          1   -1    0    0  501    0  0.00000000000E+00 -0.00000000000E+00 -0.35854767201E+03  0.35854767201E+03  0.00000000000E+00 0. -1.
         23    2    1    2    0    0 -0.87666341262E+01  0.49947886013E+02 -0.19430513622E+03  0.22308918866E+03  0.97173324245E+02 0.  0.
         23    2    1    2    0    0  0.87666341262E+01 -0.49947886013E+02 -0.13441344032E+03  0.16528757881E+03  0.81739620603E+02 0.  0.
          5    1    3    3  502    0 -0.20933044225E+02 -0.13548606481E+02 -0.92471322518E+01  0.27006601656E+02  0.47000000000E+01 0. -1.
         -5    1    3    3    0  502  0.12166410099E+02  0.63496492494E+02 -0.18505800397E+03  0.19608258701E+03  0.47000000000E+01 0.  1.
          5    1    4    4  503    0 -0.34527031929E+02 -0.92776549597E+01 -0.59397307436E+02  0.69486120528E+02  0.47000000000E+01 0. -1.
         -5    1    4    4    0  503  0.43293666056E+02 -0.40670231053E+02 -0.75016132889E+02  0.95801458277E+02  0.47000000000E+01 0.  1.
<mgrwt>
<rscale>  0 0.10608948E+03</rscale>
<asrwt>0</asrwt>
<pdfrwt beam="1">  1        1 0.55161185E-01 0.10960976E+03</pdfrwt>
<pdfrwt beam="2">  1       -1 0.45890912E-02 0.10960976E+03</pdfrwt>
<totfact> 0.12942200E+04</totfact>
</mgrwt>
</event>
<event>
 8    1  0.2954813E-003  0.9492937E+02  0.7546771E-02  0.1291653E+00
         -2   -1    0    0    0  501 -0.00000000000E+00  0.00000000000E+00  0.19750150739E+02  0.19750150739E+02  0.00000000000E+00 0.  1.
          2   -1    0    0  501    0  0.00000000000E+00 -0.00000000000E+00 -0.58238639782E+03  0.58238639782E+03  0.00000000000E+00 0. -1.
         23    2    1    2    0    0 -0.10498410050E+02  0.25270419244E+02 -0.14038225864E+03  0.16946611627E+03  0.90899809254E+02 0.  0.
         23    2    1    2    0    0  0.10498410050E+02 -0.25270419244E+02 -0.42225398844E+03  0.43267043228E+03  0.90313130353E+02 0.  0.
          5    1    3    3  502    0  0.33253021202E+02  0.28046023329E+01 -0.10041079408E+03  0.10591528115E+03  0.47000000000E+01 0. -1.
         -5    1    3    3    0  502 -0.43751431252E+02  0.22465816911E+02 -0.39971464559E+02  0.63550835125E+02  0.47000000000E+01 0.  1.
          5    1    4    4  503    0  0.46716403581E+02 -0.57944009765E+01 -0.29727954124E+03  0.30102028684E+03  0.47000000000E+01 0. -1.
         -5    1    4    4    0  503 -0.36217993531E+02 -0.19476018268E+02 -0.12497444720E+03  0.13165014545E+03  0.47000000000E+01 0.  1.
<mgrwt>
<rscale>  0 0.94788655E+02</rscale>
<asrwt>0</asrwt>
<pdfrwt beam="1">  1        2 0.89597916E-01 0.94929374E+02</pdfrwt>
<pdfrwt beam="2">  1       -2 0.30384844E-02 0.94929374E+02</pdfrwt>
<totfact> 0.19821304E+04</totfact>
</mgrwt>
</event>
<event>
 8    1  0.2954813E-003  0.1324271E+03  0.7546771E-02  0.1226088E+00
         -1   -1    0    0    0  501 -0.00000000000E+00  0.00000000000E+00  0.32480357723E+03  0.32480357723E+03  0.00000000000E+00 0.  1.
          1   -1    0    0  501    0  0.00000000000E+00 -0.00000000000E+00 -0.10753473923E+03  0.10753473923E+03  0.00000000000E+00 0. -1.
         23    2    1    2    0    0  0.55765753312E+01  0.88301008850E+02  0.26569053575E+03  0.29686428054E+03  0.98533110758E+02 0.  0.
         23    2    1    2    0    0 -0.55765753312E+01 -0.88301008850E+02 -0.48421697753E+02  0.13547403592E+03  0.90445493195E+02 0.  0.
          5    1    4    4  502    0 -0.17920243177E-01 -0.54746038705E+02 -0.74348359598E+02  0.92449432935E+02  0.47000000000E+01 0. -1.
         -5    1    4    4    0  502 -0.55586550881E+01 -0.33554970145E+02  0.25926661845E+02  0.43024602987E+02  0.47000000000E+01 0.  1.
          5    1    3    3  503    0 -0.40926386393E+02  0.18720009529E+02  0.63367494088E+02  0.77864864778E+02  0.47000000000E+01 0. -1.
         -5    1    3    3    0  503  0.46502961724E+02  0.69580999321E+02  0.20232304166E+03  0.21899941576E+03  0.47000000000E+01 0.  1.
<mgrwt>
<rscale>  0 0.13092624E+03</rscale>
<asrwt>0</asrwt>
<pdfrwt beam="1">  1        1 0.16543806E-01 0.13242711E+03</pdfrwt>
<pdfrwt beam="2">  1       -1 0.49969781E-01 0.13242711E+03</pdfrwt>
<totfact> 0.13216747E+03</totfact>
</mgrwt>
</event>
<event>
 8    1  0.2954813E-003  0.1023026E+03  0.7546771E-02  0.1276305E+00
          2   -1    0    0  501    0  0.00000000000E+00  0.00000000000E+00  0.21401805583E+03  0.21401805583E+03  0.00000000000E+00 0. -1.
         -2   -1    0    0    0  501 -0.00000000000E+00 -0.00000000000E+00 -0.51081314973E+02  0.51081314973E+02  0.00000000000E+00 0.  1.
         23    2    1    2    0    0  0.20621317382E+02 -0.39215128891E+02  0.11247842274E+03  0.15102984977E+03  0.90529303962E+02 0.  0.
         23    2    1    2    0    0 -0.20621317382E+02  0.39215128891E+02  0.50458318115E+02  0.11406952103E+03  0.92210350268E+02 0.  0.
          5    1    4    4  502    0 -0.30508733320E+02  0.21574217162E+02  0.73785644003E+02  0.82841058153E+02  0.47000000000E+01 0. -1.
         -5    1    4    4    0  502  0.98874159387E+01  0.17640911728E+02 -0.23327325888E+02  0.31228462877E+02  0.47000000000E+01 0.  1.
          5    1    3    3  503    0 -0.92637352309E+01 -0.62032914553E+02  0.69936283387E+02  0.94058880561E+02  0.47000000000E+01 0. -1.
         -5    1    3    3    0  503  0.29885052613E+02  0.22817785662E+02  0.42542139353E+02  0.56970969212E+02  0.47000000000E+01 0.  1.
<mgrwt>
<rscale>  0 0.10192230E+03</rscale>
<asrwt>0</asrwt>
<pdfrwt beam="1">  1        2 0.32925854E-01 0.10230256E+03</pdfrwt>
<pdfrwt beam="2">  1       -2 0.78586640E-02 0.10230256E+03</pdfrwt>
<totfact> 0.14051184E+04</totfact>
</mgrwt>
</event>
<event>
 8    1  0.2954813E-003  0.1320498E+03  0.7546771E-02  0.1226202E+00
         -1   -1    0    0    0  501 -0.00000000000E+00  0.00000000000E+00  0.20602983109E+03  0.20602983109E+03  0.00000000000E+00 0.  1.
          1   -1    0    0  501    0  0.00000000000E+00 -0.00000000000E+00 -0.17862182745E+03  0.17862182745E+03  0.00000000000E+00 0. -1.
         23    2    1    2    0    0 -0.80684525280E+02 -0.37029775835E+02 -0.12812692315E+03  0.18062159628E+03  0.91249414725E+02 0.  0.
         23    2    1    2    0    0  0.80684525280E+02  0.37029775835E+02  0.15553492679E+03  0.20403006227E+03  0.97754569913E+02 0.  0.
          5    1    3    3  502    0  0.13796329597E+02 -0.28385908781E+02 -0.38699896392E+02  0.50158454008E+02  0.47000000000E+01 0. -1.
         -5    1    3    3    0  502 -0.94480854877E+02 -0.86438670541E+01 -0.89427026761E+02  0.13046314227E+03  0.47000000000E+01 0.  1.
          5    1    4    4  503    0  0.23971166958E+02 -0.10984581810E+02 -0.48365689966E+01  0.27216911701E+02  0.47000000000E+01 0. -1.
         -5    1    4    4    0  503  0.56713358321E+02  0.48014357645E+02  0.16037149578E+03  0.17681315056E+03  0.47000000000E+01 0.  1.
<mgrwt>
<rscale>  0 0.13084838E+03</rscale>
<asrwt>0</asrwt>
<pdfrwt beam="1">  1        1 0.27480281E-01 0.13204981E+03</pdfrwt>
<pdfrwt beam="2">  1       -1 0.31696897E-01 0.13204981E+03</pdfrwt>
<totfact> 0.15437252E+03</totfact>
</mgrwt>
</event>
<event>
 8    1  0.2954813E-003  0.1020065E+03  0.7546771E-02  0.1277078E+00
         -1   -1    0    0    0  501 -0.00000000000E+00  0.00000000000E+00  0.58747318856E+03  0.58747318856E+03  0.00000000000E+00 0.  1.
          1   -1    0    0  501    0  0.00000000000E+00 -0.00000000000E+00 -0.17516513908E+02  0.17516513908E+02  0.00000000000E+00 0. -1.
         23    2    1    2    0    0  0.45110813678E+02  0.78682984863E+01  0.30752238545E+03  0.32342784857E+03  0.89099158487E+02 0.  0.
         23    2    1    2    0    0 -0.45110813678E+02 -0.78682984863E+01  0.26243428920E+03  0.28156185390E+03  0.91150566606E+02 0.  0.
          5    1    3    3  502    0 -0.77967280817E+01 -0.25468058117E+02  0.37602905473E+02  0.46319320516E+02  0.47000000000E+01 0. -1.
         -5    1    3    3    0  502  0.52907541760E+02  0.33336356604E+02  0.26991947998E+03  0.27710852805E+03  0.47000000000E+01 0.  1.
          5    1    4    4  503    0 -0.56243011355E+02 -0.38974374502E+02  0.17247232573E+03  0.18560999794E+03  0.47000000000E+01 0. -1.
         -5    1    4    4    0  503  0.11132197676E+02  0.31106076016E+02  0.89961963469E+02  0.95951855956E+02  0.47000000000E+01 0.  1.
<mgrwt>
<rscale>  0 0.10154616E+03</rscale>
<asrwt>0</asrwt>
<pdfrwt beam="1">  1        1 0.26948487E-02 0.10200648E+03</pdfrwt>
<pdfrwt beam="2">  1       -1 0.90380475E-01 0.10200648E+03</pdfrwt>
<totfact> 0.46688920E+03</totfact>
</mgrwt>
</event>
<event>
 8    1  0.2954813E-003  0.1952636E+03  0.7546771E-02  0.1154535E+00
          2   -1    0    0  501    0  0.00000000000E+00  0.00000000000E+00  0.54896254903E+03  0.54896254903E+03  0.00000000000E+00 0.  1.
         -2   -1    0    0    0  501 -0.00000000000E+00 -0.00000000000E+00 -0.73040204651E+02  0.73040204651E+02  0.00000000000E+00 0. -1.
         23    2    1    2    0    0  0.30980196804E+02 -0.16609223995E+03  0.31940833683E+03  0.37436553344E+03  0.97884943826E+02 0.  0.
         23    2    1    2    0    0 -0.30980196804E+02  0.16609223995E+03  0.15651400755E+03  0.24763722024E+03  0.91000843530E+02 0.  0.
          5    1    4    4  502    0 -0.37887297430E+02  0.54157504064E+02  0.16685958353E+02  0.68330035557E+02  0.47000000000E+01 0. -1.
         -5    1    4    4    0  502  0.69071006261E+01  0.11193473588E+03  0.13982804920E+03  0.17930718468E+03  0.47000000000E+01 0.  1.
          5    1    3    3  503    0 -0.14872110908E+02 -0.12863879331E+03  0.17127909633E+03  0.21477368942E+03  0.47000000000E+01 0. -1.
         -5    1    3    3    0  503  0.45852307711E+02 -0.37453446639E+02  0.14812924050E+03  0.15959184402E+03  0.47000000000E+01 0.  1.
<mgrwt>
<rscale>  0 0.19441849E+03</rscale>
<asrwt>0</asrwt>
<pdfrwt beam="1">  1        2 0.84455774E-01 0.19526358E+03</pdfrwt>
<pdfrwt beam="2">  1       -2 0.11236955E-01 0.19526358E+03</pdfrwt>
<totfact> 0.30383678E+03</totfact>
</mgrwt>
</event>
<event>
 8    1  0.2954813E-003  0.1143480E+03  0.7546771E-02  0.1252980E+00
          1   -1    0    0  501    0  0.00000000000E+00  0.00000000000E+00  0.84034771696E+03  0.84034771696E+03  0.00000000000E+00 0. -1.
         -1   -1    0    0    0  501 -0.00000000000E+00 -0.00000000000E+00 -0.17380205007E+02  0.17380205007E+02  0.00000000000E+00 0.  1.
         23    2    1    2    0    0  0.44031070717E+02 -0.53612498295E+02  0.55419881475E+03  0.56587258649E+03  0.90897869661E+02 0.  0.
         23    2    1    2    0    0 -0.44031070717E+02  0.53612498295E+02  0.26876869720E+03  0.29185533547E+03  0.90165897587E+02 0.  0.
          5    1    3    3  502    0  0.15873375502E+02  0.13854939915E+02  0.32252931918E+02  0.38810630338E+02  0.47000000000E+01 0.  1.
         -5    1    4    4    0  503 -0.47438791387E+02  0.27045586358E+02  0.25602087237E+03  0.26182184736E+03  0.47000000000E+01 0.  1.
          5    1    4    4  503    0  0.34077206705E+01  0.26566911938E+02  0.12747824835E+02  0.30033488111E+02  0.47000000000E+01 0. -1.
         -5    1    3    3    0  502  0.28157695215E+02 -0.67467438211E+02  0.52194588283E+03  0.52706195615E+03  0.47000000000E+01 0. -1.
<mgrwt>
<rscale>  0 0.11420244E+03</rscale>
<asrwt>0</asrwt>
<pdfrwt beam="1">  1        1 0.12928423E+00 0.11434797E+03</pdfrwt>
<pdfrwt beam="2">  1       -1 0.26738783E-02 0.11434797E+03</pdfrwt>
<totfact> 0.90870059E+03</totfact>
</mgrwt>
</event>
<event>
 8    1  0.2954813E-003  0.1456231E+03  0.7546771E-02  0.1206263E+00
         -1   -1    0    0    0  501 -0.00000000000E+00  0.00000000000E+00  0.91570245757E+03  0.91570245757E+03  0.00000000000E+00 0.  1.
          1   -1    0    0  501    0  0.00000000000E+00 -0.00000000000E+00 -0.30830829463E+02  0.30830829463E+02  0.00000000000E+00 0. -1.
         23    2    1    2    0    0  0.10958936188E+03  0.28473325800E+02  0.68193816937E+03  0.69731324105E+03  0.91572543846E+02 0.  0.
         23    2    1    2    0    0 -0.10958936188E+03 -0.28473325800E+02  0.20293345873E+03  0.24922004598E+03  0.90044900594E+02 0.  0.
          5    1    4    4  502    0 -0.11543302541E+03 -0.63274679488E+01  0.13732073152E+03  0.17956584728E+03  0.47000000000E+01 0. -1.
         -5    1    4    4    0  502  0.58436635244E+01 -0.22145857852E+02  0.65612727210E+02  0.69654198691E+02  0.47000000000E+01 0.  1.
          5    1    3    3  503    0  0.46361887084E+01  0.38296947635E+02  0.22667681943E+03  0.22998395794E+03  0.47000000000E+01 0. -1.
         -5    1    3    3    0  503  0.10495317317E+03 -0.98236218342E+01  0.45526134994E+03  0.46732928311E+03  0.47000000000E+01 0.  1.
<mgrwt>
<rscale>  0 0.14538358E+03</rscale>
<asrwt>0</asrwt>
<pdfrwt beam="1">  1        1 0.47432052E-02 0.14562311E+03</pdfrwt>
<pdfrwt beam="2">  1       -1 0.14087728E+00 0.14562311E+03</pdfrwt>
<totfact> 0.78787309E+02</totfact>
</mgrwt>
</event>
<event>
 8    1  0.2954813E-003  0.1044425E+03  0.7546771E-02  0.1273734E+00
          1   -1    0    0  501    0  0.00000000000E+00  0.00000000000E+00  0.60720986598E+03  0.60720986598E+03  0.00000000000E+00 0. -1.
         -1   -1    0    0    0  501 -0.00000000000E+00 -0.00000000000E+00 -0.17492659425E+02  0.17492659425E+02  0.00000000000E+00 0.  1.
         23    2    1    2    0    0  0.20471064471E+02  0.42437701593E+02  0.24266880551E+03  0.26227896553E+03  0.87647496210E+02 0.  0.
         23    2    1    2    0    0 -0.20471064471E+02 -0.42437701593E+02  0.34704840105E+03  0.36242355988E+03  0.93210627572E+02 0.  0.
          5    1    3    3  502    0 -0.68413903036E+01 -0.23006463614E+02  0.99216305006E+02  0.10218643339E+03  0.47000000000E+01 0. -1.
         -5    1    4    4    0  503  0.32975357482E+02 -0.17093117869E+00  0.15645351272E+03  0.15995997956E+03  0.47000000000E+01 0.  1.
          5    1    4    4  503    0 -0.53446421954E+02 -0.42266770414E+02  0.19059488833E+03  0.20246358033E+03  0.47000000000E+01 0. -1.
         -5    1    3    3    0  502  0.27312454775E+02  0.65444165207E+02  0.14345250051E+03  0.16009253214E+03  0.47000000000E+01 0.  1.
<mgrwt>
<rscale>  0 0.10318677E+03</rscale>
<asrwt>0</asrwt>
<pdfrwt beam="1">  1        1 0.93416886E-01 0.10444254E+03</pdfrwt>
<pdfrwt beam="2">  1       -1 0.26911788E-02 0.10444254E+03</pdfrwt>
<totfact> 0.14241328E+04</totfact>
</mgrwt>
</event>
<event>
 8    1  0.2954813E-003  0.1351600E+03  0.7546771E-02  0.1220529E+00
         -2   -1    0    0    0  501 -0.00000000000E+00  0.00000000000E+00  0.32250246981E+02  0.32250246981E+02  0.00000000000E+00 0.  1.
          2   -1    0    0  501    0  0.00000000000E+00 -0.00000000000E+00 -0.79768576183E+03  0.79768576183E+03  0.00000000000E+00 0. -1.
         23    2    1    2    0    0 -0.65851722376E+02  0.74620449506E+02 -0.15778130303E+03  0.20775748341E+03  0.91452564222E+02 0.  0.
         23    2    1    2    0    0  0.65851722376E+02 -0.74620449506E+02 -0.60765421181E+03  0.62217852540E+03  0.89206588915E+02 0.  0.
          5    1    4    4  502    0  0.58675425941E+02 -0.40059939011E+02 -0.54873061113E+03  0.55333080333E+03  0.47000000000E+01 0. -1.
         -5    1    4    4    0  502  0.71762964352E+01 -0.34560510494E+02 -0.58923600679E+02  0.68847722062E+02  0.47000000000E+01 0.  1.
          5    1    3    3  503    0  0.70472220454E+01  0.44835314707E+02 -0.10016623805E+03  0.11006922380E+03  0.47000000000E+01 0. -1.
         -5    1    3    3    0  503 -0.72898944422E+02  0.29785134798E+02 -0.57615064987E+02  0.97688259613E+02  0.47000000000E+01 0.  1.
<mgrwt>
<rscale>  0 0.13478107E+03</rscale>
<asrwt>0</asrwt>
<pdfrwt beam="1">  1        2 0.12272089E+00 0.13516002E+03</pdfrwt>
<pdfrwt beam="2">  1       -2 0.49615764E-02 0.13516002E+03</pdfrwt>
<totfact> 0.68162153E+03</totfact>
</mgrwt>
</event>
<event>
 8    1  0.2954813E-003  0.2169282E+03  0.7546771E-02  0.1136210E+00
          1   -1    0    0  501    0  0.00000000000E+00  0.00000000000E+00  0.22908391916E+03  0.22908391916E+03  0.00000000000E+00 0. -1.
         -1   -1    0    0    0  501 -0.00000000000E+00 -0.00000000000E+00 -0.21989921677E+03  0.21989921677E+03  0.00000000000E+00 0.  1.
         23    2    1    2    0    0 -0.19284987858E+03 -0.34704376474E+02  0.62361552911E+02  0.22571400996E+03  0.93071916263E+02 0.  0.
         23    2    1    2    0    0  0.19284987858E+03  0.34704376474E+02 -0.53176850517E+02  0.22326912598E+03  0.92875485307E+02 0.  0.
          5    1    4    4  502    0  0.77931769846E+02 -0.24836006512E+02  0.32633398836E+01  0.81993459239E+02  0.47000000000E+01 0. -1.
         -5    1    3    3    0  503 -0.42667072074E+02  0.19692001666E+02 -0.13075636530E+02  0.49003226829E+02  0.47000000000E+01 0.  1.
          5    1    3    3  503    0 -0.15018280650E+03 -0.54396378140E+02  0.75437189441E+02  0.17671078313E+03  0.47000000000E+01 0. -1.
         -5    1    4    4    0  502  0.11491810873E+03  0.59540382986E+02 -0.56440190401E+02  0.14127566674E+03  0.47000000000E+01 0.  1.
<mgrwt>
<rscale>  0 0.21690716E+03</rscale>
<asrwt>0</asrwt>
<pdfrwt beam="1">  1        1 0.35243680E-01 0.21692822E+03</pdfrwt>
<pdfrwt beam="2">  1       -1 0.33830649E-01 0.21692822E+03</pdfrwt>
<totfact> 0.10225587E+03</totfact>
</mgrwt>
</event>
<event>
 8    1  0.2954813E-003  0.9357137E+02  0.7546771E-02  0.1294487E+00
          1   -1    0    0  501    0  0.00000000000E+00  0.00000000000E+00  0.21428385311E+03  0.21428385311E+03  0.00000000000E+00 0. -1.
         -1   -1    0    0    0  501 -0.00000000000E+00 -0.00000000000E+00 -0.75318612023E+02  0.75318612023E+02  0.00000000000E+00 0.  1.
         23    2    1    2    0    0  0.10019076297E+01 -0.22999883535E+02 -0.28546289943E+02  0.97728251077E+02  0.90586543855E+02 0.  0.
         23    2    1    2    0    0 -0.10019076297E+01  0.22999883535E+02  0.16751153103E+03  0.19187421406E+03  0.90695107534E+02 0.  0.
          5    1    4    4  502    0  0.13777241979E+01  0.57945834514E+02  0.10035640855E+03  0.11598757088E+03  0.47000000000E+01 0. -1.
         -5    1    4    4    0  502 -0.23796318277E+01 -0.34945950979E+02  0.67155122479E+02  0.75886643177E+02  0.47000000000E+01 0.  1.
          5    1    3    3  503    0  0.15394037667E+02  0.24636204214E+02  0.13532434922E+02  0.32390365060E+02  0.47000000000E+01 0. -1.
         -5    1    3    3    0  503 -0.14392130037E+02 -0.47636087749E+02 -0.42078724865E+02  0.65337886018E+02  0.47000000000E+01 0.  1.
<mgrwt>
<rscale>  0 0.93545052E+02</rscale>
<asrwt>0</asrwt>
<pdfrwt beam="1">  1        1 0.32966746E-01 0.93571368E+02</pdfrwt>
<pdfrwt beam="2">  1       -1 0.11587479E-01 0.93571368E+02</pdfrwt>
<totfact> 0.60338009E+03</totfact>
</mgrwt>
</event>
<event>
 8    1  0.2954813E-003  0.1278946E+03  0.7546771E-02  0.1231372E+00
          1   -1    0    0  501    0  0.00000000000E+00  0.00000000000E+00  0.13204745115E+03  0.13204745115E+03  0.00000000000E+00 0. -1.
         -1   -1    0    0    0  501 -0.00000000000E+00 -0.00000000000E+00 -0.32308309045E+03  0.32308309045E+03  0.00000000000E+00 0.  1.
         23    2    1    2    0    0 -0.23757319560E+02  0.74610134925E+02 -0.27478228905E+03  0.30225629535E+03  0.98602633012E+02 0.  0.
         23    2    1    2    0    0  0.23757319560E+02 -0.74610134925E+02  0.83746649750E+02  0.15287424625E+03  0.10112344613E+03 0.  0.
          5    1    4    4  502    0 -0.80825579895E+01 -0.91190546167E+02  0.58771095834E+02  0.10889065690E+03  0.47000000000E+01 0. -1.
         -5    1    3    3    0  503 -0.36743921122E+01  0.55526515175E+02 -0.26744618542E+03  0.27321465397E+03  0.47000000000E+01 0.  1.
          5    1    3    3  503    0 -0.20082927447E+02  0.19083619751E+02 -0.73361036226E+01  0.29041641379E+02  0.47000000000E+01 0. -1.
         -5    1    4    4    0  502  0.31839877549E+02  0.16580411242E+02  0.24975553915E+02  0.43983589356E+02  0.47000000000E+01 0.  1.
<mgrwt>
<rscale>  0 0.12739579E+03</rscale>
<asrwt>0</asrwt>
<pdfrwt beam="1">  1        1 0.20314993E-01 0.12789462E+03</pdfrwt>
<pdfrwt beam="2">  1       -1 0.49705090E-01 0.12789462E+03</pdfrwt>
<totfact> 0.10257964E+03</totfact>
</mgrwt>
</event>
<event>
 8    1  0.2954813E-003  0.2385148E+03  0.7546771E-02  0.1121595E+00
         -1   -1    0    0    0  501 -0.00000000000E+00  0.00000000000E+00  0.48830802425E+02  0.48830802425E+02  0.00000000000E+00 0.  1.
          1   -1    0    0  501    0  0.00000000000E+00 -0.00000000000E+00 -0.14095317384E+04  0.14095317384E+04  0.00000000000E+00 0. -1.
         23    2    1    2    0    0  0.11608348515E+03 -0.18087859258E+03 -0.10036636221E+04  0.10316152322E+04  0.10342572271E+03 0.  0.
         23    2    1    2    0    0 -0.11608348515E+03  0.18087859258E+03 -0.35703731384E+03  0.42674730864E+03  0.91897666858E+02 0.  0.
          5    1    3    3  502    0  0.66130287968E+02 -0.17003650172E+03 -0.68749092407E+03  0.71130266946E+03  0.47000000000E+01 0. -1.
         -5    1    4    4    0  503 -0.71364146935E+02  0.13617672065E+03 -0.17001138423E+03  0.22926600594E+03  0.47000000000E+01 0.  1.
          5    1    4    4  503    0 -0.44719338210E+02  0.44701871933E+02 -0.18702592962E+03  0.19748130269E+03  0.47000000000E+01 0. -1.
         -5    1    3    3    0  502  0.49953197177E+02 -0.10842090865E+02 -0.31617269806E+03  0.32031256273E+03  0.47000000000E+01 0.  1.
<mgrwt>
<rscale>  0 0.23731381E+03</rscale>
<asrwt>0</asrwt>
<pdfrwt beam="1">  1        1 0.21685101E+00 0.23851482E+03</pdfrwt>
<pdfrwt beam="2">  1       -1 0.75124322E-02 0.23851482E+03</pdfrwt>
<totfact> 0.78306907E+02</totfact>
</mgrwt>
</event>
<event>
 8    1  0.2954813E-003  0.2410142E+03  0.7546771E-02  0.1119168E+00
         -1   -1    0    0    0  501 -0.00000000000E+00  0.00000000000E+00  0.48447149410E+02  0.48447149410E+02  0.00000000000E+00 0.  1.
          1   -1    0    0  501    0  0.00000000000E+00 -0.00000000000E+00 -0.19012708162E+04  0.19012708162E+04  0.00000000000E+00 0. -1.
         23    2    1    2    0    0  0.13600867657E+03  0.17470872839E+03 -0.15198603450E+04  0.15388512992E+04  0.95217398825E+02 0.  0.
         23    2    1    2    0    0 -0.13600867657E+03 -0.17470872839E+03 -0.33296332183E+03  0.41086666639E+03  0.94474038717E+02 0.  0.
          5    1    3    3  502    0  0.21697004897E+02 -0.35086450855E+01 -0.67796940768E+02  0.71425386169E+02  0.47000000000E+01 0.  1.
         -5    1    3    3    0  502  0.11431167167E+03  0.17821737348E+03 -0.14520634042E+04  0.14674259131E+04  0.47000000000E+01 0. -1.
          5    1    4    4  503    0 -0.12463504058E+03 -0.88862942164E+02 -0.19561928300E+03  0.24843411544E+03  0.47000000000E+01 0. -1.
         -5    1    4    4    0  503 -0.11373635985E+02 -0.85845786229E+02 -0.13734403882E+03  0.16243255095E+03  0.47000000000E+01 0.  1.
<mgrwt>
<rscale>  0 0.24094101E+03</rscale>
<asrwt>0</asrwt>
<pdfrwt beam="1">  1        1 0.29250319E+00 0.24101422E+03</pdfrwt>
<pdfrwt beam="2">  1       -1 0.74534080E-02 0.24101422E+03</pdfrwt>
<totfact> 0.37766883E+02</totfact>
</mgrwt>
</event>
<event>
 8    1  0.2954813E-003  0.1034463E+03  0.7546771E-02  0.1274361E+00
         -3   -1    0    0    0  501 -0.00000000000E+00  0.00000000000E+00  0.23789698024E+02  0.23789698024E+02  0.00000000000E+00 0.  1.
          3   -1    0    0  501    0  0.00000000000E+00 -0.00000000000E+00 -0.44078022544E+03  0.44078022544E+03  0.00000000000E+00 0. -1.
         23    2    1    2    0    0  0.33698806432E+02  0.31342434239E+02 -0.19671153772E+03  0.22121016253E+03  0.90114089879E+02 0.  0.
         23    2    1    2    0    0 -0.33698806432E+02 -0.31342434239E+02 -0.22027898970E+03  0.24335976094E+03  0.92645465092E+02 0.  0.
          5    1    3    3  502    0  0.49032610786E+02  0.50502890376E+02 -0.10762264982E+03  0.12868357941E+03  0.47000000000E+01 0. -1.
         -5    1    4    4    0  503 -0.78375178301E+01 -0.31489623365E+02 -0.14403475703E+02  0.35813030837E+02  0.47000000000E+01 0.  1.
          5    1    4    4  503    0 -0.25861288602E+02  0.14718912613E+00 -0.20587551399E+03  0.20754673010E+03  0.47000000000E+01 0. -1.
         -5    1    3    3    0  502 -0.15333804354E+02 -0.19160456137E+02 -0.89088887905E+02  0.92526583118E+02  0.47000000000E+01 0.  1.
<mgrwt>
<rscale>  0 0.10287642E+03</rscale>
<asrwt>0</asrwt>
<pdfrwt beam="1">  1        3 0.67812338E-01 0.10344631E+03</pdfrwt>
<pdfrwt beam="2">  1       -3 0.36599538E-02 0.10344631E+03</pdfrwt>
<totfact> 0.17396721E+03</totfact>
</mgrwt>
</event>
<event>
 7    1  0.2954813E-003  0.3404272E+03  0.7546771E-02  0.1094841E+00
         -1   -1    0    0    0  501 -0.00000000000E+00  0.00000000000E+00  0.93729619515E+03  0.93729619515E+03  0.00000000000E+00 0.  1.
          1   -1    0    0  501    0  0.00000000000E+00 -0.00000000000E+00 -0.13351914123E+03  0.13351914123E+03  0.00000000000E+00 0. -1.
         23    2    1    2    0    0  0.29076020888E+02 -0.12894298164E+03  0.69561086444E+03  0.71361708219E+03  0.88899706188E+02 0.  0.
          5    1    1    2  502    0  0.74152352643E+02  0.10676800975E+02 -0.81598617028E+02  0.11087375606E+03  0.47000000000E+01 0. -1.
         -5    1    1    2    0  502 -0.10322837353E+03  0.11826618066E+03  0.18976480651E+03  0.24632449813E+03  0.47000000000E+01 0.  1.
          5    1    3    3  503    0  0.53398173769E+02 -0.50300658741E+02  0.40119337062E+03  0.40787220041E+03  0.47000000000E+01 0. -1.
         -5    1    3    3    0  503 -0.24322152881E+02 -0.78642322895E+02  0.29441749382E+03  0.30574488178E+03  0.47000000000E+01 0.  1.
<mgrwt>
<rscale>  0 0.28155850E+03</rscale>
<asrwt>0</asrwt>
<pdfrwt beam="1">  1        1 0.20541407E-01 0.34042718E+03</pdfrwt>
<pdfrwt beam="2">  1       -1 0.14419941E+00 0.34042718E+03</pdfrwt>
<totfact> 0.10301552E+02</totfact>
</mgrwt>
</event>
<event>
 8    1  0.2954813E-003  0.9958373E+02  0.7546771E-02  0.1281488E+00
         -2   -1    0    0    0  501 -0.00000000000E+00  0.00000000000E+00  0.76676599900E+02  0.76676599900E+02  0.00000000000E+00 0.  1.
          2   -1    0    0  501    0  0.00000000000E+00 -0.00000000000E+00 -0.15000221586E+03  0.15000221586E+03  0.00000000000E+00 0. -1.
         23    2    1    2    0    0  0.12324748693E+02 -0.33186174361E+02 -0.79414629004E+02  0.12690910197E+03  0.92444660544E+02 0.  0.
         23    2    1    2    0    0 -0.12324748693E+02  0.33186174361E+02  0.60890130432E+01  0.99769713795E+02  0.93078988563E+02 0.  0.
          5    1    4    4  502    0  0.23382778271E+02  0.35296273630E+02  0.33717841529E+02  0.54328299157E+02  0.47000000000E+01 0. -1.
         -5    1    4    4    0  502 -0.35707526964E+02 -0.21100992692E+01 -0.27628828486E+02  0.45441414638E+02  0.47000000000E+01 0.  1.
          5    1    3    3  503    0  0.18306617327E+02  0.29839173507E+02 -0.32169158488E+02  0.47775027696E+02  0.47000000000E+01 0. -1.
         -5    1    3    3    0  503 -0.59818686341E+01 -0.63025347868E+02 -0.47245470516E+02  0.79134074270E+02  0.47000000000E+01 0.  1.
<mgrwt>
<rscale>  0 0.99435241E+02</rscale>
<asrwt>0</asrwt>
<pdfrwt beam="1">  1        2 0.23077264E-01 0.99583732E+02</pdfrwt>
<pdfrwt beam="2">  1       -2 0.11796400E-01 0.99583732E+02</pdfrwt>
<totfact> 0.10948641E+04</totfact>
</mgrwt>
</event>
<event>
 8    1  0.1094626E-002  0.1080171E+03  0.7546771E-02  0.1269962E+00
          1   -1    0    0  501    0  0.00000000000E+00  0.00000000000E+00  0.40398025417E+03  0.40398025417E+03  0.00000000000E+00 0. -1.
         -1   -1    0    0    0  501 -0.00000000000E+00 -0.00000000000E+00 -0.13784277585E+03  0.13784277585E+03  0.00000000000E+00 0.  1.
         23    2    1    2    0    0  0.42313689792E+02  0.38642892638E+02  0.37570733286E+03  0.38796191988E+03  0.77940553091E+02 0.  0.
         23    2    1    2    0    0 -0.42313689792E+02 -0.38642892638E+02 -0.10956985454E+03  0.15386111014E+03  0.91564003259E+02 0.  0.
          5    1    3    3  502    0  0.64629165699E+02  0.34446665457E+02  0.27549768657E+03  0.28510448458E+03  0.47000000000E+01 0. -1.
         -5    1    4    4    0  503 -0.66628072514E+02 -0.42324368072E+02 -0.63449613208E+02  0.10138340888E+03  0.47000000000E+01 0.  1.
          5    1    4    4  503    0  0.24314382722E+02  0.36814754344E+01 -0.46120241333E+02  0.52477701257E+02  0.47000000000E+01 0. -1.
         -5    1    3    3    0  502 -0.22315475906E+02  0.41962271805E+01  0.10020964629E+03  0.10285743530E+03  0.47000000000E+01 0.  1.
<mgrwt>
<rscale>  0 0.10507994E+03</rscale>
<asrwt>0</asrwt>
<pdfrwt beam="1">  1        1 0.62150808E-01 0.10801707E+03</pdfrwt>
<pdfrwt beam="2">  1       -1 0.21206581E-01 0.10801707E+03</pdfrwt>
<totfact> 0.10840307E+03</totfact>
</mgrwt>
</event>
<event>
 8    1  0.2954813E-003  0.9439195E+02  0.7546771E-02  0.1293382E+00
         -1   -1    0    0    0  501 -0.00000000000E+00  0.00000000000E+00  0.70909018624E+02  0.70909018624E+02  0.00000000000E+00 0.  1.
          1   -1    0    0  501    0  0.00000000000E+00 -0.00000000000E+00 -0.13281059996E+03  0.13281059996E+03  0.00000000000E+00 0. -1.
         23    2    1    2    0    0  0.18485685046E+02 -0.29187464286E+01 -0.57364661018E+02  0.10921869378E+03  0.91037240204E+02 0.  0.
         23    2    1    2    0    0 -0.18485685046E+02  0.29187464286E+01 -0.45369203149E+01  0.94500924805E+02  0.92518114500E+02 0.  0.
          5    1    4    4  502    0 -0.49188873291E+01  0.27077643463E+02 -0.40294168248E+02  0.49021466959E+02  0.47000000000E+01 0. -1.
         -5    1    3    3    0  503  0.54161505171E+02 -0.21687607126E+01 -0.21780349750E+02  0.58605851249E+02  0.47000000000E+01 0.  1.
          5    1    3    3  503    0 -0.35675820125E+02 -0.74998571602E+00 -0.35584311268E+02  0.50612842526E+02  0.47000000000E+01 0. -1.
         -5    1    4    4    0  502 -0.13566797717E+02 -0.24158897035E+02  0.35757247933E+02  0.45479457846E+02  0.47000000000E+01 0.  1.
<mgrwt>
<rscale>  0 0.94027092E+02</rscale>
<asrwt>0</asrwt>
<pdfrwt beam="1">  1        1 0.20432400E-01 0.94391955E+02</pdfrwt>
<pdfrwt beam="2">  1       -1 0.10909080E-01 0.94391955E+02</pdfrwt>
<totfact> 0.11971646E+04</totfact>
</mgrwt>
</event>
<event>
 8    1  0.2954813E-003  0.1039314E+03  0.7546771E-02  0.1273187E+00
         -1   -1    0    0    0  501 -0.00000000000E+00  0.00000000000E+00  0.36299846621E+02  0.36299846621E+02  0.00000000000E+00 0.  1.
          1   -1    0    0  501    0  0.00000000000E+00 -0.00000000000E+00 -0.46338173295E+03  0.46338173295E+03  0.00000000000E+00 0. -1.
         23    2    1    2    0    0 -0.36114850457E+02  0.33153870111E+02 -0.36661061847E+03  0.38105783444E+03  0.91642054158E+02 0.  0.
         23    2    1    2    0    0  0.36114850457E+02 -0.33153870111E+02 -0.60471267858E+02  0.11862374512E+03  0.89506184949E+02 0.  0.
          5    1    4    4  502    0 -0.20592687916E+02  0.18785132396E+01 -0.45422611106E+02  0.50128746317E+02  0.47000000000E+01 0. -1.
         -5    1    4    4    0  502  0.56707538374E+02 -0.35032383351E+02 -0.15048656752E+02  0.68494998808E+02  0.47000000000E+01 0.  1.
          5    1    3    3  503    0 -0.58052569297E+02 -0.17370684181E+00 -0.27377721032E+03  0.27990387969E+03  0.47000000000E+01 0. -1.
         -5    1    3    3    0  503  0.21937718839E+02  0.33327576953E+02 -0.92833408145E+02  0.10115395475E+03  0.47000000000E+01 0.  1.
<mgrwt>
<rscale>  0 0.10345856E+03</rscale>
<asrwt>0</asrwt>
<pdfrwt beam="1">  1        1 0.71289494E-01 0.10393136E+03</pdfrwt>
<pdfrwt beam="2">  1       -1 0.55845921E-02 0.10393136E+03</pdfrwt>
<totfact> 0.69999303E+03</totfact>
</mgrwt>
</event>
<event>
 8    1  0.2954813E-003  0.9361950E+02  0.7546771E-02  0.1295199E+00
          2   -1    0    0  501    0  0.00000000000E+00  0.00000000000E+00  0.22020405370E+03  0.22020405370E+03  0.00000000000E+00 0. -1.
         -2   -1    0    0    0  501 -0.00000000000E+00 -0.00000000000E+00 -0.51350372337E+02  0.51350372337E+02  0.00000000000E+00 0.  1.
         23    2    1    2    0    0  0.51821092830E+01 -0.90731470925E+01  0.15111665718E+03  0.17776629068E+03  0.93034583726E+02 0.  0.
         23    2    1    2    0    0 -0.51821092830E+01  0.90731470925E+01  0.17737024187E+02  0.93788135363E+02  0.91501016678E+02 0.  0.
          5    1    3    3  502    0 -0.11896740918E+02 -0.47168107283E+02  0.59660183707E+02  0.77121918474E+02  0.47000000000E+01 0. -1.
         -5    1    3    3    0  502  0.17078850201E+02  0.38094960191E+02  0.91456473473E+02  0.10064437220E+03  0.47000000000E+01 0.  1.
          5    1    4    4  503    0 -0.32894285295E+02 -0.26289111332E+02 -0.59434388353E+01  0.42785112421E+02  0.47000000000E+01 0. -1.
         -5    1    4    4    0  503  0.27712176012E+02  0.35362258425E+02  0.23680463023E+02  0.51003022942E+02  0.47000000000E+01 0.  1.
<mgrwt>
<rscale>  0 0.93236192E+02</rscale>
<asrwt>0</asrwt>
<pdfrwt beam="1">  1        2 0.33877546E-01 0.93619496E+02</pdfrwt>
<pdfrwt beam="2">  1       -2 0.79000574E-02 0.93619496E+02</pdfrwt>
<totfact> 0.13410101E+04</totfact>
</mgrwt>
</event>
<event>
 8    1  0.2954813E-003  0.1292973E+03  0.7546771E-02  0.1229302E+00
         -1   -1    0    0    0  501 -0.00000000000E+00  0.00000000000E+00  0.50398044841E+02  0.50398044841E+02  0.00000000000E+00 0.  1.
          1   -1    0    0  501    0  0.00000000000E+00 -0.00000000000E+00 -0.39207035609E+03  0.39207035609E+03  0.00000000000E+00 0. -1.
         23    2    1    2    0    0 -0.63228780014E+02  0.61790622980E+02 -0.81399107380E+02  0.15278618712E+03  0.94349587083E+02 0.  0.
         23    2    1    2    0    0  0.63228780014E+02 -0.61790622980E+02 -0.26027320387E+03  0.28968221381E+03  0.91420373192E+02 0.  0.
          5    1    4    4  502    0  0.51814466463E+02 -0.79998271071E+02 -0.15410628797E+03  0.18126031088E+03  0.47000000000E+01 0. -1.
         -5    1    3    3    0  503 -0.20836630582E+02  0.30852365121E+02  0.16977805645E+02  0.41187006350E+02  0.47000000000E+01 0.  1.
          5    1    3    3  503    0 -0.42392149433E+02  0.30938257859E+02 -0.98376913025E+02  0.11159918077E+03  0.47000000000E+01 0. -1.
         -5    1    4    4    0  502  0.11414313551E+02  0.18207648091E+02 -0.10616691589E+03  0.10842190292E+03  0.47000000000E+01 0.  1.
<mgrwt>
<rscale>  0 0.12876363E+03</rscale>
<asrwt>0</asrwt>
<pdfrwt beam="1">  1        1 0.60318517E-01 0.12929735E+03</pdfrwt>
<pdfrwt beam="2">  1       -1 0.77535452E-02 0.12929735E+03</pdfrwt>
<totfact> 0.53776843E+03</totfact>
</mgrwt>
</event>
<event>
 8    1  0.2954813E-003  0.1228969E+03  0.7546771E-02  0.1245270E+00
         -1   -1    0    0    0  501 -0.00000000000E+00  0.00000000000E+00  0.13770433510E+02  0.13770433510E+02  0.00000000000E+00 0.  1.
          1   -1    0    0  501    0  0.00000000000E+00 -0.00000000000E+00 -0.96587040877E+03  0.96587040877E+03  0.00000000000E+00 0. -1.
         23    2    1    2    0    0 -0.11817342691E+02  0.11524024219E+02 -0.55046961247E+03  0.56402166317E+03  0.12178337139E+03 0.  0.
         23    2    1    2    0    0  0.11817342691E+02 -0.11524024219E+02 -0.40163036278E+03  0.41561917911E+03  0.10564043264E+03 0.  0.
          5    1    4    4  502    0 -0.40051408392E+02 -0.11333081799E+01 -0.28011903448E+03  0.28300912208E+03  0.47000000000E+01 0. -1.
         -5    1    3    3    0  503  0.41334097483E+02  0.42245074088E+02 -0.21909038943E+03  0.22697101718E+03  0.47000000000E+01 0.  1.
          5    1    3    3  503    0 -0.53151440175E+02 -0.30721049869E+02 -0.33137922304E+03  0.33705064599E+03  0.47000000000E+01 0. -1.
         -5    1    4    4    0  502  0.51868751083E+02 -0.10390716039E+02 -0.12151132830E+03  0.13261005703E+03  0.47000000000E+01 0.  1.
<mgrwt>
<rscale>  0 0.11869231E+03</rscale>
<asrwt>0</asrwt>
<pdfrwt beam="1">  1        1 0.14859545E+00 0.12289688E+03</pdfrwt>
<pdfrwt beam="2">  1       -1 0.21185281E-02 0.12289688E+03</pdfrwt>
<totfact> 0.10241815E+04</totfact>
</mgrwt>
</event>
<event>
 8    1  0.2954813E-003  0.1068293E+03  0.7546771E-02  0.1266742E+00
         -1   -1    0    0    0  501 -0.00000000000E+00  0.00000000000E+00  0.25026165158E+03  0.25026165158E+03  0.00000000000E+00 0.  1.
          1   -1    0    0  501    0  0.00000000000E+00 -0.00000000000E+00 -0.45440878646E+02  0.45440878646E+02  0.00000000000E+00 0. -1.
         23    2    1    2    0    0  0.43394076716E+02  0.21501834836E+02  0.10148154229E+03  0.14734652545E+03  0.95221427949E+02 0.  0.
         23    2    1    2    0    0 -0.43394076716E+02 -0.21501834836E+02  0.10333923064E+03  0.14835600477E+03  0.94789940224E+02 0.  0.
          5    1    4    4  502    0 -0.49357420877E+02 -0.42111528211E+02  0.29698527752E+02  0.71509638194E+02  0.47000000000E+01 0. -1.
         -5    1    3    3    0  503  0.55386945429E+02  0.44603814386E+02  0.97235988239E+02  0.12055762684E+03  0.47000000000E+01 0.  1.
          5    1    3    3  503    0 -0.11992868713E+02 -0.23101979550E+02  0.42455540486E+01  0.26788898601E+02  0.47000000000E+01 0. -1.
         -5    1    4    4    0  502  0.59633441615E+01  0.20609693375E+02  0.73640702890E+02  0.76846366581E+02  0.47000000000E+01 0.  1.
<mgrwt>
<rscale>  0 0.10673304E+03</rscale>
<asrwt>0</asrwt>
<pdfrwt beam="1">  1        1 0.69909046E-02 0.10682928E+03</pdfrwt>
<pdfrwt beam="2">  1       -1 0.38501792E-01 0.10682928E+03</pdfrwt>
<totfact> 0.64383184E+03</totfact>
</mgrwt>
</event>
<event>
 8    1  0.2954813E-003  0.9885245E+02  0.7546771E-02  0.1284100E+00
          2   -1    0    0  501    0  0.00000000000E+00  0.00000000000E+00  0.21009696502E+03  0.21009696502E+03  0.00000000000E+00 0. -1.
         -2   -1    0    0    0  501 -0.00000000000E+00 -0.00000000000E+00 -0.56387656734E+02  0.56387656734E+02  0.00000000000E+00 0.  1.
         23    2    1    2    0    0  0.15897388192E+02  0.22434321986E+02  0.13666691102E+03  0.16867024378E+03  0.94951465579E+02 0.  0.
         23    2    1    2    0    0 -0.15897388192E+02 -0.22434321986E+02  0.17042397269E+02  0.97814377975E+02  0.92310256633E+02 0.  0.
          5    1    4    4  502    0  0.81515252991E+00 -0.54381581971E+02 -0.57642496431E+01  0.54893874934E+02  0.47000000000E+01 0. -1.
         -5    1    4    4    0  502 -0.16712540722E+02  0.31947259985E+02  0.22806646913E+02  0.42920503041E+02  0.47000000000E+01 0.  1.
          5    1    3    3  503    0 -0.17675588874E+02  0.21858025942E+02  0.13128194587E+03  0.13434001285E+03  0.47000000000E+01 0. -1.
         -5    1    3    3    0  503  0.33572977066E+02  0.57629604440E+00  0.53849651453E+01  0.34330230932E+02  0.47000000000E+01 0.  1.
<mgrwt>
<rscale>  0 0.98212721E+02</rscale>
<asrwt>0</asrwt>
<pdfrwt beam="1">  1        2 0.32322610E-01 0.98852448E+02</pdfrwt>
<pdfrwt beam="2">  1       -2 0.86750242E-02 0.98852448E+02</pdfrwt>
<totfact> 0.12273251E+04</totfact>
</mgrwt>
</event>
<event>
 7    1  0.2954813E-003  0.2023070E+03  0.7546771E-02  0.1153463E+00
          1   -1    0    0  501    0  0.00000000000E+00  0.00000000000E+00  0.12011578515E+04  0.12011578515E+04  0.00000000000E+00 0. -1.
         -1   -1    0    0    0  501 -0.00000000000E+00 -0.00000000000E+00 -0.40758217488E+02  0.40758217488E+02  0.00000000000E+00 0.  1.
         23    2    1    2    0    0  0.91945661472E+02  0.11451684318E+03  0.87112783869E+03  0.88891990243E+03  0.98725728980E+02 0.  0.
          5    1    1    2  502    0 -0.63950206696E+02 -0.82205034142E+01  0.20341049232E+03  0.21343646361E+03  0.47000000000E+01 0. -1.
         -5    1    1    2    0  502 -0.27995454777E+02 -0.10629633977E+03  0.85861303039E+02  0.13955970298E+03  0.47000000000E+01 0.  1.
          5    1    3    3  503    0  0.45036919837E+02  0.12010605804E+03  0.58881931850E+03  0.60264754970E+03  0.47000000000E+01 0. -1.
         -5    1    3    3    0  503  0.46908741635E+02 -0.55892148529E+01  0.28230852019E+03  0.28627235272E+03  0.47000000000E+01 0.  1.
<mgrwt>
<rscale>  0 0.19564873E+03</rscale>
<asrwt>0</asrwt>
<pdfrwt beam="1">  1        1 0.18479349E+00 0.20230700E+03</pdfrwt>
<pdfrwt beam="2">  1       -1 0.62704959E-02 0.20230700E+03</pdfrwt>
<totfact> 0.14300377E+03</totfact>
</mgrwt>
</event>
<event>
 8    1  0.2954813E-003  0.1175464E+03  0.7546771E-02  0.1247711E+00
          3   -1    0    0  501    0  0.00000000000E+00  0.00000000000E+00  0.70776895371E+02  0.70776895371E+02  0.00000000000E+00 0. -1.
         -3   -1    0    0    0  501 -0.00000000000E+00 -0.00000000000E+00 -0.20038083327E+03  0.20038083327E+03  0.00000000000E+00 0.  1.
         23    2    1    2    0    0  0.71558892844E+02  0.15709480832E+02 -0.39521118932E+02  0.12401241330E+03  0.91922232777E+02 0.  0.
         23    2    1    2    0    0 -0.71558892844E+02 -0.15709480832E+02 -0.90082818963E+02  0.14714531533E+03  0.90384548564E+02 0.  0.
          5    1    3    3  502    0  0.91825685841E+02  0.16093061893E+02 -0.19960922576E+02  0.95454028995E+02  0.47000000000E+01 0. -1.
         -5    1    3    3    0  502 -0.20266792997E+02 -0.38358106157E+00 -0.19560196355E+02  0.28558384308E+02  0.47000000000E+01 0.  1.
          5    1    4    4  503    0 -0.88942809330E+01 -0.44776696356E+02 -0.25698983347E+02  0.52598369889E+02  0.47000000000E+01 0. -1.
         -5    1    4    4    0  503 -0.62664611911E+02  0.29067215524E+02 -0.64383835616E+02  0.94546945444E+02  0.47000000000E+01 0.  1.
<mgrwt>
<rscale>  0 0.11724563E+03</rscale>
<asrwt>0</asrwt>
<pdfrwt beam="1">  1        3 0.10888753E-01 0.11754642E+03</pdfrwt>
<pdfrwt beam="2">  1       -3 0.30827820E-01 0.11754642E+03</pdfrwt>
<totfact> 0.14638308E+03</totfact>
</mgrwt>
</event>
<event>
 8    1  0.2954813E-003  0.9294445E+02  0.7546771E-02  0.1296157E+00
         -2   -1    0    0    0  501 -0.00000000000E+00  0.00000000000E+00  0.11878898307E+03  0.11878898307E+03  0.00000000000E+00 0.  1.
          2   -1    0    0  501    0  0.00000000000E+00 -0.00000000000E+00 -0.91813017404E+02  0.91813017404E+02  0.00000000000E+00 0. -1.
         23    2    1    2    0    0 -0.52368243172E+01  0.19575474873E+02  0.61951454917E+02  0.11129461859E+03  0.90210231217E+02 0.  0.
         23    2    1    2    0    0  0.52368243172E+01 -0.19575474873E+02 -0.34975489255E+02  0.99307381876E+02  0.90708586700E+02 0.  0.
          5    1    4    4  502    0  0.20853652087E+02 -0.45265493844E+02 -0.44956199690E+02  0.67282907405E+02  0.47000000000E+01 0. -1.
         -5    1    3    3    0  503 -0.23627035544E+02  0.32133135844E+02  0.74988736038E+02  0.85065714365E+02  0.47000000000E+01 0.  1.
          5    1    3    3  503    0  0.18390211227E+02 -0.12557660971E+02 -0.13037281121E+02  0.26228904229E+02  0.47000000000E+01 0. -1.
         -5    1    4    4    0  502 -0.15616827770E+02  0.25690018971E+02  0.99807104355E+01  0.32024474471E+02  0.47000000000E+01 0.  1.
<mgrwt>
<rscale>  0 0.92822637E+02</rscale>
<asrwt>0</asrwt>
<pdfrwt beam="1">  1        2 0.14125080E-01 0.92944452E+02</pdfrwt>
<pdfrwt beam="2">  1       -2 0.18275228E-01 0.92944452E+02</pdfrwt>
<totfact> 0.93483461E+03</totfact>
</mgrwt>
</event>
<event>
 8    1  0.2954813E-003  0.1097185E+03  0.7546771E-02  0.1264204E+00
          2   -1    0    0  501    0  0.00000000000E+00  0.00000000000E+00  0.57007390991E+03  0.57007390991E+03  0.00000000000E+00 0. -1.
         -2   -1    0    0    0  501 -0.00000000000E+00 -0.00000000000E+00 -0.21232337426E+02  0.21232337426E+02  0.00000000000E+00 0.  1.
         23    2    1    2    0    0  0.31748943056E+02  0.36302844007E+02  0.19221831596E+03  0.21818657911E+03  0.91277655792E+02 0.  0.
         23    2    1    2    0    0 -0.31748943056E+02 -0.36302844007E+02  0.35662325653E+03  0.37311966822E+03  0.98550737448E+02 0.  0.
          5    1    3    3  502    0 -0.11667496830E+02 -0.21525644883E+02  0.86465007583E+02  0.89987618072E+02  0.47000000000E+01 0. -1.
         -5    1    4    4    0  503 -0.59160777589E+02 -0.28091522940E+02  0.14080304102E+03  0.15535996146E+03  0.47000000000E+01 0.  1.
          5    1    4    4  503    0  0.27411834533E+02 -0.82113210672E+01  0.21582021551E+03  0.21775970676E+03  0.47000000000E+01 0. -1.
         -5    1    3    3    0  502  0.43416439886E+02  0.57828488890E+02  0.10575330838E+03  0.12819896104E+03  0.47000000000E+01 0.  1.
<mgrwt>
<rscale>  0 0.10806043E+03</rscale>
<asrwt>0</asrwt>
<pdfrwt beam="1">  1        2 0.87703667E-01 0.10971846E+03</pdfrwt>
<pdfrwt beam="2">  1       -2 0.32665139E-02 0.10971846E+03</pdfrwt>
<totfact> 0.18507620E+04</totfact>
</mgrwt>
</event>
<event>
 8    1  0.2954813E-003  0.1339178E+03  0.7546771E-02  0.1223032E+00
         -1   -1    0    0    0  501 -0.00000000000E+00  0.00000000000E+00  0.68874461736E+03  0.68874461736E+03  0.00000000000E+00 0.  1.
          1   -1    0    0  501    0  0.00000000000E+00 -0.00000000000E+00 -0.28580104080E+02  0.28580104080E+02  0.00000000000E+00 0. -1.
         23    2    1    2    0    0  0.11520526622E+02  0.96668439942E+02  0.21355945059E+03  0.25207460749E+03  0.91959007126E+02 0.  0.
         23    2    1    2    0    0 -0.11520526622E+02 -0.96668439942E+02  0.44660506269E+03  0.46525011395E+03  0.86741435850E+02 0.  0.
          5    1    4    4  502    0  0.33772825720E+02 -0.24758952533E+02  0.19935281016E+03  0.20375780330E+03  0.47000000000E+01 0. -1.
         -5    1    4    4    0  502 -0.45293352341E+02 -0.71909487409E+02  0.24725225253E+03  0.26149231065E+03  0.47000000000E+01 0.  1.
          5    1    3    3  503    0 -0.68553037811E+01  0.61396084257E+02  0.39521487925E+02  0.73488178368E+02  0.47000000000E+01 0. -1.
         -5    1    3    3    0  503  0.18375830403E+02  0.35272355685E+02  0.17403796267E+03  0.17858642913E+03  0.47000000000E+01 0.  1.
<mgrwt>
<rscale>  0 0.13302701E+03</rscale>
<asrwt>0</asrwt>
<pdfrwt beam="1">  1        1 0.43969396E-02 0.13391777E+03</pdfrwt>
<pdfrwt beam="2">  1       -1 0.10596070E+00 0.13391777E+03</pdfrwt>
<totfact> 0.17134568E+03</totfact>
</mgrwt>
</event>
<event>
 8    1  0.2954813E-003  0.2428561E+03  0.7546771E-02  0.1118106E+00
         -1   -1    0    0    0  501 -0.00000000000E+00  0.00000000000E+00  0.67993865626E+03  0.67993865626E+03  0.00000000000E+00 0.  1.
          1   -1    0    0  501    0  0.00000000000E+00 -0.00000000000E+00 -0.87968131949E+02  0.87968131949E+02  0.00000000000E+00 0. -1.
         23    2    1    2    0    0 -0.14963431349E+03 -0.16647921087E+03  0.24245253449E+03  0.34229907590E+03  0.90992694534E+02 0.  0.
         23    2    1    2    0    0  0.14963431349E+03  0.16647921087E+03  0.34951798982E+03  0.42560771231E+03  0.94198429625E+02 0.  0.
          5    1    3    3  502    0 -0.89602809704E+02 -0.15444584702E+03  0.16240658649E+03  0.24141286732E+03  0.47000000000E+01 0. -1.
         -5    1    3    3    0  502 -0.60031503784E+02 -0.12033363843E+02  0.80045947998E+02  0.10088620859E+03  0.47000000000E+01 0.  1.
          5    1    4    4  503    0  0.11021846001E+03  0.14253180539E+03  0.32852069346E+03  0.37471503907E+03  0.47000000000E+01 0. -1.
         -5    1    4    4    0  503  0.39415853477E+02  0.23947405481E+02  0.20997296355E+02  0.50892673233E+02  0.47000000000E+01 0.  1.
<mgrwt>
<rscale>  0 0.24254921E+03</rscale>
<asrwt>0</asrwt>
<pdfrwt beam="1">  1        1 0.13533559E-01 0.24285613E+03</pdfrwt>
<pdfrwt beam="2">  1       -1 0.10460594E+00 0.24285613E+03</pdfrwt>
<totfact> 0.38999827E+02</totfact>
</mgrwt>
</event>
<event>
 8    1  0.2954813E-003  0.1092540E+03  0.7546771E-02  0.1262975E+00
         -4   -1    0    0    0  501 -0.00000000000E+00  0.00000000000E+00  0.54392374725E+03  0.54392374725E+03  0.00000000000E+00 0.  1.
          4   -1    0    0  501    0  0.00000000000E+00 -0.00000000000E+00 -0.25261877193E+02  0.25261877193E+02  0.00000000000E+00 0. -1.
         23    2    1    2    0    0  0.56527600528E+02  0.15218066146E+02  0.36673956931E+03  0.38205782414E+03  0.89684503282E+02 0.  0.
         23    2    1    2    0    0 -0.56527600528E+02 -0.15218066146E+02  0.15192230075E+03  0.18712780030E+03  0.92246783272E+02 0.  0.
          5    1    3    3  502    0  0.48852863739E+01  0.40133205168E+02  0.23210348540E+03  0.23564519540E+03  0.47000000000E+01 0. -1.
         -5    1    4    4    0  503 -0.36997870845E+02  0.37197777473E+02  0.82011062389E+02  0.97470105417E+02  0.47000000000E+01 0.  1.
          5    1    4    4  503    0 -0.19529729683E+02 -0.52415843618E+02  0.69911238357E+02  0.89657694887E+02  0.47000000000E+01 0. -1.
         -5    1    3    3    0  502  0.51642314154E+02 -0.24915139022E+02  0.13463608391E+03  0.14641262874E+03  0.47000000000E+01 0.  1.
<mgrwt>
<rscale>  0 0.10871128E+03</rscale>
<asrwt>0</asrwt>
<pdfrwt beam="1">  1        4 0.38864430E-02 0.10925396E+03</pdfrwt>
<pdfrwt beam="2">  1       -4 0.83680568E-01 0.10925396E+03</pdfrwt>
<totfact> 0.72817657E+02</totfact>
</mgrwt>
</event>
<event>
 8    1  0.2954813E-003  0.1044147E+03  0.7546771E-02  0.1272897E+00
          2   -1    0    0  501    0  0.00000000000E+00  0.00000000000E+00  0.40445641877E+03  0.40445641877E+03  0.00000000000E+00 0. -1.
         -2   -1    0    0    0  501 -0.00000000000E+00 -0.00000000000E+00 -0.37126518970E+02  0.37126518970E+02  0.00000000000E+00 0.  1.
         23    2    1    2    0    0 -0.10781405162E+02 -0.42001587958E+02  0.61515532768E+02  0.11843458795E+03  0.91445168066E+02 0.  0.
         23    2    1    2    0    0  0.10781405162E+02  0.42001587958E+02  0.30581436704E+03  0.32314834980E+03  0.94984508220E+02 0.  0.
          5    1    3    3  502    0 -0.44738555898E+02 -0.37781474772E+02  0.59836892299E+02  0.83854170438E+02  0.47000000000E+01 0. -1.
         -5    1    4    4    0  503  0.49415212842E+02  0.19937517512E+02  0.11038169649E+03  0.12266041246E+03  0.47000000000E+01 0.  1.
          5    1    4    4  503    0 -0.38633807680E+02  0.22064070446E+02  0.19543267055E+03  0.20048793734E+03  0.47000000000E+01 0. -1.
         -5    1    3    3    0  502  0.33957150736E+02 -0.42201131860E+01  0.16786404689E+01  0.34580417511E+02  0.47000000000E+01 0.  1.
<mgrwt>
<rscale>  0 0.10360303E+03</rscale>
<asrwt>0</asrwt>
<pdfrwt beam="1">  1        2 0.62224061E-01 0.10441470E+03</pdfrwt>
<pdfrwt beam="2">  1       -2 0.57117724E-02 0.10441470E+03</pdfrwt>
<totfact> 0.11672263E+04</totfact>
</mgrwt>
</event>
<event>
 8    1  0.2954813E-003  0.1136469E+03  0.7546771E-02  0.1254242E+00
         -1   -1    0    0    0  501 -0.00000000000E+00  0.00000000000E+00  0.16297603387E+03  0.16297603387E+03  0.00000000000E+00 0.  1.
          1   -1    0    0  501    0  0.00000000000E+00 -0.00000000000E+00 -0.98546711553E+02  0.98546711553E+02  0.00000000000E+00 0. -1.
         23    2    1    2    0    0 -0.24683393121E+02 -0.63273771447E+02 -0.26376244880E+02  0.11605361387E+03  0.90332136858E+02 0.  0.
         23    2    1    2    0    0  0.24683393121E+02  0.63273771447E+02  0.90805567193E+02  0.14546913155E+03  0.91119576115E+02 0.  0.
          5    1    4    4  502    0 -0.21210755752E+02  0.11711490086E+01 -0.50037921884E+01  0.22324777397E+02  0.47000000000E+01 0. -1.
         -5    1    3    3    0  503  0.14570320636E+02 -0.18626733969E+02 -0.47106526596E+02  0.52918468513E+02  0.47000000000E+01 0.  1.
          5    1    3    3  503    0 -0.39253713757E+02 -0.44647037478E+02  0.20730281716E+02  0.63135145358E+02  0.47000000000E+01 0. -1.
         -5    1    4    4    0  502  0.45894148873E+02  0.62102622438E+02  0.95809359382E+02  0.12314435415E+03  0.47000000000E+01 0.  1.
<mgrwt>
<rscale>  0 0.11348898E+03</rscale>
<asrwt>0</asrwt>
<pdfrwt beam="1">  1        1 0.15161033E-01 0.11364690E+03</pdfrwt>
<pdfrwt beam="2">  1       -1 0.25073236E-01 0.11364690E+03</pdfrwt>
<totfact> 0.48048285E+03</totfact>
</mgrwt>
</event>
<event>
 8    1  0.2954813E-003  0.9738784E+02  0.7546771E-02  0.1287569E+00
          1   -1    0    0  501    0  0.00000000000E+00  0.00000000000E+00  0.44986084890E+03  0.44986084890E+03  0.00000000000E+00 0. -1.
         -1   -1    0    0    0  501 -0.00000000000E+00 -0.00000000000E+00 -0.20431080177E+02  0.20431080177E+02  0.00000000000E+00 0.  1.
         23    2    1    2    0    0 -0.16865895832E+02  0.19415105422E+02  0.21175460236E+03  0.23182417688E+03  0.90780133336E+02 0.  0.
         23    2    1    2    0    0  0.16865895832E+02 -0.19415105422E+02  0.21767516636E+03  0.23846775219E+03  0.93930751204E+02 0.  0.
          5    1    4    4  502    0 -0.20606321575E+02 -0.45789734912E+02  0.12975725179E+03  0.13921334241E+03  0.47000000000E+01 0. -1.
         -5    1    3    3    0  503 -0.12674569052E+02  0.49223393339E+02  0.68854218926E+02  0.85712196427E+02  0.47000000000E+01 0.  1.
          5    1    3    3  503    0 -0.41913267800E+01 -0.29808287917E+02  0.14290038343E+03  0.14611198046E+03  0.47000000000E+01 0. -1.
         -5    1    4    4    0  502  0.37472217407E+02  0.26374629490E+02  0.87917914575E+02  0.99254409783E+02  0.47000000000E+01 0.  1.
<mgrwt>
<rscale>  0 0.96620027E+02</rscale>
<asrwt>0</asrwt>
<pdfrwt beam="1">  1        1 0.69209354E-01 0.97387837E+02</pdfrwt>
<pdfrwt beam="2">  1       -1 0.31432434E-02 0.97387837E+02</pdfrwt>
<totfact> 0.16722648E+04</totfact>
</mgrwt>
</event>
<event>
 8    1  0.2954813E-003  0.1087771E+03  0.7546771E-02  0.1262942E+00
         -1   -1    0    0    0  501 -0.00000000000E+00  0.00000000000E+00  0.54329029552E+02  0.54329029552E+02  0.00000000000E+00 0.  1.
          1   -1    0    0  501    0  0.00000000000E+00 -0.00000000000E+00 -0.57953057653E+03  0.57953057653E+03  0.00000000000E+00 0. -1.
         23    2    1    2    0    0 -0.23550748985E+02  0.54153199073E+02 -0.12161805049E+02  0.10945487902E+03  0.91352363356E+02 0.  0.
         23    2    1    2    0    0  0.23550748985E+02 -0.54153199073E+02 -0.51303974193E+03  0.52440472707E+03  0.91122632880E+02 0.  0.
          5    1    3    3  502    0  0.18948785120E+02  0.28619045305E+02 -0.39582940228E+02  0.52602332351E+02  0.47000000000E+01 0. -1.
         -5    1    4    4    0  503  0.37606998944E+02  0.58470128301E+01 -0.10649357006E+03  0.11318765124E+03  0.47000000000E+01 0.  1.
          5    1    4    4  503    0 -0.14056249959E+02 -0.60000211903E+02 -0.40654617187E+03  0.41121707583E+03  0.47000000000E+01 0. -1.
         -5    1    3    3    0  502 -0.42499534104E+02  0.25534153768E+02  0.27421135179E+02  0.56852546665E+02  0.47000000000E+01 0.  1.
<mgrwt>
<rscale>  0 0.10872887E+03</rscale>
<asrwt>0</asrwt>
<pdfrwt beam="1">  1        1 0.89158548E-01 0.10877712E+03</pdfrwt>
<pdfrwt beam="2">  1       -1 0.83583125E-02 0.10877712E+03</pdfrwt>
<totfact> 0.28772715E+03</totfact>
</mgrwt>
</event>
<event>
 8    1  0.2954813E-003  0.1176580E+03  0.7546771E-02  0.1247638E+00
          1   -1    0    0  501    0  0.00000000000E+00  0.00000000000E+00  0.15051464549E+02  0.15051464549E+02  0.00000000000E+00 0. -1.
         -1   -1    0    0    0  501 -0.00000000000E+00 -0.00000000000E+00 -0.91335768708E+03  0.91335768708E+03  0.00000000000E+00 0.  1.
         23    2    1    2    0    0 -0.73616024774E+02 -0.47560270435E+01 -0.41736651807E+03  0.43363373837E+03  0.91659531701E+02 0.  0.
         23    2    1    2    0    0  0.73616024774E+02  0.47560270435E+01 -0.48093970446E+03  0.49477541326E+03  0.89765089758E+02 0.  0.
          5    1    3    3  502    0 -0.61506713087E+02 -0.38197063663E+02 -0.18865975891E+03  0.20213036897E+03  0.47000000000E+01 0. -1.
         -5    1    3    3    0  502 -0.12109311686E+02  0.33441036619E+02 -0.22870675916E+03  0.23150336940E+03  0.47000000000E+01 0.  1.
          5    1    4    4  503    0  0.44592088895E+01 -0.28899640201E+02 -0.23984062103E+03  0.24166234138E+03  0.47000000000E+01 0. -1.
         -5    1    4    4    0  503  0.69156815884E+02  0.33655667244E+02 -0.24109908343E+03  0.25311307187E+03  0.47000000000E+01 0.  1.
<mgrwt>
<rscale>  0 0.11728884E+03</rscale>
<asrwt>0</asrwt>
<pdfrwt beam="1">  1        1 0.23156097E-02 0.11765802E+03</pdfrwt>
<pdfrwt beam="2">  1       -1 0.14051658E+00 0.11765802E+03</pdfrwt>
<totfact> 0.21156547E+03</totfact>
</mgrwt>
</event>
<event>
 8    1  0.2954813E-003  0.9562140E+02  0.7546771E-02  0.1290400E+00
         -1   -1    0    0    0  501 -0.00000000000E+00  0.00000000000E+00  0.33482121193E+02  0.33482121193E+02  0.00000000000E+00 0.  1.
          1   -1    0    0  501    0  0.00000000000E+00 -0.00000000000E+00 -0.42374305909E+03  0.42374305909E+03  0.00000000000E+00 0. -1.
         23    2    1    2    0    0  0.18056302511E+02 -0.25574358971E+02 -0.58126654775E+02  0.11190245843E+03  0.90351393514E+02 0.  0.
         23    2    1    2    0    0 -0.18056302511E+02  0.25574358971E+02 -0.33213428312E+03  0.34532272185E+03  0.89188128734E+02 0.  0.
          5    1    4    4  502    0 -0.11308286305E+02  0.45551735091E+02 -0.31278212285E+03  0.31631880166E+03  0.47000000000E+01 0. -1.
         -5    1    3    3    0  503 -0.38961030237E+01 -0.44045040327E+02  0.26350246881E+01  0.44544119155E+02  0.47000000000E+01 0.  1.
          5    1    3    3  503    0  0.21952405535E+02  0.18470681356E+02 -0.60761679463E+02  0.67358339274E+02  0.47000000000E+01 0. -1.
         -5    1    4    4    0  502 -0.67480162061E+01 -0.19977376120E+02 -0.19352160265E+02  0.29003920188E+02  0.47000000000E+01 0.  1.
<mgrwt>
<rscale>  0 0.95345613E+02</rscale>
<asrwt>0</asrwt>
<pdfrwt beam="1">  1        1 0.65191246E-01 0.95621400E+02</pdfrwt>
<pdfrwt beam="2">  1       -1 0.51510951E-02 0.95621400E+02</pdfrwt>
<totfact> 0.87723728E+03</totfact>
</mgrwt>
</event>
<event>
 8    1  0.2954813E-003  0.9696926E+02  0.7546771E-02  0.1287616E+00
          1   -1    0    0  501    0  0.00000000000E+00  0.00000000000E+00  0.12108469526E+03  0.12108469526E+03  0.00000000000E+00 0. -1.
         -1   -1    0    0    0  501 -0.00000000000E+00 -0.00000000000E+00 -0.96430865131E+02  0.96430865131E+02  0.00000000000E+00 0.  1.
         23    2    1    2    0    0 -0.16142734977E+02 -0.22898923672E+02 -0.37215063482E+02  0.10249036086E+03  0.91292740788E+02 0.  0.
         23    2    1    2    0    0  0.16142734977E+02  0.22898923672E+02  0.61868893616E+02  0.11502519954E+03  0.92833657333E+02 0.  0.
          5    1    4    4  502    0  0.75089527900E+01 -0.35733442766E+02  0.30489572173E+02  0.47801331730E+02  0.47000000000E+01 0. -1.
         -5    1    4    4    0  502  0.86337821872E+01  0.58632366438E+02  0.31379321442E+02  0.67223867808E+02  0.47000000000E+01 0.  1.
          5    1    3    3  503    0 -0.28002551795E+02 -0.54338546444E+02 -0.20336996776E+02  0.64594922204E+02  0.47000000000E+01 0. -1.
         -5    1    3    3    0  503  0.11859816818E+02  0.31439622772E+02 -0.16878066706E+02  0.37895438653E+02  0.47000000000E+01 0.  1.
<mgrwt>
<rscale>  0 0.96598596E+02</rscale>
<asrwt>0</asrwt>
<pdfrwt beam="1">  1        1 0.18628415E-01 0.96969256E+02</pdfrwt>
<pdfrwt beam="2">  1       -1 0.14835518E-01 0.96969256E+02</pdfrwt>
<totfact> 0.84110880E+03</totfact>
</mgrwt>
</event>
<event>
 8    1  0.2954813E-003  0.1339295E+03  0.7546771E-02  0.1226301E+00
         -2   -1    0    0    0  501 -0.00000000000E+00  0.00000000000E+00  0.62045576736E+02  0.62045576736E+02  0.00000000000E+00 0.  1.
          2   -1    0    0  501    0  0.00000000000E+00 -0.00000000000E+00 -0.34202815191E+03  0.34202815191E+03  0.00000000000E+00 0. -1.
         23    2    1    2    0    0  0.45882001783E+02 -0.67291295523E+02 -0.24186865465E+03  0.27647340919E+03  0.10631944010E+03 0.  0.
         23    2    1    2    0    0 -0.45882001783E+02  0.67291295523E+02 -0.38113920520E+02  0.12760031946E+03  0.90531177211E+02 0.  0.
          5    1    4    4  502    0  0.17552441198E+02  0.31542620289E+02 -0.40680498789E+02  0.54589541750E+02  0.47000000000E+01 0. -1.
         -5    1    4    4    0  502 -0.63434442982E+02  0.35748675235E+02  0.25665782693E+01  0.73010777707E+02  0.47000000000E+01 0.  1.
          5    1    3    3  503    0  0.12955489563E+02 -0.24418910648E+02 -0.21332999536E+03  0.21516483176E+03  0.47000000000E+01 0. -1.
         -5    1    3    3    0  503  0.32926512220E+02 -0.42872384876E+02 -0.28538659296E+02  0.61308577429E+02  0.47000000000E+01 0.  1.
<mgrwt>
<rscale>  0 0.13078161E+03</rscale>
<asrwt>0</asrwt>
<pdfrwt beam="1">  1        2 0.52619716E-01 0.13392946E+03</pdfrwt>
<pdfrwt beam="2">  1       -2 0.95454734E-02 0.13392946E+03</pdfrwt>
<totfact> 0.64661369E+03</totfact>
</mgrwt>
</event>
<event>
 8    1  0.2954813E-003  0.1394232E+03  0.7546771E-02  0.1214310E+00
         -1   -1    0    0    0  501 -0.00000000000E+00  0.00000000000E+00  0.48692288301E+02  0.48692288301E+02  0.00000000000E+00 0.  1.
          1   -1    0    0  501    0  0.00000000000E+00 -0.00000000000E+00 -0.92597954191E+03  0.92597954191E+03  0.00000000000E+00 0. -1.
         23    2    1    2    0    0  0.10311185041E+03  0.71092210639E+01 -0.70075774488E+02  0.15550810941E+03  0.92679896425E+02 0.  0.
         23    2    1    2    0    0 -0.10311185041E+03 -0.71092210639E+01 -0.80721147913E+03  0.81916372081E+03  0.93574754809E+02 0.  0.
          5    1    3    3  502    0  0.70896208215E+01  0.36063003107E+02 -0.28899153391E+02  0.46989934914E+02  0.47000000000E+01 0. -1.
         -5    1    4    4    0  503 -0.23890434911E+02 -0.43871257848E+02 -0.23407519632E+03  0.23939241358E+03  0.47000000000E+01 0.  1.
          5    1    4    4  503    0 -0.79221415502E+02  0.36762036784E+02 -0.57313628280E+03  0.57977130723E+03  0.47000000000E+01 0. -1.
         -5    1    3    3    0  502  0.96022229592E+02 -0.28953782043E+02 -0.41176621097E+02  0.10851817449E+03  0.47000000000E+01 0.  1.
<mgrwt>
<rscale>  0 0.13927321E+03</rscale>
<asrwt>0</asrwt>
<pdfrwt beam="1">  1        1 0.14245838E+00 0.13942320E+03</pdfrwt>
<pdfrwt beam="2">  1       -1 0.74911217E-02 0.13942320E+03</pdfrwt>
<totfact> 0.17248067E+03</totfact>
</mgrwt>
</event>
<event>
 8    1  0.2954813E-003  0.1113079E+03  0.7546771E-02  0.1259346E+00
          1   -1    0    0  501    0  0.00000000000E+00  0.00000000000E+00  0.90332158857E+02  0.90332158857E+02  0.00000000000E+00 0. -1.
         -1   -1    0    0    0  501 -0.00000000000E+00 -0.00000000000E+00 -0.13978961234E+03  0.13978961234E+03  0.00000000000E+00 0.  1.
         23    2    1    2    0    0  0.56091683903E+02 -0.30285986594E+02 -0.10893527945E+01  0.10875901126E+03  0.88112529490E+02 0.  0.
         23    2    1    2    0    0 -0.56091683903E+02  0.30285986594E+02 -0.48368100691E+02  0.12136275994E+03  0.91246525136E+02 0.  0.
          5    1    4    4  502    0 -0.30596996250E+02 -0.12309898031E+02  0.18378219621E+02  0.38046796521E+02  0.47000000000E+01 0. -1.
         -5    1    4    4    0  502 -0.25494687652E+02  0.42595884625E+02 -0.66746320313E+02  0.83315963421E+02  0.47000000000E+01 0.  1.
          5    1    3    3  503    0  0.26563309094E+02 -0.21101329829E+02  0.42830161085E+02  0.54839659090E+02  0.47000000000E+01 0. -1.
         -5    1    3    3    0  503  0.29528374808E+02 -0.91846567655E+01 -0.43919513879E+02  0.53919352167E+02  0.47000000000E+01 0.  1.
<mgrwt>
<rscale>  0 0.11066374E+03</rscale>
<asrwt>0</asrwt>
<pdfrwt beam="1">  1        1 0.13897255E-01 0.11130789E+03</pdfrwt>
<pdfrwt beam="2">  1       -1 0.21506094E-01 0.11130789E+03</pdfrwt>
<totfact> 0.68845722E+03</totfact>
</mgrwt>
</event>
<event>
 8    1  0.2954813E-003  0.9245330E+02  0.7546771E-02  0.1305425E+00
         -3   -1    0    0    0  501 -0.00000000000E+00  0.00000000000E+00  0.48515023263E+03  0.48515023263E+03  0.00000000000E+00 0.  1.
          3   -1    0    0  501    0  0.00000000000E+00 -0.00000000000E+00 -0.31944732752E+02  0.31944732752E+02  0.00000000000E+00 0. -1.
         23    2    1    2    0    0 -0.20225865756E+02  0.11676737450E+02  0.31272867571E+02  0.85151960635E+02  0.75679801207E+02 0.  0.
         23    2    1    2    0    0  0.20225865756E+02 -0.11676737450E+02  0.42193263231E+03  0.43194300475E+03  0.89454912113E+02 0.  0.
          5    1    3    3  502    0  0.26092064637E+02 -0.41004214965E+00  0.25360587726E+02  0.36690780605E+02  0.47000000000E+01 0. -1.
         -5    1    4    4    0  503 -0.34169944967E+02  0.13986929896E+01  0.12145220496E+03  0.12626270063E+03  0.47000000000E+01 0.  1.
          5    1    4    4  503    0  0.54395810723E+02 -0.13075430439E+02  0.30048042735E+03  0.30568030411E+03  0.47000000000E+01 0. -1.
         -5    1    3    3    0  502 -0.46317930393E+02  0.12086779599E+02  0.59122798447E+01  0.48461180030E+02  0.47000000000E+01 0.  1.
<mgrwt>
<rscale>  0 0.88945720E+02</rscale>
<asrwt>0</asrwt>
<pdfrwt beam="1">  1        3 0.49145746E-02 0.92453303E+02</pdfrwt>
<pdfrwt beam="2">  1       -3 0.74638492E-01 0.92453303E+02</pdfrwt>
<totfact> 0.87869316E+02</totfact>
</mgrwt>
</event>
<event>
 8    1  0.2954813E-003  0.1270086E+03  0.7546771E-02  0.1232623E+00
          3   -1    0    0  501    0  0.00000000000E+00  0.00000000000E+00  0.22125479444E+03  0.22125479444E+03  0.00000000000E+00 0. -1.
         -3   -1    0    0    0  501 -0.00000000000E+00 -0.00000000000E+00 -0.83055158423E+02  0.83055158423E+02  0.00000000000E+00 0.  1.
         23    2    1    2    0    0  0.62001498128E+02  0.59807033899E+02  0.13814363655E+02  0.12775769428E+03  0.93328048996E+02 0.  0.
         23    2    1    2    0    0 -0.62001498128E+02 -0.59807033899E+02  0.12438527236E+03  0.17655225859E+03  0.90983168541E+02 0.  0.
          5    1    3    3  502    0  0.48263180262E+02 -0.14510376911E+01  0.36637021534E+02  0.60793103443E+02  0.47000000000E+01 0. -1.
         -5    1    3    3    0  502  0.13738317866E+02  0.61258071590E+02 -0.22822657878E+02  0.66964590832E+02  0.47000000000E+01 0.  1.
          5    1    4    4  503    0 -0.46989519864E+02 -0.83928347693E+02  0.99808839926E+02  0.13869346434E+03  0.47000000000E+01 0. -1.
         -5    1    4    4    0  503 -0.15011978265E+02  0.24121313794E+02  0.24576432438E+02  0.37858794248E+02  0.47000000000E+01 0.  1.
<mgrwt>
<rscale>  0 0.12657821E+03</rscale>
<asrwt>0</asrwt>
<pdfrwt beam="1">  1        3 0.34039199E-01 0.12700863E+03</pdfrwt>
<pdfrwt beam="2">  1       -3 0.12777717E-01 0.12700863E+03</pdfrwt>
<totfact> 0.94403433E+02</totfact>
</mgrwt>
</event>
<event>
 8    1  0.2954813E-003  0.9522806E+02  0.7546771E-02  0.1291992E+00
         -2   -1    0    0    0  501 -0.00000000000E+00  0.00000000000E+00  0.76824635856E+01  0.76824635856E+01  0.00000000000E+00 0.  1.
          2   -1    0    0  501    0  0.00000000000E+00 -0.00000000000E+00 -0.11820366767E+04  0.11820366767E+04  0.00000000000E+00 0. -1.
         23    2    1    2    0    0  0.21405290874E+02  0.79530756757E+01 -0.48467952578E+03  0.49350110134E+03  0.90042525615E+02 0.  0.
         23    2    1    2    0    0 -0.21405290874E+02 -0.79530756757E+01 -0.68967468735E+03  0.69621803897E+03  0.92449691831E+02 0.  0.
          5    1    4    4  502    0  0.14467451483E+02 -0.42420000590E+02 -0.34929147234E+03  0.35218657875E+03  0.47000000000E+01 0. -1.
         -5    1    3    3    0  503  0.35408988476E+02  0.40685287332E+02 -0.22905478539E+03  0.23536625455E+03  0.47000000000E+01 0.  1.
          5    1    3    3  503    0 -0.14003697602E+02 -0.32732211656E+02 -0.25562474039E+03  0.25813484679E+03  0.47000000000E+01 0. -1.
         -5    1    4    4    0  502 -0.35872742357E+02  0.34466924914E+02 -0.34038321501E+03  0.34403146022E+03  0.47000000000E+01 0.  1.
<mgrwt>
<rscale>  0 0.94638828E+02</rscale>
<asrwt>0</asrwt>
<pdfrwt beam="1">  1        2 0.18185199E+00 0.95228060E+02</pdfrwt>
<pdfrwt beam="2">  1       -2 0.11819162E-02 0.95228060E+02</pdfrwt>
<totfact> 0.31534460E+04</totfact>
</mgrwt>
</event>
<event>
 8    1  0.2954813E-003  0.1087988E+03  0.7546771E-02  0.1263340E+00
         -2   -1    0    0    0  501 -0.00000000000E+00  0.00000000000E+00  0.20429001152E+02  0.20429001152E+02  0.00000000000E+00 0.  1.
          2   -1    0    0  501    0  0.00000000000E+00 -0.00000000000E+00 -0.10162168718E+04  0.10162168718E+04  0.00000000000E+00 0. -1.
         23    2    1    2    0    0  0.39855550810E+02 -0.38827946541E+02 -0.15722950299E+03  0.19120225392E+03  0.93493908518E+02 0.  0.
         23    2    1    2    0    0 -0.39855550810E+02  0.38827946541E+02 -0.83855836767E+03  0.84544361905E+03  0.92188408341E+02 0.  0.
          5    1    3    3  502    0 -0.14421051516E+02  0.22259450659E+02 -0.40123904734E+02  0.48326675880E+02  0.47000000000E+01 0. -1.
         -5    1    4    4    0  503  0.29596680239E+02  0.11618930650E+02 -0.20745658775E+03  0.20993162894E+03  0.47000000000E+01 0.  1.
          5    1    4    4  503    0 -0.69452231049E+02  0.27209015892E+02 -0.63110177992E+03  0.63551199010E+03  0.47000000000E+01 0. -1.
         -5    1    3    3    0  502  0.54276602327E+02 -0.61087397201E+02 -0.11710559825E+03  0.14287557804E+03  0.47000000000E+01 0.  1.
<mgrwt>
<rscale>  0 0.10851780E+03</rscale>
<asrwt>0</asrwt>
<pdfrwt beam="1">  1        2 0.15634106E+00 0.10879883E+03</pdfrwt>
<pdfrwt beam="2">  1       -2 0.31429232E-02 0.10879883E+03</pdfrwt>
<totfact> 0.96624201E+03</totfact>
</mgrwt>
</event>
<event>
 8    1  0.2954813E-003  0.1129429E+03  0.7546771E-02  0.1258031E+00
          1   -1    0    0  501    0  0.00000000000E+00  0.00000000000E+00  0.36213229703E+02  0.36213229703E+02  0.00000000000E+00 0. -1.
         -1   -1    0    0    0  501 -0.00000000000E+00 -0.00000000000E+00 -0.42590944440E+03  0.42590944440E+03  0.00000000000E+00 0.  1.
         23    2    1    2    0    0  0.58418205342E+02  0.10160643899E+02 -0.29823498625E+03  0.31679115092E+03  0.88862820547E+02 0.  0.
         23    2    1    2    0    0 -0.58418205342E+02 -0.10160643899E+02 -0.91461228447E+02  0.14533152319E+03  0.96125802585E+02 0.  0.
          5    1    4    4  502    0 -0.84009494162E+02 -0.21916898722E+01 -0.78870959365E+02  0.11534780815E+03  0.47000000000E+01 0. -1.
         -5    1    3    3    0  503  0.46099307966E+02  0.42691086176E+02 -0.24539950609E+03  0.25335880214E+03  0.47000000000E+01 0.  1.
          5    1    3    3  503    0  0.12318897376E+02 -0.32530442277E+02 -0.52835480161E+02  0.63432348775E+02  0.47000000000E+01 0. -1.
         -5    1    4    4    0  502  0.25591288820E+02 -0.79689540266E+01 -0.12590269082E+02  0.29983715035E+02  0.47000000000E+01 0.  1.
<mgrwt>
<rscale>  0 0.11138248E+03</rscale>
<asrwt>0</asrwt>
<pdfrwt beam="1">  1        1 0.55712662E-02 0.11294289E+03</pdfrwt>
<pdfrwt beam="2">  1       -1 0.65524529E-01 0.11294289E+03</pdfrwt>
<totfact> 0.33311430E+03</totfact>
</mgrwt>
</event>
<event>
 8    1  0.2954813E-003  0.1068379E+03  0.7546771E-02  0.1267250E+00
         -2   -1    0    0    0  501 -0.00000000000E+00  0.00000000000E+00  0.13233797995E+02  0.13233797995E+02  0.00000000000E+00 0.  1.
          2   -1    0    0  501    0  0.00000000000E+00 -0.00000000000E+00 -0.90214487470E+03  0.90214487470E+03  0.00000000000E+00 0. -1.
         23    2    1    2    0    0 -0.50354659500E+02 -0.17512457210E+02 -0.55660906573E+03  0.56676977864E+03  0.92585377014E+02 0.  0.
         23    2    1    2    0    0  0.50354659500E+02  0.17512457210E+02 -0.33230201097E+03  0.34860889405E+03  0.90891455183E+02 0.  0.
          5    1    4    4  502    0  0.43045611227E+02  0.48626931319E+02 -0.27711552206E+03  0.28466226596E+03  0.47000000000E+01 0. -1.
         -5    1    3    3    0  503 -0.36550033070E+02 -0.55175731559E+02 -0.35774699955E+03  0.36384786925E+03  0.47000000000E+01 0.  1.
          5    1    3    3  503    0 -0.13804626431E+02  0.37663274349E+02 -0.19886206619E+03  0.20292190940E+03  0.47000000000E+01 0. -1.
         -5    1    4    4    0  502  0.73090482731E+01 -0.31114474110E+02 -0.55186488912E+02  0.63946628091E+02  0.47000000000E+01 0.  1.
<mgrwt>
<rscale>  0 0.10646983E+03</rscale>
<asrwt>0</asrwt>
<pdfrwt beam="1">  1        2 0.13879150E+00 0.10683787E+03</pdfrwt>
<pdfrwt beam="2">  1       -2 0.20359692E-02 0.10683787E+03</pdfrwt>
<totfact> 0.21251092E+04</totfact>
</mgrwt>
</event>
<event>
 8    1  0.2954813E-003  0.1115069E+03  0.7546771E-02  0.1258612E+00
          1   -1    0    0  501    0  0.00000000000E+00  0.00000000000E+00  0.54148551867E+03  0.54148551867E+03  0.00000000000E+00 0. -1.
         -1   -1    0    0    0  501 -0.00000000000E+00 -0.00000000000E+00 -0.22609723970E+02  0.22609723970E+02  0.00000000000E+00 0.  1.
         23    2    1    2    0    0  0.17797817266E+02  0.60607810597E+02  0.26692610927E+03  0.28928072090E+03  0.91889709264E+02 0.  0.
         23    2    1    2    0    0 -0.17797817266E+02 -0.60607810597E+02  0.25194968543E+03  0.27481452174E+03  0.89745798604E+02 0.  0.
          5    1    3    3  502    0  0.79848785950E+00  0.39509959042E+02  0.25697258095E+03  0.26003590484E+03  0.47000000000E+01 0. -1.
         -5    1    4    4    0  503 -0.39621371039E+02 -0.69050980334E+02  0.22550827293E+03  0.23919440230E+03  0.47000000000E+01 0.  1.
          5    1    4    4  503    0  0.21823553773E+02  0.84431697369E+01  0.26441412494E+02  0.35620119444E+02  0.47000000000E+01 0. -1.
         -5    1    3    3    0  502  0.16999329406E+02  0.21097851555E+02  0.99535283276E+01  0.29244816065E+02  0.47000000000E+01 0.  1.
<mgrwt>
<rscale>  0 0.11106426E+03</rscale>
<asrwt>0</asrwt>
<pdfrwt beam="1">  1        1 0.83305455E-01 0.11150690E+03</pdfrwt>
<pdfrwt beam="2">  1       -1 0.34784195E-02 0.11150690E+03</pdfrwt>
<totfact> 0.11503819E+04</totfact>
</mgrwt>
</event>
<event>
 8    1  0.2954813E-003  0.1164244E+03  0.7546771E-02  0.1249475E+00
         -2   -1    0    0    0  501 -0.00000000000E+00  0.00000000000E+00  0.20059455091E+03  0.20059455091E+03  0.00000000000E+00 0.  1.
          2   -1    0    0  501    0  0.00000000000E+00 -0.00000000000E+00 -0.91494314090E+02  0.91494314090E+02  0.00000000000E+00 0. -1.
         23    2    1    2    0    0 -0.59782429196E+01 -0.68759521376E+02 -0.20733612296E+02  0.11825622483E+03  0.93760550683E+02 0.  0.
         23    2    1    2    0    0  0.59782429196E+01  0.68759521376E+02  0.12983384912E+03  0.17383264017E+03  0.92721881148E+02 0.  0.
          5    1    3    3  502    0  0.16006115707E+02 -0.58170432090E+02 -0.50968635531E+02  0.79119445887E+02  0.47000000000E+01 0. -1.
         -5    1    4    4    0  503  0.35807674583E+02  0.44573623978E+02  0.12134600641E+03  0.13422347330E+03  0.47000000000E+01 0.  1.
          5    1    4    4  503    0 -0.29829431663E+02  0.24185897398E+02  0.84878427099E+01  0.39609166870E+02  0.47000000000E+01 0. -1.
         -5    1    3    3    0  502 -0.21984358627E+02 -0.10589089286E+02  0.30235023235E+02  0.39136778945E+02  0.47000000000E+01 0.  1.
<mgrwt>
<rscale>  0 0.11621518E+03</rscale>
<asrwt>0</asrwt>
<pdfrwt beam="1">  1        2 0.14076048E-01 0.11642445E+03</pdfrwt>
<pdfrwt beam="2">  1       -2 0.30860700E-01 0.11642445E+03</pdfrwt>
<totfact> 0.38702584E+03</totfact>
</mgrwt>
</event>
<event>
 8    1  0.2954813E-003  0.1144260E+03  0.7546771E-02  0.1252997E+00
          1   -1    0    0  501    0  0.00000000000E+00  0.00000000000E+00  0.10718465545E+04  0.10718465545E+04  0.00000000000E+00 0. -1.
         -1   -1    0    0    0  501 -0.00000000000E+00 -0.00000000000E+00 -0.13479299816E+02  0.13479299816E+02  0.00000000000E+00 0.  1.
         23    2    1    2    0    0  0.15882477528E+02 -0.65098819391E+02  0.35469165561E+03  0.37240743744E+03  0.91602508274E+02 0.  0.
         23    2    1    2    0    0 -0.15882477528E+02  0.65098819391E+02  0.70367559906E+03  0.71291841686E+03  0.92753495948E+02 0.  0.
          5    1    4    4  502    0  0.37915887093E+02  0.16229002392E+02  0.24252380439E+03  0.24605056535E+03  0.47000000000E+01 0. -1.
         -5    1    3    3    0  503 -0.80909510209E+01 -0.82631985981E+02  0.24887798116E+03  0.26240397883E+03  0.47000000000E+01 0.  1.
          5    1    3    3  503    0  0.23973428549E+02  0.17533166590E+02  0.10581367445E+03  0.11000345862E+03  0.47000000000E+01 0. -1.
         -5    1    4    4    0  502 -0.53798364621E+02  0.48869816999E+02  0.46115179467E+03  0.46686785152E+03  0.47000000000E+01 0.  1.
<mgrwt>
<rscale>  0 0.11419259E+03</rscale>
<asrwt>0</asrwt>
<pdfrwt beam="1">  1        1 0.16489940E+00 0.11442605E+03</pdfrwt>
<pdfrwt beam="2">  1       -1 0.20737393E-02 0.11442605E+03</pdfrwt>
<totfact> 0.88168058E+03</totfact>
</mgrwt>
</event>
<event>
 8    1  0.2954813E-003  0.1432821E+03  0.7546771E-02  0.1208986E+00
          2   -1    0    0  501    0  0.00000000000E+00  0.00000000000E+00  0.73797041035E+03  0.73797041035E+03  0.00000000000E+00 0. -1.
         -2   -1    0    0    0  501 -0.00000000000E+00 -0.00000000000E+00 -0.31782697655E+02  0.31782697655E+02  0.00000000000E+00 0.  1.
         23    2    1    2    0    0  0.52371677176E+02 -0.97953834466E+02  0.48904962901E+03  0.50960177572E+03  0.90480295776E+02 0.  0.
         23    2    1    2    0    0 -0.52371677176E+02  0.97953834466E+02  0.21713808369E+03  0.26015133229E+03  0.90509789789E+02 0.  0.
          5    1    4    4  502    0 -0.13871654191E+02  0.37146305826E+02  0.10498574689E+02  0.41286570420E+02  0.47000000000E+01 0. -1.
         -5    1    4    4    0  502 -0.38500022985E+02  0.60807528640E+02  0.20663950900E+03  0.21886476187E+03  0.47000000000E+01 0.  1.
          5    1    3    3  503    0  0.39819850045E+02 -0.44177393217E+02  0.40202717794E+03  0.40642982707E+03  0.47000000000E+01 0. -1.
         -5    1    3    3    0  503  0.12551827131E+02 -0.53776441249E+02  0.87022451065E+02  0.10317194864E+03  0.47000000000E+01 0.  1.
<mgrwt>
<rscale>  0 0.14327747E+03</rscale>
<asrwt>0</asrwt>
<pdfrwt beam="1">  1        2 0.11353390E+00 0.14328213E+03</pdfrwt>
<pdfrwt beam="2">  1       -2 0.48896464E-02 0.14328213E+03</pdfrwt>
<totfact> 0.76879350E+03</totfact>
</mgrwt>
</event>
<event>
 7    1  0.2954813E-003  0.6323956E+03  0.7546771E-02  0.1032168E+00
          1   -1    0    0  501    0  0.00000000000E+00  0.00000000000E+00  0.17958732264E+04  0.17958732264E+04  0.00000000000E+00 0. -1.
         -1   -1    0    0    0  501 -0.00000000000E+00 -0.00000000000E+00 -0.85139246433E+02  0.85139246433E+02  0.00000000000E+00 0.  1.
         23    2    1    2    0    0 -0.16288156598E+02 -0.10838225482E+03  0.42587634422E+03  0.44895681828E+03  0.90440847570E+02 0.  0.
          5    1    1    2  502    0  0.33046033807E+02 -0.19790812402E+03  0.13476880490E+03  0.24175273872E+03  0.47000000000E+01 0. -1.
         -5    1    1    2    0  502 -0.16757877209E+02  0.30629037884E+03  0.11500888309E+04  0.11903029159E+04  0.47000000000E+01 0.  1.
          5    1    3    3  503    0 -0.33187265875E+02 -0.47248732400E+02  0.89441210988E+02  0.10656292767E+03  0.47000000000E+01 0. -1.
         -5    1    3    3    0  503  0.16899109277E+02 -0.61133522424E+02  0.33643513323E+03  0.34239389061E+03  0.47000000000E+01 0.  1.
<mgrwt>
<rscale>  0 0.43539947E+03</rscale>
<asrwt>0</asrwt>
<pdfrwt beam="1">  1        1 0.27628816E+00 0.63239565E+03</pdfrwt>
<pdfrwt beam="2">  1       -1 0.13098347E-01 0.63239565E+03</pdfrwt>
<totfact> 0.17406375E+02</totfact>
</mgrwt>
</event>
<event>
 8    1  0.2954813E-003  0.1301139E+03  0.7546771E-02  0.1228908E+00
          1   -1    0    0  501    0  0.00000000000E+00  0.00000000000E+00  0.29001972006E+03  0.29001972006E+03  0.00000000000E+00 0. -1.
         -1   -1    0    0    0  501 -0.00000000000E+00 -0.00000000000E+00 -0.81890510344E+02  0.81890510344E+02  0.00000000000E+00 0.  1.
         23    2    1    2    0    0 -0.84786461212E+02  0.14460882154E+02 -0.75066535961E+00  0.12581995947E+03  0.91827215921E+02 0.  0.
         23    2    1    2    0    0  0.84786461212E+02 -0.14460882154E+02  0.20887987508E+03  0.24609027094E+03  0.97630723246E+02 0.  0.
          5    1    4    4  502    0  0.93495198098E+02  0.82091556929E+01  0.19779685206E+03  0.21898499261E+03  0.47000000000E+01 0. -1.
         -5    1    3    3    0  503 -0.51834308401E+02 -0.25530274755E+02 -0.30892425496E+02  0.65688830173E+02  0.47000000000E+01 0.  1.
          5    1    3    3  503    0 -0.32952152811E+02  0.39991156909E+02  0.30141760136E+02  0.60131129292E+02  0.47000000000E+01 0. -1.
         -5    1    4    4    0  502 -0.87087368862E+01 -0.22670037847E+02  0.11083023021E+02  0.27105278331E+02  0.47000000000E+01 0.  1.
<mgrwt>
<rscale>  0 0.12902627E+03</rscale>
<asrwt>0</asrwt>
<pdfrwt beam="1">  1        1 0.44618418E-01 0.13011387E+03</pdfrwt>
<pdfrwt beam="2">  1       -1 0.12598540E-01 0.13011387E+03</pdfrwt>
<totfact> 0.37349198E+03</totfact>
</mgrwt>
</event>
<event>
 8    1  0.2954813E-003  0.1087333E+03  0.7546771E-02  0.1263027E+00
          4   -1    0    0  501    0  0.00000000000E+00  0.00000000000E+00  0.13285922382E+03  0.13285922382E+03  0.00000000000E+00 0. -1.
         -4   -1    0    0    0  501 -0.00000000000E+00 -0.00000000000E+00 -0.33870969219E+03  0.33870969219E+03  0.00000000000E+00 0.  1.
         23    2    1    2    0    0  0.11927815384E+02 -0.57064065739E+02 -0.30547050071E+03  0.32424553108E+03  0.91784297384E+02 0.  0.
         23    2    1    2    0    0 -0.11927815384E+02  0.57064065739E+02  0.99620032333E+02  0.14732338493E+03  0.91550251367E+02 0.  0.
          5    1    3    3  502    0  0.25284699832E+02  0.18564523894E+02 -0.83873390269E+02  0.89670469990E+02  0.47000000000E+01 0. -1.
         -5    1    3    3    0  502 -0.13356884449E+02 -0.75628589633E+02 -0.22159711044E+03  0.23457506109E+03  0.47000000000E+01 0.  1.
          5    1    4    4  503    0 -0.26753560531E+02  0.16670376135E+02  0.99032969086E+02  0.10403496243E+03  0.47000000000E+01 0. -1.
         -5    1    4    4    0  503  0.14825745147E+02  0.40393689604E+02  0.58706324626E+00  0.43288422496E+02  0.47000000000E+01 0.  1.
<mgrwt>
<rscale>  0 0.10868393E+03</rscale>
<asrwt>0</asrwt>
<pdfrwt beam="1">  1        4 0.20439881E-01 0.10873333E+03</pdfrwt>
<pdfrwt beam="2">  1       -4 0.52109183E-01 0.10873333E+03</pdfrwt>
<totfact> 0.12450890E+02</totfact>
</mgrwt>
</event>
<event>
 8    1  0.2954813E-003  0.2079413E+03  0.7546771E-02  0.1143299E+00
          1   -1    0    0  501    0  0.00000000000E+00  0.00000000000E+00  0.11629298390E+04  0.11629298390E+04  0.00000000000E+00 0. -1.
         -1   -1    0    0    0  501 -0.00000000000E+00 -0.00000000000E+00 -0.39045121302E+02  0.39045121302E+02  0.00000000000E+00 0.  1.
         23    2    1    2    0    0  0.35493285309E+02 -0.18291156215E+03  0.42837629968E+03  0.47617835341E+03  0.92320946995E+02 0.  0.
         23    2    1    2    0    0 -0.35493285309E+02  0.18291156215E+03  0.69550841798E+03  0.72579660686E+03  0.91281663966E+02 0.  0.
          5    1    4    4  502    0 -0.69455616689E+01  0.16581383654E+03  0.63742106829E+03  0.65868822482E+03  0.47000000000E+01 0. -1.
         -5    1    3    3    0  503 -0.22371850551E+02 -0.12069157361E+03  0.25142363243E+03  0.27982653302E+03  0.47000000000E+01 0.  1.
          5    1    3    3  503    0  0.57865135860E+02 -0.62219988544E+02  0.17695266725E+03  0.19635182039E+03  0.47000000000E+01 0. -1.
         -5    1    4    4    0  502 -0.28547723640E+02  0.17097725610E+02  0.58087349693E+02  0.67108382043E+02  0.47000000000E+01 0.  1.
<mgrwt>
<rscale>  0 0.20782634E+03</rscale>
<asrwt>0</asrwt>
<pdfrwt beam="1">  1        1 0.17891226E+00 0.20794127E+03</pdfrwt>
<pdfrwt beam="2">  1       -1 0.60069426E-02 0.20794127E+03</pdfrwt>
<totfact> 0.16222293E+03</totfact>
</mgrwt>
</event>
<event>
 8    1  0.2954813E-003  0.2249519E+03  0.7546771E-02  0.1130429E+00
         -2   -1    0    0    0  501 -0.00000000000E+00  0.00000000000E+00  0.76910182350E+02  0.76910182350E+02  0.00000000000E+00 0.  1.
          2   -1    0    0  501    0  0.00000000000E+00 -0.00000000000E+00 -0.18708363549E+04  0.18708363549E+04  0.00000000000E+00 0. -1.
         23    2    1    2    0    0 -0.20367468466E+03 -0.30696355839E+02 -0.16813521188E+04  0.16961987634E+04  0.87861562712E+02 0.  0.
         23    2    1    2    0    0  0.20367468466E+03  0.30696355839E+02 -0.11257405376E+03  0.25154777384E+03  0.90430755333E+02 0.  0.
          5    1    3    3  502    0 -0.12087419385E+03 -0.56380092134E+02 -0.86370590960E+03  0.87395610519E+03  0.47000000000E+01 0. -1.
         -5    1    3    3    0  502 -0.82800490814E+02  0.25683736295E+02 -0.81764620915E+03  0.82224265818E+03  0.47000000000E+01 0.  1.
          5    1    4    4  503    0  0.16471302691E+03  0.24583056619E+01 -0.11829898341E+03  0.20286242623E+03  0.47000000000E+01 0. -1.
         -5    1    4    4    0  503  0.38961657747E+02  0.28238050177E+02  0.57249296457E+01  0.48685347608E+02  0.47000000000E+01 0.  1.
<mgrwt>
<rscale>  0 0.22469637E+03</rscale>
<asrwt>0</asrwt>
<pdfrwt beam="1">  1        2 0.28782099E+00 0.22495192E+03</pdfrwt>
<pdfrwt beam="2">  1       -2 0.11832335E-01 0.22495192E+03</pdfrwt>
<totfact> 0.44456243E+02</totfact>
</mgrwt>
</event>
<event>
 8    1  0.2954813E-003  0.1273514E+03  0.7546771E-02  0.1232795E+00
          1   -1    0    0  501    0  0.00000000000E+00  0.00000000000E+00  0.28823166488E+03  0.28823166488E+03  0.00000000000E+00 0. -1.
         -1   -1    0    0    0  501 -0.00000000000E+00 -0.00000000000E+00 -0.68984116835E+02  0.68984116835E+02  0.00000000000E+00 0.  1.
         23    2    1    2    0    0  0.83378404202E+02  0.15443130261E+02  0.19201647583E+03  0.23040986401E+03  0.95015419178E+02 0.  0.
         23    2    1    2    0    0 -0.83378404202E+02 -0.15443130261E+02  0.27231072208E+02  0.12680591770E+03  0.90264948409E+02 0.  0.
          5    1    3    3  502    0  0.39238075747E+01 -0.31159745335E+02  0.74763521015E+02  0.81228074394E+02  0.47000000000E+01 0. -1.
         -5    1    4    4    0  503 -0.46702715076E+02 -0.74629253866E+01 -0.31448480031E+02  0.56990663683E+02  0.47000000000E+01 0.  1.
          5    1    4    4  503    0 -0.36675689127E+02 -0.79802048740E+01  0.58679552240E+02  0.69815254019E+02  0.47000000000E+01 0. -1.
         -5    1    3    3    0  502  0.79454596628E+02  0.46602875595E+02  0.11725295482E+03  0.14918178961E+03  0.47000000000E+01 0.  1.
<mgrwt>
<rscale>  0 0.12646624E+03</rscale>
<asrwt>0</asrwt>
<pdfrwt beam="1">  1        1 0.44343332E-01 0.12735140E+03</pdfrwt>
<pdfrwt beam="2">  1       -1 0.10612941E-01 0.12735140E+03</pdfrwt>
<totfact> 0.48929875E+03</totfact>
</mgrwt>
</event>
<event>
 8    1  0.2954813E-003  0.1021547E+03  0.7546771E-02  0.1281353E+00
          1   -1    0    0  501    0  0.00000000000E+00  0.00000000000E+00  0.52069102669E+03  0.52069102669E+03  0.00000000000E+00 0. -1.
         -1   -1    0    0    0  501 -0.00000000000E+00 -0.00000000000E+00 -0.18273354946E+02  0.18273354946E+02  0.00000000000E+00 0.  1.
         23    2    1    2    0    0 -0.33507444561E+02 -0.23131826570E+02  0.26525772846E+03  0.28073883906E+03  0.82430595099E+02 0.  0.
         23    2    1    2    0    0  0.33507444561E+02  0.23131826570E+02  0.23715994328E+03  0.25822554257E+03  0.93689710736E+02 0.  0.
          5    1    4    4  502    0  0.44419663406E+02  0.49499609184E+02  0.20188752351E+03  0.21261227612E+03  0.47000000000E+01 0. -1.
         -5    1    3    3    0  503  0.16531698646E+02 -0.32019551157E+02  0.15556593823E+03  0.15975418572E+03  0.47000000000E+01 0.  1.
          5    1    3    3  503    0 -0.50039143207E+02  0.88877245875E+01  0.10969179023E+03  0.12098465335E+03  0.47000000000E+01 0. -1.
         -5    1    4    4    0  502 -0.10912218845E+02 -0.26367782615E+02  0.35272419768E+02  0.45613266452E+02  0.47000000000E+01 0.  1.
<mgrwt>
<rscale>  0 0.99498816E+02</rscale>
<asrwt>0</asrwt>
<pdfrwt beam="1">  1        1 0.80106301E-01 0.10215475E+03</pdfrwt>
<pdfrwt beam="2">  1       -1 0.28112858E-02 0.10215475E+03</pdfrwt>
<totfact> 0.16361298E+04</totfact>
</mgrwt>
</event>
<event>
 8    1  0.2954813E-003  0.9405884E+02  0.7546771E-02  0.1295155E+00
         -1   -1    0    0    0  501 -0.00000000000E+00  0.00000000000E+00  0.21788523487E+03  0.21788523487E+03  0.00000000000E+00 0.  1.
          1   -1    0    0  501    0  0.00000000000E+00 -0.00000000000E+00 -0.90902789468E+02  0.90902789468E+02  0.00000000000E+00 0. -1.
         23    2    1    2    0    0 -0.12156076617E+02  0.11268417307E+02 -0.52418435296E+02  0.10767895658E+03  0.92586812798E+02 0.  0.
         23    2    1    2    0    0  0.12156076617E+02 -0.11268417307E+02  0.17940088070E+03  0.20110906776E+03  0.89361253975E+02 0.  0.
          5    1    4    4  502    0 -0.35333390838E+02 -0.18960848007E+02  0.60250278842E+02  0.72526880298E+02  0.47000000000E+01 0. -1.
         -5    1    3    3    0  503 -0.41529224684E+02  0.25019620729E+02 -0.56562812952E+02  0.74646498466E+02  0.47000000000E+01 0.  1.
          5    1    3    3  503    0  0.29373148067E+02 -0.13751203421E+02  0.41443776553E+01  0.33032458114E+02  0.47000000000E+01 0. -1.
         -5    1    4    4    0  502  0.47489467455E+02  0.76924306996E+01  0.11915060186E+03  0.12858218746E+03  0.47000000000E+01 0.  1.
<mgrwt>
<rscale>  0 0.93255275E+02</rscale>
<asrwt>0</asrwt>
<pdfrwt beam="1">  1        1 0.13985045E-01 0.94058840E+02</pdfrwt>
<pdfrwt beam="2">  1       -1 0.33520805E-01 0.94058840E+02</pdfrwt>
<totfact> 0.32507306E+03</totfact>
</mgrwt>
</event>
<event>
 8    1  0.2954813E-003  0.1184689E+03  0.7546771E-02  0.1246568E+00
          2   -1    0    0  501    0  0.00000000000E+00  0.00000000000E+00  0.85828764404E+03  0.85828764404E+03  0.00000000000E+00 0. -1.
         -2   -1    0    0    0  501 -0.00000000000E+00 -0.00000000000E+00 -0.16127279819E+02  0.16127279819E+02  0.00000000000E+00 0.  1.
         23    2    1    2    0    0 -0.60288143843E+02  0.36334930892E+02  0.45469679987E+03  0.46987665499E+03  0.95289052905E+02 0.  0.
         23    2    1    2    0    0  0.60288143843E+02 -0.36334930892E+02  0.38746356436E+03  0.40453826887E+03  0.92565165083E+02 0.  0.
          5    1    3    3  502    0 -0.15598102728E+01 -0.24094500227E+02  0.42296808190E+02  0.48929417862E+02  0.47000000000E+01 0. -1.
         -5    1    3    3    0  502 -0.58728333570E+02  0.60429431119E+02  0.41239999168E+03  0.42094723713E+03  0.47000000000E+01 0.  1.
          5    1    4    4  503    0  0.22965210636E+02 -0.27477816584E+02  0.34591228001E+03  0.34779279286E+03  0.47000000000E+01 0. -1.
         -5    1    4    4    0  503  0.37322933206E+02 -0.88571143079E+01  0.41551284349E+02  0.56745476014E+02  0.47000000000E+01 0.  1.
<mgrwt>
<rscale>  0 0.11792023E+03</rscale>
<asrwt>0</asrwt>
<pdfrwt beam="1">  1        2 0.13204422E+00 0.11846895E+03</pdfrwt>
<pdfrwt beam="2">  1       -2 0.24811206E-02 0.11846895E+03</pdfrwt>
<totfact> 0.17150173E+04</totfact>
</mgrwt>
</event>
<event>
 8    1  0.2954813E-003  0.1058939E+03  0.7546771E-02  0.1269321E+00
         -1   -1    0    0    0  501 -0.00000000000E+00  0.00000000000E+00  0.85772070720E+03  0.85772070720E+03  0.00000000000E+00 0.  1.
          1   -1    0    0  501    0  0.00000000000E+00 -0.00000000000E+00 -0.20868095310E+02  0.20868095310E+02  0.00000000000E+00 0. -1.
         23    2    1    2    0    0  0.43524740060E+02 -0.25357295458E+02  0.69334246778E+03  0.70138241982E+03  0.93145723360E+02 0.  0.
         23    2    1    2    0    0 -0.43524740060E+02  0.25357295458E+02  0.14351014411E+03  0.17720638269E+03  0.90937039605E+02 0.  0.
          5    1    3    3  502    0 -0.28318597133E+02 -0.72102130251E+01  0.14109031953E+03  0.14416136230E+03  0.47000000000E+01 0. -1.
         -5    1    4    4    0  503 -0.66123216687E+02  0.22937855320E+02  0.13563131108E+03  0.15269697947E+03  0.47000000000E+01 0.  1.
          5    1    4    4  503    0  0.22598476627E+02  0.24194401380E+01  0.78788330291E+01  0.24509403223E+02  0.47000000000E+01 0. -1.
         -5    1    3    3    0  502  0.71843337193E+02 -0.18147082433E+02  0.55225214825E+03  0.55722105752E+03  0.47000000000E+01 0.  1.
<mgrwt>
<rscale>  0 0.10540619E+03</rscale>
<asrwt>0</asrwt>
<pdfrwt beam="1">  1        1 0.32104769E-02 0.10589391E+03</pdfrwt>
<pdfrwt beam="2">  1       -1 0.13195701E+00 0.10589391E+03</pdfrwt>
<totfact> 0.15649052E+03</totfact>
</mgrwt>
</event>
<event>
 8    1  0.2954813E-003  0.9464639E+02  0.7546771E-02  0.1292949E+00
         -1   -1    0    0    0  501 -0.00000000000E+00  0.00000000000E+00  0.35566416625E+02  0.35566416625E+02  0.00000000000E+00 0.  1.
          1   -1    0    0  501    0  0.00000000000E+00 -0.00000000000E+00 -0.32230875426E+03  0.32230875426E+03  0.00000000000E+00 0. -1.
         23    2    1    2    0    0  0.93367074084E+01 -0.20943374127E+02 -0.56077377232E+02  0.10854754701E+03  0.90067189917E+02 0.  0.
         23    2    1    2    0    0 -0.93367074084E+01  0.20943374127E+02 -0.23066496040E+03  0.24932762388E+03  0.91826690262E+02 0.  0.
          5    1    4    4  502    0  0.32999124781E+02  0.35951238519E+02 -0.10777588956E+03  0.11840255976E+03  0.47000000000E+01 0. -1.
         -5    1    3    3    0  503 -0.32243050719E+02  0.67717551211E+01  0.12753261571E-01  0.33280041312E+02  0.47000000000E+01 0.  1.
          5    1    3    3  503    0  0.41579758127E+02 -0.27715129248E+02 -0.56090130493E+02  0.75267505697E+02  0.47000000000E+01 0. -1.
         -5    1    4    4    0  502 -0.42335832189E+02 -0.15007864392E+02 -0.12288907085E+03  0.13092506412E+03  0.47000000000E+01 0.  1.
<mgrwt>
<rscale>  0 0.94216955E+02</rscale>
<asrwt>0</asrwt>
<pdfrwt beam="1">  1        1 0.49585963E-01 0.94646395E+02</pdfrwt>
<pdfrwt beam="2">  1       -1 0.54717563E-02 0.94646395E+02</pdfrwt>
<totfact> 0.11253678E+04</totfact>
</mgrwt>
</event>
<event>
 8    1  0.2954813E-003  0.1090191E+03  0.7546771E-02  0.1264891E+00
          1   -1    0    0  501    0  0.00000000000E+00  0.00000000000E+00  0.99905818766E+02  0.99905818766E+02  0.00000000000E+00 0. -1.
         -1   -1    0    0    0  501 -0.00000000000E+00 -0.00000000000E+00 -0.11387618598E+03  0.11387618598E+03  0.00000000000E+00 0.  1.
         23    2    1    2    0    0  0.89271520974E+01  0.56303152602E+02  0.29065019392E+00  0.10383409133E+03  0.86785338669E+02 0.  0.
         23    2    1    2    0    0 -0.89271520974E+01 -0.56303152602E+02 -0.14261017406E+02  0.10994791341E+03  0.92927003657E+02 0.  0.
          5    1    3    3  502    0  0.72686244997E+01  0.77638476563E+02 -0.11486807686E+02  0.78959500353E+02  0.47000000000E+01 0. -1.
         -5    1    3    3    0  502  0.16585275976E+01 -0.21335323961E+02  0.11777457880E+02  0.24874590980E+02  0.47000000000E+01 0.  1.
          5    1    4    4  503    0 -0.48418220430E+02 -0.22508957869E+02 -0.20499946352E+02  0.57387411986E+02  0.47000000000E+01 0. -1.
         -5    1    4    4    0  503  0.39491068333E+02 -0.33794194733E+02  0.62389289454E+01  0.52560501426E+02  0.47000000000E+01 0.  1.
<mgrwt>
<rscale>  0 0.10769897E+03</rscale>
<asrwt>0</asrwt>
<pdfrwt beam="1">  1        1 0.15370126E-01 0.10901911E+03</pdfrwt>
<pdfrwt beam="2">  1       -1 0.17519413E-01 0.10901911E+03</pdfrwt>
<totfact> 0.83675060E+03</totfact>
</mgrwt>
</event>
<event>
 8    1  0.2954813E-003  0.9566808E+02  0.7546771E-02  0.1290932E+00
         -2   -1    0    0    0  501 -0.00000000000E+00  0.00000000000E+00  0.24657238416E+02  0.24657238416E+02  0.00000000000E+00 0.  1.
          2   -1    0    0  501    0  0.00000000000E+00 -0.00000000000E+00 -0.36413018539E+03  0.36413018539E+03  0.00000000000E+00 0. -1.
         23    2    1    2    0    0 -0.12876015139E+02 -0.69300913695E+01 -0.15526913684E+03  0.18122195158E+03  0.92298824194E+02 0.  0.
         23    2    1    2    0    0  0.12876015139E+02  0.69300913695E+01 -0.18420381013E+03  0.20756547222E+03  0.94543977384E+02 0.  0.
          5    1    3    3  502    0  0.99053418706E+01  0.39782119991E+02 -0.68102932249E+02  0.79629342892E+02  0.47000000000E+01 0. -1.
         -5    1    4    4    0  503 -0.39030463040E+02 -0.78445666520E+01 -0.96288728739E+02  0.10430016085E+03  0.47000000000E+01 0.  1.
          5    1    4    4  503    0  0.51906478179E+02  0.14774658022E+02 -0.87915081394E+02  0.10326531137E+03  0.47000000000E+01 0. -1.
         -5    1    3    3    0  502 -0.22781357010E+02 -0.46712211360E+02 -0.87166204594E+02  0.10159260869E+03  0.47000000000E+01 0.  1.
<mgrwt>
<rscale>  0 0.95108657E+02</rscale>
<asrwt>0</asrwt>
<pdfrwt beam="1">  1        2 0.56020023E-01 0.95668080E+02</pdfrwt>
<pdfrwt beam="2">  1       -2 0.37934217E-02 0.95668080E+02</pdfrwt>
<totfact> 0.23742927E+04</totfact>
</mgrwt>
</event>
<event>
 8    1  0.2954813E-003  0.1036046E+03  0.7546771E-02  0.1274069E+00
          2   -1    0    0  501    0  0.00000000000E+00  0.00000000000E+00  0.30389124521E+03  0.30389124521E+03  0.00000000000E+00 0. -1.
         -2   -1    0    0    0  501 -0.00000000000E+00 -0.00000000000E+00 -0.39511806499E+02  0.39511806499E+02  0.00000000000E+00 0.  1.
         23    2    1    2    0    0 -0.45922999194E+02 -0.10405950237E+01  0.69958917496E+02  0.12310042425E+03  0.90274357492E+02 0.  0.
         23    2    1    2    0    0  0.45922999194E+02  0.10405950237E+01  0.19442052121E+03  0.22030262745E+03  0.92864976725E+02 0.  0.
          5    1    3    3  502    0 -0.34886841368E+01 -0.38866773623E+02  0.47854791440E+02  0.61927119040E+02  0.47000000000E+01 0. -1.
         -5    1    4    4    0  503 -0.23141280091E+02  0.13004632379E+02  0.24479556102E+02  0.36413980481E+02  0.47000000000E+01 0.  1.
          5    1    4    4  503    0  0.69064279285E+02 -0.11964037355E+02  0.16994096511E+03  0.18388864697E+03  0.47000000000E+01 0. -1.
         -5    1    3    3    0  502 -0.42434315058E+02  0.37826178599E+02  0.22104126056E+02  0.61173305212E+02  0.47000000000E+01 0.  1.
<mgrwt>
<rscale>  0 0.10302077E+03</rscale>
<asrwt>0</asrwt>
<pdfrwt beam="1">  1        2 0.46752498E-01 0.10360458E+03</pdfrwt>
<pdfrwt beam="2">  1       -2 0.60787397E-02 0.10360458E+03</pdfrwt>
<totfact> 0.14351707E+04</totfact>
</mgrwt>
</event>
<event>
 8    1  0.2954813E-003  0.1179925E+03  0.7546771E-02  0.1247551E+00
          2   -1    0    0  501    0  0.00000000000E+00  0.00000000000E+00  0.36586303472E+03  0.36586303472E+03  0.00000000000E+00 0. -1.
         -2   -1    0    0    0  501 -0.00000000000E+00 -0.00000000000E+00 -0.39710723969E+02  0.39710723969E+02  0.00000000000E+00 0.  1.
         23    2    1    2    0    0 -0.68236580906E+02  0.24013949393E+02  0.11062637584E+03  0.15986325141E+03  0.89917536559E+02 0.  0.
         23    2    1    2    0    0  0.68236580906E+02 -0.24013949393E+02  0.21552593491E+03  0.24571050728E+03  0.93216543751E+02 0.  0.
          5    1    3    3  502    0  0.11302206313E+02 -0.17269527457E+02  0.41504676491E+02  0.46590821164E+02  0.47000000000E+01 0. -1.
         -5    1    4    4    0  503  0.22005387097E+02 -0.42615480865E+02  0.38316316917E+02  0.61567413562E+02  0.47000000000E+01 0.  1.
          5    1    4    4  503    0  0.46231193809E+02  0.18601531472E+02  0.17720961799E+03  0.18414309372E+03  0.47000000000E+01 0. -1.
         -5    1    3    3    0  502 -0.79538787219E+02  0.41283476851E+02  0.69121699354E+02  0.11327243025E+03  0.47000000000E+01 0.  1.
<mgrwt>
<rscale>  0 0.11733994E+03</rscale>
<asrwt>0</asrwt>
<pdfrwt beam="1">  1        2 0.56286619E-01 0.11799248E+03</pdfrwt>
<pdfrwt beam="2">  1       -2 0.61093424E-02 0.11799248E+03</pdfrwt>
<totfact> 0.11845471E+04</totfact>
</mgrwt>
</event>
<event>
 8    1  0.2954813E-003  0.1027184E+03  0.7546771E-02  0.1276379E+00
          1   -1    0    0  501    0  0.00000000000E+00  0.00000000000E+00  0.96034107381E+03  0.96034107381E+03  0.00000000000E+00 0. -1.
         -1   -1    0    0    0  501 -0.00000000000E+00 -0.00000000000E+00 -0.10653253860E+02  0.10653253860E+02  0.00000000000E+00 0.  1.
         23    2    1    2    0    0  0.33669021134E+02 -0.37838986990E+02  0.50097949321E+03  0.51140153100E+03  0.89362639697E+02 0.  0.
         23    2    1    2    0    0 -0.33669021134E+02  0.37838986990E+02  0.44870832674E+03  0.45959279667E+03  0.85562750904E+02 0.  0.
          5    1    3    3  502    0  0.47127521392E+02  0.66097044841E+01  0.35326932445E+03  0.35649122999E+03  0.47000000000E+01 0. -1.
         -5    1    3    3    0  502 -0.13458500258E+02 -0.44448691474E+02  0.14771016876E+03  0.15491030101E+03  0.47000000000E+01 0.  1.
          5    1    4    4  503    0 -0.53054303442E+02  0.47557544823E+02  0.26147623294E+03  0.27105052956E+03  0.47000000000E+01 0.  1.
         -5    1    4    4    0  503  0.19385282309E+02 -0.97185578330E+01  0.18723209380E+03  0.18854226711E+03  0.47000000000E+01 0. -1.
<mgrwt>
<rscale>  0 0.10188632E+03</rscale>
<asrwt>0</asrwt>
<pdfrwt beam="1">  1        1 0.14774471E+00 0.10271842E+03</pdfrwt>
<pdfrwt beam="2">  1       -1 0.16389629E-02 0.10271842E+03</pdfrwt>
<totfact> 0.14751751E+04</totfact>
</mgrwt>
</event>
<event>
 8    1  0.2954813E-003  0.9439814E+02  0.7546771E-02  0.1293071E+00
          2   -1    0    0  501    0  0.00000000000E+00  0.00000000000E+00  0.93321785312E+03  0.93321785312E+03  0.00000000000E+00 0. -1.
         -2   -1    0    0    0  501 -0.00000000000E+00 -0.00000000000E+00 -0.15666662638E+02  0.15666662638E+02  0.00000000000E+00 0.  1.
         23    2    1    2    0    0  0.86069141123E+01 -0.21301950579E+02  0.75615493212E+03  0.76190921911E+03  0.90595390267E+02 0.  0.
         23    2    1    2    0    0 -0.86069141123E+01  0.21301950579E+02  0.16139625836E+03  0.18697529664E+03  0.91559583178E+02 0.  0.
          5    1    4    4  502    0  0.10821468130E+02  0.54086360919E+02  0.84387438618E+02  0.10092456790E+03  0.47000000000E+01 0. -1.
         -5    1    3    3    0  503 -0.40206309840E+02 -0.91812574829E+01  0.27589364177E+03  0.27899862797E+03  0.47000000000E+01 0.  1.
          5    1    3    3  503    0  0.48813223953E+02 -0.12120693096E+02  0.48026129035E+03  0.48291059114E+03  0.47000000000E+01 0. -1.
         -5    1    4    4    0  502 -0.19428382242E+02 -0.32784410341E+02  0.77008819744E+02  0.86050728738E+02  0.47000000000E+01 0.  1.
<mgrwt>
<rscale>  0 0.94163543E+02</rscale>
<asrwt>0</asrwt>
<pdfrwt beam="1">  1        2 0.14357193E+00 0.94398143E+02</pdfrwt>
<pdfrwt beam="2">  1       -2 0.24102565E-02 0.94398143E+02</pdfrwt>
<totfact> 0.15776464E+04</totfact>
</mgrwt>
</event>
<event>
 8    1  0.2954813E-003  0.1532298E+03  0.7546771E-02  0.1201344E+00
         -1   -1    0    0    0  501 -0.00000000000E+00  0.00000000000E+00  0.12674740635E+03  0.12674740635E+03  0.00000000000E+00 0.  1.
          1   -1    0    0  501    0  0.00000000000E+00 -0.00000000000E+00 -0.29480788719E+03  0.29480788719E+03  0.00000000000E+00 0. -1.
         23    2    1    2    0    0 -0.64729840249E+01  0.10330424659E+03  0.56917917940E+02  0.14935195089E+03  0.91393046589E+02 0.  0.
         23    2    1    2    0    0  0.64729840249E+01 -0.10330424659E+03 -0.22497839878E+03  0.27220334265E+03  0.11298545458E+03 0.  0.
          5    1    3    3  502    0 -0.41287281992E+02  0.32430448076E+02  0.45098874813E+02  0.69371262971E+02  0.47000000000E+01 0. -1.
         -5    1    4    4    0  503 -0.27295225988E+02  0.13001474606E+02 -0.31620251241E+02  0.43999977184E+02  0.47000000000E+01 0.  1.
          5    1    4    4  503    0  0.33768210013E+02 -0.11630572120E+03 -0.19335814753E+03  0.22820336546E+03  0.47000000000E+01 0. -1.
         -5    1    3    3    0  502  0.34814297967E+02  0.70873798517E+02  0.11819043127E+02  0.79980687917E+02  0.47000000000E+01 0.  1.
<mgrwt>
<rscale>  0 0.14929352E+03</rscale>
<asrwt>0</asrwt>
<pdfrwt beam="1">  1        1 0.45355059E-01 0.15322983E+03</pdfrwt>
<pdfrwt beam="2">  1       -1 0.19499601E-01 0.15322983E+03</pdfrwt>
<totfact> 0.18518569E+03</totfact>
</mgrwt>
</event>
<event>
 8    1  0.2954813E-003  0.1314808E+03  0.7546771E-02  0.1230171E+00
          2   -1    0    0  501    0  0.00000000000E+00  0.00000000000E+00  0.11552716517E+03  0.11552716517E+03  0.00000000000E+00 0. -1.
         -2   -1    0    0    0  501 -0.00000000000E+00 -0.00000000000E+00 -0.14436993213E+03  0.14436993213E+03  0.00000000000E+00 0.  1.
         23    2    1    2    0    0 -0.39466813030E+02 -0.65167161920E+02 -0.45825936935E+02  0.12732401686E+03  0.91142747654E+02 0.  0.
         23    2    1    2    0    0  0.39466813030E+02  0.65167161920E+02  0.16983169965E+02  0.13257308044E+03  0.10715785212E+03 0.  0.
          5    1    3    3  502    0 -0.12717442047E+02 -0.80357399464E+02 -0.50477355997E+02  0.95859785360E+02  0.47000000000E+01 0. -1.
         -5    1    4    4    0  503  0.27792551807E+02  0.30852395528E+02 -0.44500156440E+02  0.61046295292E+02  0.47000000000E+01 0.  1.
          5    1    4    4  503    0  0.11674261223E+02  0.34314766392E+02  0.61483326405E+02  0.71526785147E+02  0.47000000000E+01 0. -1.
         -5    1    3    3    0  502 -0.26749370983E+02  0.15190237544E+02  0.46514190616E+01  0.31464231500E+02  0.47000000000E+01 0.  1.
<mgrwt>
<rscale>  0 0.12818668E+03</rscale>
<asrwt>0</asrwt>
<pdfrwt beam="1">  1        2 0.17773410E-01 0.13148077E+03</pdfrwt>
<pdfrwt beam="2">  1       -2 0.22210759E-01 0.13148077E+03</pdfrwt>
<totfact> 0.53041568E+03</totfact>
</mgrwt>
</event>
<event>
 8    1  0.2954813E-003  0.1377174E+03  0.7546771E-02  0.1225277E+00
          1   -1    0    0  501    0  0.00000000000E+00  0.00000000000E+00  0.42565047891E+03  0.42565047891E+03  0.00000000000E+00 0. -1.
         -1   -1    0    0    0  501 -0.00000000000E+00 -0.00000000000E+00 -0.69805365951E+02  0.69805365951E+02  0.00000000000E+00 0.  1.
         23    2    1    2    0    0 -0.50647229137E+01 -0.66399753433E+02  0.18152149832E+02  0.13890850202E+03  0.12054664125E+03 0.  0.
         23    2    1    2    0    0  0.50647229137E+01  0.66399753433E+02  0.33769296313E+03  0.35654734284E+03  0.93031670236E+02 0.  0.
          5    1    4    4  502    0  0.19068695881E+02  0.42951625460E+02  0.32044180504E+03  0.32390353149E+03  0.47000000000E+01 0. -1.
         -5    1    4    4    0  502 -0.14003972967E+02  0.23448127973E+02  0.17251158085E+02  0.32643811352E+02  0.47000000000E+01 0.  1.
          5    1    3    3  503    0 -0.22429080370E+02  0.25149671592E+02 -0.18427203607E+02  0.38693946040E+02  0.47000000000E+01 0. -1.
         -5    1    3    3    0  503  0.17364357456E+02 -0.91549425026E+02  0.36579353438E+02  0.10021455598E+03  0.47000000000E+01 0.  1.
<mgrwt>
<rscale>  0 0.13147912E+03</rscale>
<asrwt>0</asrwt>
<pdfrwt beam="1">  1        1 0.65484688E-01 0.13771736E+03</pdfrwt>
<pdfrwt beam="2">  1       -1 0.10739287E-01 0.13771736E+03</pdfrwt>
<totfact> 0.29653138E+03</totfact>
</mgrwt>
</event>
<event>
 8    1  0.2954813E-003  0.9884761E+02  0.7546771E-02  0.1283804E+00
         -2   -1    0    0    0  501 -0.00000000000E+00  0.00000000000E+00  0.29519713105E+03  0.29519713105E+03  0.00000000000E+00 0.  1.
          2   -1    0    0  501    0  0.00000000000E+00 -0.00000000000E+00 -0.13561124205E+03  0.13561124205E+03  0.00000000000E+00 0. -1.
         23    2    1    2    0    0  0.22462569081E+02 -0.30806825500E+02  0.26747889880E+03  0.28448082681E+03  0.89054769734E+02 0.  0.
         23    2    1    2    0    0 -0.22462569081E+02  0.30806825500E+02 -0.10789300980E+03  0.14632754629E+03  0.91198803343E+02 0.  0.
          5    1    3    3  502    0 -0.33977663001E+02 -0.53274784841E+01  0.10064883858E+03  0.10646662537E+03  0.47000000000E+01 0. -1.
         -5    1    4    4    0  503  0.20046471880E+02  0.27629265502E+02 -0.49534790845E+01  0.34811841406E+02  0.47000000000E+01 0.  1.
          5    1    4    4  503    0 -0.42509040960E+02  0.31775599977E+01 -0.10293953072E+03  0.11151570488E+03  0.47000000000E+01 0. -1.
         -5    1    3    3    0  502  0.56440232082E+02 -0.25479347016E+02  0.16683006022E+03  0.17801420145E+03  0.47000000000E+01 0.  1.
<mgrwt>
<rscale>  0 0.98350215E+02</rscale>
<asrwt>0</asrwt>
<pdfrwt beam="1">  1        2 0.20863268E-01 0.98847606E+02</pdfrwt>
<pdfrwt beam="2">  1       -2 0.45414943E-01 0.98847606E+02</pdfrwt>
<totfact> 0.11917471E+03</totfact>
</mgrwt>
</event>
<event>
 8    1  0.2954813E-003  0.1027002E+03  0.7546771E-02  0.1275215E+00
         -1   -1    0    0    0  501 -0.00000000000E+00  0.00000000000E+00  0.88255006740E+03  0.88255006740E+03  0.00000000000E+00 0.  1.
          1   -1    0    0  501    0  0.00000000000E+00 -0.00000000000E+00 -0.14311820404E+02  0.14311820404E+02  0.00000000000E+00 0. -1.
         23    2    1    2    0    0  0.24992824255E+02 -0.45714191320E+02  0.24938987940E+03  0.26970843483E+03  0.88503668401E+02 0.  0.
         23    2    1    2    0    0 -0.24992824255E+02  0.45714191320E+02  0.61884836759E+03  0.62715345297E+03  0.87371179144E+02 0.  0.
          5    1    3    3  502    0  0.22483542728E+02 -0.71833460102E+02  0.19662598825E+03  0.21059303155E+03  0.47000000000E+01 0. -1.
         -5    1    4    4    0  503 -0.36812362626E+02  0.67160726420E+02  0.45769465074E+03  0.46408210107E+03  0.47000000000E+01 0.  1.
          5    1    4    4  503    0  0.11819538371E+02 -0.21446535100E+02  0.16115371685E+03  0.16307135190E+03  0.47000000000E+01 0. -1.
         -5    1    3    3    0  502  0.25092815272E+01  0.26119268782E+02  0.52763891150E+02  0.59115403279E+02  0.47000000000E+01 0.  1.
<mgrwt>
<rscale>  0 0.10245573E+03</rscale>
<asrwt>0</asrwt>
<pdfrwt beam="1">  1        1 0.22018192E-02 0.10270018E+03</pdfrwt>
<pdfrwt beam="2">  1       -1 0.13577689E+00 0.10270018E+03</pdfrwt>
<totfact> 0.24500034E+03</totfact>
</mgrwt>
</event>
<event>
 8    1  0.2954813E-003  0.1030252E+03  0.7546771E-02  0.1275411E+00
          4   -1    0    0  501    0  0.00000000000E+00  0.00000000000E+00  0.16312904779E+03  0.16312904779E+03  0.00000000000E+00 0. -1.
         -4   -1    0    0    0  501 -0.00000000000E+00 -0.00000000000E+00 -0.78622385321E+02  0.78622385321E+02  0.00000000000E+00 0.  1.
         23    2    1    2    0    0 -0.32608393513E+02  0.32489066506E+02 -0.11352098587E+02  0.10102798417E+03  0.89212872796E+02 0.  0.
         23    2    1    2    0    0  0.32608393513E+02 -0.32489066506E+02  0.95858761056E+02  0.14072344895E+03  0.92170170022E+02 0.  0.
          5    1    3    3  502    0  0.14664945985E+02  0.29374510248E+02  0.24663335832E+02  0.41331496796E+02  0.47000000000E+01 0. -1.
         -5    1    3    3    0  502 -0.47273339498E+02  0.31145562587E+01 -0.36015434419E+02  0.59696487371E+02  0.47000000000E+01 0.  1.
          5    1    4    4  503    0  0.57743244902E+02 -0.37496157317E+02  0.41719308712E+02  0.80640156652E+02  0.47000000000E+01 0. -1.
         -5    1    4    4    0  503 -0.25134851389E+02  0.50070908109E+01  0.54139452344E+02  0.60083292294E+02  0.47000000000E+01 0.  1.
<mgrwt>
<rscale>  0 0.10235950E+03</rscale>
<asrwt>0</asrwt>
<pdfrwt beam="1">  1        4 0.25096776E-01 0.10302518E+03</pdfrwt>
<pdfrwt beam="2">  1       -4 0.12095752E-01 0.10302518E+03</pdfrwt>
<totfact> 0.12616070E+03</totfact>
</mgrwt>
</event>
<event>
 8    1  0.2954813E-003  0.9313320E+02  0.7546771E-02  0.1296004E+00
          1   -1    0    0  501    0  0.00000000000E+00  0.00000000000E+00  0.20792677869E+03  0.20792677869E+03  0.00000000000E+00 0. -1.
         -1   -1    0    0    0  501 -0.00000000000E+00 -0.00000000000E+00 -0.52138357859E+02  0.52138357859E+02  0.00000000000E+00 0.  1.
         23    2    1    2    0    0  0.76395648016E+01  0.14939970322E+01  0.13756034795E+03  0.16612237385E+03  0.92807320761E+02 0.  0.
         23    2    1    2    0    0 -0.76395648016E+01 -0.14939970322E+01  0.18228072881E+02  0.93942762703E+02  0.91828018849E+02 0.  0.
          5    1    4    4  502    0 -0.42963053649E+02  0.12272403211E+02 -0.10507289246E+02  0.46140318450E+02  0.47000000000E+01 0. -1.
         -5    1    3    3    0  503  0.29739379201E+02 -0.26514266827E+02  0.11910525086E+03  0.12568049890E+03  0.47000000000E+01 0.  1.
          5    1    3    3  503    0 -0.22099814399E+02  0.28008263859E+02  0.18455097092E+02  0.40441874951E+02  0.47000000000E+01 0. -1.
         -5    1    4    4    0  502  0.35323488847E+02 -0.13766400243E+02  0.28735362127E+02  0.47802444253E+02  0.47000000000E+01 0.  1.
<mgrwt>
<rscale>  0 0.92888280E+02</rscale>
<asrwt>0</asrwt>
<pdfrwt beam="1">  1        1 0.31988735E-01 0.93133204E+02</pdfrwt>
<pdfrwt beam="2">  1       -1 0.80212859E-02 0.93133204E+02</pdfrwt>
<totfact> 0.10898969E+04</totfact>
</mgrwt>
</event>
<event>
 8    1  0.2954813E-003  0.1032510E+03  0.7546771E-02  0.1274459E+00
         -1   -1    0    0    0  501 -0.00000000000E+00  0.00000000000E+00  0.25533504531E+02  0.25533504531E+02  0.00000000000E+00 0.  1.
          1   -1    0    0  501    0  0.00000000000E+00 -0.00000000000E+00 -0.73378391297E+03  0.73378391297E+03  0.00000000000E+00 0. -1.
         23    2    1    2    0    0 -0.42677282432E+02  0.17680102890E+02 -0.60764947033E+03  0.61635919491E+03  0.92340900356E+02 0.  0.
         23    2    1    2    0    0  0.42677282432E+02 -0.17680102890E+02 -0.10060093811E+03  0.14295822259E+03  0.90457549078E+02 0.  0.
          5    1    3    3  502    0 -0.55751471540E+02 -0.10960938615E+02 -0.51985215717E+03  0.52296914256E+03  0.47000000000E+01 0. -1.
         -5    1    3    3    0  502  0.13074189108E+02  0.28641041505E+02 -0.87797313165E+02  0.93390052352E+02  0.47000000000E+01 0.  1.
          5    1    4    4  503    0 -0.10421238519E+02 -0.41151224914E+02 -0.34886499871E+02  0.55146925549E+02  0.47000000000E+01 0. -1.
         -5    1    4    4    0  503  0.53098520950E+02  0.23471122024E+02 -0.65714438235E+02  0.87811297045E+02  0.47000000000E+01 0.  1.
<mgrwt>
<rscale>  0 0.10282824E+03</rscale>
<asrwt>0</asrwt>
<pdfrwt beam="1">  1        1 0.11288981E+00 0.10325105E+03</pdfrwt>
<pdfrwt beam="2">  1       -1 0.39282324E-02 0.10325105E+03</pdfrwt>
<totfact> 0.63192065E+03</totfact>
</mgrwt>
</event>
<event>
 8    1  0.2954813E-003  0.1078867E+03  0.7546771E-02  0.1267419E+00
          2   -1    0    0  501    0  0.00000000000E+00  0.00000000000E+00  0.11459158000E+04  0.11459158000E+04  0.00000000000E+00 0. -1.
         -2   -1    0    0    0  501 -0.00000000000E+00 -0.00000000000E+00 -0.12199334971E+02  0.12199334971E+02  0.00000000000E+00 0.  1.
         23    2    1    2    0    0 -0.58257074888E+02 -0.20055520821E+02  0.84606853626E+03  0.85291939828E+03  0.88563091796E+02 0.  0.
         23    2    1    2    0    0  0.58257074888E+02  0.20055520821E+02  0.28764792881E+03  0.30519573673E+03  0.81283430533E+02 0.  0.
          5    1    4    4  502    0  0.55639261457E+02 -0.19100865067E+02  0.13170688168E+03  0.14432381350E+03  0.47000000000E+01 0. -1.
         -5    1    4    4    0  502  0.26178134314E+01  0.39156385889E+02  0.15594104713E+03  0.16087192323E+03  0.47000000000E+01 0.  1.
          5    1    3    3  503    0  0.15428055089E+02  0.18358622479E+02  0.21578931682E+03  0.21716855932E+03  0.47000000000E+01 0. -1.
         -5    1    3    3    0  503 -0.73685129977E+02 -0.38414143301E+02  0.63027921944E+03  0.63575083896E+03  0.47000000000E+01 0.  1.
<mgrwt>
<rscale>  0 0.10638275E+03</rscale>
<asrwt>0</asrwt>
<pdfrwt beam="1">  1        2 0.17629465E+00 0.10788666E+03</pdfrwt>
<pdfrwt beam="2">  1       -2 0.18768217E-02 0.10788666E+03</pdfrwt>
<totfact> 0.17210084E+04</totfact>
</mgrwt>
</event>
<event>
 8    1  0.2954813E-003  0.9499000E+02  0.7546771E-02  0.1295737E+00
         -2   -1    0    0    0  501 -0.00000000000E+00  0.00000000000E+00  0.35448842778E+03  0.35448842778E+03  0.00000000000E+00 0.  1.
          2   -1    0    0  501    0  0.00000000000E+00 -0.00000000000E+00 -0.28455137482E+02  0.28455137482E+02  0.00000000000E+00 0. -1.
         23    2    1    2    0    0 -0.19725231310E+02 -0.17413501957E+02  0.88302517888E+02  0.12969361766E+03  0.91273134036E+02 0.  0.
         23    2    1    2    0    0  0.19725231310E+02  0.17413501957E+02  0.23773077241E+03  0.25324994760E+03  0.83230409151E+02 0.  0.
          5    1    4    4  502    0 -0.27635943414E+02  0.25356092252E+02  0.83724342539E+02  0.91861484401E+02  0.47000000000E+01 0. -1.
         -5    1    4    4    0  502  0.47361174724E+02 -0.79425902949E+01  0.15400642987E+03  0.16138846320E+03  0.47000000000E+01 0.  1.
          5    1    3    3  503    0 -0.45562716398E+02  0.36266251076E+01  0.13850244902E+02  0.47989924141E+02  0.47000000000E+01 0. -1.
         -5    1    3    3    0  503  0.25837485088E+02 -0.21040127064E+02  0.74452272986E+02  0.81703693523E+02  0.47000000000E+01 0.  1.
<mgrwt>
<rscale>  0 0.93003661E+02</rscale>
<asrwt>0</asrwt>
<pdfrwt beam="1">  1        2 0.43777137E-02 0.94989998E+02</pdfrwt>
<pdfrwt beam="2">  1       -2 0.54536678E-01 0.94989998E+02</pdfrwt>
<totfact> 0.55424459E+03</totfact>
</mgrwt>
</event>
<event>
 8    1  0.2954813E-003  0.2523415E+03  0.7546771E-02  0.1111914E+00
          2   -1    0    0  501    0  0.00000000000E+00  0.00000000000E+00  0.11206271225E+04  0.11206271225E+04  0.00000000000E+00 0. -1.
         -2   -1    0    0    0  501 -0.00000000000E+00 -0.00000000000E+00 -0.71777193555E+02  0.71777193555E+02  0.00000000000E+00 0.  1.
         23    2    1    2    0    0 -0.83084459589E+02 -0.21940147438E+03  0.79719593067E+03  0.83602531533E+03  0.91525633648E+02 0.  0.
         23    2    1    2    0    0  0.83084459589E+02  0.21940147438E+03  0.25165399825E+03  0.35637900070E+03  0.92931280633E+02 0.  0.
          5    1    4    4  502    0 -0.19515426437E+02  0.45991629798E+02  0.40575560849E+02  0.64533309374E+02  0.47000000000E+01 0. -1.
         -5    1    3    3    0  503 -0.35854897841E+02 -0.32801643021E+02  0.82650696356E+02  0.95993484634E+02  0.47000000000E+01 0.  1.
          5    1    3    3  503    0 -0.47229561749E+02 -0.18659983136E+03  0.71454523431E+03  0.74003183070E+03  0.47000000000E+01 0. -1.
         -5    1    4    4    0  502  0.10259988603E+03  0.17340984458E+03  0.21107843740E+03  0.29184569132E+03  0.47000000000E+01 0.  1.
<mgrwt>
<rscale>  0 0.25221288E+03</rscale>
<asrwt>0</asrwt>
<pdfrwt beam="1">  1        2 0.17240416E+00 0.25234155E+03</pdfrwt>
<pdfrwt beam="2">  1       -2 0.11042646E-01 0.25234155E+03</pdfrwt>
<totfact> 0.12586430E+03</totfact>
</mgrwt>
</event>
<event>
 8    1  0.2954813E-003  0.1042616E+03  0.7546771E-02  0.1272052E+00
         -1   -1    0    0    0  501 -0.00000000000E+00  0.00000000000E+00  0.13577966536E+02  0.13577966536E+02  0.00000000000E+00 0.  1.
          1   -1    0    0  501    0  0.00000000000E+00 -0.00000000000E+00 -0.81860654919E+03  0.81860654919E+03  0.00000000000E+00 0. -1.
         23    2    1    2    0    0 -0.28862989951E+02  0.42365656295E+02 -0.33123838176E+03  0.34725975699E+03  0.90788502874E+02 0.  0.
         23    2    1    2    0    0  0.28862989951E+02 -0.42365656295E+02 -0.47379020090E+03  0.48492475874E+03  0.89704772146E+02 0.  0.
          5    1    4    4  502    0 -0.11268886666E+02 -0.46220702317E+02 -0.37626862774E+03  0.37929343700E+03  0.47000000000E+01 0. -1.
         -5    1    3    3    0  503  0.31917780895E+02  0.14770326652E+02 -0.14772584779E+03  0.15192736222E+03  0.47000000000E+01 0.  1.
          5    1    3    3  503    0 -0.60780770847E+02  0.27595329643E+02 -0.18351253397E+03  0.19533239477E+03  0.47000000000E+01 0. -1.
         -5    1    4    4    0  502  0.40131876617E+02  0.38550460212E+01 -0.97521573160E+02  0.10563132174E+03  0.47000000000E+01 0.  1.
<mgrwt>
<rscale>  0 0.10402518E+03</rscale>
<asrwt>0</asrwt>
<pdfrwt beam="1">  1        1 0.12593949E+00 0.10426156E+03</pdfrwt>
<pdfrwt beam="2">  1       -1 0.20889175E-02 0.10426156E+03</pdfrwt>
<totfact> 0.13403462E+04</totfact>
</mgrwt>
</event>
<event>
 8    1  0.2954813E-003  0.1045386E+03  0.7546771E-02  0.1275892E+00
          1   -1    0    0  501    0  0.00000000000E+00  0.00000000000E+00  0.28332207989E+03  0.28332207989E+03  0.00000000000E+00 0. -1.
         -1   -1    0    0    0  501 -0.00000000000E+00 -0.00000000000E+00 -0.11485559878E+03  0.11485559878E+03  0.00000000000E+00 0.  1.
         23    2    1    2    0    0  0.17997199263E+02 -0.49195491223E+01 -0.82707886983E+02  0.12611724584E+03  0.93364147209E+02 0.  0.
         23    2    1    2    0    0 -0.17997199263E+02  0.49195491223E+01  0.25117436810E+03  0.27206043283E+03  0.10286017101E+03 0.  0.
          5    1    4    4  502    0 -0.52907279362E+01 -0.26340820353E+02  0.23071060500E+03  0.23231724835E+03  0.47000000000E+01 0. -1.
         -5    1    3    3    0  503  0.49293075798E+02 -0.11782524176E+01 -0.80056477192E+02  0.94139923203E+02  0.47000000000E+01 0.  1.
          5    1    3    3  503    0 -0.31295876535E+02 -0.37412967047E+01 -0.26514097915E+01  0.31977322637E+02  0.47000000000E+01 0. -1.
         -5    1    4    4    0  502 -0.12706471327E+02  0.31260369475E+02  0.20463763096E+02  0.39743184489E+02  0.47000000000E+01 0.  1.
<mgrwt>
<rscale>  0 0.10212410E+03</rscale>
<asrwt>0</asrwt>
<pdfrwt beam="1">  1        1 0.43588012E-01 0.10453859E+03</pdfrwt>
<pdfrwt beam="2">  1       -1 0.17670092E-01 0.10453859E+03</pdfrwt>
<totfact> 0.22439135E+03</totfact>
</mgrwt>
</event>
<event>
 7    1  0.2954813E-003  0.1464379E+03  0.7546771E-02  0.1220817E+00
         -2   -1    0    0    0  501 -0.00000000000E+00  0.00000000000E+00  0.11692278552E+02  0.11692278552E+02  0.00000000000E+00 0.  1.
          2   -1    0    0  501    0  0.00000000000E+00 -0.00000000000E+00 -0.13632819400E+04  0.13632819400E+04  0.00000000000E+00 0. -1.
         23    2    1    2    0    0 -0.20297038071E+01 -0.53185652152E+02 -0.48763902972E+03  0.49870099940E+03  0.89877862717E+02 0.  0.
          5    1    1    2  502    0 -0.79834329793E+01  0.87386164449E+02 -0.78022194990E+03  0.78515505350E+03  0.47000000000E+01 0. -1.
         -5    1    3    3    0  503 -0.32477612074E+02 -0.62816366945E+02 -0.29626910759E+03  0.30462791296E+03  0.47000000000E+01 0.  1.
          5    1    3    3  503    0  0.30447908267E+02  0.96307147937E+01 -0.19136992213E+03  0.19407308644E+03  0.47000000000E+01 0. -1.
         -5    1    1    2    0  502  0.10013136786E+02 -0.34200512297E+02 -0.83728681840E+02  0.91118165655E+02  0.47000000000E+01 0.  1.
<mgrwt>
<rscale>  0 0.13457752E+03</rscale>
<asrwt>0</asrwt>
<pdfrwt beam="1">  1        2 0.20973577E+00 0.14643791E+03</pdfrwt>
<pdfrwt beam="2">  1       -2 0.17988113E-02 0.14643791E+03</pdfrwt>
<totfact> 0.14204802E+04</totfact>
</mgrwt>
</event>
<event>
 8    1  0.2954813E-003  0.1247653E+03  0.7546771E-02  0.1247599E+00
          1   -1    0    0  501    0  0.00000000000E+00  0.00000000000E+00  0.12992000223E+03  0.12992000223E+03  0.00000000000E+00 0. -1.
         -1   -1    0    0    0  501 -0.00000000000E+00 -0.00000000000E+00 -0.12786137783E+03  0.12786137783E+03  0.00000000000E+00 0.  1.
         23    2    1    2    0    0  0.27169792623E+02  0.72812779907E+01  0.66023279931E+02  0.14115758719E+03  0.12155318296E+03 0.  0.
         23    2    1    2    0    0 -0.27169792623E+02 -0.72812779907E+01 -0.63964655532E+02  0.11662379287E+03  0.93372465246E+02 0.  0.
          5    1    3    3  502    0  0.21973245769E+02 -0.55455023806E+02  0.44109241195E+02  0.74335713851E+02  0.47000000000E+01 0. -1.
         -5    1    3    3    0  502  0.51965468537E+01  0.62736301797E+02  0.21914038736E+02  0.66821873336E+02  0.47000000000E+01 0.  1.
          5    1    4    4  503    0  0.20778676366E+02 -0.20147201561E+02  0.67562297659E+01  0.30089861464E+02  0.47000000000E+01 0. -1.
         -5    1    4    4    0  503 -0.47948468989E+02  0.12865923570E+02 -0.70720885298E+02  0.86533931409E+02  0.47000000000E+01 0.  1.
<mgrwt>
<rscale>  0 0.11731159E+03</rscale>
<asrwt>0</asrwt>
<pdfrwt beam="1">  1        1 0.19987693E-01 0.12476534E+03</pdfrwt>
<pdfrwt beam="2">  1       -1 0.19670981E-01 0.12476534E+03</pdfrwt>
<totfact> 0.50282594E+03</totfact>
</mgrwt>
</event>
<event>
 8    1  0.2954813E-003  0.2073771E+03  0.7546771E-02  0.1144708E+00
          1   -1    0    0  501    0  0.00000000000E+00  0.00000000000E+00  0.88775129078E+03  0.88775129078E+03  0.00000000000E+00 0. -1.
         -1   -1    0    0    0  501 -0.00000000000E+00 -0.00000000000E+00 -0.75843233536E+02  0.75843233536E+02  0.00000000000E+00 0.  1.
         23    2    1    2    0    0  0.50455808668E+02 -0.17384464558E+03  0.10697044778E+03  0.22878687495E+03  0.90183191477E+02 0.  0.
         23    2    1    2    0    0 -0.50455808668E+02  0.17384464558E+03  0.70493760946E+03  0.73480764936E+03  0.10118052631E+03 0.  0.
          5    1    3    3  502    0 -0.19835116598E+02 -0.94593563154E+01  0.19239481096E+02  0.29583084781E+02  0.47000000000E+01 0. -1.
         -5    1    3    3    0  502  0.70290925265E+02 -0.16438528927E+03  0.87730966687E+02  0.19920379017E+03  0.47000000000E+01 0.  1.
          5    1    4    4  503    0 -0.22687111293E+02  0.11133042009E+03  0.59091598812E+03  0.60175822593E+03  0.47000000000E+01 0. -1.
         -5    1    4    4    0  503 -0.27768697375E+02  0.62514225496E+02  0.11402162134E+03  0.13304942343E+03  0.47000000000E+01 0.  1.
<mgrwt>
<rscale>  0 0.20608053E+03</rscale>
<asrwt>0</asrwt>
<pdfrwt beam="1">  1        1 0.13657711E+00 0.20737707E+03</pdfrwt>
<pdfrwt beam="2">  1       -1 0.11668190E-01 0.20737707E+03</pdfrwt>
<totfact> 0.93863489E+02</totfact>
</mgrwt>
</event>
<event>
 8    1  0.2954813E-003  0.1370391E+03  0.7546771E-02  0.1218066E+00
         -1   -1    0    0    0  501 -0.00000000000E+00  0.00000000000E+00  0.17843912279E+03  0.17843912279E+03  0.00000000000E+00 0.  1.
          1   -1    0    0  501    0  0.00000000000E+00 -0.00000000000E+00 -0.11097238822E+03  0.11097238822E+03  0.00000000000E+00 0. -1.
         23    2    1    2    0    0 -0.97209521425E+02  0.29111644247E+02  0.70504228357E+02  0.15233876585E+03  0.89101484156E+02 0.  0.
         23    2    1    2    0    0  0.97209521425E+02 -0.29111644247E+02 -0.30374937902E+01  0.13707274515E+03  0.92100663453E+02 0.  0.
          5    1    3    3  502    0 -0.39901550182E+02 -0.28784442131E+01 -0.16266247705E+02  0.43440763833E+02  0.47000000000E+01 0. -1.
         -5    1    4    4    0  503  0.10087443186E+01 -0.20462922085E+02  0.28449640961E+02  0.35372599794E+02  0.47000000000E+01 0.  1.
          5    1    4    4  503    0  0.96200777107E+02 -0.86487221617E+01 -0.31487134751E+02  0.10170014536E+03  0.47000000000E+01 0. -1.
         -5    1    3    3    0  502 -0.57307971244E+02  0.31990088460E+02  0.86770476063E+02  0.10889800202E+03  0.47000000000E+01 0.  1.
<mgrwt>
<rscale>  0 0.13653698E+03</rscale>
<asrwt>0</asrwt>
<pdfrwt beam="1">  1        1 0.17072675E-01 0.13703909E+03</pdfrwt>
<pdfrwt beam="2">  1       -1 0.27452173E-01 0.13703909E+03</pdfrwt>
<totfact> 0.35928981E+03</totfact>
</mgrwt>
</event>
<event>
 8    1  0.2954813E-003  0.1259005E+03  0.7546771E-02  0.1233776E+00
         -2   -1    0    0    0  501 -0.00000000000E+00  0.00000000000E+00  0.43546010009E+02  0.43546010009E+02  0.00000000000E+00 0.  1.
          2   -1    0    0  501    0  0.00000000000E+00 -0.00000000000E+00 -0.45006338698E+03  0.45006338698E+03  0.00000000000E+00 0. -1.
         23    2    1    2    0    0 -0.84233227504E+02  0.17731144086E+02 -0.94654677255E+02  0.15729215121E+03  0.91496900605E+02 0.  0.
         23    2    1    2    0    0  0.84233227504E+02 -0.17731144086E+02 -0.31186269972E+03  0.33631724578E+03  0.91876636019E+02 0.  0.
          5    1    3    3  502    0 -0.68548000509E+01  0.18991409305E+02 -0.74293896606E+02  0.77131932324E+02  0.47000000000E+01 0. -1.
         -5    1    4    4    0  503  0.59596125235E+01  0.20780891462E+02 -0.15667671015E+03  0.15823098286E+03  0.47000000000E+01 0.  1.
          5    1    4    4  503    0  0.78273614980E+02 -0.38512035548E+02 -0.15518598956E+03  0.17808626292E+03  0.47000000000E+01 0. -1.
         -5    1    3    3    0  502 -0.77378427453E+02 -0.12602652186E+01 -0.20360780649E+02  0.80160218888E+02  0.47000000000E+01 0.  1.
<mgrwt>
<rscale>  0 0.12583127E+03</rscale>
<asrwt>0</asrwt>
<pdfrwt beam="1">  1        2 0.69240521E-01 0.12590054E+03</pdfrwt>
<pdfrwt beam="2">  1       -2 0.66993862E-02 0.12590054E+03</pdfrwt>
<totfact> 0.82967599E+03</totfact>
</mgrwt>
</event>
<event>
 8    1  0.2954813E-003  0.1527893E+03  0.7546771E-02  0.1197788E+00
          1   -1    0    0  501    0  0.00000000000E+00  0.00000000000E+00  0.15321688899E+04  0.15321688899E+04  0.00000000000E+00 0. -1.
         -1   -1    0    0    0  501 -0.00000000000E+00 -0.00000000000E+00 -0.24425026986E+02  0.24425026986E+02  0.00000000000E+00 0.  1.
         23    2    1    2    0    0 -0.11921967082E+03  0.54850305372E+01  0.12336383946E+04  0.12427812544E+04  0.91641377934E+02 0.  0.
         23    2    1    2    0    0  0.11921967082E+03 -0.54850305372E+01  0.27410546828E+03  0.31381266247E+03  0.95400020509E+02 0.  0.
          5    1    4    4  502    0  0.65362564281E+02  0.32693146815E+02  0.20694856740E+03  0.21952427248E+03  0.47000000000E+01 0. -1.
         -5    1    4    4    0  502  0.53857106540E+02 -0.38178177352E+02  0.67156900875E+02  0.94288389984E+02  0.47000000000E+01 0.  1.
          5    1    3    3  503    0 -0.17859916676E+02  0.39376241202E+02  0.35728162680E+03  0.35991904068E+03  0.47000000000E+01 0. -1.
         -5    1    3    3    0  503 -0.10135975414E+03 -0.33891210664E+02  0.87635676783E+03  0.88286221374E+03  0.47000000000E+01 0.  1.
<mgrwt>
<rscale>  0 0.15220645E+03</rscale>
<asrwt>0</asrwt>
<pdfrwt beam="1">  1        1 0.23571822E+00 0.15278933E+03</pdfrwt>
<pdfrwt beam="2">  1       -1 0.37576977E-02 0.15278933E+03</pdfrwt>
<totfact> 0.18410194E+03</totfact>
</mgrwt>
</event>
<event>
 8    1  0.2954813E-003  0.9334571E+02  0.7546771E-02  0.1295394E+00
         -2   -1    0    0    0  501 -0.00000000000E+00  0.00000000000E+00  0.28958754904E+03  0.28958754904E+03  0.00000000000E+00 0.  1.
          2   -1    0    0  501    0  0.00000000000E+00 -0.00000000000E+00 -0.30175312387E+02  0.30175312387E+02  0.00000000000E+00 0. -1.
         23    2    1    2    0    0  0.89688043163E+01  0.12243488262E+02  0.11339159373E+03  0.14687094397E+03  0.92103627509E+02 0.  0.
         23    2    1    2    0    0 -0.89688043163E+01 -0.12243488262E+02  0.14602064293E+03  0.17289191745E+03  0.91319463993E+02 0.  0.
          5    1    3    3  502    0 -0.26338388767E+02 -0.28496545520E+02  0.43573886486E+02  0.58536633085E+02  0.47000000000E+01 0. -1.
         -5    1    3    3    0  502  0.35307193083E+02  0.40740033782E+02  0.69817707240E+02  0.88334310889E+02  0.47000000000E+01 0.  1.
          5    1    4    4  503    0 -0.43293288780E+02  0.16944728421E+02  0.83473312055E+02  0.95662513557E+02  0.47000000000E+01 0. -1.
         -5    1    4    4    0  503  0.34324484464E+02 -0.29188216683E+02  0.62547330871E+02  0.77229403895E+02  0.47000000000E+01 0.  1.
<mgrwt>
<rscale>  0 0.93151691E+02</rscale>
<asrwt>0</asrwt>
<pdfrwt beam="1">  1        2 0.46423560E-02 0.93345705E+02</pdfrwt>
<pdfrwt beam="2">  1       -2 0.44551929E-01 0.93345705E+02</pdfrwt>
<totfact> 0.76169680E+03</totfact>
</mgrwt>
</event>
<event>
 8    1  0.2954813E-003  0.9877229E+02  0.7546771E-02  0.1283279E+00
          2   -1    0    0  501    0  0.00000000000E+00  0.00000000000E+00  0.19661376783E+03  0.19661376783E+03  0.00000000000E+00 0. -1.
         -2   -1    0    0    0  501 -0.00000000000E+00 -0.00000000000E+00 -0.50543812212E+02  0.50543812212E+02  0.00000000000E+00 0.  1.
         23    2    1    2    0    0 -0.12317245079E+02 -0.27429700806E+02  0.53121959473E+02  0.11152832143E+03  0.93340885414E+02 0.  0.
         23    2    1    2    0    0  0.12317245079E+02  0.27429700806E+02  0.92947996139E+02  0.13562925861E+03  0.94084338716E+02 0.  0.
          5    1    3    3  502    0  0.40097540827E+02 -0.19499473914E+02  0.23471743515E+02  0.50606867191E+02  0.47000000000E+01 0. -1.
         -5    1    3    3    0  502 -0.52414785906E+02 -0.79302268924E+01  0.29650215958E+02  0.60921454238E+02  0.47000000000E+01 0.  1.
          5    1    4    4  503    0  0.92748884236E+01 -0.34264905488E+02  0.43658630857E+02  0.56464797455E+02  0.47000000000E+01 0. -1.
         -5    1    4    4    0  503  0.30423566556E+01  0.61694606294E+02  0.49289365282E+02  0.79164461153E+02  0.47000000000E+01 0.  1.
<mgrwt>
<rscale>  0 0.98594839E+02</rscale>
<asrwt>0</asrwt>
<pdfrwt beam="1">  1        2 0.30248272E-01 0.98772293E+02</pdfrwt>
<pdfrwt beam="2">  1       -2 0.77759712E-02 0.98772293E+02</pdfrwt>
<totfact> 0.15582086E+04</totfact>
</mgrwt>
</event>
