<event>
 7    1  0.3705118E-006  0.3554696E+03  0.7546771E-02  0.1060392E+00
          1   -1    0    0  501    0  0.00000000000E+00  0.00000000000E+00  0.72669139958E+02  0.72669139958E+02  0.00000000000E+00 0. -1.
         -1   -1    0    0    0  501 -0.00000000000E+00 -0.00000000000E+00 -0.43470519359E+03  0.43470519359E+03  0.00000000000E+00 0.  1.
         23    2    1    2    0    0 -0.10393910539E+03 -0.24723326016E+02 -0.10625309032E+03  0.18944935928E+03  0.11483361899E+03 0.  0.
          5    1    1    2  502    0 -0.40411717235E+02  0.15860922797E+02 -0.50353903754E+02  0.66650441748E+02  0.47000000000E+01 0. -1.
         -5    1    1    2    0  502  0.14435082262E+03  0.88624032196E+01 -0.20542905956E+03  0.25127453252E+03  0.47000000000E+01 0.  1.
          5    1    3    3  503    0 -0.11217921226E+03 -0.50765061535E+02 -0.10469089644E+03  0.16168964387E+03  0.47000000000E+01 0. -1.
         -5    1    3    3    0  503  0.82401068767E+01  0.26041735519E+02 -0.15621938858E+01  0.27759715414E+02  0.47000000000E+01 0.  1.
<mgrwt>
<rscale>  0 0.35546956E+03</rscale>
<asrwt>0</asrwt>
<pdfrwt beam="1">  1        1 0.11179867E-01 0.35546956E+03</pdfrwt>
<pdfrwt beam="2">  1       -1 0.66877724E-01 0.35546956E+03</pdfrwt>
<totfact> 0.13007299E+03</totfact>
</mgrwt>
</event>
<event>
 7    1  0.3705118E-006  0.4546364E+03  0.7546771E-02  0.1086325E+00
         -2   -1    0    0    0  501 -0.00000000000E+00  0.00000000000E+00  0.36083827586E+03  0.36083827586E+03  0.00000000000E+00 0.  1.
          2   -1    0    0  501    0  0.00000000000E+00 -0.00000000000E+00 -0.22139321398E+03  0.22139321398E+03  0.00000000000E+00 0. -1.
         23    2    1    2    0    0  0.32803724947E+02  0.41508161851E+00 -0.40821130096E+02  0.93160804034E+02  0.77047479406E+02 0.  0.
          5    1    1    2  502    0 -0.48819847584E+01  0.14210445337E+03 -0.99645266110E+02  0.17369161897E+03  0.47000000000E+01 0. -1.
         -5    1    3    3    0  503  0.71324021270E+01  0.22887244616E+02  0.14195122360E+02  0.28254001929E+02  0.47000000000E+01 0.  1.
          5    1    3    3  503    0  0.25671322820E+02 -0.22472162997E+02 -0.55016252456E+02  0.64906802104E+02  0.47000000000E+01 0. -1.
         -5    1    1    2    0  502 -0.27921740188E+02 -0.14251953499E+03  0.27991145808E+03  0.31537906683E+03  0.47000000000E+01 0.  1.
<mgrwt>
<rscale>  0 0.29783984E+03</rscale>
<asrwt>0</asrwt>
<pdfrwt beam="1">  1        2 0.34060494E-01 0.45463638E+03</pdfrwt>
<pdfrwt beam="2">  1       -2 0.55513581E-01 0.45463638E+03</pdfrwt>
<totfact> 0.47484956E+02</totfact>
</mgrwt>
</event>
<event>
 7    1  0.3705118E-006  0.1806341E+04  0.7546771E-02  0.9362864E-01
         -2   -1    0    0    0  501 -0.00000000000E+00  0.00000000000E+00  0.32159313525E+03  0.32159313525E+03  0.00000000000E+00 0.  1.
          2   -1    0    0  501    0  0.00000000000E+00 -0.00000000000E+00 -0.30016590692E+04  0.30016590692E+04  0.00000000000E+00 0. -1.
         23    2    1    2    0    0 -0.78727229208E+02 -0.36355648575E+02 -0.33748640305E+03  0.36511980179E+03  0.10906735357E+03 0.  0.
          5    1    3    3  502    0 -0.78930179576E+02  0.10119028712E+02 -0.13044008060E+03  0.15286946267E+03  0.47000000000E+01 0. -1.
         -5    1    3    3    0  502  0.20295036784E+00 -0.46474677287E+02 -0.20704632245E+03  0.21225033912E+03  0.47000000000E+01 0.  1.
          5    1    1    2  503    0  0.26320425605E+03  0.28937514378E+03 -0.25517327370E+04  0.25815453715E+04  0.47000000000E+01 0. -1.
         -5    1    1    2    0  503 -0.18447702684E+03 -0.25301949520E+03  0.20915320610E+03  0.37658703112E+03  0.47000000000E+01 0.  1.
<mgrwt>
<rscale>  0 0.95195873E+03</rscale>
<asrwt>0</asrwt>
<pdfrwt beam="1">  1        2 0.46179370E+00 0.18063412E+04</pdfrwt>
<pdfrwt beam="2">  1       -2 0.49475867E-01 0.18063412E+04</pdfrwt>
<totfact> 0.63438612E+00</totfact>
</mgrwt>
</event>
<event>
 7    1  0.3705118E-006  0.2278778E+03  0.7546771E-02  0.1161295E+00
          1   -1    0    0  501    0  0.00000000000E+00  0.00000000000E+00  0.74738941659E+03  0.74738941659E+03  0.00000000000E+00 0. -1.
         -1   -1    0    0    0  501 -0.00000000000E+00 -0.00000000000E+00 -0.60784639742E+02  0.60784639742E+02  0.00000000000E+00 0.  1.
         23    2    1    2    0    0 -0.18547018118E+02  0.64373069715E+02  0.21774878797E+02  0.10537460213E+03  0.78369493058E+02 0.  0.
          5    1    3    3  502    0 -0.30440817321E+02  0.13335448602E+02 -0.19216531018E+02  0.38676124586E+02  0.47000000000E+01 0. -1.
         -5    1    3    3    0  502  0.11893799203E+02  0.51037621113E+02  0.40991409815E+02  0.66698477546E+02  0.47000000000E+01 0.  1.
          5    1    1    2  503    0 -0.75410062164E+02 -0.42919652501E+02  0.52956131680E+03  0.53664331944E+03  0.47000000000E+01 0. -1.
         -5    1    1    2    0  503  0.93957080282E+02 -0.21453417214E+02  0.13526858125E+03  0.16615613476E+03  0.47000000000E+01 0.  1.
<mgrwt>
<rscale>  0 0.18689230E+03</rscale>
<asrwt>0</asrwt>
<pdfrwt beam="1">  1        1 0.11498298E+00 0.22787777E+03</pdfrwt>
<pdfrwt beam="2">  1       -1 0.93514836E-02 0.22787777E+03</pdfrwt>
<totfact> 0.17259146E+03</totfact>
</mgrwt>
</event>
<event>
 7    1  0.3705118E-006  0.1446007E+03  0.7546771E-02  0.1219225E+00
         -1   -1    0    0    0  501 -0.00000000000E+00  0.00000000000E+00  0.10102663250E+03  0.10102663250E+03  0.00000000000E+00 0.  1.
          1   -1    0    0  501    0  0.00000000000E+00 -0.00000000000E+00 -0.23115521398E+03  0.23115521398E+03  0.00000000000E+00 0. -1.
         23    2    1    2    0    0  0.16862600027E+02  0.17951381909E+02  0.30308319158E+02  0.11619721420E+03  0.10943764884E+03 0.  0.
          5    1    1    2  502    0 -0.51477860110E+02 -0.57322475640E+02 -0.13931755744E+03  0.15927117789E+03  0.47000000000E+01 0. -1.
         -5    1    1    2    0  502  0.34615260083E+02  0.39371093731E+02 -0.21119343199E+02  0.56713454394E+02  0.47000000000E+01 0.  1.
          5    1    3    3  503    0  0.87859416108E+01 -0.20352138689E+02 -0.33943850698E+02  0.40812710268E+02  0.47000000000E+01 0. -1.
         -5    1    3    3    0  503  0.80766584166E+01  0.38303520598E+02  0.64252169855E+02  0.75384503928E+02  0.47000000000E+01 0.  1.
<mgrwt>
<rscale>  0 0.13570682E+03</rscale>
<asrwt>0</asrwt>
<pdfrwt beam="1">  1        1 0.35562340E-01 0.14460070E+03</pdfrwt>
<pdfrwt beam="2">  1       -1 0.15542559E-01 0.14460070E+03</pdfrwt>
<totfact> 0.35823320E+03</totfact>
</mgrwt>
</event>
<event>
 7    1  0.3705118E-006  0.8184951E+02  0.7546771E-02  0.1331869E+00
          1   -1    0    0  501    0  0.00000000000E+00  0.00000000000E+00  0.10574469613E+02  0.10574469613E+02  0.00000000000E+00 0. -1.
         -1   -1    0    0    0  501 -0.00000000000E+00 -0.00000000000E+00 -0.55801597142E+03  0.55801597142E+03  0.00000000000E+00 0.  1.
         23    2    1    2    0    0  0.78196535076E+01 -0.29053934435E+02 -0.28157520325E+03  0.29041022851E+03  0.64406736076E+02 0.  0.
          5    1    3    3  502    0  0.22636973847E+02  0.88725419158E+01 -0.57330002490E+02  0.62449769980E+02  0.47000000000E+01 0. -1.
         -5    1    3    3    0  502 -0.14817320339E+02 -0.37926476351E+02 -0.22424520076E+03  0.22796045853E+03  0.47000000000E+01 0.  1.
          5    1    1    2  503    0 -0.27683311021E+02 -0.21964303463E+01 -0.38125074672E+02  0.47400436011E+02  0.47000000000E+01 0. -1.
         -5    1    1    2    0  503  0.19863657514E+02  0.31250364782E+02 -0.22774122389E+03  0.23077977651E+03  0.47000000000E+01 0.  1.
<mgrwt>
<rscale>  0 0.79015292E+02</rscale>
<asrwt>0</asrwt>
<pdfrwt beam="1">  1        1 0.16268413E-02 0.81849508E+02</pdfrwt>
<pdfrwt beam="2">  1       -1 0.85848621E-01 0.81849508E+02</pdfrwt>
<totfact> 0.10202374E+04</totfact>
</mgrwt>
</event>
<event>
 7    1  0.3705118E-006  0.1895132E+03  0.7546771E-02  0.1195029E+00
          2   -1    0    0  501    0  0.00000000000E+00  0.00000000000E+00  0.36481702179E+03  0.36481702179E+03  0.00000000000E+00 0. -1.
         -2   -1    0    0    0  501 -0.00000000000E+00 -0.00000000000E+00 -0.51567534880E+02  0.51567534880E+02  0.00000000000E+00 0.  1.
         23    2    1    2    0    0 -0.11142085541E+01 -0.36371517237E+02  0.11329692551E+03  0.14089174777E+03  0.75433165999E+02 0.  0.
          5    1    1    2  502    0 -0.79765218076E+02  0.52072784709E+02  0.15371457515E+03  0.18089866096E+03  0.47000000000E+01 0. -1.
         -5    1    1    2    0  502  0.80879426630E+02 -0.15701267472E+02  0.46237986241E+02  0.94594147937E+02  0.47000000000E+01 0.  1.
          5    1    3    3  503    0 -0.27504433970E+02 -0.15883952997E+02  0.99306090104E+02  0.10436753989E+03  0.47000000000E+01 0. -1.
         -5    1    3    3    0  503  0.26390225416E+02 -0.20487564241E+02  0.13990835410E+02  0.36524207883E+02  0.47000000000E+01 0.  1.
<mgrwt>
<rscale>  0 0.15451748E+03</rscale>
<asrwt>0</asrwt>
<pdfrwt beam="1">  1        2 0.56125694E-01 0.18951322E+03</pdfrwt>
<pdfrwt beam="2">  1       -2 0.79334671E-02 0.18951322E+03</pdfrwt>
<totfact> 0.82277330E+03</totfact>
</mgrwt>
</event>
<event>
 6    1  0.3705118E-006  0.2286623E+03  0.7546771E-02  0.1165970E+00
         -1   -1    0    0    0  501 -0.00000000000E+00  0.00000000000E+00  0.10837808000E+04  0.10837808000E+04  0.00000000000E+00 0.  1.
          1   -1    0    0  501    0  0.00000000000E+00 -0.00000000000E+00 -0.24260422261E+02  0.24260422261E+02  0.00000000000E+00 0. -1.
          5    1    1    2  502    0 -0.10086476546E+03  0.89586012164E+02  0.46010549395E+03  0.47949818565E+03  0.47000000000E+01 0. -1.
         -5    1    1    2    0  503  0.12056226096E+01 -0.33843084266E+02  0.17242392473E+03  0.17578085134E+03  0.47000000000E+01 0.  1.
          5    1    1    2  503    0  0.77637435735E+01 -0.41779629563E+02  0.57041813228E+02  0.71285844437E+02  0.47000000000E+01 0. -1.
         -5    1    1    2    0  502  0.91895399275E+02 -0.13963298335E+02  0.36994914584E+03  0.38147634083E+03  0.47000000000E+01 0.  1.
<mgrwt>
<rscale>  0 0.18190702E+03</rscale>
<asrwt>0</asrwt>
<pdfrwt beam="1">  1        1 0.37323735E-02 0.22866226E+03</pdfrwt>
<pdfrwt beam="2">  1       -1 0.16673547E+00 0.22866226E+03</pdfrwt>
<totfact> 0.71012806E+02</totfact>
</mgrwt>
</event>
<event>
 6    1  0.3705118E-006  0.6605934E+03  0.7546771E-02  0.9787102E-01
          2   -1    0    0  501    0  0.00000000000E+00  0.00000000000E+00  0.59802883458E+03  0.59802883458E+03  0.00000000000E+00 0. -1.
         -2   -1    0    0    0  501 -0.00000000000E+00 -0.00000000000E+00 -0.18242581207E+03  0.18242581207E+03  0.00000000000E+00 0.  1.
          5    1    1    2  502    0 -0.17026214598E+03 -0.69844965788E+02  0.31546948488E+03  0.36525416286E+03  0.47000000000E+01 0. -1.
         -5    1    1    2    0  503  0.94346554441E+02 -0.28002023762E+02  0.79709060938E+02  0.12673204040E+03  0.47000000000E+01 0.  1.
          5    1    1    2  503    0 -0.48497389373E+02 -0.44176189098E+02  0.67058494074E+02  0.93927972866E+02  0.47000000000E+01 0. -1.
         -5    1    1    2    0  502  0.12441298091E+03  0.14202317865E+03 -0.46634017382E+02  0.19454047052E+03  0.47000000000E+01 0.  1.
<mgrwt>
<rscale>  0 0.66059336E+03</rscale>
<asrwt>0</asrwt>
<pdfrwt beam="1">  1        2 0.92004435E-01 0.66059336E+03</pdfrwt>
<pdfrwt beam="2">  1       -2 0.28065510E-01 0.66059336E+03</pdfrwt>
<totfact> 0.58118216E+02</totfact>
</mgrwt>
</event>
<event>
 7    1  0.3705118E-006  0.2213364E+03  0.7546771E-02  0.1132891E+00
          2   -1    0    0  501    0  0.00000000000E+00  0.00000000000E+00  0.35570018990E+03  0.35570018990E+03  0.00000000000E+00 0. -1.
         -2   -1    0    0    0  501 -0.00000000000E+00 -0.00000000000E+00 -0.34431957047E+02  0.34431957047E+02  0.00000000000E+00 0.  1.
         23    2    1    2    0    0 -0.28142277223E+02  0.17599541799E+02  0.15572767667E+03  0.17089537496E+03  0.62067610426E+02 0.  0.
          5    1    1    2  502    0 -0.14368322087E+02  0.31990040938E+02  0.14696980224E+03  0.15116885978E+03  0.47000000000E+01 0. -1.
         -5    1    3    3    0  503  0.17208965817E+02  0.14342596453E+02  0.71349073983E+02  0.74930894401E+02  0.47000000000E+01 0.  1.
          5    1    3    3  503    0 -0.45351243039E+02  0.32569453464E+01  0.84378602688E+02  0.95964480563E+02  0.47000000000E+01 0. -1.
         -5    1    1    2    0  502  0.42510599310E+02 -0.49589582737E+02  0.18570753951E+02  0.68067912206E+02  0.47000000000E+01 0.  1.
<mgrwt>
<rscale>  0 0.22133643E+03</rscale>
<asrwt>0</asrwt>
<pdfrwt beam="1">  1        2 0.54723103E-01 0.22133643E+03</pdfrwt>
<pdfrwt beam="2">  1       -2 0.52972244E-02 0.22133643E+03</pdfrwt>
<totfact> 0.15903748E+04</totfact>
</mgrwt>
</event>
<event>
 7    1  0.3705118E-006  0.3390364E+03  0.7546771E-02  0.1119569E+00
         -2   -1    0    0    0  501 -0.00000000000E+00  0.00000000000E+00  0.31533995430E+03  0.31533995430E+03  0.00000000000E+00 0.  1.
          2   -1    0    0  501    0  0.00000000000E+00 -0.00000000000E+00 -0.18915903442E+03  0.18915903442E+03  0.00000000000E+00 0. -1.
         23    2    1    2    0    0 -0.34431329281E+02  0.15480649448E+02 -0.71934335305E+02  0.11182183512E+03  0.76840141017E+02 0.  0.
          5    1    3    3  502    0  0.19069438594E+02  0.16254428624E+02 -0.45034940216E+02  0.51750224912E+02  0.47000000000E+01 0. -1.
         -5    1    1    2    0  503 -0.36282888064E+02  0.57981506705E+02  0.26295759871E+03  0.27174821398E+03  0.47000000000E+01 0.  1.
          5    1    1    2  503    0  0.70714217345E+02 -0.73462156153E+02 -0.64842343528E+02  0.12092893961E+03  0.47000000000E+01 0. -1.
         -5    1    3    3    0  502 -0.53500767875E+02 -0.77377917685E+00 -0.26899395089E+02  0.60071610213E+02  0.47000000000E+01 0.  1.
<mgrwt>
<rscale>  0 0.24033643E+03</rscale>
<asrwt>0</asrwt>
<pdfrwt beam="1">  1        2 0.29101390E-01 0.33903642E+03</pdfrwt>
<pdfrwt beam="2">  1       -2 0.48513839E-01 0.33903642E+03</pdfrwt>
<totfact> 0.74318492E+02</totfact>
</mgrwt>
</event>
<event>
 6    1  0.3705118E-006  0.1110905E+04  0.7546771E-02  0.9194628E-01
         -2   -1    0    0    0  501 -0.00000000000E+00  0.00000000000E+00  0.23077340504E+03  0.23077340504E+03  0.00000000000E+00 0.  1.
          2   -1    0    0  501    0  0.00000000000E+00 -0.00000000000E+00 -0.13369289289E+04  0.13369289289E+04  0.00000000000E+00 0. -1.
          5    1    1    2  502    0 -0.46528142448E+02  0.28732320621E+02 -0.20738021234E+03  0.21452052759E+03  0.47000000000E+01 0.  1.
         -5    1    1    2    0  502 -0.90501833418E+02  0.30858810010E+02 -0.56578837134E+03  0.57383047946E+03  0.47000000000E+01 0. -1.
          5    1    1    2  503    0  0.46923699957E+02 -0.38898423862E+02 -0.54478637613E+03  0.54820544198E+03  0.47000000000E+01 0. -1.
         -5    1    1    2    0  503  0.90106275909E+02 -0.20692706769E+02  0.21179943592E+03  0.23114588494E+03  0.47000000000E+01 0.  1.
<mgrwt>
<rscale>  0 0.11109053E+04</rscale>
<asrwt>0</asrwt>
<pdfrwt beam="1">  1        2 0.20568137E+00 0.11109053E+04</pdfrwt>
<pdfrwt beam="2">  1       -2 0.35503601E-01 0.11109053E+04</pdfrwt>
<totfact> 0.11625671E+02</totfact>
</mgrwt>
</event>
<event>
 7    1  0.3705118E-006  0.2900791E+03  0.7546771E-02  0.1116218E+00
          1   -1    0    0  501    0  0.00000000000E+00  0.00000000000E+00  0.17565991182E+03  0.17565991182E+03  0.00000000000E+00 0. -1.
         -1   -1    0    0    0  501 -0.00000000000E+00 -0.00000000000E+00 -0.27627401149E+03  0.27627401149E+03  0.00000000000E+00 0.  1.
         23    2    1    2    0    0  0.45918253790E+02  0.69896059883E+02 -0.53700980394E+02  0.15808577377E+03  0.12293645251E+03 0.  0.
          5    1    1    2  502    0 -0.16928417665E+02  0.77980478092E+02  0.67470431493E+02  0.10460341970E+03  0.47000000000E+01 0. -1.
         -5    1    1    2    0  502 -0.28989836125E+02 -0.14787653797E+03 -0.11438355077E+03  0.18924472983E+03  0.47000000000E+01 0.  1.
          5    1    3    3  503    0 -0.31529469516E+01  0.54876913719E+02 -0.82352557159E+02  0.99123409972E+02  0.47000000000E+01 0. -1.
         -5    1    3    3    0  503  0.49071200742E+02  0.15019146163E+02  0.28651576765E+02  0.58962363800E+02  0.47000000000E+01 0.  1.
<mgrwt>
<rscale>  0 0.24544509E+03</rscale>
<asrwt>0</asrwt>
<pdfrwt beam="1">  1        1 0.27024602E-01 0.29007912E+03</pdfrwt>
<pdfrwt beam="2">  1       -1 0.42503694E-01 0.29007912E+03</pdfrwt>
<totfact> 0.95957910E+02</totfact>
</mgrwt>
</event>
<event>
 6    1  0.3705118E-006  0.6457092E+03  0.7546771E-02  0.9814864E-01
          1   -1    0    0  501    0  0.00000000000E+00  0.00000000000E+00  0.15126619304E+04  0.15126619304E+04  0.00000000000E+00 0. -1.
         -1   -1    0    0    0  501 -0.00000000000E+00 -0.00000000000E+00 -0.68908385967E+02  0.68908385967E+02  0.00000000000E+00 0.  1.
          5    1    1    2  502    0  0.51668385595E+02  0.28080597546E+03  0.86002218809E+03  0.90619085845E+03  0.47000000000E+01 0. -1.
         -5    1    1    2    0  502 -0.29909516625E+02 -0.69878709840E+02  0.93429186953E+02  0.12053512454E+03  0.47000000000E+01 0.  1.
          5    1    1    2  503    0  0.56477651057E+02 -0.11895567403E+03  0.19073216891E+03  0.23182111144E+03  0.47000000000E+01 0. -1.
         -5    1    1    2    0  503 -0.78236520027E+02 -0.91971591591E+02  0.29957000048E+03  0.32302322194E+03  0.47000000000E+01 0.  1.
<mgrwt>
<rscale>  0 0.64570920E+03</rscale>
<asrwt>0</asrwt>
<pdfrwt beam="1">  1        1 0.23271720E+00 0.64570920E+03</pdfrwt>
<pdfrwt beam="2">  1       -1 0.10601291E-01 0.64570920E+03</pdfrwt>
<totfact> 0.37780889E+02</totfact>
</mgrwt>
</event>
<event>
 6    1  0.3705118E-006  0.9555195E+02  0.7546771E-02  0.1292220E+00
         -2   -1    0    0    0  501 -0.00000000000E+00  0.00000000000E+00  0.16123703980E+03  0.16123703980E+03  0.00000000000E+00 0.  1.
          2   -1    0    0  501    0  0.00000000000E+00 -0.00000000000E+00 -0.69116304611E+02  0.69116304611E+02  0.00000000000E+00 0. -1.
          5    1    1    2  502    0 -0.17826679915E+02 -0.24772112143E+02  0.26477937132E+02  0.40677010849E+02  0.47000000000E+01 0.  1.
         -5    1    1    2    0  503 -0.59860211104E+02  0.24583242734E+01  0.72154998530E+02  0.93902726502E+02  0.47000000000E+01 0.  1.
          5    1    1    2  503    0  0.54276661282E+02  0.23146142675E+02 -0.26279736994E+02  0.64764299249E+02  0.47000000000E+01 0. -1.
         -5    1    1    2    0  502  0.23410229737E+02 -0.83235480562E+00  0.19767536521E+02  0.31009307812E+02  0.47000000000E+01 0. -1.
<mgrwt>
<rscale>  0 0.94537957E+02</rscale>
<asrwt>0</asrwt>
<pdfrwt beam="1">  1        2 0.10633278E-01 0.95551950E+02</pdfrwt>
<pdfrwt beam="2">  1       -2 0.24805698E-01 0.95551950E+02</pdfrwt>
<totfact> 0.78248192E+03</totfact>
</mgrwt>
</event>
<event>
 7    1  0.3705118E-006  0.5939068E+03  0.7546771E-02  0.1037161E+00
         -2   -1    0    0    0  501 -0.00000000000E+00  0.00000000000E+00  0.96161083430E+03  0.96161083430E+03  0.00000000000E+00 0.  1.
          2   -1    0    0  501    0  0.00000000000E+00 -0.00000000000E+00 -0.15788222342E+03  0.15788222342E+03  0.00000000000E+00 0. -1.
         23    2    1    2    0    0 -0.80021881280E+02  0.79737015082E+01  0.42724719202E+02  0.15416813018E+03  0.12439987674E+03 0.  0.
          5    1    3    3  502    0 -0.13143601596E+02 -0.47991414484E+02  0.44351059504E+02  0.66820929402E+02  0.47000000000E+01 0. -1.
         -5    1    3    3    0  502 -0.66878279684E+02  0.55965115992E+02 -0.16263403025E+01  0.87347200781E+02  0.47000000000E+01 0.  1.
          5    1    1    2  503    0  0.11241479537E+03 -0.23190976714E+03  0.11768141809E+03  0.28335531136E+03  0.47000000000E+01 0. -1.
         -5    1    1    2    0  503 -0.32392914093E+02  0.22393606563E+03  0.64332247359E+03  0.68196961618E+03  0.47000000000E+01 0.  1.
<mgrwt>
<rscale>  0 0.41970995E+03</rscale>
<asrwt>0</asrwt>
<pdfrwt beam="1">  1        2 0.24289573E-01 0.59390680E+03</pdfrwt>
<pdfrwt beam="2">  1       -2 0.14794013E+00 0.59390680E+03</pdfrwt>
<totfact> 0.71720046E+01</totfact>
</mgrwt>
</event>
<event>
 7    1  0.3705118E-006  0.2571500E+03  0.7546771E-02  0.1159839E+00
          1   -1    0    0  501    0  0.00000000000E+00  0.00000000000E+00  0.58302554402E+02  0.58302554402E+02  0.00000000000E+00 0. -1.
         -1   -1    0    0    0  501 -0.00000000000E+00 -0.00000000000E+00 -0.47314401833E+03  0.47314401833E+03  0.00000000000E+00 0.  1.
         23    2    1    2    0    0 -0.32051420677E+02  0.31476567457E+02 -0.77997443573E+02  0.10766593499E+03  0.59078629703E+02 0.  0.
          5    1    1    2  502    0  0.12674389057E+03  0.17317748242E+02 -0.94795418895E+02  0.15928647038E+03  0.47000000000E+01 0. -1.
         -5    1    1    2    0  502 -0.94692469896E+02 -0.48794315699E+02 -0.24204860146E+03  0.26449416736E+03  0.47000000000E+01 0.  1.
          5    1    3    3  503    0  0.90123834064E+01  0.19673496247E+02 -0.46130851375E+01  0.22619462057E+02  0.47000000000E+01 0. -1.
         -5    1    3    3    0  503 -0.41063804084E+02  0.11803071210E+02 -0.73384358435E+02  0.85046472936E+02  0.47000000000E+01 0.  1.
<mgrwt>
<rscale>  0 0.18848103E+03</rscale>
<asrwt>0</asrwt>
<pdfrwt beam="1">  1        1 0.89696239E-02 0.25715002E+03</pdfrwt>
<pdfrwt beam="2">  1       -1 0.72791386E-01 0.25715002E+03</pdfrwt>
<totfact> 0.14689036E+03</totfact>
</mgrwt>
</event>
<event>
 7    1  0.3705118E-006  0.1219870E+04  0.7546771E-02  0.9724550E-01
          2   -1    0    0  501    0  0.00000000000E+00  0.00000000000E+00  0.20451851836E+04  0.20451851836E+04  0.00000000000E+00 0. -1.
         -2   -1    0    0    0  501 -0.00000000000E+00 -0.00000000000E+00 -0.22929494574E+03  0.22929494574E+03  0.00000000000E+00 0.  1.
         23    2    1    2    0    0 -0.64421122455E+02 -0.20338582738E+02  0.76746035025E+02  0.15016703622E+03  0.10998384385E+03 0.  0.
          5    1    1    2  502    0  0.18155417184E+03  0.17398571519E+03  0.18726237333E+04  0.18894376631E+04  0.47000000000E+01 0. -1.
         -5    1    1    2    0  502 -0.11713304939E+03 -0.15364713245E+03 -0.13347953045E+03  0.23487543000E+03  0.47000000000E+01 0.  1.
          5    1    3    3  503    0 -0.49598398035E+01 -0.57958665879E+02  0.30658957258E+02  0.65923202452E+02  0.47000000000E+01 0. -1.
         -5    1    3    3    0  503 -0.59461282651E+02  0.37620083141E+02  0.46087077767E+02  0.84243833764E+02  0.47000000000E+01 0.  1.
<mgrwt>
<rscale>  0 0.69573719E+03</rscale>
<asrwt>0</asrwt>
<pdfrwt beam="1">  1        2 0.31464386E+00 0.12198703E+04</pdfrwt>
<pdfrwt beam="2">  1       -2 0.35276147E-01 0.12198703E+04</pdfrwt>
<totfact> 0.46933895E+01</totfact>
</mgrwt>
</event>
<event>
 7    1  0.3705118E-006  0.4184165E+03  0.7546771E-02  0.1037583E+00
         -1   -1    0    0    0  501 -0.00000000000E+00  0.00000000000E+00  0.32543825555E+02  0.32543825555E+02  0.00000000000E+00 0.  1.
          1   -1    0    0  501    0  0.00000000000E+00 -0.00000000000E+00 -0.13448967953E+04  0.13448967953E+04  0.00000000000E+00 0. -1.
         23    2    1    2    0    0  0.49940747136E+02 -0.14247746288E+03 -0.51858297940E+03  0.54470397693E+03  0.70570605103E+02 0.  0.
          5    1    1    2  502    0 -0.91926692210E+02  0.13004196545E+03 -0.76188635781E+03  0.77836645722E+03  0.47000000000E+01 0. -1.
         -5    1    1    2    0  502  0.41985945074E+02  0.12435497431E+02 -0.31883632577E+02  0.54370186742E+02  0.47000000000E+01 0.  1.
          5    1    3    3  503    0  0.62406448896E+02 -0.82113357849E+02 -0.35954193197E+03  0.37407173008E+03  0.47000000000E+01 0. -1.
         -5    1    3    3    0  503 -0.12465701760E+02 -0.60364105029E+02 -0.15904104743E+03  0.17063224685E+03  0.47000000000E+01 0.  1.
<mgrwt>
<rscale>  0 0.41841648E+03</rscale>
<asrwt>0</asrwt>
<pdfrwt beam="1">  1        1 0.20690719E+00 0.41841648E+03</pdfrwt>
<pdfrwt beam="2">  1       -1 0.50067425E-02 0.41841648E+03</pdfrwt>
<totfact> 0.15922178E+03</totfact>
</mgrwt>
</event>
<event>
 7    1  0.3705118E-006  0.2902470E+03  0.7546771E-02  0.1111078E+00
         -2   -1    0    0    0  501 -0.00000000000E+00  0.00000000000E+00  0.14239625270E+03  0.14239625270E+03  0.00000000000E+00 0.  1.
          2   -1    0    0  501    0  0.00000000000E+00 -0.00000000000E+00 -0.51530073492E+03  0.51530073492E+03  0.00000000000E+00 0. -1.
         23    2    1    2    0    0 -0.12180641503E+03  0.19120706852E+02  0.18900958243E+02  0.17009589453E+03  0.11564152774E+03 0.  0.
          5    1    1    2  502    0  0.57658414415E+02 -0.37938282458E+02 -0.41187490660E+03  0.41764438787E+03  0.47000000000E+01 0. -1.
         -5    1    1    2    0  502  0.64148000620E+02  0.18817575607E+02  0.20069466140E+02  0.69956705229E+02  0.47000000000E+01 0.  1.
          5    1    3    3  503    0 -0.26637537004E+02 -0.25443609987E+02  0.48251213667E+02  0.60886823592E+02  0.47000000000E+01 0. -1.
         -5    1    3    3    0  503 -0.95168878031E+02  0.44564316839E+02 -0.29350255424E+02  0.10920907093E+03  0.47000000000E+01 0.  1.
<mgrwt>
<rscale>  0 0.25355652E+03</rscale>
<asrwt>0</asrwt>
<pdfrwt beam="1">  1        2 0.79277038E-01 0.29024700E+03</pdfrwt>
<pdfrwt beam="2">  1       -2 0.21907115E-01 0.29024700E+03</pdfrwt>
<totfact> 0.10813091E+03</totfact>
</mgrwt>
</event>
<event>
 7    1  0.3705118E-006  0.1887843E+03  0.7546771E-02  0.1168253E+00
          1   -1    0    0  501    0  0.00000000000E+00  0.00000000000E+00  0.89683792872E+02  0.89683792872E+02  0.00000000000E+00 0. -1.
         -1   -1    0    0    0  501 -0.00000000000E+00 -0.00000000000E+00 -0.36042434172E+03  0.36042434172E+03  0.00000000000E+00 0.  1.
         23    2    1    2    0    0 -0.98397250707E+02  0.14880100176E+02 -0.56189392209E+02  0.16432549860E+03  0.11807703148E+03 0.  0.
          5    1    3    3  502    0 -0.87685169474E+02 -0.36915150630E+02 -0.13527487771E+02  0.96210707393E+02  0.47000000000E+01 0. -1.
         -5    1    3    3    0  502 -0.10712081233E+02  0.51795250806E+02 -0.42661904438E+02  0.68114791204E+02  0.47000000000E+01 0.  1.
          5    1    1    2  503    0  0.92966939689E+01 -0.78309933129E+02 -0.98085665541E+02  0.12594348705E+03  0.47000000000E+01 0. -1.
         -5    1    1    2    0  503  0.89100556738E+02  0.63429832953E+02 -0.11646549110E+03  0.15983914895E+03  0.47000000000E+01 0.  1.
<mgrwt>
<rscale>  0 0.17953557E+03</rscale>
<asrwt>0</asrwt>
<pdfrwt beam="1">  1        1 0.13797506E-01 0.18878431E+03</pdfrwt>
<pdfrwt beam="2">  1       -1 0.55449900E-01 0.18878431E+03</pdfrwt>
<totfact> 0.13938252E+03</totfact>
</mgrwt>
</event>
<event>
 6    1  0.3705118E-006  0.2780957E+03  0.7546771E-02  0.1138116E+00
         -2   -1    0    0    0  501 -0.00000000000E+00  0.00000000000E+00  0.71188969703E+02  0.71188969703E+02  0.00000000000E+00 0.  1.
          2   -1    0    0  501    0  0.00000000000E+00 -0.00000000000E+00 -0.54140337796E+03  0.54140337796E+03  0.00000000000E+00 0. -1.
          5    1    1    2  502    0 -0.46834980977E+02 -0.44761120354E+02 -0.13573906201E+03  0.15048008604E+03  0.47000000000E+01 0. -1.
         -5    1    1    2    0  502 -0.32811099238E+02 -0.30813596565E+01 -0.73730064088E+02  0.80896695612E+02  0.47000000000E+01 0.  1.
          5    1    1    2  503    0  0.77895390879E+02 -0.26661899472E+02 -0.28963698270E+03  0.30114817043E+03  0.47000000000E+01 0. -1.
         -5    1    1    2    0  503  0.17506893350E+01  0.74504379483E+02  0.28891700544E+02  0.80067395584E+02  0.47000000000E+01 0.  1.
<mgrwt>
<rscale>  0 0.21441542E+03</rscale>
<asrwt>0</asrwt>
<pdfrwt beam="1">  1        2 0.83292826E-01 0.27809568E+03</pdfrwt>
<pdfrwt beam="2">  1       -2 0.10952149E-01 0.27809568E+03</pdfrwt>
<totfact> 0.32499393E+03</totfact>
</mgrwt>
</event>
<event>
 7    1  0.3705118E-006  0.8116275E+02  0.7546771E-02  0.1326539E+00
         -1   -1    0    0    0  501 -0.00000000000E+00  0.00000000000E+00  0.15289854192E+03  0.15289854192E+03  0.00000000000E+00 0.  1.
          1   -1    0    0  501    0  0.00000000000E+00 -0.00000000000E+00 -0.43392059218E+02  0.43392059218E+02  0.00000000000E+00 0. -1.
         23    2    1    2    0    0 -0.27199840846E+02  0.14827097912E+01  0.69079891310E+02  0.10658059432E+03  0.76454966698E+02 0.  0.
          5    1    1    2  502    0  0.26236679971E+02  0.25766491528E+02  0.48352434469E+02  0.60928838661E+02  0.47000000000E+01 0. -1.
         -5    1    3    3    0  503 -0.16030477857E+02 -0.29047918583E+02  0.65454874884E+02  0.73533587159E+02  0.47000000000E+01 0.  1.
          5    1    3    3  503    0 -0.11169362988E+02  0.30530628375E+02  0.36250164262E+01  0.33047007166E+02  0.47000000000E+01 0. -1.
         -5    1    1    2    0  502  0.96316087511E+00 -0.27249201319E+02 -0.79258430820E+01  0.28781168148E+02  0.47000000000E+01 0.  1.
<mgrwt>
<rscale>  0 0.80891910E+02</rscale>
<asrwt>0</asrwt>
<pdfrwt beam="1">  1        1 0.66757015E-02 0.81162748E+02</pdfrwt>
<pdfrwt beam="2">  1       -1 0.23522852E-01 0.81162748E+02</pdfrwt>
<totfact> 0.15148101E+04</totfact>
</mgrwt>
</event>
<event>
 7    1  0.3705118E-006  0.3526759E+03  0.7546771E-02  0.1061522E+00
         -1   -1    0    0    0  501 -0.00000000000E+00  0.00000000000E+00  0.66946810959E+02  0.66946810959E+02  0.00000000000E+00 0.  1.
          1   -1    0    0  501    0  0.00000000000E+00 -0.00000000000E+00 -0.46447435496E+03  0.46447435496E+03  0.00000000000E+00 0. -1.
         23    2    1    2    0    0 -0.22452032063E+02  0.62454329286E+02 -0.20953854027E+03  0.23204782809E+03  0.74398640260E+02 0.  0.
          5    1    1    2  502    0  0.45364964098E+02 -0.13162697209E+03 -0.59278457960E+02  0.15139242163E+03  0.47000000000E+01 0. -1.
         -5    1    3    3    0  503 -0.28420088415E+02  0.32116922687E+02 -0.19074110245E+03  0.19555934218E+03  0.47000000000E+01 0.  1.
          5    1    3    3  503    0  0.59680563515E+01  0.30337406600E+02 -0.18797437823E+02  0.36488485917E+02  0.47000000000E+01 0. -1.
         -5    1    1    2    0  502 -0.22912932034E+02  0.69172642802E+02 -0.12871054577E+03  0.14798091620E+03  0.47000000000E+01 0.  1.
<mgrwt>
<rscale>  0 0.35267592E+03</rscale>
<asrwt>0</asrwt>
<pdfrwt beam="1">  1        1 0.71457593E-01 0.35267592E+03</pdfrwt>
<pdfrwt beam="2">  1       -1 0.10299509E-01 0.35267592E+03</pdfrwt>
<totfact> 0.29089161E+03</totfact>
</mgrwt>
</event>
<event>
 7    1  0.3705118E-006  0.3806403E+03  0.7546771E-02  0.1050697E+00
          2   -1    0    0  501    0  0.00000000000E+00  0.00000000000E+00  0.14183797886E+03  0.14183797886E+03  0.00000000000E+00 0. -1.
         -2   -1    0    0    0  501 -0.00000000000E+00 -0.00000000000E+00 -0.25537420729E+03  0.25537420729E+03  0.00000000000E+00 0.  1.
         23    2    1    2    0    0  0.24950386806E+02 -0.98549507017E+02  0.31013338025E+02  0.13059746633E+03  0.75890341550E+02 0.  0.
          5    1    3    3  502    0  0.45430281496E+02 -0.75456102160E+02  0.41745473252E+02  0.97582315852E+02  0.47000000000E+01 0. -1.
         -5    1    1    2    0  503 -0.29507920301E+02  0.15656498000E+03 -0.13187064381E+03  0.20687016948E+03  0.47000000000E+01 0.  1.
          5    1    1    2  503    0  0.45575334943E+01 -0.58015472981E+02 -0.12678922648E+02  0.59744550348E+02  0.47000000000E+01 0. -1.
         -5    1    3    3    0  502 -0.20479894690E+02 -0.23093404857E+02 -0.10732135227E+02  0.33015150476E+02  0.47000000000E+01 0.  1.
<mgrwt>
<rscale>  0 0.38064031E+03</rscale>
<asrwt>0</asrwt>
<pdfrwt beam="1">  1        2 0.21821228E-01 0.38064031E+03</pdfrwt>
<pdfrwt beam="2">  1       -2 0.39288339E-01 0.38064031E+03</pdfrwt>
<totfact> 0.15589655E+03</totfact>
</mgrwt>
</event>
<event>
 7    1  0.3705118E-006  0.4976152E+03  0.7546771E-02  0.1014403E+00
         -1   -1    0    0    0  501 -0.00000000000E+00  0.00000000000E+00  0.10465011380E+03  0.10465011380E+03  0.00000000000E+00 0.  1.
          1   -1    0    0  501    0  0.00000000000E+00 -0.00000000000E+00 -0.59154463902E+03  0.59154463902E+03  0.00000000000E+00 0. -1.
         23    2    1    2    0    0 -0.14322317037E+03  0.19001694666E+02 -0.30771953754E+03  0.34629740265E+03  0.66004820794E+02 0.  0.
          5    1    3    3  502    0 -0.82246961407E+02  0.27586710905E+02 -0.11632920682E+03  0.14519009484E+03  0.47000000000E+01 0. -1.
         -5    1    3    3    0  502 -0.60976208963E+02 -0.85850162394E+01 -0.19139033072E+03  0.20110730781E+03  0.47000000000E+01 0.  1.
          5    1    1    2  503    0  0.21487810978E+03  0.13088183383E+02 -0.16181543781E+03  0.26935149623E+03  0.47000000000E+01 0. -1.
         -5    1    1    2    0  503 -0.71654939415E+02 -0.32089878049E+02 -0.17359549871E+02  0.80545853943E+02  0.47000000000E+01 0.  1.
<mgrwt>
<rscale>  0 0.49761517E+03</rscale>
<asrwt>0</asrwt>
<pdfrwt beam="1">  1        1 0.91006865E-01 0.49761517E+03</pdfrwt>
<pdfrwt beam="2">  1       -1 0.16100018E-01 0.49761517E+03</pdfrwt>
<totfact> 0.10294260E+03</totfact>
</mgrwt>
</event>
<event>
 7    1  0.3705118E-006  0.1109332E+03  0.7546771E-02  0.1276256E+00
         -1   -1    0    0    0  501 -0.00000000000E+00  0.00000000000E+00  0.12567291535E+04  0.12567291535E+04  0.00000000000E+00 0.  1.
          1   -1    0    0  501    0  0.00000000000E+00 -0.00000000000E+00 -0.74175678961E+01  0.74175678961E+01  0.00000000000E+00 0. -1.
         23    2    1    2    0    0  0.27158884890E+02 -0.28663937568E+02  0.41310586447E+03  0.42061475564E+03  0.68564502874E+02 0.  0.
          5    1    3    3  502    0 -0.93061658602E+01 -0.36231855011E+02  0.27203269992E+03  0.27463290383E+03  0.47000000000E+01 0. -1.
         -5    1    1    2    0  503  0.32100634054E+02  0.35077601144E+02  0.27176632869E+03  0.27593462309E+03  0.47000000000E+01 0.  1.
          5    1    1    2  503    0 -0.59259518944E+02 -0.64136635753E+01  0.56443939239E+03  0.56759734262E+03  0.47000000000E+01 0. -1.
         -5    1    3    3    0  502  0.36465050750E+02  0.75679174426E+01  0.14107316456E+03  0.14598185181E+03  0.47000000000E+01 0.  1.
<mgrwt>
<rscale>  0 0.10194610E+03</rscale>
<asrwt>0</asrwt>
<pdfrwt beam="1">  1        1 0.11411653E-02 0.11093317E+03</pdfrwt>
<pdfrwt beam="2">  1       -1 0.19334278E+00 0.11093317E+03</pdfrwt>
<totfact> 0.23739705E+03</totfact>
</mgrwt>
</event>
