<event>
 7    1  0.4203474E-005  0.1591071E+03  0.7546771E-02  0.1196345E+00
         -2   -1    0    0    0  501 -0.00000000000E+00  0.00000000000E+00  0.91613014251E+03  0.91613014251E+03  0.00000000000E+00 0.  1.
          2   -1    0    0  501    0  0.00000000000E+00 -0.00000000000E+00 -0.96327903938E+02  0.96327903938E+02  0.00000000000E+00 0. -1.
         23    2    1    2    0    0  0.36032782193E+02 -0.96949591655E+02 -0.35873935179E+02  0.14211514105E+03  0.90621130957E+02 0.  0.
          5    1    3    3  502    0  0.61524284482E+02 -0.57032403224E+02 -0.42329899235E+02  0.94084233365E+02  0.47000000000E+01 0. -1.
         -5    1    1    2    0  503 -0.53910386910E+02  0.54435592869E+02  0.76166526673E+03  0.76552311012E+03  0.47000000000E+01 0.  1.
          5    1    1    2  503    0  0.17877604718E+02  0.42513998786E+02  0.94010907026E+02  0.10481979528E+03  0.47000000000E+01 0. -1.
         -5    1    3    3    0  502 -0.25491502290E+02 -0.39917188430E+02  0.64559640564E+01  0.48030907685E+02  0.47000000000E+01 0.  1.
<mgrwt>
<rscale>  0 0.15340973E+03</rscale>
<asrwt>0</asrwt>
<pdfrwt beam="1">  1        2 0.14819678E-01 0.15910707E+03</pdfrwt>
<pdfrwt beam="2">  1       -2 0.14094309E+00 0.15910707E+03</pdfrwt>
<totfact> 0.14809039E+02</totfact>
</mgrwt>
</event>
<event>
 7    1  0.4203474E-005  0.1868517E+03  0.7546771E-02  0.1186531E+00
         -1   -1    0    0    0  501 -0.00000000000E+00  0.00000000000E+00  0.28502241567E+03  0.28502241567E+03  0.00000000000E+00 0.  1.
          1   -1    0    0  501    0  0.00000000000E+00 -0.00000000000E+00 -0.83954749643E+02  0.83954749643E+02  0.00000000000E+00 0. -1.
         23    2    1    2    0    0  0.26445927403E+02 -0.42815988280E+02  0.17139532770E+02  0.10678811376E+03  0.92613939166E+02 0.  0.
          5    1    3    3  502    0  0.32655754480E+02  0.16368267082E+02  0.27807007946E+02  0.46148002761E+02  0.47000000000E+01 0.  1.
         -5    1    3    3    0  502 -0.62098270771E+01 -0.59184255362E+02 -0.10667475176E+02  0.60640110997E+02  0.47000000000E+01 0. -1.
          5    1    1    2  503    0 -0.20740729125E+02 -0.43606002256E+02  0.16688365104E+03  0.17379270485E+03  0.47000000000E+01 0. -1.
         -5    1    1    2    0  503 -0.57051982778E+01  0.86421990536E+02  0.17044482220E+02  0.88396346699E+02  0.47000000000E+01 0.  1.
<mgrwt>
<rscale>  0 0.16193348E+03</rscale>
<asrwt>0</asrwt>
<pdfrwt beam="1">  1        1 0.12916116E-01 0.18685165E+03</pdfrwt>
<pdfrwt beam="2">  1       -1 0.43849602E-01 0.18685165E+03</pdfrwt>
<totfact> 0.23382595E+03</totfact>
</mgrwt>
</event>
<event>
 7    1  0.4203474E-005  0.1131716E+03  0.7546771E-02  0.1280750E+00
          1   -1    0    0  501    0  0.00000000000E+00  0.00000000000E+00  0.86137827219E+03  0.86137827219E+03  0.00000000000E+00 0. -1.
         -1   -1    0    0    0  501 -0.00000000000E+00 -0.00000000000E+00 -0.13172342069E+02  0.13172342069E+02  0.00000000000E+00 0.  1.
         23    2    1    2    0    0  0.27487036410E+02  0.59463760698E+02  0.27644783925E+03  0.29871593944E+03  0.92283956596E+02 0.  0.
          5    1    3    3  502    0 -0.29611110822E+02  0.36752182904E+02  0.81930080838E+02  0.94668732845E+02  0.47000000000E+01 0. -1.
         -5    1    1    2    0  503 -0.60484090523E+01 -0.29990742192E+02  0.22105782327E+03  0.22321442404E+03  0.47000000000E+01 0.  1.
          5    1    1    2  503    0 -0.21438627358E+02 -0.29473018506E+02  0.35070026760E+03  0.35262025078E+03  0.47000000000E+01 0. -1.
         -5    1    3    3    0  502  0.57098147233E+02  0.22711577794E+02  0.19451775841E+03  0.20404720660E+03  0.47000000000E+01 0.  1.
<mgrwt>
<rscale>  0 0.99784603E+02</rscale>
<asrwt>0</asrwt>
<pdfrwt beam="1">  1        1 0.13251969E+00 0.11317157E+03</pdfrwt>
<pdfrwt beam="2">  1       -1 0.20265148E-02 0.11317157E+03</pdfrwt>
<totfact> 0.13032537E+04</totfact>
</mgrwt>
</event>
<event>
 7    1  0.4203474E-005  0.1111225E+03  0.7546771E-02  0.1258992E+00
         -1   -1    0    0    0  501 -0.00000000000E+00  0.00000000000E+00  0.38819228241E+02  0.38819228241E+02  0.00000000000E+00 0.  1.
          1   -1    0    0  501    0  0.00000000000E+00 -0.00000000000E+00 -0.52727149068E+03  0.52727149068E+03  0.00000000000E+00 0. -1.
         23    2    1    2    0    0  0.39560470666E+02 -0.76204989702E+02 -0.42448732714E+03  0.43879118405E+03  0.70540633705E+02 0.  0.
          5    1    3    3  502    0  0.30314037351E+02 -0.54734860035E+02 -0.39894443250E+03  0.40384848147E+03  0.47000000000E+01 0. -1.
         -5    1    1    2    0  503 -0.13935695188E+02  0.18043221701E+02 -0.58941899206E+02  0.63371909642E+02  0.47000000000E+01 0.  1.
          5    1    1    2  503    0 -0.25624775478E+02  0.58161768001E+02 -0.50230360904E+01  0.63927625224E+02  0.47000000000E+01 0.  1.
         -5    1    3    3    0  502  0.92464333156E+01 -0.21470129667E+02 -0.25542894639E+02  0.34942702579E+02  0.47000000000E+01 0. -1.
<mgrwt>
<rscale>  0 0.11085645E+03</rscale>
<asrwt>0</asrwt>
<pdfrwt beam="1">  1        1 0.81118686E-01 0.11112251E+03</pdfrwt>
<pdfrwt beam="2">  1       -1 0.59721894E-02 0.11112251E+03</pdfrwt>
<totfact> 0.53887665E+03</totfact>
</mgrwt>
</event>
<event>
 7    1  0.4203474E-005  0.1486683E+03  0.7546771E-02  0.1210625E+00
          4   -1    0    0  501    0  0.00000000000E+00  0.00000000000E+00  0.42938393181E+03  0.42938393181E+03  0.00000000000E+00 0. -1.
         -4   -1    0    0    0  501 -0.00000000000E+00 -0.00000000000E+00 -0.72728300077E+02  0.72728300077E+02  0.00000000000E+00 0.  1.
         23    2    1    2    0    0  0.34393474860E+02 -0.11356530776E+03  0.28510429416E+02  0.15137739726E+03  0.89567190287E+02 0.  0.
          5    1    3    3  502    0 -0.11095641289E+02 -0.48798065963E+02  0.48247311909E+02  0.69672502494E+02  0.47000000000E+01 0. -1.
         -5    1    3    3    0  502  0.45489116149E+02 -0.64767241799E+02 -0.19736882493E+02  0.81704894767E+02  0.47000000000E+01 0.  1.
          5    1    1    2  503    0 -0.37925070071E+02  0.68996341972E+02  0.21109631366E+03  0.22534983867E+03  0.47000000000E+01 0.  1.
         -5    1    1    2    0  503  0.35315952111E+01  0.44568965790E+02  0.11704888865E+03  0.12538499596E+03  0.47000000000E+01 0. -1.
<mgrwt>
<rscale>  0 0.14202887E+03</rscale>
<asrwt>0</asrwt>
<pdfrwt beam="1">  1        4 0.66059065E-01 0.14866833E+03</pdfrwt>
<pdfrwt beam="2">  1       -4 0.11188970E-01 0.14866833E+03</pdfrwt>
<totfact> 0.22957518E+02</totfact>
</mgrwt>
</event>
<event>
 7    1  0.4203474E-005  0.1250206E+03  0.7546771E-02  0.1238899E+00
         -2   -1    0    0    0  501 -0.00000000000E+00  0.00000000000E+00  0.89800698573E+02  0.89800698573E+02  0.00000000000E+00 0.  1.
          2   -1    0    0  501    0  0.00000000000E+00 -0.00000000000E+00 -0.16115545068E+03  0.16115545068E+03  0.00000000000E+00 0. -1.
         23    2    1    2    0    0 -0.34829396626E+02 -0.63479683568E+02 -0.36387039218E+02  0.12113743244E+03  0.90041678232E+02 0.  0.
          5    1    1    2  502    0  0.16239992298E+02 -0.27348664558E+02 -0.10400639328E+02  0.33792752202E+02  0.47000000000E+01 0. -1.
         -5    1    1    2    0  502  0.18589404328E+02  0.90828348126E+02 -0.24567073557E+02  0.96025964612E+02  0.47000000000E+01 0.  1.
          5    1    3    3  503    0 -0.20629622859E+02 -0.84469904639E+02 -0.16609138882E+02  0.88649306953E+02  0.47000000000E+01 0. -1.
         -5    1    3    3    0  503 -0.14199773767E+02  0.20990221070E+02 -0.19777900336E+02  0.32488125482E+02  0.47000000000E+01 0.  1.
<mgrwt>
<rscale>  0 0.12258081E+03</rscale>
<asrwt>0</asrwt>
<pdfrwt beam="1">  1        2 0.24793146E-01 0.12502063E+03</pdfrwt>
<pdfrwt beam="2">  1       -2 0.13815492E-01 0.12502063E+03</pdfrwt>
<totfact> 0.80090698E+03</totfact>
</mgrwt>
</event>
<event>
 7    1  0.4203474E-005  0.8998589E+02  0.7546771E-02  0.1323970E+00
         -2   -1    0    0    0  501 -0.00000000000E+00  0.00000000000E+00  0.60390743314E+02  0.60390743314E+02  0.00000000000E+00 0.  1.
          2   -1    0    0  501    0  0.00000000000E+00 -0.00000000000E+00 -0.16761691714E+03  0.16761691714E+03  0.00000000000E+00 0. -1.
         23    2    1    2    0    0 -0.72258573180E+01  0.97069095319E+00 -0.13361027008E+03  0.16108744558E+03  0.89690052945E+02 0.  0.
          5    1    3    3  502    0  0.37199755102E+02 -0.14650379995E+02 -0.43260976881E+02  0.59093633620E+02  0.47000000000E+01 0. -1.
         -5    1    1    2    0  503  0.29963481179E+02 -0.14716275213E+02  0.19983482071E+02  0.39189392904E+02  0.47000000000E+01 0.  1.
          5    1    1    2  503    0 -0.22737623861E+02  0.13745584260E+02  0.64006141805E+01  0.27730821974E+02  0.47000000000E+01 0. -1.
         -5    1    3    3    0  502 -0.44425612420E+02  0.15621070949E+02 -0.90349293197E+02  0.10199381196E+03  0.47000000000E+01 0.  1.
<mgrwt>
<rscale>  0 0.81817990E+02</rscale>
<asrwt>0</asrwt>
<pdfrwt beam="1">  1        2 0.25787217E-01 0.89985893E+02</pdfrwt>
<pdfrwt beam="2">  1       -2 0.92908838E-02 0.89985893E+02</pdfrwt>
<totfact> 0.13949197E+04</totfact>
</mgrwt>
</event>
<event>
 7    1  0.4203474E-005  0.1376260E+03  0.7546771E-02  0.1217979E+00
          2   -1    0    0  501    0  0.00000000000E+00  0.00000000000E+00  0.15326929584E+04  0.15326929584E+04  0.00000000000E+00 0. -1.
         -2   -1    0    0    0  501 -0.00000000000E+00 -0.00000000000E+00 -0.13050086065E+02  0.13050086065E+02  0.00000000000E+00 0.  1.
         23    2    1    2    0    0  0.84365884058E+02  0.42121957491E+02  0.98990781508E+03  0.99942903877E+03  0.10024499730E+03 0.  0.
          5    1    3    3  502    0  0.98458613244E+02  0.76398847050E+01  0.77281948164E+03  0.77911777516E+03  0.47000000000E+01 0. -1.
         -5    1    1    2    0  503 -0.66630275706E+01 -0.43190721671E+02  0.31196724692E+03  0.31504838918E+03  0.47000000000E+01 0.  1.
          5    1    1    2  503    0 -0.77702856487E+02  0.10687641798E+01  0.21776781032E+03  0.23126561650E+03  0.47000000000E+01 0. -1.
         -5    1    3    3    0  502 -0.14092729186E+02  0.34482072786E+02  0.21708833344E+03  0.22031126361E+03  0.47000000000E+01 0.  1.
<mgrwt>
<rscale>  0 0.13659948E+03</rscale>
<asrwt>0</asrwt>
<pdfrwt beam="1">  1        2 0.23579877E+00 0.13762602E+03</pdfrwt>
<pdfrwt beam="2">  1       -2 0.20077068E-02 0.13762602E+03</pdfrwt>
<totfact> 0.98361845E+03</totfact>
</mgrwt>
</event>
<event>
 7    1  0.4203474E-005  0.1173354E+03  0.7546771E-02  0.1267683E+00
          2   -1    0    0  501    0  0.00000000000E+00  0.00000000000E+00  0.19452046540E+03  0.19452046540E+03  0.00000000000E+00 0. -1.
         -2   -1    0    0    0  501 -0.00000000000E+00 -0.00000000000E+00 -0.56071413979E+02  0.56071413979E+02  0.00000000000E+00 0.  1.
         23    2    1    2    0    0 -0.61702223730E+02 -0.45730115285E+02  0.12341674420E+03  0.17029180295E+03  0.88708497609E+02 0.  0.
          5    1    3    3  502    0 -0.40801312872E+02 -0.94352004965E+01  0.12094199759E+03  0.12807352155E+03  0.47000000000E+01 0. -1.
         -5    1    1    2    0  503  0.22900473578E+02  0.16039628568E+02  0.12959700851E+02  0.31172828245E+02  0.47000000000E+01 0.  1.
          5    1    1    2  503    0  0.38801750153E+02  0.29690486717E+02  0.20726063732E+01  0.49127248179E+02  0.47000000000E+01 0. -1.
         -5    1    3    3    0  502 -0.20900910859E+02 -0.36294914788E+02  0.24747466067E+01  0.42218281407E+02  0.47000000000E+01 0.  1.
<mgrwt>
<rscale>  0 0.10624642E+03</rscale>
<asrwt>0</asrwt>
<pdfrwt beam="1">  1        2 0.29926225E-01 0.11733544E+03</pdfrwt>
<pdfrwt beam="2">  1       -2 0.86263715E-02 0.11733544E+03</pdfrwt>
<totfact> 0.13657180E+04</totfact>
</mgrwt>
</event>
<event>
 7    1  0.4203474E-005  0.9635489E+02  0.7546771E-02  0.1320076E+00
          1   -1    0    0  501    0  0.00000000000E+00  0.00000000000E+00  0.28241792503E+03  0.28241792503E+03  0.00000000000E+00 0. -1.
         -1   -1    0    0    0  501 -0.00000000000E+00 -0.00000000000E+00 -0.20376901225E+02  0.20376901225E+02  0.00000000000E+00 0.  1.
         23    2    1    2    0    0 -0.27353319129E+02 -0.75699979462E+01  0.14592161915E+03  0.17486390043E+03  0.92080159660E+02 0.  0.
          5    1    3    3  502    0 -0.59078508306E+02 -0.29234479849E+01  0.66718133052E+02  0.89287266560E+02  0.47000000000E+01 0. -1.
         -5    1    1    2    0  503  0.73077211823E+01  0.23356841078E+02  0.77479802863E+02  0.81388909968E+02  0.47000000000E+01 0.  1.
          5    1    1    2  503    0  0.20045597947E+02 -0.15786843132E+02  0.38639601792E+02  0.46542015854E+02  0.47000000000E+01 0. -1.
         -5    1    3    3    0  502  0.31725189178E+02 -0.46465499613E+01  0.79203486097E+02  0.85576633872E+02  0.47000000000E+01 0.  1.
<mgrwt>
<rscale>  0 0.83248894E+02</rscale>
<asrwt>0</asrwt>
<pdfrwt beam="1">  1        1 0.43448909E-01 0.96354890E+02</pdfrwt>
<pdfrwt beam="2">  1       -1 0.31349081E-02 0.96354890E+02</pdfrwt>
<totfact> 0.29825881E+04</totfact>
</mgrwt>
</event>
<event>
 7    1  0.4203474E-005  0.1225266E+03  0.7546771E-02  0.1246892E+00
         -2   -1    0    0    0  501 -0.00000000000E+00  0.00000000000E+00  0.10894453000E+03  0.10894453000E+03  0.00000000000E+00 0.  1.
          2   -1    0    0  501    0  0.00000000000E+00 -0.00000000000E+00 -0.12776138554E+03  0.12776138554E+03  0.00000000000E+00 0. -1.
         23    2    1    2    0    0 -0.96330465908E+00 -0.92938647714E+02  0.22174299542E+02  0.12451690181E+03  0.79838831917E+02 0.  0.
          5    1    1    2  502    0 -0.20381853408E+02  0.49571258528E+02 -0.32589579461E+02  0.62903897414E+02  0.47000000000E+01 0. -1.
         -5    1    1    2    0  502  0.21345158067E+02  0.43367389185E+02 -0.84015756221E+01  0.49285116319E+02  0.47000000000E+01 0.  1.
          5    1    3    3  503    0 -0.39563550634E+02 -0.54897002084E+02  0.79956803817E+01  0.68300631632E+02  0.47000000000E+01 0. -1.
         -5    1    3    3    0  503  0.38600245975E+02 -0.38041645630E+02  0.14178619160E+02  0.56216270179E+02  0.47000000000E+01 0.  1.
<mgrwt>
<rscale>  0 0.11772844E+03</rscale>
<asrwt>0</asrwt>
<pdfrwt beam="1">  1        2 0.19655598E-01 0.12252657E+03</pdfrwt>
<pdfrwt beam="2">  1       -2 0.16760697E-01 0.12252657E+03</pdfrwt>
<totfact> 0.75560461E+03</totfact>
</mgrwt>
</event>
<event>
 7    1  0.4203474E-005  0.1151105E+03  0.7546771E-02  0.1270008E+00
         -2   -1    0    0    0  501 -0.00000000000E+00  0.00000000000E+00  0.12538344857E+03  0.12538344857E+03  0.00000000000E+00 0.  1.
          2   -1    0    0  501    0  0.00000000000E+00 -0.00000000000E+00 -0.77195852135E+02  0.77195852135E+02  0.00000000000E+00 0. -1.
         23    2    1    2    0    0 -0.73353237233E+02 -0.24248835508E+02  0.14955975745E+02  0.11607798531E+03  0.85332959787E+02 0.  0.
          5    1    1    2  502    0  0.33399942702E+02  0.13557251525E+02  0.24868596858E+02  0.44044209053E+02  0.47000000000E+01 0. -1.
         -5    1    3    3    0  503 -0.48167331851E+02  0.18263973532E+02  0.35097629698E+02  0.62510784647E+02  0.47000000000E+01 0.  1.
          5    1    3    3  503    0 -0.25185905383E+02 -0.42512809040E+02 -0.20141653953E+02  0.53567200658E+02  0.47000000000E+01 0. -1.
         -5    1    1    2    0  502  0.39953294531E+02  0.10691583983E+02  0.83630238358E+01  0.42457106350E+02  0.47000000000E+01 0.  1.
<mgrwt>
<rscale>  0 0.10505647E+03</rscale>
<asrwt>0</asrwt>
<pdfrwt beam="1">  1        2 0.11876285E-01 0.11511046E+03</pdfrwt>
<pdfrwt beam="2">  1       -2 0.19289761E-01 0.11511046E+03</pdfrwt>
<totfact> 0.10692714E+04</totfact>
</mgrwt>
</event>
<event>
 7    1  0.4203474E-005  0.1496664E+03  0.7546771E-02  0.1211903E+00
         -2   -1    0    0    0  501 -0.00000000000E+00  0.00000000000E+00  0.31131851508E+02  0.31131851508E+02  0.00000000000E+00 0.  1.
          2   -1    0    0  501    0  0.00000000000E+00 -0.00000000000E+00 -0.57979625374E+03  0.57979625374E+03  0.00000000000E+00 0. -1.
         23    2    1    2    0    0 -0.48187216113E+02  0.60766280349E+02 -0.26730783847E+03  0.29224086971E+03  0.89088140608E+02 0.  0.
          5    1    3    3  502    0 -0.10356019310E+01  0.63696377170E+02 -0.10289380923E+03  0.12110956574E+03  0.47000000000E+01 0. -1.
         -5    1    3    3    0  502 -0.47151614182E+02 -0.29300968209E+01 -0.16441402924E+03  0.17113130397E+03  0.47000000000E+01 0.  1.
          5    1    1    2  503    0  0.13503832660E+02  0.26744660489E+02 -0.17051718225E+03  0.17319304202E+03  0.47000000000E+01 0. -1.
         -5    1    1    2    0  503  0.34683383453E+02 -0.87510940839E+02 -0.11083938152E+03  0.14549419352E+03  0.47000000000E+01 0.  1.
<mgrwt>
<rscale>  0 0.14106521E+03</rscale>
<asrwt>0</asrwt>
<pdfrwt beam="1">  1        2 0.89199412E-01 0.14966642E+03</pdfrwt>
<pdfrwt beam="2">  1       -2 0.47895163E-02 0.14966642E+03</pdfrwt>
<totfact> 0.10541166E+04</totfact>
</mgrwt>
</event>
<event>
 7    1  0.4203474E-005  0.1156543E+03  0.7546771E-02  0.1270145E+00
          2   -1    0    0  501    0  0.00000000000E+00  0.00000000000E+00  0.16117721483E+03  0.16117721483E+03  0.00000000000E+00 0. -1.
         -2   -1    0    0    0  501 -0.00000000000E+00 -0.00000000000E+00 -0.63152692469E+02  0.63152692469E+02  0.00000000000E+00 0.  1.
         23    2    1    2    0    0 -0.68873672022E+02  0.13081399428E+02  0.27731979792E+02  0.11893266150E+03  0.91984833309E+02 0.  0.
          5    1    3    3  502    0 -0.47718560111E+02 -0.17692080820E+02  0.52977151275E+02  0.73612086372E+02  0.47000000000E+01 0. -1.
         -5    1    3    3    0  502 -0.21155111910E+02  0.30773480247E+02 -0.25245171483E+02  0.45320575125E+02  0.47000000000E+01 0.  1.
          5    1    1    2  503    0  0.31096869359E+02 -0.90988514860E+01  0.55350252187E+02  0.64308201650E+02  0.47000000000E+01 0. -1.
         -5    1    1    2    0  503  0.37776802663E+02 -0.39825479418E+01  0.14942290382E+02  0.41089044153E+02  0.47000000000E+01 0.  1.
<mgrwt>
<rscale>  0 0.10498694E+03</rscale>
<asrwt>0</asrwt>
<pdfrwt beam="1">  1        2 0.24796494E-01 0.11565429E+03</pdfrwt>
<pdfrwt beam="2">  1       -2 0.97157989E-02 0.11565429E+03</pdfrwt>
<totfact> 0.13911825E+04</totfact>
</mgrwt>
</event>
<event>
 7    1  0.4203474E-005  0.1051665E+03  0.7546771E-02  0.1301130E+00
          2   -1    0    0  501    0  0.00000000000E+00  0.00000000000E+00  0.23109429536E+03  0.23109429536E+03  0.00000000000E+00 0. -1.
         -2   -1    0    0    0  501 -0.00000000000E+00 -0.00000000000E+00 -0.33509243849E+02  0.33509243849E+02  0.00000000000E+00 0.  1.
         23    2    1    2    0    0 -0.47547553033E+02 -0.22417308496E+02  0.17065223794E+03  0.20045495173E+03  0.91086200058E+02 0.  0.
          5    1    1    2  502    0  0.20777163629E+02 -0.23609275541E+01  0.93692082181E+01  0.23390950601E+02  0.47000000000E+01 0. -1.
         -5    1    1    2    0  502  0.26770389404E+02  0.24778236050E+02  0.17563605352E+02  0.40757636874E+02  0.47000000000E+01 0.  1.
          5    1    3    3  503    0 -0.25018706734E+02 -0.40238400967E+02  0.16376150681E+03  0.17054320775E+03  0.47000000000E+01 0. -1.
         -5    1    3    3    0  503 -0.22528846299E+02  0.17821092471E+02  0.68907311333E+01  0.29911743981E+02  0.47000000000E+01 0.  1.
<mgrwt>
<rscale>  0 0.90714725E+02</rscale>
<asrwt>0</asrwt>
<pdfrwt beam="1">  1        2 0.35552968E-01 0.10516654E+03</pdfrwt>
<pdfrwt beam="2">  1       -2 0.51552684E-02 0.10516654E+03</pdfrwt>
<totfact> 0.24559927E+04</totfact>
</mgrwt>
</event>
<event>
 7    1  0.4203474E-005  0.2174645E+03  0.7546771E-02  0.1140543E+00
         -2   -1    0    0    0  501 -0.00000000000E+00  0.00000000000E+00  0.16833889593E+03  0.16833889593E+03  0.00000000000E+00 0.  1.
          2   -1    0    0  501    0  0.00000000000E+00 -0.00000000000E+00 -0.10789166462E+04  0.10789166462E+04  0.00000000000E+00 0. -1.
         23    2    1    2    0    0 -0.14372981553E+03 -0.93663981793E+02 -0.99520590758E+03  0.10139044122E+04  0.90200649625E+02 0.  0.
          5    1    1    2  502    0  0.11873779004E+03  0.66936023195E+01  0.16874990727E+02  0.12020949384E+03  0.47000000000E+01 0. -1.
         -5    1    1    2    0  502  0.24992025484E+02  0.86970379474E+02  0.67753166579E+02  0.11314163612E+03  0.47000000000E+01 0.  1.
          5    1    3    3  503    0 -0.12323146804E+03 -0.73381280978E+02 -0.94485595216E+03  0.95569119879E+03  0.47000000000E+01 0. -1.
         -5    1    3    3    0  503 -0.20498347485E+02 -0.20282700815E+02 -0.50349955422E+02  0.58213213388E+02  0.47000000000E+01 0.  1.
<mgrwt>
<rscale>  0 0.21129668E+03</rscale>
<asrwt>0</asrwt>
<pdfrwt beam="1">  1        2 0.16598717E+00 0.21746454E+03</pdfrwt>
<pdfrwt beam="2">  1       -2 0.25898292E-01 0.21746454E+03</pdfrwt>
<totfact> 0.31861443E+02</totfact>
</mgrwt>
</event>
<event>
 7    1  0.4203474E-005  0.2065928E+03  0.7546771E-02  0.1155741E+00
         -2   -1    0    0    0  501 -0.00000000000E+00  0.00000000000E+00  0.12608525825E+03  0.12608525825E+03  0.00000000000E+00 0.  1.
          2   -1    0    0  501    0  0.00000000000E+00 -0.00000000000E+00 -0.29702589685E+03  0.29702589685E+03  0.00000000000E+00 0. -1.
         23    2    1    2    0    0  0.47479594413E+02  0.11945221532E+03 -0.41050781132E+01  0.15756509924E+03  0.91031671435E+02 0.  0.
          5    1    1    2  502    0 -0.92963140669E+02 -0.12744972099E+03 -0.14470956923E+03  0.21412268990E+03  0.47000000000E+01 0. -1.
         -5    1    3    3    0  503  0.64537000316E+02  0.61781596152E+02 -0.26358555999E+02  0.93267644482E+02  0.47000000000E+01 0.  1.
          5    1    3    3  503    0 -0.17057405904E+02  0.57670619163E+02  0.22253477886E+02  0.64297454762E+02  0.47000000000E+01 0. -1.
         -5    1    1    2    0  502  0.45483546256E+02  0.79975056732E+01 -0.22125991261E+02  0.51423365957E+02  0.47000000000E+01 0.  1.
<mgrwt>
<rscale>  0 0.19304769E+03</rscale>
<asrwt>0</asrwt>
<pdfrwt beam="1">  1        2 0.45696291E-01 0.20659284E+03</pdfrwt>
<pdfrwt beam="2">  1       -2 0.19397732E-01 0.20659284E+03</pdfrwt>
<totfact> 0.24200600E+03</totfact>
</mgrwt>
</event>
<event>
 7    1  0.4203474E-005  0.2192036E+03  0.7546771E-02  0.1136121E+00
          3   -1    0    0  501    0  0.00000000000E+00  0.00000000000E+00  0.12050872636E+03  0.12050872636E+03  0.00000000000E+00 0. -1.
         -3   -1    0    0    0  501 -0.00000000000E+00 -0.00000000000E+00 -0.38471416415E+03  0.38471416415E+03  0.00000000000E+00 0.  1.
         23    2    1    2    0    0 -0.48911675255E+02  0.19839354528E+03 -0.15026048148E+03  0.26576009312E+03  0.79359082741E+02 0.  0.
          5    1    1    2  502    0  0.40306855374E+02 -0.77817136808E+02 -0.32310929062E+02  0.93521310449E+02  0.47000000000E+01 0. -1.
         -5    1    1    2    0  502  0.86048198803E+01 -0.12057640847E+03 -0.81634027244E+02  0.14594148694E+03  0.47000000000E+01 0.  1.
          5    1    3    3  503    0 -0.28835989668E+02  0.11766305094E+03 -0.40220767498E+02  0.12773373867E+03  0.47000000000E+01 0. -1.
         -5    1    3    3    0  503 -0.20075685587E+02  0.80730494341E+02 -0.11003971398E+03  0.13802635445E+03  0.47000000000E+01 0.  1.
<mgrwt>
<rscale>  0 0.21702434E+03</rscale>
<asrwt>0</asrwt>
<pdfrwt beam="1">  1        3 0.18539804E-01 0.21920359E+03</pdfrwt>
<pdfrwt beam="2">  1       -3 0.59186794E-01 0.21920359E+03</pdfrwt>
<totfact> 0.17904955E+02</totfact>
</mgrwt>
</event>
<event>
 7    1  0.4203474E-005  0.1160946E+03  0.7546771E-02  0.1288049E+00
         -2   -1    0    0    0  501 -0.00000000000E+00  0.00000000000E+00  0.70316480530E+02  0.70316480530E+02  0.00000000000E+00 0.  1.
          2   -1    0    0  501    0  0.00000000000E+00 -0.00000000000E+00 -0.11092625345E+03  0.11092625345E+03  0.00000000000E+00 0. -1.
         23    2    1    2    0    0 -0.48075002621E+02 -0.18237220374E+02 -0.63274806339E+01  0.11626689479E+03  0.10408723135E+03 0.  0.
          5    1    3    3  502    0 -0.14199603372E+02  0.37830866566E+02  0.20220493599E+02  0.45428642534E+02  0.47000000000E+01 0.  1.
         -5    1    3    3    0  502 -0.33875399249E+02 -0.56068086940E+02 -0.26547974233E+02  0.70838252260E+02  0.47000000000E+01 0.  1.
          5    1    1    2  503    0  0.26625188536E+02  0.19234279073E+02 -0.19500405581E+02  0.38486542764E+02  0.47000000000E+01 0. -1.
         -5    1    1    2    0  503  0.21449814085E+02 -0.99705869963E+00 -0.14781886701E+02  0.26489296419E+02  0.47000000000E+01 0. -1.
<mgrwt>
<rscale>  0 0.96401909E+02</rscale>
<asrwt>0</asrwt>
<pdfrwt beam="1">  1        2 0.17065577E-01 0.11609459E+03</pdfrwt>
<pdfrwt beam="2">  1       -2 0.10817920E-01 0.11609459E+03</pdfrwt>
<totfact> 0.17882701E+04</totfact>
</mgrwt>
</event>
<event>
 7    1  0.4203474E-005  0.1140136E+03  0.7546771E-02  0.1257123E+00
         -1   -1    0    0    0  501 -0.00000000000E+00  0.00000000000E+00  0.44365996324E+03  0.44365996324E+03  0.00000000000E+00 0.  1.
          1   -1    0    0  501    0  0.00000000000E+00 -0.00000000000E+00 -0.34047172098E+02  0.34047172098E+02  0.00000000000E+00 0. -1.
         23    2    1    2    0    0 -0.12683428332E+02  0.52151238890E+02  0.91643865465E+02  0.13991527264E+03  0.91088222991E+02 0.  0.
          5    1    1    2  502    0  0.25453118215E+02 -0.74891003726E+02  0.28319473412E+03  0.29407120073E+03  0.47000000000E+01 0.  1.
         -5    1    1    2    0  502 -0.12769689883E+02  0.22739764836E+02  0.34774191553E+02  0.43720661965E+02  0.47000000000E+01 0. -1.
          5    1    3    3  503    0  0.96999659518E+01  0.67472322795E+02  0.34628333387E+02  0.76601665491E+02  0.47000000000E+01 0. -1.
         -5    1    3    3    0  503 -0.22383394284E+02 -0.15321083905E+02  0.57015532078E+02  0.63313607146E+02  0.47000000000E+01 0.  1.
<mgrwt>
<rscale>  0 0.11188234E+03</rscale>
<asrwt>0</asrwt>
<pdfrwt beam="1">  1        1 0.52380268E-02 0.11401362E+03</pdfrwt>
<pdfrwt beam="2">  1       -1 0.68255375E-01 0.11401362E+03</pdfrwt>
<totfact> 0.33476940E+03</totfact>
</mgrwt>
</event>
<event>
 7    1  0.4203474E-005  0.1179257E+03  0.7546771E-02  0.1266144E+00
         -2   -1    0    0    0  501 -0.00000000000E+00  0.00000000000E+00  0.20311511811E+02  0.20311511811E+02  0.00000000000E+00 0.  1.
          2   -1    0    0  501    0  0.00000000000E+00 -0.00000000000E+00 -0.57433370927E+03  0.57433370927E+03  0.00000000000E+00 0. -1.
         23    2    1    2    0    0 -0.72359451874E+02 -0.15307438605E+02 -0.43858394931E+03  0.45416113948E+03  0.91849072254E+02 0.  0.
          5    1    1    2  502    0  0.38204770692E+02  0.15409121211E+02 -0.40332939918E+02  0.57843595692E+02  0.47000000000E+01 0. -1.
         -5    1    1    2    0  502  0.34154681182E+02 -0.10168260609E+00 -0.75105308231E+02  0.82640485904E+02  0.47000000000E+01 0.  1.
          5    1    3    3  503    0 -0.35985419468E+02  0.30792658308E+02 -0.29733028161E+03  0.30111546720E+03  0.47000000000E+01 0. -1.
         -5    1    3    3    0  503 -0.36374032406E+02 -0.46100096913E+02 -0.14125366769E+03  0.15304567229E+03  0.47000000000E+01 0.  1.
<mgrwt>
<rscale>  0 0.10704384E+03</rscale>
<asrwt>0</asrwt>
<pdfrwt beam="1">  1        2 0.88359029E-01 0.11792565E+03</pdfrwt>
<pdfrwt beam="2">  1       -2 0.31248481E-02 0.11792565E+03</pdfrwt>
<totfact> 0.19711376E+04</totfact>
</mgrwt>
</event>
<event>
 7    1  0.4203474E-005  0.1476626E+03  0.7546771E-02  0.1215769E+00
          1   -1    0    0  501    0  0.00000000000E+00  0.00000000000E+00  0.17190947367E+04  0.17190947367E+04  0.00000000000E+00 0. -1.
         -1   -1    0    0    0  501 -0.00000000000E+00 -0.00000000000E+00 -0.99131850598E+01  0.99131850598E+01  0.00000000000E+00 0.  1.
         23    2    1    2    0    0  0.57015255037E+02  0.34283538877E+02  0.71612626838E+03  0.72503430303E+03  0.91715908928E+02 0.  0.
          5    1    1    2  502    0  0.28469568679E+02  0.28822052503E+02  0.31454064275E+03  0.31717366378E+03  0.47000000000E+01 0. -1.
         -5    1    3    3    0  503 -0.18902805945E+02  0.25927493560E+02  0.13239036921E+03  0.13630425839E+03  0.47000000000E+01 0.  1.
          5    1    3    3  503    0  0.75918060982E+02  0.83560453168E+01  0.58373589917E+03  0.58873004464E+03  0.47000000000E+01 0. -1.
         -5    1    1    2    0  502 -0.85484823716E+02 -0.63105591380E+02  0.67851464054E+03  0.68679995499E+03  0.47000000000E+01 0.  1.
<mgrwt>
<rscale>  0 0.13820208E+03</rscale>
<asrwt>0</asrwt>
<pdfrwt beam="1">  1        1 0.26447588E+00 0.14766256E+03</pdfrwt>
<pdfrwt beam="2">  1       -1 0.15251068E-02 0.14766256E+03</pdfrwt>
<totfact> 0.51690945E+03</totfact>
</mgrwt>
</event>
<event>
 7    1  0.4203474E-005  0.2255723E+03  0.7546771E-02  0.1134446E+00
          1   -1    0    0  501    0  0.00000000000E+00  0.00000000000E+00  0.74819684959E+03  0.74819684959E+03  0.00000000000E+00 0. -1.
         -1   -1    0    0    0  501 -0.00000000000E+00 -0.00000000000E+00 -0.27482922287E+03  0.27482922287E+03  0.00000000000E+00 0.  1.
         23    2    1    2    0    0  0.15481871374E+03  0.91104493784E+02  0.68484704753E+03  0.71382322143E+03  0.90880416122E+02 0.  0.
          5    1    1    2  502    0 -0.14247516516E+03 -0.63773748432E+02 -0.82342800198E+02  0.17654656729E+03  0.47000000000E+01 0. -1.
         -5    1    3    3    0  503  0.33754429559E+02  0.50266710401E+01  0.28811731754E+03  0.29016944636E+03  0.47000000000E+01 0.  1.
          5    1    3    3  503    0  0.12106428418E+03  0.86077822744E+02  0.39672972999E+03  0.42365377507E+03  0.47000000000E+01 0. -1.
         -5    1    1    2    0  502 -0.12343548579E+02 -0.27330745353E+02 -0.12913662061E+03  0.13265628374E+03  0.47000000000E+01 0.  1.
<mgrwt>
<rscale>  0 0.21924710E+03</rscale>
<asrwt>0</asrwt>
<pdfrwt beam="1">  1        1 0.11510721E+00 0.22557229E+03</pdfrwt>
<pdfrwt beam="2">  1       -1 0.42281419E-01 0.22557229E+03</pdfrwt>
<totfact> 0.14556734E+02</totfact>
</mgrwt>
</event>
<event>
 7    1  0.4203474E-005  0.9463561E+02  0.7546771E-02  0.1297684E+00
         -2   -1    0    0    0  501 -0.00000000000E+00  0.00000000000E+00  0.18881738925E+03  0.18881738925E+03  0.00000000000E+00 0.  1.
          2   -1    0    0  501    0  0.00000000000E+00 -0.00000000000E+00 -0.84152406614E+02  0.84152406614E+02  0.00000000000E+00 0. -1.
         23    2    1    2    0    0 -0.25588450221E+00  0.26733464472E+02 -0.41876922515E+02  0.10348707877E+03  0.90780808728E+02 0.  0.
          5    1    1    2  502    0 -0.16829835322E+02 -0.44113826483E+02  0.13299444918E+03  0.14120512227E+03  0.47000000000E+01 0. -1.
         -5    1    1    2    0  502  0.17085719824E+02  0.17380362011E+02  0.13547455973E+02  0.28277594822E+02  0.47000000000E+01 0.  1.
          5    1    3    3  503    0 -0.24157548801E+02  0.46507728194E+02 -0.48341206662E+02  0.71452909020E+02  0.47000000000E+01 0. -1.
         -5    1    3    3    0  503  0.23901664299E+02 -0.19774263722E+02  0.64642841470E+01  0.32034169749E+02  0.47000000000E+01 0.  1.
<mgrwt>
<rscale>  0 0.92168423E+02</rscale>
<asrwt>0</asrwt>
<pdfrwt beam="1">  1        2 0.12946524E-01 0.94635611E+02</pdfrwt>
<pdfrwt beam="2">  1       -2 0.29048829E-01 0.94635611E+02</pdfrwt>
<totfact> 0.46890111E+03</totfact>
</mgrwt>
</event>
<event>
 7    1  0.4203474E-005  0.1222938E+03  0.7546771E-02  0.1251596E+00
          2   -1    0    0  501    0  0.00000000000E+00  0.00000000000E+00  0.76425698003E+03  0.76425698003E+03  0.00000000000E+00 0. -1.
         -2   -1    0    0    0  501 -0.00000000000E+00 -0.00000000000E+00 -0.16158351622E+02  0.16158351622E+02  0.00000000000E+00 0.  1.
         23    2    1    2    0    0 -0.79325756974E+02  0.18072077584E+02  0.49445606634E+03  0.50935506424E+03  0.91305006577E+02 0.  0.
          5    1    1    2  502    0  0.22643633404E+02 -0.28932539812E+02  0.11478898519E+03  0.12061686082E+03  0.47000000000E+01 0.  1.
         -5    1    3    3    0  503 -0.43269958592E+02 -0.33441437333E+02  0.16412150509E+03  0.17305657306E+03  0.47000000000E+01 0.  1.
          5    1    3    3  503    0 -0.36055798382E+02  0.51513514917E+02  0.33033456125E+03  0.33629849118E+03  0.47000000000E+01 0. -1.
         -5    1    1    2    0  502  0.56682123570E+02  0.10860462228E+02  0.13885357688E+03  0.15044340659E+03  0.47000000000E+01 0. -1.
<mgrwt>
<rscale>  0 0.11499169E+03</rscale>
<asrwt>0</asrwt>
<pdfrwt beam="1">  1        2 0.11757797E+00 0.12229383E+03</pdfrwt>
<pdfrwt beam="2">  1       -2 0.24859008E-02 0.12229383E+03</pdfrwt>
<totfact> 0.19806783E+04</totfact>
</mgrwt>
</event>
<event>
 7    1  0.4203474E-005  0.1144067E+03  0.7546771E-02  0.1274626E+00
         -4   -1    0    0    0  501 -0.00000000000E+00  0.00000000000E+00  0.62666590250E+02  0.62666590250E+02  0.00000000000E+00 0.  1.
          4   -1    0    0  501    0  0.00000000000E+00 -0.00000000000E+00 -0.14243732317E+03  0.14243732317E+03  0.00000000000E+00 0. -1.
         23    2    1    2    0    0  0.67016455336E+02 -0.87944980686E+01 -0.44633361255E+02  0.12280486329E+03  0.92305736709E+02 0.  0.
          5    1    1    2  502    0 -0.30189844369E+02  0.57162515783E+01 -0.32471636543E+02  0.44951078017E+02  0.47000000000E+01 0. -1.
         -5    1    3    3    0  503  0.51960239689E+02 -0.46380664774E+02 -0.43045557157E+02  0.82012453716E+02  0.47000000000E+01 0.  1.
          5    1    3    3  503    0  0.15056215647E+02  0.37586166706E+02 -0.15878040971E+01  0.40792409577E+02  0.47000000000E+01 0. -1.
         -5    1    1    2    0  502 -0.36826610967E+02  0.30782464903E+01 -0.26657351194E+01  0.37347972107E+02  0.47000000000E+01 0.  1.
<mgrwt>
<rscale>  0 0.10274546E+03</rscale>
<asrwt>0</asrwt>
<pdfrwt beam="1">  1        4 0.21913434E-01 0.11440672E+03</pdfrwt>
<pdfrwt beam="2">  1       -4 0.96410139E-02 0.11440672E+03</pdfrwt>
<totfact> 0.24298036E+03</totfact>
</mgrwt>
</event>
<event>
 7    1  0.4203474E-005  0.3708771E+03  0.7546771E-02  0.1054358E+00
          2   -1    0    0  501    0  0.00000000000E+00  0.00000000000E+00  0.67013506610E+03  0.67013506610E+03  0.00000000000E+00 0. -1.
         -2   -1    0    0    0  501 -0.00000000000E+00 -0.00000000000E+00 -0.51314216929E+02  0.51314216929E+02  0.00000000000E+00 0.  1.
         23    2    1    2    0    0  0.57111978331E+02  0.39966003959E+02  0.17307683832E+03  0.20879573090E+03  0.93707020740E+02 0.  0.
          5    1    1    2  502    0 -0.76024689906E+02 -0.80798284693E+02  0.45337054003E+03  0.46677087832E+03  0.47000000000E+01 0. -1.
         -5    1    1    2    0  502  0.18912711576E+02  0.40832280734E+02 -0.76265291733E+01  0.45882673814E+02  0.47000000000E+01 0.  1.
          5    1    3    3  503    0 -0.13210070742E+02  0.34719150765E+02  0.10159229113E+03  0.10827284523E+03  0.47000000000E+01 0. -1.
         -5    1    3    3    0  503  0.70322049073E+02  0.52468531942E+01  0.71484547195E+02  0.10052288566E+03  0.47000000000E+01 0.  1.
<mgrwt>
<rscale>  0 0.37087710E+03</rscale>
<asrwt>0</asrwt>
<pdfrwt beam="1">  1        2 0.10309770E+00 0.37087710E+03</pdfrwt>
<pdfrwt beam="2">  1       -2 0.78944954E-02 0.37087710E+03</pdfrwt>
<totfact> 0.42914186E+03</totfact>
</mgrwt>
</event>
<event>
 7    1  0.4203474E-005  0.1550290E+03  0.7546771E-02  0.1219729E+00
         -1   -1    0    0    0  501 -0.00000000000E+00  0.00000000000E+00  0.68062968686E+02  0.68062968686E+02  0.00000000000E+00 0.  1.
          1   -1    0    0  501    0  0.00000000000E+00 -0.00000000000E+00 -0.27742352759E+03  0.27742352759E+03  0.00000000000E+00 0. -1.
         23    2    1    2    0    0  0.23698409478E+01 -0.12566971467E+02 -0.66837013013E+01  0.90316180285E+02  0.89156018530E+02 0.  0.
          5    1    1    2  502    0 -0.69898106376E+02  0.30957130422E+02 -0.64192999054E+02  0.99934580233E+02  0.47000000000E+01 0. -1.
         -5    1    3    3    0  503  0.42064542055E+02 -0.23772946411E+02 -0.29335033077E+01  0.48634083943E+02  0.47000000000E+01 0.  1.
          5    1    3    3  503    0 -0.39694701107E+02  0.11205974944E+02 -0.37501979936E+01  0.41682096341E+02  0.47000000000E+01 0. -1.
         -5    1    1    2    0  502  0.67528265428E+02 -0.18390158955E+02 -0.13848385855E+03  0.15523573576E+03  0.47000000000E+01 0.  1.
<mgrwt>
<rscale>  0 0.13534834E+03</rscale>
<asrwt>0</asrwt>
<pdfrwt beam="1">  1        1 0.42680542E-01 0.15502897E+03</pdfrwt>
<pdfrwt beam="2">  1       -1 0.10471226E-01 0.15502897E+03</pdfrwt>
<totfact> 0.52963577E+03</totfact>
</mgrwt>
</event>
<event>
 7    1  0.4203474E-005  0.9323794E+02  0.7546771E-02  0.1327784E+00
          2   -1    0    0  501    0  0.00000000000E+00  0.00000000000E+00  0.93016196068E+02  0.93016196068E+02  0.00000000000E+00 0.  1.
         -2   -1    0    0    0  501 -0.00000000000E+00 -0.00000000000E+00 -0.13368390436E+03  0.13368390436E+03  0.00000000000E+00 0. -1.
         23    2    1    2    0    0 -0.55980173728E+01  0.17654593204E+02  0.61855173470E+02  0.11189001394E+03  0.91379922717E+02 0.  0.
          5    1    1    2  502    0  0.26614835471E+02 -0.97795518743E+01 -0.56328886183E+02  0.63237825078E+02  0.47000000000E+01 0. -1.
         -5    1    3    3    0  503 -0.27894326339E+02  0.41647366910E+02  0.60589885664E+02  0.78777032549E+02  0.47000000000E+01 0.  1.
          5    1    3    3  503    0  0.22296308966E+02 -0.23992773706E+02  0.12652878063E+01  0.33112981395E+02  0.47000000000E+01 0. -1.
         -5    1    1    2    0  502 -0.21016818098E+02 -0.78750413295E+01 -0.46193995577E+02  0.51572261403E+02  0.47000000000E+01 0.  1.
<mgrwt>
<rscale>  0 0.80448292E+02</rscale>
<asrwt>0</asrwt>
<pdfrwt beam="1">  1        2 0.14310184E-01 0.93237936E+02</pdfrwt>
<pdfrwt beam="2">  1       -2 0.20566755E-01 0.93237936E+02</pdfrwt>
<totfact> 0.75610731E+03</totfact>
</mgrwt>
</event>
<event>
 7    1  0.4203474E-005  0.1098364E+03  0.7546771E-02  0.1289216E+00
         -2   -1    0    0    0  501 -0.00000000000E+00  0.00000000000E+00  0.63036621530E+01  0.63036621530E+01  0.00000000000E+00 0.  1.
          2   -1    0    0  501    0  0.00000000000E+00 -0.00000000000E+00 -0.12093131142E+04  0.12093131142E+04  0.00000000000E+00 0. -1.
         23    2    1    2    0    0 -0.58859614263E+02 -0.12768296617E+01 -0.69607545717E+03  0.70468793350E+03  0.92725169465E+02 0.  0.
          5    1    3    3  502    0  0.16132458628E+02  0.24194869716E+02 -0.23456677452E+03  0.23640919959E+03  0.47000000000E+01 0. -1.
         -5    1    3    3    0  502 -0.74992072890E+02 -0.25471699378E+02 -0.46150868266E+03  0.46827873391E+03  0.47000000000E+01 0.  1.
          5    1    1    2  503    0  0.26005475226E+02 -0.10590316780E+02 -0.21643934476E+03  0.21830373224E+03  0.47000000000E+01 0.  1.
         -5    1    1    2    0  503  0.32854139036E+02  0.11867146442E+02 -0.29049465015E+03  0.29262511065E+03  0.47000000000E+01 0. -1.
<mgrwt>
<rscale>  0 0.95875689E+02</rscale>
<asrwt>0</asrwt>
<pdfrwt beam="1">  1        2 0.18604827E+00 0.10983643E+03</pdfrwt>
<pdfrwt beam="2">  1       -2 0.96979365E-03 0.10983643E+03</pdfrwt>
<totfact> 0.40897975E+04</totfact>
</mgrwt>
</event>
<event>
 7    1  0.4203474E-005  0.9254986E+02  0.7546771E-02  0.1309079E+00
         -4   -1    0    0    0  501 -0.00000000000E+00  0.00000000000E+00  0.10705051568E+02  0.10705051568E+02  0.00000000000E+00 0. -1.
          4   -1    0    0  501    0  0.00000000000E+00 -0.00000000000E+00 -0.64792752417E+03  0.64792752417E+03  0.00000000000E+00 0.  1.
         23    2    1    2    0    0  0.43499735430E+01  0.15477748974E+02 -0.34045658945E+03  0.35281179897E+03  0.91142707936E+02 0.  0.
          5    1    3    3  502    0  0.47331614265E+01  0.41643660020E+02 -0.75142990596E+02  0.86169346479E+02  0.47000000000E+01 0. -1.
         -5    1    1    2    0  503  0.33591274419E+02 -0.81549829338E+01 -0.14620883845E+03  0.15031297983E+03  0.47000000000E+01 0.  1.
          5    1    1    2  503    0 -0.37941247962E+02 -0.73227660406E+01 -0.15055704470E+03  0.15550779694E+03  0.47000000000E+01 0. -1.
         -5    1    3    3    0  502 -0.38318788351E+00 -0.26165911046E+02 -0.26531359885E+03  0.26664245249E+03  0.47000000000E+01 0.  1.
<mgrwt>
<rscale>  0 0.87477160E+02</rscale>
<asrwt>0</asrwt>
<pdfrwt beam="1">  1        4 0.99681125E-01 0.92549858E+02</pdfrwt>
<pdfrwt beam="2">  1       -4 0.16469315E-02 0.92549858E+02</pdfrwt>
<totfact> 0.17802544E+03</totfact>
</mgrwt>
</event>
<event>
 6    1  0.4203474E-005  0.6778652E+03  0.7546771E-02  0.9850027E-01
          2   -1    0    0  501    0  0.00000000000E+00  0.00000000000E+00  0.96790394624E+03  0.96790394624E+03  0.00000000000E+00 0. -1.
         -2   -1    0    0    0  501 -0.00000000000E+00 -0.00000000000E+00 -0.47252322112E+03  0.47252322112E+03  0.00000000000E+00 0.  1.
          5    1    1    2  502    0  0.22664400310E+03  0.31383665646E+01  0.11415210539E+02  0.22700165311E+03  0.47000000000E+01 0. -1.
         -5    1    1    2    0  502  0.20775743068E+03 -0.13712196109E+03 -0.14549883612E+03  0.28837056633E+03  0.47000000000E+01 0.  1.
          5    1    1    2  503    0 -0.11962535229E+03  0.28415060621E+03  0.40983859008E+03  0.51287576648E+03  0.47000000000E+01 0. -1.
         -5    1    1    2    0  503 -0.31477608149E+03 -0.15016701169E+03  0.21962576062E+03  0.41217918143E+03  0.47000000000E+01 0.  1.
<mgrwt>
<rscale>  0 0.62745554E+03</rscale>
<asrwt>0</asrwt>
<pdfrwt beam="1">  1        2 0.14890830E+00 0.67786524E+03</pdfrwt>
<pdfrwt beam="2">  1       -2 0.72695880E-01 0.67786524E+03</pdfrwt>
<totfact> 0.46207039E+01</totfact>
</mgrwt>
</event>
<event>
 7    1  0.4203474E-005  0.1216375E+03  0.7546771E-02  0.1251385E+00
         -2   -1    0    0    0  501 -0.00000000000E+00  0.00000000000E+00  0.13779383706E+02  0.13779383706E+02  0.00000000000E+00 0.  1.
          2   -1    0    0  501    0  0.00000000000E+00 -0.00000000000E+00 -0.87499756753E+03  0.87499756753E+03  0.00000000000E+00 0. -1.
         23    2    1    2    0    0  0.63663509263E+02  0.61700210058E+02 -0.45086182074E+03  0.46698187316E+03  0.83281031009E+02 0.  0.
          5    1    1    2  502    0 -0.23388117888E+02 -0.26927936790E+02 -0.88437706948E+02  0.95474791691E+02  0.47000000000E+01 0. -1.
         -5    1    3    3    0  503  0.54069766507E+02  0.22433092003E+02 -0.11971267775E+03  0.13334166071E+03  0.47000000000E+01 0.  1.
          5    1    3    3  503    0  0.95937427564E+01  0.39267118055E+02 -0.33114914299E+03  0.33364021245E+03  0.47000000000E+01 0. -1.
         -5    1    1    2    0  502 -0.40275391375E+02 -0.34772273268E+02 -0.32191865613E+03  0.32632028638E+03  0.47000000000E+01 0.  1.
<mgrwt>
<rscale>  0 0.11511267E+03</rscale>
<asrwt>0</asrwt>
<pdfrwt beam="1">  1        2 0.13461503E+00 0.12163753E+03</pdfrwt>
<pdfrwt beam="2">  1       -2 0.21199049E-02 0.12163753E+03</pdfrwt>
<totfact> 0.21073344E+04</totfact>
</mgrwt>
</event>
<event>
 7    1  0.4203474E-005  0.3777413E+03  0.7546771E-02  0.1093866E+00
         -2   -1    0    0    0  501 -0.00000000000E+00  0.00000000000E+00  0.37363155751E+03  0.37363155751E+03  0.00000000000E+00 0.  1.
          2   -1    0    0  501    0  0.00000000000E+00 -0.00000000000E+00 -0.18740384622E+03  0.18740384622E+03  0.00000000000E+00 0. -1.
         23    2    1    2    0    0  0.27898040561E+02 -0.72224312623E+02 -0.33261748129E+02  0.12415543279E+03  0.91178811143E+02 0.  0.
          5    1    1    2  502    0 -0.91814657991E+02  0.53705670283E+01 -0.80874658888E+02  0.12256253450E+03  0.47000000000E+01 0. -1.
         -5    1    1    2    0  502  0.63916617430E+02  0.66853745595E+02  0.30036411831E+03  0.31431743645E+03  0.47000000000E+01 0.  1.
          5    1    3    3  503    0 -0.55957512528E+01 -0.80973449166E+02 -0.36401102568E+02  0.89079414962E+02  0.47000000000E+01 0. -1.
         -5    1    3    3    0  503  0.33493791814E+02  0.87491365421E+01  0.31393544393E+01  0.35076017827E+02  0.47000000000E+01 0.  1.
<mgrwt>
<rscale>  0 0.28336361E+03</rscale>
<asrwt>0</asrwt>
<pdfrwt beam="1">  1        2 0.28831361E-01 0.37774130E+03</pdfrwt>
<pdfrwt beam="2">  1       -2 0.57481778E-01 0.37774130E+03</pdfrwt>
<totfact> 0.53202965E+02</totfact>
</mgrwt>
</event>
<event>
 6    1  0.4203474E-005  0.2090040E+03  0.7546771E-02  0.1153646E+00
         -2   -1    0    0    0  501 -0.00000000000E+00  0.00000000000E+00  0.20592914397E+03  0.20592914397E+03  0.00000000000E+00 0.  1.
          2   -1    0    0  501    0  0.00000000000E+00 -0.00000000000E+00 -0.16604389654E+03  0.16604389654E+03  0.00000000000E+00 0. -1.
          5    1    1    2  502    0 -0.72871216981E+02  0.10462595012E+03 -0.30919023353E+02  0.13128168078E+03  0.47000000000E+01 0. -1.
         -5    1    1    2    0  502 -0.44618055904E+02 -0.20496707420E+01  0.67232689506E+02  0.80853550330E+02  0.47000000000E+01 0.  1.
          5    1    1    2  503    0  0.19262162257E+02 -0.21117748783E+02 -0.11683387792E+02  0.31234304199E+02  0.47000000000E+01 0. -1.
         -5    1    1    2    0  503  0.98227110628E+02 -0.81458530598E+02  0.15254969069E+02  0.12860350520E+03  0.47000000000E+01 0.  1.
<mgrwt>
<rscale>  0 0.19543787E+03</rscale>
<asrwt>0</asrwt>
<pdfrwt beam="1">  1        2 0.25545215E-01 0.20900400E+03</pdfrwt>
<pdfrwt beam="2">  1       -2 0.31681407E-01 0.20900400E+03</pdfrwt>
<totfact> 0.19210879E+03</totfact>
</mgrwt>
</event>
<event>
 7    1  0.4203474E-005  0.1768704E+03  0.7546771E-02  0.1180379E+00
         -2   -1    0    0    0  501 -0.00000000000E+00  0.00000000000E+00  0.14379389857E+03  0.14379389857E+03  0.00000000000E+00 0.  1.
          2   -1    0    0  501    0  0.00000000000E+00 -0.00000000000E+00 -0.28758971204E+03  0.28758971204E+03  0.00000000000E+00 0. -1.
         23    2    1    2    0    0 -0.10529541210E+03  0.12889516145E+02  0.65879927261E+02  0.15707163645E+03  0.95278910183E+02 0.  0.
          5    1    3    3  502    0 -0.67526058745E+02  0.88540373194E+00 -0.12757505603E+02  0.68886838355E+02  0.47000000000E+01 0. -1.
         -5    1    1    2    0  503 -0.16924475720E+01 -0.55971560277E+02 -0.39529433442E+02  0.68704774556E+02  0.47000000000E+01 0.  1.
          5    1    1    2  503    0  0.10698785967E+03  0.43082044132E+02 -0.17014630729E+03  0.20560719960E+03  0.47000000000E+01 0. -1.
         -5    1    3    3    0  502 -0.37769353352E+02  0.12004112413E+02  0.78637432863E+02  0.88184798094E+02  0.47000000000E+01 0.  1.
<mgrwt>
<rscale>  0 0.16759541E+03</rscale>
<asrwt>0</asrwt>
<pdfrwt beam="1">  1        2 0.44244570E-01 0.17687041E+03</pdfrwt>
<pdfrwt beam="2">  1       -2 0.22122139E-01 0.17687041E+03</pdfrwt>
<totfact> 0.19900924E+03</totfact>
</mgrwt>
</event>
<event>
 7    1  0.4203474E-005  0.5161557E+03  0.7546771E-02  0.1046738E+00
         -2   -1    0    0    0  501 -0.00000000000E+00  0.00000000000E+00  0.13798743364E+03  0.13798743364E+03  0.00000000000E+00 0.  1.
          2   -1    0    0  501    0  0.00000000000E+00 -0.00000000000E+00 -0.86695413490E+03  0.86695413490E+03  0.00000000000E+00 0. -1.
         23    2    1    2    0    0 -0.43068993672E+02  0.13918040934E+03 -0.13351486524E+03  0.21691898061E+03  0.89451105920E+02 0.  0.
          5    1    3    3  502    0 -0.45172344029E+02  0.79606187294E+02 -0.28336277149E+02  0.95930810083E+02  0.47000000000E+01 0. -1.
         -5    1    3    3    0  502  0.21033503575E+01  0.59574222042E+02 -0.10517858809E+03  0.12098817053E+03  0.47000000000E+01 0.  1.
          5    1    1    2  503    0 -0.14042721220E+03 -0.24232961084E+03 -0.45703308008E+03  0.53604549108E+03  0.47000000000E+01 0. -1.
         -5    1    1    2    0  503  0.18349620587E+03  0.10314920151E+03 -0.13841875593E+03  0.25197709684E+03  0.47000000000E+01 0.  1.
<mgrwt>
<rscale>  0 0.39157030E+03</rscale>
<asrwt>0</asrwt>
<pdfrwt beam="1">  1        2 0.13337755E+00 0.51615570E+03</pdfrwt>
<pdfrwt beam="2">  1       -2 0.21228837E-01 0.51615570E+03</pdfrwt>
<totfact> 0.60085954E+02</totfact>
</mgrwt>
</event>
<event>
 6    1  0.4203474E-005  0.3801586E+03  0.7546771E-02  0.1050875E+00
         -2   -1    0    0    0  501 -0.00000000000E+00  0.00000000000E+00  0.25495800811E+03  0.25495800811E+03  0.00000000000E+00 0.  1.
          2   -1    0    0  501    0  0.00000000000E+00 -0.00000000000E+00 -0.14171014895E+03  0.14171014895E+03  0.00000000000E+00 0. -1.
          5    1    1    2  502    0  0.11117076773E+02 -0.11931416489E+03  0.78330348298E+02  0.14323823792E+03  0.47000000000E+01 0. -1.
         -5    1    1    2    0  503  0.47865589192E+02  0.36762624608E+02  0.78249272664E+02  0.98932521797E+02  0.47000000000E+01 0.  1.
          5    1    1    2  503    0 -0.55119486929E+02  0.10833453934E+03 -0.38336805524E+02  0.12753952686E+03  0.47000000000E+01 0. -1.
         -5    1    1    2    0  502 -0.38631790358E+01 -0.25782999063E+02 -0.49949562826E+01  0.26957870487E+02  0.47000000000E+01 0.  1.
<mgrwt>
<rscale>  0 0.38015858E+03</rscale>
<asrwt>0</asrwt>
<pdfrwt beam="1">  1        2 0.21801561E-01 0.38015858E+03</pdfrwt>
<pdfrwt beam="2">  1       -2 0.39224309E-01 0.38015858E+03</pdfrwt>
<totfact> 0.15654400E+03</totfact>
</mgrwt>
</event>
<event>
 7    1  0.4203474E-005  0.1697247E+03  0.7546771E-02  0.1202033E+00
         -2   -1    0    0    0  501 -0.00000000000E+00  0.00000000000E+00  0.44647509052E+02  0.44647509052E+02  0.00000000000E+00 0. -1.
          2   -1    0    0  501    0  0.00000000000E+00 -0.00000000000E+00 -0.40992350892E+03  0.40992350892E+03  0.00000000000E+00 0.  1.
         23    2    1    2    0    0  0.91405524567E+01  0.36851855967E+02 -0.11951954906E+03  0.15590282394E+03  0.92623749204E+02 0.  0.
          5    1    3    3  502    0 -0.32557456191E+02  0.45792611060E+02 -0.77588092348E+02  0.95911173778E+02  0.47000000000E+01 0. -1.
         -5    1    3    3    0  502  0.41698008648E+02 -0.89407550926E+01 -0.41931456715E+02  0.59991650161E+02  0.47000000000E+01 0.  1.
          5    1    1    2  503    0  0.29558237575E+02 -0.17052653564E+02  0.12569427072E+02  0.36668281921E+02  0.47000000000E+01 0. -1.
         -5    1    1    2    0  503 -0.38698790032E+02 -0.19799202403E+02 -0.25832587788E+03  0.26199991211E+03  0.47000000000E+01 0.  1.
<mgrwt>
<rscale>  0 0.14873779E+03</rscale>
<asrwt>0</asrwt>
<pdfrwt beam="1">  1        2 0.63065155E-01 0.16972465E+03</pdfrwt>
<pdfrwt beam="2">  1       -2 0.68688476E-02 0.16972465E+03</pdfrwt>
<totfact> 0.90064862E+03</totfact>
</mgrwt>
</event>
<event>
 7    1  0.4203474E-005  0.9330586E+02  0.7546771E-02  0.1321004E+00
         -2   -1    0    0    0  501 -0.00000000000E+00  0.00000000000E+00  0.50070035162E+01  0.50070035162E+01  0.00000000000E+00 0. -1.
          2   -1    0    0  501    0  0.00000000000E+00 -0.00000000000E+00 -0.11525581815E+04  0.11525581815E+04  0.00000000000E+00 0.  1.
         23    2    1    2    0    0  0.18299442332E+02  0.91646926177E+00 -0.75039288734E+03  0.75617158651E+03  0.91489198169E+02 0.  0.
          5    1    1    2  502    0  0.34177823354E+01 -0.23029339092E+02 -0.11034410884E+03  0.11287136063E+03  0.47000000000E+01 0. -1.
         -5    1    1    2    0  502 -0.21717224668E+02  0.22112869831E+02 -0.28681418177E+03  0.28852223783E+03  0.47000000000E+01 0.  1.
          5    1    3    3  503    0  0.26578901101E+02 -0.40942056909E+02 -0.46312021929E+03  0.46570926287E+03  0.47000000000E+01 0. -1.
         -5    1    3    3    0  503 -0.82794587687E+01  0.41858526170E+02 -0.28727266805E+03  0.29046232365E+03  0.47000000000E+01 0.  1.
<mgrwt>
<rscale>  0 0.82904899E+02</rscale>
<asrwt>0</asrwt>
<pdfrwt beam="1">  1        2 0.17731639E+00 0.93305857E+02</pdfrwt>
<pdfrwt beam="2">  1       -2 0.77030931E-03 0.93305857E+02</pdfrwt>
<totfact> 0.59887705E+04</totfact>
</mgrwt>
</event>
<event>
 7    1  0.4203474E-005  0.1588992E+03  0.7546771E-02  0.1206479E+00
         -2   -1    0    0    0  501 -0.00000000000E+00  0.00000000000E+00  0.43753564876E+02  0.43753564876E+02  0.00000000000E+00 0.  1.
          2   -1    0    0  501    0  0.00000000000E+00 -0.00000000000E+00 -0.54948800042E+03  0.54948800042E+03  0.00000000000E+00 0. -1.
         23    2    1    2    0    0  0.48034541588E+02 -0.42742060803E+02 -0.74194707817E+02  0.13337690906E+03  0.90279257053E+02 0.  0.
          5    1    3    3  502    0  0.69757659277E+02 -0.51258070221E+02 -0.53774225669E+02  0.10201606803E+03  0.47000000000E+01 0. -1.
         -5    1    1    2    0  503 -0.84007246726E+02 -0.15150157914E+02 -0.29571905517E+03  0.30782883942E+03  0.47000000000E+01 0.  1.
          5    1    1    2  503    0  0.35972705137E+02  0.57892218717E+02 -0.13582067255E+03  0.15203581682E+03  0.47000000000E+01 0. -1.
         -5    1    3    3    0  502 -0.21723117689E+02  0.85160094180E+01 -0.20420482148E+02  0.31360841023E+02  0.47000000000E+01 0.  1.
<mgrwt>
<rscale>  0 0.14521492E+03</rscale>
<asrwt>0</asrwt>
<pdfrwt beam="1">  1        2 0.84536612E-01 0.15889923E+03</pdfrwt>
<pdfrwt beam="2">  1       -2 0.67313180E-02 0.15889923E+03</pdfrwt>
<totfact> 0.67078896E+03</totfact>
</mgrwt>
</event>
<event>
 7    1  0.4203474E-005  0.1407799E+03  0.7546771E-02  0.1223373E+00
         -2   -1    0    0    0  501 -0.00000000000E+00  0.00000000000E+00  0.71972808176E+02  0.71972808176E+02  0.00000000000E+00 0.  1.
          2   -1    0    0  501    0  0.00000000000E+00 -0.00000000000E+00 -0.25507492474E+03  0.25507492474E+03  0.00000000000E+00 0. -1.
         23    2    1    2    0    0  0.74336098181E+02 -0.75608156442E+02 -0.16021914888E+03  0.21328184010E+03  0.92609496449E+02 0.  0.
          5    1    3    3  502    0  0.77821167601E+02 -0.37456402721E+02 -0.58323682188E+02  0.10432093815E+03  0.47000000000E+01 0. -1.
         -5    1    3    3    0  502 -0.34850694202E+01 -0.38151753721E+02 -0.10189546669E+03  0.10896090195E+03  0.47000000000E+01 0.  1.
          5    1    1    2  503    0 -0.19639103688E+02  0.34683334384E+02 -0.20931239287E+02  0.45264056996E+02  0.47000000000E+01 0. -1.
         -5    1    1    2    0  503 -0.54696994492E+02  0.40924822059E+02 -0.19517283892E+01  0.68501835820E+02  0.47000000000E+01 0.  1.
<mgrwt>
<rscale>  0 0.13279032E+03</rscale>
<asrwt>0</asrwt>
<pdfrwt beam="1">  1        2 0.39242296E-01 0.14077986E+03</pdfrwt>
<pdfrwt beam="2">  1       -2 0.11072740E-01 0.14077986E+03</pdfrwt>
<totfact> 0.70082780E+03</totfact>
</mgrwt>
</event>
<event>
 6    1  0.4203474E-005  0.4598499E+03  0.7546771E-02  0.1024825E+00
         -2   -1    0    0    0  501 -0.00000000000E+00  0.00000000000E+00  0.19550293895E+03  0.19550293895E+03  0.00000000000E+00 0.  1.
          2   -1    0    0  501    0  0.00000000000E+00 -0.00000000000E+00 -0.27040761169E+03  0.27040761169E+03  0.00000000000E+00 0. -1.
          5    1    1    2  502    0 -0.16813380715E+03  0.12443931203E+03 -0.67966578127E+01  0.20933801385E+03  0.47000000000E+01 0. -1.
         -5    1    1    2    0  503  0.10178794304E+03 -0.24999541623E+02 -0.79482198465E+01  0.10521894615E+03  0.47000000000E+01 0.  1.
          5    1    1    2  503    0  0.47444433046E+02 -0.87797924732E+02 -0.74397675730E+02  0.12456546058E+03  0.47000000000E+01 0. -1.
         -5    1    1    2    0  502  0.18901431062E+02 -0.11641845679E+02  0.14237880647E+02  0.26788130064E+02  0.47000000000E+01 0.  1.
<mgrwt>
<rscale>  0 0.45984990E+03</rscale>
<asrwt>0</asrwt>
<pdfrwt beam="1">  1        2 0.41601171E-01 0.45984990E+03</pdfrwt>
<pdfrwt beam="2">  1       -2 0.30077375E-01 0.45984990E+03</pdfrwt>
<totfact> 0.12548878E+03</totfact>
</mgrwt>
</event>
<event>
 7    1  0.4203474E-005  0.1046135E+03  0.7546771E-02  0.1307731E+00
          2   -1    0    0  501    0  0.00000000000E+00  0.00000000000E+00  0.12842299348E+03  0.12842299348E+03  0.00000000000E+00 0. -1.
         -2   -1    0    0    0  501 -0.00000000000E+00 -0.00000000000E+00 -0.63729309395E+02  0.63729309395E+02  0.00000000000E+00 0.  1.
         23    2    1    2    0    0 -0.28723715104E+02 -0.40449090580E+02 -0.52529241938E+01  0.10474533671E+03  0.92102180271E+02 0.  0.
          5    1    3    3  502    0 -0.29682276458E+02  0.17420557215E+02  0.21456790246E+02  0.40828877000E+02  0.47000000000E+01 0. -1.
         -5    1    3    3    0  502  0.95856135309E+00 -0.57869647795E+02 -0.26709714440E+02  0.63916459705E+02  0.47000000000E+01 0.  1.
          5    1    1    2  503    0  0.84603858528E+01  0.23848523240E+02  0.36568963202E+02  0.44718108851E+02  0.47000000000E+01 0. -1.
         -5    1    1    2    0  503  0.20263329252E+02  0.16600567340E+02  0.33377645076E+02  0.42688857319E+02  0.47000000000E+01 0.  1.
<mgrwt>
<rscale>  0 0.88015090E+02</rscale>
<asrwt>0</asrwt>
<pdfrwt beam="1">  1        2 0.19757384E-01 0.10461354E+03</pdfrwt>
<pdfrwt beam="2">  1       -2 0.98045092E-02 0.10461354E+03</pdfrwt>
<totfact> 0.17481113E+04</totfact>
</mgrwt>
</event>
<event>
 7    1  0.4203474E-005  0.1841268E+03  0.7546771E-02  0.1168398E+00
         -2   -1    0    0    0  501 -0.00000000000E+00  0.00000000000E+00  0.71838933818E+02  0.71838933818E+02  0.00000000000E+00 0.  1.
          2   -1    0    0  501    0  0.00000000000E+00 -0.00000000000E+00 -0.53828207433E+03  0.53828207433E+03  0.00000000000E+00 0. -1.
         23    2    1    2    0    0  0.23116836858E+02 -0.15803909256E+03 -0.38181640524E+03  0.42389435951E+03  0.91607411207E+02 0.  0.
          5    1    3    3  502    0 -0.84043181795E+01 -0.58665993588E+02 -0.24334371617E+03  0.25050066979E+03  0.47000000000E+01 0. -1.
         -5    1    1    2    0  503 -0.35356096699E+02  0.95567558959E+02 -0.54243584525E+02  0.11553210965E+03  0.47000000000E+01 0.  1.
          5    1    1    2  503    0  0.12239259841E+02  0.62471533605E+02 -0.30383150740E+02  0.70694538978E+02  0.47000000000E+01 0. -1.
         -5    1    3    3    0  502  0.31521155037E+02 -0.99373098976E+02 -0.13847268908E+03  0.17339368972E+03  0.47000000000E+01 0.  1.
<mgrwt>
<rscale>  0 0.17938706E+03</rscale>
<asrwt>0</asrwt>
<pdfrwt beam="1">  1        2 0.82812628E-01 0.18412675E+03</pdfrwt>
<pdfrwt beam="2">  1       -2 0.11052144E-01 0.18412675E+03</pdfrwt>
<totfact> 0.31837138E+03</totfact>
</mgrwt>
</event>
<event>
 7    1  0.4203474E-005  0.1179960E+03  0.7546771E-02  0.1269395E+00
         -2   -1    0    0    0  501 -0.00000000000E+00  0.00000000000E+00  0.21529775005E+02  0.21529775005E+02  0.00000000000E+00 0. -1.
          2   -1    0    0  501    0  0.00000000000E+00 -0.00000000000E+00 -0.47411108440E+03  0.47411108440E+03  0.00000000000E+00 0.  1.
         23    2    1    2    0    0  0.55292191861E+02 -0.47135682782E+02 -0.34386479615E+03  0.36354648233E+03  0.92973370988E+02 0.  0.
          5    1    1    2  502    0 -0.24719203372E+02  0.16095144270E+02 -0.56641538005E+02  0.64034728952E+02  0.47000000000E+01 0.  1.
         -5    1    3    3    0  503  0.23502159115E+02 -0.27635530038E+02 -0.31237656592E+03  0.31451118094E+03  0.47000000000E+01 0.  1.
          5    1    3    3  503    0  0.31790032747E+02 -0.19500152743E+02 -0.31488230228E+02  0.49035301385E+02  0.47000000000E+01 0. -1.
         -5    1    1    2    0  502 -0.30572988489E+02  0.31040538512E+02 -0.52074975246E+02  0.68059648127E+02  0.47000000000E+01 0. -1.
<mgrwt>
<rscale>  0 0.10536842E+03</rscale>
<asrwt>0</asrwt>
<pdfrwt beam="1">  1        2 0.72940170E-01 0.11799596E+03</pdfrwt>
<pdfrwt beam="2">  1       -2 0.33122729E-02 0.11799596E+03</pdfrwt>
<totfact> 0.22348656E+04</totfact>
</mgrwt>
</event>
<event>
 7    1  0.4203474E-005  0.1143484E+03  0.7546771E-02  0.1275684E+00
          2   -1    0    0  501    0  0.00000000000E+00  0.00000000000E+00  0.15392027098E+03  0.15392027098E+03  0.00000000000E+00 0. -1.
         -2   -1    0    0    0  501 -0.00000000000E+00 -0.00000000000E+00 -0.90501480177E+02  0.90501480177E+02  0.00000000000E+00 0.  1.
         23    2    1    2    0    0  0.43206995402E+02 -0.51328334384E+02 -0.37058088272E+02  0.12020339916E+03  0.92596505878E+02 0.  0.
          5    1    3    3  502    0 -0.23141443500E+02 -0.18800981162E+02 -0.34882996333E+02  0.46129347850E+02  0.47000000000E+01 0. -1.
         -5    1    3    3    0  502  0.66348438903E+02 -0.32527353222E+02 -0.21750919398E+01  0.74074051310E+02  0.47000000000E+01 0.  1.
          5    1    1    2  503    0 -0.24649715927E+02  0.11129462504E+02  0.28400796721E+02  0.39498970687E+02  0.47000000000E+01 0. -1.
         -5    1    1    2    0  503 -0.18557279475E+02  0.40198871880E+02  0.72076082352E+02  0.84719381307E+02  0.47000000000E+01 0.  1.
<mgrwt>
<rscale>  0 0.10222574E+03</rscale>
<asrwt>0</asrwt>
<pdfrwt beam="1">  1        2 0.23680042E-01 0.11434839E+03</pdfrwt>
<pdfrwt beam="2">  1       -2 0.13923305E-01 0.11434839E+03</pdfrwt>
<totfact> 0.82626520E+03</totfact>
</mgrwt>
</event>
<event>
 7    1  0.4203474E-005  0.1269123E+03  0.7546771E-02  0.1248064E+00
         -2   -1    0    0    0  501 -0.00000000000E+00  0.00000000000E+00  0.23047592156E+02  0.23047592156E+02  0.00000000000E+00 0.  1.
          2   -1    0    0  501    0  0.00000000000E+00 -0.00000000000E+00 -0.69454638563E+03  0.69454638563E+03  0.00000000000E+00 0. -1.
         23    2    1    2    0    0 -0.15765846702E+02 -0.86660146336E+02 -0.55474529293E+03  0.56907737861E+03  0.91368374849E+02 0.  0.
          5    1    1    2  502    0 -0.60018012799E+01  0.20054258261E+02 -0.30441548071E+02  0.37242082943E+02  0.47000000000E+01 0. -1.
         -5    1    1    2    0  502  0.21767647982E+02  0.66605888075E+02 -0.86311952472E+02  0.11127451624E+03  0.47000000000E+01 0.  1.
          5    1    3    3  503    0  0.15953972907E+02 -0.92772836925E+02 -0.41605219485E+03  0.42659447648E+03  0.47000000000E+01 0. -1.
         -5    1    3    3    0  503 -0.31719819609E+02  0.61126905887E+01 -0.13869309809E+03  0.14248290213E+03  0.47000000000E+01 0.  1.
<mgrwt>
<rscale>  0 0.11703859E+03</rscale>
<asrwt>0</asrwt>
<pdfrwt beam="1">  1        2 0.10685329E+00 0.12691226E+03</pdfrwt>
<pdfrwt beam="2">  1       -2 0.35457834E-02 0.12691226E+03</pdfrwt>
<totfact> 0.13235056E+04</totfact>
</mgrwt>
</event>
<event>
 7    1  0.4203474E-005  0.6153077E+03  0.7546771E-02  0.9874147E-01
         -2   -1    0    0    0  501 -0.00000000000E+00  0.00000000000E+00  0.20331094080E+03  0.20331094080E+03  0.00000000000E+00 0.  1.
          2   -1    0    0  501    0  0.00000000000E+00 -0.00000000000E+00 -0.46554750752E+03  0.46554750752E+03  0.00000000000E+00 0. -1.
         23    2    1    2    0    0 -0.54461171727E+02 -0.82663995549E+02 -0.30270041231E+03  0.33127102920E+03  0.91178943787E+02 0.  0.
          5    1    3    3  502    0 -0.17711844161E+02 -0.93008455750E+02 -0.23511024721E+03  0.25350187496E+03  0.47000000000E+01 0. -1.
         -5    1    1    2    0  503  0.41122710162E+02  0.48397337929E+02  0.18119270268E+03  0.19205797331E+03  0.47000000000E+01 0.  1.
          5    1    1    2  503    0  0.13338461564E+02  0.34266657620E+02 -0.14072885708E+03  0.14552944581E+03  0.47000000000E+01 0. -1.
         -5    1    3    3    0  502 -0.36749327566E+02  0.10344460202E+02 -0.67590165098E+02  0.77769154241E+02  0.47000000000E+01 0.  1.
<mgrwt>
<rscale>  0 0.61530773E+03</rscale>
<asrwt>0</asrwt>
<pdfrwt beam="1">  1        2 0.71622693E-01 0.61530773E+03</pdfrwt>
<pdfrwt beam="2">  1       -2 0.31278607E-01 0.61530773E+03</pdfrwt>
<totfact> 0.63804494E+02</totfact>
</mgrwt>
</event>
<event>
 7    1  0.4203474E-005  0.1099761E+03  0.7546771E-02  0.1286220E+00
          1   -1    0    0  501    0  0.00000000000E+00  0.00000000000E+00  0.37185592006E+03  0.37185592006E+03  0.00000000000E+00 0. -1.
         -1   -1    0    0    0  501 -0.00000000000E+00 -0.00000000000E+00 -0.36573009687E+02  0.36573009687E+02  0.00000000000E+00 0.  1.
         23    2    1    2    0    0  0.56694098781E+02  0.31525379879E+02  0.60442389740E+02  0.12549111446E+03  0.88806908049E+02 0.  0.
          5    1    3    3  502    0 -0.62810458338E+01  0.42980208176E+02  0.12694454441E+02  0.45497131835E+02  0.47000000000E+01 0. -1.
         -5    1    3    3    0  502  0.62975144614E+02 -0.11454828297E+02  0.47747935299E+02  0.79993982623E+02  0.47000000000E+01 0.  1.
          5    1    1    2  503    0 -0.30610472182E+02 -0.13033129438E+02  0.16754802848E+03  0.17088386500E+03  0.47000000000E+01 0. -1.
         -5    1    1    2    0  503 -0.26083626598E+02 -0.18492250442E+02  0.10729249216E+03  0.11205395029E+03  0.47000000000E+01 0.  1.
<mgrwt>
<rscale>  0 0.97235279E+02</rscale>
<asrwt>0</asrwt>
<pdfrwt beam="1">  1        1 0.57208600E-01 0.10997608E+03</pdfrwt>
<pdfrwt beam="2">  1       -1 0.56266171E-02 0.10997608E+03</pdfrwt>
<totfact> 0.91657641E+03</totfact>
</mgrwt>
</event>
<event>
 7    1  0.4203474E-005  0.1411619E+03  0.7546771E-02  0.1215826E+00
         -1   -1    0    0    0  501 -0.00000000000E+00  0.00000000000E+00  0.21479437831E+03  0.21479437831E+03  0.00000000000E+00 0.  1.
          1   -1    0    0  501    0  0.00000000000E+00 -0.00000000000E+00 -0.14914760330E+03  0.14914760330E+03  0.00000000000E+00 0. -1.
         23    2    1    2    0    0 -0.74702981288E+02 -0.10137364843E+03 -0.85381228713E+02  0.16497467003E+03  0.63792911251E+02 0.  0.
          5    1    1    2  502    0  0.69250303736E+02  0.74994513113E+02  0.11861445054E+03  0.15656072126E+03  0.47000000000E+01 0. -1.
         -5    1    3    3    0  503 -0.77877723706E+02 -0.57541949748E+02 -0.57321733913E+02  0.11262276417E+03  0.47000000000E+01 0.  1.
          5    1    3    3  503    0  0.31747424178E+01 -0.43831698686E+02 -0.28059494800E+02  0.52351905864E+02  0.47000000000E+01 0. -1.
         -5    1    1    2    0  502  0.54526775522E+01  0.26379135322E+02  0.32413553185E+02  0.42406590324E+02  0.47000000000E+01 0.  1.
<mgrwt>
<rscale>  0 0.13816003E+03</rscale>
<asrwt>0</asrwt>
<pdfrwt beam="1">  1        1 0.22945785E-01 0.14116192E+03</pdfrwt>
<pdfrwt beam="2">  1       -1 0.33045289E-01 0.14116192E+03</pdfrwt>
<totfact> 0.18075867E+03</totfact>
</mgrwt>
</event>
<event>
 7    1  0.4203474E-005  0.1135795E+03  0.7546771E-02  0.1277232E+00
         -1   -1    0    0    0  501 -0.00000000000E+00  0.00000000000E+00  0.12913257961E+03  0.12913257961E+03  0.00000000000E+00 0.  1.
          1   -1    0    0  501    0  0.00000000000E+00 -0.00000000000E+00 -0.79528845826E+02  0.79528845826E+02  0.00000000000E+00 0. -1.
         23    2    1    2    0    0  0.49282426461E+02 -0.48625633075E+02  0.70086077693E+02  0.13346295599E+03  0.90039394626E+02 0.  0.
          5    1    1    2  502    0 -0.23672090974E+02  0.20624820688E+02 -0.18863165141E+02  0.36927768936E+02  0.47000000000E+01 0. -1.
         -5    1    3    3    0  503  0.56058326929E+02  0.38906776688E+01  0.18392414165E+02  0.59313103862E+02  0.47000000000E+01 0.  1.
          5    1    3    3  503    0 -0.67759004688E+01 -0.52516310744E+02  0.51693663528E+02  0.74149852126E+02  0.47000000000E+01 0. -1.
         -5    1    1    2    0  502 -0.25610335487E+02  0.28000812388E+02 -0.16191787640E+01  0.38270700516E+02  0.47000000000E+01 0.  1.
<mgrwt>
<rscale>  0 0.10147113E+03</rscale>
<asrwt>0</asrwt>
<pdfrwt beam="1">  1        1 0.12235207E-01 0.11357950E+03</pdfrwt>
<pdfrwt beam="2">  1       -1 0.19866551E-01 0.11357950E+03</pdfrwt>
<totfact> 0.92383907E+03</totfact>
</mgrwt>
</event>
<event>
 7    1  0.4203474E-005  0.3994949E+03  0.7546771E-02  0.1051325E+00
          2   -1    0    0  501    0  0.00000000000E+00  0.00000000000E+00  0.20679916274E+04  0.20679916274E+04  0.00000000000E+00 0. -1.
         -2   -1    0    0    0  501 -0.00000000000E+00 -0.00000000000E+00 -0.70617484692E+02  0.70617484692E+02  0.00000000000E+00 0.  1.
         23    2    1    2    0    0  0.12488760018E+03  0.28392283589E+03  0.12500065723E+04  0.12911691872E+04  0.91609768386E+02 0.  0.
          5    1    1    2  502    0 -0.18685517402E+03 -0.26367574317E+03  0.53308813813E+03  0.62341383255E+03  0.47000000000E+01 0. -1.
         -5    1    3    3    0  503  0.11547756282E+03  0.23783901353E+03  0.90183810060E+03  0.93980663627E+03  0.47000000000E+01 0.  1.
          5    1    3    3  503    0  0.94100373615E+01  0.46083822353E+02  0.34816847174E+03  0.35136255094E+03  0.47000000000E+01 0. -1.
         -5    1    1    2    0  502  0.61967573839E+02 -0.20247092714E+02  0.21427943219E+03  0.22402609230E+03  0.47000000000E+01 0.  1.
<mgrwt>
<rscale>  0 0.37894449E+03</rscale>
<asrwt>0</asrwt>
<pdfrwt beam="1">  1        2 0.31815251E+00 0.39949486E+03</pdfrwt>
<pdfrwt beam="2">  1       -2 0.10864230E-01 0.39949486E+03</pdfrwt>
<totfact> 0.38990683E+02</totfact>
</mgrwt>
</event>
<event>
 6    1  0.4203474E-005  0.1764327E+03  0.7546771E-02  0.1203458E+00
          2   -1    0    0  501    0  0.00000000000E+00  0.00000000000E+00  0.10663840753E+04  0.10663840753E+04  0.00000000000E+00 0. -1.
         -2   -1    0    0    0  501 -0.00000000000E+00 -0.00000000000E+00 -0.16224070578E+02  0.16224070578E+02  0.00000000000E+00 0.  1.
          5    1    1    2  502    0 -0.65773223877E+02  0.39944426313E+02  0.19126852171E+03  0.20622175339E+03  0.47000000000E+01 0. -1.
         -5    1    1    2    0  502 -0.39544957905E+00 -0.85832058414E+02  0.49231107796E+03  0.49975952829E+03  0.47000000000E+01 0.  1.
          5    1    1    2  503    0  0.39194170452E+02  0.32303483104E+02  0.28457908842E+03  0.28911424314E+03  0.47000000000E+01 0. -1.
         -5    1    1    2    0  503  0.26974503004E+02  0.13584148996E+02  0.82001316591E+02  0.87512621026E+02  0.47000000000E+01 0.  1.
<mgrwt>
<rscale>  0 0.14759604E+03</rscale>
<asrwt>0</asrwt>
<pdfrwt beam="1">  1        2 0.16405903E+00 0.17643271E+03</pdfrwt>
<pdfrwt beam="2">  1       -2 0.24960117E-02 0.17643271E+03</pdfrwt>
<totfact> 0.13011762E+04</totfact>
</mgrwt>
</event>
<event>
 6    1  0.4203474E-005  0.3436417E+03  0.7546771E-02  0.1065255E+00
         -3   -1    0    0    0  501 -0.00000000000E+00  0.00000000000E+00  0.65133331093E+03  0.65133331093E+03  0.00000000000E+00 0.  1.
          3   -1    0    0  501    0  0.00000000000E+00 -0.00000000000E+00 -0.45326115663E+02  0.45326115663E+02  0.00000000000E+00 0. -1.
          5    1    1    2  502    0 -0.59795271964E+02  0.89092275303E+02  0.54008323276E+02  0.12021604323E+03  0.47000000000E+01 0. -1.
         -5    1    1    2    0  502  0.22441444632E+02 -0.59541844714E+02  0.23177922421E+03  0.24040080799E+03  0.47000000000E+01 0.  1.
          5    1    1    2  503    0  0.17611088191E+01 -0.40543183676E+02  0.56828607528E+02  0.69988798250E+02  0.47000000000E+01 0. -1.
         -5    1    1    2    0  503  0.35592718512E+02  0.10992753088E+02  0.26339104025E+03  0.26605377711E+03  0.47000000000E+01 0.  1.
<mgrwt>
<rscale>  0 0.34364173E+03</rscale>
<asrwt>0</asrwt>
<pdfrwt beam="1">  1        3 0.69732490E-02 0.34364173E+03</pdfrwt>
<pdfrwt beam="2">  1       -3 0.10020512E+00 0.34364173E+03</pdfrwt>
<totfact> 0.31001857E+02</totfact>
</mgrwt>
</event>
<event>
 7    1  0.4203474E-005  0.1363520E+03  0.7546771E-02  0.1224381E+00
         -2   -1    0    0    0  501 -0.00000000000E+00  0.00000000000E+00  0.24569605629E+03  0.24569605629E+03  0.00000000000E+00 0.  1.
          2   -1    0    0  501    0  0.00000000000E+00 -0.00000000000E+00 -0.91651811911E+02  0.91651811911E+02  0.00000000000E+00 0. -1.
         23    2    1    2    0    0  0.56066699994E+02 -0.99936082219E+02  0.16807548390E+03  0.21642835136E+03  0.73899713158E+02 0.  0.
          5    1    1    2  502    0 -0.37472489157E+01  0.32289596608E+02 -0.12837109949E+02  0.35263881173E+02  0.47000000000E+01 0.  1.
         -5    1    1    2    0  502 -0.52319451079E+02  0.67646485612E+02 -0.11941295730E+01  0.85655635671E+02  0.47000000000E+01 0. -1.
          5    1    3    3  503    0  0.44925902015E+02 -0.28848761887E+02  0.31987916736E+02  0.62417181540E+02  0.47000000000E+01 0. -1.
         -5    1    3    3    0  503  0.11140797980E+02 -0.71087320332E+02  0.13608756716E+03  0.15401116982E+03  0.47000000000E+01 0.  1.
<mgrwt>
<rscale>  0 0.13209436E+03</rscale>
<asrwt>0</asrwt>
<pdfrwt beam="1">  1        2 0.14100279E-01 0.13635198E+03</pdfrwt>
<pdfrwt beam="2">  1       -2 0.37799393E-01 0.13635198E+03</pdfrwt>
<totfact> 0.26869507E+03</totfact>
</mgrwt>
</event>
<event>
 7    1  0.4203474E-005  0.5298152E+03  0.7546771E-02  0.1007368E+00
          2   -1    0    0  501    0  0.00000000000E+00  0.00000000000E+00  0.10156035576E+04  0.10156035576E+04  0.00000000000E+00 0. -1.
         -2   -1    0    0    0  501 -0.00000000000E+00 -0.00000000000E+00 -0.26747674269E+03  0.26747674269E+03  0.00000000000E+00 0.  1.
         23    2    1    2    0    0  0.94639510559E+02  0.49542622799E+03  0.34905044497E+03  0.61978086387E+03  0.88816224527E+02 0.  0.
          5    1    3    3  502    0  0.54563441337E+02  0.98994697498E+02  0.65669832268E+02  0.13081183484E+03  0.47000000000E+01 0. -1.
         -5    1    1    2    0  503 -0.11435057869E+03 -0.19586547838E+03  0.20527031251E+03  0.30593680992E+03  0.47000000000E+01 0.  1.
          5    1    1    2  503    0  0.19711068128E+02 -0.29956074961E+03  0.19380605739E+03  0.35736262647E+03  0.47000000000E+01 0. -1.
         -5    1    3    3    0  502  0.40076069222E+02  0.39643153050E+03  0.28338061270E+03  0.48896902903E+03  0.47000000000E+01 0.  1.
<mgrwt>
<rscale>  0 0.52534123E+03</rscale>
<asrwt>0</asrwt>
<pdfrwt beam="1">  1        2 0.15624670E+00 0.52981524E+03</pdfrwt>
<pdfrwt beam="2">  1       -2 0.41150269E-01 0.52981524E+03</pdfrwt>
<totfact> 0.14180253E+02</totfact>
</mgrwt>
</event>
<event>
 7    1  0.4203474E-005  0.1039938E+03  0.7546771E-02  0.1292377E+00
          1   -1    0    0  501    0  0.00000000000E+00  0.00000000000E+00  0.36202329932E+02  0.36202329932E+02  0.00000000000E+00 0. -1.
         -1   -1    0    0    0  501 -0.00000000000E+00 -0.00000000000E+00 -0.32600230208E+03  0.32600230208E+03  0.00000000000E+00 0.  1.
         23    2    1    2    0    0 -0.55895213461E+02  0.13258947067E+02 -0.56410761083E+02  0.11830838726E+03  0.86686942296E+02 0.  0.
          5    1    3    3  502    0 -0.12529756571E+02 -0.16631256645E+02  0.17380253960E+02  0.27527381369E+02  0.47000000000E+01 0. -1.
         -5    1    1    2    0  503  0.35528328204E+02 -0.16871003156E+02 -0.82420722654E+02  0.91444837882E+02  0.47000000000E+01 0.  1.
          5    1    1    2  503    0  0.20366885257E+02  0.36120560884E+01 -0.15096848841E+03  0.15245140688E+03  0.47000000000E+01 0. -1.
         -5    1    3    3    0  502 -0.43365456890E+02  0.29890203712E+02 -0.73791015043E+02  0.90781005889E+02  0.47000000000E+01 0.  1.
<mgrwt>
<rscale>  0 0.94468654E+02</rscale>
<asrwt>0</asrwt>
<pdfrwt beam="1">  1        1 0.55695894E-02 0.10399375E+03</pdfrwt>
<pdfrwt beam="2">  1       -1 0.50154198E-01 0.10399375E+03</pdfrwt>
<totfact> 0.54614844E+03</totfact>
</mgrwt>
</event>
<event>
 7    1  0.4203474E-005  0.2178096E+03  0.7546771E-02  0.1138590E+00
         -2   -1    0    0    0  501 -0.00000000000E+00  0.00000000000E+00  0.83368772671E+02  0.83368772671E+02  0.00000000000E+00 0.  1.
          2   -1    0    0  501    0  0.00000000000E+00 -0.00000000000E+00 -0.13725808876E+04  0.13725808876E+04  0.00000000000E+00 0. -1.
         23    2    1    2    0    0  0.15817435333E+03  0.87560395140E+02 -0.12059208411E+04  0.12227577413E+04  0.90584049580E+02 0.  0.
          5    1    1    2  502    0 -0.60952331423E+02  0.22282062982E+02 -0.13041948539E+01  0.65080472961E+02  0.47000000000E+01 0. -1.
         -5    1    1    2    0  502 -0.97222021909E+02 -0.10984245812E+03 -0.81987078898E+02  0.16811144594E+03  0.47000000000E+01 0.  1.
          5    1    3    3  503    0  0.14288752370E+03  0.42485546912E+02 -0.10169426646E+04  0.10278211611E+04  0.47000000000E+01 0. -1.
         -5    1    3    3    0  503  0.15286829636E+02  0.45074848228E+02 -0.18897817657E+03  0.19493658025E+03  0.47000000000E+01 0.  1.
<mgrwt>
<rscale>  0 0.21380203E+03</rscale>
<asrwt>0</asrwt>
<pdfrwt beam="1">  1        2 0.21116627E+00 0.21780963E+03</pdfrwt>
<pdfrwt beam="2">  1       -2 0.12825966E-01 0.21780963E+03</pdfrwt>
<totfact> 0.71558897E+02</totfact>
</mgrwt>
</event>
<event>
 7    1  0.4203474E-005  0.9809629E+02  0.7546771E-02  0.1293195E+00
          2   -1    0    0  501    0  0.00000000000E+00  0.00000000000E+00  0.45971609084E+03  0.45971609084E+03  0.00000000000E+00 0.  1.
         -2   -1    0    0    0  501 -0.00000000000E+00 -0.00000000000E+00 -0.22026598550E+02  0.22026598550E+02  0.00000000000E+00 0. -1.
         23    2    1    2    0    0 -0.11638931970E+02  0.38868606359E+02  0.12897822980E+03  0.16204402253E+03  0.89312083042E+02 0.  0.
          5    1    1    2  502    0 -0.23689919177E+02  0.73257731386E+00  0.49670473355E+02  0.55235811422E+02  0.47000000000E+01 0. -1.
         -5    1    1    2    0  502  0.35328851146E+02 -0.39601183673E+02  0.25904078913E+03  0.26446285543E+03  0.47000000000E+01 0.  1.
          5    1    3    3  503    0 -0.38609739115E+02  0.33922727682E+02  0.31026071878E+02  0.60217692949E+02  0.47000000000E+01 0. -1.
         -5    1    3    3    0  503  0.26970807146E+02  0.49458786774E+01  0.97952157926E+02  0.10182632958E+03  0.47000000000E+01 0.  1.
<mgrwt>
<rscale>  0 0.94109116E+02</rscale>
<asrwt>0</asrwt>
<pdfrwt beam="1">  1        2 0.70725545E-01 0.98096287E+02</pdfrwt>
<pdfrwt beam="2">  1       -2 0.33887078E-02 0.98096287E+02</pdfrwt>
<totfact> 0.21945286E+04</totfact>
</mgrwt>
</event>
<event>
 7    1  0.4203474E-005  0.1137512E+03  0.7546771E-02  0.1276031E+00
         -2   -1    0    0    0  501 -0.00000000000E+00  0.00000000000E+00  0.15713028260E+02  0.15713028260E+02  0.00000000000E+00 0. -1.
          2   -1    0    0  501    0  0.00000000000E+00 -0.00000000000E+00 -0.65528102207E+03  0.65528102207E+03  0.00000000000E+00 0.  1.
         23    2    1    2    0    0  0.67310997153E+02  0.21424142177E+02 -0.25204969768E+03  0.27652919244E+03  0.89160417039E+02 0.  0.
          5    1    1    2  502    0 -0.39680251607E+02 -0.52225064900E+01 -0.18160284313E+03  0.18602010529E+03  0.47000000000E+01 0.  1.
         -5    1    3    3    0  503  0.43048591814E+02  0.45039891666E+02 -0.22325971211E+03  0.23183779276E+03  0.47000000000E+01 0.  1.
          5    1    3    3  503    0  0.24262405339E+02 -0.23615749489E+02 -0.28789985568E+02  0.44691399684E+02  0.47000000000E+01 0. -1.
         -5    1    1    2    0  502 -0.27630745545E+02 -0.16201635686E+02 -0.20591545300E+03  0.20844475259E+03  0.47000000000E+01 0.  1.
<mgrwt>
<rscale>  0 0.10205588E+03</rscale>
<asrwt>0</asrwt>
<pdfrwt beam="1">  1        2 0.10081245E+00 0.11375124E+03</pdfrwt>
<pdfrwt beam="2">  1       -2 0.24173894E-02 0.11375124E+03</pdfrwt>
<totfact> 0.24597789E+04</totfact>
</mgrwt>
</event>
<event>
 7    1  0.4203474E-005  0.1031469E+03  0.7546771E-02  0.1302180E+00
          2   -1    0    0  501    0  0.00000000000E+00  0.00000000000E+00  0.43363778492E+03  0.43363778492E+03  0.00000000000E+00 0. -1.
         -2   -1    0    0    0  501 -0.00000000000E+00 -0.00000000000E+00 -0.15447692435E+02  0.15447692435E+02  0.00000000000E+00 0.  1.
         23    2    1    2    0    0  0.18629898283E+02  0.54243093837E+02  0.26658844931E+03  0.28584729381E+03  0.85731486230E+02 0.  0.
          5    1    1    2  502    0 -0.17552984966E+02 -0.34149623286E+02  0.82610335417E+02  0.91218756676E+02  0.47000000000E+01 0.  1.
         -5    1    3    3    0  503  0.11068835360E+02  0.73051098945E+02  0.24466483736E+03  0.25562072454E+03  0.47000000000E+01 0. -1.
          5    1    3    3  503    0  0.75610629234E+01 -0.18808005108E+02  0.21923611950E+02  0.30226569267E+02  0.47000000000E+01 0.  1.
         -5    1    1    2    0  502 -0.10769133175E+01 -0.20093470551E+02  0.68991307751E+02  0.72019426867E+02  0.47000000000E+01 0.  1.
<mgrwt>
<rscale>  0 0.90277847E+02</rscale>
<asrwt>0</asrwt>
<pdfrwt beam="1">  1        2 0.66713496E-01 0.10314686E+03</pdfrwt>
<pdfrwt beam="2">  1       -2 0.23765684E-02 0.10314686E+03</pdfrwt>
<totfact> 0.39361326E+04</totfact>
</mgrwt>
</event>
<event>
 7    1  0.4203474E-005  0.1003051E+03  0.7546771E-02  0.1305173E+00
         -1   -1    0    0    0  501 -0.00000000000E+00  0.00000000000E+00  0.41874343970E+02  0.41874343970E+02  0.00000000000E+00 0.  1.
          1   -1    0    0  501    0  0.00000000000E+00 -0.00000000000E+00 -0.16785033505E+03  0.16785033505E+03  0.00000000000E+00 0. -1.
         23    2    1    2    0    0  0.50233412767E+02 -0.16105554766E+02 -0.51923696160E+02  0.11294768273E+03  0.85313094885E+02 0.  0.
          5    1    1    2  502    0 -0.28967072901E+02  0.17468766266E+02 -0.64442412628E+02  0.72932596640E+02  0.47000000000E+01 0. -1.
         -5    1    3    3    0  503  0.38520952604E+02 -0.48067400591E+02 -0.48253604093E+02  0.78389024085E+02  0.47000000000E+01 0.  1.
          5    1    3    3  503    0  0.11712460164E+02  0.31961845825E+02 -0.36700920668E+01  0.34558658646E+02  0.47000000000E+01 0. -1.
         -5    1    1    2    0  502 -0.21266339867E+02 -0.13632115002E+01 -0.96098822905E+01  0.23844399647E+02  0.47000000000E+01 0.  1.
<mgrwt>
<rscale>  0 0.89048121E+02</rscale>
<asrwt>0</asrwt>
<pdfrwt beam="1">  1        1 0.25823128E-01 0.10030508E+03</pdfrwt>
<pdfrwt beam="2">  1       -1 0.64422068E-02 0.10030508E+03</pdfrwt>
<totfact> 0.19808377E+04</totfact>
</mgrwt>
</event>
