<event>
 7    1  0.8788345E-015  0.9228715E+02  0.7546771E-02  0.1297406E+00
         -1   -1    0    0    0  501 -0.00000000000E+00  0.00000000000E+00  0.32370155935E+01  0.32370155935E+01  0.00000000000E+00 0.  1.
          1   -1    0    0  501    0  0.00000000000E+00 -0.00000000000E+00 -0.65777544667E+03  0.65777544667E+03  0.00000000000E+00 0. -1.
         23    2    1    2    0    0  0.00000000000E+00  0.00000000000E+00 -0.65453843108E+03  0.66101246226E+03  0.92287147055E+02 0.  0.
          5    1    3    3  502    0  0.10536732166E+02 -0.18183774898E+02 -0.14667955772E+03  0.14825199846E+03  0.47000000000E+01 0. -1.
         -5    1    3    3    0  503 -0.12857978438E+02  0.16057141447E+02 -0.14570277235E+03  0.14722278109E+03  0.47000000000E+01 0.  1.
          5    1    3    3  503    0 -0.51946248590E+01 -0.22332514258E+02 -0.15585207422E+03  0.15759976003E+03  0.47000000000E+01 0.  1.
         -5    1    3    3    0  502  0.75158711303E+01  0.24459147710E+02 -0.20630402678E+03  0.20793792269E+03  0.47000000000E+01 0. -1.
<mgrwt>
<rscale>  0 0.92287147E+02</rscale>
<asrwt>0</asrwt>
<pdfrwt beam="1">  1        1 0.10119627E+00 0.92287147E+02</pdfrwt>
<pdfrwt beam="2">  1       -1 0.49800219E-03 0.92287147E+02</pdfrwt>
<totfact> 0.13763933E+05</totfact>
</mgrwt>
</event>
<event>
 7    1  0.8788345E-015  0.9095877E+02  0.7546771E-02  0.1300546E+00
         -4   -1    0    0    0  501 -0.00000000000E+00  0.00000000000E+00  0.49044854166E+02  0.49044854166E+02  0.00000000000E+00 0.  1.
          4   -1    0    0  501    0  0.00000000000E+00 -0.00000000000E+00 -0.42173117642E+02  0.42173117642E+02  0.00000000000E+00 0. -1.
         23    2    1    2    0    0 -0.35527136788E-14  0.53290705182E-14  0.68717365241E+01  0.91217971807E+02  0.90958768779E+02 0.  0.
          5    1    3    3  502    0  0.21543080642E+02  0.72175064664E+01  0.15262877743E+01  0.23251156476E+02  0.47000000000E+01 0.  1.
         -5    1    3    3    0  502 -0.13883121105E+02  0.14947648289E+02  0.14712094987E+01  0.20986369347E+02  0.47000000000E+01 0.  1.
          5    1    3    3  503    0  0.11979689395E+02 -0.16904944241E+02 -0.83131136685E+01  0.22814205151E+02  0.47000000000E+01 0. -1.
         -5    1    3    3    0  503 -0.19639648932E+02 -0.52602105141E+01  0.12187352920E+02  0.24166240833E+02  0.47000000000E+01 0. -1.
<mgrwt>
<rscale>  0 0.90958769E+02</rscale>
<asrwt>0</asrwt>
<pdfrwt beam="1">  1        4 0.64881720E-02 0.90958769E+02</pdfrwt>
<pdfrwt beam="2">  1       -4 0.75453621E-02 0.90958769E+02</pdfrwt>
<totfact> 0.27189955E+04</totfact>
</mgrwt>
</event>
<event>
 7    1  0.8788345E-015  0.1009766E+03  0.7546771E-02  0.1278256E+00
          2   -1    0    0  501    0  0.00000000000E+00  0.00000000000E+00  0.90038819851E+01  0.90038819851E+01  0.00000000000E+00 0. -1.
         -2   -1    0    0    0  501 -0.00000000000E+00 -0.00000000000E+00 -0.28310759212E+03  0.28310759212E+03  0.00000000000E+00 0.  1.
         23    2    1    2    0    0  0.00000000000E+00  0.00000000000E+00 -0.27410371014E+03  0.29211147411E+03  0.10097657844E+03 0.  0.
          5    1    3    3  502    0  0.21698930243E+02 -0.52888886943E+01 -0.58174487823E+02  0.62491415016E+02  0.47000000000E+01 0.  1.
         -5    1    3    3    0  503 -0.24341477366E+02  0.40288157881E+01 -0.43331349341E+02  0.50084276102E+02  0.47000000000E+01 0. -1.
          5    1    3    3  503    0  0.17155096687E+02  0.18892031718E+02 -0.98187248585E+02  0.10155802277E+03  0.47000000000E+01 0. -1.
         -5    1    3    3    0  502 -0.14512549565E+02 -0.17631958812E+02 -0.74410624390E+02  0.77977760218E+02  0.47000000000E+01 0.  1.
<mgrwt>
<rscale>  0 0.10097658E+03</rscale>
<asrwt>0</asrwt>
<pdfrwt beam="1">  1        2 0.13852128E-02 0.10097658E+03</pdfrwt>
<pdfrwt beam="2">  1       -2 0.43555009E-01 0.10097658E+03</pdfrwt>
<totfact> 0.40468801E+04</totfact>
</mgrwt>
</event>
<event>
 7    1  0.8788345E-015  0.1025439E+03  0.7546771E-02  0.1275036E+00
          1   -1    0    0  501    0  0.00000000000E+00  0.00000000000E+00  0.52320577169E+03  0.52320577169E+03  0.00000000000E+00 0. -1.
         -1   -1    0    0    0  501 -0.00000000000E+00 -0.00000000000E+00 -0.50244351662E+01  0.50244351662E+01  0.00000000000E+00 0.  1.
         23    2    1    2    0    0  0.26645352591E-14  0.00000000000E+00  0.51818133653E+03  0.52823020686E+03  0.10254391212E+03 0.  0.
          5    1    3    3  502    0 -0.13298784275E+01  0.25456448200E+02  0.14307181801E+03  0.14540094374E+03  0.47000000000E+01 0. -1.
         -5    1    3    3    0  503  0.18868181434E+02  0.97310840637E+01  0.13442752532E+03  0.13617471069E+03  0.47000000000E+01 0.  1.
          5    1    3    3  503    0  0.51116986005E+01 -0.28857611321E+02  0.12036993139E+03  0.12397540714E+03  0.47000000000E+01 0.  1.
         -5    1    3    3    0  502 -0.22650001607E+02 -0.63299209428E+01  0.12031206180E+03  0.12267914528E+03  0.47000000000E+01 0. -1.
<mgrwt>
<rscale>  0 0.10254391E+03</rscale>
<asrwt>0</asrwt>
<pdfrwt beam="1">  1        1 0.80493153E-01 0.10254391E+03</pdfrwt>
<pdfrwt beam="2">  1       -1 0.77299044E-03 0.10254391E+03</pdfrwt>
<totfact> 0.10234608E+05</totfact>
</mgrwt>
</event>
<event>
 7    1  0.8788345E-015  0.9055353E+02  0.7546771E-02  0.1301517E+00
         -4   -1    0    0    0  501 -0.00000000000E+00  0.00000000000E+00  0.12486718658E+03  0.12486718658E+03  0.00000000000E+00 0.  1.
          4   -1    0    0  501    0  0.00000000000E+00 -0.00000000000E+00 -0.16417326590E+02  0.16417326590E+02  0.00000000000E+00 0. -1.
         23    2    1    2    0    0  0.00000000000E+00 -0.35527136788E-14  0.10844985999E+03  0.14128451317E+03  0.90553528533E+02 0.  0.
          5    1    3    3  502    0  0.10178699807E+02  0.17519914810E+02  0.32078168186E+02  0.38231560509E+02  0.47000000000E+01 0. -1.
         -5    1    3    3    0  503 -0.11751780771E+02 -0.21476261287E+02  0.19981836232E+02  0.31948363485E+02  0.47000000000E+01 0.  1.
          5    1    3    3  503    0 -0.18060690576E+02  0.11294375179E+02  0.29460044210E+02  0.36657000145E+02  0.47000000000E+01 0.  1.
         -5    1    3    3    0  502  0.19633771540E+02 -0.73380287018E+01  0.26929811359E+02  0.34447589029E+02  0.47000000000E+01 0. -1.
<mgrwt>
<rscale>  0 0.90553529E+02</rscale>
<asrwt>0</asrwt>
<pdfrwt beam="1">  1        4 0.25257426E-02 0.90553529E+02</pdfrwt>
<pdfrwt beam="2">  1       -4 0.19210336E-01 0.90553529E+02</pdfrwt>
<totfact> 0.24567363E+04</totfact>
</mgrwt>
</event>
<event>
 7    1  0.8788345E-015  0.9113314E+02  0.7546771E-02  0.1300131E+00
          3   -1    0    0  501    0  0.00000000000E+00  0.00000000000E+00  0.50102466803E+02  0.50102466803E+02  0.00000000000E+00 0. -1.
         -3   -1    0    0    0  501 -0.00000000000E+00 -0.00000000000E+00 -0.41441318093E+02  0.41441318093E+02  0.00000000000E+00 0.  1.
         23    2    1    2    0    0  0.00000000000E+00 -0.17763568394E-14  0.86611487095E+01  0.91543784896E+02  0.91133139177E+02 0.  0.
          5    1    3    3  502    0 -0.21286974075E+02 -0.42726192609E+01  0.39863124842E+01  0.22569254039E+02  0.47000000000E+01 0.  1.
         -5    1    3    3    0  503  0.21735950932E+02  0.51080684530E+01  0.40618070569E+00  0.22821019017E+02  0.47000000000E+01 0.  1.
          5    1    3    3  503    0 -0.19273428515E+02  0.11510285769E+02  0.28611086563E+01  0.23113365570E+02  0.47000000000E+01 0. -1.
         -5    1    3    3    0  502  0.18824451659E+02 -0.12345734962E+02  0.14075468634E+01  0.23040146271E+02  0.47000000000E+01 0.  1.
<mgrwt>
<rscale>  0 0.91133139E+02</rscale>
<asrwt>0</asrwt>
<pdfrwt beam="1">  1        3 0.77080719E-02 0.91133139E+02</pdfrwt>
<pdfrwt beam="2">  1       -3 0.63755874E-02 0.91133139E+02</pdfrwt>
<totfact> 0.35356766E+04</totfact>
</mgrwt>
</event>
<event>
 7    1  0.8788345E-015  0.9214005E+02  0.7546771E-02  0.1297750E+00
          4   -1    0    0  501    0  0.00000000000E+00  0.00000000000E+00  0.14298961168E+03  0.14298961168E+03  0.00000000000E+00 0. -1.
         -4   -1    0    0    0  501 -0.00000000000E+00 -0.00000000000E+00 -0.14843367041E+02  0.14843367041E+02  0.00000000000E+00 0.  1.
         23    2    1    2    0    0  0.00000000000E+00  0.35527136788E-14  0.12814624464E+03  0.15783297872E+03  0.92140051859E+02 0.  0.
          5    1    3    3  502    0 -0.10262057799E+02 -0.19966074862E+02  0.29756560903E+02  0.37569893431E+02  0.47000000000E+01 0.  1.
         -5    1    3    3    0  502  0.22180063902E+02  0.64987902456E+01  0.30457333869E+02  0.38521795074E+02  0.47000000000E+01 0. -1.
          5    1    3    3  503    0 -0.21789939370E+02 -0.49712418094E+01  0.44261381147E+02  0.49806370716E+02  0.47000000000E+01 0. -1.
         -5    1    3    3    0  503  0.98719332673E+01  0.18438526426E+02  0.23670968717E+02  0.31934919495E+02  0.47000000000E+01 0.  1.
<mgrwt>
<rscale>  0 0.92140052E+02</rscale>
<asrwt>0</asrwt>
<pdfrwt beam="1">  1        4 0.21998401E-01 0.92140052E+02</pdfrwt>
<pdfrwt beam="2">  1       -4 0.22835950E-02 0.92140052E+02</pdfrwt>
<totfact> 0.22635661E+04</totfact>
</mgrwt>
</event>
<event>
 7    1  0.8788345E-015  0.9145750E+02  0.7546771E-02  0.1299360E+00
          2   -1    0    0  501    0  0.00000000000E+00  0.00000000000E+00  0.51331446420E+03  0.51331446420E+03  0.00000000000E+00 0. -1.
         -2   -1    0    0    0  501 -0.00000000000E+00 -0.00000000000E+00 -0.40737571278E+01  0.40737571278E+01  0.00000000000E+00 0.  1.
         23    2    1    2    0    0  0.00000000000E+00  0.00000000000E+00  0.50924070707E+03  0.51738822133E+03  0.91457497393E+02 0.  0.
          5    1    3    3  502    0 -0.19955739338E+02  0.77512914203E+01  0.87130011494E+02  0.89844548828E+02  0.47000000000E+01 0. -1.
         -5    1    3    3    0  503  0.20749801426E+02 -0.37033980839E+01  0.95190117260E+02  0.97609004915E+02  0.47000000000E+01 0.  1.
          5    1    3    3  503    0 -0.19459300300E+02  0.81743676235E+01  0.14982058234E+03  0.15137298817E+03  0.47000000000E+01 0. -1.
         -5    1    3    3    0  502  0.18665238212E+02 -0.12222260960E+02  0.17709999598E+03  0.17856167942E+03  0.47000000000E+01 0.  1.
<mgrwt>
<rscale>  0 0.91457497E+02</rscale>
<asrwt>0</asrwt>
<pdfrwt beam="1">  1        2 0.78971405E-01 0.91457497E+02</pdfrwt>
<pdfrwt beam="2">  1       -2 0.62673227E-03 0.91457497E+02</pdfrwt>
<totfact> 0.21556944E+05</totfact>
</mgrwt>
</event>
<event>
 7    1  0.8788345E-015  0.9452486E+02  0.7546771E-02  0.1292250E+00
         -1   -1    0    0    0  501 -0.00000000000E+00  0.00000000000E+00  0.94363609104E+01  0.94363609104E+01  0.00000000000E+00 0.  1.
          1   -1    0    0  501    0  0.00000000000E+00 -0.00000000000E+00 -0.23671594622E+03  0.23671594622E+03  0.00000000000E+00 0. -1.
         23    2    1    2    0    0 -0.35527136788E-14 -0.44408920985E-15 -0.22727958530E+03  0.24615230713E+03  0.94524856027E+02 0.  0.
          5    1    3    3  502    0  0.51638307792E+01  0.19669611948E+02 -0.84047479810E+02  0.86600390559E+02  0.47000000000E+01 0. -1.
         -5    1    3    3    0  502 -0.30390057631E+01 -0.25523654505E+02 -0.62202450879E+02  0.67467973074E+02  0.47000000000E+01 0. -1.
          5    1    3    3  503    0 -0.21317426652E+02 -0.13747639123E+00 -0.30579424329E+02  0.37571834812E+02  0.47000000000E+01 0.  1.
         -5    1    3    3    0  503  0.19192601636E+02  0.59915189489E+01 -0.50450230286E+02  0.54512108681E+02  0.47000000000E+01 0.  1.
<mgrwt>
<rscale>  0 0.94524856E+02</rscale>
<asrwt>0</asrwt>
<pdfrwt beam="1">  1        1 0.36417839E-01 0.94524856E+02</pdfrwt>
<pdfrwt beam="2">  1       -1 0.14517478E-02 0.94524856E+02</pdfrwt>
<totfact> 0.11108463E+05</totfact>
</mgrwt>
</event>
<event>
 7    1  0.8788345E-015  0.9498012E+02  0.7546771E-02  0.1291221E+00
         -2   -1    0    0    0  501 -0.00000000000E+00  0.00000000000E+00  0.77949233397E+01  0.77949233397E+01  0.00000000000E+00 0.  1.
          2   -1    0    0  501    0  0.00000000000E+00 -0.00000000000E+00 -0.28933006744E+03  0.28933006744E+03  0.00000000000E+00 0. -1.
         23    2    1    2    0    0 -0.17763568394E-14  0.00000000000E+00 -0.28153514410E+03  0.29712499078E+03  0.94980117827E+02 0.  0.
          5    1    3    3  502    0 -0.16452081103E+02  0.19122706167E+02 -0.72396051166E+02  0.76809029992E+02  0.47000000000E+01 0. -1.
         -5    1    3    3    0  503  0.13895050130E+02 -0.17979804303E+02 -0.55932453031E+02  0.60554727999E+02  0.47000000000E+01 0.  1.
          5    1    3    3  503    0  0.96685253500E+01  0.18745728260E+02 -0.52829509610E+02  0.57078277796E+02  0.47000000000E+01 0.  1.
         -5    1    3    3    0  502 -0.71114943770E+01 -0.19888630124E+02 -0.10037713030E+03  0.10268295500E+03  0.47000000000E+01 0. -1.
<mgrwt>
<rscale>  0 0.94980118E+02</rscale>
<asrwt>0</asrwt>
<pdfrwt beam="1">  1        2 0.44512315E-01 0.94980118E+02</pdfrwt>
<pdfrwt beam="2">  1       -2 0.11992191E-02 0.94980118E+02</pdfrwt>
<totfact> 0.15887885E+05</totfact>
</mgrwt>
</event>
<event>
 7    1  0.8788345E-015  0.9187144E+02  0.7546771E-02  0.1298382E+00
          1   -1    0    0  501    0  0.00000000000E+00  0.00000000000E+00  0.10587572807E+02  0.10587572807E+02  0.00000000000E+00 0. -1.
         -1   -1    0    0    0  501 -0.00000000000E+00 -0.00000000000E+00 -0.19929879078E+03  0.19929879078E+03  0.00000000000E+00 0.  1.
         23    2    1    2    0    0  0.00000000000E+00  0.71054273576E-14 -0.18871121797E+03  0.20988636358E+03  0.91871441869E+02 0.  0.
          5    1    3    3  502    0 -0.20420420036E+02 -0.56160354985E+01 -0.55307507936E+02  0.59409964175E+02  0.47000000000E+01 0.  1.
         -5    1    3    3    0  503  0.18545884115E+02  0.80188245523E+01 -0.37824960327E+02  0.43140108815E+02  0.47000000000E+01 0. -1.
          5    1    3    3  503    0 -0.85239878539E+00 -0.23335069147E+02 -0.30133879452E+02  0.38410841264E+02  0.47000000000E+01 0. -1.
         -5    1    3    3    0  502  0.27269347063E+01  0.20932280093E+02 -0.65444870253E+02  0.68925449329E+02  0.47000000000E+01 0.  1.
<mgrwt>
<rscale>  0 0.91871442E+02</rscale>
<asrwt>0</asrwt>
<pdfrwt beam="1">  1        1 0.16288573E-02 0.91871442E+02</pdfrwt>
<pdfrwt beam="2">  1       -1 0.30661353E-01 0.91871442E+02</pdfrwt>
<totfact> 0.68132247E+04</totfact>
</mgrwt>
</event>
<event>
 7    1  0.8788345E-015  0.9152896E+02  0.7546771E-02  0.1299191E+00
          3   -1    0    0  501    0  0.00000000000E+00  0.00000000000E+00  0.61659202879E+01  0.61659202879E+01  0.00000000000E+00 0. -1.
         -3   -1    0    0    0  501 -0.00000000000E+00 -0.00000000000E+00 -0.33967157138E+03  0.33967157138E+03  0.00000000000E+00 0.  1.
         23    2    1    2    0    0 -0.17763568394E-14  0.35527136788E-14 -0.33350565110E+03  0.34583749167E+03  0.91528964448E+02 0.  0.
          5    1    3    3  502    0 -0.33778208868E+01  0.23552540794E+02 -0.71167776823E+02  0.75186929115E+02  0.47000000000E+01 0. -1.
         -5    1    3    3    0  502  0.27469068548E+01 -0.21001148020E+02 -0.11075124675E+03  0.11285620219E+03  0.47000000000E+01 0.  1.
          5    1    3    3  503    0 -0.14872651160E+02  0.13633972701E+02 -0.79694399746E+02  0.82342991900E+02  0.47000000000E+01 0.  1.
         -5    1    3    3    0  503  0.15503565192E+02 -0.16185365475E+02 -0.71892227778E+02  0.75451368471E+02  0.47000000000E+01 0. -1.
<mgrwt>
<rscale>  0 0.91528964E+02</rscale>
<asrwt>0</asrwt>
<pdfrwt beam="1">  1        3 0.94860288E-03 0.91528964E+02</pdfrwt>
<pdfrwt beam="2">  1       -3 0.52257178E-01 0.91528964E+02</pdfrwt>
<totfact> 0.22118834E+04</totfact>
</mgrwt>
</event>
<event>
 7    1  0.8788345E-015  0.9446687E+02  0.7546771E-02  0.1292381E+00
          1   -1    0    0  501    0  0.00000000000E+00  0.00000000000E+00  0.38697090091E+01  0.38697090091E+01  0.00000000000E+00 0. -1.
         -1   -1    0    0    0  501 -0.00000000000E+00 -0.00000000000E+00 -0.57652840582E+03  0.57652840582E+03  0.00000000000E+00 0.  1.
         23    2    1    2    0    0  0.00000000000E+00 -0.35527136788E-14 -0.57265869681E+03  0.58039811483E+03  0.94466865429E+02 0.  0.
          5    1    3    3  502    0 -0.17791618597E+02 -0.13097574359E+02 -0.14435737521E+03  0.14611375679E+03  0.47000000000E+01 0.  1.
         -5    1    3    3    0  503  0.17612448367E+02  0.10204878851E+02 -0.12887753783E+03  0.13055974743E+03  0.47000000000E+01 0. -1.
          5    1    3    3  503    0 -0.17290165138E+02 -0.13822405398E+02 -0.87683725072E+02  0.90556801755E+02  0.47000000000E+01 0. -1.
         -5    1    3    3    0  502  0.17469335368E+02  0.16715100906E+02 -0.21174005870E+03  0.21316780886E+03  0.47000000000E+01 0.  1.
<mgrwt>
<rscale>  0 0.94466865E+02</rscale>
<asrwt>0</asrwt>
<pdfrwt beam="1">  1        1 0.59534014E-03 0.94466865E+02</pdfrwt>
<pdfrwt beam="2">  1       -1 0.88696634E-01 0.94466865E+02</pdfrwt>
<totfact> 0.39014213E+04</totfact>
</mgrwt>
</event>
<event>
 7    1  0.8788345E-015  0.9159811E+02  0.7546771E-02  0.1299027E+00
          3   -1    0    0  501    0  0.00000000000E+00  0.00000000000E+00  0.23775131619E+02  0.23775131619E+02  0.00000000000E+00 0. -1.
         -3   -1    0    0    0  501 -0.00000000000E+00 -0.00000000000E+00 -0.88224686831E+02  0.88224686831E+02  0.00000000000E+00 0.  1.
         23    2    1    2    0    0  0.00000000000E+00 -0.88817841970E-15 -0.64449555212E+02  0.11199981845E+03  0.91598112240E+02 0.  0.
          5    1    3    3  502    0 -0.24150825642E+02  0.58229194342E+01 -0.18834414263E+02  0.31527669285E+02  0.47000000000E+01 0. -1.
         -5    1    3    3    0  503  0.68717701569E+01  0.20733649281E+02 -0.15376952364E+02  0.27122796714E+02  0.47000000000E+01 0.  1.
          5    1    3    3  503    0  0.19857987370E+02 -0.42653639499E+01 -0.12012000421E+02  0.24060572440E+02  0.47000000000E+01 0.  1.
         -5    1    3    3    0  502 -0.25789318844E+01 -0.22291204765E+02 -0.18226188164E+02  0.29288780011E+02  0.47000000000E+01 0. -1.
<mgrwt>
<rscale>  0 0.91598112E+02</rscale>
<asrwt>0</asrwt>
<pdfrwt beam="1">  1        3 0.36577125E-02 0.91598112E+02</pdfrwt>
<pdfrwt beam="2">  1       -3 0.13573029E-01 0.91598112E+02</pdfrwt>
<totfact> 0.33382677E+04</totfact>
</mgrwt>
</event>
<event>
 7    1  0.8788345E-015  0.9237978E+02  0.7546771E-02  0.1297189E+00
          1   -1    0    0  501    0  0.00000000000E+00  0.00000000000E+00  0.43093719562E+02  0.43093719562E+02  0.00000000000E+00 0. -1.
         -1   -1    0    0    0  501 -0.00000000000E+00 -0.00000000000E+00 -0.49508516463E+02  0.49508516463E+02  0.00000000000E+00 0.  1.
         23    2    1    2    0    0  0.00000000000E+00  0.00000000000E+00 -0.64147969006E+01  0.92602236025E+02  0.92379784030E+02 0.  0.
          5    1    3    3  502    0 -0.21122887124E+02 -0.11784053453E+02 -0.64816747770E+01  0.25478272786E+02  0.47000000000E+01 0. -1.
         -5    1    3    3    0  503  0.55135066350E+01 -0.20090796517E+02  0.91398933758E+00  0.21376721839E+02  0.47000000000E+01 0.  1.
          5    1    3    3  503    0 -0.45196193636E+01  0.21251457143E+02 -0.28932861335E+01  0.22416790461E+02  0.47000000000E+01 0. -1.
         -5    1    3    3    0  502  0.20128999853E+02  0.10623392827E+02  0.20461746723E+01  0.23330450939E+02  0.47000000000E+01 0.  1.
<mgrwt>
<rscale>  0 0.92379784E+02</rscale>
<asrwt>0</asrwt>
<pdfrwt beam="1">  1        1 0.66298030E-02 0.92379784E+02</pdfrwt>
<pdfrwt beam="2">  1       -1 0.76166949E-02 0.92379784E+02</pdfrwt>
<totfact> 0.88364359E+04</totfact>
</mgrwt>
</event>
<event>
 7    1  0.8788345E-015  0.9354959E+02  0.7546771E-02  0.1294477E+00
          2   -1    0    0  501    0  0.00000000000E+00  0.00000000000E+00  0.56065954413E+03  0.56065954413E+03  0.00000000000E+00 0. -1.
         -2   -1    0    0    0  501 -0.00000000000E+00 -0.00000000000E+00 -0.39023352536E+01  0.39023352536E+01  0.00000000000E+00 0.  1.
         23    2    1    2    0    0 -0.35527136788E-14  0.00000000000E+00  0.55675720887E+03  0.56456187938E+03  0.93549591220E+02 0.  0.
          5    1    3    3  502    0 -0.16251118266E+02 -0.14265840323E+02  0.11894053355E+03  0.12098162491E+03  0.47000000000E+01 0. -1.
         -5    1    3    3    0  503  0.26787748213E+02  0.62921915692E+01  0.14691882509E+03  0.14954733797E+03  0.47000000000E+01 0. -1.
          5    1    3    3  503    0 -0.17626519214E+02 -0.10733203996E+02  0.18069680240E+03  0.18193218584E+03  0.47000000000E+01 0.  1.
         -5    1    3    3    0  502  0.70898892666E+01  0.18706852750E+02  0.11020104784E+03  0.11210073066E+03  0.47000000000E+01 0.  1.
<mgrwt>
<rscale>  0 0.93549591E+02</rscale>
<asrwt>0</asrwt>
<pdfrwt beam="1">  1        2 0.86255250E-01 0.93549591E+02</pdfrwt>
<pdfrwt beam="2">  1       -2 0.60035972E-03 0.93549591E+02</pdfrwt>
<totfact> 0.20868555E+05</totfact>
</mgrwt>
</event>
<event>
 7    1  0.8788345E-015  0.9132907E+02  0.7546771E-02  0.1299665E+00
          2   -1    0    0  501    0  0.00000000000E+00  0.00000000000E+00  0.25575388763E+03  0.25575388763E+03  0.00000000000E+00 0. -1.
         -2   -1    0    0    0  501 -0.00000000000E+00 -0.00000000000E+00 -0.81533454209E+01  0.81533454209E+01  0.00000000000E+00 0.  1.
         23    2    1    2    0    0  0.17763568394E-14 -0.35527136788E-14  0.24760054220E+03  0.26390723305E+03  0.91329070696E+02 0.  0.
          5    1    3    3  502    0  0.16905746333E+01  0.20606735322E+02  0.77221891977E+02  0.80079998650E+02  0.47000000000E+01 0. -1.
         -5    1    3    3    0  502 -0.13745218650E+02 -0.16699657508E+02  0.74957797472E+02  0.78157347694E+02  0.47000000000E+01 0.  1.
          5    1    3    3  503    0  0.97184102269E+01  0.18002470134E+02  0.31131811574E+02  0.37547518162E+02  0.47000000000E+01 0.  1.
         -5    1    3    3    0  503  0.23362337898E+01 -0.21909547948E+02  0.64289041181E+02  0.68122368541E+02  0.47000000000E+01 0. -1.
<mgrwt>
<rscale>  0 0.91329071E+02</rscale>
<asrwt>0</asrwt>
<pdfrwt beam="1">  1        2 0.39346746E-01 0.91329071E+02</pdfrwt>
<pdfrwt beam="2">  1       -2 0.12543610E-02 0.91329071E+02</pdfrwt>
<totfact> 0.16852597E+05</totfact>
</mgrwt>
</event>
<event>
 7    1  0.8788345E-015  0.9284091E+02  0.7546771E-02  0.1296114E+00
          1   -1    0    0  501    0  0.00000000000E+00  0.00000000000E+00  0.92636396650E+02  0.92636396650E+02  0.00000000000E+00 0. -1.
         -1   -1    0    0    0  501 -0.00000000000E+00 -0.00000000000E+00 -0.23261469126E+02  0.23261469126E+02  0.00000000000E+00 0.  1.
         23    2    1    2    0    0 -0.88817841970E-15  0.00000000000E+00  0.69374927525E+02  0.11589786578E+03  0.92840910823E+02 0.  0.
          5    1    3    3  502    0 -0.27894290928E+01 -0.20557101361E+02  0.44398317634E+01  0.21729644201E+02  0.47000000000E+01 0.  1.
         -5    1    3    3    0  502 -0.47017897920E+01  0.22848978044E+02  0.32775786393E+02  0.40503392433E+02  0.47000000000E+01 0. -1.
          5    1    3    3  503    0 -0.51272397173E+00 -0.21138176197E+02  0.19450626543E+02  0.29111891929E+02  0.47000000000E+01 0. -1.
         -5    1    3    3    0  503  0.80039428566E+01  0.18846299514E+02  0.12708682826E+02  0.24552937213E+02  0.47000000000E+01 0.  1.
<mgrwt>
<rscale>  0 0.92840911E+02</rscale>
<asrwt>0</asrwt>
<pdfrwt beam="1">  1        1 0.14251753E-01 0.92840911E+02</pdfrwt>
<pdfrwt beam="2">  1       -1 0.35786876E-02 0.92840911E+02</pdfrwt>
<totfact> 0.98160507E+04</totfact>
</mgrwt>
</event>
<event>
 7    1  0.8788345E-015  0.9219877E+02  0.7546771E-02  0.1297613E+00
          2   -1    0    0  501    0  0.00000000000E+00  0.00000000000E+00  0.57001895096E+02  0.57001895096E+02  0.00000000000E+00 0. -1.
         -2   -1    0    0    0  501 -0.00000000000E+00 -0.00000000000E+00 -0.37282155126E+02  0.37282155126E+02  0.00000000000E+00 0.  1.
         23    2    1    2    0    0  0.00000000000E+00  0.53290705182E-14  0.19719739970E+02  0.94284050222E+02  0.92198774296E+02 0.  0.
          5    1    3    3  502    0 -0.12952945206E+01  0.21031705574E+02  0.93716648200E+01  0.23535686282E+02  0.47000000000E+01 0. -1.
         -5    1    3    3    0  503 -0.14642431962E+01 -0.24691708313E+02  0.13398461484E+02  0.28520751002E+02  0.47000000000E+01 0. -1.
          5    1    3    3  503    0  0.17431661670E+02 -0.10698473907E+02 -0.27502024238E+01  0.21165391230E+02  0.47000000000E+01 0.  1.
         -5    1    3    3    0  502 -0.14672123954E+02  0.14358476647E+02 -0.30018391016E+00  0.21062221709E+02  0.47000000000E+01 0.  1.
<mgrwt>
<rscale>  0 0.92198774E+02</rscale>
<asrwt>0</asrwt>
<pdfrwt beam="1">  1        2 0.87695224E-02 0.92198774E+02</pdfrwt>
<pdfrwt beam="2">  1       -2 0.57357161E-02 0.92198774E+02</pdfrwt>
<totfact> 0.10137336E+05</totfact>
</mgrwt>
</event>
<event>
 7    1  0.8788345E-015  0.9558554E+02  0.7546771E-02  0.1289863E+00
         -2   -1    0    0    0  501 -0.00000000000E+00  0.00000000000E+00  0.18482515972E+02  0.18482515972E+02  0.00000000000E+00 0.  1.
          2   -1    0    0  501    0  0.00000000000E+00 -0.00000000000E+00 -0.12358431203E+03  0.12358431203E+03  0.00000000000E+00 0. -1.
         23    2    1    2    0    0 -0.35527136788E-14  0.00000000000E+00 -0.10510179606E+03  0.14206682801E+03  0.95585543282E+02 0.  0.
          5    1    3    3  502    0  0.77769188045E+01  0.21726537548E+02 -0.25641836305E+02  0.34815465945E+02  0.47000000000E+01 0.  1.
         -5    1    3    3    0  502 -0.41639072973E+01 -0.22255688845E+02 -0.12893576226E+02  0.26476180197E+02  0.47000000000E+01 0.  1.
          5    1    3    3  503    0 -0.20166135833E+02 -0.12468206548E+02 -0.33980880872E+02  0.41700353401E+02  0.47000000000E+01 0. -1.
         -5    1    3    3    0  503  0.16553124325E+02  0.12997357845E+02 -0.32585502659E+02  0.39074828463E+02  0.47000000000E+01 0. -1.
<mgrwt>
<rscale>  0 0.95585543E+02</rscale>
<asrwt>0</asrwt>
<pdfrwt beam="1">  1        2 0.19012971E-01 0.95585543E+02</pdfrwt>
<pdfrwt beam="2">  1       -2 0.28434641E-02 0.95585543E+02</pdfrwt>
<totfact> 0.11517765E+05</totfact>
</mgrwt>
</event>
<event>
 7    1  0.8788345E-015  0.9614884E+02  0.7546771E-02  0.1288609E+00
          2   -1    0    0  501    0  0.00000000000E+00  0.00000000000E+00  0.11458534667E+03  0.11458534667E+03  0.00000000000E+00 0. -1.
         -2   -1    0    0    0  501 -0.00000000000E+00 -0.00000000000E+00 -0.20169678958E+02  0.20169678958E+02  0.00000000000E+00 0.  1.
         23    2    1    2    0    0 -0.35527136788E-14  0.88817841970E-15  0.94415667709E+02  0.13475502562E+03  0.96148835782E+02 0.  0.
          5    1    3    3  502    0 -0.21888495447E+02 -0.78745131304E+01  0.26025641759E+02  0.35221275090E+02  0.47000000000E+01 0. -1.
         -5    1    3    3    0  502  0.20176378923E+02  0.20751273282E+01  0.14069620025E+02  0.25128402805E+02  0.47000000000E+01 0. -1.
          5    1    3    3  503    0 -0.28037349927E+00 -0.21221071606E+02  0.14947659658E+02  0.26380580332E+02  0.47000000000E+01 0.  1.
         -5    1    3    3    0  503  0.19924900235E+01  0.27020457408E+02  0.39372746267E+02  0.48024767398E+02  0.47000000000E+01 0.  1.
<mgrwt>
<rscale>  0 0.96148836E+02</rscale>
<asrwt>0</asrwt>
<pdfrwt beam="1">  1        2 0.17628515E-01 0.96148836E+02</pdfrwt>
<pdfrwt beam="2">  1       -2 0.31030276E-02 0.96148836E+02</pdfrwt>
<totfact> 0.11057832E+05</totfact>
</mgrwt>
</event>
<event>
 7    1  0.8788345E-015  0.1008055E+03  0.7546771E-02  0.1278611E+00
         -2   -1    0    0    0  501 -0.00000000000E+00  0.00000000000E+00  0.16878844318E+02  0.16878844318E+02  0.00000000000E+00 0. -1.
          2   -1    0    0  501    0  0.00000000000E+00 -0.00000000000E+00 -0.15051026300E+03  0.15051026300E+03  0.00000000000E+00 0.  1.
         23    2    1    2    0    0 -0.17763568394E-14  0.00000000000E+00 -0.13363141869E+03  0.16738910732E+03  0.10080554147E+03 0.  0.
          5    1    3    3  502    0  0.44643949381E+01  0.21424681323E+02 -0.28551812697E+02  0.36280074424E+02  0.47000000000E+01 0.  1.
         -5    1    3    3    0  502 -0.45715081083E+01 -0.23731396904E+02 -0.63056107865E+02  0.67692249368E+02  0.47000000000E+01 0.  1.
          5    1    3    3  503    0 -0.21757835657E+02 -0.31411084974E-01 -0.10287498332E+02  0.24521970171E+02  0.47000000000E+01 0. -1.
         -5    1    3    3    0  503  0.21864948827E+02  0.23381266661E+01 -0.31735999792E+02  0.38894813360E+02  0.47000000000E+01 0. -1.
<mgrwt>
<rscale>  0 0.10080554E+03</rscale>
<asrwt>0</asrwt>
<pdfrwt beam="1">  1        2 0.23155426E-01 0.10080554E+03</pdfrwt>
<pdfrwt beam="2">  1       -2 0.25967452E-02 0.10080554E+03</pdfrwt>
<totfact> 0.10638100E+05</totfact>
</mgrwt>
</event>
<event>
 7    1  0.8788345E-015  0.9121905E+02  0.7546771E-02  0.1299926E+00
          1   -1    0    0  501    0  0.00000000000E+00  0.00000000000E+00  0.67691776471E+03  0.67691776471E+03  0.00000000000E+00 0. -1.
         -1   -1    0    0    0  501 -0.00000000000E+00 -0.00000000000E+00 -0.30730894292E+01  0.30730894292E+01  0.00000000000E+00 0.  1.
         23    2    1    2    0    0 -0.53290705182E-14  0.00000000000E+00  0.67384467528E+03  0.67999085414E+03  0.91219051238E+02 0.  0.
          5    1    3    3  502    0 -0.15334992484E+02  0.13895357442E+02  0.14320037474E+03  0.14476422306E+03  0.47000000000E+01 0.  1.
         -5    1    3    3    0  503  0.21693686193E+02 -0.12366047511E+02  0.16143537389E+03  0.16342278022E+03  0.47000000000E+01 0.  1.
          5    1    3    3  503    0 -0.33917215207E+01  0.20381289289E+02  0.16921888212E+03  0.17054037878E+03  0.47000000000E+01 0. -1.
         -5    1    3    3    0  502 -0.29669721892E+01 -0.21910599220E+02  0.19999004453E+03  0.20126347208E+03  0.47000000000E+01 0. -1.
<mgrwt>
<rscale>  0 0.91219051E+02</rscale>
<asrwt>0</asrwt>
<pdfrwt beam="1">  1        1 0.10414108E+00 0.91219051E+02</pdfrwt>
<pdfrwt beam="2">  1       -1 0.47278353E-03 0.91219051E+02</pdfrwt>
<totfact> 0.14200502E+05</totfact>
</mgrwt>
</event>
<event>
 7    1  0.8788345E-015  0.9264599E+02  0.7546771E-02  0.1296568E+00
          1   -1    0    0  501    0  0.00000000000E+00  0.00000000000E+00  0.11579676697E+03  0.11579676697E+03  0.00000000000E+00 0. -1.
         -1   -1    0    0    0  501 -0.00000000000E+00 -0.00000000000E+00 -0.18530915117E+02  0.18530915117E+02  0.00000000000E+00 0.  1.
         23    2    1    2    0    0  0.00000000000E+00 -0.44408920985E-15  0.97265851857E+02  0.13432768209E+03  0.92645994186E+02 0.  0.
          5    1    3    3  502    0  0.19226035152E+02 -0.73504040404E+01  0.12901231801E+02  0.24742688803E+02  0.47000000000E+01 0.  1.
         -5    1    3    3    0  503 -0.22704701872E+02  0.30622317232E+01  0.17625335311E+02  0.29285204371E+02  0.47000000000E+01 0.  1.
          5    1    3    3  503    0  0.23352112433E+02  0.27422039961E+00  0.36786583394E+02  0.43826237230E+02  0.47000000000E+01 0. -1.
         -5    1    3    3    0  502 -0.19873445713E+02  0.40139519176E+01  0.29952701351E+02  0.36473551688E+02  0.47000000000E+01 0. -1.
<mgrwt>
<rscale>  0 0.92645994E+02</rscale>
<asrwt>0</asrwt>
<pdfrwt beam="1">  1        1 0.17814887E-01 0.92645994E+02</pdfrwt>
<pdfrwt beam="2">  1       -1 0.28509101E-02 0.92645994E+02</pdfrwt>
<totfact> 0.10252102E+05</totfact>
</mgrwt>
</event>
<event>
 7    1  0.8788345E-015  0.9158760E+02  0.7546771E-02  0.1299052E+00
         -3   -1    0    0    0  501 -0.00000000000E+00  0.00000000000E+00  0.53746440975E+02  0.53746440975E+02  0.00000000000E+00 0.  1.
          3   -1    0    0  501    0  0.00000000000E+00 -0.00000000000E+00 -0.39017876128E+02  0.39017876128E+02  0.00000000000E+00 0. -1.
         23    2    1    2    0    0  0.35527136788E-14 -0.49682480352E-14  0.14728564847E+02  0.92764317103E+02  0.91587596896E+02 0.  0.
          5    1    3    3  502    0 -0.16561745368E+02  0.16215601645E+02  0.60991253532E+01  0.24423891508E+02  0.47000000000E+01 0. -1.
         -5    1    3    3    0  503  0.11201819544E+02 -0.17244447172E+02  0.38087976903E+01  0.21434753537E+02  0.47000000000E+01 0. -1.
          5    1    3    3  503    0 -0.20137512828E+02  0.83550334775E+00  0.12508813416E+01  0.20733359420E+02  0.47000000000E+01 0.  1.
         -5    1    3    3    0  502  0.25497438652E+02  0.19334217946E+00  0.35697604624E+01  0.26172312637E+02  0.47000000000E+01 0.  1.
<mgrwt>
<rscale>  0 0.91587597E+02</rscale>
<asrwt>0</asrwt>
<pdfrwt beam="1">  1        3 0.60027501E-02 0.91587597E+02</pdfrwt>
<pdfrwt beam="2">  1       -3 0.82686833E-02 0.91587597E+02</pdfrwt>
<totfact> 0.34788273E+04</totfact>
</mgrwt>
</event>
<event>
 7    1  0.8788345E-015  0.9703348E+02  0.7546771E-02  0.1286661E+00
          1   -1    0    0  501    0  0.00000000000E+00  0.00000000000E+00  0.20947177997E+02  0.20947177997E+02  0.00000000000E+00 0. -1.
         -1   -1    0    0    0  501 -0.00000000000E+00 -0.00000000000E+00 -0.11237188808E+03  0.11237188808E+03  0.00000000000E+00 0.  1.
         23    2    1    2    0    0  0.17763568394E-14  0.00000000000E+00 -0.91424710084E+02  0.13331906608E+03  0.97033477552E+02 0.  0.
          5    1    3    3  502    0  0.14501875810E+02 -0.14962086940E+02 -0.10634161457E+02  0.23860927004E+02  0.47000000000E+01 0. -1.
         -5    1    3    3    0  503 -0.18435395829E+02  0.16143535149E+02 -0.47194902938E+02  0.53384702020E+02  0.47000000000E+01 0.  1.
          5    1    3    3  503    0 -0.16862058656E+00 -0.22177535458E+02 -0.20429302422E+02  0.30517501689E+02  0.47000000000E+01 0.  1.
         -5    1    3    3    0  502  0.41021406059E+01  0.20996087249E+02 -0.13166343267E+02  0.25555935364E+02  0.47000000000E+01 0. -1.
<mgrwt>
<rscale>  0 0.97033478E+02</rscale>
<asrwt>0</asrwt>
<pdfrwt beam="1">  1        1 0.32226428E-02 0.97033478E+02</pdfrwt>
<pdfrwt beam="2">  1       -1 0.17287982E-01 0.97033478E+02</pdfrwt>
<totfact> 0.67737626E+04</totfact>
</mgrwt>
</event>
<event>
 7    1  0.8788345E-015  0.9571371E+02  0.7546771E-02  0.1289577E+00
          3   -1    0    0  501    0  0.00000000000E+00  0.00000000000E+00  0.29207790968E+02  0.29207790968E+02  0.00000000000E+00 0. -1.
         -3   -1    0    0    0  501 -0.00000000000E+00 -0.00000000000E+00 -0.78413279034E+02  0.78413279034E+02  0.00000000000E+00 0.  1.
         23    2    1    2    0    0  0.17763568394E-14  0.35527136788E-14 -0.49205488066E+02  0.10762107000E+03  0.95713711937E+02 0.  0.
          5    1    3    3  502    0  0.12401279120E+02 -0.17684241523E+02 -0.17523395550E+02  0.28207862621E+02  0.47000000000E+01 0. -1.
         -5    1    3    3    0  503 -0.42412389975E+01  0.20803073772E+02 -0.39693186315E+01  0.22104331634E+02  0.47000000000E+01 0.  1.
          5    1    3    3  503    0 -0.17196134859E+02 -0.22148842040E+02 -0.17911712074E+02  0.33603536826E+02  0.47000000000E+01 0.  1.
         -5    1    3    3    0  502  0.90360947366E+01  0.19030009792E+02 -0.98010618101E+01  0.23705338921E+02  0.47000000000E+01 0. -1.
<mgrwt>
<rscale>  0 0.95713712E+02</rscale>
<asrwt>0</asrwt>
<pdfrwt beam="1">  1        3 0.44935062E-02 0.95713712E+02</pdfrwt>
<pdfrwt beam="2">  1       -3 0.12063582E-01 0.95713712E+02</pdfrwt>
<totfact> 0.29878829E+04</totfact>
</mgrwt>
</event>
<event>
 7    1  0.8788345E-015  0.9142405E+02  0.7546771E-02  0.1299439E+00
         -2   -1    0    0    0  501 -0.00000000000E+00  0.00000000000E+00  0.10535092257E+02  0.10535092257E+02  0.00000000000E+00 0.  1.
          2   -1    0    0  501    0  0.00000000000E+00 -0.00000000000E+00 -0.19834562126E+03  0.19834562126E+03  0.00000000000E+00 0. -1.
         23    2    1    2    0    0  0.00000000000E+00  0.00000000000E+00 -0.18781052900E+03  0.20888071352E+03  0.91424054140E+02 0.  0.
          5    1    3    3  502    0 -0.15855931141E+02 -0.14484078474E+02 -0.63772041716E+02  0.67454891492E+02  0.47000000000E+01 0. -1.
         -5    1    3    3    0  502  0.13837194076E+02  0.14734964449E+02 -0.60047543081E+02  0.63532547150E+02  0.47000000000E+01 0. -1.
          5    1    3    3  503    0 -0.16505353812E+02 -0.12724878575E+02 -0.34880519838E+02  0.40903421659E+02  0.47000000000E+01 0.  1.
         -5    1    3    3    0  503  0.18524090877E+02  0.12473992600E+02 -0.29110424370E+02  0.36989853219E+02  0.47000000000E+01 0.  1.
<mgrwt>
<rscale>  0 0.91424054E+02</rscale>
<asrwt>0</asrwt>
<pdfrwt beam="1">  1        2 0.30514709E-01 0.91424054E+02</pdfrwt>
<pdfrwt beam="2">  1       -2 0.16207835E-02 0.91424054E+02</pdfrwt>
<totfact> 0.15309455E+05</totfact>
</mgrwt>
</event>
<event>
 7    1  0.8788345E-015  0.9879543E+02  0.7546771E-02  0.1282850E+00
         -1   -1    0    0    0  501 -0.00000000000E+00  0.00000000000E+00  0.35690147855E+02  0.35690147855E+02  0.00000000000E+00 0.  1.
          1   -1    0    0  501    0  0.00000000000E+00 -0.00000000000E+00 -0.68369967577E+02  0.68369967577E+02  0.00000000000E+00 0. -1.
         23    2    1    2    0    0  0.00000000000E+00  0.00000000000E+00 -0.32679819722E+02  0.10406011543E+03  0.98795430089E+02 0.  0.
          5    1    3    3  502    0  0.12492722322E+02  0.21730374303E+02 -0.12590428068E+02  0.28440923988E+02  0.47000000000E+01 0. -1.
         -5    1    3    3    0  502  0.58012875545E+01 -0.19176740514E+02  0.93893800676E+00  0.20600337828E+02  0.47000000000E+01 0.  1.
          5    1    3    3  503    0 -0.22789097959E+02  0.17778824791E+02 -0.96751598221E+01  0.30840368258E+02  0.47000000000E+01 0.  1.
         -5    1    3    3    0  503  0.44950880823E+01 -0.20332458580E+02 -0.11353169839E+02  0.24178485357E+02  0.47000000000E+01 0. -1.
<mgrwt>
<rscale>  0 0.98795430E+02</rscale>
<asrwt>0</asrwt>
<pdfrwt beam="1">  1        1 0.10518456E-01 0.98795430E+02</pdfrwt>
<pdfrwt beam="2">  1       -1 0.54907920E-02 0.98795430E+02</pdfrwt>
<totfact> 0.78661252E+04</totfact>
</mgrwt>
</event>
<event>
 7    1  0.8788345E-015  0.9106730E+02  0.7546771E-02  0.1300287E+00
         -2   -1    0    0    0  501 -0.00000000000E+00  0.00000000000E+00  0.77535606441E+01  0.77535606441E+01  0.00000000000E+00 0.  1.
          2   -1    0    0  501    0  0.00000000000E+00 -0.00000000000E+00 -0.26740144901E+03  0.26740144901E+03  0.00000000000E+00 0. -1.
         23    2    1    2    0    0  0.17763568394E-14  0.00000000000E+00 -0.25964788837E+03  0.27515500966E+03  0.91067301514E+02 0.  0.
          5    1    3    3  502    0 -0.12373628850E+02  0.16400142098E+02 -0.92111030186E+02  0.94491286549E+02  0.47000000000E+01 0. -1.
         -5    1    3    3    0  503  0.14711214999E+02 -0.15407710981E+02 -0.54028673582E+02  0.58266671206E+02  0.47000000000E+01 0. -1.
          5    1    3    3  503    0  0.97889148535E+01  0.18896848562E+02 -0.60495237174E+02  0.64301457684E+02  0.47000000000E+01 0.  1.
         -5    1    3    3    0  502 -0.12126501002E+02 -0.19889279678E+02 -0.53012947429E+02  0.58095594220E+02  0.47000000000E+01 0.  1.
<mgrwt>
<rscale>  0 0.91067302E+02</rscale>
<asrwt>0</asrwt>
<pdfrwt beam="1">  1        2 0.41138690E-01 0.91067302E+02</pdfrwt>
<pdfrwt beam="2">  1       -2 0.11928553E-02 0.91067302E+02</pdfrwt>
<totfact> 0.17266889E+05</totfact>
</mgrwt>
</event>
<event>
 7    1  0.8788345E-015  0.9134907E+02  0.7546771E-02  0.1299617E+00
          2   -1    0    0  501    0  0.00000000000E+00  0.00000000000E+00  0.18665508830E+03  0.18665508830E+03  0.00000000000E+00 0. -1.
         -2   -1    0    0    0  501 -0.00000000000E+00 -0.00000000000E+00 -0.11176566785E+02  0.11176566785E+02  0.00000000000E+00 0.  1.
         23    2    1    2    0    0 -0.17763568394E-14  0.35527136788E-14  0.17547852152E+03  0.19783165509E+03  0.91349068089E+02 0.  0.
          5    1    3    3  502    0  0.57627016086E+01 -0.19705154262E+02  0.36088346007E+02  0.41784692793E+02  0.47000000000E+01 0.  1.
         -5    1    3    3    0  502 -0.19537812332E+02  0.11583607851E+02  0.47639885627E+02  0.52986364134E+02  0.47000000000E+01 0.  1.
          5    1    3    3  503    0  0.18933795712E+02 -0.11720234101E+02  0.28906107059E+02  0.36790019472E+02  0.47000000000E+01 0. -1.
         -5    1    3    3    0  503 -0.51586849883E+01  0.19841780513E+02  0.62844182824E+02  0.66270578687E+02  0.47000000000E+01 0. -1.
<mgrwt>
<rscale>  0 0.91349068E+02</rscale>
<asrwt>0</asrwt>
<pdfrwt beam="1">  1        2 0.28716165E-01 0.91349068E+02</pdfrwt>
<pdfrwt beam="2">  1       -2 0.17194719E-02 0.91349068E+02</pdfrwt>
<totfact> 0.15011903E+05</totfact>
</mgrwt>
</event>
<event>
 7    1  0.8788345E-015  0.9336748E+02  0.7546771E-02  0.1294896E+00
          1   -1    0    0  501    0  0.00000000000E+00  0.00000000000E+00  0.95945934890E+02  0.95945934890E+02  0.00000000000E+00 0. -1.
         -1   -1    0    0    0  501 -0.00000000000E+00 -0.00000000000E+00 -0.22714578195E+02  0.22714578195E+02  0.00000000000E+00 0.  1.
         23    2    1    2    0    0  0.00000000000E+00  0.17763568394E-14  0.73231356695E+02  0.11866051308E+03  0.93367477004E+02 0.  0.
          5    1    3    3  502    0 -0.13640109001E+02  0.15085584785E+02  0.11717901765E+02  0.23937975345E+02  0.47000000000E+01 0. -1.
         -5    1    3    3    0  502  0.15676929351E+02 -0.14571313876E+02  0.87920000633E+01  0.23610984034E+02  0.47000000000E+01 0.  1.
          5    1    3    3  503    0 -0.13532498469E+01  0.22394603854E+02  0.17550275087E+02  0.28869563948E+02  0.47000000000E+01 0. -1.
         -5    1    3    3    0  503 -0.68357050342E+00 -0.22908874763E+02  0.35171179780E+02  0.42241989757E+02  0.47000000000E+01 0.  1.
<mgrwt>
<rscale>  0 0.93367477E+02</rscale>
<asrwt>0</asrwt>
<pdfrwt beam="1">  1        1 0.14760913E-01 0.93367477E+02</pdfrwt>
<pdfrwt beam="2">  1       -1 0.34945505E-02 0.93367477E+02</pdfrwt>
<totfact> 0.97214425E+04</totfact>
</mgrwt>
</event>
<event>
 7    1  0.8788345E-015  0.9271657E+02  0.7546771E-02  0.1296403E+00
         -4   -1    0    0    0  501 -0.00000000000E+00  0.00000000000E+00  0.15271425237E+03  0.15271425237E+03  0.00000000000E+00 0.  1.
          4   -1    0    0  501    0  0.00000000000E+00 -0.00000000000E+00 -0.14072627226E+02  0.14072627226E+02  0.00000000000E+00 0. -1.
         23    2    1    2    0    0  0.00000000000E+00 -0.88817841970E-15  0.13864162515E+03  0.16678687960E+03  0.92716573401E+02 0.  0.
          5    1    3    3  502    0  0.22425074387E+02 -0.64753651863E+01  0.35188535882E+02  0.42486908255E+02  0.47000000000E+01 0. -1.
         -5    1    3    3    0  502 -0.19880761778E+02 -0.11153505876E+02  0.24436431661E+02  0.33747215804E+02  0.47000000000E+01 0.  1.
          5    1    3    3  503    0  0.17526474792E+02  0.99127373118E+01  0.50201258775E+02  0.54292688847E+02  0.47000000000E+01 0. -1.
         -5    1    3    3    0  503 -0.20070787401E+02  0.77161337508E+01  0.28815398829E+02  0.36260066694E+02  0.47000000000E+01 0.  1.
<mgrwt>
<rscale>  0 0.92716573E+02</rscale>
<asrwt>0</asrwt>
<pdfrwt beam="1">  1        4 0.21650197E-02 0.92716573E+02</pdfrwt>
<pdfrwt beam="2">  1       -4 0.23494499E-01 0.92716573E+02</pdfrwt>
<totfact> 0.21849456E+04</totfact>
</mgrwt>
</event>
<event>
 7    1  0.8788345E-015  0.9232430E+02  0.7546771E-02  0.1297319E+00
         -2   -1    0    0    0  501 -0.00000000000E+00  0.00000000000E+00  0.39896098092E+02  0.39896098092E+02  0.00000000000E+00 0. -1.
          2   -1    0    0  501    0  0.00000000000E+00 -0.00000000000E+00 -0.53412347965E+02  0.53412347965E+02  0.00000000000E+00 0.  1.
         23    2    1    2    0    0 -0.35527136788E-14 -0.66613381478E-15 -0.13516249874E+02  0.93308446057E+02  0.92324303923E+02 0.  0.
          5    1    3    3  502    0 -0.21021369055E+02 -0.10779289013E+01 -0.53727328250E+01  0.22226473982E+02  0.47000000000E+01 0.  1.
         -5    1    3    3    0  502  0.20263360730E+02 -0.27658523701E+01 -0.89157621992E+01  0.22799880329E+02  0.47000000000E+01 0.  1.
          5    1    3    3  503    0 -0.17266669283E+02 -0.13126024493E+02 -0.42293982177E+01  0.22592215394E+02  0.47000000000E+01 0. -1.
         -5    1    3    3    0  503  0.18024677608E+02  0.16969805765E+02  0.50016433682E+01  0.25689876351E+02  0.47000000000E+01 0. -1.
<mgrwt>
<rscale>  0 0.92324304E+02</rscale>
<asrwt>0</asrwt>
<pdfrwt beam="1">  1        2 0.82172843E-02 0.92324304E+02</pdfrwt>
<pdfrwt beam="2">  1       -2 0.61378612E-02 0.92324304E+02</pdfrwt>
<totfact> 0.99246835E+04</totfact>
</mgrwt>
</event>
<event>
 7    1  0.8788345E-015  0.9578093E+02  0.7546771E-02  0.1289427E+00
         -3   -1    0    0    0  501 -0.00000000000E+00  0.00000000000E+00  0.32835275602E+02  0.32835275602E+02  0.00000000000E+00 0.  1.
          3   -1    0    0  501    0  0.00000000000E+00 -0.00000000000E+00 -0.69848551580E+02  0.69848551580E+02  0.00000000000E+00 0. -1.
         23    2    1    2    0    0 -0.88817841970E-15  0.00000000000E+00 -0.37013275978E+02  0.10268382718E+03  0.95780925900E+02 0.  0.
          5    1    3    3  502    0 -0.14165174600E+02  0.18014720280E+02 -0.94315571351E+01  0.25223532429E+02  0.47000000000E+01 0. -1.
         -5    1    3    3    0  503 -0.64694040470E+01 -0.22507260816E+02 -0.27473893003E+01  0.24043047355E+02  0.47000000000E+01 0. -1.
          5    1    3    3  503    0  0.11506034240E+02  0.22736096568E+02 -0.17356328588E+02  0.31187354058E+02  0.47000000000E+01 0.  1.
         -5    1    3    3    0  502  0.91285444065E+01 -0.18243556032E+02 -0.74780009540E+01  0.22229893341E+02  0.47000000000E+01 0.  1.
<mgrwt>
<rscale>  0 0.95780926E+02</rscale>
<asrwt>0</asrwt>
<pdfrwt beam="1">  1        3 0.10745931E-01 0.95780926E+02</pdfrwt>
<pdfrwt beam="2">  1       -3 0.50515810E-02 0.95780926E+02</pdfrwt>
<totfact> 0.30130890E+04</totfact>
</mgrwt>
</event>
<event>
 7    1  0.8788345E-015  0.1000358E+03  0.7546771E-02  0.1280221E+00
         -2   -1    0    0    0  501 -0.00000000000E+00  0.00000000000E+00  0.99720007706E+01  0.99720007706E+01  0.00000000000E+00 0.  1.
          2   -1    0    0  501    0  0.00000000000E+00 -0.00000000000E+00 -0.25088166250E+03  0.25088166250E+03  0.00000000000E+00 0. -1.
         23    2    1    2    0    0  0.88817841970E-15 -0.35527136788E-14 -0.24090966173E+03  0.26085366327E+03  0.10003583621E+03 0.  0.
          5    1    3    3  502    0  0.25914067790E+01 -0.22904906876E+02 -0.52434295554E+02  0.57469953004E+02  0.47000000000E+01 0.  1.
         -5    1    3    3    0  503 -0.21824384249E+02 -0.13348971598E+02 -0.45695512362E+02  0.52580116399E+02  0.47000000000E+01 0.  1.
          5    1    3    3  503    0  0.14731229858E+02  0.16252560150E+02 -0.39700458329E+02  0.45600123203E+02  0.47000000000E+01 0. -1.
         -5    1    3    3    0  502  0.45017476114E+01  0.20001318324E+02 -0.10307939548E+03  0.10520347066E+03  0.47000000000E+01 0. -1.
<mgrwt>
<rscale>  0 0.10003584E+03</rscale>
<asrwt>0</asrwt>
<pdfrwt beam="1">  1        2 0.38597181E-01 0.10003584E+03</pdfrwt>
<pdfrwt beam="2">  1       -2 0.15341539E-02 0.10003584E+03</pdfrwt>
<totfact> 0.13092953E+05</totfact>
</mgrwt>
</event>
<event>
 7    1  0.8788345E-015  0.9684230E+02  0.7546771E-02  0.1287080E+00
         -2   -1    0    0    0  501 -0.00000000000E+00  0.00000000000E+00  0.52149838239E+01  0.52149838239E+01  0.00000000000E+00 0.  1.
          2   -1    0    0  501    0  0.00000000000E+00 -0.00000000000E+00 -0.44959058878E+03  0.44959058878E+03  0.00000000000E+00 0. -1.
         23    2    1    2    0    0  0.00000000000E+00  0.00000000000E+00 -0.44437560496E+03  0.45480557261E+03  0.96842297533E+02 0.  0.
          5    1    3    3  502    0  0.87556763232E+01  0.24713958371E+02 -0.16826399262E+03  0.17035933441E+03  0.47000000000E+01 0. -1.
         -5    1    3    3    0  503 -0.54915172231E+01 -0.24384352784E+02 -0.11714110965E+03  0.11987027568E+03  0.47000000000E+01 0. -1.
          5    1    3    3  503    0  0.64281136289E+01 -0.18974951668E+02 -0.65465108087E+02  0.68623172562E+02  0.47000000000E+01 0.  1.
         -5    1    3    3    0  502 -0.96922727290E+01  0.18645346080E+02 -0.93505394598E+02  0.95952789954E+02  0.47000000000E+01 0.  1.
<mgrwt>
<rscale>  0 0.96842298E+02</rscale>
<asrwt>0</asrwt>
<pdfrwt beam="1">  1        2 0.69167804E-01 0.96842298E+02</pdfrwt>
<pdfrwt beam="2">  1       -2 0.80230496E-03 0.96842298E+02</pdfrwt>
<totfact> 0.17716442E+05</totfact>
</mgrwt>
</event>
<event>
 7    1  0.8788345E-015  0.9363697E+02  0.7546771E-02  0.1294276E+00
          1   -1    0    0  501    0  0.00000000000E+00  0.00000000000E+00  0.19075412827E+03  0.19075412827E+03  0.00000000000E+00 0. -1.
         -1   -1    0    0    0  501 -0.00000000000E+00 -0.00000000000E+00 -0.11491078745E+02  0.11491078745E+02  0.00000000000E+00 0.  1.
         23    2    1    2    0    0  0.00000000000E+00  0.88817841970E-15  0.17926304953E+03  0.20224520702E+03  0.93636973659E+02 0.  0.
          5    1    3    3  502    0 -0.19975523738E+02 -0.20182397686E+01  0.31576333055E+02  0.37712725300E+02  0.47000000000E+01 0.  1.
         -5    1    3    3    0  503 -0.22415011013E+02  0.66280094076E+01  0.50682568307E+02  0.56010498638E+02  0.47000000000E+01 0.  1.
          5    1    3    3  503    0  0.25640528131E+02  0.64708396867E+01  0.42839784308E+02  0.50563282811E+02  0.47000000000E+01 0. -1.
         -5    1    3    3    0  502  0.16750006621E+02 -0.11080609326E+02  0.54164363859E+02  0.57958700271E+02  0.47000000000E+01 0.  1.
<mgrwt>
<rscale>  0 0.93636974E+02</rscale>
<asrwt>0</asrwt>
<pdfrwt beam="1">  1        1 0.29346787E-01 0.93636974E+02</pdfrwt>
<pdfrwt beam="2">  1       -1 0.17678584E-02 0.93636974E+02</pdfrwt>
<totfact> 0.10921732E+05</totfact>
</mgrwt>
</event>
<event>
 7    1  0.8788345E-015  0.9855323E+02  0.7546771E-02  0.1283368E+00
          4   -1    0    0  501    0  0.00000000000E+00  0.00000000000E+00  0.86607584559E+02  0.86607584559E+02  0.00000000000E+00 0. -1.
         -4   -1    0    0    0  501 -0.00000000000E+00 -0.00000000000E+00 -0.28036631127E+02  0.28036631127E+02  0.00000000000E+00 0.  1.
         23    2    1    2    0    0  0.35527136788E-14  0.35527136788E-14  0.58570953432E+02  0.11464421569E+03  0.98553232339E+02 0.  0.
          5    1    3    3  502    0  0.17884033055E+02 -0.90338028712E+01  0.15792248841E+02  0.25940959043E+02  0.47000000000E+01 0. -1.
         -5    1    3    3    0  502 -0.22691727310E+02 -0.59257832826E+00  0.11468584023E+02  0.25862792906E+02  0.47000000000E+01 0.  1.
          5    1    3    3  503    0  0.17775506002E+02  0.26539328687E+02  0.15031765200E+02  0.35613881364E+02  0.47000000000E+01 0. -1.
         -5    1    3    3    0  503 -0.12967811747E+02 -0.16912947487E+02  0.16278355368E+02  0.27226582373E+02  0.47000000000E+01 0.  1.
<mgrwt>
<rscale>  0 0.98553232E+02</rscale>
<asrwt>0</asrwt>
<pdfrwt beam="1">  1        4 0.13324244E-01 0.98553232E+02</pdfrwt>
<pdfrwt beam="2">  1       -4 0.43133279E-02 0.98553232E+02</pdfrwt>
<totfact> 0.20698324E+04</totfact>
</mgrwt>
</event>
<event>
 7    1  0.8788345E-015  0.1024152E+03  0.7546771E-02  0.1275298E+00
          2   -1    0    0  501    0  0.00000000000E+00  0.00000000000E+00  0.17231384055E+03  0.17231384055E+03  0.00000000000E+00 0.  1.
         -2   -1    0    0    0  501 -0.00000000000E+00 -0.00000000000E+00 -0.15217676148E+02  0.15217676148E+02  0.00000000000E+00 0. -1.
         23    2    1    2    0    0  0.35527136788E-14 -0.88817841970E-15  0.15709616440E+03  0.18753151669E+03  0.10241515945E+03 0.  0.
          5    1    3    3  502    0  0.12027599968E+02 -0.16145440694E+02  0.26001330970E+02  0.33218934787E+02  0.47000000000E+01 0.  1.
         -5    1    3    3    0  503 -0.13232076942E+02  0.21691363128E+02  0.38831038913E+02  0.46642713017E+02  0.47000000000E+01 0.  1.
          5    1    3    3  503    0  0.23724436258E+02 -0.10457020414E+02  0.24654264939E+02  0.36084912795E+02  0.47000000000E+01 0. -1.
         -5    1    3    3    0  502 -0.22519959284E+02  0.49110979805E+01  0.67609529576E+02  0.71584956095E+02  0.47000000000E+01 0. -1.
<mgrwt>
<rscale>  0 0.10241516E+03</rscale>
<asrwt>0</asrwt>
<pdfrwt beam="1">  1        2 0.26509820E-01 0.10241516E+03</pdfrwt>
<pdfrwt beam="2">  1       -2 0.23411811E-02 0.10241516E+03</pdfrwt>
<totfact> 0.10685973E+05</totfact>
</mgrwt>
</event>
<event>
 7    1  0.8788345E-015  0.9672352E+02  0.7546771E-02  0.1287341E+00
         -3   -1    0    0    0  501 -0.00000000000E+00  0.00000000000E+00  0.11697474677E+03  0.11697474677E+03  0.00000000000E+00 0.  1.
          3   -1    0    0  501    0  0.00000000000E+00 -0.00000000000E+00 -0.19994571254E+02  0.19994571254E+02  0.00000000000E+00 0. -1.
         23    2    1    2    0    0  0.35527136788E-14 -0.88817841970E-15  0.96980175519E+02  0.13696931803E+03  0.96723521634E+02 0.  0.
          5    1    3    3  502    0 -0.21232592185E+02  0.25350019134E+01  0.86329089274E+01  0.23534364706E+02  0.47000000000E+01 0. -1.
         -5    1    3    3    0  502  0.19590214981E+02 -0.12391473877E+02  0.23503405249E+02  0.33344043039E+02  0.47000000000E+01 0. -1.
          5    1    3    3  503    0 -0.19825439391E+02  0.78306177947E+01  0.46593055735E+02  0.51452594345E+02  0.47000000000E+01 0.  1.
         -5    1    3    3    0  503  0.21467816595E+02  0.20258541689E+01  0.18250805608E+02  0.28638315938E+02  0.47000000000E+01 0.  1.
<mgrwt>
<rscale>  0 0.96723522E+02</rscale>
<asrwt>0</asrwt>
<pdfrwt beam="1">  1        3 0.30760880E-02 0.96723522E+02</pdfrwt>
<pdfrwt beam="2">  1       -3 0.17996114E-01 0.96723522E+02</pdfrwt>
<totfact> 0.27350571E+04</totfact>
</mgrwt>
</event>
<event>
 7    1  0.8788345E-015  0.9211677E+02  0.7546771E-02  0.1297805E+00
          1   -1    0    0  501    0  0.00000000000E+00  0.00000000000E+00  0.57624561378E+01  0.57624561378E+01  0.00000000000E+00 0. -1.
         -1   -1    0    0    0  501 -0.00000000000E+00 -0.00000000000E+00 -0.36813722588E+03  0.36813722588E+03  0.00000000000E+00 0.  1.
         23    2    1    2    0    0 -0.17763568394E-14  0.00000000000E+00 -0.36237476974E+03  0.37389968201E+03  0.92116765397E+02 0.  0.
          5    1    3    3  502    0 -0.19319657640E+02 -0.11844631352E+02 -0.81150538167E+02  0.84386280330E+02  0.47000000000E+01 0. -1.
         -5    1    3    3    0  502 -0.71408581480E+01 -0.21005044108E+02 -0.12830824752E+03  0.13029696893E+03  0.47000000000E+01 0.  1.
          5    1    3    3  503    0  0.15884247844E+02  0.12410180458E+02 -0.64937125215E+02  0.68156013232E+02  0.47000000000E+01 0.  1.
         -5    1    3    3    0  503  0.10576267944E+02  0.20439495002E+02 -0.87978858840E+02  0.91060419515E+02  0.47000000000E+01 0. -1.
<mgrwt>
<rscale>  0 0.92116765E+02</rscale>
<asrwt>0</asrwt>
<pdfrwt beam="1">  1        1 0.88653162E-03 0.92116765E+02</pdfrwt>
<pdfrwt beam="2">  1       -1 0.56636502E-01 0.92116765E+02</pdfrwt>
<totfact> 0.54016426E+04</totfact>
</mgrwt>
</event>
<event>
 7    1  0.8788345E-015  0.9077727E+02  0.7546771E-02  0.1300980E+00
         -1   -1    0    0    0  501 -0.00000000000E+00  0.00000000000E+00  0.50276436202E+03  0.50276436202E+03  0.00000000000E+00 0.  1.
          1   -1    0    0  501    0  0.00000000000E+00 -0.00000000000E+00 -0.40976021611E+01  0.40976021611E+01  0.00000000000E+00 0. -1.
         23    2    1    2    0    0 -0.15543122345E-14  0.35527136788E-14  0.49866675985E+03  0.50686196418E+03  0.90777273286E+02 0.  0.
          5    1    3    3  502    0  0.21758731358E+02 -0.12803230667E+02  0.12005118854E+03  0.12276702723E+03  0.47000000000E+01 0. -1.
         -5    1    3    3    0  502 -0.70000970169E+01 -0.19168906394E+02  0.87831806073E+02  0.90293767718E+02  0.47000000000E+01 0. -1.
          5    1    3    3  503    0  0.19143165706E+01  0.20659370301E+02  0.15349946730E+03  0.15496661141E+03  0.47000000000E+01 0.  1.
         -5    1    3    3    0  503 -0.16672950912E+02  0.11312766760E+02  0.13728429794E+03  0.13883455782E+03  0.47000000000E+01 0.  1.
<mgrwt>
<rscale>  0 0.90777273E+02</rscale>
<asrwt>0</asrwt>
<pdfrwt beam="1">  1        1 0.63040073E-03 0.90777273E+02</pdfrwt>
<pdfrwt beam="2">  1       -1 0.77348315E-01 0.90777273E+02</pdfrwt>
<totfact> 0.47425482E+04</totfact>
</mgrwt>
</event>
<event>
 7    1  0.8788345E-015  0.9471405E+02  0.7546771E-02  0.1291821E+00
          1   -1    0    0  501    0  0.00000000000E+00  0.00000000000E+00  0.85806595625E+01  0.85806595625E+01  0.00000000000E+00 0. -1.
         -1   -1    0    0    0  501 -0.00000000000E+00 -0.00000000000E+00 -0.26136542003E+03  0.26136542003E+03  0.00000000000E+00 0.  1.
         23    2    1    2    0    0  0.44408920985E-15 -0.35527136788E-14 -0.25278476047E+03  0.26994607959E+03  0.94714047336E+02 0.  0.
          5    1    3    3  502    0 -0.25161579475E+00 -0.21512128002E+02 -0.30157183199E+02  0.37341406778E+02  0.47000000000E+01 0. -1.
         -5    1    3    3    0  503  0.91971824096E+01 -0.19625082960E+02 -0.56711260167E+02  0.60893259686E+02  0.47000000000E+01 0.  1.
          5    1    3    3  503    0 -0.80393930246E+01  0.19044187649E+02 -0.68429295276E+02  0.71637778968E+02  0.47000000000E+01 0.  1.
         -5    1    3    3    0  502 -0.90617359023E+00  0.22093023313E+02 -0.97487021824E+02  0.10007363416E+03  0.47000000000E+01 0.  1.
<mgrwt>
<rscale>  0 0.94714047E+02</rscale>
<asrwt>0</asrwt>
<pdfrwt beam="1">  1        1 0.13201017E-02 0.94714047E+02</pdfrwt>
<pdfrwt beam="2">  1       -1 0.40210057E-01 0.94714047E+02</pdfrwt>
<totfact> 0.57731296E+04</totfact>
</mgrwt>
</event>
