<event>
 7    1  0.1050440E-008  0.1513034E+03  0.7546771E-02  0.1209792E+00
          3   -1    0    0  501    0  0.00000000000E+00  0.00000000000E+00  0.12064359416E+03  0.12064359416E+03  0.00000000000E+00 0. -1.
         -3   -1    0    0    0  501 -0.00000000000E+00 -0.00000000000E+00 -0.19197766014E+03  0.19197766014E+03  0.00000000000E+00 0.  1.
         25    2    1    2    0    0 -0.71519877220E+02  0.46376629633E+02 -0.10986148191E+03  0.18698195924E+03  0.12500729283E+03 0.  0.
          5    1    3    3  502    0 -0.80288639838E+02  0.17337177990E+02 -0.10444471664E+02  0.82933831553E+02  0.47000000000E+01 0. -1.
         -5    1    3    3    0  502  0.87687626173E+01  0.29039451643E+02 -0.99417010241E+02  0.10404812769E+03  0.47000000000E+01 0. -1.
          5    1    1    2  503    0  0.68337624911E+02 -0.68251054460E+02  0.27737239563E+02  0.10059662953E+03  0.47000000000E+01 0. -1.
         -5    1    1    2    0  503  0.31822523098E+01  0.21874424827E+02  0.10790176362E+02  0.25042665537E+02  0.47000000000E+01 0.  1.
<mgrwt>
<rscale>  0 0.14266149E+03</rscale>
<asrwt>0</asrwt>
<pdfrwt beam="1">  1        3 0.18560553E-01 0.15130336E+03</pdfrwt>
<pdfrwt beam="2">  1       -3 0.29535025E-01 0.15130336E+03</pdfrwt>
<totfact> 0.66546064E+02</totfact>
</mgrwt>
</event>
<event>
 7    1  0.1050440E-008  0.1958114E+03  0.7546771E-02  0.1170497E+00
         -1   -1    0    0    0  501 -0.00000000000E+00  0.00000000000E+00  0.62006799894E+03  0.62006799894E+03  0.00000000000E+00 0.  1.
          1   -1    0    0  501    0  0.00000000000E+00 -0.00000000000E+00 -0.53120894381E+02  0.53120894381E+02  0.00000000000E+00 0. -1.
         25    2    1    2    0    0  0.36436723937E+02  0.18158520918E+02  0.38144777420E+03  0.40346291262E+03  0.12499020235E+03 0.  0.
          5    1    3    3  502    0  0.57193873222E+02 -0.33697095842E+02  0.13238568840E+03  0.14817116419E+03  0.47000000000E+01 0. -1.
         -5    1    3    3    0  502 -0.20757149285E+02  0.51855616760E+02  0.24906208580E+03  0.25529174843E+03  0.47000000000E+01 0. -1.
          5    1    1    2  503    0  0.13100475857E+02  0.59305224424E+02 -0.18841556372E+01  0.60945649181E+02  0.47000000000E+01 0. -1.
         -5    1    1    2    0  503 -0.49537199794E+02 -0.77463745342E+02  0.18738348599E+03  0.20878033151E+03  0.47000000000E+01 0.  1.
<mgrwt>
<rscale>  0 0.17724385E+03</rscale>
<asrwt>0</asrwt>
<pdfrwt beam="1">  1        1 0.81724458E-02 0.19581140E+03</pdfrwt>
<pdfrwt beam="2">  1       -1 0.95395071E-01 0.19581140E+03</pdfrwt>
<totfact> 0.93929774E+02</totfact>
</mgrwt>
</event>
<event>
 7    1  0.1050440E-008  0.7356771E+03  0.7546771E-02  0.9658093E-01
          2   -1    0    0  501    0  0.00000000000E+00  0.00000000000E+00  0.12957221540E+04  0.12957221540E+04  0.00000000000E+00 0. -1.
         -2   -1    0    0    0  501 -0.00000000000E+00 -0.00000000000E+00 -0.10442455711E+03  0.10442455711E+03  0.00000000000E+00 0.  1.
         25    2    1    2    0    0  0.20116693545E+03 -0.13381458278E+03  0.44709250845E+03  0.52334617269E+03  0.12500010753E+03 0.  0.
          5    1    3    3  502    0  0.10312571898E+03 -0.10374144469E+00  0.13537855620E+03  0.17024796080E+03  0.47000000000E+01 0. -1.
         -5    1    1    2    0  503 -0.28099327014E+03  0.37241242266E+02  0.28974694695E+03  0.40536343108E+03  0.47000000000E+01 0.  1.
          5    1    1    2  503    0  0.79826334697E+02  0.96573340512E+02  0.45445814145E+03  0.47143710730E+03  0.47000000000E+01 0. -1.
         -5    1    3    3    0  502  0.98041216466E+02 -0.13371084133E+03  0.31171395225E+03  0.35309821190E+03  0.47000000000E+01 0. -1.
<mgrwt>
<rscale>  0 0.73567714E+03</rscale>
<asrwt>0</asrwt>
<pdfrwt beam="1">  1        2 0.19934186E+00 0.73567714E+03</pdfrwt>
<pdfrwt beam="2">  1       -2 0.16065317E-01 0.73567714E+03</pdfrwt>
<totfact> 0.52338449E+02</totfact>
</mgrwt>
</event>
<event>
 7    1  0.1050440E-008  0.1726395E+03  0.7546771E-02  0.1187838E+00
         -1   -1    0    0    0  501 -0.00000000000E+00  0.00000000000E+00  0.13619581517E+03  0.13619581517E+03  0.00000000000E+00 0.  1.
          1   -1    0    0  501    0  0.00000000000E+00 -0.00000000000E+00 -0.19327520878E+03  0.19327520878E+03  0.00000000000E+00 0. -1.
         25    2    1    2    0    0 -0.11171630955E+03 -0.41223344104E+02 -0.91199470916E+02  0.19524790529E+03  0.12499801240E+03 0.  0.
          5    1    1    2  502    0  0.77568764795E+02  0.39283315282E+02  0.20467113766E+01  0.87099777031E+02  0.47000000000E+01 0. -1.
         -5    1    1    2    0  502  0.34147544755E+02  0.19400288214E+01  0.32073365933E+02  0.47123341636E+02  0.47000000000E+01 0.  1.
          5    1    3    3  503    0 -0.25055322164E+02 -0.37887745041E+02 -0.98012592815E+02  0.10812866754E+03  0.47000000000E+01 0. -1.
         -5    1    3    3    0  503 -0.86660987386E+02 -0.33355990623E+01  0.68131218993E+01  0.87119237748E+02  0.47000000000E+01 0. -1.
<mgrwt>
<rscale>  0 0.16076278E+03</rscale>
<asrwt>0</asrwt>
<pdfrwt beam="1">  1        1 0.29734647E-01 0.17263951E+03</pdfrwt>
<pdfrwt beam="2">  1       -1 0.20953202E-01 0.17263951E+03</pdfrwt>
<totfact> 0.28010479E+03</totfact>
</mgrwt>
</event>
<event>
 7    1  0.1050440E-008  0.1925724E+03  0.7546771E-02  0.1160773E+00
         -1   -1    0    0    0  501 -0.00000000000E+00  0.00000000000E+00  0.22064559123E+02  0.22064559123E+02  0.00000000000E+00 0.  1.
          1   -1    0    0  501    0  0.00000000000E+00 -0.00000000000E+00 -0.15381881568E+04  0.15381881568E+04  0.00000000000E+00 0. -1.
         25    2    1    2    0    0  0.11948455277E+03  0.40752114311E+00 -0.81651935499E+03  0.83462867807E+03  0.12499779503E+03 0.  0.
          5    1    3    3  502    0  0.28841935789E+02 -0.24267257092E+01 -0.26861284604E+02  0.39766378617E+02  0.47000000000E+01 0.  1.
         -5    1    1    2    0  503 -0.25457566839E+02  0.58351934478E+02 -0.12452013712E+03  0.13992994860E+03  0.47000000000E+01 0.  1.
          5    1    1    2  503    0 -0.94026985932E+02 -0.58759455621E+02 -0.57508410555E+03  0.58569408924E+03  0.47000000000E+01 0. -1.
         -5    1    3    3    0  502  0.90642616982E+02  0.28342468523E+01 -0.78965807038E+03  0.79486229945E+03  0.47000000000E+01 0.  1.
<mgrwt>
<rscale>  0 0.18745915E+03</rscale>
<asrwt>0</asrwt>
<pdfrwt beam="1">  1        1 0.23664435E+00 0.19257245E+03</pdfrwt>
<pdfrwt beam="2">  1       -1 0.33945473E-02 0.19257245E+03</pdfrwt>
<totfact> 0.21198918E+03</totfact>
</mgrwt>
</event>
<event>
 7    1  0.1050440E-008  0.1455718E+03  0.7546771E-02  0.1211729E+00
          1   -1    0    0  501    0  0.00000000000E+00  0.00000000000E+00  0.39507627901E+03  0.39507627901E+03  0.00000000000E+00 0. -1.
         -1   -1    0    0    0  501 -0.00000000000E+00 -0.00000000000E+00 -0.80983891772E+02  0.80983891772E+02  0.00000000000E+00 0.  1.
         25    2    1    2    0    0  0.21291877048E+02  0.22824678183E+02 -0.11328009214E+01  0.12884545829E+03  0.12500223567E+03 0.  0.
          5    1    1    2  502    0  0.30824148355E+02 -0.41234030038E+02  0.37148073914E+02  0.63658799474E+02  0.47000000000E+01 0. -1.
         -5    1    1    2    0  502 -0.52116025403E+02  0.18409351854E+02  0.27807711425E+03  0.28355591302E+03  0.47000000000E+01 0.  1.
          5    1    3    3  503    0 -0.39894383128E+02 -0.27938833929E+02 -0.44651722065E+01  0.49134183715E+02  0.47000000000E+01 0. -1.
         -5    1    3    3    0  503  0.61186260176E+02  0.50763512113E+02  0.33323712851E+01  0.79711274577E+02  0.47000000000E+01 0. -1.
<mgrwt>
<rscale>  0 0.14119552E+03</rscale>
<asrwt>0</asrwt>
<pdfrwt beam="1">  1        1 0.60780965E-01 0.14557176E+03</pdfrwt>
<pdfrwt beam="2">  1       -1 0.12459060E-01 0.14557176E+03</pdfrwt>
<totfact> 0.25975676E+03</totfact>
</mgrwt>
</event>
<event>
 7    1  0.1050440E-008  0.6547733E+03  0.7546771E-02  0.9852516E-01
         -2   -1    0    0    0  501 -0.00000000000E+00  0.00000000000E+00  0.16451845841E+03  0.16451845841E+03  0.00000000000E+00 0.  1.
          2   -1    0    0  501    0  0.00000000000E+00 -0.00000000000E+00 -0.22353167395E+04  0.22353167395E+04  0.00000000000E+00 0. -1.
         25    2    1    2    0    0  0.31448576186E+03  0.43064190426E+03 -0.11007531806E+04  0.12294867079E+04  0.12500502460E+03 0.  0.
          5    1    3    3  502    0  0.20923635334E+03  0.18106332756E+03 -0.56524503217E+03  0.62935507986E+03  0.47000000000E+01 0.  1.
         -5    1    3    3    0  502  0.10524940852E+03  0.24957857670E+03 -0.53550814839E+03  0.60013162801E+03  0.47000000000E+01 0.  1.
          5    1    1    2  503    0 -0.96985981002E+02 -0.42287967945E+03 -0.58984406318E+03  0.73223740185E+03  0.47000000000E+01 0. -1.
         -5    1    1    2    0  503 -0.21749978086E+03 -0.77622248142E+01 -0.38020103738E+03  0.43811108823E+03  0.47000000000E+01 0.  1.
<mgrwt>
<rscale>  0 0.62618804E+03</rscale>
<asrwt>0</asrwt>
<pdfrwt beam="1">  1        2 0.34389485E+00 0.65477331E+03</pdfrwt>
<pdfrwt beam="2">  1       -2 0.25310535E-01 0.65477331E+03</pdfrwt>
<totfact> 0.72271319E+01</totfact>
</mgrwt>
</event>
<event>
 7    1  0.1050440E-008  0.1859805E+03  0.7546771E-02  0.1167855E+00
         -1   -1    0    0    0  501 -0.00000000000E+00  0.00000000000E+00  0.36883747107E+02  0.36883747107E+02  0.00000000000E+00 0.  1.
          1   -1    0    0  501    0  0.00000000000E+00 -0.00000000000E+00 -0.93128176153E+03  0.93128176153E+03  0.00000000000E+00 0. -1.
         25    2    1    2    0    0 -0.12108366193E+02  0.13717407541E+03 -0.31043526684E+03  0.36188229973E+03  0.12500161784E+03 0.  0.
          5    1    3    3  502    0 -0.16979335864E+02  0.75325343157E+02 -0.45516623344E+02  0.89755546730E+02  0.47000000000E+01 0. -1.
         -5    1    3    3    0  502  0.48709696711E+01  0.61848732254E+02 -0.26491864350E+03  0.27212675300E+03  0.47000000000E+01 0. -1.
          5    1    1    2  503    0  0.40528528727E+02 -0.10902263059E+03 -0.34922700515E+03  0.36811694711E+03  0.47000000000E+01 0. -1.
         -5    1    1    2    0  503 -0.28420162535E+02 -0.28151444819E+02 -0.23473574243E+03  0.23816626180E+03  0.47000000000E+01 0.  1.
<mgrwt>
<rscale>  0 0.17994635E+03</rscale>
<asrwt>0</asrwt>
<pdfrwt beam="1">  1        1 0.14327410E+00 0.18598049E+03</pdfrwt>
<pdfrwt beam="2">  1       -1 0.56744234E-02 0.18598049E+03</pdfrwt>
<totfact> 0.26052005E+03</totfact>
</mgrwt>
</event>
<event>
 7    1  0.1050440E-008  0.1404010E+03  0.7546771E-02  0.1249437E+00
         -1   -1    0    0    0  501 -0.00000000000E+00  0.00000000000E+00  0.10259633312E+03  0.10259633312E+03  0.00000000000E+00 0.  1.
          1   -1    0    0  501    0  0.00000000000E+00 -0.00000000000E+00 -0.11831175075E+03  0.11831175075E+03  0.00000000000E+00 0. -1.
         25    2    1    2    0    0  0.97450339332E+01  0.63181788225E+02 -0.46796010553E+02  0.14799426628E+03  0.12500212878E+03 0.  0.
          5    1    1    2  502    0 -0.51490869362E+01 -0.19448654643E+02  0.39620601411E+01  0.21036900538E+02  0.47000000000E+01 0. -1.
         -5    1    3    3    0  503  0.42159393909E+02  0.80531553415E+02 -0.59579766973E+02  0.10878687523E+03  0.47000000000E+01 0.  1.
          5    1    3    3  503    0 -0.32414359976E+02 -0.17349765190E+02  0.12783756420E+02  0.39207391051E+02  0.47000000000E+01 0.  1.
         -5    1    1    2    0  502 -0.45959469970E+01 -0.43733133583E+02  0.27118532782E+02  0.51876917044E+02  0.47000000000E+01 0.  1.
<mgrwt>
<rscale>  0 0.11623690E+03</rscale>
<asrwt>0</asrwt>
<pdfrwt beam="1">  1        1 0.18201808E-01 0.14040098E+03</pdfrwt>
<pdfrwt beam="2">  1       -1 0.15784051E-01 0.14040098E+03</pdfrwt>
<totfact> 0.80993994E+03</totfact>
</mgrwt>
</event>
<event>
 7    1  0.1050440E-008  0.1312102E+03  0.7546771E-02  0.1268883E+00
         -2   -1    0    0    0  501 -0.00000000000E+00  0.00000000000E+00  0.78982944016E+02  0.78982944016E+02  0.00000000000E+00 0.  1.
          2   -1    0    0  501    0  0.00000000000E+00 -0.00000000000E+00 -0.11531011497E+03  0.11531011497E+03  0.00000000000E+00 0. -1.
         25    2    1    2    0    0 -0.23044133458E+02  0.32587154366E+02 -0.59090208520E+01  0.13134321100E+03  0.12499267112E+03 0.  0.
          5    1    3    3  502    0  0.37330378586E+02  0.21418999347E+02 -0.41706806285E+02  0.60115541991E+02  0.47000000000E+01 0. -1.
         -5    1    1    2    0  503  0.30622076425E+02 -0.13447125884E+02 -0.15926870974E+02  0.37340219310E+02  0.47000000000E+01 0.  1.
          5    1    1    2  503    0 -0.75779429669E+01 -0.19140028482E+02 -0.14491279127E+02  0.25609628670E+02  0.47000000000E+01 0. -1.
         -5    1    3    3    0  502 -0.60374512044E+02  0.11168155019E+02  0.35797785433E+02  0.71227669013E+02  0.47000000000E+01 0. -1.
<mgrwt>
<rscale>  0 0.10563038E+03</rscale>
<asrwt>0</asrwt>
<pdfrwt beam="1">  1        2 0.17740018E-01 0.13121022E+03</pdfrwt>
<pdfrwt beam="2">  1       -2 0.12151222E-01 0.13121022E+03</pdfrwt>
<totfact> 0.14393629E+04</totfact>
</mgrwt>
</event>
<event>
 7    1  0.1050440E-008  0.3152536E+03  0.7546771E-02  0.1106172E+00
         -1   -1    0    0    0  501 -0.00000000000E+00  0.00000000000E+00  0.66102804150E+03  0.66102804150E+03  0.00000000000E+00 0.  1.
          1   -1    0    0  501    0  0.00000000000E+00 -0.00000000000E+00 -0.88125606330E+02  0.88125606330E+02  0.00000000000E+00 0. -1.
         25    2    1    2    0    0 -0.61054999602E+02 -0.54833841043E+02  0.96760960492E+02  0.17810587759E+03  0.12499822822E+03 0.  0.
          5    1    1    2  502    0  0.89114779247E+02 -0.92412556366E+02  0.90137730698E+02  0.15693446068E+03  0.47000000000E+01 0. -1.
         -5    1    1    2    0  502 -0.28059779645E+02  0.14724639741E+03  0.38600374398E+03  0.41411330955E+03  0.47000000000E+01 0.  1.
          5    1    3    3  503    0 -0.17170735015E+01 -0.26110090029E+02 -0.26944385389E+02  0.37852015094E+02  0.47000000000E+01 0. -1.
         -5    1    3    3    0  503 -0.59337926101E+02 -0.28723751014E+02  0.12370534588E+03  0.14025386250E+03  0.47000000000E+01 0. -1.
<mgrwt>
<rscale>  0 0.26162345E+03</rscale>
<asrwt>0</asrwt>
<pdfrwt beam="1">  1        1 0.13557786E-01 0.31525363E+03</pdfrwt>
<pdfrwt beam="2">  1       -1 0.10169662E+00 0.31525363E+03</pdfrwt>
<totfact> 0.41398221E+02</totfact>
</mgrwt>
</event>
<event>
 7    1  0.1050440E-008  0.6059146E+03  0.7546771E-02  0.9893211E-01
         -2   -1    0    0    0  501 -0.00000000000E+00  0.00000000000E+00  0.27864317016E+03  0.27864317016E+03  0.00000000000E+00 0.  1.
          2   -1    0    0  501    0  0.00000000000E+00 -0.00000000000E+00 -0.32939305357E+03  0.32939305357E+03  0.00000000000E+00 0. -1.
         25    2    1    2    0    0 -0.13957625399E+03 -0.21523801344E+03  0.47241489482E+02  0.28925169569E+03  0.12500340804E+03 0.  0.
          5    1    1    2  502    0  0.15896743098E+03  0.19344917748E+03 -0.12397737579E+03  0.27943820084E+03  0.47000000000E+01 0. -1.
         -5    1    3    3    0  503 -0.71137388486E+02 -0.22603836748E+02  0.39594450018E+02  0.84624298807E+02  0.47000000000E+01 0. -1.
          5    1    3    3  503    0 -0.68438865506E+02 -0.19263417669E+03  0.76470394638E+01  0.20462739688E+03  0.47000000000E+01 0. -1.
         -5    1    1    2    0  502 -0.19391176988E+02  0.21788835962E+02  0.25986002899E+02  0.39346327202E+02  0.47000000000E+01 0.  1.
<mgrwt>
<rscale>  0 0.60591460E+03</rscale>
<asrwt>0</asrwt>
<pdfrwt beam="1">  1        2 0.50675854E-01 0.60591460E+03</pdfrwt>
<pdfrwt beam="2">  1       -2 0.42868181E-01 0.60591460E+03</pdfrwt>
<totfact> 0.51440220E+02</totfact>
</mgrwt>
</event>
<event>
 7    1  0.1050440E-008  0.5642475E+03  0.7546771E-02  0.9982490E-01
         -2   -1    0    0    0  501 -0.00000000000E+00  0.00000000000E+00  0.45252633361E+02  0.45252633361E+02  0.00000000000E+00 0.  1.
          2   -1    0    0  501    0  0.00000000000E+00 -0.00000000000E+00 -0.17588767474E+04  0.17588767474E+04  0.00000000000E+00 0. -1.
         25    2    1    2    0    0  0.14521788567E+03  0.56592993825E+02 -0.12924901922E+04  0.13078403827E+04  0.12499827311E+03 0.  0.
          5    1    3    3  502    0  0.91163208460E+02  0.90781170448E+02 -0.10094104899E+04  0.10175871356E+04  0.47000000000E+01 0.  1.
         -5    1    3    3    0  502  0.54054677205E+02 -0.34188176623E+02 -0.28307970235E+03  0.29025324706E+03  0.47000000000E+01 0.  1.
          5    1    1    2  503    0 -0.19245227345E+03 -0.79477588779E+02 -0.35669114496E+03  0.41304385671E+03  0.47000000000E+01 0. -1.
         -5    1    1    2    0  503  0.47234387782E+02  0.22884594955E+02 -0.64442776870E+02  0.83245141396E+02  0.47000000000E+01 0.  1.
<mgrwt>
<rscale>  0 0.56424748E+03</rscale>
<asrwt>0</asrwt>
<pdfrwt beam="1">  1        2 0.27059642E+00 0.56424748E+03</pdfrwt>
<pdfrwt beam="2">  1       -2 0.69619437E-02 0.56424748E+03</pdfrwt>
<totfact> 0.11467482E+03</totfact>
</mgrwt>
</event>
<event>
 7    1  0.1050440E-008  0.1858193E+03  0.7546771E-02  0.1173154E+00
          2   -1    0    0  501    0  0.00000000000E+00  0.00000000000E+00  0.42549295342E+03  0.42549295342E+03  0.00000000000E+00 0. -1.
         -2   -1    0    0    0  501 -0.00000000000E+00 -0.00000000000E+00 -0.68346047431E+02  0.68346047431E+02  0.00000000000E+00 0.  1.
         25    2    1    2    0    0  0.82949435684E+02  0.10964605810E+03  0.25965759707E+03  0.31929745667E+03  0.12500372465E+03 0.  0.
          5    1    1    2  502    0 -0.55297449245E+02 -0.65808194286E+02  0.34267633431E+02  0.92654665448E+02  0.47000000000E+01 0. -1.
         -5    1    3    3    0  503  0.98729138164E+02  0.93376942976E+02  0.26284437213E+03  0.29593234052E+03  0.47000000000E+01 0.  1.
          5    1    3    3  503    0 -0.15779702480E+02  0.16269115128E+02 -0.31867750575E+01  0.23365116150E+02  0.47000000000E+01 0.  1.
         -5    1    1    2    0  502 -0.27651986439E+02 -0.43837863818E+02  0.63221675481E+02  0.81886878734E+02  0.47000000000E+01 0.  1.
<mgrwt>
<rscale>  0 0.17457959E+03</rscale>
<asrwt>0</asrwt>
<pdfrwt beam="1">  1        2 0.65460453E-01 0.18581926E+03</pdfrwt>
<pdfrwt beam="2">  1       -2 0.10514777E-01 0.18581926E+03</pdfrwt>
<totfact> 0.44701212E+03</totfact>
</mgrwt>
</event>
<event>
 7    1  0.1050440E-008  0.1321087E+03  0.7546771E-02  0.1230413E+00
         -1   -1    0    0    0  501 -0.00000000000E+00  0.00000000000E+00  0.10733294263E+03  0.10733294263E+03  0.00000000000E+00 0.  1.
          1   -1    0    0  501    0  0.00000000000E+00 -0.00000000000E+00 -0.29966949158E+03  0.29966949158E+03  0.00000000000E+00 0. -1.
         25    2    1    2    0    0 -0.31802431659E+02 -0.28569590262E+02  0.47475532430E+02  0.14038031453E+03  0.12500036152E+03 0.  0.
          5    1    1    2  502    0 -0.32372039093E+02  0.35685359532E+02 -0.13512532581E+03  0.14353514369E+03  0.47000000000E+01 0. -1.
         -5    1    1    2    0  502  0.64174470753E+02 -0.71157692702E+01 -0.10468675556E+03  0.12308697599E+03  0.47000000000E+01 0.  1.
          5    1    3    3  503    0  0.22574142716E+02  0.94616973892E+01 -0.29515437115E+02  0.38631161837E+02  0.47000000000E+01 0.  1.
         -5    1    3    3    0  503 -0.54376574375E+02 -0.38031287651E+02  0.76990969545E+02  0.10174915269E+03  0.47000000000E+01 0.  1.
<mgrwt>
<rscale>  0 0.12802686E+03</rscale>
<asrwt>0</asrwt>
<pdfrwt beam="1">  1        1 0.46102998E-01 0.13210869E+03</pdfrwt>
<pdfrwt beam="2">  1       -1 0.16512760E-01 0.13210869E+03</pdfrwt>
<totfact> 0.23526605E+03</totfact>
</mgrwt>
</event>
<event>
 7    1  0.1050440E-008  0.7292709E+03  0.7546771E-02  0.9668444E-01
          2   -1    0    0  501    0  0.00000000000E+00  0.00000000000E+00  0.88879394415E+03  0.88879394415E+03  0.00000000000E+00 0. -1.
         -2   -1    0    0    0  501 -0.00000000000E+00 -0.00000000000E+00 -0.14959488596E+03  0.14959488596E+03  0.00000000000E+00 0.  1.
         25    2    1    2    0    0 -0.15686695664E+03 -0.19597445332E+03  0.63061249453E+03  0.69015243819E+03  0.12500016500E+03 0.  0.
          5    1    1    2  502    0  0.49928877013E+02  0.55650083754E+01  0.11930800732E+03  0.12953900064E+03  0.47000000000E+01 0. -1.
         -5    1    3    3    0  503 -0.79888481324E+02 -0.14870653298E+03  0.27076731680E+03  0.31911256986E+03  0.47000000000E+01 0.  1.
          5    1    3    3  503    0 -0.76978475314E+02 -0.47267920339E+02  0.35984517773E+03  0.37103986833E+03  0.47000000000E+01 0.  1.
         -5    1    1    2    0  502  0.10693807962E+03  0.19040944494E+03 -0.10721443659E+02  0.21869739127E+03  0.47000000000E+01 0.  1.
<mgrwt>
<rscale>  0 0.72927095E+03</rscale>
<asrwt>0</asrwt>
<pdfrwt beam="1">  1        2 0.13673753E+00 0.72927095E+03</pdfrwt>
<pdfrwt beam="2">  1       -2 0.23014598E-01 0.72927095E+03</pdfrwt>
<totfact> 0.49937598E+02</totfact>
</mgrwt>
</event>
<event>
 7    1  0.1050440E-008  0.1460344E+03  0.7546771E-02  0.1228705E+00
          1   -1    0    0  501    0  0.00000000000E+00  0.00000000000E+00  0.17789831830E+03  0.17789831830E+03  0.00000000000E+00 0. -1.
         -1   -1    0    0    0  501 -0.00000000000E+00 -0.00000000000E+00 -0.93541537614E+02  0.93541537614E+02  0.00000000000E+00 0.  1.
         25    2    1    2    0    0  0.75058856177E+02 -0.82071911523E+01 -0.35609536057E+01  0.14607784739E+03  0.12499946892E+03 0.  0.
          5    1    3    3  502    0 -0.29949185850E+02 -0.11400456235E+02 -0.22214451383E+02  0.39274622668E+02  0.47000000000E+01 0.  1.
         -5    1    3    3    0  502  0.10500804203E+03  0.31932650827E+01  0.18653497778E+02  0.10680322472E+03  0.47000000000E+01 0.  1.
          5    1    1    2  503    0 -0.50119603006E+02  0.22017553453E+02  0.76742447360E+02  0.94383475738E+02  0.47000000000E+01 0. -1.
         -5    1    1    2    0  503 -0.24939253171E+02 -0.13810362301E+02  0.11175286937E+02  0.30978532789E+02  0.47000000000E+01 0.  1.
<mgrwt>
<rscale>  0 0.12916158E+03</rscale>
<asrwt>0</asrwt>
<pdfrwt beam="1">  1        1 0.27368972E-01 0.14603444E+03</pdfrwt>
<pdfrwt beam="2">  1       -1 0.14391006E-01 0.14603444E+03</pdfrwt>
<totfact> 0.56036581E+03</totfact>
</mgrwt>
</event>
<event>
 7    1  0.1050440E-008  0.1442025E+03  0.7546771E-02  0.1234363E+00
         -2   -1    0    0    0  501 -0.00000000000E+00  0.00000000000E+00  0.97227552341E+02  0.97227552341E+02  0.00000000000E+00 0.  1.
          2   -1    0    0  501    0  0.00000000000E+00 -0.00000000000E+00 -0.13245949189E+03  0.13245949189E+03  0.00000000000E+00 0. -1.
         25    2    1    2    0    0  0.67385367731E+02  0.25088241372E+02 -0.18229152724E+02  0.14535016531E+03  0.12499664358E+03 0.  0.
          5    1    3    3  502    0 -0.48534394005E+01  0.62113917736E+02 -0.13367299387E+02  0.63894204302E+02  0.47000000000E+01 0. -1.
         -5    1    1    2    0  503 -0.43355956406E+02  0.44495215216E+01 -0.13209570764E+02  0.45783402641E+02  0.47000000000E+01 0.  1.
          5    1    1    2  503    0 -0.24029411325E+02 -0.29537762893E+02 -0.37932160641E+01  0.38553476283E+02  0.47000000000E+01 0. -1.
         -5    1    3    3    0  502  0.72238807131E+02 -0.37025676364E+02 -0.48618533365E+01  0.81455961009E+02  0.47000000000E+01 0. -1.
<mgrwt>
<rscale>  0 0.12545312E+03</rscale>
<asrwt>0</asrwt>
<pdfrwt beam="1">  1        2 0.20378383E-01 0.14420253E+03</pdfrwt>
<pdfrwt beam="2">  1       -2 0.14958085E-01 0.14420253E+03</pdfrwt>
<totfact> 0.88544428E+03</totfact>
</mgrwt>
</event>
<event>
 7    1  0.1050440E-008  0.5128335E+03  0.7546771E-02  0.1030398E+00
         -2   -1    0    0    0  501 -0.00000000000E+00  0.00000000000E+00  0.80168545307E+03  0.80168545307E+03  0.00000000000E+00 0. -1.
          2   -1    0    0  501    0  0.00000000000E+00 -0.00000000000E+00 -0.19643187845E+03  0.19643187845E+03  0.00000000000E+00 0.  1.
         25    2    1    2    0    0 -0.15979019122E+03  0.19411759106E+03  0.20876039657E+03  0.34988510554E+03  0.12499655809E+03 0.  0.
          5    1    3    3  502    0 -0.81547265093E+02  0.89454374977E+02  0.23931628649E+02  0.12347815392E+03  0.47000000000E+01 0. -1.
         -5    1    3    3    0  502 -0.78242926129E+02  0.10466321608E+03  0.18482876792E+03  0.22640695162E+03  0.47000000000E+01 0. -1.
          5    1    1    2  503    0 -0.35700161012E+02 -0.25361898195E+03  0.35805097737E+03  0.44024956774E+03  0.47000000000E+01 0.  1.
         -5    1    1    2    0  503  0.19549035223E+03  0.59501390887E+02  0.38442200688E+02  0.20798265824E+03  0.47000000000E+01 0.  1.
<mgrwt>
<rscale>  0 0.44113823E+03</rscale>
<asrwt>0</asrwt>
<pdfrwt beam="1">  1        2 0.30220289E-01 0.51283348E+03</pdfrwt>
<pdfrwt beam="2">  1       -2 0.12333622E+00 0.51283348E+03</pdfrwt>
<totfact> 0.89371476E+01</totfact>
</mgrwt>
</event>
<event>
 7    1  0.1050440E-008  0.6491066E+03  0.7546771E-02  0.9808457E-01
          2   -1    0    0  501    0  0.00000000000E+00  0.00000000000E+00  0.15596305562E+03  0.15596305562E+03  0.00000000000E+00 0.  1.
         -2   -1    0    0    0  501 -0.00000000000E+00 -0.00000000000E+00 -0.67538325454E+03  0.67538325454E+03  0.00000000000E+00 0. -1.
         25    2    1    2    0    0 -0.21270209463E+01 -0.13269020284E+03 -0.29256644812E+03  0.34471986778E+03  0.12500178608E+03 0.  0.
          5    1    3    3  502    0  0.18021761649E+02 -0.54528716273E+02 -0.20929231306E+02  0.61304873496E+02  0.47000000000E+01 0.  1.
         -5    1    3    3    0  502 -0.20148782595E+02 -0.78161486571E+02 -0.27163721682E+03  0.28341499428E+03  0.47000000000E+01 0.  1.
          5    1    1    2  503    0  0.48265689324E+02  0.14823842454E+03  0.80421723609E+02  0.17548205294E+03  0.47000000000E+01 0.  1.
         -5    1    1    2    0  503 -0.46138668378E+02 -0.15548221693E+02 -0.30727547441E+03  0.31114438945E+03  0.47000000000E+01 0. -1.
<mgrwt>
<rscale>  0 0.64910657E+03</rscale>
<asrwt>0</asrwt>
<pdfrwt beam="1">  1        2 0.23994316E-01 0.64910657E+03</pdfrwt>
<pdfrwt beam="2">  1       -2 0.10390512E+00 0.64910657E+03</pdfrwt>
<totfact> 0.17522659E+02</totfact>
</mgrwt>
</event>
<event>
 7    1  0.1050440E-008  0.2173224E+03  0.7546771E-02  0.1137743E+00
         -1   -1    0    0    0  501 -0.00000000000E+00  0.00000000000E+00  0.13352644904E+03  0.13352644904E+03  0.00000000000E+00 0.  1.
          1   -1    0    0  501    0  0.00000000000E+00 -0.00000000000E+00 -0.35672588080E+03  0.35672588080E+03  0.00000000000E+00 0. -1.
         25    2    1    2    0    0  0.16044419245E+03 -0.42557502557E+02 -0.53632178189E+02  0.21460387818E+03  0.12499973631E+03 0.  0.
          5    1    1    2  502    0 -0.11270814692E+03  0.21890788560E+02 -0.18793637227E+03  0.22028277969E+03  0.47000000000E+01 0. -1.
         -5    1    3    3    0  503  0.86934279559E+02  0.40255254204E+02 -0.14182522887E+02  0.96960241382E+02  0.47000000000E+01 0. -1.
          5    1    3    3  503    0  0.73509912895E+02 -0.82812756761E+02 -0.39449655302E+02  0.11764363680E+03  0.47000000000E+01 0. -1.
         -5    1    1    2    0  502 -0.47736045538E+02  0.20666713997E+02  0.18369118705E+02  0.55365671973E+02  0.47000000000E+01 0.  1.
<mgrwt>
<rscale>  0 0.21490013E+03</rscale>
<asrwt>0</asrwt>
<pdfrwt beam="1">  1        1 0.54880905E-01 0.21732238E+03</pdfrwt>
<pdfrwt beam="2">  1       -1 0.20542531E-01 0.21732238E+03</pdfrwt>
<totfact> 0.13508319E+03</totfact>
</mgrwt>
</event>
<event>
 7    1  0.1050440E-008  0.1606439E+03  0.7546771E-02  0.1189541E+00
          1   -1    0    0  501    0  0.00000000000E+00  0.00000000000E+00  0.73754984468E+02  0.73754984468E+02  0.00000000000E+00 0. -1.
         -1   -1    0    0    0  501 -0.00000000000E+00 -0.00000000000E+00 -0.39628958523E+03  0.39628958523E+03  0.00000000000E+00 0.  1.
         25    2    1    2    0    0  0.41978120603E+02  0.91754612978E+02 -0.25374350143E+03  0.30032021312E+03  0.12500157711E+03 0.  0.
          5    1    1    2  502    0 -0.21377228849E+02 -0.61579482123E+02  0.24209501536E+02  0.69693676158E+02  0.47000000000E+01 0. -1.
         -5    1    1    2    0  502 -0.20600891754E+02 -0.30175130855E+02 -0.93000600868E+02  0.10003068042E+03  0.47000000000E+01 0.  1.
          5    1    3    3  503    0 -0.40162871398E+02  0.22286482333E+02 -0.40439397288E+02  0.61377344246E+02  0.47000000000E+01 0.  1.
         -5    1    3    3    0  503  0.82140992000E+02  0.69468130645E+02 -0.21330410415E+03  0.23894286888E+03  0.47000000000E+01 0.  1.
<mgrwt>
<rscale>  0 0.15925462E+03</rscale>
<asrwt>0</asrwt>
<pdfrwt beam="1">  1        1 0.11346921E-01 0.16064391E+03</pdfrwt>
<pdfrwt beam="2">  1       -1 0.60967629E-01 0.16064391E+03</pdfrwt>
<totfact> 0.14995361E+03</totfact>
</mgrwt>
</event>
<event>
 7    1  0.1050440E-008  0.1651896E+03  0.7546771E-02  0.1188391E+00
          2   -1    0    0  501    0  0.00000000000E+00  0.00000000000E+00  0.65802852786E+03  0.65802852786E+03  0.00000000000E+00 0. -1.
         -2   -1    0    0    0  501 -0.00000000000E+00 -0.00000000000E+00 -0.65192337210E+02  0.65192337210E+02  0.00000000000E+00 0.  1.
         25    2    1    2    0    0 -0.50590480603E+02  0.56940425548E+02  0.48237025632E+02  0.15411995991E+03  0.12499817043E+03 0.  0.
          5    1    1    2  502    0 -0.10316759965E+01  0.36775874459E+02  0.29734238240E+03  0.29964664468E+03  0.47000000000E+01 0. -1.
         -5    1    3    3    0  503 -0.33802515090E+02  0.25860708984E+02  0.89731139064E+02  0.99424109819E+02  0.47000000000E+01 0. -1.
          5    1    3    3  503    0 -0.16787965513E+02  0.31079716565E+02 -0.41494113432E+02  0.54695850092E+02  0.47000000000E+01 0. -1.
         -5    1    1    2    0  502  0.51622156599E+02 -0.93716300008E+02  0.24725678262E+03  0.26945426048E+03  0.47000000000E+01 0.  1.
<mgrwt>
<rscale>  0 0.16027101E+03</rscale>
<asrwt>0</asrwt>
<pdfrwt beam="1">  1        2 0.10123515E+00 0.16518956E+03</pdfrwt>
<pdfrwt beam="2">  1       -2 0.10029591E-01 0.16518956E+03</pdfrwt>
<totfact> 0.29392315E+03</totfact>
</mgrwt>
</event>
<event>
 7    1  0.1050440E-008  0.2897227E+03  0.7546771E-02  0.1117565E+00
          2   -1    0    0  501    0  0.00000000000E+00  0.00000000000E+00  0.14271585786E+04  0.14271585786E+04  0.00000000000E+00 0.  1.
         -2   -1    0    0    0  501 -0.00000000000E+00 -0.00000000000E+00 -0.46353441388E+02  0.46353441388E+02  0.00000000000E+00 0. -1.
         25    2    1    2    0    0  0.71655056447E+02  0.68695635963E+01  0.90510140410E+03  0.91652613244E+03  0.12501984528E+03 0.  0.
          5    1    1    2  502    0 -0.55659420271E+02  0.13301679068E+03  0.28989862821E+03  0.32381281986E+03  0.47000000000E+01 0. -1.
         -5    1    3    3    0  503  0.10581766171E+03  0.11025265139E+02  0.59182366976E+03  0.60132876206E+03  0.47000000000E+01 0.  1.
          5    1    3    3  503    0 -0.34162605262E+02 -0.41557015424E+01  0.31327773434E+03  0.31519737037E+03  0.47000000000E+01 0.  1.
         -5    1    1    2    0  502 -0.15995636176E+02 -0.13988635428E+03  0.18580510490E+03  0.23317306769E+03  0.47000000000E+01 0.  1.
<mgrwt>
<rscale>  0 0.24337450E+03</rscale>
<asrwt>0</asrwt>
<pdfrwt beam="1">  1        2 0.21956282E+00 0.28972269E+03</pdfrwt>
<pdfrwt beam="2">  1       -2 0.71312998E-02 0.28972269E+03</pdfrwt>
<totfact> 0.16907936E+03</totfact>
</mgrwt>
</event>
<event>
 7    1  0.1050440E-008  0.1469309E+03  0.7546771E-02  0.1212359E+00
         -1   -1    0    0    0  501 -0.00000000000E+00  0.00000000000E+00  0.39056454350E+02  0.39056454350E+02  0.00000000000E+00 0.  1.
          1   -1    0    0  501    0  0.00000000000E+00 -0.00000000000E+00 -0.61624678808E+03  0.61624678808E+03  0.00000000000E+00 0. -1.
         25    2    1    2    0    0 -0.59893861337E+02  0.48751652515E+02 -0.14755370944E+03  0.20823254113E+03  0.12499878305E+03 0.  0.
          5    1    3    3  502    0 -0.36665370522E+02 -0.38577930535E+02 -0.35250642478E+02  0.64010186026E+02  0.47000000000E+01 0. -1.
         -5    1    1    2    0  503  0.38435200804E+02 -0.70718723211E+02 -0.20481584544E+03  0.22011365932E+03  0.47000000000E+01 0.  1.
          5    1    1    2  503    0  0.21458660532E+02  0.21967070696E+02 -0.22482077885E+03  0.22695704199E+03  0.47000000000E+01 0. -1.
         -5    1    3    3    0  502 -0.23228490814E+02  0.87329583050E+02 -0.11230306696E+03  0.14422235510E+03  0.47000000000E+01 0. -1.
<mgrwt>
<rscale>  0 0.14072349E+03</rscale>
<asrwt>0</asrwt>
<pdfrwt beam="1">  1        1 0.94807196E-01 0.14693092E+03</pdfrwt>
<pdfrwt beam="2">  1       -1 0.60086854E-02 0.14693092E+03</pdfrwt>
<totfact> 0.43946116E+03</totfact>
</mgrwt>
</event>
<event>
 7    1  0.1050440E-008  0.3853734E+03  0.7546771E-02  0.1048965E+00
         -1   -1    0    0    0  501 -0.00000000000E+00  0.00000000000E+00  0.65804390282E+03  0.65804390282E+03  0.00000000000E+00 0.  1.
          1   -1    0    0  501    0  0.00000000000E+00 -0.00000000000E+00 -0.56422014538E+02  0.56422014538E+02  0.00000000000E+00 0. -1.
         25    2    1    2    0    0 -0.59252549346E+01 -0.86531394088E+02  0.99730508266E+02  0.18191709720E+03  0.12499946066E+03 0.  0.
          5    1    3    3  502    0 -0.58506505080E-01 -0.11619886531E+03  0.96545800031E+02  0.15114682010E+03  0.47000000000E+01 0.  1.
         -5    1    1    2    0  503 -0.86102414762E+01  0.60762093464E+02  0.49863046567E+03  0.50241476844E+03  0.47000000000E+01 0.  1.
          5    1    1    2  503    0  0.14535496411E+02  0.25769300624E+02  0.32609143535E+01  0.30134051719E+02  0.47000000000E+01 0. -1.
         -5    1    3    3    0  502 -0.58667484295E+01  0.29667471226E+02  0.31847082350E+01  0.30770277097E+02  0.47000000000E+01 0.  1.
<mgrwt>
<rscale>  0 0.38537339E+03</rscale>
<asrwt>0</asrwt>
<pdfrwt beam="1">  1        1 0.86803104E-02 0.38537339E+03</pdfrwt>
<pdfrwt beam="2">  1       -1 0.10123752E+00 0.38537339E+03</pdfrwt>
<totfact> 0.76430270E+02</totfact>
</mgrwt>
</event>
<event>
 7    1  0.1050440E-008  0.4184777E+03  0.7546771E-02  0.1075038E+00
          2   -1    0    0  501    0  0.00000000000E+00  0.00000000000E+00  0.91330186859E+02  0.91330186859E+02  0.00000000000E+00 0. -1.
         -2   -1    0    0    0  501 -0.00000000000E+00 -0.00000000000E+00 -0.87617021061E+03  0.87617021061E+03  0.00000000000E+00 0.  1.
         25    2    1    2    0    0 -0.57772931411E+02  0.46872526339E+02 -0.16987872122E+03  0.22365836659E+03  0.12501815745E+03 0.  0.
          5    1    3    3  502    0  0.34117794124E+02 -0.99979669947E+01 -0.56810089833E+02  0.67182285811E+02  0.47000000000E+01 0. -1.
         -5    1    1    2    0  503 -0.14506553276E+03 -0.13009729263E+03 -0.34262135588E+03  0.39418371079E+03  0.47000000000E+01 0.  1.
          5    1    1    2  503    0  0.20283846417E+03  0.83224766292E+02 -0.27233994665E+03  0.34965832009E+03  0.47000000000E+01 0. -1.
         -5    1    3    3    0  502 -0.91890725535E+02  0.56870493333E+02 -0.11306863139E+03  0.15647608078E+03  0.47000000000E+01 0.  1.
<mgrwt>
<rscale>  0 0.32133251E+03</rscale>
<asrwt>0</asrwt>
<pdfrwt beam="1">  1        2 0.14050798E-01 0.41847767E+03</pdfrwt>
<pdfrwt beam="2">  1       -2 0.13479541E+00 0.41847767E+03</pdfrwt>
<totfact> 0.17534282E+02</totfact>
</mgrwt>
</event>
<event>
 7    1  0.1050440E-008  0.1271037E+03  0.7546771E-02  0.1237553E+00
          1   -1    0    0  501    0  0.00000000000E+00  0.00000000000E+00  0.93178820350E+03  0.93178820350E+03  0.00000000000E+00 0. -1.
         -1   -1    0    0    0  501 -0.00000000000E+00 -0.00000000000E+00 -0.19359651698E+02  0.19359651698E+02  0.00000000000E+00 0.  1.
         25    2    1    2    0    0 -0.12567991852E+02  0.19304042987E+02  0.69050881934E+03  0.70210952238E+03  0.12499900535E+03 0.  0.
          5    1    1    2  502    0 -0.18141377011E+02 -0.40956046535E+02  0.20057391455E+03  0.20556870508E+03  0.47000000000E+01 0. -1.
         -5    1    3    3    0  503  0.46814030025E+02  0.39015236178E+02  0.26223084762E+03  0.26925981785E+03  0.47000000000E+01 0.  1.
          5    1    3    3  503    0 -0.59382021876E+02 -0.19711193191E+02  0.42827797172E+03  0.43284970453E+03  0.47000000000E+01 0.  1.
         -5    1    1    2    0  502  0.30709368863E+02  0.21652003547E+02  0.21345817909E+02  0.43469627739E+02  0.47000000000E+01 0.  1.
<mgrwt>
<rscale>  0 0.12342407E+03</rscale>
<asrwt>0</asrwt>
<pdfrwt beam="1">  1        1 0.14335200E+00 0.12710371E+03</pdfrwt>
<pdfrwt beam="2">  1       -1 0.29784087E-02 0.12710371E+03</pdfrwt>
<totfact> 0.66468324E+03</totfact>
</mgrwt>
</event>
<event>
 7    1  0.1050440E-008  0.3471195E+03  0.7546771E-02  0.1063804E+00
         -2   -1    0    0    0  501 -0.00000000000E+00  0.00000000000E+00  0.25842551195E+02  0.25842551195E+02  0.00000000000E+00 0. -1.
          2   -1    0    0  501    0  0.00000000000E+00 -0.00000000000E+00 -0.11656349548E+04  0.11656349548E+04  0.00000000000E+00 0.  1.
         25    2    1    2    0    0  0.61932377533E+02 -0.16227759065E+01 -0.76418781385E+03  0.77681754696E+03  0.12499693453E+03 0.  0.
          5    1    1    2  502    0 -0.10263883764E+03 -0.18014902989E+02 -0.13931151468E+03  0.17403751275E+03  0.47000000000E+01 0. -1.
         -5    1    1    2    0  502  0.40706460106E+02  0.19637678895E+02 -0.23629307503E+03  0.24062244624E+03  0.47000000000E+01 0.  1.
          5    1    3    3  503    0  0.35332848694E+02 -0.62990816740E+02 -0.38337524367E+03  0.39014730634E+03  0.47000000000E+01 0. -1.
         -5    1    3    3    0  503  0.26599528839E+02  0.61368040834E+02 -0.38081257018E+03  0.38667024062E+03  0.47000000000E+01 0. -1.
<mgrwt>
<rscale>  0 0.34711947E+03</rscale>
<asrwt>0</asrwt>
<pdfrwt beam="1">  1        2 0.17932841E+00 0.34711947E+03</pdfrwt>
<pdfrwt beam="2">  1       -2 0.39757781E-02 0.34711947E+03</pdfrwt>
<totfact> 0.58229092E+03</totfact>
</mgrwt>
</event>
<event>
 7    1  0.1050440E-008  0.3570548E+03  0.7546771E-02  0.1092251E+00
         -2   -1    0    0    0  501 -0.00000000000E+00  0.00000000000E+00  0.61260549007E+02  0.61260549007E+02  0.00000000000E+00 0.  1.
          2   -1    0    0  501    0  0.00000000000E+00 -0.00000000000E+00 -0.19254023127E+04  0.19254023127E+04  0.00000000000E+00 0. -1.
         25    2    1    2    0    0  0.72198929189E+02  0.31659904608E+02 -0.81793722626E+02  0.16890252005E+03  0.12499125283E+03 0.  0.
          5    1    1    2  502    0 -0.20344980179E+03 -0.46408128263E+02 -0.80953525317E+03  0.83601133505E+03  0.47000000000E+01 0. -1.
         -5    1    1    2    0  502  0.13125087260E+03  0.14748223655E+02 -0.97281278789E+03  0.98174900659E+03  0.47000000000E+01 0.  1.
          5    1    3    3  503    0  0.49600852419E+02 -0.28530790909E+02 -0.86990270087E+02  0.10422882365E+03  0.47000000000E+01 0. -1.
         -5    1    3    3    0  503  0.22598076770E+02  0.60190695517E+02  0.51965474608E+01  0.64673696400E+02  0.47000000000E+01 0. -1.
<mgrwt>
<rscale>  0 0.28638639E+03</rscale>
<asrwt>0</asrwt>
<pdfrwt beam="1">  1        2 0.29621577E+00 0.35705479E+03</pdfrwt>
<pdfrwt beam="2">  1       -2 0.94246990E-02 0.35705479E+03</pdfrwt>
<totfact> 0.58713553E+02</totfact>
</mgrwt>
</event>
<event>
 7    1  0.1050440E-008  0.2292780E+03  0.7546771E-02  0.1139059E+00
          4   -1    0    0  501    0  0.00000000000E+00  0.00000000000E+00  0.44411741209E+02  0.44411741209E+02  0.00000000000E+00 0. -1.
         -4   -1    0    0    0  501 -0.00000000000E+00 -0.00000000000E+00 -0.15692287192E+04  0.15692287192E+04  0.00000000000E+00 0.  1.
         25    2    1    2    0    0 -0.26941224777E+02 -0.11415379718E+03 -0.12212356434E+04  0.12332064431E+04  0.12499886293E+03 0.  0.
          5    1    1    2  502    0  0.62484170208E+02  0.15946829829E+03 -0.23305675661E+03  0.28926104385E+03  0.47000000000E+01 0. -1.
         -5    1    1    2    0  502 -0.35542945431E+02 -0.45314501110E+02 -0.70524578021E+02  0.91172973440E+02  0.47000000000E+01 0.  1.
          5    1    3    3  503    0 -0.41008969409E+01 -0.13237542275E+03 -0.11175543145E+04  0.11253842925E+04  0.47000000000E+01 0.  1.
         -5    1    3    3    0  503 -0.22840327836E+02  0.18221625566E+02 -0.10368132881E+03  0.10782215059E+03  0.47000000000E+01 0.  1.
<mgrwt>
<rscale>  0 0.21319712E+03</rscale>
<asrwt>0</asrwt>
<pdfrwt beam="1">  1        4 0.68325752E-02 0.22927803E+03</pdfrwt>
<pdfrwt beam="2">  1       -4 0.24141982E+00 0.22927803E+03</pdfrwt>
<totfact> 0.20957264E+01</totfact>
</mgrwt>
</event>
<event>
 7    1  0.1050440E-008  0.1485652E+03  0.7546771E-02  0.1215897E+00
         -2   -1    0    0    0  501 -0.00000000000E+00  0.00000000000E+00  0.85087580327E+02  0.85087580327E+02  0.00000000000E+00 0.  1.
          2   -1    0    0  501    0  0.00000000000E+00 -0.00000000000E+00 -0.19855072218E+03  0.19855072218E+03  0.00000000000E+00 0. -1.
         25    2    1    2    0    0  0.25361014816E+02  0.76179175405E+02 -0.73089630857E+02  0.16557088854E+03  0.12500070862E+03 0.  0.
          5    1    1    2  502    0 -0.44375289741E+02 -0.57403558852E+02 -0.41727014411E+01  0.72827442258E+02  0.47000000000E+01 0. -1.
         -5    1    1    2    0  502  0.19014274926E+02 -0.18775616553E+02 -0.36200809556E+02  0.45239971711E+02  0.47000000000E+01 0.  1.
          5    1    3    3  503    0  0.66259713581E+02  0.15805362135E+02 -0.99583275559E+01  0.69003024599E+02  0.47000000000E+01 0. -1.
         -5    1    3    3    0  503 -0.40898698766E+02  0.60373813270E+02 -0.63131303301E+02  0.96567863940E+02  0.47000000000E+01 0. -1.
<mgrwt>
<rscale>  0 0.13810826E+03</rscale>
<asrwt>0</asrwt>
<pdfrwt beam="1">  1        2 0.30546265E-01 0.14856522E+03</pdfrwt>
<pdfrwt beam="2">  1       -2 0.13090397E-01 0.14856522E+03</pdfrwt>
<totfact> 0.70429958E+03</totfact>
</mgrwt>
</event>
<event>
 7    1  0.1050440E-008  0.2691594E+03  0.7546771E-02  0.1116443E+00
          2   -1    0    0  501    0  0.00000000000E+00  0.00000000000E+00  0.61699051060E+03  0.61699051060E+03  0.00000000000E+00 0. -1.
         -2   -1    0    0    0  501 -0.00000000000E+00 -0.00000000000E+00 -0.91882264799E+02  0.91882264799E+02  0.00000000000E+00 0.  1.
         25    2    1    2    0    0  0.10023338298E+03  0.92609686530E+02  0.32307606900E+03  0.37232592660E+03  0.12500065662E+03 0.  0.
          5    1    3    3  502    0  0.11492072062E+03  0.72846087161E+02  0.31911936827E+03  0.34694752578E+03  0.47000000000E+01 0.  1.
         -5    1    1    2    0  503  0.52748940877E+02 -0.96566022893E+02  0.50596634600E+02  0.12120048256E+03  0.47000000000E+01 0.  1.
          5    1    1    2  503    0 -0.15298232385E+03  0.39563363629E+01  0.15143554220E+03  0.21534636624E+03  0.47000000000E+01 0. -1.
         -5    1    3    3    0  502 -0.14687337646E+02  0.19763599369E+02  0.39567007300E+01  0.25378400813E+02  0.47000000000E+01 0.  1.
<mgrwt>
<rscale>  0 0.24509659E+03</rscale>
<asrwt>0</asrwt>
<pdfrwt beam="1">  1        2 0.94921614E-01 0.26915940E+03</pdfrwt>
<pdfrwt beam="2">  1       -2 0.14135733E-01 0.26915940E+03</pdfrwt>
<totfact> 0.18424131E+03</totfact>
</mgrwt>
</event>
<event>
 7    1  0.1050440E-008  0.1253414E+03  0.7546771E-02  0.1260786E+00
          2   -1    0    0  501    0  0.00000000000E+00  0.00000000000E+00  0.77844623212E+03  0.77844623212E+03  0.00000000000E+00 0. -1.
         -2   -1    0    0    0  501 -0.00000000000E+00 -0.00000000000E+00 -0.15065158121E+02  0.15065158121E+02  0.00000000000E+00 0.  1.
         25    2    1    2    0    0 -0.88148710630E+01  0.29540915394E+01  0.31434429286E+03  0.33841217333E+03  0.12499614392E+03 0.  0.
          5    1    3    3  502    0 -0.21260623730E+02 -0.40401664021E+02  0.27367495750E+03  0.27749663231E+03  0.47000000000E+01 0. -1.
         -5    1    1    2    0  503 -0.28391119737E+02  0.14743037720E+02  0.17897989553E+03  0.18187717241E+03  0.47000000000E+01 0.  1.
          5    1    1    2  503    0  0.37205990800E+02 -0.17697129260E+02  0.27005688561E+03  0.27322204450E+03  0.47000000000E+01 0. -1.
         -5    1    3    3    0  502  0.12445752667E+02  0.43355755560E+02  0.40669335355E+02  0.60915541021E+02  0.47000000000E+01 0. -1.
<mgrwt>
<rscale>  0 0.10988312E+03</rscale>
<asrwt>0</asrwt>
<pdfrwt beam="1">  1        2 0.11976093E+00 0.12534139E+03</pdfrwt>
<pdfrwt beam="2">  1       -2 0.23177172E-02 0.12534139E+03</pdfrwt>
<totfact> 0.21489491E+04</totfact>
</mgrwt>
</event>
<event>
 7    1  0.1050440E-008  0.1660349E+03  0.7546771E-02  0.1182887E+00
         -2   -1    0    0    0  501 -0.00000000000E+00  0.00000000000E+00  0.10429714642E+03  0.10429714642E+03  0.00000000000E+00 0.  1.
          2   -1    0    0  501    0  0.00000000000E+00 -0.00000000000E+00 -0.34175017810E+03  0.34175017810E+03  0.00000000000E+00 0. -1.
         25    2    1    2    0    0 -0.93615176275E+02  0.56384151314E+02 -0.10111493378E+02  0.16634250451E+03  0.12499845103E+03 0.  0.
          5    1    1    2  502    0  0.76098927790E+02 -0.94007391997E+02 -0.16389782068E+03  0.20374744706E+03  0.47000000000E+01 0. -1.
         -5    1    1    2    0  502  0.17516248485E+02  0.37623240683E+02 -0.63443717626E+02  0.75957372958E+02  0.47000000000E+01 0.  1.
          5    1    3    3  503    0 -0.11954972963E+03  0.58193840243E+02  0.95853652749E+01  0.13338901801E+03  0.47000000000E+01 0.  1.
         -5    1    3    3    0  503  0.25934553356E+02 -0.18096889289E+01 -0.19696858653E+02  0.32953486501E+02  0.47000000000E+01 0.  1.
<mgrwt>
<rscale>  0 0.16525661E+03</rscale>
<asrwt>0</asrwt>
<pdfrwt beam="1">  1        2 0.52576951E-01 0.16603490E+03</pdfrwt>
<pdfrwt beam="2">  1       -2 0.16045715E-01 0.16603490E+03</pdfrwt>
<totfact> 0.28402390E+03</totfact>
</mgrwt>
</event>
<event>
 7    1  0.1050440E-008  0.1650161E+03  0.7546771E-02  0.1195042E+00
         -2   -1    0    0    0  501 -0.00000000000E+00  0.00000000000E+00  0.27196429144E+02  0.27196429144E+02  0.00000000000E+00 0.  1.
          2   -1    0    0  501    0  0.00000000000E+00 -0.00000000000E+00 -0.79633984029E+03  0.79633984029E+03  0.00000000000E+00 0. -1.
         25    2    1    2    0    0  0.18236248837E+02  0.11319002253E+02 -0.28213530162E+03  0.30933083653E+03  0.12499822968E+03 0.  0.
          5    1    3    3  502    0 -0.48591862523E+02 -0.19686140664E+02 -0.12920161102E+03  0.13951293678E+03  0.47000000000E+01 0.  1.
         -5    1    1    2    0  503  0.63097454183E+02 -0.12303391076E+02 -0.34067574054E+03  0.34671993359E+03  0.47000000000E+01 0.  1.
          5    1    1    2  503    0 -0.81333703020E+02  0.98438882292E+00 -0.14633236898E+03  0.16748549931E+03  0.47000000000E+01 0. -1.
         -5    1    3    3    0  502  0.66828111360E+02  0.31005142917E+02 -0.15293369060E+03  0.16981789975E+03  0.47000000000E+01 0.  1.
<mgrwt>
<rscale>  0 0.15450704E+03</rscale>
<asrwt>0</asrwt>
<pdfrwt beam="1">  1        2 0.12251383E+00 0.16501615E+03</pdfrwt>
<pdfrwt beam="2">  1       -2 0.41840656E-02 0.16501615E+03</pdfrwt>
<totfact> 0.89100803E+03</totfact>
</mgrwt>
</event>
<event>
 7    1  0.1050440E-008  0.5108455E+03  0.7546771E-02  0.1010986E+00
         -1   -1    0    0    0  501 -0.00000000000E+00  0.00000000000E+00  0.22339813968E+03  0.22339813968E+03  0.00000000000E+00 0.  1.
          1   -1    0    0  501    0  0.00000000000E+00 -0.00000000000E+00 -0.29203810565E+03  0.29203810565E+03  0.00000000000E+00 0. -1.
         25    2    1    2    0    0 -0.18814448951E+03  0.62332965833E+02 -0.10036450992E+03  0.25490989700E+03  0.12498909223E+03 0.  0.
          5    1    3    3  502    0 -0.43614143303E+02  0.35123387701E+02  0.25091848114E+02  0.61542966303E+02  0.47000000000E+01 0. -1.
         -5    1    3    3    0  502 -0.14453034620E+03  0.27209578132E+02 -0.12545635804E+03  0.19336693070E+03  0.47000000000E+01 0. -1.
          5    1    1    2  503    0  0.20036776062E+03 -0.94018766015E+02  0.40690665407E+02  0.22508795639E+03  0.47000000000E+01 0. -1.
         -5    1    1    2    0  503 -0.12223271111E+02  0.31685800182E+02 -0.89661214488E+01  0.35438391945E+02  0.47000000000E+01 0.  1.
<mgrwt>
<rscale>  0 0.51084545E+03</rscale>
<asrwt>0</asrwt>
<pdfrwt beam="1">  1        1 0.44928939E-01 0.51084545E+03</pdfrwt>
<pdfrwt beam="2">  1       -1 0.34368945E-01 0.51084545E+03</pdfrwt>
<totfact> 0.73294570E+02</totfact>
</mgrwt>
</event>
<event>
 7    1  0.1050440E-008  0.5975987E+03  0.7546771E-02  0.1041648E+00
          1   -1    0    0  501    0  0.00000000000E+00  0.00000000000E+00  0.29263215915E+03  0.29263215915E+03  0.00000000000E+00 0. -1.
         -1   -1    0    0    0  501 -0.00000000000E+00 -0.00000000000E+00 -0.50391121762E+03  0.50391121762E+03  0.00000000000E+00 0.  1.
         25    2    1    2    0    0 -0.15144560707E+02  0.20627436150E+02 -0.14830680939E+03  0.19563598739E+03  0.12499472393E+03 0.  0.
          5    1    3    3  502    0 -0.14362755507E+02 -0.17850738430E+02 -0.15459771328E+03  0.15635690122E+03  0.47000000000E+01 0. -1.
         -5    1    1    2    0  503 -0.18314504230E+03 -0.11216993421E+03 -0.23827588404E+03  0.32081410127E+03  0.47000000000E+01 0.  1.
          5    1    1    2  503    0  0.19828960301E+03  0.91542498056E+02  0.17530363495E+03  0.28009328810E+03  0.47000000000E+01 0. -1.
         -5    1    3    3    0  502 -0.78180519938E+00  0.38478174580E+02  0.62909038964E+01  0.39279086168E+02  0.47000000000E+01 0.  1.
<mgrwt>
<rscale>  0 0.40621796E+03</rscale>
<asrwt>0</asrwt>
<pdfrwt beam="1">  1        1 0.45020332E-01 0.59759868E+03</pdfrwt>
<pdfrwt beam="2">  1       -1 0.77524803E-01 0.59759868E+03</pdfrwt>
<totfact> 0.15449955E+02</totfact>
</mgrwt>
</event>
<event>
 7    1  0.1050440E-008  0.1719820E+03  0.7546771E-02  0.1185362E+00
         -2   -1    0    0    0  501 -0.00000000000E+00  0.00000000000E+00  0.50895681820E+02  0.50895681820E+02  0.00000000000E+00 0.  1.
          2   -1    0    0  501    0  0.00000000000E+00 -0.00000000000E+00 -0.47518769619E+03  0.47518769619E+03  0.00000000000E+00 0. -1.
         25    2    1    2    0    0 -0.11802308945E+03 -0.47284661777E+01 -0.24648957216E+03  0.30055767081E+03  0.12500398499E+03 0.  0.
          5    1    3    3  502    0 -0.96199654800E+01  0.36688706671E+02 -0.14053905645E+02  0.40721090321E+02  0.47000000000E+01 0.  1.
         -5    1    3    3    0  502 -0.10840312397E+03 -0.41417172849E+02 -0.23243566651E+03  0.25983658049E+03  0.47000000000E+01 0.  1.
          5    1    1    2  503    0  0.25324878837E+02  0.22031026405E+02 -0.91627836305E+02  0.97695782910E+02  0.47000000000E+01 0. -1.
         -5    1    1    2    0  503  0.92698210611E+02 -0.17302560227E+02 -0.86174605909E+02  0.12782992429E+03  0.47000000000E+01 0.  1.
<mgrwt>
<rscale>  0 0.16298994E+03</rscale>
<asrwt>0</asrwt>
<pdfrwt beam="1">  1        2 0.73105798E-01 0.17198199E+03</pdfrwt>
<pdfrwt beam="2">  1       -2 0.78301050E-02 0.17198199E+03</pdfrwt>
<totfact> 0.62693296E+03</totfact>
</mgrwt>
</event>
<event>
 7    1  0.1050440E-008  0.1602016E+03  0.7546771E-02  0.1201854E+00
         -1   -1    0    0    0  501 -0.00000000000E+00  0.00000000000E+00  0.16936733875E+03  0.16936733875E+03  0.00000000000E+00 0.  1.
          1   -1    0    0  501    0  0.00000000000E+00 -0.00000000000E+00 -0.13280502890E+03  0.13280502890E+03  0.00000000000E+00 0. -1.
         25    2    1    2    0    0  0.74987482879E+02  0.66455536656E+02 -0.33475983497E+02  0.16366185279E+03  0.12500039859E+03 0.  0.
          5    1    1    2  502    0 -0.46361416221E+02  0.61134715487E-01  0.22396484212E+02  0.51701809993E+02  0.47000000000E+01 0. -1.
         -5    1    1    2    0  502 -0.28626066658E+02 -0.66516671372E+02  0.47641809136E+02  0.86808704866E+02  0.47000000000E+01 0.  1.
          5    1    3    3  503    0  0.58960800782E+01  0.82266981905E+02 -0.41008888415E+02  0.92230358349E+02  0.47000000000E+01 0.  1.
         -5    1    3    3    0  503  0.69091402801E+02 -0.15811445249E+02  0.75329049179E+01  0.71431494443E+02  0.47000000000E+01 0.  1.
<mgrwt>
<rscale>  0 0.14888140E+03</rscale>
<asrwt>0</asrwt>
<pdfrwt beam="1">  1        1 0.20431543E-01 0.16020162E+03</pdfrwt>
<pdfrwt beam="2">  1       -1 0.26056514E-01 0.16020162E+03</pdfrwt>
<totfact> 0.31381663E+03</totfact>
</mgrwt>
</event>
<event>
 7    1  0.1050440E-008  0.2252480E+03  0.7546771E-02  0.1134836E+00
         -1   -1    0    0    0  501 -0.00000000000E+00  0.00000000000E+00  0.15188108068E+03  0.15188108068E+03  0.00000000000E+00 0.  1.
          1   -1    0    0  501    0  0.00000000000E+00 -0.00000000000E+00 -0.34801008410E+03  0.34801008410E+03  0.00000000000E+00 0. -1.
         25    2    1    2    0    0 -0.14696926494E+03 -0.53697060935E+02  0.14347098552E+01  0.20027796720E+03  0.12500346621E+03 0.  0.
          5    1    1    2  502    0  0.16166182346E+03 -0.77539843578E+00 -0.11092256383E+03  0.19611489381E+03  0.47000000000E+01 0. -1.
         -5    1    3    3    0  503 -0.86048880848E+02 -0.58271962949E+02  0.56076024161E+02  0.11818054851E+03  0.47000000000E+01 0. -1.
          5    1    3    3  503    0 -0.60920384095E+02  0.45749020141E+01 -0.54641314306E+02  0.82097418691E+02  0.47000000000E+01 0. -1.
         -5    1    1    2    0  502 -0.14692558513E+02  0.54472459371E+02 -0.86641149439E+02  0.10349830376E+03  0.47000000000E+01 0.  1.
<mgrwt>
<rscale>  0 0.21872638E+03</rscale>
<asrwt>0</asrwt>
<pdfrwt beam="1">  1        1 0.53540012E-01 0.22524797E+03</pdfrwt>
<pdfrwt beam="2">  1       -1 0.23366321E-01 0.22524797E+03</pdfrwt>
<totfact> 0.11290940E+03</totfact>
</mgrwt>
</event>
<event>
 7    1  0.1050440E-008  0.2246916E+03  0.7546771E-02  0.1149558E+00
          1   -1    0    0  501    0  0.00000000000E+00  0.00000000000E+00  0.51293192985E+03  0.51293192985E+03  0.00000000000E+00 0. -1.
         -1   -1    0    0    0  501 -0.00000000000E+00 -0.00000000000E+00 -0.68511447951E+02  0.68511447951E+02  0.00000000000E+00 0.  1.
         25    2    1    2    0    0 -0.34084180321E+02 -0.57261452851E+02  0.11382147615E+03  0.18171597316E+03  0.12499904454E+03 0.  0.
          5    1    3    3  502    0 -0.21013746296E+02 -0.96118605424E+02  0.66082199376E+02  0.11861412613E+03  0.47000000000E+01 0. -1.
         -5    1    1    2    0  503  0.11047964617E+03 -0.22569184514E+02  0.18789933911E+03  0.21918798312E+03  0.47000000000E+01 0.  1.
          5    1    1    2  503    0 -0.76395465850E+02  0.79830637366E+02  0.14269966664E+03  0.18053942152E+03  0.47000000000E+01 0. -1.
         -5    1    3    3    0  502 -0.13070434024E+02  0.38857152573E+02  0.47739276775E+02  0.63101847031E+02  0.47000000000E+01 0. -1.
<mgrwt>
<rscale>  0 0.20021470E+03</rscale>
<asrwt>0</asrwt>
<pdfrwt beam="1">  1        1 0.78912602E-01 0.22469156E+03</pdfrwt>
<pdfrwt beam="2">  1       -1 0.10540223E-01 0.22469156E+03</pdfrwt>
<totfact> 0.24328209E+03</totfact>
</mgrwt>
</event>
<event>
 7    1  0.1050440E-008  0.3419969E+03  0.7546771E-02  0.1080741E+00
          1   -1    0    0  501    0  0.00000000000E+00  0.00000000000E+00  0.16774408827E+03  0.16774408827E+03  0.00000000000E+00 0. -1.
         -1   -1    0    0    0  501 -0.00000000000E+00 -0.00000000000E+00 -0.54096029091E+03  0.54096029091E+03  0.00000000000E+00 0.  1.
         25    2    1    2    0    0 -0.11206400128E+03  0.15491112026E+03 -0.41325273440E+02  0.23214011484E+03  0.12500183652E+03 0.  0.
          5    1    3    3  502    0  0.22967711260E+02  0.48816620848E+02  0.45079136188E+01  0.54341416219E+02  0.47000000000E+01 0.  1.
         -5    1    3    3    0  502 -0.13503171254E+03  0.10609449941E+03 -0.45833187059E+02  0.17779869862E+03  0.47000000000E+01 0.  1.
          5    1    1    2  503    0  0.12936628040E+03  0.23468096872E+02 -0.46504552873E+02  0.13953906088E+03  0.47000000000E+01 0. -1.
         -5    1    1    2    0  503 -0.17302279119E+02 -0.17837921713E+03 -0.28538637633E+03  0.33702520345E+03  0.47000000000E+01 0.  1.
<mgrwt>
<rscale>  0 0.30917615E+03</rscale>
<asrwt>0</asrwt>
<pdfrwt beam="1">  1        1 0.25806783E-01 0.34199694E+03</pdfrwt>
<pdfrwt beam="2">  1       -1 0.83224659E-01 0.34199694E+03</pdfrwt>
<totfact> 0.27599540E+02</totfact>
</mgrwt>
</event>
<event>
 7    1  0.1050440E-008  0.1408333E+03  0.7546771E-02  0.1237659E+00
         -2   -1    0    0    0  501 -0.00000000000E+00  0.00000000000E+00  0.10647712859E+03  0.10647712859E+03  0.00000000000E+00 0. -1.
          2   -1    0    0  501    0  0.00000000000E+00 -0.00000000000E+00 -0.22817784501E+03  0.22817784501E+03  0.00000000000E+00 0.  1.
         25    2    1    2    0    0  0.57236778118E+01  0.64638389296E+02 -0.18345859188E+03  0.23128138064E+03  0.12499256073E+03 0.  0.
          5    1    3    3  502    0 -0.27725573444E+02 -0.24516195351E+01 -0.14340381691E+03  0.14615561079E+03  0.47000000000E+01 0.  1.
         -5    1    3    3    0  502  0.33449251256E+02  0.67090008831E+02 -0.40054774972E+02  0.85125769850E+02  0.47000000000E+01 0.  1.
          5    1    1    2  503    0 -0.11748231292E+02 -0.33339744267E+02  0.61574464861E+02  0.71155212101E+02  0.47000000000E+01 0. -1.
         -5    1    1    2    0  503  0.60245534803E+01 -0.31298645029E+02  0.18341060571E+00  0.32218380852E+02  0.47000000000E+01 0.  1.
<mgrwt>
<rscale>  0 0.12335733E+03</rscale>
<asrwt>0</asrwt>
<pdfrwt beam="1">  1        2 0.35104283E-01 0.14083331E+03</pdfrwt>
<pdfrwt beam="2">  1       -2 0.16381097E-01 0.14083331E+03</pdfrwt>
<totfact> 0.41903983E+03</totfact>
</mgrwt>
</event>
<event>
 7    1  0.1050440E-008  0.1525929E+03  0.7546771E-02  0.1218381E+00
         -2   -1    0    0    0  501 -0.00000000000E+00  0.00000000000E+00  0.50031738362E+03  0.50031738362E+03  0.00000000000E+00 0.  1.
          2   -1    0    0  501    0  0.00000000000E+00 -0.00000000000E+00 -0.33424133983E+02  0.33424133983E+02  0.00000000000E+00 0. -1.
         25    2    1    2    0    0  0.85205089086E+02 -0.19985763561E+02  0.34945453722E+03  0.38131755803E+03  0.12500107409E+03 0.  0.
          5    1    1    2  502    0 -0.25252361984E+02  0.26222042550E+02  0.44203194667E+02  0.57456850941E+02  0.47000000000E+01 0. -1.
         -5    1    1    2    0  502 -0.59952727102E+02 -0.62362789887E+01  0.73235517752E+02  0.94967108638E+02  0.47000000000E+01 0.  1.
          5    1    3    3  503    0  0.77827870786E+01 -0.41897938984E+02  0.24831942532E+03  0.25199332542E+03  0.47000000000E+01 0.  1.
         -5    1    3    3    0  503  0.77422302008E+02  0.21912175422E+02  0.10113511190E+03  0.12932423261E+03  0.47000000000E+01 0.  1.
<mgrwt>
<rscale>  0 0.13631050E+03</rscale>
<asrwt>0</asrwt>
<pdfrwt beam="1">  1        2 0.51421748E-02 0.15259294E+03</pdfrwt>
<pdfrwt beam="2">  1       -2 0.76971900E-01 0.15259294E+03</pdfrwt>
<totfact> 0.22712401E+03</totfact>
</mgrwt>
</event>
<event>
 7    1  0.1050440E-008  0.2344444E+03  0.7546771E-02  0.1148156E+00
          4   -1    0    0  501    0  0.00000000000E+00  0.00000000000E+00  0.49571385983E+02  0.49571385983E+02  0.00000000000E+00 0. -1.
         -4   -1    0    0    0  501 -0.00000000000E+00 -0.00000000000E+00 -0.76829837770E+03  0.76829837770E+03  0.00000000000E+00 0.  1.
         25    2    1    2    0    0 -0.12149483971E+02 -0.29120353894E+02 -0.12516646394E+03  0.17968618173E+03  0.12499950096E+03 0.  0.
          5    1    1    2  502    0  0.10167136977E+03  0.81273632084E+02 -0.30993806038E+03  0.33619363761E+03  0.47000000000E+01 0. -1.
         -5    1    1    2    0  502 -0.89521885796E+02 -0.52153278190E+02 -0.28362246740E+03  0.30198994433E+03  0.47000000000E+01 0.  1.
          5    1    3    3  503    0 -0.37292871795E+02  0.26989366008E+01 -0.13289544738E+03  0.13813519638E+03  0.47000000000E+01 0. -1.
         -5    1    3    3    0  503  0.25143387823E+02 -0.31819290494E+02  0.77289834414E+01  0.41550985354E+02  0.47000000000E+01 0. -1.
<mgrwt>
<rscale>  0 0.20188793E+03</rscale>
<asrwt>0</asrwt>
<pdfrwt beam="1">  1        4 0.76263673E-02 0.23444442E+03</pdfrwt>
<pdfrwt beam="2">  1       -4 0.11819975E+00 0.23444442E+03</pdfrwt>
<totfact> 0.12488726E+02</totfact>
</mgrwt>
</event>
<event>
 7    1  0.1050440E-008  0.1538687E+03  0.7546771E-02  0.1219109E+00
         -1   -1    0    0    0  501 -0.00000000000E+00  0.00000000000E+00  0.78901290182E+02  0.78901290182E+02  0.00000000000E+00 0.  1.
          1   -1    0    0  501    0  0.00000000000E+00 -0.00000000000E+00 -0.23201653478E+03  0.23201653478E+03  0.00000000000E+00 0. -1.
         25    2    1    2    0    0 -0.79714914583E+02 -0.41185851386E+02 -0.30563396444E+02  0.15687480821E+03  0.12499936915E+03 0.  0.
          5    1    3    3  502    0 -0.35218126898E+02  0.44318137485E+02 -0.48786895357E+01  0.57011449586E+02  0.47000000000E+01 0.  1.
         -5    1    1    2    0  503  0.29940323177E+02  0.24048202204E+02 -0.66987552755E+02  0.77357360382E+02  0.47000000000E+01 0.  1.
          5    1    1    2  503    0  0.49774591406E+02  0.17137649182E+02 -0.55564295397E+02  0.76685656365E+02  0.47000000000E+01 0. -1.
         -5    1    3    3    0  502 -0.44496787685E+02 -0.85503988872E+02 -0.25684706909E+02  0.99863358627E+02  0.47000000000E+01 0.  1.
<mgrwt>
<rscale>  0 0.13578971E+03</rscale>
<asrwt>0</asrwt>
<pdfrwt beam="1">  1        1 0.35694851E-01 0.15386872E+03</pdfrwt>
<pdfrwt beam="2">  1       -1 0.12138660E-01 0.15386872E+03</pdfrwt>
<totfact> 0.52624672E+03</totfact>
</mgrwt>
</event>
<event>
 7    1  0.1050440E-008  0.7988543E+03  0.7546771E-02  0.9561677E-01
          1   -1    0    0  501    0  0.00000000000E+00  0.00000000000E+00  0.24032204582E+03  0.24032204582E+03  0.00000000000E+00 0. -1.
         -1   -1    0    0    0  501 -0.00000000000E+00 -0.00000000000E+00 -0.66386772922E+03  0.66386772922E+03  0.00000000000E+00 0.  1.
         25    2    1    2    0    0 -0.33329964717E+03 -0.58214694496E+01 -0.38964988385E+02  0.35814261185E+03  0.12500126317E+03 0.  0.
          5    1    3    3  502    0 -0.26220249844E+03  0.42828743746E+02 -0.60130206930E+01  0.26578694080E+03  0.47000000000E+01 0.  1.
         -5    1    1    2    0  503  0.34708490350E+03 -0.24473984713E+02 -0.37390568583E+03  0.51077828660E+03  0.47000000000E+01 0.  1.
          5    1    1    2  503    0 -0.13785256334E+02  0.30295454163E+02 -0.10675009179E+02  0.35268876593E+02  0.47000000000E+01 0. -1.
         -5    1    3    3    0  502 -0.71097148727E+02 -0.48650213196E+02 -0.32951967692E+02  0.92355671054E+02  0.47000000000E+01 0.  1.
<mgrwt>
<rscale>  0 0.79885431E+03</rscale>
<asrwt>0</asrwt>
<pdfrwt beam="1">  1        1 0.36972623E-01 0.79885431E+03</pdfrwt>
<pdfrwt beam="2">  1       -1 0.10213350E+00 0.79885431E+03</pdfrwt>
<totfact> 0.10765399E+02</totfact>
</mgrwt>
</event>
<event>
 7    1  0.1118137E-008  0.1986072E+03  0.7546771E-02  0.1151084E+00
          1   -1    0    0  501    0  0.00000000000E+00  0.00000000000E+00  0.84842569005E+03  0.84842569005E+03  0.00000000000E+00 0. -1.
         -1   -1    0    0    0  501 -0.00000000000E+00 -0.00000000000E+00 -0.61944561958E+02  0.61944561958E+02  0.00000000000E+00 0.  1.
         25    2    1    2    0    0  0.22702317763E+02  0.15265411768E+03  0.62248050903E+03  0.65339636529E+03  0.12500460464E+03 0.  0.
          5    1    1    2  502    0 -0.28404854305E+02 -0.19835047282E+02 -0.11455716588E+02  0.36791144197E+02  0.47000000000E+01 0.  1.
         -5    1    3    3    0  503  0.61614660632E+02  0.14046723997E+03  0.53822491215E+03  0.55967451074E+03  0.47000000000E+01 0. -1.
          5    1    3    3  503    0 -0.38912342869E+02  0.12186877703E+02  0.84255596878E+02  0.93721854554E+02  0.47000000000E+01 0. -1.
         -5    1    1    2    0  502  0.57025365416E+01 -0.13281907039E+03  0.17545633565E+03  0.22018274252E+03  0.47000000000E+01 0. -1.
<mgrwt>
<rscale>  0 0.19841432E+03</rscale>
<asrwt>0</asrwt>
<pdfrwt beam="1">  1        1 0.13052702E+00 0.19860722E+03</pdfrwt>
<pdfrwt beam="2">  1       -1 0.95299332E-02 0.19860722E+03</pdfrwt>
<totfact> 0.13793838E+03</totfact>
</mgrwt>
</event>
<event>
 7    1  0.1050440E-008  0.3731272E+03  0.7546771E-02  0.1067681E+00
         -2   -1    0    0    0  501 -0.00000000000E+00  0.00000000000E+00  0.17047745895E+03  0.17047745895E+03  0.00000000000E+00 0.  1.
          2   -1    0    0  501    0  0.00000000000E+00 -0.00000000000E+00 -0.88018385328E+03  0.88018385328E+03  0.00000000000E+00 0. -1.
         25    2    1    2    0    0  0.20522114305E+03 -0.72630426641E+02 -0.61711172448E+03  0.66621664729E+03  0.12500737663E+03 0.  0.
          5    1    1    2  502    0 -0.94146067234E+02 -0.96259202530E+02 -0.11997396812E+03  0.18040276903E+03  0.47000000000E+01 0. -1.
         -5    1    3    3    0  503  0.78977170885E+02 -0.93557909043E+02 -0.28174358031E+03  0.30723282851E+03  0.47000000000E+01 0. -1.
          5    1    3    3  503    0  0.12624397217E+03  0.20927482402E+02 -0.33536814417E+03  0.35898381879E+03  0.47000000000E+01 0. -1.
         -5    1    1    2    0  502 -0.11107507582E+03  0.16888962917E+03  0.27379298275E+02  0.20404189590E+03  0.47000000000E+01 0.  1.
<mgrwt>
<rscale>  0 0.33792907E+03</rscale>
<asrwt>0</asrwt>
<pdfrwt beam="1">  1        2 0.13541290E+00 0.37312723E+03</pdfrwt>
<pdfrwt beam="2">  1       -2 0.26227302E-01 0.37312723E+03</pdfrwt>
<totfact> 0.40775007E+02</totfact>
</mgrwt>
</event>
<event>
 7    1  0.1050440E-008  0.1707218E+03  0.7546771E-02  0.1188106E+00
          3   -1    0    0  501    0  0.00000000000E+00  0.00000000000E+00  0.26390442860E+03  0.26390442860E+03  0.00000000000E+00 0. -1.
         -3   -1    0    0    0  501 -0.00000000000E+00 -0.00000000000E+00 -0.87930515047E+02  0.87930515047E+02  0.00000000000E+00 0.  1.
         25    2    1    2    0    0 -0.49650079391E+02 -0.10514563853E+03  0.88741137713E+02  0.19240824349E+03  0.12500082782E+03 0.  0.
          5    1    3    3  502    0  0.35344620003E+02 -0.57240250587E+02  0.60833162510E+02  0.90820989377E+02  0.47000000000E+01 0. -1.
         -5    1    3    3    0  502 -0.84994699394E+02 -0.47905387944E+02  0.27907975202E+02  0.10158725412E+03  0.47000000000E+01 0. -1.
          5    1    1    2  503    0  0.24250860353E+02  0.78685815276E+01 -0.46854148773E+00  0.25929294905E+02  0.47000000000E+01 0. -1.
         -5    1    1    2    0  503  0.25399219037E+02  0.97277057003E+02  0.87701317328E+02  0.13349740525E+03  0.47000000000E+01 0.  1.
<mgrwt>
<rscale>  0 0.16052460E+03</rscale>
<asrwt>0</asrwt>
<pdfrwt beam="1">  1        3 0.40600681E-01 0.17072183E+03</pdfrwt>
<pdfrwt beam="2">  1       -3 0.13527772E-01 0.17072183E+03</pdfrwt>
<totfact> 0.63961529E+02</totfact>
</mgrwt>
</event>
<event>
 7    1  0.1050440E-008  0.2398259E+03  0.7546771E-02  0.1121725E+00
          2   -1    0    0  501    0  0.00000000000E+00  0.00000000000E+00  0.24423811317E+03  0.24423811317E+03  0.00000000000E+00 0. -1.
         -2   -1    0    0    0  501 -0.00000000000E+00 -0.00000000000E+00 -0.22873054329E+03  0.22873054329E+03  0.00000000000E+00 0.  1.
         25    2    1    2    0    0 -0.11398975605E+03  0.16999088785E+03 -0.21583906211E+02  0.24079520904E+03  0.12500360495E+03 0.  0.
          5    1    1    2  502    0  0.71623380038E+02 -0.13510137469E+03  0.69750347279E+02  0.16813533524E+03  0.47000000000E+01 0. -1.
         -5    1    3    3    0  503  0.33824899500E+01  0.49728651486E+02 -0.49474690672E+02  0.70386184965E+02  0.47000000000E+01 0.  1.
          5    1    3    3  503    0 -0.11737224600E+03  0.12026223636E+03  0.27890784462E+02  0.17040902407E+03  0.47000000000E+01 0.  1.
         -5    1    1    2    0  502  0.42366376015E+02 -0.34889513161E+02 -0.32658871182E+02  0.64038112185E+02  0.47000000000E+01 0.  1.
<mgrwt>
<rscale>  0 0.23712191E+03</rscale>
<asrwt>0</asrwt>
<pdfrwt beam="1">  1        2 0.37575094E-01 0.23982591E+03</pdfrwt>
<pdfrwt beam="2">  1       -2 0.35189314E-01 0.23982591E+03</pdfrwt>
<totfact> 0.10393259E+03</totfact>
</mgrwt>
</event>
<event>
 7    1  0.1050440E-008  0.2715170E+03  0.7546771E-02  0.1129154E+00
         -2   -1    0    0    0  501 -0.00000000000E+00  0.00000000000E+00  0.20890247256E+02  0.20890247256E+02  0.00000000000E+00 0.  1.
          2   -1    0    0  501    0  0.00000000000E+00 -0.00000000000E+00 -0.19450884742E+04  0.19450884742E+04  0.00000000000E+00 0. -1.
         25    2    1    2    0    0  0.27910833618E+02  0.29405131152E+02 -0.65944020819E+03  0.67240446889E+03  0.12499082063E+03 0.  0.
          5    1    1    2  502    0  0.96454361352E+02 -0.18682319489E+02 -0.21524663759E+03  0.23665518773E+03  0.47000000000E+01 0. -1.
         -5    1    1    2    0  502 -0.12436519497E+03 -0.10722811663E+02 -0.10495113812E+04  0.10569190648E+04  0.47000000000E+01 0.  1.
          5    1    3    3  503    0 -0.17744008214E+01 -0.42095529925E+02 -0.11693014280E+03  0.12437817507E+03  0.47000000000E+01 0. -1.
         -5    1    3    3    0  503  0.29685234439E+02  0.71500661076E+02 -0.54251006538E+03  0.54802629382E+03  0.47000000000E+01 0. -1.
<mgrwt>
<rscale>  0 0.22646338E+03</rscale>
<asrwt>0</asrwt>
<pdfrwt beam="1">  1        2 0.29924429E+00 0.27151704E+03</pdfrwt>
<pdfrwt beam="2">  1       -2 0.32138851E-02 0.27151704E+03</pdfrwt>
<totfact> 0.30313642E+03</totfact>
</mgrwt>
</event>
<event>
 7    1  0.1050440E-008  0.1546761E+03  0.7546771E-02  0.1205715E+00
         -3   -1    0    0    0  501 -0.00000000000E+00  0.00000000000E+00  0.34070324727E+03  0.34070324727E+03  0.00000000000E+00 0.  1.
          3   -1    0    0  501    0  0.00000000000E+00 -0.00000000000E+00 -0.72213710590E+02  0.72213710590E+02  0.00000000000E+00 0. -1.
         25    2    1    2    0    0  0.63748439064E+02 -0.65081832317E+02  0.24312425638E+03  0.28815637133E+03  0.12500072767E+03 0.  0.
          5    1    1    2  502    0 -0.63306565798E+02  0.44319961557E+02  0.50028044763E+02  0.92178498188E+02  0.47000000000E+01 0. -1.
         -5    1    1    2    0  502 -0.44187326660E+00  0.20761870760E+02 -0.24662764464E+02  0.32582088338E+02  0.47000000000E+01 0.  1.
          5    1    3    3  503    0  0.95054414121E+02 -0.25261451086E+02  0.19338495419E+03  0.21700993770E+03  0.47000000000E+01 0.  1.
         -5    1    3    3    0  503 -0.31305975057E+02 -0.39820381231E+02  0.49739302189E+02  0.71146433628E+02  0.47000000000E+01 0.  1.
<mgrwt>
<rscale>  0 0.14581260E+03</rscale>
<asrwt>0</asrwt>
<pdfrwt beam="1">  1        3 0.11109802E-01 0.15467608E+03</pdfrwt>
<pdfrwt beam="2">  1       -3 0.52415883E-01 0.15467608E+03</pdfrwt>
<totfact> 0.53062416E+02</totfact>
</mgrwt>
</event>
<event>
 7    1  0.1050440E-008  0.1650859E+03  0.7546771E-02  0.1199052E+00
         -4   -1    0    0    0  501 -0.00000000000E+00  0.00000000000E+00  0.51234181135E+02  0.51234181135E+02  0.00000000000E+00 0.  1.
          4   -1    0    0  501    0  0.00000000000E+00 -0.00000000000E+00 -0.56186699605E+03  0.56186699605E+03  0.00000000000E+00 0. -1.
         25    2    1    2    0    0 -0.82257603410E+02  0.69724286651E+02 -0.45574890899E+03  0.48472715743E+03  0.12500223852E+03 0.  0.
          5    1    3    3  502    0 -0.10312454837E+03  0.64570273728E+02 -0.25287025313E+03  0.28065895254E+03  0.47000000000E+01 0.  1.
         -5    1    1    2    0  503  0.41070212473E+02 -0.58067811506E+02 -0.23371427181E+02  0.75012976838E+02  0.47000000000E+01 0.  1.
          5    1    1    2  503    0  0.41187390937E+02 -0.11656475145E+02 -0.31512478750E+02  0.53361042924E+02  0.47000000000E+01 0. -1.
         -5    1    3    3    0  502  0.20866944958E+02  0.51540129236E+01 -0.20287865586E+03  0.20406820489E+03  0.47000000000E+01 0.  1.
<mgrwt>
<rscale>  0 0.15116245E+03</rscale>
<asrwt>0</asrwt>
<pdfrwt beam="1">  1        4 0.86441078E-01 0.16508588E+03</pdfrwt>
<pdfrwt beam="2">  1       -4 0.78821816E-02 0.16508588E+03</pdfrwt>
<totfact> 0.23341384E+02</totfact>
</mgrwt>
</event>
<event>
 7    1  0.1050440E-008  0.1327640E+03  0.7546771E-02  0.1265133E+00
         -1   -1    0    0    0  501 -0.00000000000E+00  0.00000000000E+00  0.42880705447E+03  0.42880705447E+03  0.00000000000E+00 0.  1.
          1   -1    0    0  501    0  0.00000000000E+00 -0.00000000000E+00 -0.22811672433E+02  0.22811672433E+02  0.00000000000E+00 0. -1.
         25    2    1    2    0    0 -0.44247083102E+02  0.64760629729E+01  0.33555718270E+03  0.36086686299E+03  0.12500610462E+03 0.  0.
          5    1    1    2  502    0  0.21016973711E+02  0.14171175946E+02  0.30955197756E+02  0.40284608472E+02  0.47000000000E+01 0. -1.
         -5    1    1    2    0  502  0.23230109391E+02 -0.20647238919E+02  0.39483001580E+02  0.50467255434E+02  0.47000000000E+01 0.  1.
          5    1    3    3  503    0 -0.70984916828E+02 -0.17758149315E+02  0.10875562631E+03  0.13116434934E+03  0.47000000000E+01 0. -1.
         -5    1    3    3    0  503  0.26737833726E+02  0.24234212288E+02  0.22680155639E+03  0.22970251365E+03  0.47000000000E+01 0. -1.
<mgrwt>
<rscale>  0 0.10757243E+03</rscale>
<asrwt>0</asrwt>
<pdfrwt beam="1">  1        1 0.35094884E-02 0.13276396E+03</pdfrwt>
<pdfrwt beam="2">  1       -1 0.65970310E-01 0.13276396E+03</pdfrwt>
<totfact> 0.62566970E+03</totfact>
</mgrwt>
</event>
<event>
 7    1  0.1050440E-008  0.1276613E+03  0.7546771E-02  0.1255469E+00
          2   -1    0    0  501    0  0.00000000000E+00  0.00000000000E+00  0.26590880644E+03  0.26590880644E+03  0.00000000000E+00 0. -1.
         -2   -1    0    0    0  501 -0.00000000000E+00 -0.00000000000E+00 -0.47396339340E+02  0.47396339340E+02  0.00000000000E+00 0.  1.
         25    2    1    2    0    0  0.13879407249E+02  0.21902907317E+02  0.69883379591E+02  0.14553725844E+03  0.12500012623E+03 0.  0.
          5    1    1    2  502    0 -0.37824206113E+02 -0.13079172698E+02  0.12923835687E+03  0.13537495415E+03  0.47000000000E+01 0. -1.
         -5    1    1    2    0  502  0.23944798864E+02 -0.88237346193E+01  0.19390730640E+02  0.32392933181E+02  0.47000000000E+01 0.  1.
          5    1    3    3  503    0  0.49492720570E+02  0.23491119585E+02  0.89150164551E+02  0.10474351497E+03  0.47000000000E+01 0.  1.
         -5    1    3    3    0  503 -0.35613313322E+02 -0.15882122675E+01 -0.19266784960E+02  0.40793743474E+02  0.47000000000E+01 0.  1.
<mgrwt>
<rscale>  0 0.11280097E+03</rscale>
<asrwt>0</asrwt>
<pdfrwt beam="1">  1        2 0.40909046E-01 0.12766130E+03</pdfrwt>
<pdfrwt beam="2">  1       -2 0.72917447E-02 0.12766130E+03</pdfrwt>
<totfact> 0.12761500E+04</totfact>
</mgrwt>
</event>
<event>
 7    1  0.1050440E-008  0.3968413E+03  0.7546771E-02  0.1072599E+00
          2   -1    0    0  501    0  0.00000000000E+00  0.00000000000E+00  0.60061711687E+03  0.60061711687E+03  0.00000000000E+00 0. -1.
         -2   -1    0    0    0  501 -0.00000000000E+00 -0.00000000000E+00 -0.15374667465E+03  0.15374667465E+03  0.00000000000E+00 0.  1.
         25    2    1    2    0    0  0.12335151866E+03  0.49000219764E+02  0.25525882254E+03  0.31368477041E+03  0.12499780001E+03 0.  0.
          5    1    1    2  502    0  0.84282002421E+02 -0.10926957616E+03  0.17622651197E+03  0.22387757754E+03  0.47000000000E+01 0. -1.
         -5    1    1    2    0  502 -0.20763352108E+03  0.60269356395E+02  0.15385107708E+02  0.21680144357E+03  0.47000000000E+01 0.  1.
          5    1    3    3  503    0  0.12319122228E+03 -0.94651966816E+01  0.17076918967E+03  0.21083138603E+03  0.47000000000E+01 0. -1.
         -5    1    3    3    0  503  0.16029638105E+00  0.58465416446E+02  0.84489632873E+02  0.10285338438E+03  0.47000000000E+01 0. -1.
<mgrwt>
<rscale>  0 0.32671719E+03</rscale>
<asrwt>0</asrwt>
<pdfrwt beam="1">  1        2 0.92402632E-01 0.39684126E+03</pdfrwt>
<pdfrwt beam="2">  1       -2 0.23653335E-01 0.39684126E+03</pdfrwt>
<totfact> 0.79129179E+02</totfact>
</mgrwt>
</event>
<event>
 7    1  0.1050440E-008  0.1317170E+03  0.7546771E-02  0.1259371E+00
         -2   -1    0    0    0  501 -0.00000000000E+00  0.00000000000E+00  0.35529002302E+02  0.35529002302E+02  0.00000000000E+00 0.  1.
          2   -1    0    0  501    0  0.00000000000E+00 -0.00000000000E+00 -0.29418041374E+03  0.29418041374E+03  0.00000000000E+00 0. -1.
         25    2    1    2    0    0  0.13341639575E+02 -0.39315988582E+02 -0.12877394859E+03  0.18420664140E+03  0.12500244236E+03 0.  0.
          5    1    3    3  502    0  0.13538688997E+02 -0.80545312712E+02 -0.52006197110E+02  0.96941106026E+02  0.47000000000E+01 0. -1.
         -5    1    3    3    0  502 -0.19704942203E+00  0.41229324130E+02 -0.76767751480E+02  0.87265535373E+02  0.47000000000E+01 0. -1.
          5    1    1    2  503    0  0.76147320993E+01  0.31550579185E+02 -0.11139794695E+03  0.11612500065E+03  0.47000000000E+01 0. -1.
         -5    1    1    2    0  503 -0.20956371674E+02  0.77654093971E+01 -0.18479515897E+02  0.29377773991E+02  0.47000000000E+01 0.  1.
<mgrwt>
<rscale>  0 0.11065001E+03</rscale>
<asrwt>0</asrwt>
<pdfrwt beam="1">  1        2 0.45258526E-01 0.13171696E+03</pdfrwt>
<pdfrwt beam="2">  1       -2 0.54660003E-02 0.13171696E+03</pdfrwt>
<totfact> 0.17815587E+04</totfact>
</mgrwt>
</event>
<event>
 7    1  0.1050440E-008  0.2080124E+03  0.7546771E-02  0.1158770E+00
         -2   -1    0    0    0  501 -0.00000000000E+00  0.00000000000E+00  0.53497419323E+02  0.53497419323E+02  0.00000000000E+00 0.  1.
          2   -1    0    0  501    0  0.00000000000E+00 -0.00000000000E+00 -0.62589259257E+03  0.62589259257E+03  0.00000000000E+00 0. -1.
         25    2    1    2    0    0 -0.63475503041E+02 -0.31777141914E+02 -0.14562398985E+03  0.20462395548E+03  0.12500276198E+03 0.  0.
          5    1    3    3  502    0  0.35451357427E+02  0.19373808862E+01 -0.19575953092E+02  0.40814949804E+02  0.47000000000E+01 0. -1.
         -5    1    3    3    0  502 -0.98926860468E+02 -0.33714522800E+02 -0.12604803676E+03  0.16380900568E+03  0.47000000000E+01 0. -1.
          5    1    1    2  503    0  0.93170925236E+02 -0.53784742340E+02 -0.15882549045E+03  0.19188862977E+03  0.47000000000E+01 0. -1.
         -5    1    1    2    0  503 -0.29695422195E+02  0.85561884254E+02 -0.26794569295E+03  0.28287742664E+03  0.47000000000E+01 0.  1.
<mgrwt>
<rscale>  0 0.18965765E+03</rscale>
<asrwt>0</asrwt>
<pdfrwt beam="1">  1        2 0.96291170E-01 0.20801242E+03</pdfrwt>
<pdfrwt beam="2">  1       -2 0.82303721E-02 0.20801242E+03</pdfrwt>
<totfact> 0.42845607E+03</totfact>
</mgrwt>
</event>
<event>
 7    1  0.1050440E-008  0.1846308E+03  0.7546771E-02  0.1172229E+00
         -1   -1    0    0    0  501 -0.00000000000E+00  0.00000000000E+00  0.55786190292E+02  0.55786190292E+02  0.00000000000E+00 0.  1.
          1   -1    0    0  501    0  0.00000000000E+00 -0.00000000000E+00 -0.69631056698E+03  0.69631056698E+03  0.00000000000E+00 0. -1.
         25    2    1    2    0    0  0.66647861501E+02 -0.11841911333E+03 -0.14680962618E+03  0.23588474794E+03  0.12499409638E+03 0.  0.
          5    1    1    2  502    0 -0.70696609187E+02  0.89970516250E+02 -0.31564769175E+03  0.33578007632E+03  0.47000000000E+01 0.  1.
         -5    1    1    2    0  502  0.40487476862E+01  0.28448597081E+02 -0.17806705877E+03  0.18043193301E+03  0.47000000000E+01 0. -1.
          5    1    3    3  503    0  0.36090042435E+02  0.16137757572E+02 -0.90073713826E+01  0.40818391953E+02  0.47000000000E+01 0.  1.
         -5    1    3    3    0  503  0.30557819066E+02 -0.13455687090E+03 -0.13780225479E+03  0.19506635599E+03  0.47000000000E+01 0.  1.
<mgrwt>
<rscale>  0 0.17550142E+03</rscale>
<asrwt>0</asrwt>
<pdfrwt beam="1">  1        1 0.10712471E+00 0.18463084E+03</pdfrwt>
<pdfrwt beam="2">  1       -1 0.85824904E-02 0.18463084E+03</pdfrwt>
<totfact> 0.21768148E+03</totfact>
</mgrwt>
</event>
<event>
 7    1  0.1050440E-008  0.3349548E+03  0.7546771E-02  0.1096774E+00
         -4   -1    0    0    0  501 -0.00000000000E+00  0.00000000000E+00  0.70237045630E+03  0.70237045630E+03  0.00000000000E+00 0.  1.
          4   -1    0    0  501    0  0.00000000000E+00 -0.00000000000E+00 -0.16188992279E+03  0.16188992279E+03  0.00000000000E+00 0. -1.
         25    2    1    2    0    0  0.79535411282E+02 -0.57666001373E+02 -0.65435221849E+02  0.17192475160E+03  0.12500041037E+03 0.  0.
          5    1    3    3  502    0  0.51261703443E+01  0.36014322764E+02 -0.27582869477E+01  0.36783246369E+02  0.47000000000E+01 0.  1.
         -5    1    1    2    0  503 -0.15074693045E+03  0.15355015538E+03  0.40080992319E+03  0.45494282254E+03  0.47000000000E+01 0. -1.
          5    1    1    2  503    0  0.71211519163E+02 -0.95884154006E+02  0.20510583217E+03  0.23739280495E+03  0.47000000000E+01 0.  1.
         -5    1    3    3    0  502  0.74409240938E+02 -0.93680324137E+02 -0.62676934901E+02  0.13514150523E+03  0.47000000000E+01 0.  1.
<mgrwt>
<rscale>  0 0.27802187E+03</rscale>
<asrwt>0</asrwt>
<pdfrwt beam="1">  1        4 0.24906142E-01 0.33495480E+03</pdfrwt>
<pdfrwt beam="2">  1       -4 0.10805699E+00 0.33495480E+03</pdfrwt>
<totfact> 0.19958308E+01</totfact>
</mgrwt>
</event>
<event>
 7    1  0.1050440E-008  0.3113737E+03  0.7546771E-02  0.1081773E+00
         -2   -1    0    0    0  501 -0.00000000000E+00  0.00000000000E+00  0.36569238089E+02  0.36569238089E+02  0.00000000000E+00 0.  1.
          2   -1    0    0  501    0  0.00000000000E+00 -0.00000000000E+00 -0.27513204239E+04  0.27513204239E+04  0.00000000000E+00 0. -1.
         25    2    1    2    0    0 -0.19611154357E+03  0.20704931367E+03 -0.97823029824E+03  0.10265905330E+04  0.12499780088E+03 0.  0.
          5    1    3    3  502    0 -0.58980001797E+02  0.15263673866E+03 -0.50404468095E+03  0.52996202222E+03  0.47000000000E+01 0. -1.
         -5    1    1    2    0  503  0.13429967333E+03 -0.16980362124E+03 -0.14337779374E+04  0.14500382532E+04  0.47000000000E+01 0.  1.
          5    1    1    2  503    0  0.61811870242E+02 -0.37245692426E+02 -0.30274295018E+03  0.31126087578E+03  0.47000000000E+01 0. -1.
         -5    1    3    3    0  502 -0.13713154178E+03  0.54412575005E+02 -0.47418561729E+03  0.49662851078E+03  0.47000000000E+01 0. -1.
<mgrwt>
<rscale>  0 0.30704002E+03</rscale>
<asrwt>0</asrwt>
<pdfrwt beam="1">  1        2 0.42328022E+00 0.31137374E+03</pdfrwt>
<pdfrwt beam="2">  1       -2 0.56260345E-02 0.31137374E+03</pdfrwt>
<totfact> 0.47069505E+02</totfact>
</mgrwt>
</event>
<event>
 7    1  0.1050440E-008  0.1454315E+03  0.7546771E-02  0.1212427E+00
          3   -1    0    0  501    0  0.00000000000E+00  0.00000000000E+00  0.30310805533E+02  0.30310805533E+02  0.00000000000E+00 0. -1.
         -3   -1    0    0    0  501 -0.00000000000E+00 -0.00000000000E+00 -0.79422724161E+03  0.79422724161E+03  0.00000000000E+00 0.  1.
         25    2    1    2    0    0 -0.69594677177E+02 -0.26109601117E+02 -0.20525772189E+03  0.25155726239E+03  0.12500077401E+03 0.  0.
          5    1    3    3  502    0 -0.82553570979E+02  0.97381505797E+00 -0.57530772284E+02  0.10073688578E+03  0.47000000000E+01 0. -1.
         -5    1    3    3    0  502  0.12958893802E+02 -0.27083416175E+02 -0.14772694961E+03  0.15082037661E+03  0.47000000000E+01 0. -1.
          5    1    1    2  503    0 -0.59132729250E+01 -0.30889327812E+02 -0.16975322058E+03  0.17270600240E+03  0.47000000000E+01 0. -1.
         -5    1    1    2    0  503  0.75507950102E+02  0.56998928928E+02 -0.38890549361E+03  0.40027478236E+03  0.47000000000E+01 0.  1.
<mgrwt>
<rscale>  0 0.14067215E+03</rscale>
<asrwt>0</asrwt>
<pdfrwt beam="1">  1        3 0.46632013E-02 0.14543151E+03</pdfrwt>
<pdfrwt beam="2">  1       -3 0.12218880E+00 0.14543151E+03</pdfrwt>
<totfact> 0.33905545E+02</totfact>
</mgrwt>
</event>
<event>
 7    1  0.1050440E-008  0.2082712E+03  0.7546771E-02  0.1146220E+00
         -2   -1    0    0    0  501 -0.00000000000E+00  0.00000000000E+00  0.17408456881E+03  0.17408456881E+03  0.00000000000E+00 0.  1.
          2   -1    0    0  501    0  0.00000000000E+00 -0.00000000000E+00 -0.30904977511E+03  0.30904977511E+03  0.00000000000E+00 0. -1.
         25    2    1    2    0    0  0.14637103907E+03 -0.55098251093E+01 -0.18704428841E+03  0.26845059299E+03  0.12500126318E+03 0.  0.
          5    1    3    3  502    0  0.14898525134E+03  0.32433330954E+02 -0.13421436378E+03  0.20318491951E+03  0.47000000000E+01 0. -1.
         -5    1    1    2    0  503 -0.60786724891E+02 -0.43559511546E+02  0.82394627330E+02  0.11137064955E+03  0.47000000000E+01 0.  1.
          5    1    1    2  503    0 -0.85584314181E+02  0.49069336655E+02 -0.30315545223E+02  0.10331310137E+03  0.47000000000E+01 0. -1.
         -5    1    3    3    0  502 -0.26142122647E+01 -0.37943156064E+02 -0.52829924630E+02  0.65265673476E+02  0.47000000000E+01 0. -1.
<mgrwt>
<rscale>  0 0.20422766E+03</rscale>
<asrwt>0</asrwt>
<pdfrwt beam="1">  1        2 0.47546119E-01 0.20827117E+03</pdfrwt>
<pdfrwt beam="2">  1       -2 0.26782242E-01 0.20827117E+03</pdfrwt>
<totfact> 0.13235032E+03</totfact>
</mgrwt>
</event>
<event>
 7    1  0.1590751E-008  0.1626305E+03  0.7546771E-02  0.1190031E+00
          2   -1    0    0  501    0  0.00000000000E+00  0.00000000000E+00  0.36434025786E+03  0.36434025786E+03  0.00000000000E+00 0. -1.
         -2   -1    0    0    0  501 -0.00000000000E+00 -0.00000000000E+00 -0.12770966400E+03  0.12770966400E+03  0.00000000000E+00 0.  1.
         25    2    1    2    0    0  0.10394328691E+03  0.44326657412E+01  0.29188715058E+03  0.33413589043E+03  0.12499931673E+03 0.  0.
          5    1    1    2  502    0 -0.26026042632E+02 -0.27486794123E+02  0.23380587480E+02  0.44739474932E+02  0.47000000000E+01 0. -1.
         -5    1    3    3    0  503  0.95517998346E+02 -0.47557958291E+02  0.22332714186E+03  0.24755312500E+03  0.47000000000E+01 0. -1.
          5    1    3    3  503    0  0.84252885598E+01  0.51990624032E+02  0.68560008719E+02  0.86582765433E+02  0.47000000000E+01 0. -1.
         -5    1    1    2    0  502 -0.77917244273E+02  0.23054128382E+02 -0.78637144195E+02  0.11317455649E+03  0.47000000000E+01 0.  1.
<mgrwt>
<rscale>  0 0.15882405E+03</rscale>
<asrwt>0</asrwt>
<pdfrwt beam="1">  1        2 0.56052347E-01 0.16263052E+03</pdfrwt>
<pdfrwt beam="2">  1       -2 0.19647641E-01 0.16263052E+03</pdfrwt>
<totfact> 0.18884672E+03</totfact>
</mgrwt>
</event>
<event>
 7    1  0.1050440E-008  0.5144663E+03  0.7546771E-02  0.1010070E+00
          2   -1    0    0  501    0  0.00000000000E+00  0.00000000000E+00  0.69182445234E+03  0.69182445234E+03  0.00000000000E+00 0. -1.
         -2   -1    0    0    0  501 -0.00000000000E+00 -0.00000000000E+00 -0.95644035701E+02  0.95644035701E+02  0.00000000000E+00 0.  1.
         25    2    1    2    0    0  0.12533967670E+03 -0.64008302311E+02  0.99883108116E+02  0.21309767613E+03  0.12500754764E+03 0.  0.
          5    1    3    3  502    0 -0.95152369340E+01 -0.47636081494E+02  0.91067059429E+01  0.49646330047E+02  0.47000000000E+01 0. -1.
         -5    1    3    3    0  502  0.13485491363E+03 -0.16372220817E+02  0.90776402173E+02  0.16345134608E+03  0.47000000000E+01 0. -1.
          5    1    1    2  503    0 -0.69410645222E+02  0.71538182781E+02  0.50701065154E+03  0.51673730273E+03  0.47000000000E+01 0. -1.
         -5    1    1    2    0  503 -0.55929031476E+02 -0.75298804705E+01 -0.10713343012E+02  0.57633509178E+02  0.47000000000E+01 0.  1.
<mgrwt>
<rscale>  0 0.51446626E+03</rscale>
<asrwt>0</asrwt>
<pdfrwt beam="1">  1        2 0.10643453E+00 0.51446626E+03</pdfrwt>
<pdfrwt beam="2">  1       -2 0.14714467E-01 0.51446626E+03</pdfrwt>
<totfact> 0.15075446E+03</totfact>
</mgrwt>
</event>
<event>
 7    1  0.1050440E-008  0.7973857E+03  0.7546771E-02  0.9563809E-01
         -1   -1    0    0    0  501 -0.00000000000E+00  0.00000000000E+00  0.10972949324E+03  0.10972949324E+03  0.00000000000E+00 0. -1.
          1   -1    0    0  501    0  0.00000000000E+00 -0.00000000000E+00 -0.14486166471E+04  0.14486166471E+04  0.00000000000E+00 0.  1.
         25    2    1    2    0    0 -0.28503108074E+03  0.69603633996E+02 -0.43365427890E+03  0.53830159808E+03  0.12500077613E+03 0.  0.
          5    1    3    3  502    0 -0.14558094246E+03  0.63772897783E+02 -0.13490658258E+03  0.20852498489E+03  0.47000000000E+01 0.  1.
         -5    1    1    2    0  503 -0.65294790000E+02 -0.75987420495E+02 -0.34468545749E+03  0.35898140938E+03  0.47000000000E+01 0.  1.
          5    1    1    2  503    0  0.35032587074E+03  0.63837864993E+01 -0.56054741748E+03  0.66106313290E+03  0.47000000000E+01 0. -1.
         -5    1    3    3    0  502 -0.13945013828E+03  0.58307362124E+01 -0.29874769632E+03  0.32977661319E+03  0.47000000000E+01 0.  1.
<mgrwt>
<rscale>  0 0.79738565E+03</rscale>
<asrwt>0</asrwt>
<pdfrwt beam="1">  1        1 0.22286407E+00 0.79738565E+03</pdfrwt>
<pdfrwt beam="2">  1       -1 0.16881463E-01 0.79738565E+03</pdfrwt>
<totfact> 0.19532864E+02</totfact>
</mgrwt>
</event>
<event>
 7    1  0.1050440E-008  0.4350065E+03  0.7546771E-02  0.1037291E+00
         -1   -1    0    0    0  501 -0.00000000000E+00  0.00000000000E+00  0.13343787697E+04  0.13343787697E+04  0.00000000000E+00 0.  1.
          1   -1    0    0  501    0  0.00000000000E+00 -0.00000000000E+00 -0.13785773229E+03  0.13785773229E+03  0.00000000000E+00 0. -1.
         25    2    1    2    0    0 -0.28001358766E+03  0.21678812805E+03  0.31872121260E+03  0.49256145959E+03  0.12501551254E+03 0.  0.
          5    1    3    3  502    0 -0.89991087592E+02  0.13171364284E+03  0.89925509805E+02  0.18318178640E+03  0.47000000000E+01 0.  1.
         -5    1    1    2    0  503  0.11686749272E+03 -0.24280726106E+03  0.52881915464E+03  0.59353615323E+03  0.47000000000E+01 0.  1.
          5    1    1    2  503    0  0.16314609494E+03  0.26019133009E+02  0.34898067019E+03  0.38613888919E+03  0.47000000000E+01 0. -1.
         -5    1    3    3    0  502 -0.19002250007E+03  0.85074485216E+02  0.22879570279E+03  0.30937967319E+03  0.47000000000E+01 0.  1.
<mgrwt>
<rscale>  0 0.41931184E+03</rscale>
<asrwt>0</asrwt>
<pdfrwt beam="1">  1        1 0.21208883E-01 0.43500650E+03</pdfrwt>
<pdfrwt beam="2">  1       -1 0.20528903E+00 0.43500650E+03</pdfrwt>
<totfact> 0.35600345E+01</totfact>
</mgrwt>
</event>
<event>
 7    1  0.1224243E-008  0.1482140E+03  0.7546771E-02  0.1211509E+00
         -2   -1    0    0    0  501 -0.00000000000E+00  0.00000000000E+00  0.14298835152E+03  0.14298835152E+03  0.00000000000E+00 0.  1.
          2   -1    0    0  501    0  0.00000000000E+00 -0.00000000000E+00 -0.27193172005E+03  0.27193172005E+03  0.00000000000E+00 0. -1.
         25    2    1    2    0    0 -0.61530692285E+02  0.50561688328E+02  0.83130496424E+02  0.16993547003E+03  0.12499949648E+03 0.  0.
          5    1    3    3  502    0 -0.71539503337E+02 -0.19042519309E+02  0.61076999509E+02  0.96088542233E+02  0.47000000000E+01 0.  1.
         -5    1    3    3    0  502  0.10008811053E+02  0.69604207637E+02  0.22053496915E+02  0.73846927801E+02  0.47000000000E+01 0.  1.
          5    1    1    2  503    0  0.71058863520E+02 -0.76970152266E+00 -0.13458002591E+03  0.15226236534E+03  0.47000000000E+01 0. -1.
         -5    1    1    2    0  503 -0.95281712351E+01 -0.49791986806E+02 -0.77493839040E+02  0.92722236202E+02  0.47000000000E+01 0.  1.
<mgrwt>
<rscale>  0 0.14136131E+03</rscale>
<asrwt>0</asrwt>
<pdfrwt beam="1">  1        2 0.41835649E-01 0.14821398E+03</pdfrwt>
<pdfrwt beam="2">  1       -2 0.21998208E-01 0.14821398E+03</pdfrwt>
<totfact> 0.21201488E+03</totfact>
</mgrwt>
</event>
<event>
 7    1  0.1050440E-008  0.1428992E+03  0.7546771E-02  0.1237780E+00
         -2   -1    0    0    0  501 -0.00000000000E+00  0.00000000000E+00  0.10298717108E+03  0.10298717108E+03  0.00000000000E+00 0.  1.
          2   -1    0    0  501    0  0.00000000000E+00 -0.00000000000E+00 -0.14142366568E+03  0.14142366568E+03  0.00000000000E+00 0. -1.
         25    2    1    2    0    0  0.47311709324E+02  0.50573700317E+02 -0.70084378524E+02  0.15916026278E+03  0.12499628847E+03 0.  0.
          5    1    3    3  502    0  0.49652012489E+02 -0.31313064707E+02 -0.42384806400E+02  0.72556131231E+02  0.47000000000E+01 0.  1.
         -5    1    3    3    0  502 -0.23403031654E+01  0.81886765024E+02 -0.27699572124E+02  0.86604131546E+02  0.47000000000E+01 0.  1.
          5    1    1    2  503    0 -0.61183610280E+01 -0.21670784159E+02 -0.40727493964E+01  0.23360961354E+02  0.47000000000E+01 0. -1.
         -5    1    1    2    0  503 -0.41193348296E+02 -0.28902916158E+02  0.35720633320E+02  0.61889612626E+02  0.47000000000E+01 0.  1.
<mgrwt>
<rscale>  0 0.12328115E+03</rscale>
<asrwt>0</asrwt>
<pdfrwt beam="1">  1        2 0.21757487E-01 0.14289916E+03</pdfrwt>
<pdfrwt beam="2">  1       -2 0.15844180E-01 0.14289916E+03</pdfrwt>
<totfact> 0.74791049E+03</totfact>
</mgrwt>
</event>
<event>
 7    1  0.1050440E-008  0.4854227E+03  0.7546771E-02  0.1045436E+00
          1   -1    0    0  501    0  0.00000000000E+00  0.00000000000E+00  0.20934032862E+03  0.20934032862E+03  0.00000000000E+00 0. -1.
         -1   -1    0    0    0  501 -0.00000000000E+00 -0.00000000000E+00 -0.62690110997E+03  0.62690110997E+03  0.00000000000E+00 0.  1.
         25    2    1    2    0    0  0.11938726176E+03  0.12508621898E+03 -0.30800848194E+02  0.21558175578E+03  0.12500768267E+03 0.  0.
          5    1    1    2  502    0 -0.25736545677E+03  0.44216961936E+02 -0.16260660959E+03  0.30766071823E+03  0.47000000000E+01 0. -1.
         -5    1    3    3    0  503  0.13710741226E+03  0.10453684716E+03 -0.52752776151E+02  0.18036446519E+03  0.47000000000E+01 0.  1.
          5    1    3    3  503    0 -0.17720150499E+02  0.20549371810E+02  0.21951927957E+02  0.35217290590E+02  0.47000000000E+01 0.  1.
         -5    1    1    2    0  502  0.13797819501E+03 -0.16930318091E+03 -0.22415332356E+03  0.31299896458E+03  0.47000000000E+01 0.  1.
<mgrwt>
<rscale>  0 0.39525143E+03</rscale>
<asrwt>0</asrwt>
<pdfrwt beam="1">  1        1 0.32206205E-01 0.48542270E+03</pdfrwt>
<pdfrwt beam="2">  1       -1 0.96446324E-01 0.48542270E+03</pdfrwt>
<totfact> 0.14934644E+02</totfact>
</mgrwt>
</event>
<event>
 7    1  0.1050440E-008  0.2052424E+03  0.7546771E-02  0.1154247E+00
         -2   -1    0    0    0  501 -0.00000000000E+00  0.00000000000E+00  0.63226534764E+02  0.63226534764E+02  0.00000000000E+00 0. -1.
          2   -1    0    0  501    0  0.00000000000E+00 -0.00000000000E+00 -0.72761529823E+03  0.72761529823E+03  0.00000000000E+00 0.  1.
         25    2    1    2    0    0 -0.10010914779E+03 -0.45093418774E+02 -0.50283060033E+03  0.52964175116E+03  0.12500605606E+03 0.  0.
          5    1    3    3  502    0  0.21547153627E+02 -0.10915597798E+02 -0.19944917052E+03  0.20096141850E+03  0.47000000000E+01 0.  1.
         -5    1    3    3    0  502 -0.12165630142E+03 -0.34177820976E+02 -0.30338142982E+03  0.32868033266E+03  0.47000000000E+01 0.  1.
          5    1    1    2  503    0 -0.94584493631E+01 -0.48094341481E+02 -0.65319707573E+01  0.49671768529E+02  0.47000000000E+01 0. -1.
         -5    1    1    2    0  503  0.10956759715E+03  0.93187760254E+02 -0.15502619237E+03  0.21152831330E+03  0.47000000000E+01 0.  1.
<mgrwt>
<rscale>  0 0.19474869E+03</rscale>
<asrwt>0</asrwt>
<pdfrwt beam="1">  1        2 0.11194082E+00 0.20524240E+03</pdfrwt>
<pdfrwt beam="2">  1       -2 0.97271590E-02 0.20524240E+03</pdfrwt>
<totfact> 0.27508897E+03</totfact>
</mgrwt>
</event>
<event>
 7    1  0.1050440E-008  0.1923159E+03  0.7546771E-02  0.1164810E+00
         -1   -1    0    0    0  501 -0.00000000000E+00  0.00000000000E+00  0.35548952660E+02  0.35548952660E+02  0.00000000000E+00 0.  1.
          1   -1    0    0  501    0  0.00000000000E+00 -0.00000000000E+00 -0.13050988829E+04  0.13050988829E+04  0.00000000000E+00 0. -1.
         25    2    1    2    0    0  0.15454365434E+01  0.96810329057E+02 -0.20513732915E+03  0.25900114063E+03  0.12500255537E+03 0.  0.
          5    1    3    3  502    0  0.55182595667E+02  0.74476409773E+02 -0.16118733324E+03  0.18599812062E+03  0.47000000000E+01 0. -1.
         -5    1    3    3    0  502 -0.53637159124E+02  0.22333919284E+02 -0.43949995907E+02  0.73003020004E+02  0.47000000000E+01 0. -1.
          5    1    1    2  503    0 -0.71180546999E+02 -0.73477785146E+02 -0.82073070266E+03  0.82709529769E+03  0.47000000000E+01 0. -1.
         -5    1    1    2    0  503  0.69635110456E+02 -0.23332543911E+02 -0.24368189845E+03  0.25455139725E+03  0.47000000000E+01 0.  1.
<mgrwt>
<rscale>  0 0.18312785E+03</rscale>
<asrwt>0</asrwt>
<pdfrwt beam="1">  1        1 0.20078442E+00 0.19231585E+03</pdfrwt>
<pdfrwt beam="2">  1       -1 0.54690704E-02 0.19231585E+03</pdfrwt>
<totfact> 0.14908255E+03</totfact>
</mgrwt>
</event>
<event>
 7    1  0.1050440E-008  0.1475597E+03  0.7546771E-02  0.1227213E+00
          1   -1    0    0  501    0  0.00000000000E+00  0.00000000000E+00  0.13408277092E+03  0.13408277092E+03  0.00000000000E+00 0. -1.
         -1   -1    0    0    0  501 -0.00000000000E+00 -0.00000000000E+00 -0.11503059354E+03  0.11503059354E+03  0.00000000000E+00 0.  1.
         25    2    1    2    0    0  0.52992128863E+02 -0.57797055944E+02  0.48046640040E+02  0.15518487280E+03  0.12500079892E+03 0.  0.
          5    1    1    2  502    0 -0.20963352988E+02  0.46415091999E+02 -0.36633289014E+01  0.51277021290E+02  0.47000000000E+01 0. -1.
         -5    1    3    3    0  503  0.69427336243E+02 -0.43486651668E+02  0.81063949597E+02  0.11534599176E+03  0.47000000000E+01 0.  1.
          5    1    3    3  503    0 -0.16435207380E+02 -0.14310404276E+02 -0.33017309557E+02  0.39838881041E+02  0.47000000000E+01 0.  1.
         -5    1    1    2    0  502 -0.32028775874E+02  0.11381963945E+02 -0.25331133757E+02  0.42651470369E+02  0.47000000000E+01 0.  1.
<mgrwt>
<rscale>  0 0.13016343E+03</rscale>
<asrwt>0</asrwt>
<pdfrwt beam="1">  1        1 0.20628119E-01 0.14755970E+03</pdfrwt>
<pdfrwt beam="2">  1       -1 0.17697014E-01 0.14755970E+03</pdfrwt>
<totfact> 0.57806921E+03</totfact>
</mgrwt>
</event>
<event>
 7    1  0.1050440E-008  0.1726520E+03  0.7546771E-02  0.1176600E+00
         -1   -1    0    0    0  501 -0.00000000000E+00  0.00000000000E+00  0.24068974379E+02  0.24068974379E+02  0.00000000000E+00 0. -1.
          1   -1    0    0  501    0  0.00000000000E+00 -0.00000000000E+00 -0.16003428276E+04  0.16003428276E+04  0.00000000000E+00 0.  1.
         25    2    1    2    0    0  0.11034157080E+03  0.79725558612E+01 -0.37084556969E+03  0.40668192105E+03  0.12499969781E+03 0.  0.
          5    1    3    3  502    0  0.80454627936E+02  0.46632065673E+02 -0.12435449402E+03  0.15535001413E+03  0.47000000000E+01 0.  1.
         -5    1    3    3    0  502  0.29886942863E+02 -0.38659509811E+02 -0.24649107567E+03  0.25133190692E+03  0.47000000000E+01 0.  1.
          5    1    1    2  503    0 -0.13225769021E+03 -0.35572199835E+02 -0.96969853685E+03  0.97933386564E+03  0.47000000000E+01 0. -1.
         -5    1    1    2    0  503  0.21916119408E+02  0.27599643974E+02 -0.23572974668E+03  0.23839601530E+03  0.47000000000E+01 0.  1.
<mgrwt>
<rscale>  0 0.17120194E+03</rscale>
<asrwt>0</asrwt>
<pdfrwt beam="1">  1        1 0.24620662E+00 0.17265201E+03</pdfrwt>
<pdfrwt beam="2">  1       -1 0.37029187E-02 0.17265201E+03</pdfrwt>
<totfact> 0.16991512E+03</totfact>
</mgrwt>
</event>
<event>
 7    1  0.1872501E-008  0.2911424E+03  0.7546771E-02  0.1092917E+00
         -2   -1    0    0    0  501 -0.00000000000E+00  0.00000000000E+00  0.34508829253E+03  0.34508829253E+03  0.00000000000E+00 0.  1.
          2   -1    0    0  501    0  0.00000000000E+00 -0.00000000000E+00 -0.50035043921E+03  0.50035043921E+03  0.00000000000E+00 0. -1.
         25    2    1    2    0    0 -0.97492603629E+02 -0.24421525257E+03 -0.39178027988E+03  0.48811440712E+03  0.12497195440E+03 0.  0.
          5    1    3    3  502    0 -0.57202365254E+02 -0.14584688385E+03 -0.12362889999E+03  0.19962369357E+03  0.47000000000E+01 0.  1.
         -5    1    1    2    0  503  0.66080379914E+02  0.18967596551E+03  0.15246087650E+03  0.25221022455E+03  0.47000000000E+01 0.  1.
          5    1    1    2  503    0  0.31412223714E+02  0.54539287053E+02  0.84057256700E+02  0.10511410008E+03  0.47000000000E+01 0. -1.
         -5    1    3    3    0  502 -0.40290238374E+02 -0.98368368716E+02 -0.26815137988E+03  0.28849071355E+03  0.47000000000E+01 0.  1.
<mgrwt>
<rscale>  0 0.28513408E+03</rscale>
<asrwt>0</asrwt>
<pdfrwt beam="1">  1        2 0.76976990E-01 0.29114238E+03</pdfrwt>
<pdfrwt beam="2">  1       -2 0.53090507E-01 0.29114238E+03</pdfrwt>
<totfact> 0.21315709E+02</totfact>
</mgrwt>
</event>
<event>
 7    1  0.1050440E-008  0.2416402E+03  0.7546771E-02  0.1145210E+00
         -2   -1    0    0    0  501 -0.00000000000E+00  0.00000000000E+00  0.51756500614E+02  0.51756500614E+02  0.00000000000E+00 0.  1.
          2   -1    0    0  501    0  0.00000000000E+00 -0.00000000000E+00 -0.68573429281E+03  0.68573429281E+03  0.00000000000E+00 0. -1.
         25    2    1    2    0    0 -0.99927016725E+00  0.18032763316E+02 -0.29780337491E+03  0.32348207476E+03  0.12501049351E+03 0.  0.
          5    1    3    3  502    0 -0.37453790362E+02  0.47225072948E+02 -0.24709637234E+03  0.25438494679E+03  0.47000000000E+01 0.  1.
         -5    1    1    2    0  503 -0.65197274047E+02 -0.11014925585E+03 -0.17531596579E+03  0.21712052176E+03  0.47000000000E+01 0.  1.
          5    1    1    2  503    0  0.66196544214E+02  0.92116492537E+02 -0.16085845150E+03  0.19688819691E+03  0.47000000000E+01 0. -1.
         -5    1    3    3    0  502  0.36454520195E+02 -0.29192309632E+02 -0.50707002565E+02  0.69097127968E+02  0.47000000000E+01 0.  1.
<mgrwt>
<rscale>  0 0.20546360E+03</rscale>
<asrwt>0</asrwt>
<pdfrwt beam="1">  1        2 0.10549757E+00 0.24164019E+03</pdfrwt>
<pdfrwt beam="2">  1       -2 0.79625393E-02 0.24164019E+03</pdfrwt>
<totfact> 0.40686468E+03</totfact>
</mgrwt>
</event>
<event>
 7    1  0.1050440E-008  0.4293170E+03  0.7546771E-02  0.1069334E+00
          1   -1    0    0  501    0  0.00000000000E+00  0.00000000000E+00  0.32462235318E+03  0.32462235318E+03  0.00000000000E+00 0. -1.
         -1   -1    0    0    0  501 -0.00000000000E+00 -0.00000000000E+00 -0.34915072458E+03  0.34915072458E+03  0.00000000000E+00 0.  1.
         25    2    1    2    0    0  0.48300486671E+02 -0.82702244492E+02  0.14320799681E+03  0.21285162223E+03  0.12499873791E+03 0.  0.
          5    1    1    2  502    0 -0.16605767688E+03  0.81673533217E+02  0.68125705790E+02  0.19725344070E+03  0.47000000000E+01 0. -1.
         -5    1    3    3    0  503  0.78831146748E+02 -0.11642443728E+02  0.67823628181E+02  0.10474746170E+03  0.47000000000E+01 0. -1.
          5    1    3    3  503    0 -0.30530660076E+02 -0.71059800764E+02  0.75384368627E+02  0.10810416052E+03  0.47000000000E+01 0. -1.
         -5    1    1    2    0  502  0.11775719021E+03  0.10287112748E+01 -0.23586207400E+03  0.26366801483E+03  0.47000000000E+01 0.  1.
<mgrwt>
<rscale>  0 0.33410586E+03</rscale>
<asrwt>0</asrwt>
<pdfrwt beam="1">  1        1 0.49941900E-01 0.42931701E+03</pdfrwt>
<pdfrwt beam="2">  1       -1 0.53715496E-01 0.42931701E+03</pdfrwt>
<totfact> 0.28367520E+02</totfact>
</mgrwt>
</event>
<event>
 7    1  0.1050440E-008  0.1256628E+03  0.7546771E-02  0.1255455E+00
         -2   -1    0    0    0  501 -0.00000000000E+00  0.00000000000E+00  0.27053428148E+03  0.27053428148E+03  0.00000000000E+00 0. -1.
          2   -1    0    0  501    0  0.00000000000E+00 -0.00000000000E+00 -0.40618393820E+02  0.40618393820E+02  0.00000000000E+00 0.  1.
         25    2    1    2    0    0 -0.11467586053E+02 -0.59337181890E+01  0.16168765337E+03  0.20477803481E+03  0.12499772696E+03 0.  0.
          5    1    3    3  502    0 -0.61878901648E+02  0.21393391054E+02  0.10618609052E+03  0.12483689947E+03  0.47000000000E+01 0.  1.
         -5    1    1    2    0  503 -0.14422729464E+02 -0.30699395622E+02  0.17367190907E+02  0.38395017083E+02  0.47000000000E+01 0.  1.
          5    1    1    2  503    0  0.25890315517E+02  0.36633113811E+02  0.50861043382E+02  0.67979623410E+02  0.47000000000E+01 0. -1.
         -5    1    3    3    0  502  0.50411315595E+02 -0.27327109243E+02  0.55501562852E+02  0.79941135335E+02  0.47000000000E+01 0.  1.
<mgrwt>
<rscale>  0 0.11280887E+03</rscale>
<asrwt>0</asrwt>
<pdfrwt beam="1">  1        2 0.62489838E-02 0.12566283E+03</pdfrwt>
<pdfrwt beam="2">  1       -2 0.41620658E-01 0.12566283E+03</pdfrwt>
<totfact> 0.60741609E+03</totfact>
</mgrwt>
</event>
<event>
 7    1  0.1050440E-008  0.2987657E+03  0.7546771E-02  0.1087339E+00
          2   -1    0    0  501    0  0.00000000000E+00  0.00000000000E+00  0.20014655889E+04  0.20014655889E+04  0.00000000000E+00 0. -1.
         -2   -1    0    0    0  501 -0.00000000000E+00 -0.00000000000E+00 -0.68832949444E+02  0.68832949444E+02  0.00000000000E+00 0.  1.
         25    2    1    2    0    0  0.69923589309E+02 -0.24896617038E+03  0.15898525368E+04  0.16155907994E+04  0.12501631801E+03 0.  0.
          5    1    1    2  502    0  0.27027047975E+02  0.16977603845E+03  0.22065300091E+03  0.27975739734E+03  0.47000000000E+01 0. -1.
         -5    1    1    2    0  502 -0.96950637284E+02  0.79190131922E+02  0.12212710166E+03  0.17495034159E+03  0.47000000000E+01 0. -1.
          5    1    3    3  503    0 -0.49120349187E+01 -0.11174099873E+03  0.39528184498E+03  0.41082843847E+03  0.47000000000E+01 0. -1.
         -5    1    3    3    0  503  0.74835624227E+02 -0.13722517165E+03  0.11945706919E+04  0.12047623609E+04  0.47000000000E+01 0. -1.
<mgrwt>
<rscale>  0 0.29583969E+03</rscale>
<asrwt>0</asrwt>
<pdfrwt beam="1">  1        2 0.30791774E+00 0.29876568E+03</pdfrwt>
<pdfrwt beam="2">  1       -2 0.10589686E-01 0.29876568E+03</pdfrwt>
<totfact> 0.44769064E+02</totfact>
</mgrwt>
</event>
<event>
 7    1  0.1050440E-008  0.3790052E+03  0.7546771E-02  0.1051302E+00
          2   -1    0    0  501    0  0.00000000000E+00  0.00000000000E+00  0.31926765999E+03  0.31926765999E+03  0.00000000000E+00 0.  1.
         -2   -1    0    0    0  501 -0.00000000000E+00 -0.00000000000E+00 -0.11248000870E+03  0.11248000870E+03  0.00000000000E+00 0. -1.
         25    2    1    2    0    0 -0.78442525165E+02 -0.45506695800E+02  0.32006970591E+02  0.15771177255E+03  0.12499787165E+03 0.  0.
          5    1    3    3  502    0 -0.20592252701E+02 -0.80727998997E+02  0.19605980427E+01  0.83468464932E+02  0.47000000000E+01 0. -1.
         -5    1    1    2    0  503 -0.89456221207E+01 -0.22729012733E+02  0.16018840036E+03  0.16210812991E+03  0.47000000000E+01 0.  1.
          5    1    1    2  503    0  0.87388147285E+02  0.68235708533E+02  0.14592280342E+02  0.11192776622E+03  0.47000000000E+01 0. -1.
         -5    1    3    3    0  502 -0.57850272463E+02  0.35221303197E+02  0.30046372548E+02  0.74243307620E+02  0.47000000000E+01 0. -1.
<mgrwt>
<rscale>  0 0.37900517E+03</rscale>
<asrwt>0</asrwt>
<pdfrwt beam="1">  1        2 0.49118101E-01 0.37900517E+03</pdfrwt>
<pdfrwt beam="2">  1       -2 0.17304617E-01 0.37900517E+03</pdfrwt>
<totfact> 0.27657212E+03</totfact>
</mgrwt>
</event>
<event>
 7    1  0.1050440E-008  0.1442143E+03  0.7546771E-02  0.1211452E+00
          2   -1    0    0  501    0  0.00000000000E+00  0.00000000000E+00  0.53389819884E+03  0.53389819884E+03  0.00000000000E+00 0. -1.
         -2   -1    0    0    0  501 -0.00000000000E+00 -0.00000000000E+00 -0.37264883305E+02  0.37264883305E+02  0.00000000000E+00 0.  1.
         25    2    1    2    0    0  0.69819313683E+02 -0.17268787792E+02  0.20648721966E+03  0.25186252981E+03  0.12499925776E+03 0.  0.
          5    1    1    2  502    0  0.28135952841E+02  0.13772262507E+02  0.43179535729E+02  0.53552491656E+02  0.47000000000E+01 0. -1.
         -5    1    1    2    0  502 -0.97955266524E+02  0.34965252851E+01  0.24696656015E+03  0.26574806069E+03  0.47000000000E+01 0. -1.
          5    1    3    3  503    0  0.10064888650E+03 -0.34638095199E+02  0.17134669785E+03  0.20177159577E+03  0.47000000000E+01 0.  1.
         -5    1    3    3    0  503 -0.30829572816E+02  0.17369307408E+02  0.35140521811E+02  0.50090934040E+02  0.47000000000E+01 0.  1.
<mgrwt>
<rscale>  0 0.14140387E+03</rscale>
<asrwt>0</asrwt>
<pdfrwt beam="1">  1        2 0.82138179E-01 0.14421429E+03</pdfrwt>
<pdfrwt beam="2">  1       -2 0.57330593E-02 0.14421429E+03</pdfrwt>
<totfact> 0.87959247E+03</totfact>
</mgrwt>
</event>
<event>
 7    1  0.1050440E-008  0.6647440E+03  0.7546771E-02  0.9958456E-01
         -2   -1    0    0    0  501 -0.00000000000E+00  0.00000000000E+00  0.60089896719E+03  0.60089896719E+03  0.00000000000E+00 0.  1.
          2   -1    0    0  501    0  0.00000000000E+00 -0.00000000000E+00 -0.47005145683E+03  0.47005145683E+03  0.00000000000E+00 0. -1.
         25    2    1    2    0    0  0.35063736258E+03 -0.10519719955E+02 -0.64836933759E+02  0.37800241761E+03  0.12499910079E+03 0.  0.
          5    1    1    2  502    0 -0.81458536511E+02  0.27405064671E+03  0.11159474280E+03  0.30694417531E+03  0.47000000000E+01 0. -1.
         -5    1    1    2    0  502 -0.26917882607E+03 -0.26353092676E+03  0.84089701322E+02  0.38600383110E+03  0.47000000000E+01 0.  1.
          5    1    3    3  503    0  0.15463265961E+03 -0.59969088166E+02 -0.57729235203E+02  0.17567670748E+03  0.47000000000E+01 0.  1.
         -5    1    3    3    0  503  0.19600470297E+03  0.49449368211E+02 -0.71076985554E+01  0.20232571013E+03  0.47000000000E+01 0.  1.
<mgrwt>
<rscale>  0 0.57509993E+03</rscale>
<asrwt>0</asrwt>
<pdfrwt beam="1">  1        2 0.72315608E-01 0.66474396E+03</pdfrwt>
<pdfrwt beam="2">  1       -2 0.92445996E-01 0.66474396E+03</pdfrwt>
<totfact> 0.66798578E+01</totfact>
</mgrwt>
</event>
<event>
 7    1  0.1050440E-008  0.1463433E+03  0.7546771E-02  0.1212083E+00
         -1   -1    0    0    0  501 -0.00000000000E+00  0.00000000000E+00  0.18961873513E+04  0.18961873513E+04  0.00000000000E+00 0.  1.
          1   -1    0    0  501    0  0.00000000000E+00 -0.00000000000E+00 -0.10311186574E+02  0.10311186574E+02  0.00000000000E+00 0. -1.
         25    2    1    2    0    0 -0.38739874070E+01 -0.14253150773E+02  0.65774047900E+03  0.66967452609E+03  0.12499309222E+03 0.  0.
          5    1    3    3  502    0  0.32180800155E+02  0.45098651731E+02  0.25851861458E+03  0.26443043768E+03  0.47000000000E+01 0. -1.
         -5    1    1    2    0  503  0.31338573474E+02 -0.58581713566E+02  0.47163709917E+03  0.47631666637E+03  0.47000000000E+01 0.  1.
          5    1    1    2  503    0 -0.27464586067E+02  0.72834864338E+02  0.75649858658E+03  0.76050734543E+03  0.47000000000E+01 0. -1.
         -5    1    3    3    0  502 -0.36054787562E+02 -0.59351802504E+02  0.39922186442E+03  0.40524408842E+03  0.47000000000E+01 0. -1.
<mgrwt>
<rscale>  0 0.14093019E+03</rscale>
<asrwt>0</asrwt>
<pdfrwt beam="1">  1        1 0.15863379E-02 0.14634334E+03</pdfrwt>
<pdfrwt beam="2">  1       -1 0.29172085E+00 0.14634334E+03</pdfrwt>
<totfact> 0.36531428E+02</totfact>
</mgrwt>
</event>
<event>
 7    1  0.1050440E-008  0.1294601E+03  0.7546771E-02  0.1259506E+00
         -2   -1    0    0    0  501 -0.00000000000E+00  0.00000000000E+00  0.25520110923E+02  0.25520110923E+02  0.00000000000E+00 0.  1.
          2   -1    0    0  501    0  0.00000000000E+00 -0.00000000000E+00 -0.43624956052E+03  0.43624956052E+03  0.00000000000E+00 0. -1.
         25    2    1    2    0    0 -0.33637019402E+02  0.19607528474E+01 -0.33622430996E+03  0.36028698466E+03  0.12499852431E+03 0.  0.
          5    1    1    2  502    0 -0.40818850026E+01 -0.23653571516E+02 -0.33741926596E+02  0.41674462697E+02  0.47000000000E+01 0. -1.
         -5    1    3    3    0  503 -0.53024207283E+02 -0.49380187966E+02 -0.21998298277E+03  0.23165615086E+03  0.47000000000E+01 0. -1.
          5    1    3    3  503    0  0.19387187880E+02  0.51340940813E+02 -0.11624132719E+03  0.12863083380E+03  0.47000000000E+01 0. -1.
         -5    1    1    2    0  502  0.37718904405E+02  0.21692818669E+02 -0.40763213046E+02  0.59808224093E+02  0.47000000000E+01 0.  1.
<mgrwt>
<rscale>  0 0.11057645E+03</rscale>
<asrwt>0</asrwt>
<pdfrwt beam="1">  1        2 0.67115317E-01 0.12946013E+03</pdfrwt>
<pdfrwt beam="2">  1       -2 0.39261709E-02 0.12946013E+03</pdfrwt>
<totfact> 0.19184910E+04</totfact>
</mgrwt>
</event>
<event>
 7    1  0.1050440E-008  0.1471986E+03  0.7546771E-02  0.1212473E+00
         -2   -1    0    0    0  501 -0.00000000000E+00  0.00000000000E+00  0.49824176220E+02  0.49824176220E+02  0.00000000000E+00 0.  1.
          2   -1    0    0  501    0  0.00000000000E+00 -0.00000000000E+00 -0.40114993024E+03  0.40114993024E+03  0.00000000000E+00 0. -1.
         25    2    1    2    0    0  0.60399444718E+02  0.48938506954E+02 -0.25727060448E+03  0.29640445030E+03  0.12499745536E+03 0.  0.
          5    1    1    2  502    0  0.21633765336E+00  0.21762617565E+02 -0.19797338493E+00  0.22266286595E+02  0.47000000000E+01 0. -1.
         -5    1    1    2    0  502 -0.60615782372E+02 -0.70701124519E+02 -0.93857176160E+02  0.13230336956E+03  0.47000000000E+01 0.  1.
          5    1    3    3  503    0  0.50961153032E+02 -0.22848286056E+02 -0.44381489027E+02  0.71490487915E+02  0.47000000000E+01 0. -1.
         -5    1    3    3    0  503  0.94382916862E+01  0.71786793010E+02 -0.21288911545E+03  0.22491396239E+03  0.47000000000E+01 0. -1.
<mgrwt>
<rscale>  0 0.14063820E+03</rscale>
<asrwt>0</asrwt>
<pdfrwt beam="1">  1        2 0.61715378E-01 0.14719862E+03</pdfrwt>
<pdfrwt beam="2">  1       -2 0.76652574E-02 0.14719862E+03</pdfrwt>
<totfact> 0.77158033E+03</totfact>
</mgrwt>
</event>
<event>
 7    1  0.1050440E-008  0.1726440E+03  0.7546771E-02  0.1180743E+00
         -1   -1    0    0    0  501 -0.00000000000E+00  0.00000000000E+00  0.37061587942E+03  0.37061587942E+03  0.00000000000E+00 0.  1.
          1   -1    0    0  501    0  0.00000000000E+00 -0.00000000000E+00 -0.76271157724E+02  0.76271157724E+02  0.00000000000E+00 0. -1.
         25    2    1    2    0    0 -0.74142432669E+02 -0.44811061897E+02  0.19640978600E+03  0.24839977538E+03  0.12498204984E+03 0.  0.
          5    1    1    2  502    0  0.12626296758E+01  0.77927382950E+02  0.87734782470E+01  0.78570574439E+02  0.47000000000E+01 0. -1.
         -5    1    1    2    0  502  0.72879802993E+02 -0.33116321054E+02  0.89161457450E+02  0.11991668733E+03  0.47000000000E+01 0. -1.
          5    1    3    3  503    0 -0.53712823005E+02  0.24141281811E+02  0.28323182035E+02  0.65514589851E+02  0.47000000000E+01 0.  1.
         -5    1    3    3    0  503 -0.20429609664E+02 -0.68952343708E+02  0.16808660397E+03  0.18288518553E+03  0.47000000000E+01 0.  1.
<mgrwt>
<rscale>  0 0.16725353E+03</rscale>
<asrwt>0</asrwt>
<pdfrwt beam="1">  1        1 0.11734025E-01 0.17264397E+03</pdfrwt>
<pdfrwt beam="2">  1       -1 0.57017826E-01 0.17264397E+03</pdfrwt>
<totfact> 0.16329679E+03</totfact>
</mgrwt>
</event>
<event>
 7    1  0.1050440E-008  0.1274057E+03  0.7546771E-02  0.1256108E+00
          2   -1    0    0  501    0  0.00000000000E+00  0.00000000000E+00  0.11306532217E+03  0.11306532217E+03  0.00000000000E+00 0. -1.
         -2   -1    0    0    0  501 -0.00000000000E+00 -0.00000000000E+00 -0.10584891181E+03  0.10584891181E+03  0.00000000000E+00 0.  1.
         25    2    1    2    0    0  0.15294005560E+02 -0.19440189250E+02 -0.33232244686E+02  0.13166851772E+03  0.12498155426E+03 0.  0.
          5    1    3    3  502    0 -0.24734956533E+02  0.32776223122E+02 -0.48743863936E+02  0.63907379451E+02  0.47000000000E+01 0. -1.
         -5    1    3    3    0  502  0.40028962093E+02 -0.52216412372E+02  0.15511619250E+02  0.67761138265E+02  0.47000000000E+01 0. -1.
          5    1    1    2  503    0 -0.91697231449E+01 -0.26998762409E+02  0.23376543639E+02  0.37169473855E+02  0.47000000000E+01 0. -1.
         -5    1    1    2    0  503 -0.61242824147E+01  0.46438951659E+02  0.17072111401E+02  0.50076242410E+02  0.47000000000E+01 0.  1.
<mgrwt>
<rscale>  0 0.11244508E+03</rscale>
<asrwt>0</asrwt>
<pdfrwt beam="1">  1        2 0.17394665E-01 0.12740572E+03</pdfrwt>
<pdfrwt beam="2">  1       -2 0.16284448E-01 0.12740572E+03</pdfrwt>
<totfact> 0.91350987E+03</totfact>
</mgrwt>
</event>
<event>
 7    1  0.1050440E-008  0.1572351E+03  0.7546771E-02  0.1192240E+00
          2   -1    0    0  501    0  0.00000000000E+00  0.00000000000E+00  0.51510832055E+03  0.51510832055E+03  0.00000000000E+00 0. -1.
         -2   -1    0    0    0  501 -0.00000000000E+00 -0.00000000000E+00 -0.64463590950E+02  0.64463590950E+02  0.00000000000E+00 0.  1.
         25    2    1    2    0    0 -0.92141814471E+02 -0.24653054141E+02  0.77770583755E+02  0.17541708886E+03  0.12500001726E+03 0.  0.
          5    1    1    2  502    0  0.10368996209E+03 -0.61695535776E+01  0.17542396083E+03  0.20392480885E+03  0.47000000000E+01 0. -1.
         -5    1    3    3    0  503  0.29080508628E+02  0.35565195775E+01  0.22438802987E+01  0.29756508740E+02  0.47000000000E+01 0.  1.
          5    1    3    3  503    0 -0.12122232310E+03 -0.28209573719E+02  0.75526703457E+02  0.14566058012E+03  0.47000000000E+01 0.  1.
         -5    1    1    2    0  502 -0.11548147621E+02  0.30822607719E+02  0.19745018502E+03  0.20023001379E+03  0.47000000000E+01 0.  1.
<mgrwt>
<rscale>  0 0.15690125E+03</rscale>
<asrwt>0</asrwt>
<pdfrwt beam="1">  1        2 0.79247431E-01 0.15723515E+03</pdfrwt>
<pdfrwt beam="2">  1       -2 0.99174759E-02 0.15723515E+03</pdfrwt>
<totfact> 0.39473497E+03</totfact>
</mgrwt>
</event>
<event>
 7    1  0.1050440E-008  0.4097990E+03  0.7546771E-02  0.1040438E+00
          1   -1    0    0  501    0  0.00000000000E+00  0.00000000000E+00  0.36783875031E+03  0.36783875031E+03  0.00000000000E+00 0. -1.
         -1   -1    0    0    0  501 -0.00000000000E+00 -0.00000000000E+00 -0.11413644083E+03  0.11413644083E+03  0.00000000000E+00 0.  1.
         25    2    1    2    0    0 -0.27891909481E+02 -0.90361823632E+02 -0.31806982328E+01  0.15678373283E+03  0.12501121652E+03 0.  0.
          5    1    1    2  502    0 -0.30370752290E+01  0.13608085986E+03  0.21963595120E+03  0.25843619194E+03  0.47000000000E+01 0. -1.
         -5    1    3    3    0  503  0.28464360219E+02 -0.13709608033E+02 -0.42978579440E+02  0.53548309458E+02  0.47000000000E+01 0. -1.
          5    1    3    3  503    0 -0.56356269699E+02 -0.76652215599E+02  0.39797881208E+02  0.10323542337E+03  0.47000000000E+01 0. -1.
         -5    1    1    2    0  502  0.30928984710E+02 -0.45719036232E+02  0.37247056517E+02  0.66755266371E+02  0.47000000000E+01 0.  1.
<mgrwt>
<rscale>  0 0.40979900E+03</rscale>
<asrwt>0</asrwt>
<pdfrwt beam="1">  1        1 0.56590577E-01 0.40979900E+03</pdfrwt>
<pdfrwt beam="2">  1       -1 0.17559453E-01 0.40979900E+03</pdfrwt>
<totfact> 0.16914388E+03</totfact>
</mgrwt>
</event>
<event>
 7    1  0.1050440E-008  0.1383540E+03  0.7546771E-02  0.1230839E+00
          2   -1    0    0  501    0  0.00000000000E+00  0.00000000000E+00  0.19272321828E+03  0.19272321828E+03  0.00000000000E+00 0.  1.
         -2   -1    0    0    0  501 -0.00000000000E+00 -0.00000000000E+00 -0.75095258030E+02  0.75095258030E+02  0.00000000000E+00 0. -1.
         25    2    1    2    0    0  0.50672720836E+02 -0.30825473460E+02  0.52325545351E+02  0.14791824007E+03  0.12499563432E+03 0.  0.
          5    1    3    3  502    0  0.39781783201E+02  0.31181940999E+02  0.66057593544E+02  0.83310259776E+02  0.47000000000E+01 0. -1.
         -5    1    1    2    0  503 -0.48890281069E+01  0.48439924521E+02  0.45458792462E+02  0.66775150285E+02  0.47000000000E+01 0.  1.
          5    1    1    2  503    0 -0.45783692729E+02 -0.17614451061E+02  0.19843622436E+02  0.53125085952E+02  0.47000000000E+01 0. -1.
         -5    1    3    3    0  502  0.10890937634E+02 -0.62007414458E+02 -0.13732048193E+02  0.64607980296E+02  0.47000000000E+01 0. -1.
<mgrwt>
<rscale>  0 0.12774583E+03</rscale>
<asrwt>0</asrwt>
<pdfrwt beam="1">  1        2 0.29649726E-01 0.13835405E+03</pdfrwt>
<pdfrwt beam="2">  1       -2 0.11553117E-01 0.13835405E+03</pdfrwt>
<totfact> 0.88421699E+03</totfact>
</mgrwt>
</event>
<event>
 7    1  0.1050440E-008  0.1764803E+04  0.7546771E-02  0.8725244E-01
          2   -1    0    0  501    0  0.00000000000E+00  0.00000000000E+00  0.91147413730E+03  0.91147413730E+03  0.00000000000E+00 0. -1.
         -2   -1    0    0    0  501 -0.00000000000E+00 -0.00000000000E+00 -0.85425641099E+03  0.85425641099E+03  0.00000000000E+00 0.  1.
         25    2    1    2    0    0  0.41712164024E+03  0.12482457586E+02 -0.33124301553E+03  0.54726040857E+03  0.12500297974E+03 0.  0.
          5    1    1    2  502    0 -0.52172865556E+03 -0.18513537050E+03  0.67181011035E+03  0.87053248636E+03  0.47000000000E+01 0. -1.
         -5    1    1    2    0  502  0.10460701531E+03  0.17265291291E+03 -0.28334936851E+03  0.34793765335E+03  0.47000000000E+01 0.  1.
          5    1    3    3  503    0  0.10613570575E+03 -0.13275019523E+02 -0.24851818588E+02  0.10991231535E+03  0.47000000000E+01 0. -1.
         -5    1    3    3    0  503  0.31098593450E+03  0.25757477109E+02 -0.30639119694E+03  0.43734809322E+03  0.47000000000E+01 0. -1.
<mgrwt>
<rscale>  0 0.17648032E+04</rscale>
<asrwt>0</asrwt>
<pdfrwt beam="1">  1        2 0.14022679E+00 0.17648032E+04</pdfrwt>
<pdfrwt beam="2">  1       -2 0.13142406E+00 0.17648032E+04</pdfrwt>
<totfact> 0.11518590E+01</totfact>
</mgrwt>
</event>
<event>
 7    1  0.1050440E-008  0.1436501E+03  0.7546771E-02  0.1240970E+00
         -2   -1    0    0    0  501 -0.00000000000E+00  0.00000000000E+00  0.14525157605E+03  0.14525157605E+03  0.00000000000E+00 0.  1.
          2   -1    0    0  501    0  0.00000000000E+00 -0.00000000000E+00 -0.81365347026E+02  0.81365347026E+02  0.00000000000E+00 0. -1.
         25    2    1    2    0    0  0.65878600918E+02  0.25902079717E+02  0.51140018051E+02  0.15248162274E+03  0.12499774412E+03 0.  0.
          5    1    3    3  502    0  0.80551676588E+02  0.45059186780E+02 -0.35862556702E+01  0.92487048521E+02  0.47000000000E+01 0.  1.
         -5    1    1    2    0  503 -0.46652305902E+02 -0.12776847998E+02  0.13281632455E+02  0.50380326035E+02  0.47000000000E+01 0.  1.
          5    1    1    2  503    0 -0.19226295016E+02 -0.13125231719E+02 -0.53542148358E+00  0.23754974298E+02  0.47000000000E+01 0. -1.
         -5    1    3    3    0  502 -0.14673075670E+02 -0.19157107063E+02  0.54726273721E+02  0.59994574222E+02  0.47000000000E+01 0.  1.
<mgrwt>
<rscale>  0 0.12129886E+03</rscale>
<asrwt>0</asrwt>
<pdfrwt beam="1">  1        2 0.12517746E-01 0.14365007E+03</pdfrwt>
<pdfrwt beam="2">  1       -2 0.22346396E-01 0.14365007E+03</pdfrwt>
<totfact> 0.79658224E+03</totfact>
</mgrwt>
</event>
<event>
 7    1  0.1050440E-008  0.4737705E+03  0.7546771E-02  0.1020861E+00
          2   -1    0    0  501    0  0.00000000000E+00  0.00000000000E+00  0.10010081449E+04  0.10010081449E+04  0.00000000000E+00 0. -1.
         -2   -1    0    0    0  501 -0.00000000000E+00 -0.00000000000E+00 -0.56058096951E+02  0.56058096951E+02  0.00000000000E+00 0.  1.
         25    2    1    2    0    0 -0.41532296283E+02  0.26331933248E+02  0.14903722119E+03  0.20063747025E+03  0.12499999531E+03 0.  0.
          5    1    3    3  502    0 -0.20877048272E+02 -0.41026053457E+02  0.14151001793E+02  0.48387281992E+02  0.47000000000E+01 0.  1.
         -5    1    3    3    0  502 -0.20655248011E+02  0.67357986706E+02  0.13488621939E+03  0.15225018826E+03  0.47000000000E+01 0.  1.
          5    1    1    2  503    0  0.15058836742E+03 -0.86032610149E+02  0.59798513417E+03  0.62264498480E+03  0.47000000000E+01 0. -1.
         -5    1    1    2    0  503 -0.10905607113E+03  0.59700676901E+02  0.19792769260E+03  0.23378378680E+03  0.47000000000E+01 0.  1.
<mgrwt>
<rscale>  0 0.47377046E+03</rscale>
<asrwt>0</asrwt>
<pdfrwt beam="1">  1        2 0.15400124E+00 0.47377046E+03</pdfrwt>
<pdfrwt beam="2">  1       -2 0.86243234E-02 0.47377046E+03</pdfrwt>
<totfact> 0.22045711E+03</totfact>
</mgrwt>
</event>
<event>
 7    1  0.1050440E-008  0.1855135E+03  0.7546771E-02  0.1172016E+00
         -1   -1    0    0    0  501 -0.00000000000E+00  0.00000000000E+00  0.10544195168E+03  0.10544195168E+03  0.00000000000E+00 0.  1.
          1   -1    0    0  501    0  0.00000000000E+00 -0.00000000000E+00 -0.30010469905E+03  0.30010469905E+03  0.00000000000E+00 0. -1.
         25    2    1    2    0    0 -0.11171139189E+03 -0.79423717616E+02 -0.17483808079E+03  0.25491885318E+03  0.12501082038E+03 0.  0.
          5    1    1    2  502    0  0.56119119708E+01  0.29392865658E+02 -0.13203619664E+02  0.33043300074E+02  0.47000000000E+01 0. -1.
         -5    1    3    3    0  503 -0.28465740166E+02 -0.92419823039E+02 -0.65888109219E+02  0.11711129318E+03  0.47000000000E+01 0. -1.
          5    1    3    3  503    0 -0.83245651722E+02  0.12996105423E+02 -0.10894997157E+03  0.13780756000E+03  0.47000000000E+01 0. -1.
         -5    1    1    2    0  502  0.10609947992E+03  0.50030851957E+02 -0.66210469142E+01  0.11758449748E+03  0.47000000000E+01 0.  1.
<mgrwt>
<rscale>  0 0.17571521E+03</rscale>
<asrwt>0</asrwt>
<pdfrwt beam="1">  1        1 0.46169954E-01 0.18551352E+03</pdfrwt>
<pdfrwt beam="2">  1       -1 0.16221839E-01 0.18551352E+03</pdfrwt>
<totfact> 0.24449716E+03</totfact>
</mgrwt>
</event>
<event>
 7    1  0.1050440E-008  0.2448079E+03  0.7546771E-02  0.1122919E+00
         -1   -1    0    0    0  501 -0.00000000000E+00  0.00000000000E+00  0.75474381813E+03  0.75474381813E+03  0.00000000000E+00 0.  1.
          1   -1    0    0  501    0  0.00000000000E+00 -0.00000000000E+00 -0.79200160274E+02  0.79200160274E+02  0.00000000000E+00 0. -1.
         25    2    1    2    0    0  0.30326014352E+02  0.16493975799E+03  0.16039625576E+03  0.26358643044E+03  0.12500422608E+03 0.  0.
          5    1    1    2  502    0 -0.10042888214E+03 -0.72051601849E+02  0.32031922936E+03  0.34337136223E+03  0.47000000000E+01 0. -1.
         -5    1    3    3    0  503  0.75810422564E+02  0.82690134829E+02  0.65737757535E+02  0.13010926690E+03  0.47000000000E+01 0.  1.
          5    1    3    3  503    0 -0.45484408212E+02  0.82249623163E+02  0.94658498221E+02  0.13347716354E+03  0.47000000000E+01 0.  1.
         -5    1    1    2    0  502  0.70102867791E+02 -0.92888156143E+02  0.19482817273E+03  0.22698618574E+03  0.47000000000E+01 0.  1.
<mgrwt>
<rscale>  0 0.23536524E+03</rscale>
<asrwt>0</asrwt>
<pdfrwt beam="1">  1        1 0.12184641E-01 0.24480786E+03</pdfrwt>
<pdfrwt beam="2">  1       -1 0.11611443E+00 0.24480786E+03</pdfrwt>
<totfact> 0.35242792E+02</totfact>
</mgrwt>
</event>
<event>
 7    1  0.1050440E-008  0.2532845E+03  0.7546771E-02  0.1131213E+00
          2   -1    0    0  501    0  0.00000000000E+00  0.00000000000E+00  0.66427345891E+03  0.66427345891E+03  0.00000000000E+00 0. -1.
         -2   -1    0    0    0  501 -0.00000000000E+00 -0.00000000000E+00 -0.65522688233E+02  0.65522688233E+02  0.00000000000E+00 0.  1.
         25    2    1    2    0    0  0.77266053156E+02  0.45719156256E+02  0.30719857943E+03  0.34358933630E+03  0.12498952194E+03 0.  0.
          5    1    3    3  502    0  0.64122566907E+02  0.22095236642E+02  0.48675157803E+02  0.83613779105E+02  0.47000000000E+01 0.  1.
         -5    1    1    2    0  503  0.38055206765E+02 -0.81046036610E+02  0.23767852533E+03  0.25402722338E+03  0.47000000000E+01 0.  1.
          5    1    1    2  503    0 -0.11532125992E+03  0.35326880354E+02  0.53873665922E+02  0.13217958748E+03  0.47000000000E+01 0. -1.
         -5    1    3    3    0  502  0.13143486249E+02  0.23623919613E+02  0.25852342162E+03  0.25997555719E+03  0.47000000000E+01 0.  1.
<mgrwt>
<rscale>  0 0.22361979E+03</rscale>
<asrwt>0</asrwt>
<pdfrwt beam="1">  1        2 0.10219591E+00 0.25328447E+03</pdfrwt>
<pdfrwt beam="2">  1       -2 0.10080414E-01 0.25328447E+03</pdfrwt>
<totfact> 0.29161150E+03</totfact>
</mgrwt>
</event>
<event>
 7    1  0.1050440E-008  0.1305534E+03  0.7546771E-02  0.1244477E+00
          1   -1    0    0  501    0  0.00000000000E+00  0.00000000000E+00  0.29843434100E+03  0.29843434100E+03  0.00000000000E+00 0. -1.
         -1   -1    0    0    0  501 -0.00000000000E+00 -0.00000000000E+00 -0.57712816592E+02  0.57712816592E+02  0.00000000000E+00 0.  1.
         25    2    1    2    0    0  0.30795244000E+02  0.21716450710E+02  0.23055232154E+03  0.26495011333E+03  0.12499695317E+03 0.  0.
          5    1    3    3  502    0  0.79447157587E+02  0.97139157459E+01  0.13818945157E+03  0.15976428116E+03  0.47000000000E+01 0. -1.
         -5    1    3    3    0  502 -0.48651913587E+02  0.12002534964E+02  0.92362869965E+02  0.10518583217E+03  0.47000000000E+01 0. -1.
          5    1    1    2  503    0 -0.20498393464E+02  0.22015854035E+02  0.29193728204E+02  0.42181106315E+02  0.47000000000E+01 0. -1.
         -5    1    1    2    0  503 -0.10296850535E+02 -0.43732304745E+02 -0.19024525331E+02  0.49015937952E+02  0.47000000000E+01 0.  1.
<mgrwt>
<rscale>  0 0.11916730E+03</rscale>
<asrwt>0</asrwt>
<pdfrwt beam="1">  1        1 0.45912974E-01 0.13055340E+03</pdfrwt>
<pdfrwt beam="2">  1       -1 0.88788951E-02 0.13055340E+03</pdfrwt>
<totfact> 0.61587476E+03</totfact>
</mgrwt>
</event>
<event>
 7    1  0.1050440E-008  0.4432558E+03  0.7546771E-02  0.1029753E+00
         -1   -1    0    0    0  501 -0.00000000000E+00  0.00000000000E+00  0.32524497990E+02  0.32524497990E+02  0.00000000000E+00 0.  1.
          1   -1    0    0  501    0  0.00000000000E+00 -0.00000000000E+00 -0.15102135108E+04  0.15102135108E+04  0.00000000000E+00 0. -1.
         25    2    1    2    0    0 -0.12484220839E+03  0.16930775436E+02 -0.11038527158E+04  0.11180289496E+04  0.12500274281E+03 0.  0.
          5    1    3    3  502    0 -0.26914541797E+02 -0.48130931420E+02 -0.47969383922E+03  0.48287601774E+03  0.47000000000E+01 0. -1.
         -5    1    3    3    0  502 -0.97927666592E+02  0.65061706856E+02 -0.62415887663E+03  0.63515293186E+03  0.47000000000E+01 0. -1.
          5    1    1    2  503    0 -0.37685800110E+02 -0.59307257985E+01 -0.65101529993E+02  0.75602197362E+02  0.47000000000E+01 0. -1.
         -5    1    1    2    0  503  0.16252800850E+03 -0.11000049637E+02 -0.30873476696E+03  0.34910686182E+03  0.47000000000E+01 0.  1.
<mgrwt>
<rscale>  0 0.44325585E+03</rscale>
<asrwt>0</asrwt>
<pdfrwt beam="1">  1        1 0.23234058E+00 0.44325585E+03</pdfrwt>
<pdfrwt beam="2">  1       -1 0.50037680E-02 0.44325585E+03</pdfrwt>
<totfact> 0.12289705E+03</totfact>
</mgrwt>
</event>
<event>
 7    1  0.1050440E-008  0.1546967E+03  0.7546771E-02  0.1196510E+00
         -1   -1    0    0    0  501 -0.00000000000E+00  0.00000000000E+00  0.74012502164E+03  0.74012502164E+03  0.00000000000E+00 0.  1.
          1   -1    0    0  501    0  0.00000000000E+00 -0.00000000000E+00 -0.77295418837E+02  0.77295418837E+02  0.00000000000E+00 0. -1.
         25    2    1    2    0    0 -0.88578631232E+02 -0.21407926900E+02  0.64959649798E+03  0.66776243455E+03  0.12500634209E+03 0.  0.
          5    1    3    3  502    0 -0.43248394642E+02  0.17968287199E+02  0.65986937904E+02  0.81053371046E+02  0.47000000000E+01 0. -1.
         -5    1    3    3    0  502 -0.45330236590E+02 -0.39376214100E+02  0.58360956007E+03  0.58670906350E+03  0.47000000000E+01 0. -1.
          5    1    1    2  503    0  0.10357086464E+03 -0.19159134630E+02  0.12265134046E+02  0.10614386442E+03  0.47000000000E+01 0. -1.
         -5    1    1    2    0  503 -0.14992233406E+02  0.40567061530E+02  0.96797078175E+00  0.43514141508E+02  0.47000000000E+01 0.  1.
<mgrwt>
<rscale>  0 0.15327086E+03</rscale>
<asrwt>0</asrwt>
<pdfrwt beam="1">  1        1 0.11891603E-01 0.15469667E+03</pdfrwt>
<pdfrwt beam="2">  1       -1 0.11386538E+00 0.15469667E+03</pdfrwt>
<totfact> 0.38165464E+02</totfact>
</mgrwt>
</event>
<event>
 7    1  0.1050440E-008  0.1686251E+03  0.7546771E-02  0.1185825E+00
         -1   -1    0    0    0  501 -0.00000000000E+00  0.00000000000E+00  0.46729658095E+02  0.46729658095E+02  0.00000000000E+00 0.  1.
          1   -1    0    0  501    0  0.00000000000E+00 -0.00000000000E+00 -0.53679710407E+03  0.53679710407E+03  0.00000000000E+00 0. -1.
         25    2    1    2    0    0  0.10904383953E+03  0.30303861221E+02 -0.22648935406E+03  0.28236828184E+03  0.12500214457E+03 0.  0.
          5    1    1    2  502    0 -0.19529442665E+02 -0.20354071080E+02 -0.16535860615E+03  0.16781312811E+03  0.47000000000E+01 0. -1.
         -5    1    3    3    0  503  0.78173896547E+02  0.39804597030E+02 -0.23306611659E+03  0.24907321965E+03  0.47000000000E+01 0. -1.
          5    1    3    3  503    0  0.30869942984E+02 -0.95007358090E+01  0.65767625364E+01  0.33295062189E+02  0.47000000000E+01 0. -1.
         -5    1    1    2    0  502 -0.89514396865E+02 -0.99497901407E+01 -0.98219485775E+02  0.13334535221E+03  0.47000000000E+01 0.  1.
<mgrwt>
<rscale>  0 0.16257080E+03</rscale>
<asrwt>0</asrwt>
<pdfrwt beam="1">  1        1 0.82584168E-01 0.16862508E+03</pdfrwt>
<pdfrwt beam="2">  1       -1 0.71891784E-02 0.16862508E+03</pdfrwt>
<totfact> 0.40710811E+03</totfact>
</mgrwt>
</event>
<event>
 7    1  0.1050440E-008  0.2594719E+03  0.7546771E-02  0.1115471E+00
          2   -1    0    0  501    0  0.00000000000E+00  0.00000000000E+00  0.12415867859E+04  0.12415867859E+04  0.00000000000E+00 0. -1.
         -2   -1    0    0    0  501 -0.00000000000E+00 -0.00000000000E+00 -0.57215109565E+02  0.57215109565E+02  0.00000000000E+00 0.  1.
         25    2    1    2    0    0  0.79058738368E+02  0.15145957494E+03  0.24278584523E+03  0.32211896123E+03  0.12500148632E+03 0.  0.
          5    1    3    3  502    0  0.62957456514E+02  0.13365412748E+03  0.25502528431E+03  0.29476609839E+03  0.47000000000E+01 0.  1.
         -5    1    1    2    0  503 -0.85998710579E+02  0.15093205536E+02  0.23656383874E+03  0.25220650839E+03  0.47000000000E+01 0.  1.
          5    1    1    2  503    0  0.69399722107E+01 -0.16655278048E+03  0.70502199241E+03  0.72447642590E+03  0.47000000000E+01 0. -1.
         -5    1    3    3    0  502  0.16101281854E+02  0.17805447459E+02 -0.12239439074E+02  0.27352862838E+02  0.47000000000E+01 0.  1.
<mgrwt>
<rscale>  0 0.24660194E+03</rscale>
<asrwt>0</asrwt>
<pdfrwt beam="1">  1        2 0.19101333E+00 0.25947192E+03</pdfrwt>
<pdfrwt beam="2">  1       -2 0.88023254E-02 0.25947192E+03</pdfrwt>
<totfact> 0.15397594E+03</totfact>
</mgrwt>
</event>
<event>
 7    1  0.1050440E-008  0.1288029E+03  0.7546771E-02  0.1248223E+00
          2   -1    0    0  501    0  0.00000000000E+00  0.00000000000E+00  0.69923300731E+02  0.69923300731E+02  0.00000000000E+00 0. -1.
         -2   -1    0    0    0  501 -0.00000000000E+00 -0.00000000000E+00 -0.16734867492E+03  0.16734867492E+03  0.00000000000E+00 0.  1.
         25    2    1    2    0    0 -0.15691228872E+02 -0.26824549228E+02 -0.59339653407E+02  0.14181460568E+03  0.12499766723E+03 0.  0.
          5    1    3    3  502    0  0.41655648756E+02  0.19338739533E+02 -0.49004741021E+02  0.67325586240E+02  0.47000000000E+01 0.  1.
         -5    1    1    2    0  503 -0.19966050369E+02  0.14028525014E+02 -0.49690799047E+02  0.55558151439E+02  0.47000000000E+01 0.  1.
          5    1    1    2  503    0  0.35657279241E+02  0.12796024214E+02  0.11605078260E+02  0.39899218538E+02  0.47000000000E+01 0. -1.
         -5    1    3    3    0  502 -0.57346877628E+02 -0.46163288761E+02 -0.10334912386E+02  0.74489019438E+02  0.47000000000E+01 0.  1.
<mgrwt>
<rscale>  0 0.11694565E+03</rscale>
<asrwt>0</asrwt>
<pdfrwt beam="1">  1        2 0.10757431E-01 0.12880290E+03</pdfrwt>
<pdfrwt beam="2">  1       -2 0.25745950E-01 0.12880290E+03</pdfrwt>
<totfact> 0.74168835E+03</totfact>
</mgrwt>
</event>
<event>
 7    1  0.1050440E-008  0.1226113E+04  0.7546771E-02  0.9090302E-01
         -2   -1    0    0    0  501 -0.00000000000E+00  0.00000000000E+00  0.16325562200E+03  0.16325562200E+03  0.00000000000E+00 0.  1.
          2   -1    0    0  501    0  0.00000000000E+00 -0.00000000000E+00 -0.23021464576E+04  0.23021464576E+04  0.00000000000E+00 0. -1.
         25    2    1    2    0    0  0.12873845865E+03 -0.34960861862E+03 -0.28626739446E+03  0.48618325002E+03  0.12500141808E+03 0.  0.
          5    1    3    3  502    0  0.15207786867E+03 -0.32332577404E+03 -0.25621369469E+03  0.43969851221E+03  0.47000000000E+01 0.  1.
         -5    1    3    3    0  502 -0.23339410019E+02 -0.26282844586E+02 -0.30053699768E+02  0.46484737811E+02  0.47000000000E+01 0.  1.
          5    1    1    2  503    0 -0.77897968416E+02  0.30390253061E+03 -0.18795742905E+04  0.19055829673E+04  0.47000000000E+01 0. -1.
         -5    1    1    2    0  503 -0.50840490235E+02  0.45706088009E+02  0.26950849406E+02  0.73635862269E+02  0.47000000000E+01 0.  1.
<mgrwt>
<rscale>  0 0.12261131E+04</rscale>
<asrwt>0</asrwt>
<pdfrwt beam="1">  1        2 0.35417636E+00 0.12261131E+04</pdfrwt>
<pdfrwt beam="2">  1       -2 0.25116251E-01 0.12261131E+04</pdfrwt>
<totfact> 0.63586015E+01</totfact>
</mgrwt>
</event>
<event>
 7    1  0.1050440E-008  0.2327672E+03  0.7546771E-02  0.1142341E+00
          2   -1    0    0  501    0  0.00000000000E+00  0.00000000000E+00  0.42021070898E+03  0.42021070898E+03  0.00000000000E+00 0. -1.
         -2   -1    0    0    0  501 -0.00000000000E+00 -0.00000000000E+00 -0.89370222704E+02  0.89370222704E+02  0.00000000000E+00 0.  1.
         25    2    1    2    0    0 -0.20548193645E+00 -0.85360920002E+02  0.16413308942E+03  0.22327351720E+03  0.12499945420E+03 0.  0.
          5    1    3    3  502    0 -0.60274843071E+02 -0.23094022020E+02  0.69956008137E+02  0.95301225778E+02  0.47000000000E+01 0.  1.
         -5    1    1    2    0  503  0.98357409537E+02  0.64979534176E+02  0.13875672973E+03  0.18213192998E+03  0.47000000000E+01 0.  1.
          5    1    1    2  503    0 -0.98151927601E+02  0.20381385827E+02  0.27950667126E+02  0.10417548451E+03  0.47000000000E+01 0. -1.
         -5    1    3    3    0  502  0.60069361135E+02 -0.62266897982E+02  0.94177081288E+02  0.12797229142E+03  0.47000000000E+01 0.  1.
<mgrwt>
<rscale>  0 0.20902479E+03</rscale>
<asrwt>0</asrwt>
<pdfrwt beam="1">  1        2 0.64647800E-01 0.23276722E+03</pdfrwt>
<pdfrwt beam="2">  1       -2 0.13749265E-01 0.23276722E+03</pdfrwt>
<totfact> 0.29651570E+03</totfact>
</mgrwt>
</event>
<event>
 7    1  0.1050440E-008  0.1002163E+04  0.7546771E-02  0.9306175E-01
          2   -1    0    0  501    0  0.00000000000E+00  0.00000000000E+00  0.59340574021E+03  0.59340574021E+03  0.00000000000E+00 0. -1.
         -2   -1    0    0    0  501 -0.00000000000E+00 -0.00000000000E+00 -0.42312156821E+03  0.42312156821E+03  0.00000000000E+00 0.  1.
         25    2    1    2    0    0 -0.12773483910E+03 -0.35370289228E+03  0.32037863838E+03  0.50959475167E+03  0.12498965508E+03 0.  0.
          5    1    3    3  502    0 -0.10200454577E+03 -0.34243285360E+03  0.25713390032E+03  0.44023302838E+03  0.47000000000E+01 0.  1.
         -5    1    3    3    0  502 -0.25730293323E+02 -0.11270038680E+02  0.63244738055E+02  0.69361723292E+02  0.47000000000E+01 0.  1.
          5    1    1    2  503    0  0.51151166728E+02  0.32290472957E+03 -0.22375774730E+03  0.39619884618E+03  0.47000000000E+01 0. -1.
         -5    1    1    2    0  503  0.76583672367E+02  0.30798162710E+02  0.73663280920E+02  0.11073371056E+03  0.47000000000E+01 0.  1.
<mgrwt>
<rscale>  0 0.10021632E+04</rscale>
<asrwt>0</asrwt>
<pdfrwt beam="1">  1        2 0.91293191E-01 0.10021632E+04</pdfrwt>
<pdfrwt beam="2">  1       -2 0.65095626E-01 0.10021632E+04</pdfrwt>
<totfact> 0.10927723E+02</totfact>
</mgrwt>
</event>
<event>
 7    1  0.1050440E-008  0.1495831E+03  0.7546771E-02  0.1219862E+00
         -2   -1    0    0    0  501 -0.00000000000E+00  0.00000000000E+00  0.34450575477E+02  0.34450575477E+02  0.00000000000E+00 0.  1.
          2   -1    0    0  501    0  0.00000000000E+00 -0.00000000000E+00 -0.57224324637E+03  0.57224324637E+03  0.00000000000E+00 0. -1.
         25    2    1    2    0    0  0.52359048032E+02  0.63251400411E+02 -0.17423278474E+03  0.22963482926E+03  0.12503152389E+03 0.  0.
          5    1    1    2  502    0 -0.21310917976E+02 -0.62728486266E+02 -0.28060829894E+03  0.28836110287E+03  0.47000000000E+01 0. -1.
         -5    1    1    2    0  502 -0.31048130056E+02 -0.52291414524E+00 -0.82951587216E+02  0.88697889720E+02  0.47000000000E+01 0.  1.
          5    1    3    3  503    0  0.70949171936E+02  0.47551087168E+02 -0.18406716174E+03  0.20297216785E+03  0.47000000000E+01 0.  1.
         -5    1    3    3    0  503 -0.18590123904E+02  0.15700313242E+02  0.98343770006E+01  0.26662661414E+02  0.47000000000E+01 0.  1.
<mgrwt>
<rscale>  0 0.13525374E+03</rscale>
<asrwt>0</asrwt>
<pdfrwt beam="1">  1        2 0.88037418E-01 0.14958306E+03</pdfrwt>
<pdfrwt beam="2">  1       -2 0.53000888E-02 0.14958306E+03</pdfrwt>
<totfact> 0.91849469E+03</totfact>
</mgrwt>
</event>
<event>
 7    1  0.1050440E-008  0.1795731E+03  0.7546771E-02  0.1175122E+00
         -1   -1    0    0    0  501 -0.00000000000E+00  0.00000000000E+00  0.10816373615E+03  0.10816373615E+03  0.00000000000E+00 0.  1.
          1   -1    0    0  501    0  0.00000000000E+00 -0.00000000000E+00 -0.25787871546E+03  0.25787871546E+03  0.00000000000E+00 0. -1.
         25    2    1    2    0    0 -0.79600322943E+02 -0.39753824681E+02 -0.83418067709E+02  0.17462199441E+03  0.12497075226E+03 0.  0.
          5    1    3    3  502    0 -0.24007460434E+02 -0.36619953492E+02  0.26441682990E+02  0.51367613820E+02  0.47000000000E+01 0. -1.
         -5    1    3    3    0  502 -0.55592862509E+02 -0.31338711888E+01 -0.10985975070E+03  0.12325438059E+03  0.47000000000E+01 0. -1.
          5    1    1    2  503    0  0.37394124630E+02  0.88243145469E+02  0.40102577470E+01  0.96038249913E+02  0.47000000000E+01 0. -1.
         -5    1    1    2    0  503  0.42206198313E+02 -0.48489320788E+02 -0.70307169344E+02  0.95382207291E+02  0.47000000000E+01 0.  1.
<mgrwt>
<rscale>  0 0.17264087E+03</rscale>
<asrwt>0</asrwt>
<pdfrwt beam="1">  1        1 0.39673648E-01 0.17957314E+03</pdfrwt>
<pdfrwt beam="2">  1       -1 0.16640575E-01 0.17957314E+03</pdfrwt>
<totfact> 0.28334208E+03</totfact>
</mgrwt>
</event>
<event>
 7    1  0.1050440E-008  0.1304207E+03  0.7546771E-02  0.1236137E+00
         -1   -1    0    0    0  501 -0.00000000000E+00  0.00000000000E+00  0.23380819694E+02  0.23380819694E+02  0.00000000000E+00 0.  1.
          1   -1    0    0  501    0  0.00000000000E+00 -0.00000000000E+00 -0.72336241700E+03  0.72336241700E+03  0.00000000000E+00 0. -1.
         25    2    1    2    0    0  0.32402948146E+02  0.18486758799E+02 -0.22829050902E+03  0.26291844096E+03  0.12497135187E+03 0.  0.
          5    1    3    3  502    0  0.53225497404E+02 -0.27745525112E+02 -0.52436971004E+02  0.79840426262E+02  0.47000000000E+01 0. -1.
         -5    1    1    2    0  503 -0.31301452684E+02  0.38614561060E+02 -0.24156993368E+03  0.24667587666E+03  0.47000000000E+01 0.  1.
          5    1    1    2  503    0 -0.11014954613E+01 -0.57101319858E+02 -0.23012115461E+03  0.23714891908E+03  0.47000000000E+01 0. -1.
         -5    1    3    3    0  502 -0.20822549258E+02  0.46232283911E+02 -0.17585353801E+03  0.18307801470E+03  0.47000000000E+01 0. -1.
<mgrwt>
<rscale>  0 0.12431935E+03</rscale>
<asrwt>0</asrwt>
<pdfrwt beam="1">  1        1 0.11128652E+00 0.13042067E+03</pdfrwt>
<pdfrwt beam="2">  1       -1 0.35970495E-02 0.13042067E+03</pdfrwt>
<totfact> 0.74359148E+03</totfact>
</mgrwt>
</event>
<event>
 7    1  0.1050440E-008  0.1604461E+03  0.7546771E-02  0.1204851E+00
         -1   -1    0    0    0  501 -0.00000000000E+00  0.00000000000E+00  0.70255824940E+02  0.70255824940E+02  0.00000000000E+00 0.  1.
          1   -1    0    0  501    0  0.00000000000E+00 -0.00000000000E+00 -0.33927823222E+03  0.33927823222E+03  0.00000000000E+00 0. -1.
         25    2    1    2    0    0  0.14193759247E+02  0.99577897448E+02 -0.57526888289E+02  0.17044731210E+03  0.12500289142E+03 0.  0.
          5    1    3    3  502    0 -0.26406683302E+02  0.10581802688E+03 -0.66926741764E+02  0.12804704799E+03  0.47000000000E+01 0.  1.
         -5    1    1    2    0  503 -0.26963850056E+02 -0.31773877071E+02 -0.89915064984E+02  0.99214098721E+02  0.47000000000E+01 0.  1.
          5    1    1    2  503    0  0.12770090809E+02 -0.67804020377E+02 -0.12158045401E+03  0.13987264634E+03  0.47000000000E+01 0. -1.
         -5    1    3    3    0  502  0.40600442549E+02 -0.62401294368E+01  0.93998534750E+01  0.42400264102E+02  0.47000000000E+01 0.  1.
<mgrwt>
<rscale>  0 0.14649236E+03</rscale>
<asrwt>0</asrwt>
<pdfrwt beam="1">  1        1 0.52196651E-01 0.16044608E+03</pdfrwt>
<pdfrwt beam="2">  1       -1 0.10808588E-01 0.16044608E+03</pdfrwt>
<totfact> 0.39331389E+03</totfact>
</mgrwt>
</event>
<event>
 7    1  0.1050440E-008  0.2730232E+03  0.7546771E-02  0.1125716E+00
         -2   -1    0    0    0  501 -0.00000000000E+00  0.00000000000E+00  0.34673614837E+03  0.34673614837E+03  0.00000000000E+00 0.  1.
          2   -1    0    0  501    0  0.00000000000E+00 -0.00000000000E+00 -0.17724833412E+03  0.17724833412E+03  0.00000000000E+00 0. -1.
         25    2    1    2    0    0 -0.65154831849E+01  0.64237519596E+02 -0.73293182658E+02  0.15862946749E+03  0.12499002715E+03 0.  0.
          5    1    3    3  502    0 -0.39908194070E+02  0.39721235812E+02  0.17142922322E+02  0.59045832318E+02  0.47000000000E+01 0. -1.
         -5    1    1    2    0  503  0.60059923203E+02  0.90762358080E+02  0.94147874417E+02  0.14398233321E+03  0.47000000000E+01 0.  1.
          5    1    1    2  503    0 -0.53544440018E+02 -0.15499987768E+03  0.14863312249E+03  0.22137268178E+03  0.47000000000E+01 0. -1.
         -5    1    3    3    0  502  0.33392710885E+02  0.24516283784E+02 -0.90436104980E+02  0.99583635175E+02  0.47000000000E+01 0. -1.
<mgrwt>
<rscale>  0 0.23131793E+03</rscale>
<asrwt>0</asrwt>
<pdfrwt beam="1">  1        2 0.27268975E-01 0.27302321E+03</pdfrwt>
<pdfrwt beam="2">  1       -2 0.53344023E-01 0.27302321E+03</pdfrwt>
<totfact> 0.65876797E+02</totfact>
</mgrwt>
</event>
<event>
 7    1  0.1050440E-008  0.1513462E+03  0.7546771E-02  0.1203651E+00
         -2   -1    0    0    0  501 -0.00000000000E+00  0.00000000000E+00  0.40565860648E+02  0.40565860648E+02  0.00000000000E+00 0. -1.
          2   -1    0    0  501    0  0.00000000000E+00 -0.00000000000E+00 -0.58740553719E+03  0.58740553719E+03  0.00000000000E+00 0.  1.
         25    2    1    2    0    0 -0.81610286561E+02  0.24902097688E+02 -0.17197278216E+03  0.22908582350E+03  0.12500129353E+03 0.  0.
          5    1    3    3  502    0 -0.33912756099E+02  0.74036398538E+02 -0.10724507858E+03  0.13474071477E+03  0.47000000000E+01 0. -1.
         -5    1    3    3    0  502 -0.47697530462E+02 -0.49134300850E+02 -0.64727703573E+02  0.94345108734E+02  0.47000000000E+01 0. -1.
          5    1    1    2  503    0 -0.17830527058E+02  0.19804879325E+02 -0.67615920356E+02  0.72829689178E+02  0.47000000000E+01 0. -1.
         -5    1    1    2    0  503  0.99440813619E+02 -0.44706977013E+02 -0.30725097403E+03  0.32605588517E+03  0.47000000000E+01 0.  1.
<mgrwt>
<rscale>  0 0.14744246E+03</rscale>
<asrwt>0</asrwt>
<pdfrwt beam="1">  1        2 0.90370083E-01 0.15134621E+03</pdfrwt>
<pdfrwt beam="2">  1       -2 0.62409016E-02 0.15134621E+03</pdfrwt>
<totfact> 0.69644661E+03</totfact>
</mgrwt>
</event>
<event>
 7    1  0.1050440E-008  0.2830046E+03  0.7546771E-02  0.1095231E+00
         -2   -1    0    0    0  501 -0.00000000000E+00  0.00000000000E+00  0.10884400074E+04  0.10884400074E+04  0.00000000000E+00 0.  1.
          2   -1    0    0  501    0  0.00000000000E+00 -0.00000000000E+00 -0.12384657399E+03  0.12384657399E+03  0.00000000000E+00 0. -1.
         25    2    1    2    0    0 -0.22950549930E+03  0.83789190522E+02  0.83509888312E+02  0.28686785835E+03  0.12500345616E+03 0.  0.
          5    1    3    3  502    0 -0.13470483366E+03  0.10773372725E+03  0.29465509908E+02  0.17504929155E+03  0.47000000000E+01 0.  1.
         -5    1    3    3    0  502 -0.94800665644E+02 -0.23944536723E+02  0.54044378404E+02  0.11181856681E+03  0.47000000000E+01 0.  1.
          5    1    1    2  503    0  0.20254387688E+03 -0.11947336682E+03  0.68536280219E+03  0.72459793546E+03  0.47000000000E+01 0. -1.
         -5    1    1    2    0  503  0.26961622418E+02  0.35684176296E+02  0.19572074291E+03  0.20082078758E+03  0.47000000000E+01 0.  1.
<mgrwt>
<rscale>  0 0.28083962E+03</rscale>
<asrwt>0</asrwt>
<pdfrwt beam="1">  1        2 0.19053320E-01 0.28300459E+03</pdfrwt>
<pdfrwt beam="2">  1       -2 0.16745230E+00 0.28300459E+03</pdfrwt>
<totfact> 0.69834106E+01</totfact>
</mgrwt>
</event>
<event>
 7    1  0.1050440E-008  0.1668609E+03  0.7546771E-02  0.1185124E+00
          1   -1    0    0  501    0  0.00000000000E+00  0.00000000000E+00  0.85532986473E+03  0.85532986473E+03  0.00000000000E+00 0. -1.
         -1   -1    0    0    0  501 -0.00000000000E+00 -0.00000000000E+00 -0.33995721343E+02  0.33995721343E+02  0.00000000000E+00 0.  1.
         25    2    1    2    0    0  0.72011219056E+02 -0.50117659083E+02  0.54983933392E+03  0.57065335132E+03  0.12499823526E+03 0.  0.
          5    1    1    2  502    0 -0.19181346576E+02 -0.46740771729E+02  0.50320349342E+02  0.71462237274E+02  0.47000000000E+01 0. -1.
         -5    1    3    3    0  503  0.57503788765E+02 -0.82031899125E+02  0.26013575530E+03  0.27879852830E+03  0.47000000000E+01 0. -1.
          5    1    3    3  503    0  0.14507430291E+02  0.31914240042E+02  0.28970357863E+03  0.29185482302E+03  0.47000000000E+01 0. -1.
         -5    1    1    2    0  502 -0.52829872480E+02  0.96858430812E+02  0.22117446012E+03  0.24720999749E+03  0.47000000000E+01 0.  1.
<mgrwt>
<rscale>  0 0.16320617E+03</rscale>
<asrwt>0</asrwt>
<pdfrwt beam="1">  1        1 0.13158919E+00 0.16686091E+03</pdfrwt>
<pdfrwt beam="2">  1       -1 0.52301116E-02 0.16686091E+03</pdfrwt>
<totfact> 0.33634562E+03</totfact>
</mgrwt>
</event>
<event>
 7    1  0.1050440E-008  0.1253696E+03  0.7546771E-02  0.1252133E+00
          1   -1    0    0  501    0  0.00000000000E+00  0.00000000000E+00  0.11988988894E+02  0.11988988894E+02  0.00000000000E+00 0. -1.
         -1   -1    0    0    0  501 -0.00000000000E+00 -0.00000000000E+00 -0.10476160955E+04  0.10476160955E+04  0.00000000000E+00 0.  1.
         25    2    1    2    0    0 -0.16698574654E-01 -0.96680087110E+01 -0.43888596316E+03  0.45644103462E+03  0.12499623497E+03 0.  0.
          5    1    3    3  502    0 -0.35825142818E+02 -0.38845180729E+02 -0.89946679740E+02  0.10442645316E+03  0.47000000000E+01 0.  1.
         -5    1    1    2    0  503  0.40490951112E+02  0.12732778938E+02 -0.21195203989E+03  0.21621146592E+03  0.47000000000E+01 0.  1.
          5    1    1    2  503    0 -0.40474252538E+02 -0.30647702270E+01 -0.38478910358E+03  0.38695258388E+03  0.47000000000E+01 0. -1.
         -5    1    3    3    0  502  0.35808444244E+02  0.29177172018E+02 -0.34893928342E+03  0.35201458146E+03  0.47000000000E+01 0.  1.
<mgrwt>
<rscale>  0 0.11468429E+03</rscale>
<asrwt>0</asrwt>
<pdfrwt beam="1">  1        1 0.18444590E-02 0.12536957E+03</pdfrwt>
<pdfrwt beam="2">  1       -1 0.16117178E+00 0.12536957E+03</pdfrwt>
<totfact> 0.20423095E+03</totfact>
</mgrwt>
</event>
<event>
 7    1  0.1050440E-008  0.1853125E+03  0.7546771E-02  0.1179102E+00
         -1   -1    0    0    0  501 -0.00000000000E+00  0.00000000000E+00  0.16545340342E+03  0.16545340342E+03  0.00000000000E+00 0.  1.
          1   -1    0    0  501    0  0.00000000000E+00 -0.00000000000E+00 -0.16490946526E+03  0.16490946526E+03  0.00000000000E+00 0. -1.
         25    2    1    2    0    0  0.14990216190E+02 -0.20719060765E+02 -0.51953167510E+02  0.13775787284E+03  0.12499645537E+03 0.  0.
          5    1    3    3  502    0  0.59499400822E+02 -0.40018742841E+02 -0.52532963658E+02  0.89013935692E+02  0.47000000000E+01 0.  1.
         -5    1    1    2    0  503  0.75578373645E+02  0.20968662923E+02  0.63797884251E+02  0.10121282242E+03  0.47000000000E+01 0.  1.
          5    1    1    2  503    0 -0.90568589835E+02 -0.24960215863E+00 -0.11300778587E+02  0.91392173421E+02  0.47000000000E+01 0. -1.
         -5    1    3    3    0  502 -0.44509184632E+02  0.19299682076E+02  0.57979614845E+00  0.48743937145E+02  0.47000000000E+01 0.  1.
<mgrwt>
<rscale>  0 0.16880258E+03</rscale>
<asrwt>0</asrwt>
<pdfrwt beam="1">  1        1 0.25370687E-01 0.18531254E+03</pdfrwt>
<pdfrwt beam="2">  1       -1 0.25454370E-01 0.18531254E+03</pdfrwt>
<totfact> 0.24929585E+03</totfact>
</mgrwt>
</event>
<event>
 7    1  0.1050440E-008  0.2403458E+03  0.7546771E-02  0.1135333E+00
         -1   -1    0    0    0  501 -0.00000000000E+00  0.00000000000E+00  0.52394028575E+03  0.52394028575E+03  0.00000000000E+00 0. -1.
          1   -1    0    0  501    0  0.00000000000E+00 -0.00000000000E+00 -0.98288455134E+02  0.98288455134E+02  0.00000000000E+00 0.  1.
         25    2    1    2    0    0  0.57375508061E+02  0.87232014480E+02  0.39831634990E+02  0.16767037424E+03  0.12500168789E+03 0.  0.
          5    1    3    3  502    0  0.11055507684E+02  0.19682557669E+02  0.74959593404E+02  0.78426130657E+02  0.47000000000E+01 0.  1.
         -5    1    3    3    0  502  0.46320000377E+02  0.67549456811E+02 -0.35127958413E+02  0.89244243583E+02  0.47000000000E+01 0.  1.
          5    1    1    2  503    0 -0.39725842075E+02  0.70652718648E+02  0.13969467659E+03  0.16157549891E+03  0.47000000000E+01 0. -1.
         -5    1    1    2    0  503 -0.17649665986E+02 -0.15788473313E+03  0.24612551904E+03  0.29298286773E+03  0.47000000000E+01 0.  1.
<mgrwt>
<rscale>  0 0.21806600E+03</rscale>
<asrwt>0</asrwt>
<pdfrwt beam="1">  1        1 0.15121301E-01 0.24034576E+03</pdfrwt>
<pdfrwt beam="2">  1       -1 0.80606196E-01 0.24034576E+03</pdfrwt>
<totfact> 0.59264531E+02</totfact>
</mgrwt>
</event>
<event>
 7    1  0.1050440E-008  0.1616389E+03  0.7546771E-02  0.1194606E+00
          1   -1    0    0  501    0  0.00000000000E+00  0.00000000000E+00  0.12540915419E+04  0.12540915419E+04  0.00000000000E+00 0. -1.
         -1   -1    0    0    0  501 -0.00000000000E+00 -0.00000000000E+00 -0.17819084567E+02  0.17819084567E+02  0.00000000000E+00 0.  1.
         25    2    1    2    0    0  0.10032915634E+03  0.20856606348E+02  0.61619915898E+03  0.63704673285E+03  0.12500479456E+03 0.  0.
          5    1    3    3  502    0  0.12564824765E+03  0.29552737120E+00  0.53132426230E+03  0.54599920437E+03  0.47000000000E+01 0.  1.
         -5    1    3    3    0  502 -0.25319091312E+02  0.20561078977E+02  0.84874896687E+02  0.91047528473E+02  0.47000000000E+01 0.  1.
          5    1    1    2  503    0 -0.53028033685E+02 -0.20965332915E+01  0.51780640531E+03  0.52054003803E+03  0.47000000000E+01 0. -1.
         -5    1    1    2    0  503 -0.47301122652E+02 -0.18760073057E+02  0.10226689304E+03  0.11432385559E+03  0.47000000000E+01 0.  1.
<mgrwt>
<rscale>  0 0.15487645E+03</rscale>
<asrwt>0</asrwt>
<pdfrwt beam="1">  1        1 0.19293709E+00 0.16163891E+03</pdfrwt>
<pdfrwt beam="2">  1       -1 0.27413986E-02 0.16163891E+03</pdfrwt>
<totfact> 0.44675409E+03</totfact>
</mgrwt>
</event>
<event>
 7    1  0.1050440E-008  0.2561572E+03  0.7546771E-02  0.1110603E+00
          2   -1    0    0  501    0  0.00000000000E+00  0.00000000000E+00  0.17039843463E+04  0.17039843463E+04  0.00000000000E+00 0. -1.
         -2   -1    0    0    0  501 -0.00000000000E+00 -0.00000000000E+00 -0.37564665969E+02  0.37564665969E+02  0.00000000000E+00 0.  1.
         25    2    1    2    0    0 -0.21518678920E+03  0.46465539911E+01  0.87445679659E+03  0.90918989317E+03  0.12499851215E+03 0.  0.
          5    1    1    2  502    0  0.83999481409E+02 -0.57719327468E+02  0.46486622960E+03  0.47593080911E+03  0.47000000000E+01 0.  1.
         -5    1    3    3    0  503 -0.32865340611E+02  0.44640479084E+02  0.30111239051E+03  0.30620853140E+03  0.47000000000E+01 0. -1.
          5    1    3    3  503    0 -0.18232144859E+03 -0.39993925093E+02  0.57334440608E+03  0.60298136177E+03  0.47000000000E+01 0. -1.
         -5    1    1    2    0  502  0.13118730779E+03  0.53072773477E+02  0.32709665419E+03  0.35642831003E+03  0.47000000000E+01 0. -1.
<mgrwt>
<rscale>  0 0.25432346E+03</rscale>
<asrwt>0</asrwt>
<pdfrwt beam="1">  1        2 0.26215138E+00 0.25615717E+03</pdfrwt>
<pdfrwt beam="2">  1       -2 0.57791807E-02 0.25615717E+03</pdfrwt>
<totfact> 0.16687485E+03</totfact>
</mgrwt>
</event>
<event>
 7    1  0.1238740E-008  0.6924523E+03  0.7546771E-02  0.9730228E-01
         -3   -1    0    0    0  501 -0.00000000000E+00  0.00000000000E+00  0.30691550536E+03  0.30691550536E+03  0.00000000000E+00 0.  1.
          3   -1    0    0  501    0  0.00000000000E+00 -0.00000000000E+00 -0.39057183005E+03  0.39057183005E+03  0.00000000000E+00 0. -1.
         25    2    1    2    0    0  0.20945356979E+03 -0.10371812292E+03  0.15328475910E+03  0.30618556660E+03  0.12500054761E+03 0.  0.
          5    1    3    3  502    0  0.67549140459E+02 -0.22398922267E+02  0.11942081672E+03  0.13909715871E+03  0.47000000000E+01 0.  1.
         -5    1    1    2    0  503 -0.37010570306E+02 -0.33410035714E+01  0.35448660154E+02  0.51571718276E+02  0.47000000000E+01 0.  1.
          5    1    1    2  503    0 -0.17244299948E+03  0.10705912649E+03 -0.27238974394E+03  0.33973005054E+03  0.47000000000E+01 0. -1.
         -5    1    3    3    0  502  0.14190442933E+03 -0.81319200654E+02  0.33863942380E+02  0.16708840789E+03  0.47000000000E+01 0.  1.
<mgrwt>
<rscale>  0 0.69245231E+03</rscale>
<asrwt>0</asrwt>
<pdfrwt beam="1">  1        3 0.60087974E-01 0.69245231E+03</pdfrwt>
<pdfrwt beam="2">  1       -3 0.47217770E-01 0.69245231E+03</pdfrwt>
<totfact> 0.31807008E+01</totfact>
</mgrwt>
</event>
<event>
 7    1  0.1050440E-008  0.1365512E+03  0.7546771E-02  0.1242918E+00
          2   -1    0    0  501    0  0.00000000000E+00  0.00000000000E+00  0.30553733263E+03  0.30553733263E+03  0.00000000000E+00 0. -1.
         -2   -1    0    0    0  501 -0.00000000000E+00 -0.00000000000E+00 -0.40867012421E+02  0.40867012421E+02  0.00000000000E+00 0.  1.
         25    2    1    2    0    0 -0.50464670751E+02 -0.21784841159E+02  0.12803228333E+03  0.18718572471E+03  0.12499987065E+03 0.  0.
          5    1    1    2  502    0 -0.68267065619E+01  0.22284997398E+02  0.48093601621E+02  0.53649879295E+02  0.47000000000E+01 0. -1.
         -5    1    3    3    0  503 -0.47157967790E+02 -0.58940598596E+02  0.12904491350E+03  0.14957455596E+03  0.47000000000E+01 0.  1.
          5    1    3    3  503    0 -0.33067029611E+01  0.37155757437E+02 -0.10126301719E+01  0.37611168754E+02  0.47000000000E+01 0.  1.
         -5    1    1    2    0  502  0.57291377313E+02 -0.50015623894E+00  0.88544435254E+02  0.10556874104E+03  0.47000000000E+01 0.  1.
<mgrwt>
<rscale>  0 0.12010849E+03</rscale>
<asrwt>0</asrwt>
<pdfrwt beam="1">  1        2 0.47005742E-01 0.13655120E+03</pdfrwt>
<pdfrwt beam="2">  1       -2 0.62872329E-02 0.13655120E+03</pdfrwt>
<totfact> 0.13889775E+04</totfact>
</mgrwt>
</event>
<event>
 7    1  0.1363359E-008  0.1602928E+03  0.7546771E-02  0.1200735E+00
          2   -1    0    0  501    0  0.00000000000E+00  0.00000000000E+00  0.52312157993E+03  0.52312157993E+03  0.00000000000E+00 0. -1.
         -2   -1    0    0    0  501 -0.00000000000E+00 -0.00000000000E+00 -0.13639676459E+03  0.13639676459E+03  0.00000000000E+00 0.  1.
         25    2    1    2    0    0 -0.88032462992E+02  0.48115010195E+02 -0.78516643232E+02  0.17848992981E+03  0.12501609110E+03 0.  0.
          5    1    1    2  502    0  0.64537716835E+02 -0.10077560270E+02  0.36949327173E+03  0.37525197130E+03  0.47000000000E+01 0. -1.
         -5    1    1    2    0  502  0.23494746157E+02 -0.38037449925E+02  0.95748186843E+02  0.10577644340E+03  0.47000000000E+01 0.  1.
          5    1    3    3  503    0  0.17197183808E+01  0.63243497449E+02 -0.55973220361E+02  0.84603716221E+02  0.47000000000E+01 0. -1.
         -5    1    3    3    0  503 -0.89752181373E+02 -0.15128487255E+02 -0.22543422871E+02  0.93886213591E+02  0.47000000000E+01 0. -1.
<mgrwt>
<rscale>  0 0.14978722E+03</rscale>
<asrwt>0</asrwt>
<pdfrwt beam="1">  1        2 0.80480242E-01 0.16029283E+03</pdfrwt>
<pdfrwt beam="2">  1       -2 0.20984118E-01 0.16029283E+03</pdfrwt>
<totfact> 0.11391245E+03</totfact>
</mgrwt>
</event>
<event>
 7    1  0.1050440E-008  0.7600899E+03  0.7546771E-02  0.9619653E-01
          1   -1    0    0  501    0  0.00000000000E+00  0.00000000000E+00  0.36245458509E+03  0.36245458509E+03  0.00000000000E+00 0. -1.
         -1   -1    0    0    0  501 -0.00000000000E+00 -0.00000000000E+00 -0.39848899706E+03  0.39848899706E+03  0.00000000000E+00 0.  1.
         25    2    1    2    0    0  0.25920809248E+03  0.34942391626E+01 -0.21435245191E+03  0.35884877575E+03  0.12499770117E+03 0.  0.
          5    1    1    2  502    0 -0.21810915366E+03 -0.51276130165E+00 -0.87771330451E+00  0.21816215578E+03  0.47000000000E+01 0.  1.
         -5    1    1    2    0  502 -0.41098938819E+02 -0.29814778610E+01  0.17919575325E+03  0.18393265062E+03  0.47000000000E+01 0. -1.
          5    1    3    3  503    0  0.95039758282E+02 -0.12052801274E+02 -0.10324391469E+02  0.96470247911E+02  0.47000000000E+01 0. -1.
         -5    1    3    3    0  503  0.16416833420E+03  0.15547040437E+02 -0.20402806045E+03  0.26237852784E+03  0.47000000000E+01 0. -1.
<mgrwt>
<rscale>  0 0.76008990E+03</rscale>
<asrwt>0</asrwt>
<pdfrwt beam="1">  1        1 0.55762244E-01 0.76008990E+03</pdfrwt>
<pdfrwt beam="2">  1       -1 0.61305999E-01 0.76008990E+03</pdfrwt>
<totfact> 0.18699554E+02</totfact>
</mgrwt>
</event>
<event>
 7    1  0.1050440E-008  0.2723126E+03  0.7546771E-02  0.1118437E+00
         -2   -1    0    0    0  501 -0.00000000000E+00  0.00000000000E+00  0.24118256451E+03  0.24118256451E+03  0.00000000000E+00 0. -1.
          2   -1    0    0  501    0  0.00000000000E+00 -0.00000000000E+00 -0.24618154210E+03  0.24618154210E+03  0.00000000000E+00 0.  1.
         25    2    1    2    0    0 -0.10124163108E+03  0.54939829723E+02 -0.10206632899E+03  0.19826858443E+03  0.12499857321E+03 0.  0.
          5    1    3    3  502    0 -0.89092409279E+02  0.89090678973E+02 -0.10125704927E+03  0.16170864695E+03  0.47000000000E+01 0.  1.
         -5    1    3    3    0  502 -0.12149221802E+02 -0.34150849250E+02 -0.80927971820E+00  0.36559937480E+02  0.47000000000E+01 0.  1.
          5    1    1    2  503    0  0.95209835866E+01 -0.10881738928E+03  0.13708483132E+03  0.17534598461E+03  0.47000000000E+01 0. -1.
         -5    1    1    2    0  503  0.91720647494E+02  0.53877559560E+02 -0.40017479924E+02  0.11374953758E+03  0.47000000000E+01 0.  1.
<mgrwt>
<rscale>  0 0.24204699E+03</rscale>
<asrwt>0</asrwt>
<pdfrwt beam="1">  1        2 0.37874083E-01 0.27231260E+03</pdfrwt>
<pdfrwt beam="2">  1       -2 0.37105010E-01 0.27231260E+03</pdfrwt>
<totfact> 0.93431291E+02</totfact>
</mgrwt>
</event>
<event>
 7    1  0.1050440E-008  0.4737904E+03  0.7546771E-02  0.1020856E+00
         -2   -1    0    0    0  501 -0.00000000000E+00  0.00000000000E+00  0.27291552952E+02  0.27291552952E+02  0.00000000000E+00 0.  1.
          2   -1    0    0  501    0  0.00000000000E+00 -0.00000000000E+00 -0.20562899403E+04  0.20562899403E+04  0.00000000000E+00 0. -1.
         25    2    1    2    0    0 -0.13135418295E+03 -0.18035789933E+02 -0.39623184657E+03  0.43613127544E+03  0.12502640555E+03 0.  0.
          5    1    1    2  502    0  0.16178280911E+03 -0.27747817485E+02 -0.12024573878E+04  0.12136183413E+04  0.47000000000E+01 0. -1.
         -5    1    3    3    0  503 -0.11074059587E+03  0.34323966085E+02 -0.19294539899E+03  0.22514802067E+03  0.47000000000E+01 0. -1.
          5    1    3    3  503    0 -0.20613587077E+02 -0.52359756018E+02 -0.20328644758E+03  0.21098325477E+03  0.47000000000E+01 0. -1.
         -5    1    1    2    0  502 -0.30428626159E+02  0.45783607417E+02 -0.43030915289E+03  0.43383187649E+03  0.47000000000E+01 0.  1.
<mgrwt>
<rscale>  0 0.47379044E+03</rscale>
<asrwt>0</asrwt>
<pdfrwt beam="1">  1        2 0.31635234E+00 0.47379044E+03</pdfrwt>
<pdfrwt beam="2">  1       -2 0.41987000E-02 0.47379044E+03</pdfrwt>
<totfact> 0.17482316E+03</totfact>
</mgrwt>
</event>
<event>
 7    1  0.1050440E-008  0.2132742E+03  0.7546771E-02  0.1140083E+00
          1   -1    0    0  501    0  0.00000000000E+00  0.00000000000E+00  0.56201099270E+03  0.56201099270E+03  0.00000000000E+00 0. -1.
         -1   -1    0    0    0  501 -0.00000000000E+00 -0.00000000000E+00 -0.83432987898E+02  0.83432987898E+02  0.00000000000E+00 0.  1.
         25    2    1    2    0    0 -0.16565226563E+03 -0.10207963175E+02  0.16075212116E+03  0.26269184846E+03  0.12498354760E+03 0.  0.
          5    1    1    2  502    0  0.16680000391E+03  0.46864678848E+02  0.28359204012E+03  0.33236286593E+03  0.47000000000E+01 0. -1.
         -5    1    1    2    0  502 -0.11477382872E+01 -0.36656715673E+02  0.34233843525E+02  0.50389266214E+02  0.47000000000E+01 0.  1.
          5    1    3    3  503    0 -0.14211940352E+03  0.22365268930E+02  0.63441422258E+02  0.15730554399E+03  0.47000000000E+01 0. -1.
         -5    1    3    3    0  503 -0.23532862103E+02 -0.32573232105E+02  0.97310698900E+02  0.10538630447E+03  0.47000000000E+01 0. -1.
<mgrwt>
<rscale>  0 0.21188306E+03</rscale>
<asrwt>0</asrwt>
<pdfrwt beam="1">  1        1 0.86463227E-01 0.21327424E+03</pdfrwt>
<pdfrwt beam="2">  1       -1 0.12835845E-01 0.21327424E+03</pdfrwt>
<totfact> 0.15808956E+03</totfact>
</mgrwt>
</event>
<event>
 7    1  0.1050440E-008  0.3711795E+03  0.7546771E-02  0.1092468E+00
          1   -1    0    0  501    0  0.00000000000E+00  0.00000000000E+00  0.39877674147E+03  0.39877674147E+03  0.00000000000E+00 0. -1.
         -1   -1    0    0    0  501 -0.00000000000E+00 -0.00000000000E+00 -0.21882030361E+03  0.21882030361E+03  0.00000000000E+00 0.  1.
         25    2    1    2    0    0 -0.38444941129E+02  0.23082815935E+01 -0.89882108305E+02  0.15869936848E+03  0.12499341782E+03 0.  0.
          5    1    3    3  502    0  0.35997821430E+02  0.20456293213E+02 -0.15893849040E+01  0.41700350408E+02  0.47000000000E+01 0. -1.
         -5    1    3    3    0  502 -0.74442762560E+02 -0.18148011619E+02 -0.88292723401E+02  0.11699901807E+03  0.47000000000E+01 0. -1.
          5    1    1    2  503    0 -0.13628527808E+03  0.39979035658E+02  0.23662978072E+03  0.27602127352E+03  0.47000000000E+01 0. -1.
         -5    1    1    2    0  503  0.17473021921E+03 -0.42287317252E+02  0.33208765449E+02  0.18287640309E+03  0.47000000000E+01 0.  1.
<mgrwt>
<rscale>  0 0.28597876E+03</rscale>
<asrwt>0</asrwt>
<pdfrwt beam="1">  1        1 0.61350268E-01 0.37117952E+03</pdfrwt>
<pdfrwt beam="2">  1       -1 0.33664662E-01 0.37117952E+03</pdfrwt>
<totfact> 0.50996263E+02</totfact>
</mgrwt>
</event>
<event>
 7    1  0.1050440E-008  0.1739440E+03  0.7546771E-02  0.1178142E+00
         -2   -1    0    0    0  501 -0.00000000000E+00  0.00000000000E+00  0.11414659638E+03  0.11414659638E+03  0.00000000000E+00 0.  1.
          2   -1    0    0  501    0  0.00000000000E+00 -0.00000000000E+00 -0.34470280954E+03  0.34470280954E+03  0.00000000000E+00 0. -1.
         25    2    1    2    0    0  0.80858757131E+02 -0.51806432517E+02 -0.23716560860E+03  0.28477984716E+03  0.12501995997E+03 0.  0.
          5    1    3    3  502    0  0.75906583228E+01  0.38983586356E+02 -0.47956302806E+02  0.62443855405E+02  0.47000000000E+01 0.  1.
         -5    1    3    3    0  502  0.73268098808E+02 -0.90790018873E+02 -0.18920930579E+03  0.22233599175E+03  0.47000000000E+01 0.  1.
          5    1    1    2  503    0 -0.49446920957E+02 -0.36417206698E+02 -0.35711926375E+02  0.71194400210E+02  0.47000000000E+01 0. -1.
         -5    1    1    2    0  503 -0.31411836174E+02  0.88223639215E+02  0.42321321815E+02  0.10287515856E+03  0.47000000000E+01 0.  1.
<mgrwt>
<rscale>  0 0.16971780E+03</rscale>
<asrwt>0</asrwt>
<pdfrwt beam="1">  1        2 0.53031201E-01 0.17394403E+03</pdfrwt>
<pdfrwt beam="2">  1       -2 0.17561015E-01 0.17394403E+03</pdfrwt>
<totfact> 0.24260389E+03</totfact>
</mgrwt>
</event>
<event>
 7    1  0.1050440E-008  0.1801905E+03  0.7546771E-02  0.1179383E+00
          1   -1    0    0  501    0  0.00000000000E+00  0.00000000000E+00  0.20847195231E+03  0.20847195231E+03  0.00000000000E+00 0. -1.
         -1   -1    0    0    0  501 -0.00000000000E+00 -0.00000000000E+00 -0.12138153217E+03  0.12138153217E+03  0.00000000000E+00 0.  1.
         25    2    1    2    0    0  0.45624315353E+02 -0.36179709603E+02  0.34763393836E+02  0.14221887846E+03  0.12500866490E+03 0.  0.
          5    1    3    3  502    0 -0.32193659009E+02  0.78133072017E+01  0.40482362373E+02  0.52520387595E+02  0.47000000000E+01 0. -1.
         -5    1    1    2    0  503 -0.84986493143E+02 -0.36535277691E+02  0.61924015941E+01  0.92833002591E+02  0.47000000000E+01 0.  1.
          5    1    1    2  503    0  0.39362177790E+02  0.72714987294E+02  0.46134624709E+02  0.94801603439E+02  0.47000000000E+01 0. -1.
         -5    1    3    3    0  502  0.77817974362E+02 -0.43993016805E+02 -0.57189685370E+01  0.89698490860E+02  0.47000000000E+01 0. -1.
<mgrwt>
<rscale>  0 0.16853642E+03</rscale>
<asrwt>0</asrwt>
<pdfrwt beam="1">  1        1 0.32072608E-01 0.18019053E+03</pdfrwt>
<pdfrwt beam="2">  1       -1 0.18674082E-01 0.18019053E+03</pdfrwt>
<totfact> 0.30737950E+03</totfact>
</mgrwt>
</event>
<event>
 7    1  0.1050440E-008  0.2178534E+03  0.7546771E-02  0.1139452E+00
          2   -1    0    0  501    0  0.00000000000E+00  0.00000000000E+00  0.13692597259E+04  0.13692597259E+04  0.00000000000E+00 0. -1.
         -2   -1    0    0    0  501 -0.00000000000E+00 -0.00000000000E+00 -0.31770103054E+02  0.31770103054E+02  0.00000000000E+00 0.  1.
         25    2    1    2    0    0  0.14271020878E+03 -0.10711745239E+03  0.64414471827E+03  0.67998715750E+03  0.12497905423E+03 0.  0.
          5    1    1    2  502    0 -0.10085055398E+03  0.37733028479E+02  0.28479774204E+03  0.30451019613E+03  0.47000000000E+01 0.  1.
         -5    1    1    2    0  502 -0.41859654797E+02  0.69384423908E+02  0.40854716253E+03  0.41653247532E+03  0.47000000000E+01 0. -1.
          5    1    3    3  503    0 -0.72534927736E+01 -0.54631966003E+02  0.11731222876E+03  0.12969777902E+03  0.47000000000E+01 0. -1.
         -5    1    3    3    0  503  0.14996370155E+03 -0.52485486384E+02  0.52683248951E+03  0.55028937848E+03  0.47000000000E+01 0. -1.
<mgrwt>
<rscale>  0 0.21269141E+03</rscale>
<asrwt>0</asrwt>
<pdfrwt beam="1">  1        2 0.21065530E+00 0.21785343E+03</pdfrwt>
<pdfrwt beam="2">  1       -2 0.48877092E-02 0.21785343E+03</pdfrwt>
<totfact> 0.32491118E+03</totfact>
</mgrwt>
</event>
<event>
 7    1  0.1050440E-008  0.2475161E+03  0.7546771E-02  0.1116638E+00
          2   -1    0    0  501    0  0.00000000000E+00  0.00000000000E+00  0.19145081824E+04  0.19145081824E+04  0.00000000000E+00 0. -1.
         -2   -1    0    0    0  501 -0.00000000000E+00 -0.00000000000E+00 -0.32984062165E+02  0.32984062165E+02  0.00000000000E+00 0.  1.
         25    2    1    2    0    0  0.85054545274E+02  0.18227622798E+03  0.11814393624E+04  0.12049406339E+04  0.12499626050E+03 0.  0.
          5    1    3    3  502    0  0.39253437582E+02 -0.39170148968E+01  0.12279193807E+03  0.12905861235E+03  0.47000000000E+01 0.  1.
         -5    1    1    2    0  503 -0.12191621375E+03 -0.13081282666E+03  0.44312630219E+03  0.47786877748E+03  0.47000000000E+01 0.  1.
          5    1    1    2  503    0  0.36861668477E+02 -0.51463401322E+02  0.25695845568E+03  0.26468283326E+03  0.47000000000E+01 0. -1.
         -5    1    3    3    0  502  0.45801107692E+02  0.18619324288E+03  0.10586474243E+04  0.10758820215E+04  0.47000000000E+01 0.  1.
<mgrwt>
<rscale>  0 0.24479722E+03</rscale>
<asrwt>0</asrwt>
<pdfrwt beam="1">  1        2 0.29453963E+00 0.24751611E+03</pdfrwt>
<pdfrwt beam="2">  1       -2 0.50744726E-02 0.24751611E+03</pdfrwt>
<totfact> 0.15800397E+03</totfact>
</mgrwt>
</event>
<event>
 7    1  0.1050440E-008  0.1571846E+03  0.7546771E-02  0.1199724E+00
          2   -1    0    0  501    0  0.00000000000E+00  0.00000000000E+00  0.86819898108E+03  0.86819898108E+03  0.00000000000E+00 0. -1.
         -2   -1    0    0    0  501 -0.00000000000E+00 -0.00000000000E+00 -0.25048253533E+02  0.25048253533E+02  0.00000000000E+00 0.  1.
         25    2    1    2    0    0  0.57821499488E+02  0.75755997933E+02  0.53988448136E+03  0.56230086874E+03  0.12499886699E+03 0.  0.
          5    1    3    3  502    0  0.26600501792E+02 -0.15443465080E+02  0.29517087529E+02  0.42888643782E+02  0.47000000000E+01 0. -1.
         -5    1    1    2    0  503 -0.32136904096E+02  0.12702986757E+02  0.13076850238E+03  0.13533897329E+03  0.47000000000E+01 0.  1.
          5    1    1    2  503    0 -0.25684595392E+02 -0.88458984690E+02  0.17249774381E+03  0.19560739258E+03  0.47000000000E+01 0. -1.
         -5    1    3    3    0  502  0.31220997696E+02  0.91199463013E+02  0.51036739383E+03  0.51941222496E+03  0.47000000000E+01 0. -1.
<mgrwt>
<rscale>  0 0.15061144E+03</rscale>
<asrwt>0</asrwt>
<pdfrwt beam="1">  1        2 0.13356905E+00 0.15718465E+03</pdfrwt>
<pdfrwt beam="2">  1       -2 0.38535781E-02 0.15718465E+03</pdfrwt>
<totfact> 0.90025046E+03</totfact>
</mgrwt>
</event>
<event>
 7    1  0.1050440E-008  0.8370741E+03  0.7546771E-02  0.9507852E-01
          2   -1    0    0  501    0  0.00000000000E+00  0.00000000000E+00  0.13602567640E+04  0.13602567640E+04  0.00000000000E+00 0. -1.
         -2   -1    0    0    0  501 -0.00000000000E+00 -0.00000000000E+00 -0.12877954648E+03  0.12877954648E+03  0.00000000000E+00 0.  1.
         25    2    1    2    0    0 -0.26837509645E+03  0.19464297482E+03  0.76755150183E+03  0.84538242071E+03  0.12500019699E+03 0.  0.
          5    1    3    3  502    0 -0.16315170816E+03  0.13787222783E+03  0.34134020269E+03  0.40269399680E+03  0.47000000000E+01 0.  1.
         -5    1    3    3    0  502 -0.10522338829E+03  0.56770746991E+02  0.42621129914E+03  0.44268842392E+03  0.47000000000E+01 0.  1.
          5    1    1    2  503    0 -0.18428046077E+02  0.59158538568E+02  0.50419263330E+02  0.80021982496E+02  0.47000000000E+01 0. -1.
         -5    1    1    2    0  503  0.28680314253E+03 -0.25380151338E+03  0.41350645237E+03  0.56363190728E+03  0.47000000000E+01 0.  1.
<mgrwt>
<rscale>  0 0.83707407E+03</rscale>
<asrwt>0</asrwt>
<pdfrwt beam="1">  1        2 0.20927026E+00 0.83707407E+03</pdfrwt>
<pdfrwt beam="2">  1       -2 0.19812239E-01 0.83707407E+03</pdfrwt>
<totfact> 0.33289157E+02</totfact>
</mgrwt>
</event>
<event>
 7    1  0.1050440E-008  0.8476204E+03  0.7546771E-02  0.9493536E-01
          2   -1    0    0  501    0  0.00000000000E+00  0.00000000000E+00  0.63363223406E+03  0.63363223406E+03  0.00000000000E+00 0. -1.
         -2   -1    0    0    0  501 -0.00000000000E+00 -0.00000000000E+00 -0.28346900862E+03  0.28346900862E+03  0.00000000000E+00 0.  1.
         25    2    1    2    0    0 -0.10287221438E+03  0.19052723850E+03  0.45819927460E+03  0.52197434369E+03  0.12500927613E+03 0.  0.
          5    1    1    2  502    0 -0.24623254882E+02 -0.18467306154E+02  0.95011238519E+02  0.99982856143E+02  0.47000000000E+01 0. -1.
         -5    1    1    2    0  502  0.12749546926E+03 -0.17205993235E+03 -0.20304728768E+03  0.29514404286E+03  0.47000000000E+01 0.  1.
          5    1    3    3  503    0  0.22117098902E+02  0.39303156159E+02  0.41904380964E+02  0.61741163675E+02  0.47000000000E+01 0. -1.
         -5    1    3    3    0  503 -0.12498931328E+03  0.15122408234E+03  0.41629489364E+03  0.46023318001E+03  0.47000000000E+01 0. -1.
<mgrwt>
<rscale>  0 0.84762044E+03</rscale>
<asrwt>0</asrwt>
<pdfrwt beam="1">  1        2 0.97481882E-01 0.84762044E+03</pdfrwt>
<pdfrwt beam="2">  1       -2 0.43610617E-01 0.84762044E+03</pdfrwt>
<totfact> 0.23246523E+02</totfact>
</mgrwt>
</event>
<event>
 7    1  0.1050440E-008  0.1259579E+03  0.7546771E-02  0.1238876E+00
          2   -1    0    0  501    0  0.00000000000E+00  0.00000000000E+00  0.68185931780E+03  0.68185931780E+03  0.00000000000E+00 0. -1.
         -2   -1    0    0    0  501 -0.00000000000E+00 -0.00000000000E+00 -0.76113744318E+02  0.76113744318E+02  0.00000000000E+00 0.  1.
         25    2    1    2    0    0 -0.91523296391E+01 -0.12532978486E+02  0.62991173021E+03  0.64238165339E+03  0.12499824029E+03 0.  0.
          5    1    3    3  502    0  0.40884651137E+02 -0.28542503650E+02  0.49497513114E+03  0.49750246196E+03  0.47000000000E+01 0. -1.
         -5    1    1    2    0  503  0.47198455081E+02 -0.28219517390E+02 -0.22543470753E+02  0.59618230411E+02  0.47000000000E+01 0.  1.
          5    1    1    2  503    0 -0.38046125442E+02  0.40752495875E+02 -0.16226859687E+01  0.55973178318E+02  0.47000000000E+01 0. -1.
         -5    1    3    3    0  502 -0.50036980776E+02  0.16009525164E+02  0.13493659907E+03  0.14487919143E+03  0.47000000000E+01 0. -1.
<mgrwt>
<rscale>  0 0.12259544E+03</rscale>
<asrwt>0</asrwt>
<pdfrwt beam="1">  1        2 0.10490143E+00 0.12595793E+03</pdfrwt>
<pdfrwt beam="2">  1       -2 0.11709807E-01 0.12595793E+03</pdfrwt>
<totfact> 0.21883944E+03</totfact>
</mgrwt>
</event>
<event>
 7    1  0.1050440E-008  0.7825282E+03  0.7546771E-02  0.9929577E-01
         -1   -1    0    0    0  501 -0.00000000000E+00  0.00000000000E+00  0.32110855382E+03  0.32110855382E+03  0.00000000000E+00 0.  1.
          1   -1    0    0  501    0  0.00000000000E+00 -0.00000000000E+00 -0.89311797184E+03  0.89311797184E+03  0.00000000000E+00 0. -1.
         25    2    1    2    0    0 -0.83638011078E+02  0.20007261129E+03 -0.28845122532E+03  0.38190707896E+03  0.12499816354E+03 0.  0.
          5    1    3    3  502    0 -0.31212400655E+02  0.71819046317E+02 -0.21883382001E+02  0.81444224941E+02  0.47000000000E+01 0.  1.
         -5    1    3    3    0  502 -0.52425610423E+02  0.12825356498E+03 -0.26656784332E+03  0.30046285402E+03  0.47000000000E+01 0.  1.
          5    1    1    2  503    0 -0.23809112384E+03 -0.24656378531E+03 -0.36131218304E+03  0.49804584838E+03  0.47000000000E+01 0. -1.
         -5    1    1    2    0  503  0.32172913492E+03  0.46491174022E+02  0.77753990326E+02  0.33427359831E+03  0.47000000000E+01 0.  1.
<mgrwt>
<rscale>  0 0.58849014E+03</rscale>
<asrwt>0</asrwt>
<pdfrwt beam="1">  1        1 0.13740276E+00 0.78252822E+03</pdfrwt>
<pdfrwt beam="2">  1       -1 0.49401317E-01 0.78252822E+03</pdfrwt>
<totfact> 0.77071026E+01</totfact>
</mgrwt>
</event>
<event>
 7    1  0.1050440E-008  0.1529554E+03  0.7546771E-02  0.1214045E+00
         -2   -1    0    0    0  501 -0.00000000000E+00  0.00000000000E+00  0.21398000501E+03  0.21398000501E+03  0.00000000000E+00 0.  1.
          2   -1    0    0  501    0  0.00000000000E+00 -0.00000000000E+00 -0.81053281534E+02  0.81053281534E+02  0.00000000000E+00 0. -1.
         25    2    1    2    0    0 -0.45607969669E+02 -0.75455245161E+02  0.10546179991E+03  0.18578899229E+03  0.12498710933E+03 0.  0.
          5    1    1    2  502    0  0.39818561658E+02  0.12232007177E+02  0.80225031565E+01  0.42680093826E+02  0.47000000000E+01 0. -1.
         -5    1    3    3    0  503 -0.11648528470E+02 -0.27016305630E+02  0.12086170729E+03  0.12447976251E+03  0.47000000000E+01 0. -1.
          5    1    3    3  503    0 -0.33959441199E+02 -0.48438939531E+02 -0.15399907382E+02  0.61309229785E+02  0.47000000000E+01 0. -1.
         -5    1    1    2    0  502  0.57894080105E+01  0.63223237984E+02  0.19442420410E+02  0.66564200421E+02  0.47000000000E+01 0.  1.
<mgrwt>
<rscale>  0 0.13946937E+03</rscale>
<asrwt>0</asrwt>
<pdfrwt beam="1">  1        2 0.12469736E-01 0.15295541E+03</pdfrwt>
<pdfrwt beam="2">  1       -2 0.32920001E-01 0.15295541E+03</pdfrwt>
<totfact> 0.40435578E+03</totfact>
</mgrwt>
</event>
<event>
 7    1  0.1050440E-008  0.1425720E+03  0.7546771E-02  0.1219843E+00
         -1   -1    0    0    0  501 -0.00000000000E+00  0.00000000000E+00  0.86756384438E+02  0.86756384438E+02  0.00000000000E+00 0.  1.
          1   -1    0    0  501    0  0.00000000000E+00 -0.00000000000E+00 -0.29745303001E+03  0.29745303001E+03  0.00000000000E+00 0. -1.
         25    2    1    2    0    0 -0.81739214145E+01  0.68071594404E+02 -0.22647506970E+03  0.26761487924E+03  0.12500484567E+03 0.  0.
          5    1    1    2  502    0  0.14725723235E+02  0.20565620348E+02 -0.21028695483E+01  0.25812859691E+02  0.47000000000E+01 0. -1.
         -5    1    1    2    0  502 -0.65518018202E+01 -0.88637214752E+02  0.17881293675E+02  0.90781675516E+02  0.47000000000E+01 0.  1.
          5    1    3    3  503    0  0.46862861193E+02  0.53220224131E+02 -0.18128943519E+03  0.19472151737E+03  0.47000000000E+01 0.  1.
         -5    1    3    3    0  503 -0.55036782608E+02  0.14851370272E+02 -0.45185634512E+02  0.72893361872E+02  0.47000000000E+01 0.  1.
<mgrwt>
<rscale>  0 0.13526697E+03</rscale>
<asrwt>0</asrwt>
<pdfrwt beam="1">  1        1 0.45762004E-01 0.14257197E+03</pdfrwt>
<pdfrwt beam="2">  1       -1 0.13347136E-01 0.14257197E+03</pdfrwt>
<totfact> 0.33243848E+03</totfact>
</mgrwt>
</event>
<event>
 7    1  0.1050440E-008  0.1203985E+04  0.7546771E-02  0.9109376E-01
         -1   -1    0    0    0  501 -0.00000000000E+00  0.00000000000E+00  0.44636466562E+03  0.44636466562E+03  0.00000000000E+00 0.  1.
          1   -1    0    0  501    0  0.00000000000E+00 -0.00000000000E+00 -0.81188074973E+03  0.81188074973E+03  0.00000000000E+00 0. -1.
         25    2    1    2    0    0 -0.23463486060E+03 -0.35441013229E+03 -0.24149197964E+03  0.50458161534E+03  0.12499668249E+03 0.  0.
          5    1    3    3  502    0 -0.10188953487E+03 -0.61733892876E+02 -0.89311673509E+02  0.14896716373E+03  0.47000000000E+01 0. -1.
         -5    1    1    2    0  503  0.16189086892E+03 -0.11126082771E+03 -0.19520872589E+03  0.27697682554E+03  0.47000000000E+01 0.  1.
          5    1    1    2  503    0  0.72743991680E+02  0.46567095999E+03  0.71184621408E+02  0.47668697447E+03  0.47000000000E+01 0.  1.
         -5    1    3    3    0  502 -0.13274532573E+03 -0.29267623941E+03 -0.15218030613E+03  0.35561445161E+03  0.47000000000E+01 0. -1.
<mgrwt>
<rscale>  0 0.12039848E+04</rscale>
<asrwt>0</asrwt>
<pdfrwt beam="1">  1        1 0.12490473E+00 0.12039848E+04</pdfrwt>
<pdfrwt beam="2">  1       -1 0.68671487E-01 0.12039848E+04</pdfrwt>
<totfact> 0.45854459E+01</totfact>
</mgrwt>
</event>
<event>
 7    1  0.1050440E-008  0.3247281E+03  0.7546771E-02  0.1096389E+00
         -2   -1    0    0    0  501 -0.00000000000E+00  0.00000000000E+00  0.89883808925E+02  0.89883808925E+02  0.00000000000E+00 0.  1.
          2   -1    0    0  501    0  0.00000000000E+00 -0.00000000000E+00 -0.77574193779E+03  0.77574193779E+03  0.00000000000E+00 0. -1.
         25    2    1    2    0    0  0.52675884870E+02 -0.11252948467E+03 -0.38290605148E+03  0.42152178515E+03  0.12500374924E+03 0.  0.
          5    1    1    2  502    0 -0.16410645355E+03  0.49577663124E+00 -0.12696425794E+03  0.20754080728E+03  0.47000000000E+01 0. -1.
         -5    1    1    2    0  502  0.11143056868E+03  0.11203370804E+03 -0.17598781944E+03  0.23656315428E+03  0.47000000000E+01 0.  1.
          5    1    3    3  503    0  0.89278093009E+02 -0.97872207852E+02 -0.25216257023E+03  0.28488172771E+03  0.47000000000E+01 0. -1.
         -5    1    3    3    0  503 -0.36602208139E+02 -0.14657276817E+02 -0.13074348125E+03  0.13664005743E+03  0.47000000000E+01 0. -1.
<mgrwt>
<rscale>  0 0.27872208E+03</rscale>
<asrwt>0</asrwt>
<pdfrwt beam="1">  1        2 0.11934491E+00 0.32472814E+03</pdfrwt>
<pdfrwt beam="2">  1       -2 0.13828278E-01 0.32472814E+03</pdfrwt>
<totfact> 0.14467713E+03</totfact>
</mgrwt>
</event>
<event>
 7    1  0.1050440E-008  0.8101601E+03  0.7546771E-02  0.9545426E-01
         -2   -1    0    0    0  501 -0.00000000000E+00  0.00000000000E+00  0.36857849700E+03  0.36857849700E+03  0.00000000000E+00 0.  1.
          2   -1    0    0  501    0  0.00000000000E+00 -0.00000000000E+00 -0.44519645354E+03  0.44519645354E+03  0.00000000000E+00 0. -1.
         25    2    1    2    0    0 -0.28590303016E+03  0.21199955184E+03 -0.82392161208E+01  0.37732939671E+03  0.12500094521E+03 0.  0.
          5    1    3    3  502    0 -0.98573466211E+02  0.35751431729E+02 -0.50754926394E+02  0.11658921762E+03  0.47000000000E+01 0.  1.
         -5    1    1    2    0  503 -0.20374583938E+02 -0.57349783104E+02  0.44139439226E+02  0.75329286389E+02  0.47000000000E+01 0.  1.
          5    1    1    2  503    0  0.30627761409E+03 -0.15464976874E+03 -0.11251817965E+03  0.36111626745E+03  0.47000000000E+01 0. -1.
         -5    1    3    3    0  502 -0.18732956395E+03  0.17624812011E+03  0.42515710274E+02  0.26074017909E+03  0.47000000000E+01 0.  1.
<mgrwt>
<rscale>  0 0.81016008E+03</rscale>
<asrwt>0</asrwt>
<pdfrwt beam="1">  1        2 0.68491762E-01 0.81016008E+03</pdfrwt>
<pdfrwt beam="2">  1       -2 0.56704384E-01 0.81016008E+03</pdfrwt>
<totfact> 0.20686043E+02</totfact>
</mgrwt>
</event>
<event>
 7    1  0.1050440E-008  0.1499953E+03  0.7546771E-02  0.1215647E+00
         -1   -1    0    0    0  501 -0.00000000000E+00  0.00000000000E+00  0.88741032964E+02  0.88741032964E+02  0.00000000000E+00 0.  1.
          1   -1    0    0  501    0  0.00000000000E+00 -0.00000000000E+00 -0.20354549381E+03  0.20354549381E+03  0.00000000000E+00 0. -1.
         25    2    1    2    0    0  0.85705418967E+01  0.82460898591E+02 -0.26132367717E+02  0.15225464886E+03  0.12500129388E+03 0.  0.
          5    1    1    2  502    0 -0.37172095311E+02 -0.62437570776E+02 -0.64817161809E+02  0.97486252257E+02  0.47000000000E+01 0. -1.
         -5    1    3    3    0  503  0.19377644911E+02 -0.15438439117E+02  0.29681932001E+02  0.38947985981E+02  0.47000000000E+01 0.  1.
          5    1    3    3  503    0 -0.10807103014E+02  0.97899337709E+02 -0.55814299718E+02  0.11330666288E+03  0.47000000000E+01 0.  1.
         -5    1    1    2    0  502  0.28601553414E+02 -0.20023327815E+02 -0.23854931325E+02  0.42545625662E+02  0.47000000000E+01 0.  1.
<mgrwt>
<rscale>  0 0.13829143E+03</rscale>
<asrwt>0</asrwt>
<pdfrwt beam="1">  1        1 0.31314691E-01 0.14999526E+03</pdfrwt>
<pdfrwt beam="2">  1       -1 0.13652467E-01 0.14999526E+03</pdfrwt>
<totfact> 0.51513483E+03</totfact>
</mgrwt>
</event>
<event>
 7    1  0.1050440E-008  0.1851681E+03  0.7546771E-02  0.1166210E+00
          2   -1    0    0  501    0  0.00000000000E+00  0.00000000000E+00  0.19581298993E+04  0.19581298993E+04  0.00000000000E+00 0. -1.
         -2   -1    0    0    0  501 -0.00000000000E+00 -0.00000000000E+00 -0.17301906103E+02  0.17301906103E+02  0.00000000000E+00 0.  1.
         25    2    1    2    0    0 -0.10487444711E+03  0.52850674719E+02  0.11797560369E+04  0.11921580580E+04  0.12499874041E+03 0.  0.
          5    1    1    2  502    0  0.11901817220E+03 -0.26156601436E+02  0.72836227100E+03  0.73850063028E+03  0.47000000000E+01 0. -1.
         -5    1    3    3    0  503  0.93173373746E+01  0.32834170930E+02  0.92140362454E+02  0.98370889747E+02  0.47000000000E+01 0. -1.
          5    1    3    3  503    0 -0.11419178449E+03  0.20016503788E+02  0.10876156745E+04  0.10937871682E+04  0.47000000000E+01 0. -1.
         -5    1    1    2    0  502 -0.14143725084E+02 -0.26694073283E+02  0.32709685322E+02  0.44773117175E+02  0.47000000000E+01 0.  1.
<mgrwt>
<rscale>  0 0.18165553E+03</rscale>
<asrwt>0</asrwt>
<pdfrwt beam="1">  1        2 0.30125058E+00 0.18516814E+03</pdfrwt>
<pdfrwt beam="2">  1       -2 0.26618333E-02 0.18516814E+03</pdfrwt>
<totfact> 0.39516927E+03</totfact>
</mgrwt>
</event>
<event>
 7    1  0.1050440E-008  0.1283841E+03  0.7546771E-02  0.1276767E+00
          1   -1    0    0  501    0  0.00000000000E+00  0.00000000000E+00  0.55148433768E+02  0.55148433768E+02  0.00000000000E+00 0.  1.
         -1   -1    0    0    0  501 -0.00000000000E+00 -0.00000000000E+00 -0.17468701556E+03  0.17468701556E+03  0.00000000000E+00 0. -1.
         25    2    1    2    0    0  0.28703307037E+02 -0.59798453407E+01 -0.37981681131E+02  0.13388459837E+03  0.12499135648E+03 0.  0.
          5    1    1    2  502    0 -0.43558811724E+01  0.19646084837E+02 -0.46523834135E+02  0.50906772563E+02  0.47000000000E+01 0. -1.
         -5    1    3    3    0  503  0.64161142493E+02 -0.33204447079E+02 -0.49228836546E+02  0.87548591419E+02  0.47000000000E+01 0. -1.
          5    1    3    3  503    0 -0.35457835456E+02  0.27224601739E+02  0.11247155415E+02  0.46336006949E+02  0.47000000000E+01 0. -1.
         -5    1    1    2    0  502 -0.24347425865E+02 -0.13666239496E+02 -0.35033066523E+02  0.45044078392E+02  0.47000000000E+01 0.  1.
<mgrwt>
<rscale>  0 0.10169699E+03</rscale>
<asrwt>0</asrwt>
<pdfrwt beam="1">  1        1 0.84843744E-02 0.12838410E+03</pdfrwt>
<pdfrwt beam="2">  1       -1 0.26874925E-01 0.12838410E+03</pdfrwt>
<totfact> 0.92633684E+03</totfact>
</mgrwt>
</event>
<event>
 7    1  0.1050440E-008  0.4881788E+03  0.7546771E-02  0.1016911E+00
         -1   -1    0    0    0  501 -0.00000000000E+00  0.00000000000E+00  0.15820868241E+03  0.15820868241E+03  0.00000000000E+00 0.  1.
          1   -1    0    0  501    0  0.00000000000E+00 -0.00000000000E+00 -0.37658886585E+03  0.37658886585E+03  0.00000000000E+00 0. -1.
         25    2    1    2    0    0 -0.14701598268E+03  0.10301169524E+03 -0.18641506330E+03  0.28740625439E+03  0.12500668269E+03 0.  0.
          5    1    1    2  502    0  0.17866874141E+03 -0.64103444148E+02 -0.45446769180E+02  0.19524156713E+03  0.47000000000E+01 0. -1.
         -5    1    1    2    0  502 -0.31652758728E+02 -0.38908251092E+02  0.13481649038E+02  0.52149726739E+02  0.47000000000E+01 0.  1.
          5    1    3    3  503    0 -0.74051638283E+02 -0.18647351049E+02 -0.58149932337E+02  0.96098249018E+02  0.47000000000E+01 0. -1.
         -5    1    3    3    0  503 -0.72964344395E+02  0.12165904629E+03 -0.12826513097E+03  0.19130800537E+03  0.47000000000E+01 0. -1.
<mgrwt>
<rscale>  0 0.48817877E+03</rscale>
<asrwt>0</asrwt>
<pdfrwt beam="1">  1        1 0.57936748E-01 0.48817877E+03</pdfrwt>
<pdfrwt beam="2">  1       -1 0.24339797E-01 0.48817877E+03</pdfrwt>
<totfact> 0.95631704E+02</totfact>
</mgrwt>
</event>
<event>
 7    1  0.1050440E-008  0.1514381E+03  0.7546771E-02  0.1207534E+00
         -1   -1    0    0    0  501 -0.00000000000E+00  0.00000000000E+00  0.76881991831E+03  0.76881991831E+03  0.00000000000E+00 0. -1.
          1   -1    0    0  501    0  0.00000000000E+00 -0.00000000000E+00 -0.25994449573E+02  0.25994449573E+02  0.00000000000E+00 0.  1.
         25    2    1    2    0    0  0.42699486602E+00 -0.66626015364E+01  0.41957578768E+03  0.43784960023E+03  0.12499543286E+03 0.  0.
          5    1    3    3  502    0 -0.35642066621E+02 -0.52664321318E+02  0.26389083739E+03  0.27148545396E+03  0.47000000000E+01 0.  1.
         -5    1    3    3    0  502  0.36069061487E+02  0.46001719781E+02  0.15568495029E+03  0.16636414627E+03  0.47000000000E+01 0.  1.
          5    1    1    2  503    0  0.31031658416E+02 -0.65196763055E+02  0.16941912957E+03  0.18422408420E+03  0.47000000000E+01 0. -1.
         -5    1    1    2    0  503 -0.31458653282E+02  0.71859364592E+02  0.15383055149E+03  0.17274068345E+03  0.47000000000E+01 0.  1.
<mgrwt>
<rscale>  0 0.14439578E+03</rscale>
<asrwt>0</asrwt>
<pdfrwt beam="1">  1        1 0.39991467E-02 0.15143807E+03</pdfrwt>
<pdfrwt beam="2">  1       -1 0.11827997E+00 0.15143807E+03</pdfrwt>
<totfact> 0.15253465E+03</totfact>
</mgrwt>
</event>
<event>
 7    1  0.1050440E-008  0.1965742E+03  0.7546771E-02  0.1154165E+00
         -1   -1    0    0    0  501 -0.00000000000E+00  0.00000000000E+00  0.46733753783E+02  0.46733753783E+02  0.00000000000E+00 0.  1.
          1   -1    0    0  501    0  0.00000000000E+00 -0.00000000000E+00 -0.93168715380E+03  0.93168715380E+03  0.00000000000E+00 0. -1.
         25    2    1    2    0    0 -0.13426176806E+03 -0.48508102373E+02 -0.62082198077E+03  0.64916901851E+03  0.12498489684E+03 0.  0.
          5    1    1    2  502    0  0.16012826819E+02  0.53928280280E+02 -0.16627305976E+03  0.17559467657E+03  0.47000000000E+01 0. -1.
         -5    1    3    3    0  503 -0.34747064629E+02 -0.70636275646E+02 -0.17713011669E+03  0.19389174860E+03  0.47000000000E+01 0.  1.
          5    1    3    3  503    0 -0.99514703426E+02  0.22128173273E+02 -0.44369186408E+03  0.45527726991E+03  0.47000000000E+01 0.  1.
         -5    1    1    2    0  502  0.11824894124E+03 -0.54201779069E+01 -0.97858359490E+02  0.15365721250E+03  0.47000000000E+01 0.  1.
<mgrwt>
<rscale>  0 0.19484235E+03</rscale>
<asrwt>0</asrwt>
<pdfrwt beam="1">  1        1 0.14333647E+00 0.19657416E+03</pdfrwt>
<pdfrwt beam="2">  1       -1 0.71898091E-02 0.19657416E+03</pdfrwt>
<totfact> 0.18240526E+03</totfact>
</mgrwt>
</event>
<event>
 7    1  0.1050440E-008  0.1649338E+03  0.7546771E-02  0.1190816E+00
         -2   -1    0    0    0  501 -0.00000000000E+00  0.00000000000E+00  0.30468909489E+02  0.30468909489E+02  0.00000000000E+00 0. -1.
          2   -1    0    0  501    0  0.00000000000E+00 -0.00000000000E+00 -0.15966673739E+04  0.15966673739E+04  0.00000000000E+00 0.  1.
         25    2    1    2    0    0 -0.73722084688E+02 -0.78382385246E+02 -0.14023811480E+04  0.14120467542E+04  0.12499763133E+03 0.  0.
          5    1    1    2  502    0  0.44552564488E+02  0.23192233072E+01 -0.18695512183E+02  0.48599608795E+02  0.47000000000E+01 0. -1.
         -5    1    1    2    0  502  0.29169520200E+02  0.76063161939E+02 -0.14512180421E+03  0.16648992033E+03  0.47000000000E+01 0.  1.
          5    1    3    3  503    0 -0.57733951368E+02  0.20580363963E+02 -0.40647990626E+03  0.41110189092E+03  0.47000000000E+01 0. -1.
         -5    1    3    3    0  503 -0.15988133320E+02 -0.98962749209E+02 -0.99590124172E+03  0.10009448633E+04  0.47000000000E+01 0. -1.
<mgrwt>
<rscale>  0 0.15813719E+03</rscale>
<asrwt>0</asrwt>
<pdfrwt beam="1">  1        2 0.24564115E+00 0.16493378E+03</pdfrwt>
<pdfrwt beam="2">  1       -2 0.46875242E-02 0.16493378E+03</pdfrwt>
<totfact> 0.26171332E+03</totfact>
</mgrwt>
</event>
<event>
 7    1  0.1050440E-008  0.2895854E+03  0.7546771E-02  0.1118639E+00
         -2   -1    0    0    0  501 -0.00000000000E+00  0.00000000000E+00  0.56423847375E+02  0.56423847375E+02  0.00000000000E+00 0. -1.
          2   -1    0    0  501    0  0.00000000000E+00 -0.00000000000E+00 -0.10461470221E+04  0.10461470221E+04  0.00000000000E+00 0.  1.
         25    2    1    2    0    0  0.60955655685E+02  0.20858105635E+02 -0.11659984253E+03  0.18267736381E+03  0.12499937376E+03 0.  0.
          5    1    1    2  502    0 -0.16042389658E+03  0.35422321539E+02 -0.38624086279E+03  0.41975547827E+03  0.47000000000E+01 0. -1.
         -5    1    3    3    0  503  0.22575595687E+02 -0.16557617351E+01  0.25074173020E+02  0.34105765204E+02  0.47000000000E+01 0. -1.
          5    1    3    3  503    0  0.38380059998E+02  0.22513867370E+02 -0.14167401555E+03  0.14857159861E+03  0.47000000000E+01 0. -1.
         -5    1    1    2    0  502  0.99468240891E+02 -0.56280427175E+02 -0.48688246945E+03  0.50013802744E+03  0.47000000000E+01 0.  1.
<mgrwt>
<rscale>  0 0.24173995E+03</rscale>
<asrwt>0</asrwt>
<pdfrwt beam="1">  1        2 0.16094568E+00 0.28958541E+03</pdfrwt>
<pdfrwt beam="2">  1       -2 0.86805929E-02 0.28958541E+03</pdfrwt>
<totfact> 0.20444287E+03</totfact>
</mgrwt>
</event>
<event>
 7    1  0.1050440E-008  0.6962223E+03  0.7546771E-02  0.9723714E-01
         -1   -1    0    0    0  501 -0.00000000000E+00  0.00000000000E+00  0.55635347412E+02  0.55635347412E+02  0.00000000000E+00 0.  1.
          1   -1    0    0  501    0  0.00000000000E+00 -0.00000000000E+00 -0.21781364013E+04  0.21781364013E+04  0.00000000000E+00 0. -1.
         25    2    1    2    0    0 -0.42953556630E+02 -0.19212176403E+03 -0.11768883182E+04  0.11997706713E+04  0.12501107897E+03 0.  0.
          5    1    1    2  502    0  0.82866963914E+02  0.21473054774E+03 -0.95879183031E+03  0.98604259833E+03  0.47000000000E+01 0. -1.
         -5    1    3    3    0  503 -0.45692070073E+02 -0.18396875622E+02 -0.43445138808E+03  0.43726000149E+03  0.47000000000E+01 0.  1.
          5    1    3    3  503    0  0.27385134436E+01 -0.17372488840E+03 -0.74243693013E+03  0.76251066978E+03  0.47000000000E+01 0.  1.
         -5    1    1    2    0  502 -0.39913407284E+02 -0.22608783710E+02  0.13179094648E+02  0.47958479101E+02  0.47000000000E+01 0.  1.
<mgrwt>
<rscale>  0 0.69622231E+03</rscale>
<asrwt>0</asrwt>
<pdfrwt beam="1">  1        1 0.33509788E+00 0.69622231E+03</pdfrwt>
<pdfrwt beam="2">  1       -1 0.85592849E-02 0.69622231E+03</pdfrwt>
<totfact> 0.18890970E+02</totfact>
</mgrwt>
</event>
<event>
 7    1  0.1050440E-008  0.2767331E+03  0.7546771E-02  0.1118290E+00
         -2   -1    0    0    0  501 -0.00000000000E+00  0.00000000000E+00  0.12479425746E+03  0.12479425746E+03  0.00000000000E+00 0. -1.
          2   -1    0    0  501    0  0.00000000000E+00 -0.00000000000E+00 -0.98899360710E+03  0.98899360710E+03  0.00000000000E+00 0.  1.
         25    2    1    2    0    0  0.69677351005E+02  0.77094614530E+02 -0.81705306509E+03  0.83306742672E+03  0.12500845354E+03 0.  0.
          5    1    1    2  502    0 -0.13430575314E+03 -0.74676453152E+02  0.51960157111E+02  0.16228541496E+03  0.47000000000E+01 0. -1.
         -5    1    3    3    0  503 -0.29516152589E+02  0.19236522087E+02 -0.86319754911E+02  0.93351149610E+02  0.47000000000E+01 0.  1.
          5    1    3    3  503    0  0.99193503594E+02  0.57858092442E+02 -0.73073331018E+03  0.73971627711E+03  0.47000000000E+01 0.  1.
         -5    1    1    2    0  502  0.64628402130E+02 -0.24181613771E+01 -0.99106441666E+02  0.11843502289E+03  0.47000000000E+01 0.  1.
<mgrwt>
<rscale>  0 0.24226962E+03</rscale>
<asrwt>0</asrwt>
<pdfrwt beam="1">  1        2 0.15215286E+00 0.27673307E+03</pdfrwt>
<pdfrwt beam="2">  1       -2 0.19199117E-01 0.27673307E+03</pdfrwt>
<totfact> 0.60380751E+02</totfact>
</mgrwt>
</event>
<event>
 7    1  0.1222875E-008  0.2144819E+03  0.7546771E-02  0.1142408E+00
         -3   -1    0    0    0  501 -0.00000000000E+00  0.00000000000E+00  0.23081057317E+03  0.23081057317E+03  0.00000000000E+00 0.  1.
          3   -1    0    0  501    0  0.00000000000E+00 -0.00000000000E+00 -0.27273043738E+03  0.27273043738E+03  0.00000000000E+00 0. -1.
         25    2    1    2    0    0  0.11153574606E+03 -0.96185250928E+02  0.12644831183E+03  0.23086840995E+03  0.12497688587E+03 0.  0.
          5    1    1    2  502    0 -0.81743013062E+02  0.12437176882E+02 -0.16379497215E+03  0.18354151153E+03  0.47000000000E+01 0. -1.
         -5    1    3    3    0  503 -0.26260469866E+02 -0.29560763898E+02  0.30556578548E+02  0.50192086352E+02  0.47000000000E+01 0.  1.
          5    1    3    3  503    0  0.13779621593E+03 -0.66624487031E+02  0.95891733284E+02  0.18067632360E+03  0.47000000000E+01 0.  1.
         -5    1    1    2    0  502 -0.29792733000E+02  0.83748074047E+02 -0.45732038879E+01  0.89131089076E+02  0.47000000000E+01 0.  1.
<mgrwt>
<rscale>  0 0.20894055E+03</rscale>
<asrwt>0</asrwt>
<pdfrwt beam="1">  1        3 0.41958529E-01 0.21448194E+03</pdfrwt>
<pdfrwt beam="2">  1       -3 0.35509319E-01 0.21448194E+03</pdfrwt>
<totfact> 0.10863356E+02</totfact>
</mgrwt>
</event>
<event>
 7    1  0.1050440E-008  0.2062390E+03  0.7546771E-02  0.1151749E+00
         -2   -1    0    0    0  501 -0.00000000000E+00  0.00000000000E+00  0.66933841957E+02  0.66933841957E+02  0.00000000000E+00 0. -1.
          2   -1    0    0  501    0  0.00000000000E+00 -0.00000000000E+00 -0.66390438096E+03  0.66390438096E+03  0.00000000000E+00 0.  1.
         25    2    1    2    0    0  0.40331265791E+02  0.15899271050E+03 -0.16158451439E+03  0.26200012476E+03  0.12501686723E+03 0.  0.
          5    1    3    3  502    0 -0.15470917749E+02  0.42125640868E+02 -0.11626355416E+03  0.12471256127E+03  0.47000000000E+01 0.  1.
         -5    1    1    2    0  503 -0.26212658000E+02 -0.20642499345E+02 -0.65797161530E+02  0.73922748082E+02  0.47000000000E+01 0.  1.
          5    1    1    2  503    0 -0.14118607790E+02 -0.13835021115E+03 -0.36958886308E+03  0.39491535008E+03  0.47000000000E+01 0. -1.
         -5    1    3    3    0  502  0.55802183539E+02  0.11686706963E+03 -0.45320960235E+02  0.13728756348E+03  0.47000000000E+01 0.  1.
<mgrwt>
<rscale>  0 0.19763572E+03</rscale>
<asrwt>0</asrwt>
<pdfrwt beam="1">  1        2 0.10213913E+00 0.20623896E+03</pdfrwt>
<pdfrwt beam="2">  1       -2 0.10297515E-01 0.20623896E+03</pdfrwt>
<totfact> 0.28067066E+03</totfact>
</mgrwt>
</event>
<event>
 7    1  0.1050440E-008  0.1514450E+03  0.7546771E-02  0.1205577E+00
         -1   -1    0    0    0  501 -0.00000000000E+00  0.00000000000E+00  0.33700178164E+03  0.33700178164E+03  0.00000000000E+00 0.  1.
          1   -1    0    0  501    0  0.00000000000E+00 -0.00000000000E+00 -0.10634066899E+03  0.10634066899E+03  0.00000000000E+00 0. -1.
         25    2    1    2    0    0  0.37575732562E+02 -0.80795305792E+00 -0.37118572915E+02  0.13570378579E+03  0.12500056223E+03 0.  0.
          5    1    3    3  502    0  0.11386953125E+02 -0.54273700829E+02 -0.49765232695E+02  0.74658996031E+02  0.47000000000E+01 0.  1.
         -5    1    3    3    0  502  0.26188779438E+02  0.53465747772E+02  0.12646659779E+02  0.61044789759E+02  0.47000000000E+01 0.  1.
          5    1    1    2  503    0 -0.47364300672E+02 -0.36485779046E+02  0.30653349204E+02  0.67352111089E+02  0.47000000000E+01 0. -1.
         -5    1    1    2    0  503  0.97885681097E+01  0.37293732104E+02  0.23712633636E+03  0.24028655375E+03  0.47000000000E+01 0.  1.
<mgrwt>
<rscale>  0 0.14592096E+03</rscale>
<asrwt>0</asrwt>
<pdfrwt beam="1">  1        1 0.16360103E-01 0.15144500E+03</pdfrwt>
<pdfrwt beam="2">  1       -1 0.51846428E-01 0.15144500E+03</pdfrwt>
<totfact> 0.12578759E+03</totfact>
</mgrwt>
</event>
<event>
 7    1  0.1086979E-008  0.1716633E+03  0.7546771E-02  0.1189713E+00
          2   -1    0    0  501    0  0.00000000000E+00  0.00000000000E+00  0.33707413367E+03  0.33707413367E+03  0.00000000000E+00 0. -1.
         -2   -1    0    0    0  501 -0.00000000000E+00 -0.00000000000E+00 -0.45785831422E+03  0.45785831422E+03  0.00000000000E+00 0.  1.
         25    2    1    2    0    0  0.72983889338E+02  0.92281417305E+02 -0.42880071860E+03  0.46188565113E+03  0.12500316143E+03 0.  0.
          5    1    3    3  502    0  0.61110392308E+02 -0.11127982952E+02 -0.21822287609E+03  0.22693969618E+03  0.47000000000E+01 0.  1.
         -5    1    1    2    0  503 -0.26268146933E+02 -0.27704625308E+02  0.50779567151E+02  0.63704130532E+02  0.47000000000E+01 0.  1.
          5    1    1    2  503    0 -0.46715742405E+02 -0.64576791996E+02  0.25723697090E+03  0.26934266623E+03  0.47000000000E+01 0. -1.
         -5    1    3    3    0  502  0.11873497030E+02  0.10340940026E+03 -0.21057784251E+03  0.23494595496E+03  0.47000000000E+01 0.  1.
<mgrwt>
<rscale>  0 0.15910321E+03</rscale>
<asrwt>0</asrwt>
<pdfrwt beam="1">  1        2 0.51857559E-01 0.17166333E+03</pdfrwt>
<pdfrwt beam="2">  1       -2 0.70439740E-01 0.17166333E+03</pdfrwt>
<totfact> 0.18417210E+02</totfact>
</mgrwt>
</event>
<event>
 7    1  0.1050440E-008  0.1597118E+03  0.7546771E-02  0.1199867E+00
          1   -1    0    0  501    0  0.00000000000E+00  0.00000000000E+00  0.47635356986E+02  0.47635356986E+02  0.00000000000E+00 0. -1.
         -1   -1    0    0    0  501 -0.00000000000E+00 -0.00000000000E+00 -0.44290531706E+03  0.44290531706E+03  0.00000000000E+00 0.  1.
         25    2    1    2    0    0 -0.95311614115E+02  0.28133858979E+02 -0.26470083273E+03  0.30915108813E+03  0.12502818337E+03 0.  0.
          5    1    1    2  502    0  0.76366132418E+02 -0.37456971727E+02 -0.51791335569E+02  0.99695753929E+02  0.47000000000E+01 0. -1.
         -5    1    1    2    0  502  0.18945481697E+02  0.93231127486E+01 -0.78777791776E+02  0.81693831990E+02  0.47000000000E+01 0.  1.
          5    1    3    3  503    0 -0.10296055698E+03  0.63026165042E+02 -0.17661239980E+03  0.21397944653E+03  0.47000000000E+01 0. -1.
         -5    1    3    3    0  503  0.76489428616E+01 -0.34892306063E+02 -0.88088432928E+02  0.95171641601E+02  0.47000000000E+01 0. -1.
<mgrwt>
<rscale>  0 0.15049420E+03</rscale>
<asrwt>0</asrwt>
<pdfrwt beam="1">  1        1 0.73285170E-02 0.15971182E+03</pdfrwt>
<pdfrwt beam="2">  1       -1 0.68139275E-01 0.15971182E+03</pdfrwt>
<totfact> 0.21688654E+03</totfact>
</mgrwt>
</event>
<event>
 7    1  0.1050440E-008  0.1437010E+03  0.7546771E-02  0.1216667E+00
          2   -1    0    0  501    0  0.00000000000E+00  0.00000000000E+00  0.12883094374E+03  0.12883094374E+03  0.00000000000E+00 0.  1.
         -2   -1    0    0    0  501 -0.00000000000E+00 -0.00000000000E+00 -0.14249857655E+03  0.14249857655E+03  0.00000000000E+00 0. -1.
         25    2    1    2    0    0  0.53126225008E+02 -0.46920331897E+02 -0.37185947163E+02  0.14843442208E+03  0.12500427858E+03 0.  0.
          5    1    1    2  502    0 -0.17382450966E+02 -0.23768819175E+02 -0.16439668645E+02  0.34050830705E+02  0.47000000000E+01 0. -1.
         -5    1    3    3    0  503  0.99282833399E+01  0.28175600492E+02 -0.52254334349E+02  0.60374172718E+02  0.47000000000E+01 0. -1.
          5    1    3    3  503    0  0.43197941668E+02 -0.75095932389E+02  0.15068387185E+02  0.88060249364E+02  0.47000000000E+01 0. -1.
         -5    1    1    2    0  502 -0.35743774042E+02  0.70689151072E+02  0.39957983008E+02  0.88844267503E+02  0.47000000000E+01 0.  1.
<mgrwt>
<rscale>  0 0.13754763E+03</rscale>
<asrwt>0</asrwt>
<pdfrwt beam="1">  1        2 0.19820145E-01 0.14370102E+03</pdfrwt>
<pdfrwt beam="2">  1       -2 0.21922858E-01 0.14370102E+03</pdfrwt>
<totfact> 0.48178063E+03</totfact>
</mgrwt>
</event>
<event>
 7    1  0.1050440E-008  0.1691642E+03  0.7546771E-02  0.1182786E+00
          1   -1    0    0  501    0  0.00000000000E+00  0.00000000000E+00  0.32212511005E+03  0.32212511005E+03  0.00000000000E+00 0. -1.
         -1   -1    0    0    0  501 -0.00000000000E+00 -0.00000000000E+00 -0.82664409822E+02  0.82664409822E+02  0.00000000000E+00 0.  1.
         25    2    1    2    0    0  0.76843545432E+02  0.48099657039E+02  0.14071894082E+03  0.20891591410E+03  0.12500212549E+03 0.  0.
          5    1    3    3  502    0  0.22789013198E+02  0.85169613296E+02  0.88158489725E+02  0.12476863172E+03  0.47000000000E+01 0. -1.
         -5    1    3    3    0  502  0.54054532234E+02 -0.37069956257E+02  0.52560451092E+02  0.84147282374E+02  0.47000000000E+01 0. -1.
          5    1    1    2  503    0 -0.11323372049E+02 -0.45303459114E+02  0.11830693322E+03  0.12727624527E+03  0.47000000000E+01 0. -1.
         -5    1    1    2    0  503 -0.65520173382E+02 -0.27961979245E+01 -0.19565173804E+02  0.68597360509E+02  0.47000000000E+01 0.  1.
<mgrwt>
<rscale>  0 0.16534987E+03</rscale>
<asrwt>0</asrwt>
<pdfrwt beam="1">  1        1 0.49557708E-01 0.16916422E+03</pdfrwt>
<pdfrwt beam="2">  1       -1 0.12717602E-01 0.16916422E+03</pdfrwt>
<totfact> 0.32700454E+03</totfact>
</mgrwt>
</event>
<event>
 7    1  0.1050440E-008  0.1339176E+03  0.7546771E-02  0.1266922E+00
         -1   -1    0    0    0  501 -0.00000000000E+00  0.00000000000E+00  0.39113554650E+02  0.39113554650E+02  0.00000000000E+00 0.  1.
          1   -1    0    0  501    0  0.00000000000E+00 -0.00000000000E+00 -0.28139526462E+03  0.28139526462E+03  0.00000000000E+00 0. -1.
         25    2    1    2    0    0 -0.26100072233E+02 -0.40349663064E+02 -0.96398148735E+02  0.16500463685E+03  0.12499847208E+03 0.  0.
          5    1    3    3  502    0 -0.13288525393E+02  0.27561693490E+02 -0.90310357983E+02  0.95468752029E+02  0.47000000000E+01 0.  1.
         -5    1    1    2    0  503  0.19298422639E+02  0.15248514089E+02 -0.93994076116E+02  0.97272414605E+02  0.47000000000E+01 0.  1.
          5    1    1    2  503    0  0.68016495940E+01  0.25101148975E+02 -0.51889485123E+02  0.58231767820E+02  0.47000000000E+01 0. -1.
         -5    1    3    3    0  502 -0.12811546841E+02 -0.67911356554E+02 -0.60877907526E+01  0.69535884820E+02  0.47000000000E+01 0.  1.
<mgrwt>
<rscale>  0 0.10663981E+03</rscale>
<asrwt>0</asrwt>
<pdfrwt beam="1">  1        1 0.43291579E-01 0.13391761E+03</pdfrwt>
<pdfrwt beam="2">  1       -1 0.60174700E-02 0.13391761E+03</pdfrwt>
<totfact> 0.11898906E+04</totfact>
</mgrwt>
</event>
<event>
 7    1  0.1050440E-008  0.4750232E+03  0.7546771E-02  0.1020512E+00
         -1   -1    0    0    0  501 -0.00000000000E+00  0.00000000000E+00  0.69318340281E+02  0.69318340281E+02  0.00000000000E+00 0.  1.
          1   -1    0    0  501    0  0.00000000000E+00 -0.00000000000E+00 -0.81380724346E+03  0.81380724346E+03  0.00000000000E+00 0. -1.
         25    2    1    2    0    0 -0.37026399464E+02 -0.14659716615E+03 -0.42715301456E+03  0.47004917534E+03  0.12499938404E+03 0.  0.
          5    1    1    2  502    0 -0.43518750247E+02  0.51355386059E+02 -0.27204899591E+03  0.28029271035E+03  0.47000000000E+01 0. -1.
         -5    1    3    3    0  503 -0.61123076611E+02 -0.40535070652E+02 -0.26301018171E+03  0.27308527630E+03  0.47000000000E+01 0.  1.
          5    1    3    3  503    0  0.24096677146E+02 -0.10606209550E+03 -0.16414283285E+03  0.19696389904E+03  0.47000000000E+01 0.  1.
         -5    1    1    2    0  502  0.80545149711E+02  0.95241780089E+02 -0.45286892712E+02  0.13278369805E+03  0.47000000000E+01 0.  1.
<mgrwt>
<rscale>  0 0.47502323E+03</rscale>
<asrwt>0</asrwt>
<pdfrwt beam="1">  1        1 0.12520112E+00 0.47502323E+03</pdfrwt>
<pdfrwt beam="2">  1       -1 0.10664360E-01 0.47502323E+03</pdfrwt>
<totfact> 0.12355593E+03</totfact>
</mgrwt>
</event>
<event>
 7    1  0.1050440E-008  0.3784429E+03  0.7546771E-02  0.1078724E+00
          1   -1    0    0  501    0  0.00000000000E+00  0.00000000000E+00  0.66364434613E+02  0.66364434613E+02  0.00000000000E+00 0. -1.
         -1   -1    0    0    0  501 -0.00000000000E+00 -0.00000000000E+00 -0.11973042651E+04  0.11973042651E+04  0.00000000000E+00 0.  1.
         25    2    1    2    0    0 -0.79851665486E+02 -0.98418977789E+02 -0.46187998984E+03  0.49499443320E+03  0.12499512077E+03 0.  0.
          5    1    1    2  502    0 -0.45690578023E+02  0.18813579318E+03 -0.21634463555E+03  0.29036149353E+03  0.47000000000E+01 0. -1.
         -5    1    1    2    0  502  0.12554224351E+03 -0.89716815387E+02 -0.45271520508E+03  0.47831277296E+03  0.47000000000E+01 0.  1.
          5    1    3    3  503    0  0.36243260360E+01 -0.76495453654E+02 -0.12058810149E+03  0.14292750046E+03  0.47000000000E+01 0.  1.
         -5    1    3    3    0  503 -0.83475991522E+02 -0.21923524135E+02 -0.34129188836E+03  0.35206693274E+03  0.47000000000E+01 0.  1.
<mgrwt>
<rscale>  0 0.31340748E+03</rscale>
<asrwt>0</asrwt>
<pdfrwt beam="1">  1        1 0.10209914E-01 0.37844294E+03</pdfrwt>
<pdfrwt beam="2">  1       -1 0.18420065E+00 0.37844294E+03</pdfrwt>
<totfact> 0.13227470E+02</totfact>
</mgrwt>
</event>
<event>
 7    1  0.1050440E-008  0.2771278E+03  0.7546771E-02  0.1128346E+00
         -1   -1    0    0    0  501 -0.00000000000E+00  0.00000000000E+00  0.23126802749E+03  0.23126802749E+03  0.00000000000E+00 0.  1.
          1   -1    0    0  501    0  0.00000000000E+00 -0.00000000000E+00 -0.17973726624E+03  0.17973726624E+03  0.00000000000E+00 0. -1.
         25    2    1    2    0    0 -0.12771038706E+02 -0.10179068962E+02 -0.12173198368E+02  0.12664983376E+03  0.12500112303E+03 0.  0.
          5    1    3    3  502    0  0.37664331698E+02 -0.33713493966E+02 -0.39637810568E+02  0.64408443424E+02  0.47000000000E+01 0. -1.
         -5    1    1    2    0  503 -0.47207001042E+02 -0.10791177802E+03  0.91151402859E+02  0.14901047287E+03  0.47000000000E+01 0.  1.
          5    1    1    2  503    0  0.59978039748E+02  0.11809084698E+03 -0.27447443237E+02  0.13534498710E+03  0.47000000000E+01 0. -1.
         -5    1    3    3    0  502 -0.50435370404E+02  0.23534425003E+02  0.27464612200E+02  0.62241390339E+02  0.47000000000E+01 0. -1.
<mgrwt>
<rscale>  0 0.22759221E+03</rscale>
<asrwt>0</asrwt>
<pdfrwt beam="1">  1        1 0.27651887E-01 0.27712783E+03</pdfrwt>
<pdfrwt beam="2">  1       -1 0.35579697E-01 0.27712783E+03</pdfrwt>
<totfact> 0.12771899E+03</totfact>
</mgrwt>
</event>
<event>
 7    1  0.1050440E-008  0.6000714E+03  0.7546771E-02  0.9905258E-01
          3   -1    0    0  501    0  0.00000000000E+00  0.00000000000E+00  0.28588170420E+03  0.28588170420E+03  0.00000000000E+00 0. -1.
         -3   -1    0    0    0  501 -0.00000000000E+00 -0.00000000000E+00 -0.31489046367E+03  0.31489046367E+03  0.00000000000E+00 0.  1.
         25    2    1    2    0    0 -0.77269645027E+02  0.94220203347E+02  0.22190957230E+03  0.28235055936E+03  0.12501973977E+03 0.  0.
          5    1    1    2  502    0  0.14150229871E+01  0.34755645572E+02 -0.13214832861E+02  0.37505719520E+02  0.47000000000E+01 0. -1.
         -5    1    3    3    0  503 -0.79255799269E+02  0.12240733767E+03  0.18750026813E+03  0.23757836303E+03  0.47000000000E+01 0.  1.
          5    1    3    3  503    0  0.19861542423E+01 -0.28187134328E+02  0.34409304171E+02  0.44772196325E+02  0.47000000000E+01 0.  1.
         -5    1    1    2    0  502  0.75854622040E+02 -0.12897584892E+03 -0.23770349891E+03  0.28091588898E+03  0.47000000000E+01 0.  1.
<mgrwt>
<rscale>  0 0.60007140E+03</rscale>
<asrwt>0</asrwt>
<pdfrwt beam="1">  1        3 0.43981801E-01 0.60007140E+03</pdfrwt>
<pdfrwt beam="2">  1       -3 0.48444687E-01 0.60007140E+03</pdfrwt>
<totfact> 0.57192789E+01</totfact>
</mgrwt>
</event>
<event>
 7    1  0.1050440E-008  0.2613292E+03  0.7546771E-02  0.1107492E+00
          2   -1    0    0  501    0  0.00000000000E+00  0.00000000000E+00  0.21178614410E+03  0.21178614410E+03  0.00000000000E+00 0. -1.
         -2   -1    0    0    0  501 -0.00000000000E+00 -0.00000000000E+00 -0.32801467990E+03  0.32801467990E+03  0.00000000000E+00 0.  1.
         25    2    1    2    0    0  0.22770470632E+03 -0.28606527170E+02 -0.16010759906E+01  0.26133410224E+03  0.12500073148E+03 0.  0.
          5    1    3    3  502    0  0.16832744236E+03 -0.24872093364E+02 -0.57394714408E+02  0.17963572062E+03  0.47000000000E+01 0.  1.
         -5    1    1    2    0  503 -0.18868994400E+03  0.30396952448E+02 -0.41803719695E+02  0.19569749786E+03  0.47000000000E+01 0.  1.
          5    1    1    2  503    0 -0.39014762316E+02 -0.17904252779E+01 -0.72823740115E+02  0.82769223904E+02  0.47000000000E+01 0. -1.
         -5    1    3    3    0  502  0.59377263962E+02 -0.37344338061E+01  0.55793638418E+02  0.81698381620E+02  0.47000000000E+01 0.  1.
<mgrwt>
<rscale>  0 0.25942109E+03</rscale>
<asrwt>0</asrwt>
<pdfrwt beam="1">  1        2 0.32582484E-01 0.26132920E+03</pdfrwt>
<pdfrwt beam="2">  1       -2 0.50463797E-01 0.26132920E+03</pdfrwt>
<totfact> 0.60501582E+02</totfact>
</mgrwt>
</event>
<event>
 7    1  0.1050440E-008  0.1253817E+03  0.7546771E-02  0.1258315E+00
          1   -1    0    0  501    0  0.00000000000E+00  0.00000000000E+00  0.18205518353E+03  0.18205518353E+03  0.00000000000E+00 0. -1.
         -1   -1    0    0    0  501 -0.00000000000E+00 -0.00000000000E+00 -0.59639636766E+02  0.59639636766E+02  0.00000000000E+00 0.  1.
         25    2    1    2    0    0 -0.43449337650E+01 -0.87797500868E+01  0.48331696054E+02  0.13437456438E+03  0.12499843298E+03 0.  0.
          5    1    1    2  502    0 -0.11301277742E+02  0.26493695091E+02  0.77656713289E+02  0.82959567724E+02  0.47000000000E+01 0. -1.
         -5    1    3    3    0  503 -0.47703837188E+02 -0.81706102168E+01  0.70346236128E+02  0.85516652713E+02  0.47000000000E+01 0.  1.
          5    1    3    3  503    0  0.43358903423E+02 -0.60913987004E+00 -0.22014540074E+02  0.48857911663E+02  0.47000000000E+01 0.  1.
         -5    1    1    2    0  502  0.15646211507E+02 -0.17713945004E+02 -0.35728625822E+01  0.24360688192E+02  0.47000000000E+01 0.  1.
<mgrwt>
<rscale>  0 0.11122650E+03</rscale>
<asrwt>0</asrwt>
<pdfrwt beam="1">  1        1 0.28008490E-01 0.12538170E+03</pdfrwt>
<pdfrwt beam="2">  1       -1 0.91753288E-02 0.12538170E+03</pdfrwt>
<totfact> 0.10765711E+04</totfact>
</mgrwt>
</event>
<event>
 7    1  0.1268656E-008  0.2605012E+03  0.7546771E-02  0.1122416E+00
          1   -1    0    0  501    0  0.00000000000E+00  0.00000000000E+00  0.62789096165E+03  0.62789096165E+03  0.00000000000E+00 0. -1.
         -1   -1    0    0    0  501 -0.00000000000E+00 -0.00000000000E+00 -0.11703648761E+03  0.11703648761E+03  0.00000000000E+00 0.  1.
         25    2    1    2    0    0  0.71248781934E+02  0.10099229178E+03  0.49053070010E+01  0.17585326235E+03  0.12499790365E+03 0.  0.
          5    1    1    2  502    0 -0.40742694717E+02 -0.17082880967E+03  0.27979089159E+03  0.33037476054E+03  0.47000000000E+01 0. -1.
         -5    1    3    3    0  503 -0.50623990530E+00  0.49424777016E+02  0.55059947862E+02  0.74140088485E+02  0.47000000000E+01 0.  1.
          5    1    3    3  503    0  0.71755021840E+02  0.51567514768E+02 -0.50154640861E+02  0.10171317387E+03  0.47000000000E+01 0.  1.
         -5    1    1    2    0  502 -0.30506087217E+02  0.69836517888E+02  0.22615827545E+03  0.23869942636E+03  0.47000000000E+01 0.  1.
<mgrwt>
<rscale>  0 0.23610361E+03</rscale>
<asrwt>0</asrwt>
<pdfrwt beam="1">  1        1 0.96598608E-01 0.26050119E+03</pdfrwt>
<pdfrwt beam="2">  1       -1 0.18005614E-01 0.26050119E+03</pdfrwt>
<totfact> 0.79224044E+02</totfact>
</mgrwt>
</event>
<event>
 7    1  0.1050440E-008  0.4111757E+03  0.7546771E-02  0.1070933E+00
          1   -1    0    0  501    0  0.00000000000E+00  0.00000000000E+00  0.89974497264E+03  0.89974497264E+03  0.00000000000E+00 0. -1.
         -1   -1    0    0    0  501 -0.00000000000E+00 -0.00000000000E+00 -0.94775885789E+02  0.94775885789E+02  0.00000000000E+00 0.  1.
         25    2    1    2    0    0  0.24959051825E+02  0.11480344788E+03  0.26803437394E+03  0.31823367655E+03  0.12500984508E+03 0.  0.
          5    1    1    2  502    0  0.13584094201E+03 -0.27787548752E+02  0.36465661470E+02  0.14344596146E+03  0.47000000000E+01 0. -1.
         -5    1    3    3    0  503 -0.34662114521E+02  0.86756865726E+02  0.96392735040E+02  0.13432001080E+03  0.47000000000E+01 0. -1.
          5    1    3    3  503    0  0.59621166346E+02  0.28046582158E+02  0.17164163890E+03  0.18391366575E+03  0.47000000000E+01 0. -1.
         -5    1    1    2    0  502 -0.16079999384E+03 -0.87015899132E+02  0.50046905144E+03  0.53284122041E+03  0.47000000000E+01 0.  1.
<mgrwt>
<rscale>  0 0.33046071E+03</rscale>
<asrwt>0</asrwt>
<pdfrwt beam="1">  1        1 0.13842230E+00 0.41117571E+03</pdfrwt>
<pdfrwt beam="2">  1       -1 0.14580906E-01 0.41117571E+03</pdfrwt>
<totfact> 0.63992615E+02</totfact>
</mgrwt>
</event>
<event>
 7    1  0.1050440E-008  0.6913602E+03  0.7546771E-02  0.9732123E-01
         -2   -1    0    0    0  501 -0.00000000000E+00  0.00000000000E+00  0.19986336374E+03  0.19986336374E+03  0.00000000000E+00 0. -1.
          2   -1    0    0  501    0  0.00000000000E+00 -0.00000000000E+00 -0.59788207996E+03  0.59788207996E+03  0.00000000000E+00 0.  1.
         25    2    1    2    0    0 -0.26196727415E+03  0.62528656639E+02 -0.35361135582E+03  0.46173137397E+03  0.12497273748E+03 0.  0.
          5    1    3    3  502    0 -0.71300081878E+02  0.15755231525E+02 -0.19827369898E+03  0.21134445510E+03  0.47000000000E+01 0. -1.
         -5    1    3    3    0  502 -0.19066719227E+03  0.46773425114E+02 -0.15533765685E+03  0.25038691887E+03  0.47000000000E+01 0. -1.
          5    1    1    2  503    0  0.55141452539E+01 -0.62410990278E+02  0.29029264302E+02  0.69212178778E+02  0.47000000000E+01 0. -1.
         -5    1    1    2    0  503  0.25645312890E+03 -0.11766636116E+00 -0.73436624698E+02  0.26680189095E+03  0.47000000000E+01 0.  1.
<mgrwt>
<rscale>  0 0.69136018E+03</rscale>
<asrwt>0</asrwt>
<pdfrwt beam="1">  1        2 0.91981859E-01 0.69136018E+03</pdfrwt>
<pdfrwt beam="2">  1       -2 0.30748209E-01 0.69136018E+03</pdfrwt>
<totfact> 0.49077286E+02</totfact>
</mgrwt>
</event>
<event>
 7    1  0.1050440E-008  0.4513366E+03  0.7546771E-02  0.1063516E+00
         -2   -1    0    0    0  501 -0.00000000000E+00  0.00000000000E+00  0.86573004464E+02  0.86573004464E+02  0.00000000000E+00 0.  1.
          2   -1    0    0  501    0  0.00000000000E+00 -0.00000000000E+00 -0.13308574362E+04  0.13308574362E+04  0.00000000000E+00 0. -1.
         25    2    1    2    0    0  0.10962079827E+01  0.98551427270E+02 -0.66111480380E+03  0.68000819918E+03  0.12499912664E+03 0.  0.
          5    1    3    3  502    0  0.34443876258E+02  0.11005114802E+03 -0.39470157025E+03  0.41122871416E+03  0.47000000000E+01 0.  1.
         -5    1    1    2    0  503 -0.15285674296E+03  0.10226298820E+03 -0.15425820053E+03  0.24008453731E+03  0.47000000000E+01 0.  1.
          5    1    1    2  503    0  0.15176053498E+03 -0.20081441546E+03 -0.42891142740E+03  0.49733770417E+03  0.47000000000E+01 0.  1.
         -5    1    3    3    0  502 -0.33347668276E+02 -0.11499720751E+02 -0.26641323355E+03  0.26877948502E+03  0.47000000000E+01 0.  1.
<mgrwt>
<rscale>  0 0.34781456E+03</rscale>
<asrwt>0</asrwt>
<pdfrwt beam="1">  1        2 0.20474728E+00 0.45133662E+03</pdfrwt>
<pdfrwt beam="2">  1       -2 0.13318925E-01 0.45133662E+03</pdfrwt>
<totfact> 0.69562508E+02</totfact>
</mgrwt>
</event>
<event>
 7    1  0.1050440E-008  0.3386676E+03  0.7546771E-02  0.1097569E+00
         -1   -1    0    0    0  501 -0.00000000000E+00  0.00000000000E+00  0.90919484693E+02  0.90919484693E+02  0.00000000000E+00 0.  1.
          1   -1    0    0  501    0  0.00000000000E+00 -0.00000000000E+00 -0.67746480384E+03  0.67746480384E+03  0.00000000000E+00 0. -1.
         25    2    1    2    0    0 -0.33285502795E+02 -0.77229560765E+02 -0.24343057083E+03  0.28628111039E+03  0.12500440632E+03 0.  0.
          5    1    1    2  502    0 -0.39531838819E+02  0.72934243897E+02 -0.38768613212E+03  0.39649060172E+03  0.47000000000E+01 0. -1.
         -5    1    3    3    0  503 -0.29511835705E+02 -0.10986944599E+02 -0.20894448208E+03  0.21135644772E+03  0.47000000000E+01 0. -1.
          5    1    3    3  503    0 -0.37736670902E+01 -0.66242616166E+02 -0.34486088749E+02  0.74924662675E+02  0.47000000000E+01 0. -1.
         -5    1    1    2    0  502  0.72817341614E+02  0.42953168679E+01  0.44571383807E+02  0.85612576419E+02  0.47000000000E+01 0.  1.
<mgrwt>
<rscale>  0 0.27658570E+03</rscale>
<asrwt>0</asrwt>
<pdfrwt beam="1">  1        1 0.10422535E+00 0.33866760E+03</pdfrwt>
<pdfrwt beam="2">  1       -1 0.13987613E-01 0.33866760E+03</pdfrwt>
<totfact> 0.10638175E+03</totfact>
</mgrwt>
</event>
<event>
 7    1  0.1050440E-008  0.4097158E+03  0.7546771E-02  0.1040466E+00
          3   -1    0    0  501    0  0.00000000000E+00  0.00000000000E+00  0.15694391208E+03  0.15694391208E+03  0.00000000000E+00 0. -1.
         -3   -1    0    0    0  501 -0.00000000000E+00 -0.00000000000E+00 -0.26739976612E+03  0.26739976612E+03  0.00000000000E+00 0.  1.
         25    2    1    2    0    0 -0.42734727257E+02 -0.10369361219E+03 -0.98002715101E+02  0.19445264006E+03  0.12501469888E+03 0.  0.
          5    1    1    2  502    0  0.91460385237E+02  0.12052747499E+03 -0.56847812015E+02  0.16169612866E+03  0.47000000000E+01 0. -1.
         -5    1    3    3    0  503 -0.16436184924E+02 -0.79798674101E+02 -0.12520718733E+03  0.14945536565E+03  0.47000000000E+01 0. -1.
          5    1    3    3  503    0 -0.26298542333E+02 -0.23894938089E+02  0.27204472227E+02  0.44997274409E+02  0.47000000000E+01 0. -1.
         -5    1    1    2    0  502 -0.48725657981E+02 -0.16833862796E+02  0.44394673072E+02  0.68194909484E+02  0.47000000000E+01 0.  1.
<mgrwt>
<rscale>  0 0.40971583E+03</rscale>
<asrwt>0</asrwt>
<pdfrwt beam="1">  1        3 0.24145217E-01 0.40971583E+03</pdfrwt>
<pdfrwt beam="2">  1       -3 0.41138425E-01 0.40971583E+03</pdfrwt>
<totfact> 0.24545890E+02</totfact>
</mgrwt>
</event>
<event>
 7    1  0.1050440E-008  0.1225494E+04  0.7546771E-02  0.9090830E-01
         -2   -1    0    0    0  501 -0.00000000000E+00  0.00000000000E+00  0.46941832425E+03  0.46941832425E+03  0.00000000000E+00 0.  1.
          2   -1    0    0  501    0  0.00000000000E+00 -0.00000000000E+00 -0.79983828535E+03  0.79983828535E+03  0.00000000000E+00 0. -1.
         25    2    1    2    0    0 -0.16317730616E+02  0.22447774645E+03 -0.40174931343E+02  0.26056603358E+03  0.12499642300E+03 0.  0.
          5    1    1    2  502    0 -0.11220583165E+03 -0.57698611042E+03 -0.21557046183E+03  0.62609570697E+03  0.47000000000E+01 0. -1.
         -5    1    3    3    0  503 -0.24964271705E+02  0.30606781857E+02 -0.52718855544E+02  0.66040576067E+02  0.47000000000E+01 0.  1.
          5    1    3    3  503    0  0.86465410882E+01  0.19387096460E+03  0.12543924202E+02  0.19452545751E+03  0.47000000000E+01 0.  1.
         -5    1    1    2    0  502  0.12852356226E+03  0.35250836397E+03 -0.74674567928E+02  0.38259486904E+03  0.47000000000E+01 0.  1.
<mgrwt>
<rscale>  0 0.12254938E+04</rscale>
<asrwt>0</asrwt>
<pdfrwt beam="1">  1        2 0.12305204E+00 0.12254938E+04</pdfrwt>
<pdfrwt beam="2">  1       -2 0.72218204E-01 0.12254938E+04</pdfrwt>
<totfact> 0.58947885E+01</totfact>
</mgrwt>
</event>
<event>
 7    1  0.1050440E-008  0.4584719E+03  0.7546771E-02  0.1025225E+00
          2   -1    0    0  501    0  0.00000000000E+00  0.00000000000E+00  0.11251932457E+04  0.11251932457E+04  0.00000000000E+00 0. -1.
         -2   -1    0    0    0  501 -0.00000000000E+00 -0.00000000000E+00 -0.46702310872E+02  0.46702310872E+02  0.00000000000E+00 0.  1.
         25    2    1    2    0    0  0.12835950190E+03 -0.12679766076E+02  0.42741653391E+03  0.46362278059E+03  0.12499700406E+03 0.  0.
          5    1    1    2  502    0 -0.17436202587E+03  0.83939746481E+02  0.43657152331E+03  0.47756128620E+03  0.47000000000E+01 0. -1.
         -5    1    1    2    0  502  0.46002523974E+02 -0.71259980406E+02  0.21450287758E+03  0.23071148977E+03  0.47000000000E+01 0.  1.
          5    1    3    3  503    0 -0.23384718436E+02 -0.44446591289E+01  0.95615061563E+02  0.98645476576E+02  0.47000000000E+01 0.  1.
         -5    1    3    3    0  503  0.15174422033E+03 -0.82351069467E+01  0.33180147235E+03  0.36497730401E+03  0.47000000000E+01 0.  1.
<mgrwt>
<rscale>  0 0.45847192E+03</rscale>
<asrwt>0</asrwt>
<pdfrwt beam="1">  1        2 0.17310663E+00 0.45847192E+03</pdfrwt>
<pdfrwt beam="2">  1       -2 0.71849718E-02 0.45847192E+03</pdfrwt>
<totfact> 0.24726302E+03</totfact>
</mgrwt>
</event>
<event>
 7    1  0.1050440E-008  0.9453161E+03  0.7546771E-02  0.9370642E-01
         -2   -1    0    0    0  501 -0.00000000000E+00  0.00000000000E+00  0.10879311179E+03  0.10879311179E+03  0.00000000000E+00 0.  1.
          2   -1    0    0  501    0  0.00000000000E+00 -0.00000000000E+00 -0.20534904298E+04  0.20534904298E+04  0.00000000000E+00 0. -1.
         25    2    1    2    0    0 -0.20662945690E+03  0.26552135450E+03 -0.31940763259E+03  0.48046437220E+03  0.12500981977E+03 0.  0.
          5    1    1    2  502    0  0.19939894507E+03 -0.22649387164E+03 -0.16115334856E+04  0.16395492303E+04  0.47000000000E+01 0. -1.
         -5    1    1    2    0  502  0.72305118276E+01 -0.39027482861E+02 -0.13756199780E+02  0.42269939108E+02  0.47000000000E+01 0.  1.
          5    1    3    3  503    0 -0.37332222080E+02  0.11465099726E+03 -0.17145051461E+03  0.20965665965E+03  0.47000000000E+01 0.  1.
         -5    1    3    3    0  503 -0.16929723482E+03  0.15087035724E+03 -0.14795711799E+03  0.27080771255E+03  0.47000000000E+01 0.  1.
<mgrwt>
<rscale>  0 0.94531606E+03</rscale>
<asrwt>0</asrwt>
<pdfrwt beam="1">  1        2 0.31592159E+00 0.94531606E+03</pdfrwt>
<pdfrwt beam="2">  1       -2 0.16737402E-01 0.94531606E+03</pdfrwt>
<totfact> 0.18296580E+02</totfact>
</mgrwt>
</event>
<event>
 7    1  0.1050440E-008  0.3852229E+03  0.7546771E-02  0.1089176E+00
         -2   -1    0    0    0  501 -0.00000000000E+00  0.00000000000E+00  0.86137289696E+02  0.86137289696E+02  0.00000000000E+00 0. -1.
          2   -1    0    0  501    0  0.00000000000E+00 -0.00000000000E+00 -0.76425086298E+03  0.76425086298E+03  0.00000000000E+00 0.  1.
         25    2    1    2    0    0 -0.20364870424E+02  0.15756209304E+02 -0.18155614630E+03  0.22192498080E+03  0.12500030705E+03 0.  0.
          5    1    3    3  502    0  0.19963964541E+02  0.11652578818E+02 -0.17952258503E+03  0.18106570909E+03  0.47000000000E+01 0.  1.
         -5    1    3    3    0  502 -0.40328834965E+02  0.41036304853E+01 -0.20335612698E+01  0.40859271705E+02  0.47000000000E+01 0.  1.
          5    1    1    2  503    0  0.84481880306E+02  0.92556062121E+02 -0.99256290154E+01  0.12579515431E+03  0.47000000000E+01 0. -1.
         -5    1    1    2    0  503 -0.64117009882E+02 -0.10831227142E+03 -0.48663179797E+03  0.50266801758E+03  0.47000000000E+01 0.  1.
<mgrwt>
<rscale>  0 0.29225890E+03</rscale>
<asrwt>0</asrwt>
<pdfrwt beam="1">  1        2 0.11757706E+00 0.38522290E+03</pdfrwt>
<pdfrwt beam="2">  1       -2 0.13251891E-01 0.38522290E+03</pdfrwt>
<totfact> 0.15824626E+03</totfact>
</mgrwt>
</event>
<event>
 7    1  0.1050440E-008  0.2534784E+03  0.7546771E-02  0.1134883E+00
         -2   -1    0    0    0  501 -0.00000000000E+00  0.00000000000E+00  0.96529521265E+02  0.96529521265E+02  0.00000000000E+00 0.  1.
          2   -1    0    0  501    0  0.00000000000E+00 -0.00000000000E+00 -0.54242080384E+03  0.54242080384E+03  0.00000000000E+00 0. -1.
         25    2    1    2    0    0 -0.51265130879E+02  0.38096719071E+02 -0.17874771728E+02  0.14150743520E+03  0.12500149241E+03 0.  0.
          5    1    1    2  502    0 -0.85628615493E+02  0.40452932710E+02 -0.14227308178E+03  0.17097490855E+03  0.47000000000E+01 0. -1.
         -5    1    3    3    0  503  0.18304314237E+02 -0.33687953765E+02  0.47180743573E+01  0.38913704195E+02  0.47000000000E+01 0. -1.
          5    1    3    3  503    0 -0.69569445115E+02  0.71784672837E+02 -0.22592846086E+02  0.10259373101E+03  0.47000000000E+01 0. -1.
         -5    1    1    2    0  502  0.13689374637E+03 -0.78549651782E+02 -0.28574342907E+03  0.32646798135E+03  0.47000000000E+01 0.  1.
<mgrwt>
<rscale>  0 0.21866403E+03</rscale>
<asrwt>0</asrwt>
<pdfrwt beam="1">  1        2 0.83449353E-01 0.25347839E+03</pdfrwt>
<pdfrwt beam="2">  1       -2 0.14850696E-01 0.25347839E+03</pdfrwt>
<totfact> 0.19691685E+03</totfact>
</mgrwt>
</event>
<event>
 7    1  0.1050440E-008  0.2128516E+03  0.7546771E-02  0.1148308E+00
          1   -1    0    0  501    0  0.00000000000E+00  0.00000000000E+00  0.68398816940E+03  0.68398816940E+03  0.00000000000E+00 0. -1.
         -1   -1    0    0    0  501 -0.00000000000E+00 -0.00000000000E+00 -0.89831613495E+02  0.89831613495E+02  0.00000000000E+00 0.  1.
         25    2    1    2    0    0 -0.10269315106E+03  0.57364561754E+02  0.34536835139E+02  0.17508775408E+03  0.12500540960E+03 0.  0.
          5    1    3    3  502    0  0.18151873355E+02  0.34267107766E+02  0.34271897497E+02  0.51965162744E+02  0.47000000000E+01 0. -1.
         -5    1    1    2    0  503 -0.35192376680E+02  0.16919345922E+02  0.23505526884E+03  0.23832296795E+03  0.47000000000E+01 0.  1.
          5    1    1    2  503    0  0.13788552774E+03 -0.74283907675E+02  0.32456445192E+03  0.36040906086E+03  0.47000000000E+01 0. -1.
         -5    1    3    3    0  502 -0.12084502441E+03  0.23097453987E+02  0.26493764206E+00  0.12312259134E+03  0.47000000000E+01 0.  1.
<mgrwt>
<rscale>  0 0.20170525E+03</rscale>
<asrwt>0</asrwt>
<pdfrwt beam="1">  1        1 0.10522895E+00 0.21285162E+03</pdfrwt>
<pdfrwt beam="2">  1       -1 0.13820249E-01 0.21285162E+03</pdfrwt>
<totfact> 0.10696170E+03</totfact>
</mgrwt>
</event>
<event>
 7    1  0.1050440E-008  0.1480390E+03  0.7546771E-02  0.1203198E+00
         -1   -1    0    0    0  501 -0.00000000000E+00  0.00000000000E+00  0.26332198048E+02  0.26332198048E+02  0.00000000000E+00 0.  1.
          1   -1    0    0  501    0  0.00000000000E+00 -0.00000000000E+00 -0.83970188953E+03  0.83970188953E+03  0.00000000000E+00 0. -1.
         25    2    1    2    0    0 -0.32021487423E+02  0.72562484253E+02 -0.46122862894E+03  0.48440417807E+03  0.12499947921E+03 0.  0.
          5    1    3    3  502    0  0.25012323482E+02  0.85015194722E+02 -0.30090820050E+03  0.31372126926E+03  0.47000000000E+01 0.  1.
         -5    1    1    2    0  503 -0.37136859435E+02 -0.67994767286E+02 -0.18833743612E+03  0.20370447847E+03  0.47000000000E+01 0.  1.
          5    1    1    2  503    0  0.69158346857E+02 -0.45677169669E+01 -0.16380362643E+03  0.17792543104E+03  0.47000000000E+01 0. -1.
         -5    1    3    3    0  502 -0.57033810905E+02 -0.12452710469E+02 -0.16032042844E+03  0.17068290881E+03  0.47000000000E+01 0.  1.
<mgrwt>
<rscale>  0 0.14780343E+03</rscale>
<asrwt>0</asrwt>
<pdfrwt beam="1">  1        1 0.12918491E+00 0.14803905E+03</pdfrwt>
<pdfrwt beam="2">  1       -1 0.40511073E-02 0.14803905E+03</pdfrwt>
<totfact> 0.50310901E+03</totfact>
</mgrwt>
</event>
<event>
 7    1  0.1050440E-008  0.2827437E+03  0.7546771E-02  0.1123076E+00
         -1   -1    0    0    0  501 -0.00000000000E+00  0.00000000000E+00  0.17658636020E+03  0.17658636020E+03  0.00000000000E+00 0.  1.
          1   -1    0    0  501    0  0.00000000000E+00 -0.00000000000E+00 -0.25630884723E+03  0.25630884723E+03  0.00000000000E+00 0. -1.
         25    2    1    2    0    0 -0.49534183564E+02  0.14541841309E+02  0.11684101141E+02  0.13574346898E+03  0.12499868264E+03 0.  0.
          5    1    3    3  502    0 -0.23969000486E+02  0.69412142621E+02 -0.15559764431E+01  0.73600744495E+02  0.47000000000E+01 0. -1.
         -5    1    3    3    0  502 -0.25565183077E+02 -0.54870301312E+02  0.13240077584E+02  0.62142724484E+02  0.47000000000E+01 0. -1.
          5    1    1    2  503    0  0.37546071931E+01  0.11252330313E+03  0.28776030514E+02  0.11630021820E+03  0.47000000000E+01 0. -1.
         -5    1    1    2    0  503  0.45779576371E+02 -0.12706514444E+03 -0.12018261868E+03  0.18085152025E+03  0.47000000000E+01 0.  1.
<mgrwt>
<rscale>  0 0.23513686E+03</rscale>
<asrwt>0</asrwt>
<pdfrwt beam="1">  1        1 0.39432130E-01 0.28274368E+03</pdfrwt>
<pdfrwt beam="2">  1       -1 0.27167132E-01 0.28274368E+03</pdfrwt>
<totfact> 0.12953830E+03</totfact>
</mgrwt>
</event>
<event>
 7    1  0.1050440E-008  0.2894882E+03  0.7546771E-02  0.1091088E+00
          1   -1    0    0  501    0  0.00000000000E+00  0.00000000000E+00  0.67787399547E+03  0.67787399547E+03  0.00000000000E+00 0. -1.
         -1   -1    0    0    0  501 -0.00000000000E+00 -0.00000000000E+00 -0.13984912456E+03  0.13984912456E+03  0.00000000000E+00 0.  1.
         25    2    1    2    0    0 -0.36645588052E+02 -0.25451076244E+03  0.41319492079E+03  0.50246776156E+03  0.12500072605E+03 0.  0.
          5    1    1    2  502    0 -0.56009484201E+01  0.59283820390E+02  0.96450136698E+02  0.11344893500E+03  0.47000000000E+01 0. -1.
         -5    1    3    3    0  503 -0.65833933136E+01 -0.18139101702E+03  0.37025138283E+03  0.41237630704E+03  0.47000000000E+01 0.  1.
          5    1    3    3  503    0 -0.30062194739E+02 -0.73119745428E+02  0.42943537962E+02  0.90091454515E+02  0.47000000000E+01 0.  1.
         -5    1    1    2    0  502  0.42246536473E+02  0.19522694205E+03  0.28379813420E+02  0.20180642348E+03  0.47000000000E+01 0.  1.
<mgrwt>
<rscale>  0 0.28858916E+03</rscale>
<asrwt>0</asrwt>
<pdfrwt beam="1">  1        1 0.10428830E+00 0.28948821E+03</pdfrwt>
<pdfrwt beam="2">  1       -1 0.21515250E-01 0.28948821E+03</pdfrwt>
<totfact> 0.53042149E+02</totfact>
</mgrwt>
</event>
<event>
 7    1  0.1050440E-008  0.4627232E+03  0.7546771E-02  0.1052755E+00
          2   -1    0    0  501    0  0.00000000000E+00  0.00000000000E+00  0.28421551749E+03  0.28421551749E+03  0.00000000000E+00 0. -1.
         -2   -1    0    0    0  501 -0.00000000000E+00 -0.00000000000E+00 -0.58251946520E+03  0.58251946520E+03  0.00000000000E+00 0.  1.
         25    2    1    2    0    0 -0.11805132364E+03 -0.10185973849E+03  0.12820511233E+03  0.23743158583E+03  0.12500274310E+03 0.  0.
          5    1    1    2  502    0 -0.99808479382E+02  0.15432030250E+03 -0.48986237370E+02  0.19025832379E+03  0.47000000000E+01 0. -1.
         -5    1    1    2    0  502  0.21785980302E+03 -0.52460564011E+02 -0.37752282267E+03  0.43904507307E+03  0.47000000000E+01 0.  1.
          5    1    3    3  503    0  0.83190536489E+01  0.21119712951E+02  0.11087088769E+02  0.25695572889E+02  0.47000000000E+01 0. -1.
         -5    1    3    3    0  503 -0.12637037729E+03 -0.12297945144E+03  0.11711802356E+03  0.21173601294E+03  0.47000000000E+01 0. -1.
<mgrwt>
<rscale>  0 0.37511393E+03</rscale>
<asrwt>0</asrwt>
<pdfrwt beam="1">  1        2 0.43725464E-01 0.46272323E+03</pdfrwt>
<pdfrwt beam="2">  1       -2 0.89618379E-01 0.46272323E+03</pdfrwt>
<totfact> 0.12733187E+02</totfact>
</mgrwt>
</event>
<event>
 7    1  0.1050440E-008  0.2027706E+03  0.7546771E-02  0.1166145E+00
         -1   -1    0    0    0  501 -0.00000000000E+00  0.00000000000E+00  0.21725399768E+03  0.21725399768E+03  0.00000000000E+00 0. -1.
          1   -1    0    0  501    0  0.00000000000E+00 -0.00000000000E+00 -0.14290631910E+03  0.14290631910E+03  0.00000000000E+00 0.  1.
         25    2    1    2    0    0  0.28733287851E+02 -0.25632462939E+02 -0.26857536901E+02  0.13353636265E+03  0.12501203092E+03 0.  0.
          5    1    1    2  502    0 -0.55198457938E+01  0.95046294780E+02  0.11769031232E+03  0.15145087145E+03  0.47000000000E+01 0. -1.
         -5    1    1    2    0  502 -0.23213442057E+02 -0.69413831841E+02 -0.16485096833E+02  0.75173082686E+02  0.47000000000E+01 0.  1.
          5    1    3    3  503    0  0.17023036095E+02 -0.46618691632E+02 -0.68803777104E+02  0.84965498358E+02  0.47000000000E+01 0. -1.
         -5    1    3    3    0  503  0.11710251756E+02  0.20986228693E+02  0.41946240204E+02  0.48570864293E+02  0.47000000000E+01 0. -1.
<mgrwt>
<rscale>  0 0.18172389E+03</rscale>
<asrwt>0</asrwt>
<pdfrwt beam="1">  1        1 0.21985587E-01 0.20277061E+03</pdfrwt>
<pdfrwt beam="2">  1       -1 0.33423692E-01 0.20277061E+03</pdfrwt>
<totfact> 0.18938647E+03</totfact>
</mgrwt>
</event>
<event>
 7    1  0.1050440E-008  0.4206613E+03  0.7546771E-02  0.1036851E+00
          1   -1    0    0  501    0  0.00000000000E+00  0.00000000000E+00  0.83324784808E+02  0.83324784808E+02  0.00000000000E+00 0. -1.
         -1   -1    0    0    0  501 -0.00000000000E+00 -0.00000000000E+00 -0.53092229080E+03  0.53092229080E+03  0.00000000000E+00 0.  1.
         25    2    1    2    0    0 -0.22611326495E+02 -0.15037094456E+03 -0.24239067609E+03  0.31225284177E+03  0.12500361709E+03 0.  0.
          5    1    1    2  502    0 -0.10910399776E+02  0.16986370066E+03 -0.19987106330E+03  0.26257045830E+03  0.47000000000E+01 0.  1.
         -5    1    1    2    0  502  0.33521726271E+02 -0.19492756098E+02 -0.53357665966E+01  0.39423775538E+02  0.47000000000E+01 0. -1.
          5    1    3    3  503    0  0.42186809205E+02 -0.10548194664E+03 -0.17361497011E+03  0.20753413161E+03  0.47000000000E+01 0. -1.
         -5    1    3    3    0  503 -0.64798135700E+02 -0.44888997924E+02 -0.68775705977E+02  0.10471871016E+03  0.47000000000E+01 0. -1.
<mgrwt>
<rscale>  0 0.42066132E+03</rscale>
<asrwt>0</asrwt>
<pdfrwt beam="1">  1        1 0.12819197E-01 0.42066132E+03</pdfrwt>
<pdfrwt beam="2">  1       -1 0.81680355E-01 0.42066132E+03</pdfrwt>
<totfact> 0.71888512E+02</totfact>
</mgrwt>
</event>
<event>
 7    1  0.1050440E-008  0.3434239E+03  0.7546771E-02  0.1095243E+00
         -1   -1    0    0    0  501 -0.00000000000E+00  0.00000000000E+00  0.37419199795E+03  0.37419199795E+03  0.00000000000E+00 0.  1.
          1   -1    0    0  501    0  0.00000000000E+00 -0.00000000000E+00 -0.23370573828E+03  0.23370573828E+03  0.00000000000E+00 0. -1.
         25    2    1    2    0    0 -0.47604567829E+02 -0.75383987585E+02 -0.10478107005E+03  0.18588346907E+03  0.12499860387E+03 0.  0.
          5    1    3    3  502    0 -0.63694928706E+02 -0.10164964880E+03 -0.95411173387E+02  0.15334626520E+03  0.47000000000E+01 0. -1.
         -5    1    3    3    0  502  0.16090360877E+02  0.26265661212E+02 -0.93698966632E+01  0.32537203867E+02  0.47000000000E+01 0. -1.
          5    1    1    2  503    0  0.11212988013E+03 -0.91371401162E+02  0.40817649345E+02  0.15036626439E+03  0.47000000000E+01 0. -1.
         -5    1    1    2    0  503 -0.64525312303E+02  0.16675538875E+03  0.20444968037E+03  0.27164800277E+03  0.47000000000E+01 0.  1.
<mgrwt>
<rscale>  0 0.28081876E+03</rscale>
<asrwt>0</asrwt>
<pdfrwt beam="1">  1        1 0.35954729E-01 0.34342391E+03</pdfrwt>
<pdfrwt beam="2">  1       -1 0.57568000E-01 0.34342391E+03</pdfrwt>
<totfact> 0.37945335E+02</totfact>
</mgrwt>
</event>
<event>
 7    1  0.1050440E-008  0.4787785E+03  0.7546771E-02  0.1019471E+00
          2   -1    0    0  501    0  0.00000000000E+00  0.00000000000E+00  0.99860396644E+03  0.99860396644E+03  0.00000000000E+00 0. -1.
         -2   -1    0    0    0  501 -0.00000000000E+00 -0.00000000000E+00 -0.57387318986E+02  0.57387318986E+02  0.00000000000E+00 0.  1.
         25    2    1    2    0    0 -0.28868875587E+02  0.17202530337E+03  0.62363054375E+03  0.65952001269E+03  0.12500190025E+03 0.  0.
          5    1    3    3  502    0 -0.10693445035E+02  0.11693889798E+03  0.56431415257E+03  0.57642138095E+03  0.47000000000E+01 0.  1.
         -5    1    1    2    0  503  0.17133778892E+02 -0.19680199742E+03  0.31002943673E+03  0.36764783994E+03  0.47000000000E+01 0.  1.
          5    1    1    2  503    0  0.11735096695E+02  0.24776694054E+02  0.75566669711E+01  0.28823432801E+02  0.47000000000E+01 0. -1.
         -5    1    3    3    0  502 -0.18175430552E+02  0.55086405388E+02  0.59316391179E+02  0.83098631738E+02  0.47000000000E+01 0.  1.
<mgrwt>
<rscale>  0 0.47877846E+03</rscale>
<asrwt>0</asrwt>
<pdfrwt beam="1">  1        2 0.15363137E+00 0.47877846E+03</pdfrwt>
<pdfrwt beam="2">  1       -2 0.88288191E-02 0.47877846E+03</pdfrwt>
<totfact> 0.21309878E+03</totfact>
</mgrwt>
</event>
<event>
 7    1  0.1050440E-008  0.2624447E+03  0.7546771E-02  0.1107680E+00
         -2   -1    0    0    0  501 -0.00000000000E+00  0.00000000000E+00  0.11881217013E+03  0.11881217013E+03  0.00000000000E+00 0.  1.
          2   -1    0    0  501    0  0.00000000000E+00 -0.00000000000E+00 -0.56368729510E+03  0.56368729510E+03  0.00000000000E+00 0. -1.
         25    2    1    2    0    0  0.21441478823E+03  0.24077992187E+02 -0.26773112981E+03  0.36586526078E+03  0.12499592016E+03 0.  0.
          5    1    1    2  502    0 -0.10991630212E+03 -0.44170181266E+02 -0.17339895120E+03  0.21005209987E+03  0.47000000000E+01 0. -1.
         -5    1    3    3    0  503  0.22245285642E+03  0.43550626102E+02 -0.25304500706E+03  0.33975843767E+03  0.47000000000E+01 0. -1.
          5    1    3    3  503    0 -0.80380681904E+01 -0.19472633915E+02 -0.14686122744E+02  0.26106823113E+02  0.47000000000E+01 0. -1.
         -5    1    1    2    0  502 -0.10449848612E+03  0.20092189079E+02 -0.37450439723E+01  0.10658210458E+03  0.47000000000E+01 0.  1.
<mgrwt>
<rscale>  0 0.25910898E+03</rscale>
<asrwt>0</asrwt>
<pdfrwt beam="1">  1        2 0.86721120E-01 0.26244471E+03</pdfrwt>
<pdfrwt beam="2">  1       -2 0.18278796E-01 0.26244471E+03</pdfrwt>
<totfact> 0.13313148E+03</totfact>
</mgrwt>
</event>
<event>
 7    1  0.1050440E-008  0.9796734E+03  0.7546771E-02  0.9331124E-01
          1   -1    0    0  501    0  0.00000000000E+00  0.00000000000E+00  0.65120292553E+03  0.65120292553E+03  0.00000000000E+00 0. -1.
         -1   -1    0    0    0  501 -0.00000000000E+00 -0.00000000000E+00 -0.36845657489E+03  0.36845657489E+03  0.00000000000E+00 0.  1.
         25    2    1    2    0    0  0.21662317921E+03  0.16245769886E+03 -0.22436072331E+03  0.37320203392E+03  0.12499567299E+03 0.  0.
          5    1    1    2  502    0 -0.24987613956E+03 -0.12086886156E+03  0.52177007791E+03  0.59102747061E+03  0.47000000000E+01 0. -1.
         -5    1    1    2    0  502  0.33252960343E+02 -0.41588837300E+02 -0.14663003955E+02  0.55429995891E+02  0.47000000000E+01 0.  1.
          5    1    3    3  503    0  0.10413095659E+03  0.89837822364E+02 -0.36333899488E+02  0.14232474381E+03  0.47000000000E+01 0.  1.
         -5    1    3    3    0  503  0.11249222262E+03  0.72619876495E+02 -0.18802682383E+03  0.23087729011E+03  0.47000000000E+01 0.  1.
<mgrwt>
<rscale>  0 0.97967341E+03</rscale>
<asrwt>0</asrwt>
<pdfrwt beam="1">  1        1 0.10018507E+00 0.97967341E+03</pdfrwt>
<pdfrwt beam="2">  1       -1 0.56685627E-01 0.97967341E+03</pdfrwt>
<totfact> 0.96040474E+01</totfact>
</mgrwt>
</event>
<event>
 7    1  0.1050440E-008  0.1610298E+03  0.7546771E-02  0.1204225E+00
          1   -1    0    0  501    0  0.00000000000E+00  0.00000000000E+00  0.33859988714E+03  0.33859988714E+03  0.00000000000E+00 0. -1.
         -1   -1    0    0    0  501 -0.00000000000E+00 -0.00000000000E+00 -0.64912633609E+02  0.64912633609E+02  0.00000000000E+00 0.  1.
         25    2    1    2    0    0 -0.70210889628E+02  0.73323490222E+02  0.23567934674E+03  0.28543886168E+03  0.12499874416E+03 0.  0.
          5    1    1    2  502    0  0.39059537291E+02 -0.15977502924E+02  0.30358467423E+02  0.52198224082E+02  0.47000000000E+01 0. -1.
         -5    1    1    2    0  502  0.31151352337E+02 -0.57345987298E+02  0.76494393724E+01  0.65875434985E+02  0.47000000000E+01 0.  1.
          5    1    3    3  503    0  0.16978781309E+02  0.70627701137E+02  0.92398258208E+02  0.11762686471E+03  0.47000000000E+01 0. -1.
         -5    1    3    3    0  503 -0.87189670937E+02  0.26957890847E+01  0.14328108853E+03  0.16781199697E+03  0.47000000000E+01 0. -1.
<mgrwt>
<rscale>  0 0.14698718E+03</rscale>
<asrwt>0</asrwt>
<pdfrwt beam="1">  1        1 0.52092289E-01 0.16102978E+03</pdfrwt>
<pdfrwt beam="2">  1       -1 0.99865592E-02 0.16102978E+03</pdfrwt>
<totfact> 0.44531803E+03</totfact>
</mgrwt>
</event>
<event>
 7    1  0.1050440E-008  0.2364764E+03  0.7546771E-02  0.1125420E+00
         -1   -1    0    0    0  501 -0.00000000000E+00  0.00000000000E+00  0.58203001534E+03  0.58203001534E+03  0.00000000000E+00 0.  1.
          1   -1    0    0  501    0  0.00000000000E+00 -0.00000000000E+00 -0.18559261922E+03  0.18559261922E+03  0.00000000000E+00 0. -1.
         25    2    1    2    0    0  0.19765147630E+03 -0.35052679648E+02 -0.75079232293E+02  0.24810882077E+03  0.12500519743E+03 0.  0.
          5    1    3    3  502    0  0.48616715836E+02  0.12882017919E+02  0.30699366518E+02  0.59110680498E+02  0.47000000000E+01 0. -1.
         -5    1    1    2    0  503 -0.20896635536E+02  0.23694962857E+02  0.30199125657E+02  0.43956772311E+02  0.47000000000E+01 0. -1.
          5    1    1    2  503    0 -0.17675484077E+03  0.11357716791E+02  0.44131750276E+03  0.47555704149E+03  0.47000000000E+01 0.  1.
         -5    1    3    3    0  502  0.14903476047E+03 -0.47934697567E+02 -0.10577859881E+03  0.18899814027E+03  0.47000000000E+01 0. -1.
<mgrwt>
<rscale>  0 0.23174145E+03</rscale>
<asrwt>0</asrwt>
<pdfrwt beam="1">  1        1 0.28552711E-01 0.23647642E+03</pdfrwt>
<pdfrwt beam="2">  1       -1 0.89543078E-01 0.23647642E+03</pdfrwt>
<totfact> 0.20923062E+02</totfact>
</mgrwt>
</event>
<event>
 7    1  0.1050440E-008  0.2512016E+03  0.7546771E-02  0.1116757E+00
          2   -1    0    0  501    0  0.00000000000E+00  0.00000000000E+00  0.16327535498E+03  0.16327535498E+03  0.00000000000E+00 0. -1.
         -2   -1    0    0    0  501 -0.00000000000E+00 -0.00000000000E+00 -0.46880925229E+03  0.46880925229E+03  0.00000000000E+00 0.  1.
         25    2    1    2    0    0 -0.21780441193E+03 -0.62179179558E+01 -0.31874224911E+03  0.40583106514E+03  0.12499923083E+03 0.  0.
          5    1    3    3  502    0 -0.58111731562E+02  0.15533137285E+02 -0.15351910442E+02  0.62257713203E+02  0.47000000000E+01 0.  1.
         -5    1    3    3    0  502 -0.15969268036E+03 -0.21751055241E+02 -0.30339033866E+03  0.34357335194E+03  0.47000000000E+01 0.  1.
          5    1    1    2  503    0  0.13249735442E+03 -0.51482571500E+01  0.35264418938E+02  0.13728700857E+03  0.47000000000E+01 0. -1.
         -5    1    1    2    0  503  0.85307057505E+02  0.11366175106E+02 -0.22056067142E+02  0.88966533564E+02  0.47000000000E+01 0.  1.
<mgrwt>
<rscale>  0 0.24461343E+03</rscale>
<asrwt>0</asrwt>
<pdfrwt beam="1">  1        2 0.25119285E-01 0.25120158E+03</pdfrwt>
<pdfrwt beam="2">  1       -2 0.72124501E-01 0.25120158E+03</pdfrwt>
<totfact> 0.38387051E+02</totfact>
</mgrwt>
</event>
<event>
 7    1  0.1050440E-008  0.1517275E+03  0.7546771E-02  0.1198534E+00
         -1   -1    0    0    0  501 -0.00000000000E+00  0.00000000000E+00  0.78597983339E+02  0.78597983339E+02  0.00000000000E+00 0.  1.
          1   -1    0    0  501    0  0.00000000000E+00 -0.00000000000E+00 -0.44684889530E+03  0.44684889530E+03  0.00000000000E+00 0. -1.
         25    2    1    2    0    0 -0.83044801412E+02 -0.22336351463E+02 -0.29603516858E+02  0.15458845856E+03  0.12500348663E+03 0.  0.
          5    1    1    2  502    0  0.10855074335E+03 -0.10441054776E+02 -0.23559981178E+03  0.25965677503E+03  0.47000000000E+01 0. -1.
         -5    1    3    3    0  503 -0.89765896752E+02 -0.62207297097E+02 -0.31731227208E+02  0.11382717080E+03  0.47000000000E+01 0. -1.
          5    1    3    3  503    0  0.67210953404E+01  0.39870945635E+02  0.21277103498E+01  0.40761287758E+02  0.47000000000E+01 0. -1.
         -5    1    1    2    0  502 -0.25505941942E+02  0.32777406239E+02 -0.10304758333E+03  0.11120164506E+03  0.47000000000E+01 0.  1.
<mgrwt>
<rscale>  0 0.15158918E+03</rscale>
<asrwt>0</asrwt>
<pdfrwt beam="1">  1        1 0.68745984E-01 0.15172746E+03</pdfrwt>
<pdfrwt beam="2">  1       -1 0.12091997E-01 0.15172746E+03</pdfrwt>
<totfact> 0.23294523E+03</totfact>
</mgrwt>
</event>
<event>
 7    1  0.1050440E-008  0.2425208E+03  0.7546771E-02  0.1139339E+00
         -2   -1    0    0    0  501 -0.00000000000E+00  0.00000000000E+00  0.30873116255E+02  0.30873116255E+02  0.00000000000E+00 0.  1.
          2   -1    0    0  501    0  0.00000000000E+00 -0.00000000000E+00 -0.12562732762E+04  0.12562732762E+04  0.00000000000E+00 0. -1.
         25    2    1    2    0    0  0.32801001910E+01 -0.71115862447E+02 -0.58314696330E+03  0.60062944210E+03  0.12500848356E+03 0.  0.
          5    1    3    3  502    0  0.49982721262E+02  0.64428599688E+01 -0.26633812973E+03  0.27110490998E+03  0.47000000000E+01 0.  1.
         -5    1    3    3    0  502 -0.46702621070E+02 -0.77558722416E+02 -0.31680883357E+03  0.32952453211E+03  0.47000000000E+01 0.  1.
          5    1    1    2  503    0  0.11416143983E+03  0.35856433541E+02 -0.32472938067E+03  0.34610660040E+03  0.47000000000E+01 0. -1.
         -5    1    1    2    0  503 -0.11744154002E+03  0.35259428906E+02 -0.31752381602E+03  0.34041035000E+03  0.47000000000E+01 0.  1.
<mgrwt>
<rscale>  0 0.21283639E+03</rscale>
<asrwt>0</asrwt>
<pdfrwt beam="1">  1        2 0.19327278E+00 0.24252083E+03</pdfrwt>
<pdfrwt beam="2">  1       -2 0.47497110E-02 0.24252083E+03</pdfrwt>
<totfact> 0.39209860E+03</totfact>
</mgrwt>
</event>
<event>
 7    1  0.1050440E-008  0.3746243E+03  0.7546771E-02  0.1052939E+00
          2   -1    0    0  501    0  0.00000000000E+00  0.00000000000E+00  0.64338688031E+03  0.64338688031E+03  0.00000000000E+00 0. -1.
         -2   -1    0    0    0  501 -0.00000000000E+00 -0.00000000000E+00 -0.54533026240E+02  0.54533026240E+02  0.00000000000E+00 0.  1.
         25    2    1    2    0    0  0.52019536935E+02 -0.10470995605E+03  0.31052207245E+03  0.35456787038E+03  0.12499684038E+03 0.  0.
          5    1    1    2  502    0 -0.37891263234E+02  0.81987904986E+01  0.23200272593E+03  0.23526649322E+03  0.47000000000E+01 0. -1.
         -5    1    3    3    0  503 -0.26212832045E+02 -0.66405169450E+02  0.76148159461E+02  0.10448632103E+03  0.47000000000E+01 0. -1.
          5    1    3    3  503    0  0.78232368981E+02 -0.38304786599E+02  0.23437391299E+03  0.25008154935E+03  0.47000000000E+01 0. -1.
         -5    1    1    2    0  502 -0.14128273702E+02  0.96511165550E+02  0.46329055690E+02  0.10808554295E+03  0.47000000000E+01 0.  1.
<mgrwt>
<rscale>  0 0.37462426E+03</rscale>
<asrwt>0</asrwt>
<pdfrwt beam="1">  1        2 0.98982592E-01 0.37462426E+03</pdfrwt>
<pdfrwt beam="2">  1       -2 0.83896968E-02 0.37462426E+03</pdfrwt>
<totfact> 0.40956695E+03</totfact>
</mgrwt>
</event>
<event>
 7    1  0.1050440E-008  0.1360506E+03  0.7546771E-02  0.1236256E+00
         -1   -1    0    0    0  501 -0.00000000000E+00  0.00000000000E+00  0.89555471187E+02  0.89555471187E+02  0.00000000000E+00 0.  1.
          1   -1    0    0  501    0  0.00000000000E+00 -0.00000000000E+00 -0.14854861166E+03  0.14854861166E+03  0.00000000000E+00 0. -1.
         25    2    1    2    0    0  0.30982680855E+02  0.43916491245E+02 -0.35653384061E+02  0.14064467493E+03  0.12498470336E+03 0.  0.
          5    1    1    2  502    0 -0.53755793600E+02 -0.27652261725E+02  0.13163407442E+00  0.60633656096E+02  0.47000000000E+01 0. -1.
         -5    1    1    2    0  502  0.22773112745E+02 -0.16264229520E+02 -0.23471390483E+02  0.36825751821E+02  0.47000000000E+01 0.  1.
          5    1    3    3  503    0 -0.91807897978E+01  0.37673984608E+02 -0.74567266269E+02  0.84178282332E+02  0.47000000000E+01 0.  1.
         -5    1    3    3    0  503  0.40163470653E+02  0.62425066376E+01  0.38913882208E+02  0.56466392594E+02  0.47000000000E+01 0.  1.
<mgrwt>
<rscale>  0 0.12424387E+03</rscale>
<asrwt>0</asrwt>
<pdfrwt beam="1">  1        1 0.22853632E-01 0.13605058E+03</pdfrwt>
<pdfrwt beam="2">  1       -1 0.13777765E-01 0.13605058E+03</pdfrwt>
<totfact> 0.74877764E+03</totfact>
</mgrwt>
</event>
<event>
 7    1  0.1050440E-008  0.1402502E+03  0.7546771E-02  0.1238843E+00
          2   -1    0    0  501    0  0.00000000000E+00  0.00000000000E+00  0.50385142617E+03  0.50385142617E+03  0.00000000000E+00 0. -1.
         -2   -1    0    0    0  501 -0.00000000000E+00 -0.00000000000E+00 -0.32594143038E+02  0.32594143038E+02  0.00000000000E+00 0.  1.
         25    2    1    2    0    0  0.40077529834E+02 -0.49381671852E+02  0.15190402916E+03  0.20674850997E+03  0.12500141753E+03 0.  0.
          5    1    1    2  502    0 -0.34873914758E+02  0.13958012824E+02  0.23364805392E+03  0.23669499182E+03  0.47000000000E+01 0. -1.
         -5    1    1    2    0  502 -0.52036150756E+01  0.35423659027E+02  0.85705200053E+02  0.93002067423E+02  0.47000000000E+01 0.  1.
          5    1    3    3  503    0  0.48816267280E+02 -0.87383865611E+02  0.11850311896E+03  0.15519035770E+03  0.47000000000E+01 0. -1.
         -5    1    3    3    0  503 -0.87387374464E+01  0.38002193759E+02  0.33400910198E+02  0.51558152262E+02  0.47000000000E+01 0. -1.
<mgrwt>
<rscale>  0 0.12261607E+03</rscale>
<asrwt>0</asrwt>
<pdfrwt beam="1">  1        2 0.77515599E-01 0.14025018E+03</pdfrwt>
<pdfrwt beam="2">  1       -2 0.50144839E-02 0.14025018E+03</pdfrwt>
<totfact> 0.11456705E+04</totfact>
</mgrwt>
</event>
<event>
 7    1  0.1050440E-008  0.1406948E+03  0.7546771E-02  0.1246357E+00
         -1   -1    0    0    0  501 -0.00000000000E+00  0.00000000000E+00  0.11391796289E+02  0.11391796289E+02  0.00000000000E+00 0.  1.
          1   -1    0    0  501    0  0.00000000000E+00 -0.00000000000E+00 -0.10023264539E+04  0.10023264539E+04  0.00000000000E+00 0. -1.
         25    2    1    2    0    0  0.14952973418E+02  0.62811322153E+02 -0.74114160599E+03  0.75437783197E+03  0.12500471850E+03 0.  0.
          5    1    3    3  502    0 -0.35166222281E+02 -0.22208771913E+02 -0.22808952690E+03  0.23189828594E+03  0.47000000000E+01 0.  1.
         -5    1    3    3    0  502  0.50119195699E+02  0.85020094067E+02 -0.51305207909E+03  0.52247954604E+03  0.47000000000E+01 0.  1.
          5    1    1    2  503    0  0.36137080787E+01 -0.25618106711E+02 -0.70850597400E+02  0.75572769101E+02  0.47000000000E+01 0. -1.
         -5    1    1    2    0  503 -0.18566681497E+02 -0.37193215442E+02 -0.17894245419E+03  0.18376764908E+03  0.47000000000E+01 0.  1.
<mgrwt>
<rscale>  0 0.11804511E+03</rscale>
<asrwt>0</asrwt>
<pdfrwt beam="1">  1        1 0.15420413E+00 0.14069482E+03</pdfrwt>
<pdfrwt beam="2">  1       -1 0.17525834E-02 0.14069482E+03</pdfrwt>
<totfact> 0.12758913E+04</totfact>
</mgrwt>
</event>
<event>
 7    1  0.1050440E-008  0.1455442E+03  0.7546771E-02  0.1206488E+00
         -1   -1    0    0    0  501 -0.00000000000E+00  0.00000000000E+00  0.78497560205E+02  0.78497560205E+02  0.00000000000E+00 0.  1.
          1   -1    0    0  501    0  0.00000000000E+00 -0.00000000000E+00 -0.28047648696E+03  0.28047648696E+03  0.00000000000E+00 0. -1.
         25    2    1    2    0    0  0.45654810632E+02  0.58928778826E+02 -0.14022346918E+03  0.20210325089E+03  0.12500455993E+03 0.  0.
          5    1    1    2  502    0  0.57322535044E+01 -0.84335314643E+02 -0.23740067558E+02  0.87926019094E+02  0.47000000000E+01 0. -1.
         -5    1    3    3    0  503 -0.13233329865E+02  0.81006659354E+02 -0.85340364311E+02  0.11850007451E+03  0.47000000000E+01 0. -1.
          5    1    3    3  503    0  0.58888140497E+02 -0.22077880528E+02 -0.54883104871E+02  0.83603176376E+02  0.47000000000E+01 0. -1.
         -5    1    1    2    0  502 -0.51387064137E+02  0.25406535817E+02 -0.38015390017E+02  0.68944777184E+02  0.47000000000E+01 0.  1.
<mgrwt>
<rscale>  0 0.14520788E+03</rscale>
<asrwt>0</asrwt>
<pdfrwt beam="1">  1        1 0.43150228E-01 0.14554416E+03</pdfrwt>
<pdfrwt beam="2">  1       -1 0.12076548E-01 0.14554416E+03</pdfrwt>
<totfact> 0.41797354E+03</totfact>
</mgrwt>
</event>
<event>
 7    1  0.1050440E-008  0.2417072E+03  0.7546771E-02  0.1122252E+00
          1   -1    0    0  501    0  0.00000000000E+00  0.00000000000E+00  0.14770968948E+03  0.14770968948E+03  0.00000000000E+00 0. -1.
         -1   -1    0    0    0  501 -0.00000000000E+00 -0.00000000000E+00 -0.58801227468E+03  0.58801227468E+03  0.00000000000E+00 0.  1.
         25    2    1    2    0    0  0.80354978171E+02  0.16352303707E+03  0.13703331410E+02  0.22138380539E+03  0.12500520720E+03 0.  0.
          5    1    1    2  502    0 -0.35375413161E+02  0.22510135139E+01 -0.22611704363E+03  0.22892683184E+03  0.47000000000E+01 0. -1.
         -5    1    3    3    0  503  0.11044797961E+02  0.82752838757E+02 -0.49831908619E+02  0.97341301619E+02  0.47000000000E+01 0. -1.
          5    1    3    3  503    0  0.69310180210E+02  0.80770198310E+02  0.63535240029E+02  0.12404250377E+03  0.47000000000E+01 0. -1.
         -5    1    1    2    0  502 -0.44979565010E+02 -0.16577405058E+03 -0.22788887298E+03  0.28541132694E+03  0.47000000000E+01 0.  1.
<mgrwt>
<rscale>  0 0.23634437E+03</rscale>
<asrwt>0</asrwt>
<pdfrwt beam="1">  1        1 0.22724568E-01 0.24170720E+03</pdfrwt>
<pdfrwt beam="2">  1       -1 0.90463427E-01 0.24170720E+03</pdfrwt>
<totfact> 0.27365903E+02</totfact>
</mgrwt>
</event>
<event>
 7    1  0.1050440E-008  0.1498926E+03  0.7546771E-02  0.1200746E+00
         -2   -1    0    0    0  501 -0.00000000000E+00  0.00000000000E+00  0.86690264712E+02  0.86690264712E+02  0.00000000000E+00 0.  1.
          2   -1    0    0  501    0  0.00000000000E+00 -0.00000000000E+00 -0.26022140333E+03  0.26022140333E+03  0.00000000000E+00 0. -1.
         25    2    1    2    0    0 -0.10023636785E+02 -0.81281534017E+02 -0.10120772860E+03  0.18048306792E+03  0.12499588957E+03 0.  0.
          5    1    1    2  502    0  0.28350292214E+02  0.10599964860E+02 -0.86619091744E+02  0.91875216344E+02  0.47000000000E+01 0. -1.
         -5    1    3    3    0  503  0.29526501823E+02  0.22931992044E+02 -0.21651188576E+02  0.43457502640E+02  0.47000000000E+01 0.  1.
          5    1    3    3  503    0 -0.39550138607E+02 -0.10421352606E+03 -0.79556540027E+02  0.13702556528E+03  0.47000000000E+01 0.  1.
         -5    1    1    2    0  502 -0.18326655429E+02  0.70681569157E+02  0.14295681726E+02  0.74553383785E+02  0.47000000000E+01 0.  1.
<mgrwt>
<rscale>  0 0.14977836E+03</rscale>
<asrwt>0</asrwt>
<pdfrwt beam="1">  1        2 0.40034063E-01 0.14989264E+03</pdfrwt>
<pdfrwt beam="2">  1       -2 0.13336964E-01 0.14989264E+03</pdfrwt>
<totfact> 0.51126968E+03</totfact>
</mgrwt>
</event>
<event>
 7    1  0.1050440E-008  0.1430548E+03  0.7546771E-02  0.1212409E+00
         -2   -1    0    0    0  501 -0.00000000000E+00  0.00000000000E+00  0.23445759624E+02  0.23445759624E+02  0.00000000000E+00 0.  1.
          2   -1    0    0  501    0  0.00000000000E+00 -0.00000000000E+00 -0.13119629339E+04  0.13119629339E+04  0.00000000000E+00 0. -1.
         25    2    1    2    0    0 -0.44343999806E+02 -0.53593826919E+02 -0.10674818339E+04  0.10770246682E+04  0.12500392644E+03 0.  0.
          5    1    3    3  502    0 -0.43957981267E+02  0.31843111314E+02 -0.52737405904E+03  0.53018088989E+03  0.47000000000E+01 0. -1.
         -5    1    1    2    0  503 -0.14622398949E+02  0.14134798813E+02  0.49698469718E+01  0.21456851294E+02  0.47000000000E+01 0.  1.
          5    1    1    2  503    0  0.58966398755E+02  0.39459028106E+02 -0.22600518736E+03  0.23692717403E+03  0.47000000000E+01 0. -1.
         -5    1    3    3    0  502 -0.38601853974E+00 -0.85436938233E+02 -0.54010777485E+03  0.54684377831E+03  0.47000000000E+01 0. -1.
<mgrwt>
<rscale>  0 0.14068592E+03</rscale>
<asrwt>0</asrwt>
<pdfrwt beam="1">  1        2 0.20184051E+00 0.14305478E+03</pdfrwt>
<pdfrwt beam="2">  1       -2 0.36070389E-02 0.14305478E+03</pdfrwt>
<totfact> 0.54562214E+03</totfact>
</mgrwt>
</event>
<event>
 7    1  0.1050440E-008  0.1785442E+03  0.7546771E-02  0.1172103E+00
          1   -1    0    0  501    0  0.00000000000E+00  0.00000000000E+00  0.10603728429E+03  0.10603728429E+03  0.00000000000E+00 0.  1.
         -1   -1    0    0    0  501 -0.00000000000E+00 -0.00000000000E+00 -0.29179169285E+03  0.29179169285E+03  0.00000000000E+00 0. -1.
         25    2    1    2    0    0 -0.12383002749E+03  0.30314870858E+02 -0.58983509903E+02  0.18803483764E+03  0.12500071449E+03 0.  0.
          5    1    1    2  502    0 -0.12032345551E+02 -0.21374808629E+02 -0.43395662486E+02  0.50069285056E+02  0.47000000000E+01 0. -1.
         -5    1    3    3    0  503 -0.40348672279E+02 -0.43620527653E+02  0.42431975371E+01  0.59756677558E+02  0.47000000000E+01 0. -1.
          5    1    3    3  503    0 -0.83481355214E+02  0.73935398511E+02 -0.63226707440E+02  0.12827816009E+03  0.47000000000E+01 0. -1.
         -5    1    1    2    0  502  0.13586237304E+03 -0.89400622281E+01 -0.83375236168E+02  0.15972485445E+03  0.47000000000E+01 0.  1.
<mgrwt>
<rscale>  0 0.17562768E+03</rscale>
<asrwt>0</asrwt>
<pdfrwt beam="1">  1        1 0.16313429E-01 0.17854424E+03</pdfrwt>
<pdfrwt beam="2">  1       -1 0.44891029E-01 0.17854424E+03</pdfrwt>
<totfact> 0.16490580E+03</totfact>
</mgrwt>
</event>
<event>
 7    1  0.1050440E-008  0.3469340E+03  0.7546771E-02  0.1063881E+00
          1   -1    0    0  501    0  0.00000000000E+00  0.00000000000E+00  0.98267979450E+03  0.98267979450E+03  0.00000000000E+00 0. -1.
         -1   -1    0    0    0  501 -0.00000000000E+00 -0.00000000000E+00 -0.30621156738E+02  0.30621156738E+02  0.00000000000E+00 0.  1.
         25    2    1    2    0    0 -0.33798613438E+02 -0.83058293958E+02  0.34198443350E+03  0.37499107387E+03  0.12499570496E+03 0.  0.
          5    1    3    3  502    0 -0.31419167348E+02 -0.50480006486E+01  0.25894178682E+03  0.26093214702E+03  0.47000000000E+01 0. -1.
         -5    1    3    3    0  502 -0.23794460897E+01 -0.78010293310E+02  0.83042646686E+02  0.11405892685E+03  0.47000000000E+01 0. -1.
          5    1    1    2  503    0  0.71757912360E+02  0.97870019284E+02  0.56265194832E+03  0.57561014898E+03  0.47000000000E+01 0. -1.
         -5    1    1    2    0  503 -0.37959298922E+02 -0.14811725326E+02  0.47422255948E+02  0.62699728396E+02  0.47000000000E+01 0.  1.
<mgrwt>
<rscale>  0 0.34693395E+03</rscale>
<asrwt>0</asrwt>
<pdfrwt beam="1">  1        1 0.15118148E+00 0.34693395E+03</pdfrwt>
<pdfrwt beam="2">  1       -1 0.47109480E-02 0.34693395E+03</pdfrwt>
<totfact> 0.31807328E+03</totfact>
</mgrwt>
</event>
<event>
 7    1  0.1050440E-008  0.3064234E+03  0.7546771E-02  0.1115069E+00
          1   -1    0    0  501    0  0.00000000000E+00  0.00000000000E+00  0.38435236753E+03  0.38435236753E+03  0.00000000000E+00 0. -1.
         -1   -1    0    0    0  501 -0.00000000000E+00 -0.00000000000E+00 -0.12559546064E+03  0.12559546064E+03  0.00000000000E+00 0.  1.
         25    2    1    2    0    0  0.27720126823E+02  0.21503305928E+02  0.10567502225E+03  0.16741410557E+03  0.12501789800E+03 0.  0.
          5    1    1    2  502    0  0.42191312448E+02  0.12314384218E+03  0.15895713118E+02  0.13122224053E+03  0.47000000000E+01 0. -1.
         -5    1    1    2    0  502 -0.69911439271E+02 -0.14464714811E+03  0.13718617152E+03  0.21131148207E+03  0.47000000000E+01 0.  1.
          5    1    3    3  503    0 -0.13281187199E+02  0.41154044081E+02  0.11303510813E+03  0.12111594010E+03  0.47000000000E+01 0. -1.
         -5    1    3    3    0  503  0.41001314022E+02 -0.19650738153E+02 -0.73600858777E+01  0.46298165467E+02  0.47000000000E+01 0. -1.
<mgrwt>
<rscale>  0 0.24722905E+03</rscale>
<asrwt>0</asrwt>
<pdfrwt beam="1">  1        1 0.59131133E-01 0.30642338E+03</pdfrwt>
<pdfrwt beam="2">  1       -1 0.19322379E-01 0.30642338E+03</pdfrwt>
<totfact> 0.13629290E+03</totfact>
</mgrwt>
</event>
<event>
 7    1  0.1050440E-008  0.6747369E+03  0.7546771E-02  0.9829433E-01
         -1   -1    0    0    0  501 -0.00000000000E+00  0.00000000000E+00  0.29703316867E+03  0.29703316867E+03  0.00000000000E+00 0.  1.
          1   -1    0    0  501    0  0.00000000000E+00 -0.00000000000E+00 -0.12472398902E+04  0.12472398902E+04  0.00000000000E+00 0. -1.
         25    2    1    2    0    0 -0.27744261859E+03  0.44559287284E+03 -0.47636889745E+03  0.71977795488E+03  0.12500225170E+03 0.  0.
          5    1    1    2  502    0  0.24243408383E+03 -0.25285817236E+03 -0.51636126849E+03  0.62398925466E+03  0.47000000000E+01 0. -1.
         -5    1    3    3    0  503 -0.19148495127E+03  0.38029561706E+03 -0.33469196649E+03  0.54160137126E+03  0.47000000000E+01 0.  1.
          5    1    3    3  503    0 -0.85957667323E+02  0.65297255789E+02 -0.14167693096E+03  0.17817658362E+03  0.47000000000E+01 0.  1.
         -5    1    1    2    0  502  0.35008534760E+02 -0.19273470048E+03  0.42523444435E+02  0.20050584930E+03  0.47000000000E+01 0.  1.
<mgrwt>
<rscale>  0 0.63806659E+03</rscale>
<asrwt>0</asrwt>
<pdfrwt beam="1">  1        1 0.19188306E+00 0.67473691E+03</pdfrwt>
<pdfrwt beam="2">  1       -1 0.45697410E-01 0.67473691E+03</pdfrwt>
<totfact> 0.48605614E+01</totfact>
</mgrwt>
</event>
<event>
 7    1  0.1050440E-008  0.3160548E+03  0.7546771E-02  0.1105836E+00
          2   -1    0    0  501    0  0.00000000000E+00  0.00000000000E+00  0.14652914816E+03  0.14652914816E+03  0.00000000000E+00 0. -1.
         -2   -1    0    0    0  501 -0.00000000000E+00 -0.00000000000E+00 -0.38230925567E+03  0.38230925567E+03  0.00000000000E+00 0.  1.
         25    2    1    2    0    0 -0.61987276791E+02 -0.54163092852E+02 -0.32845591659E+02  0.15324149073E+03  0.12501223332E+03 0.  0.
          5    1    1    2  502    0 -0.10797188009E+03  0.88402843237E+02 -0.65080906543E+02  0.15404740822E+03  0.47000000000E+01 0. -1.
         -5    1    1    2    0  502  0.16995915688E+03 -0.34239750385E+02 -0.13785360930E+03  0.22154950488E+03  0.47000000000E+01 0.  1.
          5    1    3    3  503    0 -0.76884997365E+02  0.14774761571E+02 -0.10646599931E+02  0.79151983483E+02  0.47000000000E+01 0.  1.
         -5    1    3    3    0  503  0.14897720574E+02 -0.68937854423E+02 -0.22198991728E+02  0.74089507250E+02  0.47000000000E+01 0.  1.
<mgrwt>
<rscale>  0 0.26218797E+03</rscale>
<asrwt>0</asrwt>
<pdfrwt beam="1">  1        2 0.22542946E-01 0.31605478E+03</pdfrwt>
<pdfrwt beam="2">  1       -2 0.58816809E-01 0.31605478E+03</pdfrwt>
<totfact> 0.66912020E+02</totfact>
</mgrwt>
</event>
<event>
 7    1  0.1050440E-008  0.3068611E+03  0.7546771E-02  0.1109132E+00
         -1   -1    0    0    0  501 -0.00000000000E+00  0.00000000000E+00  0.55650941383E+02  0.55650941383E+02  0.00000000000E+00 0.  1.
          1   -1    0    0  501    0  0.00000000000E+00 -0.00000000000E+00 -0.94593629515E+03  0.94593629515E+03  0.00000000000E+00 0. -1.
         25    2    1    2    0    0 -0.83486000904E+02  0.31340379856E+00 -0.33438478315E+03  0.36661543219E+03  0.12499472528E+03 0.  0.
          5    1    3    3  502    0  0.22935979636E+02 -0.20383987711E+02 -0.28840226755E+02  0.42372335269E+02  0.47000000000E+01 0. -1.
         -5    1    1    2    0  503 -0.37093791738E+02  0.83490882571E+02 -0.42329507006E+02  0.10079957352E+03  0.47000000000E+01 0.  1.
          5    1    1    2  503    0  0.12057979264E+03 -0.83804286369E+02 -0.51357106361E+03  0.53417223083E+03  0.47000000000E+01 0. -1.
         -5    1    3    3    0  502 -0.10642198054E+03  0.20697391510E+02 -0.30554455639E+03  0.32424309692E+03  0.47000000000E+01 0. -1.
<mgrwt>
<rscale>  0 0.25671710E+03</rscale>
<asrwt>0</asrwt>
<pdfrwt beam="1">  1        1 0.14552866E+00 0.30686112E+03</pdfrwt>
<pdfrwt beam="2">  1       -1 0.85616834E-02 0.30686112E+03</pdfrwt>
<totfact> 0.13638435E+03</totfact>
</mgrwt>
</event>
<event>
 7    1  0.1050440E-008  0.1479598E+03  0.7546771E-02  0.1211594E+00
          4   -1    0    0  501    0  0.00000000000E+00  0.00000000000E+00  0.25623391262E+03  0.25623391262E+03  0.00000000000E+00 0. -1.
         -4   -1    0    0    0  501 -0.00000000000E+00 -0.00000000000E+00 -0.91539364440E+02  0.91539364440E+02  0.00000000000E+00 0.  1.
         25    2    1    2    0    0  0.12413007669E+02 -0.78168779103E+02  0.16903077489E+03  0.22464081844E+03  0.12501061422E+03 0.  0.
          5    1    1    2  502    0  0.33543702253E+02  0.21405057221E+01  0.15559703194E+01  0.33974590052E+02  0.47000000000E+01 0. -1.
         -5    1    1    2    0  502 -0.45956709922E+02  0.76028273381E+02 -0.58921970290E+01  0.89157868559E+02  0.47000000000E+01 0.  1.
          5    1    3    3  503    0  0.40679529476E+02 -0.55550590401E+02  0.17457071415E+03  0.18771711817E+03  0.47000000000E+01 0.  1.
         -5    1    3    3    0  503 -0.28266521806E+02 -0.22618188701E+02 -0.55399392690E+01  0.36923700278E+02  0.47000000000E+01 0.  1.
<mgrwt>
<rscale>  0 0.14129719E+03</rscale>
<asrwt>0</asrwt>
<pdfrwt beam="1">  1        4 0.39420602E-01 0.14795977E+03</pdfrwt>
<pdfrwt beam="2">  1       -4 0.14082979E-01 0.14795977E+03</pdfrwt>
<totfact> 0.44479927E+02</totfact>
</mgrwt>
</event>
<event>
 7    1  0.1050440E-008  0.2260970E+03  0.7546771E-02  0.1150567E+00
         -1   -1    0    0    0  501 -0.00000000000E+00  0.00000000000E+00  0.13770521261E+03  0.13770521261E+03  0.00000000000E+00 0.  1.
          1   -1    0    0  501    0  0.00000000000E+00 -0.00000000000E+00 -0.24186050345E+03  0.24186050345E+03  0.00000000000E+00 0. -1.
         25    2    1    2    0    0  0.52710392308E+02  0.46623450083E+01 -0.15175437089E+02  0.13658984927E+03  0.12500548034E+03 0.  0.
          5    1    3    3  502    0  0.68799894239E+02  0.48826814450E+02  0.62353594063E+01  0.84725751479E+02  0.47000000000E+01 0.  1.
         -5    1    3    3    0  502 -0.16089501931E+02 -0.44164469442E+02 -0.21410796495E+02  0.51864097795E+02  0.47000000000E+01 0.  1.
          5    1    1    2  503    0  0.86376106559E+01  0.38963640705E+02 -0.14407322380E+03  0.14957258248E+03  0.47000000000E+01 0. -1.
         -5    1    1    2    0  503 -0.61348002964E+02 -0.43625985714E+02  0.55093370045E+02  0.93403284311E+02  0.47000000000E+01 0.  1.
<mgrwt>
<rscale>  0 0.19902217E+03</rscale>
<asrwt>0</asrwt>
<pdfrwt beam="1">  1        1 0.37209307E-01 0.22609701E+03</pdfrwt>
<pdfrwt beam="2">  1       -1 0.21185418E-01 0.22609701E+03</pdfrwt>
<totfact> 0.20962716E+03</totfact>
</mgrwt>
</event>
<event>
 7    1  0.1050440E-008  0.1746321E+03  0.7546771E-02  0.1178062E+00
          2   -1    0    0  501    0  0.00000000000E+00  0.00000000000E+00  0.31778148484E+03  0.31778148484E+03  0.00000000000E+00 0. -1.
         -2   -1    0    0    0  501 -0.00000000000E+00 -0.00000000000E+00 -0.94568591084E+02  0.94568591084E+02  0.00000000000E+00 0.  1.
         25    2    1    2    0    0 -0.44073714081E+02 -0.82398649143E+02  0.16774363414E+03  0.22912012301E+03  0.12500429721E+03 0.  0.
          5    1    3    3  502    0  0.40934099374E+02 -0.10917450857E+02  0.30049705186E+02  0.52152334622E+02  0.47000000000E+01 0. -1.
         -5    1    3    3    0  502 -0.85007813455E+02 -0.71481198286E+02  0.13769392895E+03  0.17696778839E+03  0.47000000000E+01 0. -1.
          5    1    1    2  503    0 -0.41061225899E+02  0.61735475131E+02  0.59830399852E+02  0.95388992596E+02  0.47000000000E+01 0. -1.
         -5    1    1    2    0  503  0.85134939980E+02  0.20663174012E+02 -0.43611402318E+01  0.87840960319E+02  0.47000000000E+01 0.  1.
<mgrwt>
<rscale>  0 0.16979446E+03</rscale>
<asrwt>0</asrwt>
<pdfrwt beam="1">  1        2 0.48889459E-01 0.17463212E+03</pdfrwt>
<pdfrwt beam="2">  1       -2 0.14549014E-01 0.17463212E+03</pdfrwt>
<totfact> 0.36140076E+03</totfact>
</mgrwt>
</event>
<event>
 7    1  0.1050440E-008  0.1377871E+03  0.7546771E-02  0.1245566E+00
         -4   -1    0    0    0  501 -0.00000000000E+00  0.00000000000E+00  0.18769736898E+03  0.18769736898E+03  0.00000000000E+00 0. -1.
          4   -1    0    0  501    0  0.00000000000E+00 -0.00000000000E+00 -0.63140116239E+02  0.63140116239E+02  0.00000000000E+00 0.  1.
         25    2    1    2    0    0  0.51461087030E+02 -0.26679636040E+02  0.10411021251E+03  0.17269689667E+03  0.12500094125E+03 0.  0.
          5    1    3    3  502    0  0.68761710465E+01 -0.72894472977E+02  0.53617248278E+02  0.90872356808E+02  0.47000000000E+01 0.  1.
         -5    1    1    2    0  503 -0.30373237808E+02  0.44768808516E+01 -0.11983740613E+02  0.33290780649E+02  0.47000000000E+01 0.  1.
          5    1    1    2  503    0 -0.21087849222E+02  0.22202755188E+02  0.32430780852E+02  0.44849807908E+02  0.47000000000E+01 0. -1.
         -5    1    3    3    0  502  0.44584915984E+02  0.46214836938E+02  0.50492964227E+02  0.81824539858E+02  0.47000000000E+01 0.  1.
<mgrwt>
<rscale>  0 0.11851549E+03</rscale>
<asrwt>0</asrwt>
<pdfrwt beam="1">  1        4 0.97138641E-02 0.13778709E+03</pdfrwt>
<pdfrwt beam="2">  1       -4 0.28876518E-01 0.13778709E+03</pdfrwt>
<totfact> 0.15051376E+03</totfact>
</mgrwt>
</event>
<event>
 7    1  0.1050440E-008  0.1315044E+03  0.7546771E-02  0.1237809E+00
         -1   -1    0    0    0  501 -0.00000000000E+00  0.00000000000E+00  0.12268336286E+03  0.12268336286E+03  0.00000000000E+00 0.  1.
          1   -1    0    0  501    0  0.00000000000E+00 -0.00000000000E+00 -0.11171572766E+03  0.11171572766E+03  0.00000000000E+00 0. -1.
         25    2    1    2    0    0  0.33225659271E+01  0.40708988831E+02  0.17571006322E+02  0.13267311979E+03  0.12500062094E+03 0.  0.
          5    1    1    2  502    0  0.38683223727E+02 -0.39654829879E+02  0.96511243930E+01  0.56428109420E+02  0.47000000000E+01 0. -1.
         -5    1    1    2    0  502 -0.42005789654E+02 -0.10541589514E+01 -0.16254495512E+02  0.45297861317E+02  0.47000000000E+01 0.  1.
          5    1    3    3  503    0 -0.43814911107E+02 -0.24803243331E+02  0.91844869821E+01  0.51394475541E+02  0.47000000000E+01 0. -1.
         -5    1    3    3    0  503  0.47137477034E+02  0.65512232162E+02  0.83865193404E+01  0.81278644247E+02  0.47000000000E+01 0. -1.
<mgrwt>
<rscale>  0 0.12326337E+03</rscale>
<asrwt>0</asrwt>
<pdfrwt beam="1">  1        1 0.17187035E-01 0.13150444E+03</pdfrwt>
<pdfrwt beam="2">  1       -1 0.18874364E-01 0.13150444E+03</pdfrwt>
<totfact> 0.65354951E+03</totfact>
</mgrwt>
</event>
<event>
 7    1  0.1050440E-008  0.1319783E+03  0.7546771E-02  0.1259506E+00
          2   -1    0    0  501    0  0.00000000000E+00  0.00000000000E+00  0.58661243265E+03  0.58661243265E+03  0.00000000000E+00 0. -1.
         -2   -1    0    0    0  501 -0.00000000000E+00 -0.00000000000E+00 -0.23056388338E+02  0.23056388338E+02  0.00000000000E+00 0.  1.
         25    2    1    2    0    0  0.22320958649E+02  0.35977379813E+02  0.19528883651E+03  0.23570321381E+03  0.12500271311E+03 0.  0.
          5    1    1    2  502    0 -0.29149219974E+02 -0.16510910762E+01  0.18056119177E+03  0.18296676502E+03  0.47000000000E+01 0. -1.
         -5    1    1    2    0  502  0.68282613250E+01 -0.34326288737E+02  0.18770601603E+03  0.19099884216E+03  0.47000000000E+01 0.  1.
          5    1    3    3  503    0  0.74185631473E+02  0.15908127356E+02  0.11813412754E+03  0.14047896114E+03  0.47000000000E+01 0. -1.
         -5    1    3    3    0  503 -0.51864672824E+02  0.20069252458E+02  0.77154708969E+02  0.95224252675E+02  0.47000000000E+01 0. -1.
<mgrwt>
<rscale>  0 0.11057668E+03</rscale>
<asrwt>0</asrwt>
<pdfrwt beam="1">  1        2 0.90248055E-01 0.13197831E+03</pdfrwt>
<pdfrwt beam="2">  1       -2 0.35471371E-02 0.13197831E+03</pdfrwt>
<totfact> 0.16123598E+04</totfact>
</mgrwt>
</event>
<event>
 7    1  0.1050440E-008  0.1952042E+03  0.7546771E-02  0.1155871E+00
         -2   -1    0    0    0  501 -0.00000000000E+00  0.00000000000E+00  0.29350954561E+02  0.29350954561E+02  0.00000000000E+00 0.  1.
          2   -1    0    0  501    0  0.00000000000E+00 -0.00000000000E+00 -0.12515904262E+04  0.12515904262E+04  0.00000000000E+00 0. -1.
         25    2    1    2    0    0 -0.14247275035E+03 -0.46705009234E+02 -0.69034327297E+03  0.71741096998E+03  0.12499929136E+03 0.  0.
          5    1    3    3  502    0 -0.16099797232E+03 -0.19911466517E+02 -0.57397521734E+03  0.59647837656E+03  0.47000000000E+01 0.  1.
         -5    1    3    3    0  502  0.18525221968E+02 -0.26793542717E+02 -0.11636805563E+03  0.12093259342E+03  0.47000000000E+01 0.  1.
          5    1    1    2  503    0  0.10245380460E+02 -0.27037629087E+02 -0.45677150290E+02  0.54263185181E+02  0.47000000000E+01 0. -1.
         -5    1    1    2    0  503  0.13222736989E+03  0.73742638321E+02 -0.48621904834E+03  0.50926722555E+03  0.47000000000E+01 0.  1.
<mgrwt>
<rscale>  0 0.19290094E+03</rscale>
<asrwt>0</asrwt>
<pdfrwt beam="1">  1        2 0.19255233E+00 0.19520416E+03</pdfrwt>
<pdfrwt beam="2">  1       -2 0.45155325E-02 0.19520416E+03</pdfrwt>
<totfact> 0.42417909E+03</totfact>
</mgrwt>
</event>
<event>
 7    1  0.1050440E-008  0.3143920E+03  0.7546771E-02  0.1105808E+00
         -2   -1    0    0    0  501 -0.00000000000E+00  0.00000000000E+00  0.55068498514E+02  0.55068498514E+02  0.00000000000E+00 0. -1.
          2   -1    0    0  501    0  0.00000000000E+00 -0.00000000000E+00 -0.11122956035E+04  0.11122956035E+04  0.00000000000E+00 0.  1.
         25    2    1    2    0    0 -0.79543005175E+02 -0.34706500693E+02 -0.18115954958E+03  0.23659200105E+03  0.12500144676E+03 0.  0.
          5    1    3    3  502    0 -0.15602135083E+02 -0.63988155149E+02 -0.35955257708E+02  0.75184979719E+02  0.47000000000E+01 0.  1.
         -5    1    3    3    0  502 -0.63940870092E+02  0.29281654456E+02 -0.14520429187E+03  0.16140702133E+03  0.47000000000E+01 0.  1.
          5    1    1    2  503    0  0.59561226428E+02  0.11004137032E+03 -0.12951276112E+03  0.18014518636E+03  0.47000000000E+01 0. -1.
         -5    1    1    2    0  503  0.19981778747E+02 -0.75334869626E+02 -0.74655479430E+03  0.75062691462E+03  0.47000000000E+01 0.  1.
<mgrwt>
<rscale>  0 0.26223394E+03</rscale>
<asrwt>0</asrwt>
<pdfrwt beam="1">  1        2 0.17112237E+00 0.31439202E+03</pdfrwt>
<pdfrwt beam="2">  1       -2 0.84720780E-02 0.31439202E+03</pdfrwt>
<totfact> 0.19401976E+03</totfact>
</mgrwt>
</event>
<event>
 7    1  0.1050440E-008  0.1617546E+03  0.7546771E-02  0.1187547E+00
          2   -1    0    0  501    0  0.00000000000E+00  0.00000000000E+00  0.47013692457E+03  0.47013692457E+03  0.00000000000E+00 0. -1.
         -2   -1    0    0    0  501 -0.00000000000E+00 -0.00000000000E+00 -0.68934202020E+02  0.68934202020E+02  0.00000000000E+00 0.  1.
         25    2    1    2    0    0  0.22152157556E+02  0.10024314301E+03  0.32470479766E+03  0.36276402849E+03  0.12500051577E+03 0.  0.
          5    1    1    2  502    0 -0.41883475884E+02 -0.28383543110E+02  0.87152289853E+02  0.10088341141E+03  0.47000000000E+01 0. -1.
         -5    1    1    2    0  502  0.19731318327E+02 -0.71859599899E+02 -0.10654364960E+02  0.75423686686E+02  0.47000000000E+01 0.  1.
          5    1    3    3  503    0 -0.35414236659E+02  0.76519317951E+02  0.10716094690E+03  0.13643655199E+03  0.47000000000E+01 0. -1.
         -5    1    3    3    0  503  0.57566394215E+02  0.23723825058E+02  0.21754385076E+03  0.22632747651E+03  0.47000000000E+01 0. -1.
<mgrwt>
<rscale>  0 0.16102262E+03</rscale>
<asrwt>0</asrwt>
<pdfrwt beam="1">  1        2 0.72328755E-01 0.16175455E+03</pdfrwt>
<pdfrwt beam="2">  1       -2 0.10605262E-01 0.16175455E+03</pdfrwt>
<totfact> 0.39312162E+03</totfact>
</mgrwt>
</event>
<event>
 7    1  0.1050440E-008  0.1512269E+03  0.7546771E-02  0.1206018E+00
          1   -1    0    0  501    0  0.00000000000E+00  0.00000000000E+00  0.29938528923E+03  0.29938528923E+03  0.00000000000E+00 0. -1.
         -1   -1    0    0    0  501 -0.00000000000E+00 -0.00000000000E+00 -0.12778359937E+03  0.12778359937E+03  0.00000000000E+00 0.  1.
         25    2    1    2    0    0 -0.34931609703E+02 -0.42387976525E+01 -0.65890560807E+02  0.14561579690E+03  0.12499683812E+03 0.  0.
          5    1    1    2  502    0 -0.56184520637E+02 -0.43791174476E+01  0.11903023533E+03  0.13178074196E+03  0.47000000000E+01 0. -1.
         -5    1    1    2    0  502  0.91116130340E+02  0.86179151001E+01  0.11846201534E+03  0.14977234974E+03  0.47000000000E+01 0.  1.
          5    1    3    3  503    0 -0.48220431395E+02 -0.45310388120E+02 -0.76156497246E+02  0.10099575906E+03  0.47000000000E+01 0. -1.
         -5    1    3    3    0  503  0.13288821692E+02  0.41071590468E+02  0.10265936439E+02  0.44620037836E+02  0.47000000000E+01 0. -1.
<mgrwt>
<rscale>  0 0.14557496E+03</rscale>
<asrwt>0</asrwt>
<pdfrwt beam="1">  1        1 0.46059275E-01 0.15122690E+03</pdfrwt>
<pdfrwt beam="2">  1       -1 0.19659015E-01 0.15122690E+03</pdfrwt>
<totfact> 0.17924251E+03</totfact>
</mgrwt>
</event>
<event>
 7    1  0.1050440E-008  0.5795800E+03  0.7546771E-02  0.1028102E+00
          1   -1    0    0  501    0  0.00000000000E+00  0.00000000000E+00  0.10854929151E+04  0.10854929151E+04  0.00000000000E+00 0. -1.
         -1   -1    0    0    0  501 -0.00000000000E+00 -0.00000000000E+00 -0.16379186985E+03  0.16379186985E+03  0.00000000000E+00 0.  1.
         25    2    1    2    0    0  0.12555565454E+03 -0.10945992653E+03  0.71221329320E+02  0.22009639955E+03  0.12499699774E+03 0.  0.
          5    1    1    2  502    0 -0.19435086971E+03  0.28762129642E+03  0.34771481464E+03  0.49135115043E+03  0.47000000000E+01 0. -1.
         -5    1    3    3    0  503  0.14511994326E+03 -0.65676102472E+02  0.62232705421E+02  0.17107936168E+03  0.47000000000E+01 0.  1.
          5    1    3    3  503    0 -0.19564288724E+02 -0.43783824055E+02  0.89886238992E+01  0.49017037872E+02  0.47000000000E+01 0.  1.
         -5    1    1    2    0  502  0.68795215173E+02 -0.17816136989E+03  0.50276490132E+03  0.53783723500E+03  0.47000000000E+01 0.  1.
<mgrwt>
<rscale>  0 0.44872851E+03</rscale>
<asrwt>0</asrwt>
<pdfrwt beam="1">  1        1 0.16699891E+00 0.57958001E+03</pdfrwt>
<pdfrwt beam="2">  1       -1 0.25198750E-01 0.57958001E+03</pdfrwt>
<totfact> 0.18468348E+02</totfact>
</mgrwt>
</event>
<event>
 7    1  0.1050440E-008  0.5923249E+03  0.7546771E-02  0.9921459E-01
          2   -1    0    0  501    0  0.00000000000E+00  0.00000000000E+00  0.16293562541E+04  0.16293562541E+04  0.00000000000E+00 0. -1.
         -2   -1    0    0    0  501 -0.00000000000E+00 -0.00000000000E+00 -0.53832424889E+02  0.53832424889E+02  0.00000000000E+00 0.  1.
         25    2    1    2    0    0 -0.15937681297E+03 -0.80913513112E+02  0.40701735224E+03  0.46177566927E+03  0.12500271433E+03 0.  0.
          5    1    3    3  502    0 -0.15631401391E+03 -0.10467143905E+03  0.31835077744E+03  0.36981007097E+03  0.47000000000E+01 0. -1.
         -5    1    3    3    0  502 -0.30627990609E+01  0.23757925940E+02  0.88666574804E+02  0.91965598299E+02  0.47000000000E+01 0. -1.
          5    1    1    2  503    0 -0.56874452545E+02 -0.58970339126E+02  0.46596155333E+03  0.47313260660E+03  0.47000000000E+01 0. -1.
         -5    1    1    2    0  503  0.21625126551E+03  0.13988385224E+03  0.70254492364E+03  0.74828040311E+03  0.47000000000E+01 0.  1.
<mgrwt>
<rscale>  0 0.59232490E+03</rscale>
<asrwt>0</asrwt>
<pdfrwt beam="1">  1        2 0.25067016E+00 0.59232490E+03</pdfrwt>
<pdfrwt beam="2">  1       -2 0.82819128E-02 0.59232490E+03</pdfrwt>
<totfact> 0.10218884E+03</totfact>
</mgrwt>
</event>
<event>
 7    1  0.1050440E-008  0.1578977E+03  0.7546771E-02  0.1203006E+00
         -2   -1    0    0    0  501 -0.00000000000E+00  0.00000000000E+00  0.22008586655E+03  0.22008586655E+03  0.00000000000E+00 0.  1.
          2   -1    0    0  501    0  0.00000000000E+00 -0.00000000000E+00 -0.29193558661E+03  0.29193558661E+03  0.00000000000E+00 0. -1.
         25    2    1    2    0    0  0.19719506966E+02  0.94428550565E+02  0.17565934568E+03  0.23619457177E+03  0.12500423951E+03 0.  0.
          5    1    3    3  502    0 -0.21658053793E+02 -0.22569926998E+02  0.52491615854E+02  0.61285664178E+02  0.47000000000E+01 0.  1.
         -5    1    1    2    0  503 -0.41009471558E+02 -0.82743998814E+02 -0.22102196257E+03  0.23958535856E+03  0.47000000000E+01 0.  1.
          5    1    1    2  503    0  0.21289964592E+02 -0.11684551750E+02 -0.26487103173E+02  0.36241522822E+02  0.47000000000E+01 0. -1.
         -5    1    3    3    0  502  0.41377560760E+02  0.11699847756E+03  0.12316772983E+03  0.17490890760E+03  0.47000000000E+01 0.  1.
<mgrwt>
<rscale>  0 0.14795744E+03</rscale>
<asrwt>0</asrwt>
<pdfrwt beam="1">  1        2 0.44913167E-01 0.15789766E+03</pdfrwt>
<pdfrwt beam="2">  1       -2 0.33859364E-01 0.15789766E+03</pdfrwt>
<totfact> 0.91537624E+02</totfact>
</mgrwt>
</event>
<event>
 7    1  0.1050440E-008  0.1276697E+03  0.7546771E-02  0.1260034E+00
          2   -1    0    0  501    0  0.00000000000E+00  0.00000000000E+00  0.47626022165E+02  0.47626022165E+02  0.00000000000E+00 0.  1.
         -2   -1    0    0    0  501 -0.00000000000E+00 -0.00000000000E+00 -0.26263533617E+03  0.26263533617E+03  0.00000000000E+00 0. -1.
         25    2    1    2    0    0 -0.25907489954E+02  0.18769936662E+01 -0.62832295813E+02  0.14229352846E+03  0.12499931882E+03 0.  0.
          5    1    1    2  502    0  0.42581486314E+02  0.12823990228E+02 -0.12371642596E+03  0.13155030123E+03  0.47000000000E+01 0. -1.
         -5    1    3    3    0  503  0.48626613020E+02 -0.12915752169E+02 -0.33893941835E+02  0.60846145655E+02  0.47000000000E+01 0. -1.
          5    1    3    3  503    0 -0.74534102974E+02  0.14792745835E+02 -0.28938353978E+02  0.81447382809E+02  0.47000000000E+01 0. -1.
         -5    1    1    2    0  502 -0.16673996360E+02 -0.14700983894E+02 -0.28460592236E+02  0.36417528644E+02  0.47000000000E+01 0.  1.
<mgrwt>
<rscale>  0 0.11028964E+03</rscale>
<asrwt>0</asrwt>
<pdfrwt beam="1">  1        2 0.73270804E-02 0.12766969E+03</pdfrwt>
<pdfrwt beam="2">  1       -2 0.40405436E-01 0.12766969E+03</pdfrwt>
<totfact> 0.52546755E+03</totfact>
</mgrwt>
</event>
<event>
 7    1  0.1050440E-008  0.1369789E+03  0.7546771E-02  0.1234826E+00
          1   -1    0    0  501    0  0.00000000000E+00  0.00000000000E+00  0.46295365320E+02  0.46295365320E+02  0.00000000000E+00 0. -1.
         -1   -1    0    0    0  501 -0.00000000000E+00 -0.00000000000E+00 -0.32095264591E+03  0.32095264591E+03  0.00000000000E+00 0.  1.
         25    2    1    2    0    0  0.50872793036E+02  0.23432786518E+02 -0.21418811173E+03  0.25424349637E+03  0.12500428668E+03 0.  0.
          5    1    3    3  502    0 -0.13255476734E+02  0.58589668508E+02 -0.68977189090E+02  0.91588206305E+02  0.47000000000E+01 0.  1.
         -5    1    3    3    0  502  0.64128269770E+02 -0.35156881989E+02 -0.14521092264E+03  0.16265529007E+03  0.47000000000E+01 0.  1.
          5    1    1    2  503    0 -0.42244111868E+02 -0.43920650611E+02 -0.16178137232E+02  0.63225079374E+02  0.47000000000E+01 0. -1.
         -5    1    1    2    0  503 -0.86286811681E+01  0.20487864093E+02 -0.44291031637E+02  0.49779435486E+02  0.47000000000E+01 0.  1.
<mgrwt>
<rscale>  0 0.12515575E+03</rscale>
<asrwt>0</asrwt>
<pdfrwt beam="1">  1        1 0.71223636E-02 0.13697886E+03</pdfrwt>
<pdfrwt beam="2">  1       -1 0.49377332E-01 0.13697886E+03</pdfrwt>
<totfact> 0.41100785E+03</totfact>
</mgrwt>
</event>
<event>
 7    1  0.1050440E-008  0.1272169E+03  0.7546771E-02  0.1261601E+00
          1   -1    0    0  501    0  0.00000000000E+00  0.00000000000E+00  0.51414058728E+02  0.51414058728E+02  0.00000000000E+00 0. -1.
         -1   -1    0    0    0  501 -0.00000000000E+00 -0.00000000000E+00 -0.35380858461E+03  0.35380858461E+03  0.00000000000E+00 0.  1.
         25    2    1    2    0    0 -0.20577739863E+02 -0.11714095803E+02 -0.31003280537E+03  0.33511859963E+03  0.12499388782E+03 0.  0.
          5    1    1    2  502    0  0.43769664813E+02  0.57797919077E+01  0.10254865886E+02  0.45567991251E+02  0.47000000000E+01 0. -1.
         -5    1    1    2    0  502 -0.23191924950E+02  0.59343038958E+01 -0.26165863927E+01  0.24536052453E+02  0.47000000000E+01 0.  1.
          5    1    3    3  503    0 -0.64544298656E+02 -0.36351678763E+01 -0.92243714164E+02  0.11273940632E+03  0.47000000000E+01 0.  1.
         -5    1    3    3    0  503  0.43966558794E+02 -0.80789279272E+01 -0.21778909121E+03  0.22237919331E+03  0.47000000000E+01 0.  1.
<mgrwt>
<rscale>  0 0.10944502E+03</rscale>
<asrwt>0</asrwt>
<pdfrwt beam="1">  1        1 0.79098552E-02 0.12721688E+03</pdfrwt>
<pdfrwt beam="2">  1       -1 0.54432090E-01 0.12721688E+03</pdfrwt>
<totfact> 0.29714913E+03</totfact>
</mgrwt>
</event>
<event>
 7    1  0.1050440E-008  0.1476977E+03  0.7546771E-02  0.1209615E+00
         -2   -1    0    0    0  501 -0.00000000000E+00  0.00000000000E+00  0.35777087083E+02  0.35777087083E+02  0.00000000000E+00 0.  1.
          2   -1    0    0  501    0  0.00000000000E+00 -0.00000000000E+00 -0.74266014800E+03  0.74266014800E+03  0.00000000000E+00 0. -1.
         25    2    1    2    0    0 -0.21493360513E+02  0.75682176012E+02 -0.57600131403E+03  0.59463612119E+03  0.12499938616E+03 0.  0.
          5    1    1    2  502    0  0.50056912296E+02 -0.11729951884E+02 -0.26557004478E+02  0.58057305541E+02  0.47000000000E+01 0. -1.
         -5    1    1    2    0  502 -0.28563551783E+02 -0.63952224127E+02 -0.10432474240E+03  0.12574380835E+03  0.47000000000E+01 0.  1.
          5    1    3    3  503    0 -0.63596857845E+02  0.56233110069E+02 -0.48493528085E+03  0.49233224514E+03  0.47000000000E+01 0. -1.
         -5    1    3    3    0  503  0.42103497332E+02  0.19449065942E+02 -0.91066033187E+02  0.10230387605E+03  0.47000000000E+01 0. -1.
<mgrwt>
<rscale>  0 0.14279605E+03</rscale>
<asrwt>0</asrwt>
<pdfrwt beam="1">  1        2 0.11425541E+00 0.14769767E+03</pdfrwt>
<pdfrwt beam="2">  1       -2 0.55041672E-02 0.14769767E+03</pdfrwt>
<totfact> 0.63925815E+03</totfact>
</mgrwt>
</event>
<event>
 7    1  0.1050440E-008  0.1777437E+03  0.7546771E-02  0.1179818E+00
          2   -1    0    0  501    0  0.00000000000E+00  0.00000000000E+00  0.46857184951E+03  0.46857184951E+03  0.00000000000E+00 0. -1.
         -2   -1    0    0    0  501 -0.00000000000E+00 -0.00000000000E+00 -0.58243414206E+02  0.58243414206E+02  0.00000000000E+00 0.  1.
         25    2    1    2    0    0  0.64695839482E+02  0.20724104018E+02  0.24895654726E+03  0.28674507398E+03  0.12501333887E+03 0.  0.
          5    1    3    3  502    0  0.86880393168E+01  0.61209637203E+02  0.17384153235E+03  0.18456725085E+03  0.47000000000E+01 0.  1.
         -5    1    1    2    0  503  0.37764427537E+02  0.12549067053E+02 -0.64549195180E+01  0.40588016176E+02  0.47000000000E+01 0.  1.
          5    1    1    2  503    0 -0.10246026702E+03 -0.33273171071E+02  0.16782680757E+03  0.19948217356E+03  0.47000000000E+01 0. -1.
         -5    1    3    3    0  502  0.56007800165E+02 -0.40485533184E+02  0.75115014902E+02  0.10217782313E+03  0.47000000000E+01 0.  1.
<mgrwt>
<rscale>  0 0.16812448E+03</rscale>
<asrwt>0</asrwt>
<pdfrwt beam="1">  1        2 0.72087974E-01 0.17774366E+03</pdfrwt>
<pdfrwt beam="2">  1       -2 0.89605256E-02 0.17774366E+03</pdfrwt>
<totfact> 0.51680539E+03</totfact>
</mgrwt>
</event>
<event>
 7    1  0.1050440E-008  0.1552688E+03  0.7546771E-02  0.1203618E+00
         -1   -1    0    0    0  501 -0.00000000000E+00  0.00000000000E+00  0.44142415768E+02  0.44142415768E+02  0.00000000000E+00 0.  1.
          1   -1    0    0  501    0  0.00000000000E+00 -0.00000000000E+00 -0.55329825685E+03  0.55329825685E+03  0.00000000000E+00 0. -1.
         25    2    1    2    0    0  0.86612566139E+02  0.31340790345E+02 -0.40485580718E+03  0.43360884584E+03  0.12499769931E+03 0.  0.
          5    1    3    3  502    0  0.90828179886E+02 -0.25574017088E+02 -0.20522604615E+03  0.22592832631E+03  0.47000000000E+01 0.  1.
         -5    1    1    2    0  503 -0.82117613170E+02 -0.52325782538E+02 -0.10300846067E+03  0.14182426760E+03  0.47000000000E+01 0.  1.
          5    1    1    2  503    0 -0.44949529684E+01  0.20984992193E+02 -0.12915732384E+01  0.22007559178E+02  0.47000000000E+01 0. -1.
         -5    1    3    3    0  502 -0.42156137473E+01  0.56914807432E+02 -0.19962976103E+03  0.20768051954E+03  0.47000000000E+01 0.  1.
<mgrwt>
<rscale>  0 0.14746887E+03</rscale>
<asrwt>0</asrwt>
<pdfrwt beam="1">  1        1 0.85122809E-01 0.15526882E+03</pdfrwt>
<pdfrwt beam="2">  1       -1 0.67911409E-02 0.15526882E+03</pdfrwt>
<totfact> 0.42448762E+03</totfact>
</mgrwt>
</event>
<event>
 7    1  0.1050440E-008  0.5501056E+03  0.7546771E-02  0.1045229E+00
         -1   -1    0    0    0  501 -0.00000000000E+00  0.00000000000E+00  0.85053950675E+03  0.85053950675E+03  0.00000000000E+00 0.  1.
          1   -1    0    0  501    0  0.00000000000E+00 -0.00000000000E+00 -0.17598639556E+03  0.17598639556E+03  0.00000000000E+00 0. -1.
         25    2    1    2    0    0  0.50570350486E+02 -0.59774858729E+02  0.36871661223E+03  0.39711969208E+03  0.12498686179E+03 0.  0.
          5    1    1    2  502    0 -0.17758479015E+03  0.23152092714E+03  0.29578071300E+03  0.41550766248E+03  0.47000000000E+01 0. -1.
         -5    1    1    2    0  502  0.12701443967E+03 -0.17174606841E+03  0.10055785965E+02  0.21389854775E+03  0.47000000000E+01 0.  1.
          5    1    3    3  503    0 -0.26798709698E+02  0.20218931725E+02  0.59863143760E+02  0.68794345861E+02  0.47000000000E+01 0. -1.
         -5    1    3    3    0  503  0.77369060184E+02 -0.79993790454E+02  0.30885346847E+03  0.32832534622E+03  0.47000000000E+01 0. -1.
<mgrwt>
<rscale>  0 0.39584234E+03</rscale>
<asrwt>0</asrwt>
<pdfrwt beam="1">  1        1 0.27074831E-01 0.55010564E+03</pdfrwt>
<pdfrwt beam="2">  1       -1 0.13085223E+00 0.55010564E+03</pdfrwt>
<totfact> 0.90389602E+01</totfact>
</mgrwt>
</event>
<event>
 7    1  0.1050440E-008  0.1861308E+03  0.7546771E-02  0.1168306E+00
          2   -1    0    0  501    0  0.00000000000E+00  0.00000000000E+00  0.65234412590E+03  0.65234412590E+03  0.00000000000E+00 0. -1.
         -2   -1    0    0    0  501 -0.00000000000E+00 -0.00000000000E+00 -0.46396106254E+02  0.46396106254E+02  0.00000000000E+00 0.  1.
         25    2    1    2    0    0  0.54687111876E+02 -0.85324201893E+02  0.25621776148E+03  0.30256358907E+03  0.12500513789E+03 0.  0.
          5    1    3    3  502    0 -0.12627609337E+02  0.24489343355E+02  0.23414021128E+02  0.36462183710E+02  0.47000000000E+01 0.  1.
         -5    1    3    3    0  502  0.67314721213E+02 -0.10981354525E+03  0.23280374035E+03  0.26610140536E+03  0.47000000000E+01 0.  1.
          5    1    1    2  503    0  0.39515159525E+01  0.51219143076E+02  0.31616452823E+03  0.32034530433E+03  0.47000000000E+01 0. -1.
         -5    1    1    2    0  503 -0.58638627828E+02  0.34105058817E+02  0.33565729927E+02  0.75831338746E+02  0.47000000000E+01 0.  1.
<mgrwt>
<rscale>  0 0.17948174E+03</rscale>
<asrwt>0</asrwt>
<pdfrwt beam="1">  1        2 0.10036063E+00 0.18613081E+03</pdfrwt>
<pdfrwt beam="2">  1       -2 0.71378630E-02 0.18613081E+03</pdfrwt>
<totfact> 0.50705409E+03</totfact>
</mgrwt>
</event>
<event>
 7    1  0.1050440E-008  0.4340734E+03  0.7546771E-02  0.1038563E+00
         -2   -1    0    0    0  501 -0.00000000000E+00  0.00000000000E+00  0.92861445982E+02  0.92861445982E+02  0.00000000000E+00 0.  1.
          2   -1    0    0  501    0  0.00000000000E+00 -0.00000000000E+00 -0.19986885302E+04  0.19986885302E+04  0.00000000000E+00 0. -1.
         25    2    1    2    0    0  0.46710327863E+02 -0.33884324928E+03 -0.48892759217E+03  0.60965122361E+03  0.12501128649E+03 0.  0.
          5    1    1    2  502    0  0.10640169487E+03  0.92788814126E+02 -0.54898961095E+03  0.56687103263E+03  0.47000000000E+01 0. -1.
         -5    1    1    2    0  502 -0.15311202273E+03  0.24605443516E+03 -0.86790988109E+03  0.91502771994E+03  0.47000000000E+01 0.  1.
          5    1    3    3  503    0  0.19109397365E+02 -0.24747347480E+03 -0.25000089821E+03  0.35232205282E+03  0.47000000000E+01 0. -1.
         -5    1    3    3    0  503  0.27600930498E+02 -0.91369774486E+02 -0.23892669396E+03  0.25732917079E+03  0.47000000000E+01 0. -1.
<mgrwt>
<rscale>  0 0.41543238E+03</rscale>
<asrwt>0</asrwt>
<pdfrwt beam="1">  1        2 0.30749056E+00 0.43407343E+03</pdfrwt>
<pdfrwt beam="2">  1       -2 0.14286376E-01 0.43407343E+03</pdfrwt>
<totfact> 0.26956033E+02</totfact>
</mgrwt>
</event>
<event>
 7    1  0.1050440E-008  0.2081436E+03  0.7546771E-02  0.1146004E+00
          2   -1    0    0  501    0  0.00000000000E+00  0.00000000000E+00  0.64980995714E+03  0.64980995714E+03  0.00000000000E+00 0. -1.
         -2   -1    0    0    0  501 -0.00000000000E+00 -0.00000000000E+00 -0.63118017725E+02  0.63118017725E+02  0.00000000000E+00 0.  1.
         25    2    1    2    0    0  0.60185511307E+02 -0.15516309415E+03  0.34674607546E+03  0.40442133681E+03  0.12500358101E+03 0.  0.
          5    1    3    3  502    0 -0.29587712513E+02 -0.81278527654E+02  0.10494171977E+03  0.13607529657E+03  0.47000000000E+01 0.  1.
         -5    1    3    3    0  502  0.89773223820E+02 -0.73884566496E+02  0.24180435569E+03  0.26834604024E+03  0.47000000000E+01 0.  1.
          5    1    1    2  503    0 -0.25319193900E+01  0.53106394028E+02  0.15426806798E+03  0.16324039482E+03  0.47000000000E+01 0. -1.
         -5    1    1    2    0  503 -0.57653591917E+02  0.10205670012E+03  0.85677795983E+02  0.14526624324E+03  0.47000000000E+01 0.  1.
<mgrwt>
<rscale>  0 0.20449100E+03</rscale>
<asrwt>0</asrwt>
<pdfrwt beam="1">  1        2 0.99970758E-01 0.20814364E+03</pdfrwt>
<pdfrwt beam="2">  1       -2 0.97104647E-02 0.20814364E+03</pdfrwt>
<totfact> 0.31608138E+03</totfact>
</mgrwt>
</event>
<event>
 7    1  0.1050440E-008  0.2361780E+03  0.7546771E-02  0.1147862E+00
          1   -1    0    0  501    0  0.00000000000E+00  0.00000000000E+00  0.51012380592E+03  0.51012380592E+03  0.00000000000E+00 0. -1.
         -1   -1    0    0    0  501 -0.00000000000E+00 -0.00000000000E+00 -0.84943868022E+02  0.84943868022E+02  0.00000000000E+00 0.  1.
         25    2    1    2    0    0  0.77175018588E+01 -0.20987257132E+02  0.30434112028E+03  0.32977149698E+03  0.12500279168E+03 0.  0.
          5    1    1    2  502    0 -0.10709251461E+03 -0.11193508754E+02  0.30899114684E+01  0.10782271967E+03  0.47000000000E+01 0. -1.
         -5    1    3    3    0  503  0.56039454624E+02  0.21042875313E+02  0.11330851651E+03  0.12823467935E+03  0.47000000000E+01 0. -1.
          5    1    3    3  503    0 -0.48321952765E+02 -0.42030132445E+02  0.19103260378E+03  0.20153681762E+03  0.47000000000E+01 0. -1.
         -5    1    1    2    0  502  0.99375012755E+02  0.32180765887E+02  0.11774890615E+03  0.15747345729E+03  0.47000000000E+01 0.  1.
<mgrwt>
<rscale>  0 0.20224112E+03</rscale>
<asrwt>0</asrwt>
<pdfrwt beam="1">  1        1 0.78480584E-01 0.23617799E+03</pdfrwt>
<pdfrwt beam="2">  1       -1 0.13068288E-01 0.23617799E+03</pdfrwt>
<totfact> 0.17539212E+03</totfact>
</mgrwt>
</event>
<event>
 7    1  0.1050440E-008  0.5603668E+03  0.7546771E-02  0.9991225E-01
         -2   -1    0    0    0  501 -0.00000000000E+00  0.00000000000E+00  0.50144456278E+02  0.50144456278E+02  0.00000000000E+00 0.  1.
          2   -1    0    0  501    0  0.00000000000E+00 -0.00000000000E+00 -0.15655317083E+04  0.15655317083E+04  0.00000000000E+00 0. -1.
         25    2    1    2    0    0 -0.15373145958E+03 -0.36205116914E+02 -0.10605312791E+04  0.10794883012E+04  0.12499690521E+03 0.  0.
          5    1    1    2  502    0  0.16406963545E+03  0.78836279039E+02 -0.45707953937E+03  0.49201402367E+03  0.47000000000E+01 0. -1.
         -5    1    3    3    0  503 -0.11145195237E+03  0.27988656412E+02 -0.46561898498E+03  0.47961237656E+03  0.47000000000E+01 0.  1.
          5    1    3    3  503    0 -0.42279507218E+02 -0.64193773327E+02 -0.59491229410E+03  0.59987592462E+03  0.47000000000E+01 0.  1.
         -5    1    1    2    0  502 -0.10338175868E+02 -0.42631162125E+02  0.22235664858E+01  0.44173839683E+02  0.47000000000E+01 0.  1.
<mgrwt>
<rscale>  0 0.56036680E+03</rscale>
<asrwt>0</asrwt>
<pdfrwt beam="1">  1        2 0.24085107E+00 0.56036680E+03</pdfrwt>
<pdfrwt beam="2">  1       -2 0.77145304E-02 0.56036680E+03</pdfrwt>
<totfact> 0.12417221E+03</totfact>
</mgrwt>
</event>
<event>
 7    1  0.1050440E-008  0.5254243E+03  0.7546771E-02  0.1007348E+00
          2   -1    0    0  501    0  0.00000000000E+00  0.00000000000E+00  0.47056478676E+03  0.47056478676E+03  0.00000000000E+00 0. -1.
         -2   -1    0    0    0  501 -0.00000000000E+00 -0.00000000000E+00 -0.14666985864E+03  0.14666985864E+03  0.00000000000E+00 0.  1.
         25    2    1    2    0    0 -0.10894936982E+03 -0.13851252056E+03  0.11537513115E+03  0.24492673907E+03  0.12498801178E+03 0.  0.
          5    1    1    2  502    0 -0.44103974029E+02  0.11237643930E+00 -0.32500382823E+02  0.54986707823E+02  0.47000000000E+01 0. -1.
         -5    1    3    3    0  503 -0.53236327717E+02 -0.57881181710E+02  0.12348224086E+03  0.14647283568E+03  0.47000000000E+01 0. -1.
          5    1    3    3  503    0 -0.55713042100E+02 -0.80631338851E+02 -0.81071097081E+01  0.98453903390E+02  0.47000000000E+01 0. -1.
         -5    1    1    2    0  502  0.15305334385E+03  0.13840014412E+03  0.24102017979E+03  0.31732119850E+03  0.47000000000E+01 0.  1.
<mgrwt>
<rscale>  0 0.52542429E+03</rscale>
<asrwt>0</asrwt>
<pdfrwt beam="1">  1        2 0.72394582E-01 0.52542429E+03</pdfrwt>
<pdfrwt beam="2">  1       -2 0.22564594E-01 0.52542429E+03</pdfrwt>
<totfact> 0.11402536E+03</totfact>
</mgrwt>
</event>
<event>
 7    1  0.1050440E-008  0.1276846E+03  0.7546771E-02  0.1278117E+00
          1   -1    0    0  501    0  0.00000000000E+00  0.00000000000E+00  0.58137808097E+03  0.58137808097E+03  0.00000000000E+00 0. -1.
         -1   -1    0    0    0  501 -0.00000000000E+00 -0.00000000000E+00 -0.15309260850E+02  0.15309260850E+02  0.00000000000E+00 0.  1.
         25    2    1    2    0    0  0.53438782332E+01  0.25496457881E+02  0.30151926245E+03  0.32744042270E+03  0.12499895356E+03 0.  0.
          5    1    1    2  502    0 -0.21492470524E+02 -0.34890568043E+01  0.12646316677E+03  0.12840997764E+03  0.47000000000E+01 0. -1.
         -5    1    1    2    0  502  0.16148592291E+02 -0.22007401076E+02  0.13808639090E+03  0.14083694148E+03  0.47000000000E+01 0.  1.
          5    1    3    3  503    0  0.43477649527E+02 -0.12105410401E+02  0.40115051160E+02  0.60565289556E+02  0.47000000000E+01 0.  1.
         -5    1    3    3    0  503 -0.38133771294E+02  0.37601868281E+02  0.26140421129E+03  0.26687513315E+03  0.47000000000E+01 0.  1.
<mgrwt>
<rscale>  0 0.10104334E+03</rscale>
<asrwt>0</asrwt>
<pdfrwt beam="1">  1        1 0.89442765E-01 0.12768463E+03</pdfrwt>
<pdfrwt beam="2">  1       -1 0.23552713E-02 0.12768463E+03</pdfrwt>
<totfact> 0.18622131E+04</totfact>
</mgrwt>
</event>
<event>
 7    1  0.1050440E-008  0.9832206E+03  0.7546771E-02  0.9327142E-01
         -2   -1    0    0    0  501 -0.00000000000E+00  0.00000000000E+00  0.36990560649E+03  0.36990560649E+03  0.00000000000E+00 0.  1.
          2   -1    0    0  501    0  0.00000000000E+00 -0.00000000000E+00 -0.65335778349E+03  0.65335778349E+03  0.00000000000E+00 0. -1.
         25    2    1    2    0    0 -0.32649019809E+03  0.45538390220E+02 -0.31958042158E+03  0.47584356066E+03  0.12500341568E+03 0.  0.
          5    1    3    3  502    0 -0.12920664047E+03  0.78640582627E+02 -0.15660037800E+03  0.21777159036E+03  0.47000000000E+01 0.  1.
         -5    1    3    3    0  502 -0.19728355762E+03 -0.33102192408E+02 -0.16298004358E+03  0.25807197031E+03  0.47000000000E+01 0.  1.
          5    1    1    2  503    0  0.32199520432E+03  0.39138920433E+02 -0.13889252228E+03  0.35288240171E+03  0.47000000000E+01 0. -1.
         -5    1    1    2    0  503  0.44949937746E+01 -0.84677310653E+02  0.17502076686E+03  0.19453742761E+03  0.47000000000E+01 0.  1.
<mgrwt>
<rscale>  0 0.98322064E+03</rscale>
<asrwt>0</asrwt>
<pdfrwt beam="1">  1        2 0.10051658E+00 0.98322064E+03</pdfrwt>
<pdfrwt beam="2">  1       -2 0.56908555E-01 0.98322064E+03</pdfrwt>
<totfact> 0.12930858E+02</totfact>
</mgrwt>
</event>
<event>
 7    1  0.1050440E-008  0.1573437E+03  0.7546771E-02  0.1192032E+00
         -2   -1    0    0    0  501 -0.00000000000E+00  0.00000000000E+00  0.40203428523E+02  0.40203428523E+02  0.00000000000E+00 0.  1.
          2   -1    0    0  501    0  0.00000000000E+00 -0.00000000000E+00 -0.87776417255E+03  0.87776417255E+03  0.00000000000E+00 0. -1.
         25    2    1    2    0    0 -0.53990410856E+02 -0.78847758350E+02 -0.67244650810E+03  0.69060940575E+03  0.12500044639E+03 0.  0.
          5    1    3    3  502    0 -0.75881349575E+02 -0.17601543045E+02 -0.21880252945E+03  0.23230245463E+03  0.47000000000E+01 0. -1.
         -5    1    1    2    0  503  0.29324571266E+02  0.52596678940E+02 -0.21991824508E+01  0.60442265997E+02  0.47000000000E+01 0.  1.
          5    1    1    2  503    0  0.24665839590E+02  0.26251079410E+02 -0.16291505347E+03  0.16691592932E+03  0.47000000000E+01 0. -1.
         -5    1    3    3    0  502  0.21890938719E+02 -0.61246215304E+02 -0.45364397865E+03  0.45830695113E+03  0.47000000000E+01 0. -1.
<mgrwt>
<rscale>  0 0.15708161E+03</rscale>
<asrwt>0</asrwt>
<pdfrwt beam="1">  1        2 0.13504064E+00 0.15734372E+03</pdfrwt>
<pdfrwt beam="2">  1       -2 0.61851430E-02 0.15734372E+03</pdfrwt>
<totfact> 0.43531710E+03</totfact>
</mgrwt>
</event>
<event>
 7    1  0.1050440E-008  0.1667056E+03  0.7546771E-02  0.1193845E+00
          1   -1    0    0  501    0  0.00000000000E+00  0.00000000000E+00  0.64606012311E+02  0.64606012311E+02  0.00000000000E+00 0. -1.
         -1   -1    0    0    0  501 -0.00000000000E+00 -0.00000000000E+00 -0.37718577833E+03  0.37718577833E+03  0.00000000000E+00 0.  1.
         25    2    1    2    0    0  0.79436429146E+02 -0.76521900550E+02 -0.99612397523E+02  0.19419935100E+03  0.12500004260E+03 0.  0.
          5    1    1    2  502    0 -0.34657226069E+02 -0.27103989830E+01 -0.55555314707E+02  0.65703520253E+02  0.47000000000E+01 0. -1.
         -5    1    1    2    0  502 -0.44779203077E+02  0.79232299533E+02 -0.15741205379E+03  0.18188891939E+03  0.47000000000E+01 0.  1.
          5    1    3    3  503    0  0.78498445281E+02 -0.36130478900E+02  0.65463651743E-01  0.86541964980E+02  0.47000000000E+01 0. -1.
         -5    1    3    3    0  503  0.93798386531E+00 -0.40391421650E+02 -0.99677861175E+02  0.10765738602E+03  0.47000000000E+01 0. -1.
<mgrwt>
<rscale>  0 0.15552394E+03</rscale>
<asrwt>0</asrwt>
<pdfrwt beam="1">  1        1 0.99393867E-02 0.16670560E+03</pdfrwt>
<pdfrwt beam="2">  1       -1 0.58028580E-01 0.16670560E+03</pdfrwt>
<totfact> 0.19668858E+03</totfact>
</mgrwt>
</event>
<event>
 7    1  0.1050440E-008  0.2348565E+03  0.7546771E-02  0.1127463E+00
          1   -1    0    0  501    0  0.00000000000E+00  0.00000000000E+00  0.37877376722E+03  0.37877376722E+03  0.00000000000E+00 0. -1.
         -1   -1    0    0    0  501 -0.00000000000E+00 -0.00000000000E+00 -0.14141139748E+03  0.14141139748E+03  0.00000000000E+00 0.  1.
         25    2    1    2    0    0  0.11587511964E+03  0.16157778414E+03  0.56006529912E+02  0.24144216883E+03  0.12499266305E+03 0.  0.
          5    1    3    3  502    0  0.75740586477E+02  0.83828927150E+01  0.15380060220E+02  0.77881612609E+02  0.47000000000E+01 0.  1.
         -5    1    1    2    0  503 -0.32078307000E+02 -0.39222974865E+02  0.93115004250E+02  0.10611292831E+03  0.47000000000E+01 0.  1.
          5    1    1    2  503    0 -0.83796812637E+02 -0.12235480928E+03  0.88240835581E+02  0.17263006756E+03  0.47000000000E+01 0. -1.
         -5    1    3    3    0  502  0.40134533159E+02  0.15319489143E+03  0.40626469692E+02  0.16356055622E+03  0.47000000000E+01 0.  1.
<mgrwt>
<rscale>  0 0.22883428E+03</rscale>
<asrwt>0</asrwt>
<pdfrwt beam="1">  1        1 0.58272887E-01 0.23485653E+03</pdfrwt>
<pdfrwt beam="2">  1       -1 0.21755600E-01 0.23485653E+03</pdfrwt>
<totfact> 0.11407407E+03</totfact>
</mgrwt>
</event>
<event>
 7    1  0.1050440E-008  0.1266609E+03  0.7546771E-02  0.1262200E+00
          1   -1    0    0  501    0  0.00000000000E+00  0.00000000000E+00  0.57794331952E+03  0.57794331952E+03  0.00000000000E+00 0. -1.
         -1   -1    0    0    0  501 -0.00000000000E+00 -0.00000000000E+00 -0.19817336129E+02  0.19817336129E+02  0.00000000000E+00 0.  1.
         25    2    1    2    0    0 -0.17085195491E+02  0.11241566839E+02  0.23271887180E+03  0.26495481173E+03  0.12499880895E+03 0.  0.
          5    1    1    2  502    0  0.42398157945E+02 -0.45089244835E+01  0.21495001691E+03  0.21918835272E+03  0.47000000000E+01 0. -1.
         -5    1    1    2    0  502 -0.25312962454E+02 -0.67326423557E+01  0.11045709467E+03  0.11361749119E+03  0.47000000000E+01 0.  1.
          5    1    3    3  503    0  0.43958174548E+02 -0.28901824257E+02  0.84674581276E+02  0.99797351013E+02  0.47000000000E+01 0.  1.
         -5    1    3    3    0  503 -0.61043370039E+02  0.40143391096E+02  0.14804429053E+03  0.16515746072E+03  0.47000000000E+01 0.  1.
<mgrwt>
<rscale>  0 0.10912452E+03</rscale>
<asrwt>0</asrwt>
<pdfrwt beam="1">  1        1 0.88914344E-01 0.12666088E+03</pdfrwt>
<pdfrwt beam="2">  1       -1 0.30488214E-02 0.12666088E+03</pdfrwt>
<totfact> 0.12904060E+04</totfact>
</mgrwt>
</event>
<event>
 7    1  0.1050440E-008  0.1423275E+03  0.7546771E-02  0.1218090E+00
          1   -1    0    0  501    0  0.00000000000E+00  0.00000000000E+00  0.27776835474E+03  0.27776835474E+03  0.00000000000E+00 0.  1.
         -1   -1    0    0    0  501 -0.00000000000E+00 -0.00000000000E+00 -0.66030053046E+02  0.66030053046E+02  0.00000000000E+00 0. -1.
         25    2    1    2    0    0  0.67553076968E+02 -0.82815353049E+01  0.72690401549E+02  0.15981552998E+03  0.12500042845E+03 0.  0.
          5    1    1    2  502    0 -0.14490980350E+02 -0.14979770921E+02 -0.10302617331E+02  0.23719527234E+02  0.47000000000E+01 0. -1.
         -5    1    3    3    0  503  0.88503988849E+02  0.25005201472E+02  0.20581690971E+02  0.94360543376E+02  0.47000000000E+01 0.  1.
          5    1    3    3  503    0 -0.20950911882E+02 -0.33286736776E+02  0.52108710578E+02  0.65454986609E+02  0.47000000000E+01 0.  1.
         -5    1    1    2    0  502 -0.53062096618E+02  0.23261306226E+02  0.14935051747E+03  0.16026335057E+03  0.47000000000E+01 0.  1.
<mgrwt>
<rscale>  0 0.13651963E+03</rscale>
<asrwt>0</asrwt>
<pdfrwt beam="1">  1        1 0.42733592E-01 0.14232747E+03</pdfrwt>
<pdfrwt beam="2">  1       -1 0.10158470E-01 0.14232747E+03</pdfrwt>
<totfact> 0.55122065E+03</totfact>
</mgrwt>
</event>
<event>
 7    1  0.1050440E-008  0.2918124E+03  0.7546771E-02  0.1089407E+00
         -2   -1    0    0    0  501 -0.00000000000E+00  0.00000000000E+00  0.24121187678E+02  0.24121187678E+02  0.00000000000E+00 0.  1.
          2   -1    0    0  501    0  0.00000000000E+00 -0.00000000000E+00 -0.88256944351E+03  0.88256944351E+03  0.00000000000E+00 0. -1.
         25    2    1    2    0    0  0.20684647923E+02 -0.60061091207E+02 -0.46612226203E+03  0.48675419908E+03  0.12499799126E+03 0.  0.
          5    1    1    2  502    0  0.19891031196E+02 -0.36652031190E+02 -0.15185557197E+03  0.15754754600E+03  0.47000000000E+01 0. -1.
         -5    1    3    3    0  503  0.45621434350E+02 -0.12665342410E+02 -0.57601448517E+02  0.74711063717E+02  0.47000000000E+01 0. -1.
          5    1    3    3  503    0 -0.24936786427E+02 -0.47395748797E+02 -0.40852081351E+03  0.41204313536E+03  0.47000000000E+01 0. -1.
         -5    1    1    2    0  502 -0.40575679119E+02  0.96713122396E+02 -0.24047042183E+03  0.26238888611E+03  0.47000000000E+01 0.  1.
<mgrwt>
<rscale>  0 0.29181243E+03</rscale>
<asrwt>0</asrwt>
<pdfrwt beam="1">  1        2 0.13577990E+00 0.29181243E+03</pdfrwt>
<pdfrwt beam="2">  1       -2 0.37109524E-02 0.29181243E+03</pdfrwt>
<totfact> 0.95955361E+03</totfact>
</mgrwt>
</event>
<event>
 7    1  0.1050440E-008  0.1443403E+03  0.7546771E-02  0.1209895E+00
          1   -1    0    0  501    0  0.00000000000E+00  0.00000000000E+00  0.49146487090E+03  0.49146487090E+03  0.00000000000E+00 0. -1.
         -1   -1    0    0    0  501 -0.00000000000E+00 -0.00000000000E+00 -0.40585424762E+02  0.40585424762E+02  0.00000000000E+00 0.  1.
         25    2    1    2    0    0 -0.31817218155E+02 -0.47457411910E+02  0.20146524968E+03  0.24388095680E+03  0.12500053177E+03 0.  0.
          5    1    1    2  502    0  0.60272244556E+02 -0.21591565708E+02  0.77222835669E+02  0.10042109102E+03  0.47000000000E+01 0. -1.
         -5    1    1    2    0  502 -0.28455026401E+02  0.69048977618E+02  0.17219136079E+03  0.18774824785E+03  0.47000000000E+01 0.  1.
          5    1    3    3  503    0  0.28534196764E+02 -0.52921898272E+02  0.42741718169E+02  0.73918009806E+02  0.47000000000E+01 0. -1.
         -5    1    3    3    0  503 -0.60351414920E+02  0.54644863614E+01  0.15872353151E+03  0.16996294699E+03  0.47000000000E+01 0. -1.
<mgrwt>
<rscale>  0 0.14258334E+03</rscale>
<asrwt>0</asrwt>
<pdfrwt beam="1">  1        1 0.75609976E-01 0.14434031E+03</pdfrwt>
<pdfrwt beam="2">  1       -1 0.62439119E-02 0.14434031E+03</pdfrwt>
<totfact> 0.56096306E+03</totfact>
</mgrwt>
</event>
<event>
 7    1  0.1908636E-008  0.1544244E+03  0.7546771E-02  0.1199785E+00
          1   -1    0    0  501    0  0.00000000000E+00  0.00000000000E+00  0.29388083091E+03  0.29388083091E+03  0.00000000000E+00 0. -1.
         -1   -1    0    0    0  501 -0.00000000000E+00 -0.00000000000E+00 -0.13546055234E+03  0.13546055234E+03  0.00000000000E+00 0.  1.
         25    2    1    2    0    0  0.55657407080E+02  0.27373114659E+02 -0.68035029017E+02  0.15524486398E+03  0.12500067299E+03 0.  0.
          5    1    3    3  502    0  0.84443932248E+01 -0.32438513904E+02 -0.71198109990E+02  0.78834166625E+02  0.47000000000E+01 0.  1.
         -5    1    1    2    0  503 -0.38481229230E+02 -0.41224817694E+02  0.11231365754E+02  0.57693363341E+02  0.47000000000E+01 0.  1.
          5    1    1    2  503    0 -0.17176177850E+02  0.13851703035E+02  0.21522394182E+03  0.21640315593E+03  0.47000000000E+01 0. -1.
         -5    1    3    3    0  502  0.47213013856E+02  0.59811628563E+02  0.31630809730E+01  0.76410697353E+02  0.47000000000E+01 0.  1.
<mgrwt>
<rscale>  0 0.15056146E+03</rscale>
<asrwt>0</asrwt>
<pdfrwt beam="1">  1        1 0.45212435E-01 0.15442440E+03</pdfrwt>
<pdfrwt beam="2">  1       -1 0.20840085E-01 0.15442440E+03</pdfrwt>
<totfact> 0.16705635E+03</totfact>
</mgrwt>
</event>
<event>
 7    1  0.1050440E-008  0.5735781E+03  0.7546771E-02  0.9961792E-01
          2   -1    0    0  501    0  0.00000000000E+00  0.00000000000E+00  0.10822834731E+04  0.10822834731E+04  0.00000000000E+00 0. -1.
         -2   -1    0    0    0  501 -0.00000000000E+00 -0.00000000000E+00 -0.75994838246E+02  0.75994838246E+02  0.00000000000E+00 0.  1.
         25    2    1    2    0    0 -0.54719589479E+02  0.12038954519E+03  0.65907267522E+02  0.19353850052E+03  0.12500202882E+03 0.  0.
          5    1    1    2  502    0  0.81930819818E+02 -0.95272199662E+02  0.90369514866E+03  0.91240148125E+03  0.47000000000E+01 0. -1.
         -5    1    1    2    0  502 -0.27211230339E+02 -0.25117345530E+02  0.36686218682E+02  0.52338329589E+02  0.47000000000E+01 0.  1.
          5    1    3    3  503    0  0.27266915328E+02  0.28656534633E+02 -0.18844807752E+02  0.44066976614E+02  0.47000000000E+01 0. -1.
         -5    1    3    3    0  503 -0.81986504806E+02  0.91733010559E+02  0.84752075274E+02  0.14947152391E+03  0.47000000000E+01 0. -1.
<mgrwt>
<rscale>  0 0.57357809E+03</rscale>
<asrwt>0</asrwt>
<pdfrwt beam="1">  1        2 0.16650514E+00 0.57357809E+03</pdfrwt>
<pdfrwt beam="2">  1       -2 0.11691514E-01 0.57357809E+03</pdfrwt>
<totfact> 0.11984132E+03</totfact>
</mgrwt>
</event>
<event>
 7    1  0.1050440E-008  0.1423211E+03  0.7546771E-02  0.1233261E+00
          1   -1    0    0  501    0  0.00000000000E+00  0.00000000000E+00  0.48128392926E+02  0.48128392926E+02  0.00000000000E+00 0. -1.
         -1   -1    0    0    0  501 -0.00000000000E+00 -0.00000000000E+00 -0.41064417996E+03  0.41064417996E+03  0.00000000000E+00 0.  1.
         25    2    1    2    0    0  0.11132337173E+02 -0.67118738922E+02 -0.80784640667E+02  0.16365044160E+03  0.12500581916E+03 0.  0.
          5    1    3    3  502    0  0.74632888559E+01  0.36016547710E+02 -0.99556876537E+01  0.38393985286E+02  0.47000000000E+01 0.  1.
         -5    1    3    3    0  502  0.36690483167E+01 -0.10313528663E+03 -0.70828953013E+02  0.12525645632E+03  0.47000000000E+01 0.  1.
          5    1    1    2  503    0 -0.32607114608E+02  0.29454958816E+02 -0.13518271465E+03  0.14222262429E+03  0.47000000000E+01 0. -1.
         -5    1    1    2    0  503  0.21474777435E+02  0.37663780106E+02 -0.14654843172E+03  0.15289950699E+03  0.47000000000E+01 0.  1.
<mgrwt>
<rscale>  0 0.12616440E+03</rscale>
<asrwt>0</asrwt>
<pdfrwt beam="1">  1        1 0.74043680E-02 0.14232115E+03</pdfrwt>
<pdfrwt beam="2">  1       -1 0.63176029E-01 0.14232115E+03</pdfrwt>
<totfact> 0.24648895E+03</totfact>
</mgrwt>
</event>
<event>
 7    1  0.1050440E-008  0.1329485E+03  0.7546771E-02  0.1258450E+00
          2   -1    0    0  501    0  0.00000000000E+00  0.00000000000E+00  0.39255735058E+03  0.39255735058E+03  0.00000000000E+00 0. -1.
         -2   -1    0    0    0  501 -0.00000000000E+00 -0.00000000000E+00 -0.26046572768E+02  0.26046572768E+02  0.00000000000E+00 0.  1.
         25    2    1    2    0    0 -0.39579421517E+02  0.22024957011E+02  0.28411342701E+03  0.31368096089E+03  0.12499470581E+03 0.  0.
          5    1    3    3  502    0 -0.60566770798E+02  0.31847873302E+01  0.52632679615E+02  0.80441068856E+02  0.47000000000E+01 0. -1.
         -5    1    3    3    0  502  0.20987349281E+02  0.18840169681E+02  0.23148074739E+03  0.23323989204E+03  0.47000000000E+01 0. -1.
          5    1    1    2  503    0  0.30320586391E+01 -0.23099312504E+02  0.51885278381E+02  0.57069639305E+02  0.47000000000E+01 0. -1.
         -5    1    1    2    0  503  0.36547362877E+02  0.10743554931E+01  0.30512072425E+02  0.47853323152E+02  0.47000000000E+01 0.  1.
<mgrwt>
<rscale>  0 0.11115277E+03</rscale>
<asrwt>0</asrwt>
<pdfrwt beam="1">  1        2 0.60393434E-01 0.13294851E+03</pdfrwt>
<pdfrwt beam="2">  1       -2 0.40071653E-02 0.13294851E+03</pdfrwt>
<totfact> 0.20889436E+04</totfact>
</mgrwt>
</event>
<event>
 7    1  0.1050440E-008  0.3323791E+03  0.7546771E-02  0.1103402E+00
          4   -1    0    0  501    0  0.00000000000E+00  0.00000000000E+00  0.12854943667E+03  0.12854943667E+03  0.00000000000E+00 0. -1.
         -4   -1    0    0    0  501 -0.00000000000E+00 -0.00000000000E+00 -0.15859898950E+04  0.15859898950E+04  0.00000000000E+00 0.  1.
         25    2    1    2    0    0 -0.48318785344E+02  0.28466261594E+02  0.68248230160E+02  0.15306507761E+03  0.12500425592E+03 0.  0.
          5    1    1    2  502    0 -0.10282116248E+03 -0.65873530481E+02 -0.27256513734E+03  0.29870613915E+03  0.47000000000E+01 0. -1.
         -5    1    3    3    0  503  0.17854830189E+02  0.36725708301E+02  0.75353599179E+02  0.85836050238E+02  0.47000000000E+01 0.  1.
          5    1    3    3  503    0 -0.66173615532E+02 -0.82594467067E+01 -0.71053690183E+01  0.67229027372E+02  0.47000000000E+01 0.  1.
         -5    1    1    2    0  502  0.15113994782E+03  0.37407268887E+02 -0.12531235512E+04  0.12627681149E+04  0.47000000000E+01 0.  1.
<mgrwt>
<rscale>  0 0.26632473E+03</rscale>
<asrwt>0</asrwt>
<pdfrwt beam="1">  1        4 0.19776836E-01 0.33237911E+03</pdfrwt>
<pdfrwt beam="2">  1       -4 0.24399845E+00 0.33237911E+03</pdfrwt>
<totfact> 0.32562238E+00</totfact>
</mgrwt>
</event>
<event>
 7    1  0.1050440E-008  0.2637633E+03  0.7546771E-02  0.1104903E+00
          2   -1    0    0  501    0  0.00000000000E+00  0.00000000000E+00  0.25249291437E+03  0.25249291437E+03  0.00000000000E+00 0. -1.
         -2   -1    0    0    0  501 -0.00000000000E+00 -0.00000000000E+00 -0.68884192885E+02  0.68884192885E+02  0.00000000000E+00 0.  1.
         25    2    1    2    0    0 -0.11830175622E+02 -0.10086227936E+02  0.90703768032E+02  0.15522121243E+03  0.12499906481E+03 0.  0.
          5    1    1    2  502    0  0.65547228971E+02  0.38864710873E+02  0.56893178962E+02  0.95214645876E+02  0.47000000000E+01 0. -1.
         -5    1    3    3    0  503  0.39041883495E+02 -0.48147707516E+02  0.47702651676E+02  0.78358811775E+02  0.47000000000E+01 0. -1.
          5    1    3    3  503    0 -0.50872059117E+02  0.38061479580E+02  0.43001116356E+02  0.76862400655E+02  0.47000000000E+01 0. -1.
         -5    1    1    2    0  502 -0.53717053349E+02 -0.28778482937E+02  0.36011774494E+02  0.70941248952E+02  0.47000000000E+01 0.  1.
<mgrwt>
<rscale>  0 0.26376331E+03</rscale>
<asrwt>0</asrwt>
<pdfrwt beam="1">  1        2 0.38845063E-01 0.26376331E+03</pdfrwt>
<pdfrwt beam="2">  1       -2 0.10597568E-01 0.26376331E+03</pdfrwt>
<totfact> 0.78934611E+03</totfact>
</mgrwt>
</event>
<event>
 7    1  0.1050440E-008  0.6687181E+03  0.7546771E-02  0.9772276E-01
         -2   -1    0    0    0  501 -0.00000000000E+00  0.00000000000E+00  0.10191844138E+03  0.10191844138E+03  0.00000000000E+00 0.  1.
          2   -1    0    0  501    0  0.00000000000E+00 -0.00000000000E+00 -0.10969160426E+04  0.10969160426E+04  0.00000000000E+00 0. -1.
         25    2    1    2    0    0 -0.23835672942E+02 -0.15927183961E+03 -0.74953270493E+03  0.77676574281E+03  0.12502033932E+03 0.  0.
          5    1    1    2  502    0 -0.69722209936E+02  0.55745140874E+01 -0.23110378496E+03  0.24150219706E+03  0.47000000000E+01 0. -1.
         -5    1    1    2    0  502  0.93557882877E+02  0.15369732552E+03 -0.14361111294E+02  0.18056654407E+03  0.47000000000E+01 0.  1.
          5    1    3    3  503    0 -0.74361898423E+02 -0.82203811202E+02 -0.37798445431E+03  0.39393082668E+03  0.47000000000E+01 0.  1.
         -5    1    3    3    0  503  0.50526225482E+02 -0.77068028406E+02 -0.37154825063E+03  0.38283491613E+03  0.47000000000E+01 0.  1.
<mgrwt>
<rscale>  0 0.66871810E+03</rscale>
<asrwt>0</asrwt>
<pdfrwt beam="1">  1        2 0.16875632E+00 0.66871810E+03</pdfrwt>
<pdfrwt beam="2">  1       -2 0.15679760E-01 0.66871810E+03</pdfrwt>
<totfact> 0.71728274E+02</totfact>
</mgrwt>
</event>
<event>
 7    1  0.1050440E-008  0.3195874E+03  0.7546771E-02  0.1075839E+00
          3   -1    0    0  501    0  0.00000000000E+00  0.00000000000E+00  0.16538643089E+03  0.16538643089E+03  0.00000000000E+00 0. -1.
         -3   -1    0    0    0  501 -0.00000000000E+00 -0.00000000000E+00 -0.15439009340E+03  0.15439009340E+03  0.00000000000E+00 0.  1.
         25    2    1    2    0    0  0.58400716444E+02 -0.27364556864E+02  0.32994811040E+02  0.14447652452E+03  0.12500138371E+03 0.  0.
          5    1    1    2  502    0  0.51540722919E+02 -0.36397258142E+01 -0.31305641423E+02  0.60595601391E+02  0.47000000000E+01 0. -1.
         -5    1    1    2    0  502 -0.10994143936E+03  0.31004282678E+02  0.93071678693E+01  0.11470439838E+03  0.47000000000E+01 0.  1.
          5    1    3    3  503    0 -0.18133586449E+02 -0.55810982606E+02  0.13379221110E+02  0.60372065514E+02  0.47000000000E+01 0. -1.
         -5    1    3    3    0  503  0.76534302893E+02  0.28446425742E+02  0.19615589930E+02  0.84104459008E+02  0.47000000000E+01 0. -1.
<mgrwt>
<rscale>  0 0.31958740E+03</rscale>
<asrwt>0</asrwt>
<pdfrwt beam="1">  1        3 0.25444066E-01 0.31958740E+03</pdfrwt>
<pdfrwt beam="2">  1       -3 0.23752322E-01 0.31958740E+03</pdfrwt>
<totfact> 0.61797151E+02</totfact>
</mgrwt>
</event>
<event>
 7    1  0.1050440E-008  0.8196782E+03  0.7546771E-02  0.9531963E-01
          1   -1    0    0  501    0  0.00000000000E+00  0.00000000000E+00  0.51558656497E+03  0.51558656497E+03  0.00000000000E+00 0. -1.
         -1   -1    0    0    0  501 -0.00000000000E+00 -0.00000000000E+00 -0.32578055889E+03  0.32578055889E+03  0.00000000000E+00 0.  1.
         25    2    1    2    0    0  0.95004369044E+02  0.27710287356E+03  0.26809658293E+03  0.41630790402E+03  0.12499864199E+03 0.  0.
          5    1    3    3  502    0  0.20998037964E+02  0.22349386784E+03  0.16614324215E+03  0.27931361133E+03  0.47000000000E+01 0.  1.
         -5    1    1    2    0  503 -0.72837231117E+02  0.19666454860E+02 -0.10146211853E+03  0.12652542504E+03  0.47000000000E+01 0.  1.
          5    1    1    2  503    0 -0.22167137927E+02 -0.29676932842E+03  0.23171541688E+02  0.29853379480E+03  0.47000000000E+01 0. -1.
         -5    1    3    3    0  502  0.74006331080E+02  0.53609005716E+02  0.10195334078E+03  0.13699429269E+03  0.47000000000E+01 0.  1.
<mgrwt>
<rscale>  0 0.81967818E+03</rscale>
<asrwt>0</asrwt>
<pdfrwt beam="1">  1        1 0.79321010E-01 0.81967818E+03</pdfrwt>
<pdfrwt beam="2">  1       -1 0.50120086E-01 0.81967818E+03</pdfrwt>
<totfact> 0.17154858E+02</totfact>
</mgrwt>
</event>
<event>
 7    1  0.1050440E-008  0.7196316E+03  0.7546771E-02  0.9684236E-01
          1   -1    0    0  501    0  0.00000000000E+00  0.00000000000E+00  0.68395338022E+03  0.68395338022E+03  0.00000000000E+00 0. -1.
         -1   -1    0    0    0  501 -0.00000000000E+00 -0.00000000000E+00 -0.18929271617E+03  0.18929271617E+03  0.00000000000E+00 0.  1.
         25    2    1    2    0    0  0.13391702520E+03  0.24535129566E+03  0.19154349084E+03  0.36117047666E+03  0.12499670558E+03 0.  0.
          5    1    3    3  502    0  0.36429500717E+02  0.60945471820E+02 -0.90617693615E+01  0.71733288798E+02  0.47000000000E+01 0.  1.
         -5    1    3    3    0  502  0.97487524487E+02  0.18440582384E+03  0.20060526020E+03  0.28943718786E+03  0.47000000000E+01 0.  1.
          5    1    1    2  503    0  0.16468360396E+02  0.30695715339E+02  0.16497207901E+03  0.16867516322E+03  0.47000000000E+01 0. -1.
         -5    1    1    2    0  503 -0.15038538560E+03 -0.27604701100E+03  0.13814509419E+03  0.34340045651E+03  0.47000000000E+01 0.  1.
<mgrwt>
<rscale>  0 0.71963155E+03</rscale>
<asrwt>0</asrwt>
<pdfrwt beam="1">  1        1 0.10522360E+00 0.71963155E+03</pdfrwt>
<pdfrwt beam="2">  1       -1 0.29121957E-01 0.71963155E+03</pdfrwt>
<totfact> 0.30673877E+02</totfact>
</mgrwt>
</event>
<event>
 7    1  0.1050440E-008  0.4604336E+03  0.7546771E-02  0.1059626E+00
          1   -1    0    0  501    0  0.00000000000E+00  0.00000000000E+00  0.11784346426E+04  0.11784346426E+04  0.00000000000E+00 0. -1.
         -1   -1    0    0    0  501 -0.00000000000E+00 -0.00000000000E+00 -0.83571328026E+02  0.83571328026E+02  0.00000000000E+00 0.  1.
         25    2    1    2    0    0  0.35726810861E+02 -0.10500687428E+03  0.28214984750E+03  0.32792767017E+03  0.12500068701E+03 0.  0.
          5    1    3    3  502    0  0.51237342442E+02  0.84538492243E+01  0.98458913662E+02  0.11141355621E+03  0.47000000000E+01 0. -1.
         -5    1    3    3    0  502 -0.15510531581E+02 -0.11346072350E+03  0.18369093384E+03  0.21651411396E+03  0.47000000000E+01 0. -1.
          5    1    1    2  503    0 -0.21558318325E+03 -0.15751375171E+02  0.24686413301E+03  0.32815881046E+03  0.47000000000E+01 0. -1.
         -5    1    1    2    0  503  0.17985637238E+03  0.12075824945E+03  0.56584933405E+03  0.60591948999E+03  0.47000000000E+01 0.  1.
<mgrwt>
<rscale>  0 0.35738002E+03</rscale>
<asrwt>0</asrwt>
<pdfrwt beam="1">  1        1 0.18129762E+00 0.46043359E+03</pdfrwt>
<pdfrwt beam="2">  1       -1 0.12857128E-01 0.46043359E+03</pdfrwt>
<totfact> 0.48119402E+02</totfact>
</mgrwt>
</event>
<event>
 7    1  0.1050440E-008  0.9901133E+03  0.7546771E-02  0.9319455E-01
         -2   -1    0    0    0  501 -0.00000000000E+00  0.00000000000E+00  0.24796812509E+03  0.24796812509E+03  0.00000000000E+00 0. -1.
          2   -1    0    0  501    0  0.00000000000E+00 -0.00000000000E+00 -0.98835712754E+03  0.98835712754E+03  0.00000000000E+00 0.  1.
         25    2    1    2    0    0 -0.22523402917E+03 -0.18831936758E+03 -0.14067422150E+03  0.34872570861E+03  0.12500332454E+03 0.  0.
          5    1    3    3  502    0 -0.15073140395E+03 -0.49311975384E+02 -0.48117803331E+02  0.16579819073E+03  0.47000000000E+01 0.  1.
         -5    1    3    3    0  502 -0.74502625221E+02 -0.13900739220E+03 -0.92556418173E+02  0.18292751787E+03  0.47000000000E+01 0.  1.
          5    1    1    2  503    0  0.35662899576E+03  0.30753966060E+03 -0.37985755945E+03  0.60504441071E+03  0.47000000000E+01 0. -1.
         -5    1    1    2    0  503 -0.13139496659E+03 -0.11922029302E+03 -0.21985722150E+03  0.28255513331E+03  0.47000000000E+01 0.  1.
<mgrwt>
<rscale>  0 0.99011325E+03</rscale>
<asrwt>0</asrwt>
<pdfrwt beam="1">  1        2 0.15205494E+00 0.99011325E+03</pdfrwt>
<pdfrwt beam="2">  1       -2 0.38148942E-01 0.99011325E+03</pdfrwt>
<totfact> 0.16590386E+02</totfact>
</mgrwt>
</event>
<event>
 7    1  0.1050440E-008  0.1623951E+03  0.7546771E-02  0.1187501E+00
          1   -1    0    0  501    0  0.00000000000E+00  0.00000000000E+00  0.71553380733E+03  0.71553380733E+03  0.00000000000E+00 0. -1.
         -1   -1    0    0    0  501 -0.00000000000E+00 -0.00000000000E+00 -0.36050650943E+02  0.36050650943E+02  0.00000000000E+00 0.  1.
         25    2    1    2    0    0  0.10356024130E+03  0.47017739764E+01  0.38374724210E+03  0.41669425543E+03  0.12500130573E+03 0.  0.
          5    1    1    2  502    0 -0.20314364994E+02  0.42991950803E+02  0.42128959102E+02  0.63701808876E+02  0.47000000000E+01 0. -1.
         -5    1    3    3    0  503  0.26665785940E+02  0.50395855949E+02  0.24467252485E+03  0.25127184652E+03  0.47000000000E+01 0.  1.
          5    1    3    3  503    0  0.76894455356E+02 -0.45694081972E+02  0.13907471725E+03  0.16542240891E+03  0.47000000000E+01 0.  1.
         -5    1    1    2    0  502 -0.83245876302E+02 -0.47693724780E+02  0.25360695518E+03  0.27118839397E+03  0.47000000000E+01 0.  1.
<mgrwt>
<rscale>  0 0.16106402E+03</rscale>
<asrwt>0</asrwt>
<pdfrwt beam="1">  1        1 0.11008211E+00 0.16239506E+03</pdfrwt>
<pdfrwt beam="2">  1       -1 0.55462546E-02 0.16239506E+03</pdfrwt>
<totfact> 0.40274479E+03</totfact>
</mgrwt>
</event>
<event>
 7    1  0.1050440E-008  0.1975213E+03  0.7546771E-02  0.1156142E+00
         -2   -1    0    0    0  501 -0.00000000000E+00  0.00000000000E+00  0.39745348569E+02  0.39745348569E+02  0.00000000000E+00 0.  1.
          2   -1    0    0  501    0  0.00000000000E+00 -0.00000000000E+00 -0.98587900799E+03  0.98587900799E+03  0.00000000000E+00 0. -1.
         25    2    1    2    0    0 -0.14350711244E+03  0.52872628745E+02 -0.65472646009E+03  0.68387235774E+03  0.12499943179E+03 0.  0.
          5    1    1    2  502    0  0.95400536297E+02  0.12960882490E+02 -0.14526629324E+03  0.17433769745E+03  0.47000000000E+01 0. -1.
         -5    1    3    3    0  503 -0.12247773672E+02  0.57027162802E+02 -0.29848219868E+03  0.30416413034E+03  0.47000000000E+01 0. -1.
          5    1    3    3  503    0 -0.13125933877E+03 -0.41545340575E+01 -0.35624426141E+03  0.37970822740E+03  0.47000000000E+01 0. -1.
         -5    1    1    2    0  502  0.48106576142E+02 -0.65833511235E+02 -0.14614090609E+03  0.16741430137E+03  0.47000000000E+01 0.  1.
<mgrwt>
<rscale>  0 0.19259451E+03</rscale>
<asrwt>0</asrwt>
<pdfrwt beam="1">  1        2 0.15167368E+00 0.19752130E+03</pdfrwt>
<pdfrwt beam="2">  1       -2 0.61146696E-02 0.19752130E+03</pdfrwt>
<totfact> 0.38158783E+03</totfact>
</mgrwt>
</event>
<event>
 7    1  0.1050440E-008  0.1290788E+03  0.7546771E-02  0.1249980E+00
         -1   -1    0    0    0  501 -0.00000000000E+00  0.00000000000E+00  0.40131003572E+02  0.40131003572E+02  0.00000000000E+00 0.  1.
          1   -1    0    0  501    0  0.00000000000E+00 -0.00000000000E+00 -0.35768854614E+03  0.35768854614E+03  0.00000000000E+00 0. -1.
         25    2    1    2    0    0 -0.32118096513E+02  0.19817281703E+01 -0.95938524727E+02  0.16082765358E+03  0.12500333699E+03 0.  0.
          5    1    1    2  502    0 -0.26972125306E+01 -0.32655214160E+02 -0.13047903196E+03  0.13461242791E+03  0.47000000000E+01 0. -1.
         -5    1    3    3    0  503 -0.14190896624E+02 -0.32035638996E+02  0.18578194094E+02  0.39936236786E+02  0.47000000000E+01 0. -1.
          5    1    3    3  503    0 -0.17927199889E+02  0.34017367166E+02 -0.11451671882E+03  0.12089141679E+03  0.47000000000E+01 0. -1.
         -5    1    1    2    0  502  0.34815309044E+02  0.30673485990E+02 -0.91139985879E+02  0.10237946822E+03  0.47000000000E+01 0.  1.
<mgrwt>
<rscale>  0 0.11592206E+03</rscale>
<asrwt>0</asrwt>
<pdfrwt beam="1">  1        1 0.55029007E-01 0.12907879E+03</pdfrwt>
<pdfrwt beam="2">  1       -1 0.61740005E-02 0.12907879E+03</pdfrwt>
<totfact> 0.84819247E+03</totfact>
</mgrwt>
</event>
<event>
 7    1  0.1093796E-008  0.1296569E+03  0.7546771E-02  0.1240888E+00
          2   -1    0    0  501    0  0.00000000000E+00  0.00000000000E+00  0.33778430551E+03  0.33778430551E+03  0.00000000000E+00 0. -1.
         -2   -1    0    0    0  501 -0.00000000000E+00 -0.00000000000E+00 -0.93478075348E+02  0.93478075348E+02  0.00000000000E+00 0.  1.
         25    2    1    2    0    0  0.22698898398E+02 -0.25896143447E+02  0.29306884700E+03  0.32046879781E+03  0.12500020421E+03 0.  0.
          5    1    1    2  502    0 -0.51838698099E+02  0.17292666298E+02 -0.20696939650E+01  0.54887708654E+02  0.47000000000E+01 0. -1.
         -5    1    1    2    0  502  0.29139799701E+02  0.86034771493E+01 -0.46692922871E+02  0.55905874396E+02  0.47000000000E+01 0.  1.
          5    1    3    3  503    0  0.55830326514E+02 -0.42439359855E+02  0.91013788592E+02  0.11499445351E+03  0.47000000000E+01 0.  1.
         -5    1    3    3    0  503 -0.33131428117E+02  0.16543216408E+02  0.20205505840E+03  0.20547434430E+03  0.47000000000E+01 0.  1.
<mgrwt>
<rscale>  0 0.12134920E+03</rscale>
<asrwt>0</asrwt>
<pdfrwt beam="1">  1        2 0.51966816E-01 0.12965686E+03</pdfrwt>
<pdfrwt beam="2">  1       -2 0.14381243E-01 0.12965686E+03</pdfrwt>
<totfact> 0.34045703E+03</totfact>
</mgrwt>
</event>
<event>
 7    1  0.1050440E-008  0.6025229E+03  0.7546771E-02  0.9900186E-01
          2   -1    0    0  501    0  0.00000000000E+00  0.00000000000E+00  0.10361866189E+04  0.10361866189E+04  0.00000000000E+00 0. -1.
         -2   -1    0    0    0  501 -0.00000000000E+00 -0.00000000000E+00 -0.87588916748E+02  0.87588916748E+02  0.00000000000E+00 0.  1.
         25    2    1    2    0    0  0.17091441232E+02  0.19087338564E+03  0.35886869626E+03  0.42560096594E+03  0.12499869736E+03 0.  0.
          5    1    3    3  502    0 -0.11145062049E+02  0.90520622116E+02  0.60596242820E+02  0.10960013723E+03  0.47000000000E+01 0. -1.
         -5    1    1    2    0  503  0.99890669120E+02  0.45558320680E+02  0.17350267497E+03  0.20537520440E+03  0.47000000000E+01 0.  1.
          5    1    1    2  503    0 -0.11698211035E+03 -0.23643170632E+03  0.41622633093E+03  0.49279936532E+03  0.47000000000E+01 0. -1.
         -5    1    3    3    0  502  0.28236503281E+02  0.10035276353E+03  0.29827245344E+03  0.31600082872E+03  0.47000000000E+01 0. -1.
<mgrwt>
<rscale>  0 0.60252291E+03</rscale>
<asrwt>0</asrwt>
<pdfrwt beam="1">  1        2 0.15941332E+00 0.60252291E+03</pdfrwt>
<pdfrwt beam="2">  1       -2 0.13475219E-01 0.60252291E+03</pdfrwt>
<totfact> 0.10108909E+03</totfact>
</mgrwt>
</event>
<event>
 7    1  0.1050440E-008  0.1936059E+03  0.7546771E-02  0.1161157E+00
          1   -1    0    0  501    0  0.00000000000E+00  0.00000000000E+00  0.95396372028E+02  0.95396372028E+02  0.00000000000E+00 0. -1.
         -1   -1    0    0    0  501 -0.00000000000E+00 -0.00000000000E+00 -0.34422223551E+03  0.34422223551E+03  0.00000000000E+00 0.  1.
         25    2    1    2    0    0  0.33542188082E+02 -0.10813808038E+03 -0.10926408396E+03  0.20095409512E+03  0.12499994197E+03 0.  0.
          5    1    3    3  502    0 -0.11826792121E+02 -0.30478274038E+02  0.23491801835E+02  0.40530888884E+02  0.47000000000E+01 0.  1.
         -5    1    1    2    0  503  0.28215246419E+02  0.11783352242E+03 -0.54356716388E+02  0.13288183380E+03  0.47000000000E+01 0.  1.
          5    1    1    2  503    0 -0.61757434502E+02 -0.96954420471E+01 -0.85205063130E+02  0.10578267862E+03  0.47000000000E+01 0. -1.
         -5    1    3    3    0  502  0.45368980204E+02 -0.77659806337E+02 -0.13275588580E+03  0.16042320624E+03  0.47000000000E+01 0.  1.
<mgrwt>
<rscale>  0 0.18704137E+03</rscale>
<asrwt>0</asrwt>
<pdfrwt beam="1">  1        1 0.14676365E-01 0.19360594E+03</pdfrwt>
<pdfrwt beam="2">  1       -1 0.52957267E-01 0.19360594E+03</pdfrwt>
<totfact> 0.14019031E+03</totfact>
</mgrwt>
</event>
<event>
 7    1  0.1252637E-008  0.1471654E+03  0.7546771E-02  0.1206174E+00
         -2   -1    0    0    0  501 -0.00000000000E+00  0.00000000000E+00  0.11939024150E+03  0.11939024150E+03  0.00000000000E+00 0.  1.
          2   -1    0    0  501    0  0.00000000000E+00 -0.00000000000E+00 -0.64248307128E+03  0.64248307128E+03  0.00000000000E+00 0. -1.
         25    2    1    2    0    0  0.19549538000E+02  0.60990027176E+02 -0.58543817971E+03  0.60204656115E+03  0.12498092528E+03 0.  0.
          5    1    1    2  502    0 -0.25812322320E+02  0.18025181899E+02 -0.25957902714E+02  0.41074150988E+02  0.47000000000E+01 0. -1.
         -5    1    1    2    0  502  0.62627843196E+01 -0.79015209075E+02  0.88303252637E+02  0.11875260064E+03  0.47000000000E+01 0.  1.
          5    1    3    3  503    0 -0.43308566968E+02 -0.33562496151E+01 -0.11411778367E+03  0.12219596938E+03  0.47000000000E+01 0.  1.
         -5    1    3    3    0  503  0.62858104968E+02  0.64346276791E+02 -0.47132039604E+03  0.47985059177E+03  0.47000000000E+01 0.  1.
<mgrwt>
<rscale>  0 0.14545332E+03</rscale>
<asrwt>0</asrwt>
<pdfrwt beam="1">  1        2 0.98843552E-01 0.14716538E+03</pdfrwt>
<pdfrwt beam="2">  1       -2 0.18367729E-01 0.14716538E+03</pdfrwt>
<totfact> 0.11289553E+03</totfact>
</mgrwt>
</event>
<event>
 7    1  0.1050440E-008  0.3443824E+03  0.7546771E-02  0.1064945E+00
         -1   -1    0    0    0  501 -0.00000000000E+00  0.00000000000E+00  0.62867731874E+02  0.62867731874E+02  0.00000000000E+00 0.  1.
          1   -1    0    0  501    0  0.00000000000E+00 -0.00000000000E+00 -0.47162212980E+03  0.47162212980E+03  0.00000000000E+00 0. -1.
         25    2    1    2    0    0 -0.40158798260E+01 -0.11122323430E+02 -0.17831344455E+03  0.21808790170E+03  0.12500725975E+03 0.  0.
          5    1    3    3  502    0 -0.63394637381E+02  0.38945310189E+01 -0.81541169075E+02  0.10346545160E+03  0.47000000000E+01 0.  1.
         -5    1    1    2    0  503  0.92989132180E+01  0.57461848506E+02  0.19910565774E+02  0.61699711914E+02  0.47000000000E+01 0.  1.
          5    1    1    2  503    0 -0.52830333920E+01 -0.46339525077E+02 -0.25035151915E+03  0.25470224806E+03  0.47000000000E+01 0. -1.
         -5    1    3    3    0  502  0.59378757555E+02 -0.15016854448E+02 -0.96772275478E+02  0.11462245010E+03  0.47000000000E+01 0.  1.
<mgrwt>
<rscale>  0 0.34438242E+03</rscale>
<asrwt>0</asrwt>
<pdfrwt beam="1">  1        1 0.72557248E-01 0.34438242E+03</pdfrwt>
<pdfrwt beam="2">  1       -1 0.96719591E-02 0.34438242E+03</pdfrwt>
<totfact> 0.31425086E+03</totfact>
</mgrwt>
</event>
<event>
 7    1  0.1050440E-008  0.1277833E+03  0.7546771E-02  0.1242657E+00
          2   -1    0    0  501    0  0.00000000000E+00  0.00000000000E+00  0.37550135536E+03  0.37550135536E+03  0.00000000000E+00 0. -1.
         -2   -1    0    0    0  501 -0.00000000000E+00 -0.00000000000E+00 -0.34782385255E+02  0.34782385255E+02  0.00000000000E+00 0.  1.
         25    2    1    2    0    0 -0.11200452860E+02  0.24064090722E+02  0.17714208350E+03  0.21842134456E+03  0.12499614157E+03 0.  0.
          5    1    1    2  502    0  0.36060848356E+02 -0.51091171799E+02  0.93064608235E+02  0.11222211870E+03  0.47000000000E+01 0. -1.
         -5    1    3    3    0  503 -0.14327987091E+01  0.65858245455E+02  0.46340447760E+02  0.80677682820E+02  0.47000000000E+01 0.  1.
          5    1    3    3  503    0 -0.97676541511E+01 -0.41794154733E+02  0.13080163574E+03  0.13774366174E+03  0.47000000000E+01 0.  1.
         -5    1    1    2    0  502 -0.24860395496E+02  0.27027081077E+02  0.70512278368E+02  0.79640277350E+02  0.47000000000E+01 0.  1.
<mgrwt>
<rscale>  0 0.12026706E+03</rscale>
<asrwt>0</asrwt>
<pdfrwt beam="1">  1        2 0.57769436E-01 0.12778328E+03</pdfrwt>
<pdfrwt beam="2">  1       -2 0.53511365E-02 0.12778328E+03</pdfrwt>
<totfact> 0.14164792E+04</totfact>
</mgrwt>
</event>
<event>
 7    1  0.1050440E-008  0.1294683E+03  0.7546771E-02  0.1249704E+00
          1   -1    0    0  501    0  0.00000000000E+00  0.00000000000E+00  0.20242267852E+03  0.20242267852E+03  0.00000000000E+00 0. -1.
         -1   -1    0    0    0  501 -0.00000000000E+00 -0.00000000000E+00 -0.58228284115E+02  0.58228284115E+02  0.00000000000E+00 0.  1.
         25    2    1    2    0    0 -0.33611801518E+02 -0.26430531240E+01  0.62698648476E+02  0.14385116304E+03  0.12500119062E+03 0.  0.
          5    1    3    3  502    0  0.32724270251E+02 -0.40781571461E+02  0.30378306692E+02  0.60654315195E+02  0.47000000000E+01 0.  1.
         -5    1    1    2    0  503 -0.50664525623E+01 -0.20570082494E+02 -0.19892227106E+01  0.21790921099E+02  0.47000000000E+01 0.  1.
          5    1    1    2  503    0  0.38678254081E+02  0.23213135618E+02  0.83484968639E+02  0.95008878493E+02  0.47000000000E+01 0. -1.
         -5    1    3    3    0  502 -0.66336071770E+02  0.38138518337E+02  0.32320341784E+02  0.83196847848E+02  0.47000000000E+01 0.  1.
<mgrwt>
<rscale>  0 0.11608196E+03</rscale>
<asrwt>0</asrwt>
<pdfrwt beam="1">  1        1 0.31141950E-01 0.12946828E+03</pdfrwt>
<pdfrwt beam="2">  1       -1 0.89581977E-02 0.12946828E+03</pdfrwt>
<totfact> 0.98115968E+03</totfact>
</mgrwt>
</event>
<event>
 7    1  0.1050440E-008  0.2080551E+03  0.7546771E-02  0.1145835E+00
          2   -1    0    0  501    0  0.00000000000E+00  0.00000000000E+00  0.39124868511E+02  0.39124868511E+02  0.00000000000E+00 0. -1.
         -2   -1    0    0    0  501 -0.00000000000E+00 -0.00000000000E+00 -0.10903964845E+04  0.10903964845E+04  0.00000000000E+00 0.  1.
         25    2    1    2    0    0 -0.90589386971E+02 -0.13946046006E+03 -0.66590982433E+03  0.69765524145E+03  0.12502513683E+03 0.  0.
          5    1    3    3  502    0 -0.76740683668E+02 -0.10946493994E+02 -0.28459763882E+03  0.29500315978E+03  0.47000000000E+01 0.  1.
         -5    1    1    2    0  503  0.30818804214E+02  0.12954445799E+03 -0.28358073663E+03  0.31332361781E+03  0.47000000000E+01 0.  1.
          5    1    1    2  503    0  0.59770582757E+02  0.99160020625E+01 -0.10178105501E+03  0.11854249373E+03  0.47000000000E+01 0. -1.
         -5    1    3    3    0  502 -0.13848703303E+02 -0.12851396606E+03 -0.38131218551E+03  0.40265208167E+03  0.47000000000E+01 0.  1.
<mgrwt>
<rscale>  0 0.20469791E+03</rscale>
<asrwt>0</asrwt>
<pdfrwt beam="1">  1        2 0.60192099E-02 0.20805514E+03</pdfrwt>
<pdfrwt beam="2">  1       -2 0.16775332E+00 0.20805514E+03</pdfrwt>
<totfact> 0.28918705E+02</totfact>
</mgrwt>
</event>
<event>
 7    1  0.1050440E-008  0.1527559E+03  0.7546771E-02  0.1203586E+00
          4   -1    0    0  501    0  0.00000000000E+00  0.00000000000E+00  0.10226052573E+04  0.10226052573E+04  0.00000000000E+00 0.  1.
         -4   -1    0    0    0  501 -0.00000000000E+00 -0.00000000000E+00 -0.41085042595E+02  0.41085042595E+02  0.00000000000E+00 0. -1.
         25    2    1    2    0    0 -0.38139324438E+02  0.79073986586E+02  0.12624851023E+03  0.19817426219E+03  0.12500819349E+03 0.  0.
          5    1    3    3  502    0  0.24925819897E+02 -0.20560003752E+02  0.41898325137E+02  0.53118451607E+02  0.47000000000E+01 0. -1.
         -5    1    3    3    0  502 -0.63065144335E+02  0.99633990338E+02  0.84350185089E+02  0.14505581059E+03  0.47000000000E+01 0. -1.
          5    1    1    2  503    0  0.22946531790E+02  0.12758557384E+02  0.73150502068E+02  0.77861479953E+02  0.47000000000E+01 0. -1.
         -5    1    1    2    0  503  0.15192792649E+02 -0.91832543970E+02  0.78212120245E+03  0.78765455778E+03  0.47000000000E+01 0.  1.
<mgrwt>
<rscale>  0 0.14749414E+03</rscale>
<asrwt>0</asrwt>
<pdfrwt beam="1">  1        4 0.15732387E+00 0.15275586E+03</pdfrwt>
<pdfrwt beam="2">  1       -4 0.63207765E-02 0.15275586E+03</pdfrwt>
<totfact> 0.78565140E+01</totfact>
</mgrwt>
</event>
<event>
 7    1  0.1112080E-008  0.1887950E+03  0.7546771E-02  0.1162257E+00
         -1   -1    0    0    0  501 -0.00000000000E+00  0.00000000000E+00  0.28919646922E+03  0.28919646922E+03  0.00000000000E+00 0.  1.
          1   -1    0    0  501    0  0.00000000000E+00 -0.00000000000E+00 -0.16083627618E+03  0.16083627618E+03  0.00000000000E+00 0. -1.
         25    2    1    2    0    0 -0.32191024504E+02 -0.13777936736E+03  0.18458728871E+03  0.26403792852E+03  0.12499657761E+03 0.  0.
          5    1    1    2  502    0 -0.17391906267E+02  0.11869909793E+03 -0.56431375659E+02  0.13265950555E+03  0.47000000000E+01 0. -1.
         -5    1    1    2    0  502  0.49582930771E+02  0.19080269425E+02  0.20427998456E+00  0.53335311337E+02  0.47000000000E+01 0.  1.
          5    1    3    3  503    0 -0.22843825114E+02 -0.98895229869E+02  0.19720328048E+03  0.22184077774E+03  0.47000000000E+01 0.  1.
         -5    1    3    3    0  503 -0.93471993892E+01 -0.38884137490E+02 -0.12615991775E+02  0.42197150771E+02  0.47000000000E+01 0.  1.
<mgrwt>
<rscale>  0 0.18585122E+03</rscale>
<asrwt>0</asrwt>
<pdfrwt beam="1">  1        1 0.24744043E-01 0.18879502E+03</pdfrwt>
<pdfrwt beam="2">  1       -1 0.44491764E-01 0.18879502E+03</pdfrwt>
<totfact> 0.98361605E+02</totfact>
</mgrwt>
</event>
<event>
 7    1  0.1050440E-008  0.1313266E+03  0.7546771E-02  0.1254721E+00
          1   -1    0    0  501    0  0.00000000000E+00  0.00000000000E+00  0.11700090100E+02  0.11700090100E+02  0.00000000000E+00 0.  1.
         -1   -1    0    0    0  501 -0.00000000000E+00 -0.00000000000E+00 -0.95029343791E+03  0.95029343791E+03  0.00000000000E+00 0. -1.
         25    2    1    2    0    0 -0.21774862134E+02 -0.33847316534E+02 -0.47760875819E+03  0.49533503854E+03  0.12500755595E+03 0.  0.
          5    1    3    3  502    0  0.28981845109E+02 -0.62381057429E+02 -0.31757377808E+03  0.32497159598E+03  0.47000000000E+01 0. -1.
         -5    1    3    3    0  502 -0.50756707243E+02  0.28533740895E+02 -0.16003498011E+03  0.17036344256E+03  0.47000000000E+01 0. -1.
          5    1    1    2  503    0  0.39316474353E+02  0.13681379401E+02 -0.34537283022E+03  0.34790436495E+03  0.47000000000E+01 0. -1.
         -5    1    1    2    0  503 -0.17541612218E+02  0.20165937132E+02 -0.11561175940E+03  0.11875412452E+03  0.47000000000E+01 0.  1.
<mgrwt>
<rscale>  0 0.11321979E+03</rscale>
<asrwt>0</asrwt>
<pdfrwt beam="1">  1        1 0.18000137E-02 0.13132659E+03</pdfrwt>
<pdfrwt beam="2">  1       -1 0.14619900E+00 0.13132659E+03</pdfrwt>
<totfact> 0.27338228E+03</totfact>
</mgrwt>
</event>
<event>
 7    1  0.1050440E-008  0.1486390E+03  0.7546771E-02  0.1209914E+00
         -2   -1    0    0    0  501 -0.00000000000E+00  0.00000000000E+00  0.11537220418E+03  0.11537220418E+03  0.00000000000E+00 0. -1.
          2   -1    0    0  501    0  0.00000000000E+00 -0.00000000000E+00 -0.16501165452E+03  0.16501165452E+03  0.00000000000E+00 0.  1.
         25    2    1    2    0    0  0.77064490496E+02  0.22995514183E+02 -0.12259752263E+02  0.14914372259E+03  0.12500327633E+03 0.  0.
          5    1    3    3  502    0  0.29820539472E+01 -0.40235557023E+02  0.21494624112E+02  0.45955430152E+02  0.47000000000E+01 0. -1.
         -5    1    1    2    0  503 -0.54738329794E+02 -0.57022340469E+02 -0.42643396077E+02  0.89935428448E+02  0.47000000000E+01 0.  1.
          5    1    1    2  503    0 -0.22326160702E+02  0.34026826286E+02  0.52636979960E+01  0.41304707666E+02  0.47000000000E+01 0. -1.
         -5    1    3    3    0  502  0.74082436549E+02  0.63231071206E+02 -0.33754376375E+02  0.10318829243E+03  0.47000000000E+01 0. -1.
<mgrwt>
<rscale>  0 0.14256846E+03</rscale>
<asrwt>0</asrwt>
<pdfrwt beam="1">  1        2 0.25386408E-01 0.14863899E+03</pdfrwt>
<pdfrwt beam="2">  1       -2 0.17749570E-01 0.14863899E+03</pdfrwt>
<totfact> 0.52323958E+03</totfact>
</mgrwt>
</event>
<event>
 7    1  0.1050440E-008  0.1530794E+03  0.7546771E-02  0.1208612E+00
          1   -1    0    0  501    0  0.00000000000E+00  0.00000000000E+00  0.23610956117E+03  0.23610956117E+03  0.00000000000E+00 0. -1.
         -1   -1    0    0    0  501 -0.00000000000E+00 -0.00000000000E+00 -0.79170697771E+02  0.79170697771E+02  0.00000000000E+00 0.  1.
         25    2    1    2    0    0 -0.49480713071E+02 -0.73208240450E+02  0.10695201792E+03  0.18674054175E+03  0.12500203343E+03 0.  0.
          5    1    1    2  502    0  0.47614699301E+02  0.33748370053E+02  0.63642463961E+02  0.86478698475E+02  0.47000000000E+01 0. -1.
         -5    1    1    2    0  502  0.18660137697E+01  0.39459870396E+02 -0.13655618481E+02  0.42061018713E+02  0.47000000000E+01 0.  1.
          5    1    3    3  503    0 -0.91003161094E+02 -0.48999700322E+02  0.61157472691E+02  0.12018682302E+03  0.47000000000E+01 0.  1.
         -5    1    3    3    0  503  0.41522448023E+02 -0.24208540127E+02  0.45794545227E+02  0.66553718735E+02  0.47000000000E+01 0.  1.
<mgrwt>
<rscale>  0 0.14356403E+03</rscale>
<asrwt>0</asrwt>
<pdfrwt beam="1">  1        1 0.36324548E-01 0.15307938E+03</pdfrwt>
<pdfrwt beam="2">  1       -1 0.12180107E-01 0.15307938E+03</pdfrwt>
<totfact> 0.51207140E+03</totfact>
</mgrwt>
</event>
<event>
 7    1  0.1050440E-008  0.1486640E+03  0.7546771E-02  0.1227411E+00
          2   -1    0    0  501    0  0.00000000000E+00  0.00000000000E+00  0.84737409261E+02  0.84737409261E+02  0.00000000000E+00 0. -1.
         -2   -1    0    0    0  501 -0.00000000000E+00 -0.00000000000E+00 -0.21198148245E+03  0.21198148245E+03  0.00000000000E+00 0.  1.
         25    2    1    2    0    0  0.55215664638E+02  0.58544920627E+02 -0.14527652601E+03  0.20786113761E+03  0.12499882465E+03 0.  0.
          5    1    1    2  502    0 -0.19043428251E+02 -0.22537204041E+02 -0.86079290751E+01  0.31092831465E+02  0.47000000000E+01 0. -1.
         -5    1    1    2    0  502 -0.36172236387E+02 -0.36007716586E+02  0.26640381905E+02  0.57764922635E+02  0.47000000000E+01 0.  1.
          5    1    3    3  503    0  0.56464354114E+02  0.29659724688E+02 -0.45460395753E+01  0.64114577358E+02  0.47000000000E+01 0. -1.
         -5    1    3    3    0  503 -0.12486894750E+01  0.28885195939E+02 -0.14073048644E+03  0.14374656025E+03  0.47000000000E+01 0.  1.
<mgrwt>
<rscale>  0 0.13003047E+03</rscale>
<asrwt>0</asrwt>
<pdfrwt beam="1">  1        2 0.13036524E-01 0.14866400E+03</pdfrwt>
<pdfrwt beam="2">  1       -2 0.32612536E-01 0.14866400E+03</pdfrwt>
<totfact> 0.38935790E+03</totfact>
</mgrwt>
</event>
<event>
 7    1  0.1050440E-008  0.1642081E+03  0.7546771E-02  0.1192674E+00
         -2   -1    0    0    0  501 -0.00000000000E+00  0.00000000000E+00  0.14530145059E+03  0.14530145059E+03  0.00000000000E+00 0.  1.
          2   -1    0    0  501    0  0.00000000000E+00 -0.00000000000E+00 -0.22387742391E+03  0.22387742391E+03  0.00000000000E+00 0. -1.
         25    2    1    2    0    0 -0.33034854520E+02  0.40816311576E+02 -0.13903611349E+03  0.19419392037E+03  0.12499185953E+03 0.  0.
          5    1    1    2  502    0 -0.43160274962E+02 -0.33043413261E+02 -0.25099322926E+02  0.60056161267E+02  0.47000000000E+01 0. -1.
         -5    1    3    3    0  503 -0.73448373564E+02  0.22660802595E+02 -0.42699863167E+02  0.88054209825E+02  0.47000000000E+01 0.  1.
          5    1    3    3  503    0  0.40413519043E+02  0.18155508980E+02 -0.96336250322E+02  0.10613971054E+03  0.47000000000E+01 0.  1.
         -5    1    1    2    0  502  0.76195129482E+02 -0.77728983145E+01  0.85559463096E+02  0.11492879287E+03  0.47000000000E+01 0.  1.
<mgrwt>
<rscale>  0 0.15652721E+03</rscale>
<asrwt>0</asrwt>
<pdfrwt beam="1">  1        2 0.34442681E-01 0.16420812E+03</pdfrwt>
<pdfrwt beam="2">  1       -2 0.22354069E-01 0.16420812E+03</pdfrwt>
<totfact> 0.25500473E+03</totfact>
</mgrwt>
</event>
<event>
 7    1  0.1050440E-008  0.1523129E+03  0.7546771E-02  0.1198433E+00
         -1   -1    0    0    0  501 -0.00000000000E+00  0.00000000000E+00  0.16269414792E+02  0.16269414792E+02  0.00000000000E+00 0.  1.
          1   -1    0    0  501    0  0.00000000000E+00 -0.00000000000E+00 -0.14599073437E+04  0.14599073437E+04  0.00000000000E+00 0. -1.
         25    2    1    2    0    0  0.17787478574E+02 -0.85195399746E+02 -0.87437797162E+03  0.88754496793E+03  0.12499832930E+03 0.  0.
          5    1    1    2  502    0  0.45883365055E+02  0.70395723523E+02 -0.31101691534E+03  0.32220250264E+03  0.47000000000E+01 0. -1.
         -5    1    1    2    0  502 -0.63670843629E+02  0.14799676223E+02 -0.25824304197E+03  0.26642928794E+03  0.47000000000E+01 0.  1.
          5    1    3    3  503    0  0.70630431442E+02 -0.54638386298E+02 -0.58163263117E+03  0.58846632762E+03  0.47000000000E+01 0.  1.
         -5    1    3    3    0  503 -0.52842952868E+02 -0.30557013448E+02 -0.29274534045E+03  0.29907864031E+03  0.47000000000E+01 0.  1.
<mgrwt>
<rscale>  0 0.15167271E+03</rscale>
<asrwt>0</asrwt>
<pdfrwt beam="1">  1        1 0.22460110E+00 0.15231294E+03</pdfrwt>
<pdfrwt beam="2">  1       -1 0.25029872E-02 0.15231294E+03</pdfrwt>
<totfact> 0.37154987E+03</totfact>
</mgrwt>
</event>
<event>
 7    1  0.1050440E-008  0.1317905E+03  0.7546771E-02  0.1249126E+00
         -2   -1    0    0    0  501 -0.00000000000E+00  0.00000000000E+00  0.31684507242E+02  0.31684507242E+02  0.00000000000E+00 0.  1.
          2   -1    0    0  501    0  0.00000000000E+00 -0.00000000000E+00 -0.42828249118E+03  0.42828249118E+03  0.00000000000E+00 0. -1.
         25    2    1    2    0    0  0.37655296668E+02 -0.18041053093E+02 -0.33116275337E+03  0.35642319885E+03  0.12500130600E+03 0.  0.
          5    1    3    3  502    0  0.44985765273E+02  0.47184856382E+02 -0.18234481725E+03  0.19370558104E+03  0.47000000000E+01 0. -1.
         -5    1    3    3    0  502 -0.73304686052E+01 -0.65225909475E+02 -0.14881793611E+03  0.16271761781E+03  0.47000000000E+01 0. -1.
          5    1    1    2  503    0 -0.26819065944E+02  0.56530796348E+00 -0.75435020836E+02  0.80200462840E+02  0.47000000000E+01 0. -1.
         -5    1    1    2    0  503 -0.10836230724E+02  0.17475745130E+02  0.99997902650E+01  0.23343336726E+02  0.47000000000E+01 0.  1.
<mgrwt>
<rscale>  0 0.11641795E+03</rscale>
<asrwt>0</asrwt>
<pdfrwt beam="1">  1        2 0.65889611E-01 0.13179047E+03</pdfrwt>
<pdfrwt beam="2">  1       -2 0.48745398E-02 0.13179047E+03</pdfrwt>
<totfact> 0.14196168E+04</totfact>
</mgrwt>
</event>
<event>
 7    1  0.1050440E-008  0.1266232E+03  0.7546771E-02  0.1254844E+00
         -2   -1    0    0    0  501 -0.00000000000E+00  0.00000000000E+00  0.34597309001E+02  0.34597309001E+02  0.00000000000E+00 0.  1.
          2   -1    0    0  501    0  0.00000000000E+00 -0.00000000000E+00 -0.42304610692E+03  0.42304610692E+03  0.00000000000E+00 0. -1.
         25    2    1    2    0    0  0.82792358858E+01 -0.18540920017E+02 -0.11001686291E+03  0.16774133811E+03  0.12498453874E+03 0.  0.
          5    1    3    3  502    0  0.28161967154E+02  0.48625697938E+02 -0.47201126061E+02  0.73536325685E+02  0.47000000000E+01 0. -1.
         -5    1    3    3    0  502 -0.19882731268E+02 -0.67166617955E+02 -0.62815736851E+02  0.94205012427E+02  0.47000000000E+01 0. -1.
          5    1    1    2  503    0 -0.26718046543E+02  0.32740049405E+02 -0.85233091660E+02  0.95249854383E+02  0.47000000000E+01 0.  1.
         -5    1    1    2    0  503  0.18438810657E+02 -0.14199129388E+02 -0.19319884335E+03  0.19465222343E+03  0.47000000000E+01 0. -1.
<mgrwt>
<rscale>  0 0.11315054E+03</rscale>
<asrwt>0</asrwt>
<pdfrwt beam="1">  1        2 0.65084019E-01 0.12662325E+03</pdfrwt>
<pdfrwt beam="2">  1       -2 0.53226627E-02 0.12662325E+03</pdfrwt>
<totfact> 0.12565176E+04</totfact>
</mgrwt>
</event>
<event>
 7    1  0.1050440E-008  0.1264078E+03  0.7546771E-02  0.1269993E+00
          2   -1    0    0  501    0  0.00000000000E+00  0.00000000000E+00  0.51616543968E+03  0.51616543968E+03  0.00000000000E+00 0. -1.
         -2   -1    0    0    0  501 -0.00000000000E+00 -0.00000000000E+00 -0.24920249913E+02  0.24920249913E+02  0.00000000000E+00 0.  1.
         25    2    1    2    0    0 -0.13740243410E+02 -0.12870416142E+02  0.15760272495E+03  0.20203351000E+03  0.12499791340E+03 0.  0.
          5    1    1    2  502    0  0.58200549943E+01  0.33659787390E+02  0.14495678585E+03  0.14900138956E+03  0.47000000000E+01 0. -1.
         -5    1    3    3    0  503 -0.22690080602E+02  0.21953321215E+02  0.16235415659E+03  0.16546223204E+03  0.47000000000E+01 0.  1.
          5    1    3    3  503    0  0.89498371926E+01 -0.34823737357E+02 -0.47514316419E+01  0.36571277964E+02  0.47000000000E+01 0.  1.
         -5    1    1    2    0  502  0.79201884153E+01 -0.20789371248E+02  0.18868567896E+03  0.19005079002E+03  0.47000000000E+01 0.  1.
<mgrwt>
<rscale>  0 0.10506410E+03</rscale>
<asrwt>0</asrwt>
<pdfrwt beam="1">  1        2 0.79410059E-01 0.12640775E+03</pdfrwt>
<pdfrwt beam="2">  1       -2 0.38338850E-02 0.12640775E+03</pdfrwt>
<totfact> 0.16516738E+04</totfact>
</mgrwt>
</event>
<event>
 7    1  0.1050440E-008  0.6953547E+03  0.7546771E-02  0.1009397E+00
          2   -1    0    0  501    0  0.00000000000E+00  0.00000000000E+00  0.19401893889E+04  0.19401893889E+04  0.00000000000E+00 0. -1.
         -2   -1    0    0    0  501 -0.00000000000E+00 -0.00000000000E+00 -0.10626601615E+03  0.10626601615E+03  0.00000000000E+00 0.  1.
         25    2    1    2    0    0  0.86205339522E+02  0.14899937977E+03  0.42165405390E+03  0.47228173053E+03  0.12500286429E+03 0.  0.
          5    1    3    3  502    0 -0.24923340064E+02  0.73726720849E+02  0.14003172849E+03  0.16027406911E+03  0.47000000000E+01 0. -1.
         -5    1    1    2    0  503 -0.35023300850E+03 -0.11205018250E+03  0.48095608442E+03  0.60544136692E+03  0.47000000000E+01 0.  1.
          5    1    1    2  503    0  0.26402766898E+03 -0.36949197267E+02  0.93131323447E+03  0.96873230764E+03  0.47000000000E+01 0. -1.
         -5    1    3    3    0  502  0.11112867959E+03  0.75272658921E+02  0.28162232542E+03  0.31200766141E+03  0.47000000000E+01 0. -1.
<mgrwt>
<rscale>  0 0.51715006E+03</rscale>
<asrwt>0</asrwt>
<pdfrwt beam="1">  1        2 0.29849065E+00 0.69535468E+03</pdfrwt>
<pdfrwt beam="2">  1       -2 0.16348619E-01 0.69535468E+03</pdfrwt>
<totfact> 0.22423706E+02</totfact>
</mgrwt>
</event>
<event>
 7    1  0.1050440E-008  0.1381754E+03  0.7546771E-02  0.1249227E+00
         -1   -1    0    0    0  501 -0.00000000000E+00  0.00000000000E+00  0.29781913311E+02  0.29781913311E+02  0.00000000000E+00 0.  1.
          1   -1    0    0  501    0  0.00000000000E+00 -0.00000000000E+00 -0.52411127777E+03  0.52411127777E+03  0.00000000000E+00 0. -1.
         25    2    1    2    0    0 -0.43044502110E+01 -0.58757618636E+02 -0.15553871002E+03  0.20804984368E+03  0.12498584360E+03 0.  0.
          5    1    3    3  502    0 -0.37549287967E+02  0.26380029465E+02 -0.60891303025E+02  0.76391725766E+02  0.47000000000E+01 0.  1.
         -5    1    3    3    0  502  0.33244837756E+02 -0.85137648101E+02 -0.94647406993E+02  0.13165811791E+03  0.47000000000E+01 0.  1.
          5    1    1    2  503    0  0.18819170704E+02  0.39084572618E+02 -0.24200681529E+03  0.24590883198E+03  0.47000000000E+01 0. -1.
         -5    1    1    2    0  503 -0.14514720493E+02  0.19673046018E+02 -0.96783839154E+02  0.99934515419E+02  0.47000000000E+01 0.  1.
<mgrwt>
<rscale>  0 0.11635895E+03</rscale>
<asrwt>0</asrwt>
<pdfrwt beam="1">  1        1 0.80632508E-01 0.13817542E+03</pdfrwt>
<pdfrwt beam="2">  1       -1 0.45818326E-02 0.13817542E+03</pdfrwt>
<totfact> 0.81432961E+03</totfact>
</mgrwt>
</event>
<event>
 7    1  0.1050440E-008  0.1386996E+03  0.7546771E-02  0.1252421E+00
          3   -1    0    0  501    0  0.00000000000E+00  0.00000000000E+00  0.71432936487E+02  0.71432936487E+02  0.00000000000E+00 0. -1.
         -3   -1    0    0    0  501 -0.00000000000E+00 -0.00000000000E+00 -0.18012683822E+03  0.18012683822E+03  0.00000000000E+00 0.  1.
         25    2    1    2    0    0 -0.50550596212E+02  0.32523760128E+02 -0.17378803099E+02  0.13978416702E+03  0.12499773118E+03 0.  0.
          5    1    1    2  502    0  0.23349596269E+02 -0.13579950080E+02 -0.23353284913E+02  0.36015060826E+02  0.47000000000E+01 0. -1.
         -5    1    3    3    0  503  0.62274545272E+01  0.55655748951E+02  0.28549390948E+02  0.63035714517E+02  0.47000000000E+01 0. -1.
          5    1    3    3  503    0 -0.56778050739E+02 -0.23131988822E+02 -0.45928194047E+02  0.76748452499E+02  0.47000000000E+01 0. -1.
         -5    1    1    2    0  502  0.27200999943E+02 -0.18943810048E+02 -0.67961813717E+02  0.75760546861E+02  0.47000000000E+01 0.  1.
<mgrwt>
<rscale>  0 0.11452026E+03</rscale>
<asrwt>0</asrwt>
<pdfrwt beam="1">  1        3 0.10989682E-01 0.13869964E+03</pdfrwt>
<pdfrwt beam="2">  1       -3 0.27711821E-01 0.13869964E+03</pdfrwt>
<totfact> 0.18048407E+03</totfact>
</mgrwt>
</event>
<event>
 7    1  0.1050440E-008  0.2539580E+03  0.7546771E-02  0.1117674E+00
         -1   -1    0    0    0  501 -0.00000000000E+00  0.00000000000E+00  0.56703113879E+02  0.56703113879E+02  0.00000000000E+00 0.  1.
          1   -1    0    0  501    0  0.00000000000E+00 -0.00000000000E+00 -0.18995529476E+04  0.18995529476E+04  0.00000000000E+00 0. -1.
         25    2    1    2    0    0 -0.13024557376E+02 -0.17272483600E+03 -0.15662647172E+04  0.15807643878E+04  0.12500950927E+03 0.  0.
          5    1    3    3  502    0  0.55255563269E+02 -0.95398276693E+02 -0.81361334968E+03  0.82106198380E+03  0.47000000000E+01 0. -1.
         -5    1    3    3    0  502 -0.68280120645E+02 -0.77326559308E+02 -0.75265136749E+03  0.75970240399E+03  0.47000000000E+01 0. -1.
          5    1    1    2  503    0 -0.25574585348E+02  0.19552618331E+03 -0.26233413754E+03  0.32821614448E+03  0.47000000000E+01 0. -1.
         -5    1    1    2    0  503  0.38599142724E+02 -0.22801347307E+02 -0.14250978995E+02  0.47275529192E+02  0.47000000000E+01 0.  1.
<mgrwt>
<rscale>  0 0.24320853E+03</rscale>
<asrwt>0</asrwt>
<pdfrwt beam="1">  1        1 0.29223894E+00 0.25395801E+03</pdfrwt>
<pdfrwt beam="2">  1       -1 0.87235553E-02 0.25395801E+03</pdfrwt>
<totfact> 0.29681691E+02</totfact>
</mgrwt>
</event>
<event>
 7    1  0.1050440E-008  0.1266589E+03  0.7546771E-02  0.1238664E+00
         -2   -1    0    0    0  501 -0.00000000000E+00  0.00000000000E+00  0.37076324662E+02  0.37076324662E+02  0.00000000000E+00 0.  1.
          2   -1    0    0  501    0  0.00000000000E+00 -0.00000000000E+00 -0.56998499145E+03  0.56998499145E+03  0.00000000000E+00 0. -1.
         25    2    1    2    0    0 -0.18813075051E+02  0.80212275155E+01 -0.45137449595E+03  0.46880851239E+03  0.12499685521E+03 0.  0.
          5    1    1    2  502    0  0.55867967881E+02  0.24266262225E+02 -0.54999616404E+02  0.82201758632E+02  0.47000000000E+01 0. -1.
         -5    1    1    2    0  502 -0.37054892830E+02 -0.32287489741E+02 -0.26534554433E+02  0.56051045087E+02  0.47000000000E+01 0.  1.
          5    1    3    3  503    0 -0.46209751320E+02  0.50984032934E+02 -0.32926153497E+03  0.33640743325E+03  0.47000000000E+01 0.  1.
         -5    1    3    3    0  503  0.27396676269E+02 -0.42962805419E+02 -0.12211296097E+03  0.13240107914E+03  0.47000000000E+01 0.  1.
<mgrwt>
<rscale>  0 0.12272777E+03</rscale>
<asrwt>0</asrwt>
<pdfrwt beam="1">  1        2 0.87689997E-01 0.12665893E+03</pdfrwt>
<pdfrwt beam="2">  1       -2 0.57040500E-02 0.12665893E+03</pdfrwt>
<totfact> 0.81719393E+03</totfact>
</mgrwt>
</event>
<event>
 7    1  0.1050440E-008  0.6423848E+03  0.7546771E-02  0.9821174E-01
         -1   -1    0    0    0  501 -0.00000000000E+00  0.00000000000E+00  0.65872874602E+03  0.65872874602E+03  0.00000000000E+00 0.  1.
          1   -1    0    0  501    0  0.00000000000E+00 -0.00000000000E+00 -0.15661161433E+03  0.15661161433E+03  0.00000000000E+00 0. -1.
         25    2    1    2    0    0  0.13523401333E+03  0.86872182702E+02 -0.39763918005E+02  0.20746417584E+03  0.12500080237E+03 0.  0.
          5    1    1    2  502    0  0.48733963095E+02  0.89935988790E+01  0.37018969622E+02  0.62035297143E+02  0.47000000000E+01 0. -1.
         -5    1    1    2    0  502 -0.18396797642E+03 -0.95865781581E+02  0.50486208008E+03  0.54584088737E+03  0.47000000000E+01 0.  1.
          5    1    3    3  503    0  0.51429688617E+02 -0.29150539191E+02 -0.21606839857E+02  0.63116656558E+02  0.47000000000E+01 0.  1.
         -5    1    3    3    0  503  0.83804324709E+02  0.11602272189E+03 -0.18157078148E+02  0.14434751928E+03  0.47000000000E+01 0.  1.
<mgrwt>
<rscale>  0 0.64238485E+03</rscale>
<asrwt>0</asrwt>
<pdfrwt beam="1">  1        1 0.24094095E-01 0.64238485E+03</pdfrwt>
<pdfrwt beam="2">  1       -1 0.10134288E+00 0.64238485E+03</pdfrwt>
<totfact> 0.19274379E+02</totfact>
</mgrwt>
</event>
<event>
 7    1  0.1050440E-008  0.2484914E+03  0.7546771E-02  0.1131413E+00
          2   -1    0    0  501    0  0.00000000000E+00  0.00000000000E+00  0.51375376578E+03  0.51375376578E+03  0.00000000000E+00 0. -1.
         -2   -1    0    0    0  501 -0.00000000000E+00 -0.00000000000E+00 -0.92131024871E+02  0.92131024871E+02  0.00000000000E+00 0.  1.
         25    2    1    2    0    0  0.84975223409E+02 -0.58789707298E+02  0.26948779987E+03  0.31452069192E+03  0.12499029197E+03 0.  0.
          5    1    3    3  502    0 -0.15135474665E+02 -0.23305787987E+02  0.39114778358E+01  0.28454033210E+02  0.47000000000E+01 0.  1.
         -5    1    3    3    0  502  0.10011069807E+03 -0.35483919310E+02  0.26557632204E+03  0.28606665871E+03  0.47000000000E+01 0.  1.
          5    1    1    2  503    0 -0.44706163327E+02 -0.64151396576E+02  0.14117022551E+03  0.16144709750E+03  0.47000000000E+01 0. -1.
         -5    1    1    2    0  503 -0.40269060083E+02  0.12294110387E+03  0.10964715526E+02  0.12991700123E+03  0.47000000000E+01 0.  1.
<mgrwt>
<rscale>  0 0.22334550E+03</rscale>
<asrwt>0</asrwt>
<pdfrwt beam="1">  1        2 0.79039039E-01 0.24849144E+03</pdfrwt>
<pdfrwt beam="2">  1       -2 0.14174004E-01 0.24849144E+03</pdfrwt>
<totfact> 0.22608549E+03</totfact>
</mgrwt>
</event>
<event>
 7    1  0.1050440E-008  0.1816718E+03  0.7546771E-02  0.1167961E+00
         -4   -1    0    0    0  501 -0.00000000000E+00  0.00000000000E+00  0.65492865958E+03  0.65492865958E+03  0.00000000000E+00 0.  1.
          4   -1    0    0  501    0  0.00000000000E+00 -0.00000000000E+00 -0.57455160813E+02  0.57455160813E+02  0.00000000000E+00 0. -1.
         25    2    1    2    0    0  0.48514658804E+02  0.12258232764E+03  0.44515830490E+03  0.48080198622E+03  0.12499813746E+03 0.  0.
          5    1    3    3  502    0 -0.17392096644E+02 -0.17348764600E+02  0.89670043128E+02  0.93092810105E+02  0.47000000000E+01 0. -1.
         -5    1    3    3    0  502  0.65906755448E+02  0.13993109224E+03  0.35548826177E+03  0.38770917612E+03  0.47000000000E+01 0. -1.
          5    1    1    2  503    0 -0.75363287962E+02 -0.45620093775E+02  0.52625240879E+02  0.10272450587E+03  0.47000000000E+01 0. -1.
         -5    1    1    2    0  503  0.26848629158E+02 -0.76962233868E+02  0.99689952994E+02  0.12885732830E+03  0.47000000000E+01 0.  1.
<mgrwt>
<rscale>  0 0.17983687E+03</rscale>
<asrwt>0</asrwt>
<pdfrwt beam="1">  1        4 0.88392560E-02 0.18167177E+03</pdfrwt>
<pdfrwt beam="2">  1       -4 0.10075825E+00 0.18167177E+03</pdfrwt>
<totfact> 0.13771242E+02</totfact>
</mgrwt>
</event>
<event>
 7    1  0.1050440E-008  0.2269279E+03  0.7546771E-02  0.1144647E+00
         -2   -1    0    0    0  501 -0.00000000000E+00  0.00000000000E+00  0.46665136368E+02  0.46665136368E+02  0.00000000000E+00 0. -1.
          2   -1    0    0  501    0  0.00000000000E+00 -0.00000000000E+00 -0.96037969019E+03  0.96037969019E+03  0.00000000000E+00 0.  1.
         25    2    1    2    0    0 -0.18512913113E+01 -0.90896653095E+02 -0.17131423014E+03  0.23073655349E+03  0.12500065137E+03 0.  0.
          5    1    1    2  502    0  0.69994214816E+02  0.52099569736E+01 -0.87340387800E+02  0.11214618629E+03  0.47000000000E+01 0. -1.
         -5    1    1    2    0  502 -0.68142923504E+02  0.85686696121E+02 -0.65505993588E+03  0.66416208678E+03  0.47000000000E+01 0.  1.
          5    1    3    3  503    0 -0.40719496130E+02  0.12230299900E+02 -0.62928018179E+02  0.76089966964E+02  0.47000000000E+01 0. -1.
         -5    1    3    3    0  503  0.38868204819E+02 -0.10312695299E+03 -0.10838621196E+03  0.15464658652E+03  0.47000000000E+01 0. -1.
<mgrwt>
<rscale>  0 0.20615544E+03</rscale>
<asrwt>0</asrwt>
<pdfrwt beam="1">  1        2 0.14775071E+00 0.22692795E+03</pdfrwt>
<pdfrwt beam="2">  1       -2 0.71792522E-02 0.22692795E+03</pdfrwt>
<totfact> 0.30984281E+03</totfact>
</mgrwt>
</event>
<event>
 7    1  0.1050440E-008  0.6335533E+03  0.7546771E-02  0.9838139E-01
         -4   -1    0    0    0  501 -0.00000000000E+00  0.00000000000E+00  0.52176371010E+03  0.52176371010E+03  0.00000000000E+00 0. -1.
          4   -1    0    0  501    0  0.00000000000E+00 -0.00000000000E+00 -0.19232353029E+03  0.19232353029E+03  0.00000000000E+00 0.  1.
         25    2    1    2    0    0 -0.10263652593E+03 -0.25733711006E+02 -0.13426326602E+03  0.21178297843E+03  0.12501569905E+03 0.  0.
          5    1    1    2  502    0  0.67186852679E+02  0.24427437610E+02  0.46087340767E+03  0.46640879149E+03  0.47000000000E+01 0. -1.
         -5    1    3    3    0  503 -0.26049271300E+02  0.46302217647E+02 -0.71644377954E+02  0.89316665784E+02  0.47000000000E+01 0. -1.
          5    1    3    3  503    0 -0.76587254632E+02 -0.72035928652E+02 -0.62618888070E+02  0.12246631264E+03  0.47000000000E+01 0. -1.
         -5    1    1    2    0  502  0.35449673254E+02  0.13062733960E+01  0.28300381639E+01  0.35895470466E+02  0.47000000000E+01 0.  1.
<mgrwt>
<rscale>  0 0.63355328E+03</rscale>
<asrwt>0</asrwt>
<pdfrwt beam="1">  1        4 0.29588236E-01 0.63355328E+03</pdfrwt>
<pdfrwt beam="2">  1       -4 0.80271340E-01 0.63355328E+03</pdfrwt>
<totfact> 0.30079266E+01</totfact>
</mgrwt>
</event>
<event>
 7    1  0.1050440E-008  0.2493215E+03  0.7546771E-02  0.1133438E+00
          1   -1    0    0  501    0  0.00000000000E+00  0.00000000000E+00  0.38573564794E+03  0.38573564794E+03  0.00000000000E+00 0. -1.
         -1   -1    0    0    0  501 -0.00000000000E+00 -0.00000000000E+00 -0.10499568104E+03  0.10499568104E+03  0.00000000000E+00 0.  1.
         25    2    1    2    0    0 -0.38943431770E+01 -0.87786381959E+02  0.11699719945E+03  0.19244810762E+03  0.12500525861E+03 0.  0.
          5    1    1    2  502    0  0.69639452661E+02 -0.37101038444E+02  0.13150952595E+03  0.15343723745E+03  0.47000000000E+01 0. -1.
         -5    1    1    2    0  502 -0.65745109484E+02  0.12488742040E+03  0.32233241508E+02  0.14484598391E+03  0.47000000000E+01 0.  1.
          5    1    3    3  503    0 -0.98129414683E+01 -0.11939024202E+03  0.86012690527E+02  0.14754862467E+03  0.47000000000E+01 0. -1.
         -5    1    3    3    0  503  0.59185982914E+01  0.31603860058E+02  0.30984508923E+02  0.44899482954E+02  0.47000000000E+01 0. -1.
<mgrwt>
<rscale>  0 0.22059760E+03</rscale>
<asrwt>0</asrwt>
<pdfrwt beam="1">  1        1 0.59343945E-01 0.24932145E+03</pdfrwt>
<pdfrwt beam="2">  1       -1 0.16153182E-01 0.24932145E+03</pdfrwt>
<totfact> 0.18062742E+03</totfact>
</mgrwt>
</event>
<event>
 7    1  0.1050440E-008  0.1733162E+03  0.7546771E-02  0.1188846E+00
          2   -1    0    0  501    0  0.00000000000E+00  0.00000000000E+00  0.32864221112E+03  0.32864221112E+03  0.00000000000E+00 0. -1.
         -2   -1    0    0    0  501 -0.00000000000E+00 -0.00000000000E+00 -0.11134187429E+03  0.11134187429E+03  0.00000000000E+00 0.  1.
         25    2    1    2    0    0  0.11153425793E+03  0.44426892553E+02 -0.17058636535E+02  0.17415370551E+03  0.12499950635E+03 0.  0.
          5    1    1    2  502    0 -0.73857868946E+02 -0.46439411572E+02  0.16741240058E+03  0.18884015891E+03  0.47000000000E+01 0. -1.
         -5    1    1    2    0  502 -0.37676388983E+02  0.20125190192E+01  0.66946572787E+02  0.76990220986E+02  0.47000000000E+01 0.  1.
          5    1    3    3  503    0  0.58181605048E+02 -0.13997745136E+02  0.43731092254E+02  0.74266644360E+02  0.47000000000E+01 0. -1.
         -5    1    3    3    0  503  0.53352652881E+02  0.58424637689E+02 -0.60789728789E+02  0.99887061148E+02  0.47000000000E+01 0. -1.
<mgrwt>
<rscale>  0 0.15986771E+03</rscale>
<asrwt>0</asrwt>
<pdfrwt beam="1">  1        2 0.50560340E-01 0.17331623E+03</pdfrwt>
<pdfrwt beam="2">  1       -2 0.17129519E-01 0.17331623E+03</pdfrwt>
<totfact> 0.26610901E+03</totfact>
</mgrwt>
</event>
<event>
 7    1  0.1050440E-008  0.1413174E+03  0.7546771E-02  0.1239435E+00
         -2   -1    0    0    0  501 -0.00000000000E+00  0.00000000000E+00  0.12066657367E+02  0.12066657367E+02  0.00000000000E+00 0.  1.
          2   -1    0    0  501    0  0.00000000000E+00 -0.00000000000E+00 -0.11118278495E+04  0.11118278495E+04  0.00000000000E+00 0. -1.
         25    2    1    2    0    0 -0.57959437396E+02 -0.31412936803E+02 -0.52404734028E+03  0.54276719785E+03  0.12499818886E+03 0.  0.
          5    1    1    2  502    0  0.35367380640E+02 -0.38104718059E+01 -0.21642050437E+03  0.21937478438E+03  0.47000000000E+01 0. -1.
         -5    1    1    2    0  502  0.22592056755E+02  0.35223408609E+02 -0.35929334750E+03  0.36175252467E+03  0.47000000000E+01 0.  1.
          5    1    3    3  503    0 -0.40962708821E+02 -0.77364744267E+02 -0.26618504760E+03  0.28024956152E+03  0.47000000000E+01 0.  1.
         -5    1    3    3    0  503 -0.16996728575E+02  0.45951807465E+02 -0.25786229269E+03  0.26251763632E+03  0.47000000000E+01 0.  1.
<mgrwt>
<rscale>  0 0.12224760E+03</rscale>
<asrwt>0</asrwt>
<pdfrwt beam="1">  1        2 0.17105049E+00 0.14131743E+03</pdfrwt>
<pdfrwt beam="2">  1       -2 0.18564083E-02 0.14131743E+03</pdfrwt>
<totfact> 0.18620064E+04</totfact>
</mgrwt>
</event>
<event>
 7    1  0.1050440E-008  0.1770998E+04  0.7546771E-02  0.8721876E-01
         -1   -1    0    0    0  501 -0.00000000000E+00  0.00000000000E+00  0.78762616045E+03  0.78762616045E+03  0.00000000000E+00 0.  1.
          1   -1    0    0  501    0  0.00000000000E+00 -0.00000000000E+00 -0.99553376578E+03  0.99553376578E+03  0.00000000000E+00 0. -1.
         25    2    1    2    0    0 -0.24077865237E+03  0.27769941944E+02 -0.48983973819E+03  0.56063720014E+03  0.12500228782E+03 0.  0.
          5    1    3    3  502    0 -0.37200884555E+02  0.18894243675E+02 -0.16204447663E+02  0.45006359326E+02  0.47000000000E+01 0.  1.
         -5    1    3    3    0  502 -0.20357776782E+03  0.88756982696E+01 -0.47363529053E+03  0.51563084082E+03  0.47000000000E+01 0.  1.
          5    1    1    2  503    0 -0.23812863243E+03  0.64504312375E+02 -0.34752349426E+03  0.42621675350E+03  0.47000000000E+01 0.  1.
         -5    1    1    2    0  503  0.47890728481E+03 -0.92274254320E+02  0.62945562712E+03  0.79630597258E+03  0.47000000000E+01 0.  1.
<mgrwt>
<rscale>  0 0.17709980E+04</rscale>
<asrwt>0</asrwt>
<pdfrwt beam="1">  1        1 0.15315904E+00 0.17709980E+04</pdfrwt>
<pdfrwt beam="2">  1       -1 0.12117326E+00 0.17709980E+04</pdfrwt>
<totfact> 0.87229890E+00</totfact>
</mgrwt>
</event>
<event>
 7    1  0.1050440E-008  0.1717411E+03  0.7546771E-02  0.1187535E+00
         -2   -1    0    0    0  501 -0.00000000000E+00  0.00000000000E+00  0.28614145826E+02  0.28614145826E+02  0.00000000000E+00 0.  1.
          2   -1    0    0  501    0  0.00000000000E+00 -0.00000000000E+00 -0.86727420126E+03  0.86727420126E+03  0.00000000000E+00 0. -1.
         25    2    1    2    0    0  0.87163769060E+02 -0.79206092344E+02 -0.58366151945E+03  0.60840428452E+03  0.12499550563E+03 0.  0.
          5    1    1    2  502    0 -0.12474610673E+01  0.36255707421E+02 -0.70949819997E+02  0.79824804650E+02  0.47000000000E+01 0. -1.
         -5    1    3    3    0  503 -0.30767777210E+02 -0.40443564492E+01 -0.91204102115E+02  0.96453570054E+02  0.47000000000E+01 0.  1.
          5    1    3    3  503    0  0.11793154627E+03 -0.75161735895E+02 -0.49245741734E+03  0.51195071446E+03  0.47000000000E+01 0.  1.
         -5    1    1    2    0  502 -0.85916307992E+02  0.42950384923E+02 -0.18404871598E+03  0.20765925792E+03  0.47000000000E+01 0.  1.
<mgrwt>
<rscale>  0 0.16103309E+03</rscale>
<asrwt>0</asrwt>
<pdfrwt beam="1">  1        2 0.13342681E+00 0.17174110E+03</pdfrwt>
<pdfrwt beam="2">  1       -2 0.44021759E-02 0.17174110E+03</pdfrwt>
<totfact> 0.74204537E+03</totfact>
</mgrwt>
</event>
<event>
 7    1  0.1050440E-008  0.2039651E+03  0.7546771E-02  0.1161182E+00
          1   -1    0    0  501    0  0.00000000000E+00  0.00000000000E+00  0.23836628434E+03  0.23836628434E+03  0.00000000000E+00 0. -1.
         -1   -1    0    0    0  501 -0.00000000000E+00 -0.00000000000E+00 -0.23602608401E+03  0.23602608401E+03  0.00000000000E+00 0.  1.
         25    2    1    2    0    0  0.53637797301E+02 -0.47815876451E+02  0.16090982757E+03  0.21603971748E+03  0.12497125902E+03 0.  0.
          5    1    3    3  502    0 -0.34419494620E+02  0.12002556633E+02  0.31503216879E+02  0.48407702376E+02  0.47000000000E+01 0.  1.
         -5    1    1    2    0  503 -0.10295927405E+03 -0.69475070265E+01 -0.15258151530E+03  0.18426092580E+03  0.47000000000E+01 0.  1.
          5    1    1    2  503    0  0.49321476749E+02  0.54763383478E+02 -0.59881119420E+01  0.74091725066E+02  0.47000000000E+01 0. -1.
         -5    1    3    3    0  502  0.88057291921E+02 -0.59818433084E+02  0.12940661070E+03  0.16763201511E+03  0.47000000000E+01 0.  1.
<mgrwt>
<rscale>  0 0.18701468E+03</rscale>
<asrwt>0</asrwt>
<pdfrwt beam="1">  1        1 0.36671736E-01 0.20396511E+03</pdfrwt>
<pdfrwt beam="2">  1       -1 0.36311705E-01 0.20396511E+03</pdfrwt>
<totfact> 0.85992378E+02</totfact>
</mgrwt>
</event>
<event>
 7    1  0.1050440E-008  0.9340649E+03  0.7546771E-02  0.9383973E-01
          1   -1    0    0  501    0  0.00000000000E+00  0.00000000000E+00  0.69333229777E+03  0.69333229777E+03  0.00000000000E+00 0. -1.
         -1   -1    0    0    0  501 -0.00000000000E+00 -0.00000000000E+00 -0.31459559791E+03  0.31459559791E+03  0.00000000000E+00 0.  1.
         25    2    1    2    0    0 -0.24051914322E+03 -0.13639191850E+03 -0.19050518845E+03  0.35828942805E+03  0.12500749471E+03 0.  0.
          5    1    1    2  502    0  0.25914965670E+03  0.12419503386E+03  0.54647960160E+03  0.61745039960E+03  0.47000000000E+01 0.  1.
         -5    1    3    3    0  503 -0.23713448136E+03 -0.90283359703E+02 -0.17856663934E+03  0.31030949385E+03  0.47000000000E+01 0. -1.
          5    1    3    3  503    0 -0.33846618592E+01 -0.46108558797E+02 -0.11938549109E+02  0.47979934192E+02  0.47000000000E+01 0. -1.
         -5    1    1    2    0  502 -0.18630513479E+02  0.12196884638E+02  0.22762286705E+02  0.32188068029E+02  0.47000000000E+01 0.  1.
<mgrwt>
<rscale>  0 0.93406486E+03</rscale>
<asrwt>0</asrwt>
<pdfrwt beam="1">  1        1 0.10666651E+00 0.93406486E+03</pdfrwt>
<pdfrwt beam="2">  1       -1 0.48399323E-01 0.93406486E+03</pdfrwt>
<totfact> 0.11871716E+02</totfact>
</mgrwt>
</event>
<event>
 7    1  0.1050440E-008  0.1370132E+03  0.7546771E-02  0.1226471E+00
         -1   -1    0    0    0  501 -0.00000000000E+00  0.00000000000E+00  0.30598463969E+02  0.30598463969E+02  0.00000000000E+00 0.  1.
          1   -1    0    0  501    0  0.00000000000E+00 -0.00000000000E+00 -0.51281003400E+03  0.51281003400E+03  0.00000000000E+00 0. -1.
         25    2    1    2    0    0  0.52702986491E+02  0.19284380674E+02 -0.27414140662E+03  0.30647368705E+03  0.12499247140E+03 0.  0.
          5    1    1    2  502    0 -0.38186145723E+02 -0.57437602671E+02 -0.10235861855E+03  0.12351775872E+03  0.47000000000E+01 0. -1.
         -5    1    3    3    0  503  0.38068188329E+02 -0.45965810292E+02 -0.72738253806E+02  0.94207145404E+02  0.47000000000E+01 0.  1.
          5    1    3    3  503    0  0.14634798162E+02  0.65250190966E+02 -0.20140315281E+03  0.21226654164E+03  0.47000000000E+01 0.  1.
         -5    1    1    2    0  502 -0.14516840769E+02  0.38153221997E+02 -0.10571154486E+03  0.11341705220E+03  0.47000000000E+01 0.  1.
<mgrwt>
<rscale>  0 0.13066616E+03</rscale>
<asrwt>0</asrwt>
<pdfrwt beam="1">  1        1 0.78893848E-01 0.13701317E+03</pdfrwt>
<pdfrwt beam="2">  1       -1 0.47074562E-02 0.13701317E+03</pdfrwt>
<totfact> 0.80477190E+03</totfact>
</mgrwt>
</event>
<event>
 7    1  0.1050440E-008  0.3834799E+03  0.7546771E-02  0.1061135E+00
          1   -1    0    0  501    0  0.00000000000E+00  0.00000000000E+00  0.39998280764E+03  0.39998280764E+03  0.00000000000E+00 0. -1.
         -1   -1    0    0    0  501 -0.00000000000E+00 -0.00000000000E+00 -0.27291879264E+03  0.27291879264E+03  0.00000000000E+00 0.  1.
         25    2    1    2    0    0 -0.16024376653E+03 -0.18867177652E+03  0.51709900207E+02  0.28208821543E+03  0.12499897414E+03 0.  0.
          5    1    3    3  502    0  0.11164593506E+01 -0.83078834919E+02  0.36722758915E+01  0.83300149479E+02  0.47000000000E+01 0. -1.
         -5    1    3    3    0  502 -0.16136022589E+03 -0.10559294160E+03  0.48037624316E+02  0.19878806595E+03  0.47000000000E+01 0. -1.
          5    1    1    2  503    0  0.16533512544E+03  0.21937900426E+02  0.13392974495E+03  0.21395383091E+03  0.47000000000E+01 0. -1.
         -5    1    1    2    0  503 -0.50913589010E+01  0.16673387609E+03 -0.58575630162E+02  0.17685955394E+03  0.47000000000E+01 0.  1.
<mgrwt>
<rscale>  0 0.35362883E+03</rscale>
<asrwt>0</asrwt>
<pdfrwt beam="1">  1        1 0.61535817E-01 0.38347993E+03</pdfrwt>
<pdfrwt beam="2">  1       -1 0.41987507E-01 0.38347993E+03</pdfrwt>
<totfact> 0.34284637E+02</totfact>
</mgrwt>
</event>
<event>
 7    1  0.1050440E-008  0.5482433E+03  0.7546771E-02  0.1001901E+00
          1   -1    0    0  501    0  0.00000000000E+00  0.00000000000E+00  0.11630131690E+04  0.11630131690E+04  0.00000000000E+00 0. -1.
         -1   -1    0    0    0  501 -0.00000000000E+00 -0.00000000000E+00 -0.64610342528E+02  0.64610342528E+02  0.00000000000E+00 0.  1.
         25    2    1    2    0    0  0.11998271961E+03 -0.52513366736E+02  0.22006025879E+03  0.28496422236E+03  0.12499833533E+03 0.  0.
          5    1    3    3  502    0  0.82676836262E+02 -0.93776223748E+02  0.14739610400E+03  0.19333168615E+03  0.47000000000E+01 0.  1.
         -5    1    3    3    0  502  0.37305883352E+02  0.41262857011E+02  0.72664154793E+02  0.91632536215E+02  0.47000000000E+01 0.  1.
          5    1    1    2  503    0 -0.22204910838E+03  0.43258137558E+02  0.71329943744E+03  0.74832830392E+03  0.47000000000E+01 0. -1.
         -5    1    1    2    0  503  0.10206638877E+03  0.92552291783E+01  0.16504313021E+03  0.19433098522E+03  0.47000000000E+01 0.  1.
<mgrwt>
<rscale>  0 0.54824330E+03</rscale>
<asrwt>0</asrwt>
<pdfrwt beam="1">  1        1 0.17892509E+00 0.54824330E+03</pdfrwt>
<pdfrwt beam="2">  1       -1 0.99400536E-02 0.54824330E+03</pdfrwt>
<totfact> 0.73840762E+02</totfact>
</mgrwt>
</event>
<event>
 7    1  0.1344418E-008  0.4494490E+03  0.7546771E-02  0.1027886E+00
          1   -1    0    0  501    0  0.00000000000E+00  0.00000000000E+00  0.73057323932E+03  0.73057323932E+03  0.00000000000E+00 0. -1.
         -1   -1    0    0    0  501 -0.00000000000E+00 -0.00000000000E+00 -0.69125306089E+02  0.69125306089E+02  0.00000000000E+00 0.  1.
         25    2    1    2    0    0  0.12278304699E+03 -0.21111975022E+02  0.10022613722E+03  0.20296204362E+03  0.12500768156E+03 0.  0.
          5    1    1    2  502    0 -0.12010395890E+03  0.68025258274E+02  0.50381244604E+03  0.52239972004E+03  0.47000000000E+01 0. -1.
         -5    1    1    2    0  502 -0.26790880908E+01 -0.46913283251E+02  0.57409349966E+02  0.74336781756E+02  0.47000000000E+01 0.  1.
          5    1    3    3  503    0  0.59677089460E+02  0.47885594077E+02  0.18909540951E+02  0.78955974223E+02  0.47000000000E+01 0.  1.
         -5    1    3    3    0  503  0.63105957530E+02 -0.68997569099E+02  0.81316596272E+02  0.12400606939E+03  0.47000000000E+01 0.  1.
<mgrwt>
<rscale>  0 0.44944899E+03</rscale>
<asrwt>0</asrwt>
<pdfrwt beam="1">  1        1 0.11239588E+00 0.44944899E+03</pdfrwt>
<pdfrwt beam="2">  1       -1 0.10634663E-01 0.44944899E+03</pdfrwt>
<totfact> 0.14668415E+03</totfact>
</mgrwt>
</event>
<event>
 7    1  0.1050440E-008  0.1375587E+03  0.7546771E-02  0.1226198E+00
         -1   -1    0    0    0  501 -0.00000000000E+00  0.00000000000E+00  0.47417786899E+02  0.47417786899E+02  0.00000000000E+00 0.  1.
          1   -1    0    0  501    0  0.00000000000E+00 -0.00000000000E+00 -0.37809296834E+03  0.37809296834E+03  0.00000000000E+00 0. -1.
         25    2    1    2    0    0  0.52587659563E+02  0.23061480804E+02 -0.10417609583E+03  0.17255450629E+03  0.12500041945E+03 0.  0.
          5    1    1    2  502    0 -0.25065928768E+02 -0.50405233121E+02 -0.61985114160E+02  0.83864370792E+02  0.47000000000E+01 0. -1.
         -5    1    3    3    0  503  0.16076731676E+02  0.70233683543E+02 -0.80679246011E+02  0.10827032069E+03  0.47000000000E+01 0. -1.
          5    1    3    3  503    0  0.36510927887E+02 -0.47172202740E+02 -0.23496849819E+02  0.64284185597E+02  0.47000000000E+01 0. -1.
         -5    1    1    2    0  502 -0.27521730796E+02  0.27343752317E+02 -0.16451397145E+03  0.16909187816E+03  0.47000000000E+01 0.  1.
<mgrwt>
<rscale>  0 0.13085114E+03</rscale>
<asrwt>0</asrwt>
<pdfrwt beam="1">  1        1 0.58168148E-01 0.13755871E+03</pdfrwt>
<pdfrwt beam="2">  1       -1 0.72950443E-02 0.13755871E+03</pdfrwt>
<totfact> 0.61911120E+03</totfact>
</mgrwt>
</event>
<event>
 7    1  0.1050440E-008  0.3860084E+03  0.7546771E-02  0.1048735E+00
         -2   -1    0    0    0  501 -0.00000000000E+00  0.00000000000E+00  0.18792559106E+03  0.18792559106E+03  0.00000000000E+00 0.  1.
          2   -1    0    0  501    0  0.00000000000E+00 -0.00000000000E+00 -0.19822003924E+03  0.19822003924E+03  0.00000000000E+00 0. -1.
         25    2    1    2    0    0 -0.40775123395E+02 -0.39611867731E+02 -0.69599913711E+02  0.15395664485E+03  0.12500715881E+03 0.  0.
          5    1    3    3  502    0 -0.39033059757E+01 -0.27582950161E+02 -0.10034217031E+03  0.10424344622E+03  0.47000000000E+01 0. -1.
         -5    1    3    3    0  502 -0.36871817419E+02 -0.12028917570E+02  0.30742256599E+02  0.49713198634E+02  0.47000000000E+01 0. -1.
          5    1    1    2  503    0  0.11011176221E+03  0.73945866336E+02  0.75939255927E+02  0.15290994708E+03  0.47000000000E+01 0.  1.
         -5    1    1    2    0  503 -0.69336638815E+02 -0.34333998605E+02 -0.16633790396E+02  0.79279038372E+02  0.47000000000E+01 0. -1.
<mgrwt>
<rscale>  0 0.38600838E+03</rscale>
<asrwt>0</asrwt>
<pdfrwt beam="1">  1        2 0.30495391E-01 0.38600838E+03</pdfrwt>
<pdfrwt beam="2">  1       -2 0.28911629E-01 0.38600838E+03</pdfrwt>
<totfact> 0.18962068E+03</totfact>
</mgrwt>
</event>
<event>
 7    1  0.1050440E-008  0.1302674E+03  0.7546771E-02  0.1254752E+00
          1   -1    0    0  501    0  0.00000000000E+00  0.00000000000E+00  0.37741245872E+02  0.37741245872E+02  0.00000000000E+00 0. -1.
         -1   -1    0    0    0  501 -0.00000000000E+00 -0.00000000000E+00 -0.35639685873E+03  0.35639685873E+03  0.00000000000E+00 0.  1.
         25    2    1    2    0    0  0.29301356693E+02 -0.22072615936E+02 -0.28340741020E+03  0.31191240165E+03  0.12499526497E+03 0.  0.
          5    1    3    3  502    0 -0.38567634071E+02 -0.27628205039E+02 -0.51548293013E+02  0.70214646792E+02  0.47000000000E+01 0.  1.
         -5    1    1    2    0  503 -0.47168238778E+02  0.37953256156E+01 -0.17127481029E+02  0.50543920033E+02  0.47000000000E+01 0.  1.
          5    1    1    2  503    0  0.17866882085E+02  0.18277290321E+02 -0.18120721625E+02  0.31681782922E+02  0.47000000000E+01 0. -1.
         -5    1    3    3    0  502  0.67868990763E+02  0.55555891027E+01 -0.23185911719E+03  0.24169775485E+03  0.47000000000E+01 0.  1.
<mgrwt>
<rscale>  0 0.11320240E+03</rscale>
<asrwt>0</asrwt>
<pdfrwt beam="1">  1        1 0.58063454E-02 0.13026736E+03</pdfrwt>
<pdfrwt beam="2">  1       -1 0.54830287E-01 0.13026736E+03</pdfrwt>
<totfact> 0.44549936E+03</totfact>
</mgrwt>
</event>
<event>
 7    1  0.1050440E-008  0.1543605E+03  0.7546771E-02  0.1212041E+00
         -1   -1    0    0    0  501 -0.00000000000E+00  0.00000000000E+00  0.47045854321E+02  0.47045854321E+02  0.00000000000E+00 0.  1.
          1   -1    0    0  501    0  0.00000000000E+00 -0.00000000000E+00 -0.37351731373E+03  0.37351731373E+03  0.00000000000E+00 0. -1.
         25    2    1    2    0    0  0.15084509704E+02 -0.89299268455E+02 -0.22491537218E+03  0.27278947988E+03  0.12500109563E+03 0.  0.
          5    1    1    2  502    0 -0.94228053484E+01  0.35342620368E+02 -0.54040632620E+01  0.37271758408E+02  0.47000000000E+01 0. -1.
         -5    1    3    3    0  503 -0.37985787781E+02 -0.34289544752E+02 -0.21991975246E+02  0.55896600325E+02  0.47000000000E+01 0.  1.
          5    1    3    3  503    0  0.53070297485E+02 -0.55009723703E+02 -0.20292339694E+03  0.21689287956E+03  0.47000000000E+01 0.  1.
         -5    1    1    2    0  502 -0.56617043557E+01  0.53956648088E+02 -0.96152023962E+02  0.11050192976E+03  0.47000000000E+01 0.  1.
<mgrwt>
<rscale>  0 0.14096130E+03</rscale>
<asrwt>0</asrwt>
<pdfrwt beam="1">  1        1 0.57464202E-01 0.15436054E+03</pdfrwt>
<pdfrwt beam="2">  1       -1 0.72378237E-02 0.15436054E+03</pdfrwt>
<totfact> 0.64053085E+03</totfact>
</mgrwt>
</event>
<event>
 7    1  0.1050440E-008  0.4454833E+03  0.7546771E-02  0.1029078E+00
         -2   -1    0    0    0  501 -0.00000000000E+00  0.00000000000E+00  0.47145164022E+02  0.47145164022E+02  0.00000000000E+00 0.  1.
          2   -1    0    0  501    0  0.00000000000E+00 -0.00000000000E+00 -0.10523634430E+04  0.10523634430E+04  0.00000000000E+00 0. -1.
         25    2    1    2    0    0 -0.11854288866E+02  0.15896762721E+02 -0.32161072346E+03  0.34561407571E+03  0.12498960219E+03 0.  0.
          5    1    1    2  502    0  0.29127814776E+02 -0.16414924567E+03 -0.32096749900E+03  0.36171208144E+03  0.47000000000E+01 0. -1.
         -5    1    3    3    0  503  0.52229869394E+02 -0.14553477631E+02 -0.16152333644E+03  0.17044541995E+03  0.47000000000E+01 0. -1.
          5    1    3    3  503    0 -0.64084158260E+02  0.30450240352E+02 -0.16008738702E+03  0.17516865576E+03  0.47000000000E+01 0. -1.
         -5    1    1    2    0  502 -0.17273525910E+02  0.14825248294E+03 -0.36264005655E+03  0.39218244990E+03  0.47000000000E+01 0.  1.
<mgrwt>
<rscale>  0 0.44548332E+03</rscale>
<asrwt>0</asrwt>
<pdfrwt beam="1">  1        2 0.16190207E+00 0.44548332E+03</pdfrwt>
<pdfrwt beam="2">  1       -2 0.72531021E-02 0.44548332E+03</pdfrwt>
<totfact> 0.26955143E+03</totfact>
</mgrwt>
</event>
<event>
 7    1  0.1050440E-008  0.1396727E+03  0.7546771E-02  0.1217069E+00
          1   -1    0    0  501    0  0.00000000000E+00  0.00000000000E+00  0.14510976961E+03  0.14510976961E+03  0.00000000000E+00 0. -1.
         -1   -1    0    0    0  501 -0.00000000000E+00 -0.00000000000E+00 -0.13983809715E+03  0.13983809715E+03  0.00000000000E+00 0.  1.
         25    2    1    2    0    0  0.21544352688E+02  0.29621754751E+02 -0.42998873180E+02  0.13716928668E+03  0.12499961050E+03 0.  0.
          5    1    1    2  502    0 -0.69847210310E+02  0.10997245230E+02  0.45934721597E+02  0.84449161268E+02  0.47000000000E+01 0. -1.
         -5    1    3    3    0  503 -0.85635706771E+01  0.74788287723E+02 -0.20007007428E+02  0.78032000292E+02  0.47000000000E+01 0. -1.
          5    1    3    3  503    0  0.30107923365E+02 -0.45166532972E+02 -0.22991865752E+02  0.59137286384E+02  0.47000000000E+01 0. -1.
         -5    1    1    2    0  502  0.48302857622E+02 -0.40618999981E+02  0.23358240472E+01  0.63329418819E+02  0.47000000000E+01 0.  1.
<mgrwt>
<rscale>  0 0.13725643E+03</rscale>
<asrwt>0</asrwt>
<pdfrwt beam="1">  1        1 0.22324580E-01 0.13967270E+03</pdfrwt>
<pdfrwt beam="2">  1       -1 0.21513553E-01 0.13967270E+03</pdfrwt>
<totfact> 0.38105951E+03</totfact>
</mgrwt>
</event>
<event>
 7    1  0.1050440E-008  0.1540018E+03  0.7546771E-02  0.1197044E+00
         -2   -1    0    0    0  501 -0.00000000000E+00  0.00000000000E+00  0.18050328186E+03  0.18050328186E+03  0.00000000000E+00 0.  1.
          2   -1    0    0  501    0  0.00000000000E+00 -0.00000000000E+00 -0.15440129618E+03  0.15440129618E+03  0.00000000000E+00 0. -1.
         25    2    1    2    0    0  0.20873967356E+02 -0.79018603328E+02  0.82838608434E+02  0.17078389730E+03  0.12500096938E+03 0.  0.
          5    1    3    3  502    0  0.50631361612E+01  0.33820724638E+02  0.12054838469E+02  0.36563450239E+02  0.47000000000E+01 0.  1.
         -5    1    3    3    0  502  0.15810831194E+02 -0.11283932797E+03  0.70783769964E+02  0.13422044706E+03  0.47000000000E+01 0.  1.
          5    1    1    2  503    0 -0.63692183874E+02  0.81223570283E+02 -0.62265449883E+02  0.12063597683E+03  0.47000000000E+01 0. -1.
         -5    1    1    2    0  503  0.42818216519E+02 -0.22049669549E+01  0.55288271216E+01  0.43484703913E+02  0.47000000000E+01 0.  1.
<mgrwt>
<rscale>  0 0.15282499E+03</rscale>
<asrwt>0</asrwt>
<pdfrwt beam="1">  1        2 0.23754046E-01 0.15400180E+03</pdfrwt>
<pdfrwt beam="2">  1       -2 0.27769736E-01 0.15400180E+03</pdfrwt>
<totfact> 0.26110438E+03</totfact>
</mgrwt>
</event>
<event>
 7    1  0.1050440E-008  0.3953545E+03  0.7546771E-02  0.1046094E+00
         -1   -1    0    0    0  501 -0.00000000000E+00  0.00000000000E+00  0.33641755134E+03  0.33641755134E+03  0.00000000000E+00 0.  1.
          1   -1    0    0  501    0  0.00000000000E+00 -0.00000000000E+00 -0.88566807696E+03  0.88566807696E+03  0.00000000000E+00 0. -1.
         25    2    1    2    0    0 -0.28182001563E+03  0.24750466085E+03 -0.70187900513E+03  0.80556769266E+03  0.12499636494E+03 0.  0.
          5    1    3    3  502    0 -0.21740093041E+03  0.12779269053E+03 -0.52489791178E+03  0.58235216500E+03  0.47000000000E+01 0. -1.
         -5    1    1    2    0  503  0.29696187155E+02 -0.77511456641E+02  0.26192464879E+02  0.87166648775E+02  0.47000000000E+01 0.  1.
          5    1    1    2  503    0  0.25212382848E+03 -0.16999320421E+03  0.12643601464E+03  0.32935128687E+03  0.47000000000E+01 0. -1.
         -5    1    3    3    0  502 -0.64419085226E+02  0.11971197032E+03 -0.17698109335E+03  0.22321552765E+03  0.47000000000E+01 0. -1.
<mgrwt>
<rscale>  0 0.39338768E+03</rscale>
<asrwt>0</asrwt>
<pdfrwt beam="1">  1        1 0.13625662E+00 0.39535449E+03</pdfrwt>
<pdfrwt beam="2">  1       -1 0.51756548E-01 0.39535449E+03</pdfrwt>
<totfact> 0.74764005E+01</totfact>
</mgrwt>
</event>
<event>
 7    1  0.1050440E-008  0.1288588E+03  0.7546771E-02  0.1245464E+00
         -2   -1    0    0    0  501 -0.00000000000E+00  0.00000000000E+00  0.49415296448E+02  0.49415296448E+02  0.00000000000E+00 0.  1.
          2   -1    0    0  501    0  0.00000000000E+00 -0.00000000000E+00 -0.25675199753E+03  0.25675199753E+03  0.00000000000E+00 0. -1.
         25    2    1    2    0    0 -0.19640985461E+02  0.24379755233E+02 -0.91724931195E+02  0.15817096751E+03  0.12499780472E+03 0.  0.
          5    1    1    2  502    0  0.51057063347E+02 -0.23978723777E+02 -0.51861893723E+02  0.76769453118E+02  0.47000000000E+01 0. -1.
         -5    1    3    3    0  503 -0.20025524523E+02 -0.49091234804E+02 -0.52455685627E+02  0.74730582238E+02  0.47000000000E+01 0.  1.
          5    1    3    3  503    0  0.38453906238E+00  0.73470990037E+02 -0.39269245569E+02  0.83440385275E+02  0.47000000000E+01 0.  1.
         -5    1    1    2    0  502 -0.31416077886E+02 -0.40103145561E+00 -0.63749876162E+02  0.71226873346E+02  0.47000000000E+01 0.  1.
<mgrwt>
<rscale>  0 0.11857624E+03</rscale>
<asrwt>0</asrwt>
<pdfrwt beam="1">  1        2 0.39500307E-01 0.12885881E+03</pdfrwt>
<pdfrwt beam="2">  1       -2 0.76023534E-02 0.12885881E+03</pdfrwt>
<totfact> 0.12433028E+04</totfact>
</mgrwt>
</event>
<event>
 7    1  0.1050440E-008  0.7234007E+03  0.7546771E-02  0.1002387E+00
         -2   -1    0    0    0  501 -0.00000000000E+00  0.00000000000E+00  0.12193783270E+03  0.12193783270E+03  0.00000000000E+00 0.  1.
          2   -1    0    0  501    0  0.00000000000E+00 -0.00000000000E+00 -0.18845178684E+04  0.18845178684E+04  0.00000000000E+00 0. -1.
         25    2    1    2    0    0  0.10768220647E+03 -0.16740279861E+03 -0.41098394787E+03  0.47344541767E+03  0.12499441398E+03 0.  0.
          5    1    3    3  502    0  0.95416576763E+02 -0.46708108507E+02 -0.25111067711E+03  0.27269879479E+03  0.47000000000E+01 0.  1.
         -5    1    1    2    0  503 -0.27333496883E+03  0.25991003892E+03 -0.35327254658E+03  0.51680636188E+03  0.47000000000E+01 0.  1.
          5    1    1    2  503    0  0.16565276235E+03 -0.92507240313E+02 -0.99832354125E+03  0.10162039216E+04  0.47000000000E+01 0. -1.
         -5    1    3    3    0  502  0.12265629709E+02 -0.12069469010E+03 -0.15987327076E+03  0.20074662288E+03  0.47000000000E+01 0.  1.
<mgrwt>
<rscale>  0 0.54615838E+03</rscale>
<asrwt>0</asrwt>
<pdfrwt beam="1">  1        2 0.28992582E+00 0.72340068E+03</pdfrwt>
<pdfrwt beam="2">  1       -2 0.18759667E-01 0.72340068E+03</pdfrwt>
<totfact> 0.18929558E+02</totfact>
</mgrwt>
</event>
<event>
 7    1  0.1050440E-008  0.4005597E+03  0.7546771E-02  0.1043586E+00
          1   -1    0    0  501    0  0.00000000000E+00  0.00000000000E+00  0.62530744032E+03  0.62530744032E+03  0.00000000000E+00 0. -1.
         -1   -1    0    0    0  501 -0.00000000000E+00 -0.00000000000E+00 -0.64147677762E+02  0.64147677762E+02  0.00000000000E+00 0.  1.
         25    2    1    2    0    0 -0.10252599735E+03  0.11135531826E+02  0.14020017003E+03  0.21428055058E+03  0.12499794589E+03 0.  0.
          5    1    1    2  502    0 -0.37304484396E+02 -0.34756800706E+02  0.30186568265E+02  0.59438864853E+02  0.47000000000E+01 0. -1.
         -5    1    3    3    0  503 -0.91576505641E+02 -0.31876848459E+02  0.13910972265E+03  0.16963488671E+03  0.47000000000E+01 0. -1.
          5    1    3    3  503    0 -0.10949491707E+02  0.43012380286E+02  0.10904473779E+01  0.44645663865E+02  0.47000000000E+01 0. -1.
         -5    1    1    2    0  502  0.13983048174E+03  0.23621268880E+02  0.39077302426E+03  0.41573570265E+03  0.47000000000E+01 0.  1.
<mgrwt>
<rscale>  0 0.40055971E+03</rscale>
<asrwt>0</asrwt>
<pdfrwt beam="1">  1        1 0.96201140E-01 0.40055971E+03</pdfrwt>
<pdfrwt beam="2">  1       -1 0.98688739E-02 0.40055971E+03</pdfrwt>
<totfact> 0.20717948E+03</totfact>
</mgrwt>
</event>
<event>
 7    1  0.1050440E-008  0.1474392E+03  0.7546771E-02  0.1209983E+00
          4   -1    0    0  501    0  0.00000000000E+00  0.00000000000E+00  0.29439981023E+02  0.29439981023E+02  0.00000000000E+00 0. -1.
         -4   -1    0    0    0  501 -0.00000000000E+00 -0.00000000000E+00 -0.67726024765E+03  0.67726024765E+03  0.00000000000E+00 0.  1.
         25    2    1    2    0    0  0.74267381822E+02 -0.24462456741E+02 -0.27110743353E+03  0.30860585274E+03  0.12499710412E+03 0.  0.
          5    1    3    3  502    0  0.23366426479E+01 -0.63769552695E+02 -0.98376658422E+02  0.11735447444E+03  0.47000000000E+01 0. -1.
         -5    1    3    3    0  502  0.71930739174E+02  0.39307095954E+02 -0.17273077511E+03  0.19125137830E+03  0.47000000000E+01 0. -1.
          5    1    1    2  503    0 -0.24661458933E+02 -0.39701448057E+02 -0.15527632317E+03  0.16222582738E+03  0.47000000000E+01 0. -1.
         -5    1    1    2    0  503 -0.49605922888E+02  0.64163904798E+02 -0.22143650993E+03  0.23586854855E+03  0.47000000000E+01 0.  1.
<mgrwt>
<rscale>  0 0.14251610E+03</rscale>
<asrwt>0</asrwt>
<pdfrwt beam="1">  1        4 0.45292278E-02 0.14743925E+03</pdfrwt>
<pdfrwt beam="2">  1       -4 0.10419388E+00 0.14743925E+03</pdfrwt>
<totfact> 0.36799436E+02</totfact>
</mgrwt>
</event>
<event>
 7    1  0.1050440E-008  0.2243835E+03  0.7546771E-02  0.1137166E+00
          2   -1    0    0  501    0  0.00000000000E+00  0.00000000000E+00  0.11740484595E+04  0.11740484595E+04  0.00000000000E+00 0. -1.
         -2   -1    0    0    0  501 -0.00000000000E+00 -0.00000000000E+00 -0.41578550992E+02  0.41578550992E+02  0.00000000000E+00 0.  1.
         25    2    1    2    0    0  0.40532180208E+02  0.18188124553E+03  0.40090784059E+03  0.45942904341E+03  0.12499721667E+03 0.  0.
          5    1    1    2  502    0 -0.20521968367E+02 -0.11018331568E+03  0.35432766371E+03  0.37166072903E+03  0.47000000000E+01 0. -1.
         -5    1    3    3    0  503 -0.24007879142E+02  0.80764286233E+02  0.77951407290E+02  0.11488150456E+03  0.47000000000E+01 0. -1.
          5    1    3    3  503    0  0.64540059349E+02  0.10111695930E+03  0.32295643330E+03  0.34454753885E+03  0.47000000000E+01 0. -1.
         -5    1    1    2    0  502 -0.20010211841E+02 -0.71697929849E+02  0.37723440421E+03  0.38453723804E+03  0.47000000000E+01 0.  1.
<mgrwt>
<rscale>  0 0.21565316E+03</rscale>
<asrwt>0</asrwt>
<pdfrwt beam="1">  1        2 0.18062282E+00 0.22438349E+03</pdfrwt>
<pdfrwt beam="2">  1       -2 0.63967010E-02 0.22438349E+03</pdfrwt>
<totfact> 0.27648667E+03</totfact>
</mgrwt>
</event>
<event>
 7    1  0.1050440E-008  0.1295744E+03  0.7546771E-02  0.1245366E+00
          1   -1    0    0  501    0  0.00000000000E+00  0.00000000000E+00  0.24013514222E+03  0.24013514222E+03  0.00000000000E+00 0. -1.
         -1   -1    0    0    0  501 -0.00000000000E+00 -0.00000000000E+00 -0.53993163514E+02  0.53993163514E+02  0.00000000000E+00 0.  1.
         25    2    1    2    0    0  0.18140448538E+02  0.28942569781E+02  0.72394690150E+02  0.14842676295E+03  0.12499105800E+03 0.  0.
          5    1    1    2  502    0  0.30663278935E+02  0.47833011656E+01  0.43380793714E+02  0.53545307062E+02  0.47000000000E+01 0. -1.
         -5    1    1    2    0  502 -0.48803727473E+02 -0.33725870946E+02  0.70366494844E+02  0.92156235725E+02  0.47000000000E+01 0.  1.
          5    1    3    3  503    0 -0.12996698000E+02 -0.38423158494E+02  0.60691477552E+02  0.73149153891E+02  0.47000000000E+01 0.  1.
         -5    1    3    3    0  503  0.31137146538E+02  0.67365728275E+02  0.11703212598E+02  0.75277609059E+02  0.47000000000E+01 0.  1.
<mgrwt>
<rscale>  0 0.11863473E+03</rscale>
<asrwt>0</asrwt>
<pdfrwt beam="1">  1        1 0.36943867E-01 0.12957435E+03</pdfrwt>
<pdfrwt beam="2">  1       -1 0.83066407E-02 0.12957435E+03</pdfrwt>
<totfact> 0.89030893E+03</totfact>
</mgrwt>
</event>
<event>
 7    1  0.1050440E-008  0.1962214E+03  0.7546771E-02  0.1164333E+00
         -2   -1    0    0    0  501 -0.00000000000E+00  0.00000000000E+00  0.66110061944E+02  0.66110061944E+02  0.00000000000E+00 0.  1.
          2   -1    0    0  501    0  0.00000000000E+00 -0.00000000000E+00 -0.52469715985E+03  0.52469715985E+03  0.00000000000E+00 0. -1.
         25    2    1    2    0    0  0.83701624353E+02 -0.44729596025E+01 -0.31023881004E+03  0.34481934174E+03  0.12500515947E+03 0.  0.
          5    1    3    3  502    0  0.47754813262E+02 -0.64490331102E+02 -0.16418738696E+03  0.18280895227E+03  0.47000000000E+01 0.  1.
         -5    1    3    3    0  502  0.35946811091E+02  0.60017371500E+02 -0.14605142308E+03  0.16201038946E+03  0.47000000000E+01 0.  1.
          5    1    1    2  503    0 -0.48178429874E+02  0.36774874085E+02 -0.17885795136E+03  0.18890687979E+03  0.47000000000E+01 0. -1.
         -5    1    1    2    0  503 -0.35523194479E+02 -0.32301914482E+02  0.30509663491E+02  0.57081000267E+02  0.47000000000E+01 0.  1.
<mgrwt>
<rscale>  0 0.18363212E+03</rscale>
<asrwt>0</asrwt>
<pdfrwt beam="1">  1        2 0.80722642E-01 0.19622136E+03</pdfrwt>
<pdfrwt beam="2">  1       -2 0.10170779E-01 0.19622136E+03</pdfrwt>
<totfact> 0.37483495E+03</totfact>
</mgrwt>
</event>
<event>
 7    1  0.1050440E-008  0.4471935E+03  0.7546771E-02  0.1029889E+00
         -2   -1    0    0    0  501 -0.00000000000E+00  0.00000000000E+00  0.17377150566E+03  0.17377150566E+03  0.00000000000E+00 0.  1.
          2   -1    0    0  501    0  0.00000000000E+00 -0.00000000000E+00 -0.11821817174E+04  0.11821817174E+04  0.00000000000E+00 0. -1.
         25    2    1    2    0    0  0.22161182601E+03  0.34652310595E+03 -0.66610927895E+03  0.79279073343E+03  0.12500204445E+03 0.  0.
          5    1    3    3  502    0  0.16840290501E+03  0.20206575884E+03 -0.50791046866E+03  0.57200108696E+03  0.47000000000E+01 0. -1.
         -5    1    3    3    0  502  0.53208920996E+02  0.14445734711E+03 -0.15819881029E+03  0.22078964647E+03  0.47000000000E+01 0. -1.
          5    1    1    2  503    0 -0.41754830863E+02 -0.22611197355E+03 -0.19223600789E+03  0.29974466336E+03  0.47000000000E+01 0. -1.
         -5    1    1    2    0  503 -0.17985699515E+03 -0.12041113240E+03 -0.15006492488E+03  0.26341782625E+03  0.47000000000E+01 0.  1.
<mgrwt>
<rscale>  0 0.44280647E+03</rscale>
<asrwt>0</asrwt>
<pdfrwt beam="1">  1        2 0.18187411E+00 0.44719354E+03</pdfrwt>
<pdfrwt beam="2">  1       -2 0.26734078E-01 0.44719354E+03</pdfrwt>
<totfact> 0.25457765E+02</totfact>
</mgrwt>
</event>
<event>
 7    1  0.1050440E-008  0.1433129E+03  0.7546771E-02  0.1223841E+00
         -2   -1    0    0    0  501 -0.00000000000E+00  0.00000000000E+00  0.25509020515E+03  0.25509020515E+03  0.00000000000E+00 0.  1.
          2   -1    0    0  501    0  0.00000000000E+00 -0.00000000000E+00 -0.83557895562E+02  0.83557895562E+02  0.00000000000E+00 0. -1.
         25    2    1    2    0    0  0.69951863367E+02 -0.45006292435E+01  0.18407933942E+03  0.23328905677E+03  0.12500024782E+03 0.  0.
          5    1    1    2  502    0 -0.21475320466E+02 -0.29111803156E+02 -0.25844381321E+02  0.44706918010E+02  0.47000000000E+01 0. -1.
         -5    1    1    2    0  502 -0.48476542900E+02  0.33612432399E+02  0.13297351489E+02  0.60652125931E+02  0.47000000000E+01 0.  1.
          5    1    3    3  503    0  0.38210962683E+02 -0.26275450810E+02  0.18857632451E+03  0.19425137619E+03  0.47000000000E+01 0. -1.
         -5    1    3    3    0  503  0.31740900683E+02  0.21774821566E+02 -0.44969850908E+01  0.39037680584E+02  0.47000000000E+01 0. -1.
<mgrwt>
<rscale>  0 0.13246662E+03</rscale>
<asrwt>0</asrwt>
<pdfrwt beam="1">  1        2 0.12855061E-01 0.14331288E+03</pdfrwt>
<pdfrwt beam="2">  1       -2 0.39244647E-01 0.14331288E+03</pdfrwt>
<totfact> 0.28017707E+03</totfact>
</mgrwt>
</event>
<event>
 7    1  0.1050440E-008  0.1374547E+03  0.7546771E-02  0.1221190E+00
          2   -1    0    0  501    0  0.00000000000E+00  0.00000000000E+00  0.98299356982E+03  0.98299356982E+03  0.00000000000E+00 0. -1.
         -2   -1    0    0    0  501 -0.00000000000E+00 -0.00000000000E+00 -0.46166605339E+02  0.46166605339E+02  0.00000000000E+00 0.  1.
         25    2    1    2    0    0  0.87901747833E+00 -0.88873746887E+01  0.86507492574E+03  0.87410486641E+03  0.12499972894E+03 0.  0.
          5    1    1    2  502    0  0.19486094942E+02 -0.47895210629E+02 -0.10473543948E+02  0.52966444284E+02  0.47000000000E+01 0. -1.
         -5    1    1    2    0  502 -0.20365112420E+02  0.56782585317E+02  0.82225582680E+02  0.10208886446E+03  0.47000000000E+01 0.  1.
          5    1    3    3  503    0 -0.43972768028E+01  0.56233957352E+02  0.50069250410E+03  0.50388160084E+03  0.47000000000E+01 0.  1.
         -5    1    3    3    0  503  0.52762942811E+01 -0.65121332041E+02  0.36438242164E+03  0.37022326557E+03  0.47000000000E+01 0.  1.
<mgrwt>
<rscale>  0 0.13431464E+03</rscale>
<asrwt>0</asrwt>
<pdfrwt beam="1">  1        2 0.15122976E+00 0.13745470E+03</pdfrwt>
<pdfrwt beam="2">  1       -2 0.71025554E-02 0.13745470E+03</pdfrwt>
<totfact> 0.30184848E+03</totfact>
</mgrwt>
</event>
<event>
 7    1  0.1050440E-008  0.1718791E+03  0.7546771E-02  0.1188725E+00
         -2   -1    0    0    0  501 -0.00000000000E+00  0.00000000000E+00  0.51036529166E+03  0.51036529166E+03  0.00000000000E+00 0.  1.
          2   -1    0    0  501    0  0.00000000000E+00 -0.00000000000E+00 -0.45628803139E+02  0.45628803139E+02  0.00000000000E+00 0. -1.
         25    2    1    2    0    0  0.31062012277E+02 -0.68678258448E+01  0.24642562386E+03  0.27814151678E+03  0.12500039850E+03 0.  0.
          5    1    1    2  502    0 -0.27936463027E+02 -0.73722579591E+02  0.56859898358E+02  0.97317021889E+02  0.47000000000E+01 0. -1.
         -5    1    1    2    0  502 -0.31255492510E+01  0.80590405436E+02  0.16145096630E+03  0.18053555613E+03  0.47000000000E+01 0.  1.
          5    1    3    3  503    0 -0.30767626665E+02  0.33554638302E+02  0.47827002494E+02  0.66197226299E+02  0.47000000000E+01 0. -1.
         -5    1    3    3    0  503  0.61829638943E+02 -0.40422464146E+02  0.19859862137E+03  0.21194429048E+03  0.47000000000E+01 0. -1.
<mgrwt>
<rscale>  0 0.15997497E+03</rscale>
<asrwt>0</asrwt>
<pdfrwt beam="1">  1        2 0.70198163E-02 0.17187909E+03</pdfrwt>
<pdfrwt beam="2">  1       -2 0.78517733E-01 0.17187909E+03</pdfrwt>
<totfact> 0.14631547E+03</totfact>
</mgrwt>
</event>
<event>
 7    1  0.1050440E-008  0.5050430E+03  0.7546771E-02  0.1012471E+00
          2   -1    0    0  501    0  0.00000000000E+00  0.00000000000E+00  0.13867323220E+04  0.13867323220E+04  0.00000000000E+00 0. -1.
         -2   -1    0    0    0  501 -0.00000000000E+00 -0.00000000000E+00 -0.45983726923E+02  0.45983726923E+02  0.00000000000E+00 0.  1.
         25    2    1    2    0    0  0.30538070729E+02 -0.12202717136E+03  0.80996262984E+03  0.82914828540E+03  0.12499685247E+03 0.  0.
          5    1    3    3  502    0 -0.19201564975E+02 -0.90402561508E+02  0.25925504768E+03  0.27527548560E+03  0.47000000000E+01 0. -1.
         -5    1    1    2    0  503 -0.10199270473E+03  0.17127950671E+03  0.34555814700E+03  0.39896328677E+03  0.47000000000E+01 0.  1.
          5    1    1    2  503    0  0.71454634002E+02 -0.49252335347E+02  0.18522781826E+03  0.20460447677E+03  0.47000000000E+01 0. -1.
         -5    1    3    3    0  502  0.49739635704E+02 -0.31624609854E+02  0.55070758216E+03  0.55387279980E+03  0.47000000000E+01 0. -1.
<mgrwt>
<rscale>  0 0.50504305E+03</rscale>
<asrwt>0</asrwt>
<pdfrwt beam="1">  1        2 0.21334340E+00 0.50504305E+03</pdfrwt>
<pdfrwt beam="2">  1       -2 0.70744206E-02 0.50504305E+03</pdfrwt>
<totfact> 0.17912236E+03</totfact>
</mgrwt>
</event>
<event>
 7    1  0.1050440E-008  0.1287353E+03  0.7546771E-02  0.1260536E+00
         -2   -1    0    0    0  501 -0.00000000000E+00  0.00000000000E+00  0.47552021117E+02  0.47552021117E+02  0.00000000000E+00 0.  1.
          2   -1    0    0  501    0  0.00000000000E+00 -0.00000000000E+00 -0.21406040067E+03  0.21406040067E+03  0.00000000000E+00 0. -1.
         25    2    1    2    0    0 -0.26544486590E+02 -0.15582022179E+02 -0.13336800932E+03  0.18536398282E+03  0.12500148413E+03 0.  0.
          5    1    3    3  502    0 -0.70572152315E+02 -0.94054308594E+01 -0.11836476542E+03  0.13820708558E+03  0.47000000000E+01 0. -1.
         -5    1    3    3    0  502  0.44027665725E+02 -0.61765913197E+01 -0.15003243894E+02  0.47156897235E+02  0.47000000000E+01 0. -1.
          5    1    1    2  503    0 -0.11250939437E+02  0.18916234575E+02  0.41008518712E+01  0.22876069478E+02  0.47000000000E+01 0. -1.
         -5    1    1    2    0  503  0.37795426027E+02 -0.33342123962E+01 -0.37241222106E+02  0.53372369489E+02  0.47000000000E+01 0.  1.
<mgrwt>
<rscale>  0 0.11001824E+03</rscale>
<asrwt>0</asrwt>
<pdfrwt beam="1">  1        2 0.32932368E-01 0.12873531E+03</pdfrwt>
<pdfrwt beam="2">  1       -2 0.73156958E-02 0.12873531E+03</pdfrwt>
<totfact> 0.16013522E+04</totfact>
</mgrwt>
</event>
<event>
 7    1  0.1050440E-008  0.3171019E+03  0.7546771E-02  0.1076991E+00
          2   -1    0    0  501    0  0.00000000000E+00  0.00000000000E+00  0.77796799726E+03  0.77796799726E+03  0.00000000000E+00 0.  1.
         -2   -1    0    0    0  501 -0.00000000000E+00 -0.00000000000E+00 -0.32312892085E+02  0.32312892085E+02  0.00000000000E+00 0. -1.
         25    2    1    2    0    0  0.27297970279E+02  0.43561879833E+02  0.28478850863E+03  0.31523102055E+03  0.12499314026E+03 0.  0.
          5    1    3    3  502    0  0.65363236550E+02  0.55435085884E+02  0.13355800189E+03  0.15876155488E+03  0.47000000000E+01 0.  1.
         -5    1    1    2    0  503 -0.44379753174E+02 -0.71759815818E+02  0.45302263223E+03  0.46083687891E+03  0.47000000000E+01 0.  1.
          5    1    1    2  503    0  0.17081782895E+02  0.28197935984E+02  0.78439643228E+01  0.34212989886E+02  0.47000000000E+01 0. -1.
         -5    1    3    3    0  502 -0.38065266270E+02 -0.11873206051E+02  0.15123050673E+03  0.15646946566E+03  0.47000000000E+01 0.  1.
<mgrwt>
<rscale>  0 0.31710185E+03</rscale>
<asrwt>0</asrwt>
<pdfrwt beam="1">  1        2 0.11968737E+00 0.31710185E+03</pdfrwt>
<pdfrwt beam="2">  1       -2 0.49712147E-02 0.31710185E+03</pdfrwt>
<totfact> 0.72768739E+03</totfact>
</mgrwt>
</event>
<event>
 7    1  0.1050440E-008  0.1557033E+03  0.7546771E-02  0.1216374E+00
          1   -1    0    0  501    0  0.00000000000E+00  0.00000000000E+00  0.31576084247E+03  0.31576084247E+03  0.00000000000E+00 0. -1.
         -1   -1    0    0    0  501 -0.00000000000E+00 -0.00000000000E+00 -0.11103631419E+03  0.11103631419E+03  0.00000000000E+00 0.  1.
         25    2    1    2    0    0 -0.87085430722E+02 -0.32116100517E+02  0.26965952888E+03  0.31138367329E+03  0.12501285661E+03 0.  0.
          5    1    1    2  502    0  0.33058640609E+02  0.11141569854E+02 -0.36424725870E+02  0.50654308330E+02  0.47000000000E+01 0. -1.
         -5    1    3    3    0  503 -0.49688264137E+02 -0.77214616374E+02  0.20082212068E+03  0.22086791240E+03  0.47000000000E+01 0.  1.
          5    1    3    3  503    0 -0.37397166584E+02  0.45098515857E+02  0.68837408203E+02  0.90515760888E+02  0.47000000000E+01 0.  1.
         -5    1    1    2    0  502  0.54026790113E+02  0.20974530663E+02 -0.28510274736E+02  0.64759175040E+02  0.47000000000E+01 0.  1.
<mgrwt>
<rscale>  0 0.13776084E+03</rscale>
<asrwt>0</asrwt>
<pdfrwt beam="1">  1        1 0.48578591E-01 0.15570334E+03</pdfrwt>
<pdfrwt beam="2">  1       -1 0.17082510E-01 0.15570334E+03</pdfrwt>
<totfact> 0.21016178E+03</totfact>
</mgrwt>
</event>
<event>
 7    1  0.1050440E-008  0.5027620E+03  0.7546771E-02  0.1013060E+00
         -1   -1    0    0    0  501 -0.00000000000E+00  0.00000000000E+00  0.25310360570E+02  0.25310360570E+02  0.00000000000E+00 0.  1.
          1   -1    0    0  501    0  0.00000000000E+00 -0.00000000000E+00 -0.24967015612E+04  0.24967015612E+04  0.00000000000E+00 0. -1.
         25    2    1    2    0    0  0.17909349195E+03 -0.28401664278E+02 -0.79444466426E+03  0.82440699412E+03  0.12499373582E+03 0.  0.
          5    1    3    3  502    0  0.16570608443E+03  0.19355808185E+02 -0.54285831003E+03  0.56793519744E+03  0.47000000000E+01 0. -1.
         -5    1    1    2    0  503 -0.17001468160E+03  0.93723647976E+02 -0.13636418440E+04  0.13773998268E+04  0.47000000000E+01 0.  1.
          5    1    1    2  503    0 -0.90788103495E+01 -0.65321983698E+02 -0.31330469244E+03  0.32020510093E+03  0.47000000000E+01 0. -1.
         -5    1    3    3    0  502  0.13387407517E+02 -0.47757472464E+02 -0.25158635423E+03  0.25647179668E+03  0.47000000000E+01 0. -1.
<mgrwt>
<rscale>  0 0.50276204E+03</rscale>
<asrwt>0</asrwt>
<pdfrwt beam="1">  1        1 0.38410806E+00 0.50276204E+03</pdfrwt>
<pdfrwt beam="2">  1       -1 0.38939003E-02 0.50276204E+03</pdfrwt>
<totfact> 0.39503725E+02</totfact>
</mgrwt>
</event>
<event>
 7    1  0.1050440E-008  0.2009082E+03  0.7546771E-02  0.1155650E+00
          1   -1    0    0  501    0  0.00000000000E+00  0.00000000000E+00  0.28852337490E+03  0.28852337490E+03  0.00000000000E+00 0. -1.
         -1   -1    0    0    0  501 -0.00000000000E+00 -0.00000000000E+00 -0.12136927023E+03  0.12136927023E+03  0.00000000000E+00 0.  1.
         25    2    1    2    0    0  0.10952252411E+03  0.42855682312E+02  0.57484983334E+02  0.18100089091E+03  0.12500002563E+03 0.  0.
          5    1    3    3  502    0  0.13083887099E+03  0.12657863924E+02  0.57958259832E+02  0.14373684832E+03  0.47000000000E+01 0.  1.
         -5    1    1    2    0  503 -0.65970166591E+02  0.55074179644E+02  0.80191262632E+02  0.11763484495E+03  0.47000000000E+01 0.  1.
          5    1    1    2  503    0 -0.43552357515E+02 -0.97929861956E+02  0.29477858696E+02  0.11125690927E+03  0.47000000000E+01 0. -1.
         -5    1    3    3    0  502 -0.21316346882E+02  0.30197818389E+02 -0.47327649785E+00  0.37264042595E+02  0.47000000000E+01 0.  1.
<mgrwt>
<rscale>  0 0.19315079E+03</rscale>
<asrwt>0</asrwt>
<pdfrwt beam="1">  1        1 0.44388211E-01 0.20090824E+03</pdfrwt>
<pdfrwt beam="2">  1       -1 0.18672196E-01 0.20090824E+03</pdfrwt>
<totfact> 0.20558674E+03</totfact>
</mgrwt>
</event>
<event>
 7    1  0.1050440E-008  0.1352833E+03  0.7546771E-02  0.1230591E+00
          1   -1    0    0  501    0  0.00000000000E+00  0.00000000000E+00  0.72443874027E+02  0.72443874027E+02  0.00000000000E+00 0. -1.
         -1   -1    0    0    0  501 -0.00000000000E+00 -0.00000000000E+00 -0.30923210613E+03  0.30923210613E+03  0.00000000000E+00 0.  1.
         25    2    1    2    0    0  0.48327102320E+02 -0.18448178032E+02 -0.23776531662E+03  0.27355790008E+03  0.12500293924E+03 0.  0.
          5    1    1    2  502    0 -0.13102917162E+02  0.35962896889E+02 -0.36851858423E+02  0.53340096176E+02  0.47000000000E+01 0. -1.
         -5    1    3    3    0  503  0.36576277728E+02 -0.42044669271E+02 -0.24024372633E+03  0.24666721782E+03  0.47000000000E+01 0.  1.
          5    1    3    3  503    0  0.11750824592E+02  0.23596491238E+02  0.24784097173E+01  0.26890682254E+02  0.47000000000E+01 0.  1.
         -5    1    1    2    0  502 -0.35224185158E+02 -0.17514718857E+02  0.37828942937E+02  0.54777983902E+02  0.47000000000E+01 0.  1.
<mgrwt>
<rscale>  0 0.12790966E+03</rscale>
<asrwt>0</asrwt>
<pdfrwt beam="1">  1        1 0.11145211E-01 0.13528333E+03</pdfrwt>
<pdfrwt beam="2">  1       -1 0.47574170E-01 0.13528333E+03</pdfrwt>
<totfact> 0.24183696E+03</totfact>
</mgrwt>
</event>
<event>
 7    1  0.1050440E-008  0.1756444E+03  0.7546771E-02  0.1182422E+00
          1   -1    0    0  501    0  0.00000000000E+00  0.00000000000E+00  0.19809372559E+03  0.19809372559E+03  0.00000000000E+00 0. -1.
         -1   -1    0    0    0  501 -0.00000000000E+00 -0.00000000000E+00 -0.12922767876E+03  0.12922767876E+03  0.00000000000E+00 0.  1.
         25    2    1    2    0    0  0.10867723145E+03  0.58432182905E+02  0.67705757861E+02  0.18824194138E+03  0.12500359280E+03 0.  0.
          5    1    1    2  502    0 -0.22069723820E+02 -0.46285339704E+02  0.23548491075E+00  0.51493211534E+02  0.47000000000E+01 0. -1.
         -5    1    3    3    0  503  0.92163343332E+02 -0.95631647675E+01  0.72796528421E+02  0.11792777673E+03  0.47000000000E+01 0. -1.
          5    1    3    3  503    0  0.16513888114E+02  0.67995347672E+02 -0.50907705601E+01  0.70314164651E+02  0.47000000000E+01 0. -1.
         -5    1    1    2    0  502 -0.86607507626E+02 -0.12146843201E+02  0.92480405953E+00  0.87586251430E+02  0.47000000000E+01 0.  1.
<mgrwt>
<rscale>  0 0.16568673E+03</rscale>
<asrwt>0</asrwt>
<pdfrwt beam="1">  1        1 0.30475958E-01 0.17564441E+03</pdfrwt>
<pdfrwt beam="2">  1       -1 0.19881181E-01 0.17564441E+03</pdfrwt>
<totfact> 0.29590446E+03</totfact>
</mgrwt>
</event>
<event>
 7    1  0.1050440E-008  0.1659171E+03  0.7546771E-02  0.1197407E+00
          4   -1    0    0  501    0  0.00000000000E+00  0.00000000000E+00  0.56435765737E+03  0.56435765737E+03  0.00000000000E+00 0. -1.
         -4   -1    0    0    0  501 -0.00000000000E+00 -0.00000000000E+00 -0.38962320101E+02  0.38962320101E+02  0.00000000000E+00 0.  1.
         25    2    1    2    0    0  0.82789055712E+02  0.71052331495E+02  0.21856395922E+03  0.27440604149E+03  0.12500403904E+03 0.  0.
          5    1    1    2  502    0 -0.19352110877E+02 -0.44386270897E+02  0.10777504961E+03  0.11824633846E+03  0.47000000000E+01 0. -1.
         -5    1    3    3    0  503  0.70157012314E+02  0.88203807339E+02  0.90834146321E+02  0.14482696622E+03  0.47000000000E+01 0. -1.
          5    1    3    3  503    0  0.12632043398E+02 -0.17151475844E+02  0.12772981290E+03  0.12957907527E+03  0.47000000000E+01 0. -1.
         -5    1    1    2    0  502 -0.63436944835E+02 -0.26666060598E+02  0.19905632844E+03  0.21066759753E+03  0.47000000000E+01 0.  1.
<mgrwt>
<rscale>  0 0.15252283E+03</rscale>
<asrwt>0</asrwt>
<pdfrwt beam="1">  1        4 0.86824249E-01 0.16591706E+03</pdfrwt>
<pdfrwt beam="2">  1       -4 0.59942035E-02 0.16591706E+03</pdfrwt>
<totfact> 0.36303573E+02</totfact>
</mgrwt>
</event>
<event>
 7    1  0.1050440E-008  0.4624947E+03  0.7546771E-02  0.1024060E+00
         -2   -1    0    0    0  501 -0.00000000000E+00  0.00000000000E+00  0.37282964206E+02  0.37282964206E+02  0.00000000000E+00 0.  1.
          2   -1    0    0  501    0  0.00000000000E+00 -0.00000000000E+00 -0.14343101069E+04  0.14343101069E+04  0.00000000000E+00 0. -1.
         25    2    1    2    0    0 -0.12637251394E+03 -0.98092344212E+02 -0.82966969235E+03  0.85414801984E+03  0.12499968448E+03 0.  0.
          5    1    1    2  502    0  0.16126408800E+03  0.78992762730E+02 -0.53959680820E+03  0.56871149809E+03  0.47000000000E+01 0. -1.
         -5    1    1    2    0  502 -0.34891574052E+02  0.19099581482E+02 -0.27760642142E+02  0.48733553172E+02  0.47000000000E+01 0.  1.
          5    1    3    3  503    0 -0.77186498864E+01 -0.52527583942E+02 -0.46274636596E+03  0.46580576836E+03  0.47000000000E+01 0.  1.
         -5    1    3    3    0  503 -0.11865386406E+03 -0.45564760270E+02 -0.36692332639E+03  0.38834225147E+03  0.47000000000E+01 0.  1.
<mgrwt>
<rscale>  0 0.46249468E+03</rscale>
<asrwt>0</asrwt>
<pdfrwt beam="1">  1        2 0.22066309E+00 0.46249468E+03</pdfrwt>
<pdfrwt beam="2">  1       -2 0.57358407E-02 0.46249468E+03</pdfrwt>
<totfact> 0.23425280E+03</totfact>
</mgrwt>
</event>
<event>
 7    1  0.1050440E-008  0.1487392E+03  0.7546771E-02  0.1207561E+00
         -2   -1    0    0    0  501 -0.00000000000E+00  0.00000000000E+00  0.15212630152E+03  0.15212630152E+03  0.00000000000E+00 0.  1.
          2   -1    0    0  501    0  0.00000000000E+00 -0.00000000000E+00 -0.16409966616E+03  0.16409966616E+03  0.00000000000E+00 0. -1.
         25    2    1    2    0    0  0.41958481551E+02  0.67459386644E+01 -0.78151364562E+02  0.15342889672E+03  0.12500707461E+03 0.  0.
          5    1    3    3  502    0 -0.39447898050E+02  0.17503020515E+02 -0.56321099056E+01  0.43775598793E+02  0.47000000000E+01 0.  1.
         -5    1    3    3    0  502  0.81406379601E+02 -0.10757081851E+02 -0.72519254656E+02  0.10965329792E+03  0.47000000000E+01 0.  1.
          5    1    1    2  503    0  0.49477461066E+02 -0.12190233962E+02  0.26804540474E+01  0.51243495114E+02  0.47000000000E+01 0. -1.
         -5    1    1    2    0  503 -0.91435942617E+02  0.54442952979E+01  0.63497545876E+02  0.11155357585E+03  0.47000000000E+01 0.  1.
<mgrwt>
<rscale>  0 0.14437434E+03</rscale>
<asrwt>0</asrwt>
<pdfrwt beam="1">  1        2 0.25246103E-01 0.14873923E+03</pdfrwt>
<pdfrwt beam="2">  1       -2 0.23404046E-01 0.14873923E+03</pdfrwt>
<totfact> 0.32897074E+03</totfact>
</mgrwt>
</event>
<event>
 7    1  0.1050440E-008  0.2405002E+03  0.7546771E-02  0.1133140E+00
          4   -1    0    0  501    0  0.00000000000E+00  0.00000000000E+00  0.21946331946E+03  0.21946331946E+03  0.00000000000E+00 0. -1.
         -4   -1    0    0    0  501 -0.00000000000E+00 -0.00000000000E+00 -0.21679290825E+03  0.21679290825E+03  0.00000000000E+00 0.  1.
         25    2    1    2    0    0 -0.11622151365E+03  0.16520198872E+02  0.71969463440E+02  0.18597098009E+03  0.12500097825E+03 0.  0.
          5    1    1    2  502    0  0.84687076184E+02  0.91858836723E+02 -0.18391589233E+02  0.12637360211E+03  0.47000000000E+01 0. -1.
         -5    1    1    2    0  502  0.31534437467E+02 -0.10837903560E+03 -0.50907463002E+02  0.12391164551E+03  0.47000000000E+01 0.  1.
          5    1    3    3  503    0 -0.66653864646E+02  0.69297320078E+02  0.57037469668E+02  0.11189378530E+03  0.47000000000E+01 0. -1.
         -5    1    3    3    0  503 -0.49567649006E+02 -0.52777121206E+02  0.14931993772E+02  0.74077194795E+02  0.47000000000E+01 0. -1.
<mgrwt>
<rscale>  0 0.22099902E+03</rscale>
<asrwt>0</asrwt>
<pdfrwt beam="1">  1        4 0.33763587E-01 0.24050020E+03</pdfrwt>
<pdfrwt beam="2">  1       -4 0.33352755E-01 0.24050020E+03</pdfrwt>
<totfact> 0.13402093E+02</totfact>
</mgrwt>
</event>
<event>
 7    1  0.1050440E-008  0.1740156E+03  0.7546771E-02  0.1179297E+00
         -2   -1    0    0    0  501 -0.00000000000E+00  0.00000000000E+00  0.41337245465E+02  0.41337245465E+02  0.00000000000E+00 0.  1.
          2   -1    0    0  501    0  0.00000000000E+00 -0.00000000000E+00 -0.65323483287E+03  0.65323483287E+03  0.00000000000E+00 0. -1.
         25    2    1    2    0    0 -0.10746448245E+03  0.55745357153E+02 -0.35498563777E+03  0.39534316336E+03  0.12500101583E+03 0.  0.
          5    1    3    3  502    0 -0.42859786669E+02  0.65121558993E+02 -0.76705081002E+02  0.10946934827E+03  0.47000000000E+01 0.  1.
         -5    1    3    3    0  502 -0.64604695778E+02 -0.93762018402E+01 -0.27828055677E+03  0.28587381509E+03  0.47000000000E+01 0.  1.
          5    1    1    2  503    0  0.24143243154E+02  0.20734559414E+02 -0.10475488560E+03  0.10958327519E+03  0.47000000000E+01 0. -1.
         -5    1    1    2    0  503  0.83321239292E+02 -0.76479916567E+02 -0.15215706404E+03  0.18964563979E+03  0.47000000000E+01 0.  1.
<mgrwt>
<rscale>  0 0.16861782E+03</rscale>
<asrwt>0</asrwt>
<pdfrwt beam="1">  1        2 0.10049767E+00 0.17401556E+03</pdfrwt>
<pdfrwt beam="2">  1       -2 0.63595763E-02 0.17401556E+03</pdfrwt>
<totfact> 0.60277788E+03</totfact>
</mgrwt>
</event>
<event>
 7    1  0.1050440E-008  0.4457860E+03  0.7546771E-02  0.1051523E+00
         -2   -1    0    0    0  501 -0.00000000000E+00  0.00000000000E+00  0.11885541929E+03  0.11885541929E+03  0.00000000000E+00 0.  1.
          2   -1    0    0  501    0  0.00000000000E+00 -0.00000000000E+00 -0.10013949300E+04  0.10013949300E+04  0.00000000000E+00 0. -1.
         25    2    1    2    0    0 -0.18996274044E+03  0.43166767898E+02 -0.20487958907E+03  0.30911032000E+03  0.12499732521E+03 0.  0.
          5    1    1    2  502    0  0.48871585751E+02 -0.21624400841E+03 -0.31505903763E+03  0.38527157988E+03  0.47000000000E+01 0. -1.
         -5    1    1    2    0  502  0.14109115469E+03  0.17307724051E+03 -0.36260088402E+03  0.42586844941E+03  0.47000000000E+01 0.  1.
          5    1    3    3  503    0 -0.16095356371E+03  0.19110560882E+01 -0.92178004100E+02  0.18554939031E+03  0.47000000000E+01 0. -1.
         -5    1    3    3    0  503 -0.29009176731E+02  0.41255711810E+02 -0.11270158497E+03  0.12356092969E+03  0.47000000000E+01 0. -1.
<mgrwt>
<rscale>  0 0.37841090E+03</rscale>
<asrwt>0</asrwt>
<pdfrwt beam="1">  1        2 0.15406076E+00 0.44578602E+03</pdfrwt>
<pdfrwt beam="2">  1       -2 0.18285449E-01 0.44578602E+03</pdfrwt>
<totfact> 0.63830990E+02</totfact>
</mgrwt>
</event>
<event>
 7    1  0.1050440E-008  0.2012082E+03  0.7546771E-02  0.1148865E+00
         -1   -1    0    0    0  501 -0.00000000000E+00  0.00000000000E+00  0.86951972859E+02  0.86951972859E+02  0.00000000000E+00 0.  1.
          1   -1    0    0  501    0  0.00000000000E+00 -0.00000000000E+00 -0.48855890697E+03  0.48855890697E+03  0.00000000000E+00 0. -1.
         25    2    1    2    0    0  0.15757690476E+03  0.53595167448E+01 -0.13665805453E+03  0.24322861682E+03  0.12500212334E+03 0.  0.
          5    1    3    3  502    0  0.71186651180E+02  0.59410666084E+02 -0.35022232484E+02  0.99226071770E+02  0.47000000000E+01 0.  1.
         -5    1    1    2    0  503 -0.42395839668E+02 -0.49552095375E+02 -0.14985433828E+03  0.16349688094E+03  0.47000000000E+01 0.  1.
          5    1    1    2  503    0 -0.11518106509E+03  0.44192578630E+02 -0.11509454131E+03  0.16878538207E+03  0.47000000000E+01 0. -1.
         -5    1    3    3    0  502  0.86390253578E+02 -0.54051149339E+02 -0.10163582204E+03  0.14400254505E+03  0.47000000000E+01 0.  1.
<mgrwt>
<rscale>  0 0.20103925E+03</rscale>
<asrwt>0</asrwt>
<pdfrwt beam="1">  1        1 0.75162909E-01 0.20120819E+03</pdfrwt>
<pdfrwt beam="2">  1       -1 0.13377227E-01 0.20120819E+03</pdfrwt>
<totfact> 0.17850939E+03</totfact>
</mgrwt>
</event>
<event>
 7    1  0.1050440E-008  0.2067033E+03  0.7546771E-02  0.1156999E+00
         -1   -1    0    0    0  501 -0.00000000000E+00  0.00000000000E+00  0.28287906080E+03  0.28287906080E+03  0.00000000000E+00 0.  1.
          1   -1    0    0  501    0  0.00000000000E+00 -0.00000000000E+00 -0.12825786046E+03  0.12825786046E+03  0.00000000000E+00 0. -1.
         25    2    1    2    0    0 -0.60892546952E+02 -0.63106128129E+02 -0.51680583249E+00  0.15269150131E+03  0.12499656716E+03 0.  0.
          5    1    3    3  502    0  0.70194256123E+01 -0.70553302887E+02  0.30731892260E+02  0.77418215467E+02  0.47000000000E+01 0. -1.
         -5    1    1    2    0  503 -0.63739730534E+02  0.28109933350E+02  0.88639616322E+02  0.11283613421E+03  0.47000000000E+01 0.  1.
          5    1    1    2  503    0  0.12463227749E+03  0.34996194779E+02  0.66498389845E+02  0.14560928574E+03  0.47000000000E+01 0. -1.
         -5    1    3    3    0  502 -0.67911972565E+02  0.74471747582E+01 -0.31248698093E+02  0.75273285846E+02  0.47000000000E+01 0. -1.
<mgrwt>
<rscale>  0 0.19163003E+03</rscale>
<asrwt>0</asrwt>
<pdfrwt beam="1">  1        1 0.19731979E-01 0.20670325E+03</pdfrwt>
<pdfrwt beam="2">  1       -1 0.43519855E-01 0.20670325E+03</pdfrwt>
<totfact> 0.13688798E+03</totfact>
</mgrwt>
</event>
<event>
 7    1  0.1050440E-008  0.2705764E+03  0.7546771E-02  0.1103315E+00
          2   -1    0    0  501    0  0.00000000000E+00  0.00000000000E+00  0.29943751604E+03  0.29943751604E+03  0.00000000000E+00 0. -1.
         -2   -1    0    0    0  501 -0.00000000000E+00 -0.00000000000E+00 -0.23321686788E+03  0.23321686788E+03  0.00000000000E+00 0.  1.
         25    2    1    2    0    0  0.22148067037E+03  0.92415535021E+02  0.39014011461E+01  0.27060451048E+03  0.12496904297E+03 0.  0.
          5    1    1    2  502    0 -0.13246804623E+02 -0.18600403802E+02  0.31110926073E+02  0.38877147213E+02  0.47000000000E+01 0. -1.
         -5    1    3    3    0  503  0.12455273801E+03 -0.46370802046E+01  0.35674634697E+02  0.12972916642E+03  0.47000000000E+01 0. -1.
          5    1    3    3  503    0  0.96927932354E+02  0.97052615226E+02 -0.31773233551E+02  0.14087534406E+03  0.47000000000E+01 0. -1.
         -5    1    1    2    0  502 -0.20823386575E+03 -0.73815131219E+02  0.31208320939E+02  0.22317272624E+03  0.47000000000E+01 0.  1.
<mgrwt>
<rscale>  0 0.26647283E+03</rscale>
<asrwt>0</asrwt>
<pdfrwt beam="1">  1        2 0.46067310E-01 0.27057639E+03</pdfrwt>
<pdfrwt beam="2">  1       -2 0.35879518E-01 0.27057639E+03</pdfrwt>
<totfact> 0.80491541E+02</totfact>
</mgrwt>
</event>
<event>
 7    1  0.1050440E-008  0.1313296E+03  0.7546771E-02  0.1229903E+00
          2   -1    0    0  501    0  0.00000000000E+00  0.00000000000E+00  0.55464169722E+03  0.55464169722E+03  0.00000000000E+00 0. -1.
         -2   -1    0    0    0  501 -0.00000000000E+00 -0.00000000000E+00 -0.29272805536E+02  0.29272805536E+02  0.00000000000E+00 0.  1.
         25    2    1    2    0    0 -0.22058247912E+02  0.33696347080E+02  0.22517204904E+03  0.26067203772E+03  0.12500179788E+03 0.  0.
          5    1    3    3  502    0  0.31267694419E+02  0.33984063357E+02  0.23524025391E+02  0.52038976231E+02  0.47000000000E+01 0.  1.
         -5    1    1    2    0  503  0.62650074659E+02 -0.21587585587E+02  0.24297599371E+03  0.25189378560E+03  0.47000000000E+01 0.  1.
          5    1    1    2  503    0 -0.40591826747E+02 -0.12108761493E+02  0.57220848929E+02  0.71348679425E+02  0.47000000000E+01 0. -1.
         -5    1    3    3    0  502 -0.53325942331E+02 -0.28771627715E+00  0.20164802365E+03  0.20863306149E+03  0.47000000000E+01 0.  1.
<mgrwt>
<rscale>  0 0.12836445E+03</rscale>
<asrwt>0</asrwt>
<pdfrwt beam="1">  1        2 0.85329484E-01 0.13132958E+03</pdfrwt>
<pdfrwt beam="2">  1       -2 0.45035089E-02 0.13132958E+03</pdfrwt>
<totfact> 0.12041853E+04</totfact>
</mgrwt>
</event>
<event>
 7    1  0.1050440E-008  0.1568652E+03  0.7546771E-02  0.1214010E+00
          2   -1    0    0  501    0  0.00000000000E+00  0.00000000000E+00  0.41441265452E+03  0.41441265452E+03  0.00000000000E+00 0. -1.
         -2   -1    0    0    0  501 -0.00000000000E+00 -0.00000000000E+00 -0.39543608237E+02  0.39543608237E+02  0.00000000000E+00 0.  1.
         25    2    1    2    0    0 -0.23759045602E+02  0.91776764638E+02  0.25040779428E+03  0.29548393100E+03  0.12497689094E+03 0.  0.
          5    1    3    3  502    0 -0.12034803300E+02  0.40878795825E+02  0.23768536063E+03  0.24152087507E+03  0.47000000000E+01 0.  1.
         -5    1    3    3    0  502 -0.11724242302E+02  0.50897968813E+02  0.12722433646E+02  0.53963055924E+02  0.47000000000E+01 0.  1.
          5    1    1    2  503    0  0.17552070272E+02 -0.71173398322E+02  0.10946230428E+03  0.13182493641E+03  0.47000000000E+01 0. -1.
         -5    1    1    2    0  503  0.62069753299E+01 -0.20603366317E+02  0.14998947728E+02  0.26647395356E+02  0.47000000000E+01 0.  1.
<mgrwt>
<rscale>  0 0.13949481E+03</rscale>
<asrwt>0</asrwt>
<pdfrwt beam="1">  1        2 0.63755790E-01 0.15686520E+03</pdfrwt>
<pdfrwt beam="2">  1       -2 0.60836323E-02 0.15686520E+03</pdfrwt>
<totfact> 0.10662621E+04</totfact>
</mgrwt>
</event>
<event>
 7    1  0.1050440E-008  0.1965109E+03  0.7546771E-02  0.1160217E+00
         -2   -1    0    0    0  501 -0.00000000000E+00  0.00000000000E+00  0.14445689756E+03  0.14445689756E+03  0.00000000000E+00 0. -1.
          2   -1    0    0  501    0  0.00000000000E+00 -0.00000000000E+00 -0.24079708612E+03  0.24079708612E+03  0.00000000000E+00 0.  1.
         25    2    1    2    0    0  0.15159278086E+03 -0.34421664386E+01 -0.45281436383E+01  0.19656306671E+03  0.12499726154E+03 0.  0.
          5    1    1    2  502    0 -0.10499723150E+03 -0.27593237249E+02 -0.60130178262E+02  0.12419152025E+03  0.47000000000E+01 0. -1.
         -5    1    1    2    0  502 -0.46595549358E+02  0.31035403687E+02 -0.31681866664E+02  0.64499396720E+02  0.47000000000E+01 0.  1.
          5    1    3    3  503    0  0.60246243778E+02 -0.56555518280E+02 -0.29533318236E+02  0.87877434096E+02  0.47000000000E+01 0.  1.
         -5    1    3    3    0  503  0.91346537078E+02  0.53113351842E+02  0.25005174597E+02  0.10868563261E+03  0.47000000000E+01 0.  1.
<mgrwt>
<rscale>  0 0.18806622E+03</rscale>
<asrwt>0</asrwt>
<pdfrwt beam="1">  1        2 0.37045705E-01 0.19651090E+03</pdfrwt>
<pdfrwt beam="2">  1       -2 0.22224138E-01 0.19651090E+03</pdfrwt>
<totfact> 0.23975370E+03</totfact>
</mgrwt>
</event>
<event>
 7    1  0.1050440E-008  0.3444038E+03  0.7546771E-02  0.1082657E+00
          1   -1    0    0  501    0  0.00000000000E+00  0.00000000000E+00  0.57851939781E+03  0.57851939781E+03  0.00000000000E+00 0. -1.
         -1   -1    0    0    0  501 -0.00000000000E+00 -0.00000000000E+00 -0.22781423206E+03  0.22781423206E+03  0.00000000000E+00 0.  1.
         25    2    1    2    0    0  0.13192009834E+03  0.11005829073E+03 -0.10348828308E+03  0.23632868878E+03  0.12500273878E+03 0.  0.
          5    1    3    3  502    0  0.15708849071E+02  0.24343097192E+02  0.28300246739E+02  0.40771905591E+02  0.47000000000E+01 0.  1.
         -5    1    3    3    0  502  0.11621124927E+03  0.85715193536E+02 -0.13178852982E+03  0.19555678319E+03  0.47000000000E+01 0.  1.
          5    1    1    2  503    0 -0.75976477497E+02  0.98496119319E+02  0.20890979646E+03  0.24318573911E+03  0.47000000000E+01 0. -1.
         -5    1    1    2    0  503 -0.55943620845E+02 -0.20855441005E+03  0.24528365237E+03  0.32681920198E+03  0.47000000000E+01 0.  1.
<mgrwt>
<rscale>  0 0.30522690E+03</rscale>
<asrwt>0</asrwt>
<pdfrwt beam="1">  1        1 0.89002984E-01 0.34440375E+03</pdfrwt>
<pdfrwt beam="2">  1       -1 0.35048344E-01 0.34440375E+03</pdfrwt>
<totfact> 0.28919452E+02</totfact>
</mgrwt>
</event>
<event>
 7    1  0.1050440E-008  0.2842156E+03  0.7546771E-02  0.1096503E+00
          2   -1    0    0  501    0  0.00000000000E+00  0.00000000000E+00  0.19862736481E+04  0.19862736481E+04  0.00000000000E+00 0.  1.
         -2   -1    0    0    0  501 -0.00000000000E+00 -0.00000000000E+00 -0.41869821426E+02  0.41869821426E+02  0.00000000000E+00 0. -1.
         25    2    1    2    0    0 -0.20764643646E+03  0.99729439171E+02  0.61192762534E+03  0.66569299031E+03  0.12501493942E+03 0.  0.
          5    1    1    2  502    0  0.18952561002E+03 -0.84854391683E+01  0.95285500133E+03  0.97156919625E+03  0.47000000000E+01 0. -1.
         -5    1    1    2    0  502  0.18120826440E+02 -0.91244000002E+02  0.37962120003E+03  0.39088128300E+03  0.47000000000E+01 0.  1.
          5    1    3    3  503    0 -0.15754560399E+03  0.61047694696E+02  0.27463740471E+03  0.32248291805E+03  0.47000000000E+01 0.  1.
         -5    1    3    3    0  503 -0.50100832467E+02  0.38681744475E+02  0.33729022063E+03  0.34321007226E+03  0.47000000000E+01 0.  1.
<mgrwt>
<rscale>  0 0.27851523E+03</rscale>
<asrwt>0</asrwt>
<pdfrwt beam="1">  1        2 0.30558049E+00 0.28421555E+03</pdfrwt>
<pdfrwt beam="2">  1       -2 0.64415125E-02 0.28421555E+03</pdfrwt>
<totfact> 0.10004929E+03</totfact>
</mgrwt>
</event>
<event>
 7    1  0.1050440E-008  0.1676514E+03  0.7546771E-02  0.1183294E+00
         -2   -1    0    0    0  501 -0.00000000000E+00  0.00000000000E+00  0.15533250246E+02  0.15533250246E+02  0.00000000000E+00 0.  1.
          2   -1    0    0  501    0  0.00000000000E+00 -0.00000000000E+00 -0.16989670315E+04  0.16989670315E+04  0.00000000000E+00 0. -1.
         25    2    1    2    0    0  0.82812410938E+02 -0.46005424444E+02 -0.85680364228E+03  0.87104050537E+03  0.12499874429E+03 0.  0.
          5    1    3    3  502    0  0.56000131314E+02 -0.73772620864E+02 -0.77428626190E+03  0.77982031242E+03  0.47000000000E+01 0. -1.
         -5    1    1    2    0  503 -0.95814345655E+02 -0.16935111265E+02 -0.59958863223E+03  0.60745024876E+03  0.47000000000E+01 0. -1.
          5    1    1    2  503    0  0.13001934717E+02  0.62940535709E+02 -0.22704150673E+03  0.23600952761E+03  0.47000000000E+01 0. -1.
         -5    1    3    3    0  502  0.26812279624E+02  0.27767196420E+02 -0.82517380384E+02  0.91220192946E+02  0.47000000000E+01 0. -1.
<mgrwt>
<rscale>  0 0.16488090E+03</rscale>
<asrwt>0</asrwt>
<pdfrwt beam="1">  1        2 0.26137936E+00 0.16765145E+03</pdfrwt>
<pdfrwt beam="2">  1       -2 0.23897325E-02 0.16765145E+03</pdfrwt>
<totfact> 0.62954883E+03</totfact>
</mgrwt>
</event>
<event>
 7    1  0.1050440E-008  0.5992953E+03  0.7546771E-02  0.9906869E-01
          1   -1    0    0  501    0  0.00000000000E+00  0.00000000000E+00  0.11047726859E+04  0.11047726859E+04  0.00000000000E+00 0. -1.
         -1   -1    0    0    0  501 -0.00000000000E+00 -0.00000000000E+00 -0.81273484810E+02  0.81273484810E+02  0.00000000000E+00 0.  1.
         25    2    1    2    0    0 -0.91051012656E+02  0.18164014572E+03  0.29136153725E+03  0.37655940054E+03  0.12498802865E+03 0.  0.
          5    1    3    3  502    0 -0.11479644101E+03  0.13815562532E+03  0.26518155511E+03  0.32032568871E+03  0.47000000000E+01 0.  1.
         -5    1    1    2    0  503 -0.72795065753E+02  0.28549885363E+02  0.14978258133E+03  0.16902996545E+03  0.47000000000E+01 0.  1.
          5    1    1    2  503    0  0.16384607841E+03 -0.21019003108E+03  0.58235508251E+03  0.64045680472E+03  0.47000000000E+01 0. -1.
         -5    1    3    3    0  502  0.23745428357E+02  0.43484520393E+02  0.26179982146E+02  0.56233711836E+02  0.47000000000E+01 0.  1.
<mgrwt>
<rscale>  0 0.59929534E+03</rscale>
<asrwt>0</asrwt>
<pdfrwt beam="1">  1        1 0.16996502E+00 0.59929534E+03</pdfrwt>
<pdfrwt beam="2">  1       -1 0.12503614E-01 0.59929534E+03</pdfrwt>
<totfact> 0.56472439E+02</totfact>
</mgrwt>
</event>
<event>
 7    1  0.1050440E-008  0.2653929E+03  0.7546771E-02  0.1112942E+00
         -2   -1    0    0    0  501 -0.00000000000E+00  0.00000000000E+00  0.40203137765E+02  0.40203137765E+02  0.00000000000E+00 0.  1.
          2   -1    0    0  501    0  0.00000000000E+00 -0.00000000000E+00 -0.17766117571E+04  0.17766117571E+04  0.00000000000E+00 0. -1.
         25    2    1    2    0    0  0.14234712814E+03  0.92697577313E+02 -0.11994482353E+04  0.12178492329E+04  0.12500055704E+03 0.  0.
          5    1    1    2  502    0 -0.69434540916E+02  0.17119267167E+02 -0.34610518252E+02  0.79587704793E+02  0.47000000000E+01 0.  1.
         -5    1    1    2    0  502 -0.72912587229E+02 -0.10981684448E+03 -0.50234986577E+03  0.51937795712E+03  0.47000000000E+01 0. -1.
          5    1    3    3  503    0  0.15101913721E+02  0.31258933619E+02 -0.58593292023E+02  0.68267507639E+02  0.47000000000E+01 0.  1.
         -5    1    3    3    0  503  0.12724521442E+03  0.61438643694E+02 -0.11408549433E+04  0.11495817253E+04  0.47000000000E+01 0.  1.
<mgrwt>
<rscale>  0 0.25057541E+03</rscale>
<asrwt>0</asrwt>
<pdfrwt beam="1">  1        2 0.27332494E+00 0.26539294E+03</pdfrwt>
<pdfrwt beam="2">  1       -2 0.61850968E-02 0.26539294E+03</pdfrwt>
<totfact> 0.13757966E+03</totfact>
</mgrwt>
</event>
<event>
 7    1  0.1050440E-008  0.1619615E+03  0.7546771E-02  0.1197962E+00
          4   -1    0    0  501    0  0.00000000000E+00  0.00000000000E+00  0.37896166873E+03  0.37896166873E+03  0.00000000000E+00 0. -1.
         -4   -1    0    0    0  501 -0.00000000000E+00 -0.00000000000E+00 -0.55902721003E+02  0.55902721003E+02  0.00000000000E+00 0.  1.
         25    2    1    2    0    0  0.88594497038E+02  0.52507716336E+02  0.14898618333E+03  0.22006457333E+03  0.12500195371E+03 0.  0.
          5    1    1    2  502    0 -0.28949970748E+02 -0.47704632758E+02  0.12605545706E+03  0.13793440850E+03  0.47000000000E+01 0. -1.
         -5    1    3    3    0  503  0.87421423528E+02  0.75940776971E+02  0.65301075716E+02  0.13302566440E+03  0.47000000000E+01 0. -1.
          5    1    3    3  503    0  0.11730735108E+01 -0.23433060636E+02  0.83685107613E+02  0.87038908934E+02  0.47000000000E+01 0. -1.
         -5    1    1    2    0  502 -0.59644526291E+02 -0.48030835779E+01  0.48017307336E+02  0.76865407903E+02  0.47000000000E+01 0.  1.
<mgrwt>
<rscale>  0 0.15206181E+03</rscale>
<asrwt>0</asrwt>
<pdfrwt beam="1">  1        4 0.58301794E-01 0.16196152E+03</pdfrwt>
<pdfrwt beam="2">  1       -4 0.86004188E-02 0.16196152E+03</pdfrwt>
<totfact> 0.47343177E+02</totfact>
</mgrwt>
</event>
<event>
 7    1  0.1050440E-008  0.1065263E+04  0.7546771E-02  0.9239727E-01
         -2   -1    0    0    0  501 -0.00000000000E+00  0.00000000000E+00  0.12934804671E+03  0.12934804671E+03  0.00000000000E+00 0.  1.
          2   -1    0    0  501    0  0.00000000000E+00 -0.00000000000E+00 -0.21932775092E+04  0.21932775092E+04  0.00000000000E+00 0. -1.
         25    2    1    2    0    0 -0.27115866275E+02 -0.27057367255E+03 -0.19783431932E+03  0.35875776168E+03  0.12499332457E+03 0.  0.
          5    1    1    2  502    0  0.59217754853E+02  0.29253288570E+03 -0.18929686642E+04  0.19163597484E+04  0.47000000000E+01 0. -1.
         -5    1    3    3    0  503  0.46557263808E+02 -0.15220229114E+03 -0.94655755422E+02  0.18524286296E+03  0.47000000000E+01 0. -1.
          5    1    3    3  503    0 -0.73673130083E+02 -0.11837138141E+03 -0.10317856389E+03  0.17351489872E+03  0.47000000000E+01 0. -1.
         -5    1    1    2    0  502 -0.32101888578E+02 -0.21959213148E+02  0.26873520978E+02  0.47508045867E+02  0.47000000000E+01 0.  1.
<mgrwt>
<rscale>  0 0.10652627E+04</rscale>
<asrwt>0</asrwt>
<pdfrwt beam="1">  1        2 0.33742729E+00 0.10652627E+04</pdfrwt>
<pdfrwt beam="2">  1       -2 0.19899701E-01 0.10652627E+04</pdfrwt>
<totfact> 0.11230901E+02</totfact>
</mgrwt>
</event>
<event>
 7    1  0.1050440E-008  0.6840989E+03  0.7546771E-02  0.9744818E-01
          1   -1    0    0  501    0  0.00000000000E+00  0.00000000000E+00  0.29853802564E+03  0.29853802564E+03  0.00000000000E+00 0. -1.
         -1   -1    0    0    0  501 -0.00000000000E+00 -0.00000000000E+00 -0.39190257455E+03  0.39190257455E+03  0.00000000000E+00 0.  1.
         25    2    1    2    0    0 -0.60318576765E+02 -0.22830665712E+03 -0.48696127518E+02  0.27158854214E+03  0.12500705179E+03 0.  0.
          5    1    1    2  502    0  0.67604260309E+02  0.66568448918E+01  0.12313727441E+03  0.14071079541E+03  0.47000000000E+01 0. -1.
         -5    1    1    2    0  502 -0.72856835442E+01  0.22164981223E+03 -0.16780569579E+03  0.27814126264E+03  0.47000000000E+01 0.  1.
          5    1    3    3  503    0 -0.21098108321E+02 -0.16918744089E+03 -0.86303243280E+02  0.19115402201E+03  0.47000000000E+01 0. -1.
         -5    1    3    3    0  503 -0.39220468445E+02 -0.59119216233E+02  0.37607115762E+02  0.80434520132E+02  0.47000000000E+01 0. -1.
<mgrwt>
<rscale>  0 0.68409888E+03</rscale>
<asrwt>0</asrwt>
<pdfrwt beam="1">  1        1 0.45928927E-01 0.68409888E+03</pdfrwt>
<pdfrwt beam="2">  1       -1 0.60292704E-01 0.68409888E+03</pdfrwt>
<totfact> 0.24967350E+02</totfact>
</mgrwt>
</event>
<event>
 7    1  0.1050440E-008  0.7817004E+03  0.7546771E-02  0.9586889E-01
         -1   -1    0    0    0  501 -0.00000000000E+00  0.00000000000E+00  0.16397149302E+03  0.16397149302E+03  0.00000000000E+00 0.  1.
          1   -1    0    0  501    0  0.00000000000E+00 -0.00000000000E+00 -0.93164891418E+03  0.93164891418E+03  0.00000000000E+00 0. -1.
         25    2    1    2    0    0 -0.21460741200E+03 -0.23408316689E+03 -0.18289008776E+03  0.38720142267E+03  0.12499954883E+03 0.  0.
          5    1    1    2  502    0  0.22259684668E+02 -0.49798246647E+02 -0.57293606427E+02  0.79246490573E+02  0.47000000000E+01 0. -1.
         -5    1    1    2    0  502  0.19234772734E+03  0.28388141354E+03 -0.52749372697E+03  0.62917249396E+03  0.47000000000E+01 0. -1.
          5    1    3    3  503    0  0.28103225875E+01 -0.63835762979E+02 -0.46576976518E+02  0.79211156346E+02  0.47000000000E+01 0.  1.
         -5    1    3    3    0  503 -0.21741773459E+03 -0.17024740391E+03 -0.13631311124E+03  0.30799026632E+03  0.47000000000E+01 0.  1.
<mgrwt>
<rscale>  0 0.78170036E+03</rscale>
<asrwt>0</asrwt>
<pdfrwt beam="1">  1        1 0.14333060E+00 0.78170036E+03</pdfrwt>
<pdfrwt beam="2">  1       -1 0.25226384E-01 0.78170036E+03</pdfrwt>
<totfact> 0.23888939E+02</totfact>
</mgrwt>
</event>
<event>
 7    1  0.1375468E-008  0.1902591E+03  0.7546771E-02  0.1161019E+00
         -1   -1    0    0    0  501 -0.00000000000E+00  0.00000000000E+00  0.75430438456E+02  0.75430438456E+02  0.00000000000E+00 0.  1.
          1   -1    0    0  501    0  0.00000000000E+00 -0.00000000000E+00 -0.85785987594E+03  0.85785987594E+03  0.00000000000E+00 0. -1.
         25    2    1    2    0    0  0.78154364857E+02 -0.10025672758E+03 -0.62932472300E+02  0.18906291705E+03  0.12499909745E+03 0.  0.
          5    1    1    2  502    0 -0.11091271032E+03  0.54046802491E+02 -0.59039617329E+03  0.60316864773E+03  0.47000000000E+01 0. -1.
         -5    1    1    2    0  502  0.32758345465E+02  0.46209925092E+02 -0.12910079189E+03  0.14105874961E+03  0.47000000000E+01 0.  1.
          5    1    3    3  503    0 -0.25643403670E+02 -0.37497435460E+02  0.10943623982E+02  0.46962695022E+02  0.47000000000E+01 0. -1.
         -5    1    3    3    0  503  0.10379776853E+03 -0.62759292123E+02 -0.73876096282E+02  0.14210022203E+03  0.47000000000E+01 0. -1.
<mgrwt>
<rscale>  0 0.18719131E+03</rscale>
<asrwt>0</asrwt>
<pdfrwt beam="1">  1        1 0.13197845E+00 0.19025913E+03</pdfrwt>
<pdfrwt beam="2">  1       -1 0.11604682E-01 0.19025913E+03</pdfrwt>
<totfact> 0.10000087E+03</totfact>
</mgrwt>
</event>
<event>
 7    1  0.1050440E-008  0.2519947E+03  0.7546771E-02  0.1133898E+00
          2   -1    0    0  501    0  0.00000000000E+00  0.00000000000E+00  0.13906992264E+03  0.13906992264E+03  0.00000000000E+00 0. -1.
         -2   -1    0    0    0  501 -0.00000000000E+00 -0.00000000000E+00 -0.32913715746E+03  0.32913715746E+03  0.00000000000E+00 0.  1.
         25    2    1    2    0    0  0.28101302531E+02 -0.70758340209E+02  0.96651877756E+01  0.14665716429E+03  0.12497392556E+03 0.  0.
          5    1    1    2  502    0  0.82604521206E+02 -0.28135286817E+02 -0.22355361393E+02  0.90205063444E+02  0.47000000000E+01 0. -1.
         -5    1    3    3    0  503  0.64254266343E+02 -0.82934794631E+02 -0.59097419860E+01  0.10518462794E+03  0.47000000000E+01 0.  1.
          5    1    3    3  503    0 -0.36152963812E+02  0.12176454422E+02  0.15574929762E+02  0.41472536355E+02  0.47000000000E+01 0.  1.
         -5    1    1    2    0  502 -0.11070582374E+03  0.98893627026E+02 -0.17737706120E+03  0.23134485237E+03  0.47000000000E+01 0.  1.
<mgrwt>
<rscale>  0 0.21997991E+03</rscale>
<asrwt>0</asrwt>
<pdfrwt beam="1">  1        2 0.21395373E-01 0.25199466E+03</pdfrwt>
<pdfrwt beam="2">  1       -2 0.50636486E-01 0.25199466E+03</pdfrwt>
<totfact> 0.96089671E+02</totfact>
</mgrwt>
</event>
<event>
 7    1  0.1050440E-008  0.1378338E+03  0.7546771E-02  0.1253938E+00
         -1   -1    0    0    0  501 -0.00000000000E+00  0.00000000000E+00  0.45426180709E+02  0.45426180709E+02  0.00000000000E+00 0.  1.
          1   -1    0    0  501    0  0.00000000000E+00 -0.00000000000E+00 -0.22503150320E+03  0.22503150320E+03  0.00000000000E+00 0. -1.
         25    2    1    2    0    0  0.58079249744E+02 -0.19407677412E+00 -0.11257705531E+03  0.17796557776E+03  0.12499966627E+03 0.  0.
          5    1    3    3  502    0  0.28975478578E+02 -0.58867718301E+02 -0.83112642256E+02  0.10599428249E+03  0.47000000000E+01 0. -1.
         -5    1    1    2    0  503 -0.23301109190E+02 -0.40836359473E+01 -0.11635494847E+02  0.26778583091E+02  0.47000000000E+01 0.  1.
          5    1    1    2  503    0 -0.34778140555E+02  0.42777127214E+01 -0.55392772329E+02  0.65713523059E+02  0.47000000000E+01 0. -1.
         -5    1    3    3    0  502  0.29103771166E+02  0.58673641527E+02 -0.29464413057E+02  0.71971295271E+02  0.47000000000E+01 0. -1.
<mgrwt>
<rscale>  0 0.11366043E+03</rscale>
<asrwt>0</asrwt>
<pdfrwt beam="1">  1        1 0.34620231E-01 0.13783379E+03</pdfrwt>
<pdfrwt beam="2">  1       -1 0.69886432E-02 0.13783379E+03</pdfrwt>
<totfact> 0.12573209E+04</totfact>
</mgrwt>
</event>
<event>
 7    1  0.1050440E-008  0.1266190E+04  0.7546771E-02  0.9056815E-01
         -2   -1    0    0    0  501 -0.00000000000E+00  0.00000000000E+00  0.33091204630E+03  0.33091204630E+03  0.00000000000E+00 0. -1.
          2   -1    0    0  501    0  0.00000000000E+00 -0.00000000000E+00 -0.12112261735E+04  0.12112261735E+04  0.00000000000E+00 0.  1.
         25    2    1    2    0    0  0.64722969752E+02  0.54822707651E+03 -0.63887192224E+03  0.85353758031E+03  0.12500831073E+03 0.  0.
          5    1    3    3  502    0  0.26283167137E+02  0.51195706758E+02 -0.25508827766E+02  0.63123652930E+02  0.47000000000E+01 0. -1.
         -5    1    1    2    0  503 -0.41970461051E+02 -0.33580295098E+02 -0.15769097980E+03  0.16666640612E+03  0.47000000000E+01 0.  1.
          5    1    1    2  503    0 -0.22752508700E+02 -0.51464678141E+03 -0.83751225176E+02  0.52193423339E+03  0.47000000000E+01 0. -1.
         -5    1    3    3    0  502  0.38439802614E+02  0.49703136975E+03 -0.61336309447E+03  0.79041392738E+03  0.47000000000E+01 0. -1.
<mgrwt>
<rscale>  0 0.12661901E+04</rscale>
<asrwt>0</asrwt>
<pdfrwt beam="1">  1        2 0.18634249E+00 0.12661901E+04</pdfrwt>
<pdfrwt beam="2">  1       -2 0.50909544E-01 0.12661901E+04</pdfrwt>
<totfact> 0.66810569E+01</totfact>
</mgrwt>
</event>
<event>
 7    1  0.1050440E-008  0.2087392E+04  0.7546771E-02  0.8566818E-01
         -1   -1    0    0    0  501 -0.00000000000E+00  0.00000000000E+00  0.79848999268E+03  0.79848999268E+03  0.00000000000E+00 0.  1.
          1   -1    0    0  501    0  0.00000000000E+00 -0.00000000000E+00 -0.13642013072E+04  0.13642013072E+04  0.00000000000E+00 0. -1.
         25    2    1    2    0    0 -0.43129834495E+03 -0.33346255194E+03 -0.39061578294E+02  0.56068266425E+03  0.12499482862E+03 0.  0.
          5    1    3    3  502    0 -0.35261910483E+03 -0.21358626792E+03 -0.11450882332E+01  0.41228961685E+03  0.47000000000E+01 0. -1.
         -5    1    1    2    0  503 -0.24363494568E+03 -0.35973224619E+03  0.10443392236E+03  0.44687113338E+03  0.47000000000E+01 0.  1.
          5    1    1    2  503    0  0.67493329063E+03  0.69319479813E+03 -0.63108365858E+03  0.11551375022E+04  0.47000000000E+01 0. -1.
         -5    1    3    3    0  502 -0.78679240123E+02 -0.11987628402E+03 -0.37916490061E+02  0.14839304740E+03  0.47000000000E+01 0. -1.
<mgrwt>
<rscale>  0 0.20873918E+04</rscale>
<asrwt>0</asrwt>
<pdfrwt beam="1">  1        1 0.20987712E+00 0.20873918E+04</pdfrwt>
<pdfrwt beam="2">  1       -1 0.12284461E+00 0.20873918E+04</pdfrwt>
<totfact> 0.43808952E+00</totfact>
</mgrwt>
</event>
<event>
 7    1  0.1050440E-008  0.1263411E+03  0.7546771E-02  0.1242757E+00
         -2   -1    0    0    0  501 -0.00000000000E+00  0.00000000000E+00  0.33828503788E+02  0.33828503788E+02  0.00000000000E+00 0.  1.
          2   -1    0    0  501    0  0.00000000000E+00 -0.00000000000E+00 -0.60346631423E+03  0.60346631423E+03  0.00000000000E+00 0. -1.
         25    2    1    2    0    0  0.18135546201E+02  0.28309846057E+01 -0.11442168319E+03  0.17045349601E+03  0.12500064083E+03 0.  0.
          5    1    1    2  502    0 -0.28440897311E+02 -0.47542911445E+02 -0.20480896308E+03  0.21222161630E+03  0.47000000000E+01 0. -1.
         -5    1    1    2    0  502  0.10305351110E+02  0.44711926840E+02 -0.25040716418E+03  0.25461970571E+03  0.47000000000E+01 0.  1.
          5    1    3    3  503    0  0.51288563763E+02  0.17010775490E+02 -0.12181628708E+03  0.13334609500E+03  0.47000000000E+01 0. -1.
         -5    1    3    3    0  503 -0.33153017562E+02 -0.14179790884E+02  0.73946038867E+01  0.37107401009E+02  0.47000000000E+01 0. -1.
<mgrwt>
<rscale>  0 0.12020658E+03</rscale>
<asrwt>0</asrwt>
<pdfrwt beam="1">  1        2 0.92840975E-01 0.12634110E+03</pdfrwt>
<pdfrwt beam="2">  1       -2 0.52043850E-02 0.12634110E+03</pdfrwt>
<totfact> 0.87945057E+03</totfact>
</mgrwt>
</event>
<event>
 7    1  0.1050440E-008  0.4686682E+03  0.7546771E-02  0.1054516E+00
         -3   -1    0    0    0  501 -0.00000000000E+00  0.00000000000E+00  0.36119330527E+03  0.36119330527E+03  0.00000000000E+00 0. -1.
          3   -1    0    0  501    0  0.00000000000E+00 -0.00000000000E+00 -0.30264153932E+03  0.30264153932E+03  0.00000000000E+00 0.  1.
         25    2    1    2    0    0 -0.10170431771E+03  0.86656564844E+02  0.67648330854E+02  0.19507842103E+03  0.12500466077E+03 0.  0.
          5    1    1    2  502    0 -0.72775306949E+02 -0.12548464276E+03  0.16461499137E+03  0.21946030678E+03  0.47000000000E+01 0. -1.
         -5    1    3    3    0  503 -0.84332012017E+02  0.29378143633E+02  0.93794193851E+02  0.12959322658E+03  0.47000000000E+01 0. -1.
          5    1    3    3  503    0 -0.17372305691E+02  0.57278421211E+02 -0.26145862996E+02  0.65485194459E+02  0.47000000000E+01 0. -1.
         -5    1    1    2    0  502  0.17447962466E+03  0.38828077917E+02 -0.17371155627E+03  0.24929611677E+03  0.47000000000E+01 0.  1.
<mgrwt>
<rscale>  0 0.37046409E+03</rscale>
<asrwt>0</asrwt>
<pdfrwt beam="1">  1        3 0.46560237E-01 0.46866815E+03</pdfrwt>
<pdfrwt beam="2">  1       -3 0.55568201E-01 0.46866815E+03</pdfrwt>
<totfact> 0.38026907E+01</totfact>
</mgrwt>
</event>
<event>
 7    1  0.1050440E-008  0.2630970E+03  0.7546771E-02  0.1107075E+00
          4   -1    0    0  501    0  0.00000000000E+00  0.00000000000E+00  0.18778372093E+03  0.18778372093E+03  0.00000000000E+00 0.  1.
         -4   -1    0    0    0  501 -0.00000000000E+00 -0.00000000000E+00 -0.43497669673E+03  0.43497669673E+03  0.00000000000E+00 0. -1.
         25    2    1    2    0    0 -0.19807709597E+03 -0.91200583794E+02 -0.25699016905E+03  0.35948110280E+03  0.12502253335E+03 0.  0.
          5    1    1    2  502    0  0.13786449558E+03  0.73044504814E+02 -0.61789318101E+02  0.16787533665E+03  0.47000000000E+01 0. -1.
         -5    1    1    2    0  502  0.60212600394E+02  0.18156078980E+02  0.71586511349E+02  0.95403978205E+02  0.47000000000E+01 0.  1.
          5    1    3    3  503    0 -0.13722381750E+03 -0.11127730941E+03 -0.22932729265E+03  0.28952739565E+03  0.47000000000E+01 0.  1.
         -5    1    3    3    0  503 -0.60853278475E+02  0.20076725616E+02 -0.27662876398E+02  0.69953707144E+02  0.47000000000E+01 0.  1.
<mgrwt>
<rscale>  0 0.26011276E+03</rscale>
<asrwt>0</asrwt>
<pdfrwt beam="1">  1        4 0.28889804E-01 0.26309696E+03</pdfrwt>
<pdfrwt beam="2">  1       -4 0.66919490E-01 0.26309696E+03</pdfrwt>
<totfact> 0.43937308E+01</totfact>
</mgrwt>
</event>
<event>
 7    1  0.1050440E-008  0.4718916E+03  0.7546771E-02  0.1021388E+00
          2   -1    0    0  501    0  0.00000000000E+00  0.00000000000E+00  0.23777104056E+04  0.23777104056E+04  0.00000000000E+00 0. -1.
         -2   -1    0    0    0  501 -0.00000000000E+00 -0.00000000000E+00 -0.23413452290E+02  0.23413452290E+02  0.00000000000E+00 0.  1.
         25    2    1    2    0    0 -0.38028056102E+01 -0.14690417736E+03  0.62339797222E+03  0.65256244491E+03  0.12496965267E+03 0.  0.
          5    1    1    2  502    0 -0.64591922903E+02  0.16464517817E+03  0.12069142056E+04  0.12198131582E+04  0.47000000000E+01 0. -1.
         -5    1    3    3    0  503  0.28971510361E+02 -0.14812517699E+03  0.57048873387E+03  0.59013549456E+03  0.47000000000E+01 0.  1.
          5    1    3    3  503    0 -0.32774315971E+02  0.12209996259E+01  0.52909238345E+02  0.62426950347E+02  0.47000000000E+01 0.  1.
         -5    1    1    2    0  502  0.68394728513E+02 -0.17741000803E+02  0.52398477546E+03  0.52874825476E+03  0.47000000000E+01 0.  1.
<mgrwt>
<rscale>  0 0.47189155E+03</rscale>
<asrwt>0</asrwt>
<pdfrwt beam="1">  1        2 0.36580141E+00 0.47189155E+03</pdfrwt>
<pdfrwt beam="2">  1       -2 0.36020715E-02 0.47189155E+03</pdfrwt>
<totfact> 0.14771169E+03</totfact>
</mgrwt>
</event>
<event>
 7    1  0.1050440E-008  0.3514654E+03  0.7546771E-02  0.1062015E+00
          1   -1    0    0  501    0  0.00000000000E+00  0.00000000000E+00  0.14876802685E+04  0.14876802685E+04  0.00000000000E+00 0. -1.
         -1   -1    0    0    0  501 -0.00000000000E+00 -0.00000000000E+00 -0.20758476878E+02  0.20758476878E+02  0.00000000000E+00 0.  1.
         25    2    1    2    0    0 -0.13197977798E+02  0.10319703448E+03  0.50797920984E+03  0.53337815207E+03  0.12500224372E+03 0.  0.
          5    1    1    2  502    0 -0.26939754563E+02 -0.12678559662E+03  0.71602772379E+03  0.72767996339E+03  0.47000000000E+01 0. -1.
         -5    1    3    3    0  503 -0.42938532433E+02  0.61499524455E+02  0.11717992632E+03  0.13920895880E+03  0.47000000000E+01 0.  1.
          5    1    3    3  503    0  0.29740554635E+02  0.41697510026E+02  0.39079928351E+03  0.39416919327E+03  0.47000000000E+01 0.  1.
         -5    1    1    2    0  502  0.40137732360E+02  0.23588562136E+02  0.24291485797E+03  0.24738062989E+03  0.47000000000E+01 0.  1.
<mgrwt>
<rscale>  0 0.35146537E+03</rscale>
<asrwt>0</asrwt>
<pdfrwt beam="1">  1        1 0.22887380E+00 0.35146537E+03</pdfrwt>
<pdfrwt beam="2">  1       -1 0.31936130E-02 0.35146537E+03</pdfrwt>
<totfact> 0.25075239E+03</totfact>
</mgrwt>
</event>
<event>
 7    1  0.1050440E-008  0.1368269E+03  0.7546771E-02  0.1229531E+00
          1   -1    0    0  501    0  0.00000000000E+00  0.00000000000E+00  0.11985269955E+03  0.11985269955E+03  0.00000000000E+00 0. -1.
         -1   -1    0    0    0  501 -0.00000000000E+00 -0.00000000000E+00 -0.17636455041E+03  0.17636455041E+03  0.00000000000E+00 0.  1.
         25    2    1    2    0    0  0.48085438406E+01 -0.55439648156E+02 -0.11111586235E+03  0.17626214671E+03  0.12499973127E+03 0.  0.
          5    1    1    2  502    0  0.36818351958E+02  0.52226526457E+02  0.39702860309E+02  0.75376443425E+02  0.47000000000E+01 0. -1.
         -5    1    3    3    0  503 -0.46955955602E+02 -0.31655939448E+01 -0.57154952308E+01  0.47640735062E+02  0.47000000000E+01 0.  1.
          5    1    3    3  503    0  0.51764499442E+02 -0.52274054211E+02 -0.10540036712E+03  0.12862141165E+03  0.47000000000E+01 0.  1.
         -5    1    1    2    0  502 -0.41626895798E+02  0.32131216992E+01  0.14901151176E+02  0.44578659819E+02  0.47000000000E+01 0.  1.
<mgrwt>
<rscale>  0 0.12861100E+03</rscale>
<asrwt>0</asrwt>
<pdfrwt beam="1">  1        1 0.18438877E-01 0.13682693E+03</pdfrwt>
<pdfrwt beam="2">  1       -1 0.27133008E-01 0.13682693E+03</pdfrwt>
<totfact> 0.33189907E+03</totfact>
</mgrwt>
</event>
<event>
 7    1  0.1050440E-008  0.3223337E+03  0.7546771E-02  0.1074580E+00
         -2   -1    0    0    0  501 -0.00000000000E+00  0.00000000000E+00  0.36434573489E+03  0.36434573489E+03  0.00000000000E+00 0.  1.
          2   -1    0    0  501    0  0.00000000000E+00 -0.00000000000E+00 -0.71291516020E+02  0.71291516020E+02  0.00000000000E+00 0. -1.
         25    2    1    2    0    0  0.10669553816E+02  0.55284020602E+02  0.10907282246E+03  0.17518883364E+03  0.12499633803E+03 0.  0.
          5    1    3    3  502    0  0.17625874666E+02 -0.22781780945E+02  0.89685585072E+02  0.94314766450E+02  0.47000000000E+01 0.  1.
         -5    1    3    3    0  502 -0.69563208500E+01  0.78065801547E+02  0.19387237388E+02  0.80874067194E+02  0.47000000000E+01 0.  1.
          5    1    1    2  503    0 -0.14195227709E+01  0.64032953404E+02  0.72082808257E+02  0.96541469912E+02  0.47000000000E+01 0. -1.
         -5    1    1    2    0  503 -0.92500310451E+01 -0.11931697401E+03  0.11189858815E+03  0.16390694735E+03  0.47000000000E+01 0.  1.
<mgrwt>
<rscale>  0 0.32233374E+03</rscale>
<asrwt>0</asrwt>
<pdfrwt beam="1">  1        2 0.10967926E-01 0.32233374E+03</pdfrwt>
<pdfrwt beam="2">  1       -2 0.56053189E-01 0.32233374E+03</pdfrwt>
<totfact> 0.17440122E+03</totfact>
</mgrwt>
</event>
<event>
 7    1  0.1050440E-008  0.1872294E+03  0.7546771E-02  0.1161760E+00
          2   -1    0    0  501    0  0.00000000000E+00  0.00000000000E+00  0.29850308678E+03  0.29850308678E+03  0.00000000000E+00 0. -1.
         -2   -1    0    0    0  501 -0.00000000000E+00 -0.00000000000E+00 -0.12637770508E+03  0.12637770508E+03  0.00000000000E+00 0.  1.
         25    2    1    2    0    0 -0.45667137710E+02  0.12689996801E+03  0.14811226710E+03  0.23611775466E+03  0.12500104421E+03 0.  0.
          5    1    3    3  502    0  0.21120284604E+02  0.13458795176E+02  0.87466091316E+02  0.91102210289E+02  0.47000000000E+01 0. -1.
         -5    1    3    3    0  502 -0.66787422314E+02  0.11344117283E+03  0.60646175780E+02  0.14501554437E+03  0.47000000000E+01 0. -1.
          5    1    1    2  503    0  0.57273108797E+02 -0.84474593353E+01  0.37120124188E+02  0.68931576076E+02  0.47000000000E+01 0. -1.
         -5    1    1    2    0  503 -0.11605971088E+02 -0.11845250867E+03 -0.13107009583E+02  0.11983146113E+03  0.47000000000E+01 0.  1.
<mgrwt>
<rscale>  0 0.18638811E+03</rscale>
<asrwt>0</asrwt>
<pdfrwt beam="1">  1        2 0.45923552E-01 0.18722942E+03</pdfrwt>
<pdfrwt beam="2">  1       -2 0.19442724E-01 0.18722942E+03</pdfrwt>
<totfact> 0.23898905E+03</totfact>
</mgrwt>
</event>
<event>
 7    1  0.1050440E-008  0.5232174E+03  0.7546771E-02  0.1054189E+00
          2   -1    0    0  501    0  0.00000000000E+00  0.00000000000E+00  0.12708286097E+04  0.12708286097E+04  0.00000000000E+00 0. -1.
         -2   -1    0    0    0  501 -0.00000000000E+00 -0.00000000000E+00 -0.85399245183E+02  0.85399245183E+02  0.00000000000E+00 0.  1.
         25    2    1    2    0    0 -0.41295766706E+02 -0.16926310992E+02  0.29442410896E+03  0.32295791198E+03  0.12499766646E+03 0.  0.
          5    1    3    3  502    0 -0.73156149160E+02 -0.15475435906E+02  0.27565237160E+03  0.28565299096E+03  0.47000000000E+01 0. -1.
         -5    1    1    2    0  503  0.14672251730E+03 -0.18658338370E+03  0.68532152964E+03  0.72527825360E+03  0.47000000000E+01 0.  1.
          5    1    1    2  503    0 -0.10542675059E+03  0.20350969469E+03  0.20568372590E+03  0.30799168929E+03  0.47000000000E+01 0. -1.
         -5    1    3    3    0  502  0.31860382454E+02 -0.14508750859E+01  0.18771737366E+02  0.37304921021E+02  0.47000000000E+01 0. -1.
<mgrwt>
<rscale>  0 0.37132212E+03</rscale>
<asrwt>0</asrwt>
<pdfrwt beam="1">  1        2 0.19551208E+00 0.52321736E+03</pdfrwt>
<pdfrwt beam="2">  1       -2 0.13138346E-01 0.52321736E+03</pdfrwt>
<totfact> 0.76650519E+02</totfact>
</mgrwt>
</event>
<event>
 7    1  0.1050440E-008  0.1351452E+03  0.7546771E-02  0.1247730E+00
         -3   -1    0    0    0  501 -0.00000000000E+00  0.00000000000E+00  0.10701753707E+03  0.10701753707E+03  0.00000000000E+00 0.  1.
          3   -1    0    0  501    0  0.00000000000E+00 -0.00000000000E+00 -0.10531151468E+03  0.10531151468E+03  0.00000000000E+00 0. -1.
         25    2    1    2    0    0 -0.35951317935E+02  0.36658348321E+02 -0.68796130008E+01  0.13532021476E+03  0.12501159821E+03 0.  0.
          5    1    3    3  502    0  0.79480168668E+01 -0.42564509169E+02 -0.95381115530E+01  0.44586701885E+02  0.47000000000E+01 0. -1.
         -5    1    3    3    0  502 -0.43899334802E+02  0.79222857490E+02  0.26584985522E+01  0.90733512880E+02  0.47000000000E+01 0. -1.
          5    1    1    2  503    0  0.36124145787E+02  0.11483349348E+01 -0.45058936171E+01  0.36724183575E+02  0.47000000000E+01 0. -1.
         -5    1    1    2    0  503 -0.17282785170E+00 -0.37806683256E+02  0.13091529004E+02  0.40284653405E+02  0.47000000000E+01 0.  1.
<mgrwt>
<rscale>  0 0.11723483E+03</rscale>
<asrwt>0</asrwt>
<pdfrwt beam="1">  1        3 0.16201771E-01 0.13514522E+03</pdfrwt>
<pdfrwt beam="2">  1       -3 0.16464237E-01 0.13514522E+03</pdfrwt>
<totfact> 0.23473445E+03</totfact>
</mgrwt>
</event>
<event>
 7    1  0.1050440E-008  0.1395416E+03  0.7546771E-02  0.1215005E+00
          1   -1    0    0  501    0  0.00000000000E+00  0.00000000000E+00  0.36370798010E+02  0.36370798010E+02  0.00000000000E+00 0. -1.
         -1   -1    0    0    0  501 -0.00000000000E+00 -0.00000000000E+00 -0.54087146411E+03  0.54087146411E+03  0.00000000000E+00 0.  1.
         25    2    1    2    0    0  0.49190320728E+02  0.23935879655E+02 -0.30113623028E+03  0.33060700679E+03  0.12500139903E+03 0.  0.
          5    1    3    3  502    0  0.67005785248E+02 -0.31189665778E+02 -0.12687227442E+03  0.14690552925E+03  0.47000000000E+01 0.  1.
         -5    1    1    2    0  503 -0.52426064739E+02 -0.73015053139E+02 -0.12631007221E+03  0.15510001480E+03  0.47000000000E+01 0.  1.
          5    1    1    2  503    0  0.32357440112E+01  0.49079173484E+02 -0.77054363612E+02  0.91535240540E+02  0.47000000000E+01 0. -1.
         -5    1    3    3    0  502 -0.17815464520E+02  0.55125545433E+02 -0.17426395587E+03  0.18370147754E+03  0.47000000000E+01 0.  1.
<mgrwt>
<rscale>  0 0.13876159E+03</rscale>
<asrwt>0</asrwt>
<pdfrwt beam="1">  1        1 0.55955080E-02 0.13954159E+03</pdfrwt>
<pdfrwt beam="2">  1       -1 0.83210986E-01 0.13954159E+03</pdfrwt>
<totfact> 0.20779172E+03</totfact>
</mgrwt>
</event>
<event>
 7    1  0.1050440E-008  0.4573639E+03  0.7546771E-02  0.1056267E+00
          2   -1    0    0  501    0  0.00000000000E+00  0.00000000000E+00  0.10782650280E+04  0.10782650280E+04  0.00000000000E+00 0. -1.
         -2   -1    0    0    0  501 -0.00000000000E+00 -0.00000000000E+00 -0.11617754550E+03  0.11617754550E+03  0.00000000000E+00 0.  1.
         25    2    1    2    0    0  0.13952984006E+03 -0.43502441827E+01  0.86032883863E+02  0.20618483217E+03  0.12499210784E+03 0.  0.
          5    1    1    2  502    0 -0.23605219508E+03 -0.12343365007E+03  0.70612381986E+03  0.75471149703E+03  0.47000000000E+01 0. -1.
         -5    1    1    2    0  502  0.96522355016E+02  0.12778389425E+03  0.16993077879E+03  0.23354624430E+03  0.47000000000E+01 0.  1.
          5    1    3    3  503    0  0.13076717668E+03 -0.22435403228E+02  0.11152341490E+03  0.17338674656E+03  0.47000000000E+01 0. -1.
         -5    1    3    3    0  503  0.87626633835E+01  0.18085159045E+02 -0.25490531034E+02  0.32798085610E+02  0.47000000000E+01 0. -1.
<mgrwt>
<rscale>  0 0.36591150E+03</rscale>
<asrwt>0</asrwt>
<pdfrwt beam="1">  1        2 0.16588692E+00 0.45736386E+03</pdfrwt>
<pdfrwt beam="2">  1       -2 0.17873469E-01 0.45736386E+03</pdfrwt>
<totfact> 0.59478652E+02</totfact>
</mgrwt>
</event>
<event>
 7    1  0.1050440E-008  0.4704125E+03  0.7546771E-02  0.1066997E+00
         -2   -1    0    0    0  501 -0.00000000000E+00  0.00000000000E+00  0.56770687063E+02  0.56770687063E+02  0.00000000000E+00 0.  1.
          2   -1    0    0  501    0  0.00000000000E+00 -0.00000000000E+00 -0.23495952038E+04  0.23495952038E+04  0.00000000000E+00 0. -1.
         25    2    1    2    0    0 -0.19746831848E+02 -0.16828288069E+02 -0.95976771564E+02  0.15971772732E+03  0.12500033237E+03 0.  0.
          5    1    3    3  502    0 -0.55625333423E+02 -0.31896993806E+02 -0.97881417754E+01  0.65034557365E+02  0.47000000000E+01 0. -1.
         -5    1    1    2    0  503  0.35468836109E+02 -0.18269418854E+03 -0.17120437987E+04  0.17221356693E+04  0.47000000000E+01 0.  1.
          5    1    1    2  503    0 -0.15722004261E+02  0.19952247661E+03 -0.48480394655E+03  0.52451249430E+03  0.47000000000E+01 0. -1.
         -5    1    3    3    0  502  0.35878501575E+02  0.15068705737E+02 -0.86188629788E+02  0.94683169955E+02  0.47000000000E+01 0. -1.
<mgrwt>
<rscale>  0 0.33952883E+03</rscale>
<asrwt>0</asrwt>
<pdfrwt beam="1">  1        2 0.36147615E+00 0.47041254E+03</pdfrwt>
<pdfrwt beam="2">  1       -2 0.87339527E-02 0.47041254E+03</pdfrwt>
<totfact> 0.38610218E+02</totfact>
</mgrwt>
</event>
<event>
 7    1  0.1050440E-008  0.1495890E+03  0.7546771E-02  0.1206139E+00
         -2   -1    0    0    0  501 -0.00000000000E+00  0.00000000000E+00  0.96211908823E+03  0.96211908823E+03  0.00000000000E+00 0.  1.
          2   -1    0    0  501    0  0.00000000000E+00 -0.00000000000E+00 -0.22027538922E+02  0.22027538922E+02  0.00000000000E+00 0. -1.
         25    2    1    2    0    0  0.37995702679E+02 -0.72861502076E+02  0.38222977962E+03  0.41045885102E+03  0.12499756816E+03 0.  0.
          5    1    1    2  502    0 -0.10595203929E+02  0.88535680469E+02  0.27741630228E+03  0.29143218736E+03  0.47000000000E+01 0. -1.
         -5    1    3    3    0  503 -0.36455130472E+01  0.22282454708E+02  0.19451280699E+03  0.19587526550E+03  0.47000000000E+01 0. -1.
          5    1    3    3  503    0  0.41641215726E+02 -0.95143956784E+02  0.18771697263E+03  0.21458358552E+03  0.47000000000E+01 0. -1.
         -5    1    1    2    0  502 -0.27400498750E+02 -0.15674178393E+02  0.28044546741E+03  0.28225558877E+03  0.47000000000E+01 0.  1.
<mgrwt>
<rscale>  0 0.14548068E+03</rscale>
<asrwt>0</asrwt>
<pdfrwt beam="1">  1        2 0.33888529E-02 0.14958898E+03</pdfrwt>
<pdfrwt beam="2">  1       -2 0.14801829E+00 0.14958898E+03</pdfrwt>
<totfact> 0.84934384E+02</totfact>
</mgrwt>
</event>
<event>
 7    1  0.1050440E-008  0.5475248E+03  0.7546771E-02  0.1002068E+00
         -1   -1    0    0    0  501 -0.00000000000E+00  0.00000000000E+00  0.61313092631E+02  0.61313092631E+02  0.00000000000E+00 0. -1.
          1   -1    0    0  501    0  0.00000000000E+00 -0.00000000000E+00 -0.12223465230E+04  0.12223465230E+04  0.00000000000E+00 0.  1.
         25    2    1    2    0    0 -0.11631823981E+03  0.16690228059E+03 -0.57978717854E+03  0.62702770909E+03  0.12499708555E+03 0.  0.
          5    1    3    3  502    0 -0.10628467845E+03  0.44526699096E+02 -0.30224352792E+03  0.32350007724E+03  0.47000000000E+01 0. -1.
         -5    1    1    2    0  503  0.13527884064E+03 -0.18328273420E+03 -0.58771011086E+03  0.63033180928E+03  0.47000000000E+01 0.  1.
          5    1    1    2  503    0 -0.18960600830E+02  0.16380453616E+02  0.64638589956E+01  0.26300097293E+02  0.47000000000E+01 0. -1.
         -5    1    3    3    0  502 -0.10033561361E+02  0.12237558149E+03 -0.27754365062E+03  0.30352763185E+03  0.47000000000E+01 0. -1.
<mgrwt>
<rscale>  0 0.54752478E+03</rscale>
<asrwt>0</asrwt>
<pdfrwt beam="1">  1        1 0.18805331E+00 0.54752478E+03</pdfrwt>
<pdfrwt beam="2">  1       -1 0.94327835E-02 0.54752478E+03</pdfrwt>
<totfact> 0.72681886E+02</totfact>
</mgrwt>
</event>
<event>
 7    1  0.1050440E-008  0.1490636E+03  0.7546771E-02  0.1205462E+00
         -2   -1    0    0    0  501 -0.00000000000E+00  0.00000000000E+00  0.11711903457E+02  0.11711903457E+02  0.00000000000E+00 0. -1.
          2   -1    0    0  501    0  0.00000000000E+00 -0.00000000000E+00 -0.17700522633E+04  0.17700522633E+04  0.00000000000E+00 0.  1.
         25    2    1    2    0    0 -0.45434240764E+02 -0.33797536670E+02 -0.93912555569E+03  0.94909805452E+03  0.12499505604E+03 0.  0.
          5    1    3    3  502    0 -0.84434538454E+02 -0.44135103928E+02 -0.59757146810E+03  0.60513704908E+03  0.47000000000E+01 0.  1.
         -5    1    3    3    0  502  0.39000297690E+02  0.10337567258E+02 -0.34155408758E+03  0.34396100544E+03  0.47000000000E+01 0.  1.
          5    1    1    2  503    0  0.76170109338E+00  0.74240559020E+02 -0.62100952854E+03  0.62544957057E+03  0.47000000000E+01 0. -1.
         -5    1    1    2    0  503  0.44672539670E+02 -0.40443022350E+02 -0.19820527565E+03  0.20721654170E+03  0.47000000000E+01 0.  1.
<mgrwt>
<rscale>  0 0.14601111E+03</rscale>
<asrwt>0</asrwt>
<pdfrwt beam="1">  1        2 0.27231561E+00 0.14906361E+03</pdfrwt>
<pdfrwt beam="2">  1       -2 0.18018321E-02 0.14906361E+03</pdfrwt>
<totfact> 0.87092250E+03</totfact>
</mgrwt>
</event>
<event>
 7    1  0.1050440E-008  0.3588629E+03  0.7546771E-02  0.1073957E+00
         -2   -1    0    0    0  501 -0.00000000000E+00  0.00000000000E+00  0.55814401575E+02  0.55814401575E+02  0.00000000000E+00 0.  1.
          2   -1    0    0  501    0  0.00000000000E+00 -0.00000000000E+00 -0.16254104954E+04  0.16254104954E+04  0.00000000000E+00 0. -1.
         25    2    1    2    0    0  0.10383639954E+03 -0.17330705907E+03 -0.51280724961E+03  0.56516698226E+03  0.12500043199E+03 0.  0.
          5    1    3    3  502    0  0.38053829793E+02 -0.15891107875E+03 -0.41761412435E+03  0.44846903101E+03  0.47000000000E+01 0. -1.
         -5    1    3    3    0  502  0.65782569746E+02 -0.14395980315E+02 -0.95193125253E+02  0.11669795125E+03  0.47000000000E+01 0. -1.
          5    1    1    2  503    0 -0.13025919259E+03  0.12716629324E+02 -0.80921060971E+03  0.81973963597E+03  0.47000000000E+01 0. -1.
         -5    1    1    2    0  503  0.26422793055E+02  0.16059042974E+03 -0.24757823455E+03  0.29631827878E+03  0.47000000000E+01 0.  1.
<mgrwt>
<rscale>  0 0.32370334E+03</rscale>
<asrwt>0</asrwt>
<pdfrwt beam="1">  1        2 0.25006316E+00 0.35886294E+03</pdfrwt>
<pdfrwt beam="2">  1       -2 0.85868308E-02 0.35886294E+03</pdfrwt>
<totfact> 0.98331798E+02</totfact>
</mgrwt>
</event>
<event>
 7    1  0.1050440E-008  0.6559956E+03  0.7546771E-02  0.9795593E-01
         -2   -1    0    0    0  501 -0.00000000000E+00  0.00000000000E+00  0.99537656915E+02  0.99537656915E+02  0.00000000000E+00 0.  1.
          2   -1    0    0  501    0  0.00000000000E+00 -0.00000000000E+00 -0.10808227484E+04  0.10808227484E+04  0.00000000000E+00 0. -1.
         25    2    1    2    0    0  0.92097167597E+02  0.19251275698E+03 -0.67375922921E+03  0.71771866767E+03  0.12500214835E+03 0.  0.
          5    1    1    2  502    0 -0.14545922152E+03 -0.17631788745E+03 -0.10328227242E+03  0.25086988731E+03  0.47000000000E+01 0. -1.
         -5    1    1    2    0  502  0.53362053927E+02 -0.16194869534E+02 -0.20424358981E+03  0.21177185030E+03  0.47000000000E+01 0.  1.
          5    1    3    3  503    0  0.40452477924E+02  0.15477754985E+03 -0.59500446531E+03  0.61615330612E+03  0.47000000000E+01 0. -1.
         -5    1    3    3    0  503  0.51644689673E+02  0.37735207139E+02 -0.78754763904E+02  0.10156536155E+03  0.47000000000E+01 0. -1.
<mgrwt>
<rscale>  0 0.65599562E+03</rscale>
<asrwt>0</asrwt>
<pdfrwt beam="1">  1        2 0.16628042E+00 0.65599562E+03</pdfrwt>
<pdfrwt beam="2">  1       -2 0.15313486E-01 0.65599562E+03</pdfrwt>
<totfact> 0.76405725E+02</totfact>
</mgrwt>
</event>
<event>
 7    1  0.1050440E-008  0.2063742E+03  0.7546771E-02  0.1161219E+00
         -1   -1    0    0    0  501 -0.00000000000E+00  0.00000000000E+00  0.10453797132E+03  0.10453797132E+03  0.00000000000E+00 0.  1.
          1   -1    0    0  501    0  0.00000000000E+00 -0.00000000000E+00 -0.38939318713E+03  0.38939318713E+03  0.00000000000E+00 0. -1.
         25    2    1    2    0    0  0.85859863991E+01 -0.60278242544E+02 -0.24795954034E+03  0.28428479698E+03  0.12500690565E+03 0.  0.
          5    1    1    2  502    0 -0.35542234144E+02  0.11957580705E+03 -0.62368812602E+02  0.13954777972E+03  0.47000000000E+01 0. -1.
         -5    1    3    3    0  503  0.56395439617E+02 -0.55782319673E+02 -0.20431839005E+03  0.21922638370E+03  0.47000000000E+01 0.  1.
          5    1    3    3  503    0 -0.47809453218E+02 -0.44959228716E+01 -0.43641150296E+02  0.65058413281E+02  0.47000000000E+01 0.  1.
         -5    1    1    2    0  502  0.26956247744E+02 -0.59297564509E+02  0.25473137133E+02  0.70098581759E+02  0.47000000000E+01 0.  1.
<mgrwt>
<rscale>  0 0.18697412E+03</rscale>
<asrwt>0</asrwt>
<pdfrwt beam="1">  1        1 0.59906644E-01 0.20637419E+03</pdfrwt>
<pdfrwt beam="2">  1       -1 0.16082765E-01 0.20637419E+03</pdfrwt>
<totfact> 0.17901042E+03</totfact>
</mgrwt>
</event>
<event>
 7    1  0.1050440E-008  0.6017246E+03  0.7546771E-02  0.9901835E-01
         -1   -1    0    0    0  501 -0.00000000000E+00  0.00000000000E+00  0.31198503905E+02  0.31198503905E+02  0.00000000000E+00 0.  1.
          1   -1    0    0  501    0  0.00000000000E+00 -0.00000000000E+00 -0.29013607887E+04  0.29013607887E+04  0.00000000000E+00 0. -1.
         25    2    1    2    0    0 -0.11255483958E+03 -0.15898523475E+03 -0.56559794549E+03  0.61112365211E+03  0.12500474171E+03 0.  0.
          5    1    1    2  502    0 -0.23872517060E+02 -0.32214229650E+02 -0.21984450782E+03  0.22352035988E+03  0.47000000000E+01 0. -1.
         -5    1    3    3    0  503 -0.13863195559E+03 -0.12574183190E+03 -0.48732477970E+03  0.52205110699E+03  0.47000000000E+01 0. -1.
          5    1    3    3  503    0  0.26077116007E+02 -0.33243402845E+02 -0.78273165790E+02  0.89072545124E+02  0.47000000000E+01 0. -1.
         -5    1    1    2    0  502  0.13642735664E+03  0.19119946440E+03 -0.20847198314E+04  0.20979152806E+04  0.47000000000E+01 0.  1.
<mgrwt>
<rscale>  0 0.60172457E+03</rscale>
<asrwt>0</asrwt>
<pdfrwt beam="1">  1        1 0.44636340E+00 0.60172457E+03</pdfrwt>
<pdfrwt beam="2">  1       -1 0.47997677E-02 0.60172457E+03</pdfrwt>
<totfact> 0.14948265E+02</totfact>
</mgrwt>
</event>
<event>
 7    1  0.1050440E-008  0.1437450E+03  0.7546771E-02  0.1219798E+00
         -2   -1    0    0    0  501 -0.00000000000E+00  0.00000000000E+00  0.42557698575E+02  0.42557698575E+02  0.00000000000E+00 0.  1.
          2   -1    0    0  501    0  0.00000000000E+00 -0.00000000000E+00 -0.58483462185E+03  0.58483462185E+03  0.00000000000E+00 0. -1.
         25    2    1    2    0    0  0.55332781242E+02 -0.44469402701E+02 -0.47445445890E+03  0.49575160718E+03  0.12499351183E+03 0.  0.
          5    1    1    2  502    0 -0.76501536887E+02  0.47468844688E+02 -0.60435852846E+02  0.10853736072E+03  0.47000000000E+01 0. -1.
         -5    1    3    3    0  503  0.68386670058E+02 -0.80087957733E+02 -0.35628766511E+03  0.37155592840E+03  0.47000000000E+01 0. -1.
          5    1    3    3  503    0 -0.13053888815E+02  0.35618555033E+02 -0.11816679379E+03  0.12419567879E+03  0.47000000000E+01 0. -1.
         -5    1    1    2    0  502  0.21168755644E+02 -0.29994419877E+01 -0.73866115258E+01  0.23103352519E+02  0.47000000000E+01 0.  1.
<mgrwt>
<rscale>  0 0.13529928E+03</rscale>
<asrwt>0</asrwt>
<pdfrwt beam="1">  1        2 0.89974555E-01 0.14374499E+03</pdfrwt>
<pdfrwt beam="2">  1       -2 0.65473384E-02 0.14374499E+03</pdfrwt>
<totfact> 0.64874916E+03</totfact>
</mgrwt>
</event>
<event>
 7    1  0.1050440E-008  0.8796814E+03  0.7546771E-02  0.9451343E-01
          2   -1    0    0  501    0  0.00000000000E+00  0.00000000000E+00  0.68025201833E+03  0.68025201833E+03  0.00000000000E+00 0. -1.
         -2   -1    0    0    0  501 -0.00000000000E+00 -0.00000000000E+00 -0.28439439681E+03  0.28439439681E+03  0.00000000000E+00 0.  1.
         25    2    1    2    0    0  0.72376200684E+02 -0.17628958119E+03  0.18951151696E+03  0.29640568738E+03  0.12500154236E+03 0.  0.
          5    1    1    2  502    0  0.21654151551E+03 -0.96246524802E+02  0.98406647807E+02  0.25663121363E+03  0.47000000000E+01 0. -1.
         -5    1    3    3    0  503  0.53656840780E+02 -0.19139473957E+03  0.18480027849E+03  0.27144840362E+03  0.47000000000E+01 0.  1.
          5    1    3    3  503    0  0.18719359905E+02  0.15105158383E+02  0.47112384708E+01  0.24957283765E+02  0.47000000000E+01 0.  1.
         -5    1    1    2    0  502 -0.28891771619E+03  0.27253610599E+03  0.10793945676E+03  0.41160951413E+03  0.47000000000E+01 0.  1.
<mgrwt>
<rscale>  0 0.87968145E+03</rscale>
<asrwt>0</asrwt>
<pdfrwt beam="1">  1        2 0.10465416E+00 0.87968145E+03</pdfrwt>
<pdfrwt beam="2">  1       -2 0.43752984E-01 0.87968145E+03</pdfrwt>
<totfact> 0.21118743E+02</totfact>
</mgrwt>
</event>
<event>
 7    1  0.1050440E-008  0.2732711E+03  0.7546771E-02  0.1114279E+00
         -1   -1    0    0    0  501 -0.00000000000E+00  0.00000000000E+00  0.19091570695E+03  0.19091570695E+03  0.00000000000E+00 0.  1.
          1   -1    0    0  501    0  0.00000000000E+00 -0.00000000000E+00 -0.27954514963E+03  0.27954514963E+03  0.00000000000E+00 0. -1.
         25    2    1    2    0    0 -0.10262456244E+03  0.93388494331E+02 -0.57571274808E+02  0.19543047334E+03  0.12500162615E+03 0.  0.
          5    1    3    3  502    0 -0.10766182287E+03  0.17430810291E+02 -0.45251983390E+02  0.11817247248E+03  0.47000000000E+01 0.  1.
         -5    1    3    3    0  502  0.50372604270E+01  0.75957684039E+02 -0.12319291418E+02  0.77258000869E+02  0.47000000000E+01 0.  1.
          5    1    1    2  503    0  0.12187067013E+03  0.46886333570E+02 -0.35134410904E+01  0.13071045399E+03  0.47000000000E+01 0.  1.
         -5    1    1    2    0  503 -0.19246107692E+02 -0.14027482790E+03 -0.27544726787E+02  0.14431992925E+03  0.47000000000E+01 0.  1.
<mgrwt>
<rscale>  0 0.24846499E+03</rscale>
<asrwt>0</asrwt>
<pdfrwt beam="1">  1        1 0.43006946E-01 0.27327111E+03</pdfrwt>
<pdfrwt beam="2">  1       -1 0.29371647E-01 0.27327111E+03</pdfrwt>
<totfact> 0.10167410E+03</totfact>
</mgrwt>
</event>
<event>
 7    1  0.1050440E-008  0.4134017E+03  0.7546771E-02  0.1056566E+00
         -2   -1    0    0    0  501 -0.00000000000E+00  0.00000000000E+00  0.14816059832E+03  0.14816059832E+03  0.00000000000E+00 0.  1.
          2   -1    0    0  501    0  0.00000000000E+00 -0.00000000000E+00 -0.90964706819E+03  0.90964706819E+03  0.00000000000E+00 0. -1.
         25    2    1    2    0    0  0.20601395050E+03  0.72395603722E+02 -0.52342579014E+03  0.58076068144E+03  0.12500216034E+03 0.  0.
          5    1    3    3  502    0  0.15422094782E+03  0.92967595398E+02 -0.47032132039E+03  0.50363807338E+03  0.47000000000E+01 0.  1.
         -5    1    1    2    0  503 -0.51992658333E+02 -0.15862342910E+03  0.15881811052E+02  0.16774668611E+03  0.47000000000E+01 0.  1.
          5    1    1    2  503    0 -0.15402129217E+03  0.86227825378E+02 -0.25394249078E+03  0.30930029895E+03  0.47000000000E+01 0. -1.
         -5    1    3    3    0  502  0.51793002675E+02 -0.20571991676E+02 -0.53104469749E+02  0.77122608066E+02  0.47000000000E+01 0.  1.
<mgrwt>
<rscale>  0 0.36514205E+03</rscale>
<asrwt>0</asrwt>
<pdfrwt beam="1">  1        2 0.13994571E+00 0.41340167E+03</pdfrwt>
<pdfrwt beam="2">  1       -2 0.22793938E-01 0.41340167E+03</pdfrwt>
<totfact> 0.49911033E+02</totfact>
</mgrwt>
</event>
<event>
 7    1  0.1050440E-008  0.1276837E+03  0.7546771E-02  0.1280666E+00
          1   -1    0    0  501    0  0.00000000000E+00  0.00000000000E+00  0.38311441157E+03  0.38311441157E+03  0.00000000000E+00 0. -1.
         -1   -1    0    0    0  501 -0.00000000000E+00 -0.00000000000E+00 -0.21177729371E+02  0.21177729371E+02  0.00000000000E+00 0.  1.
         25    2    1    2    0    0 -0.25268635361E+02 -0.62388195320E+01  0.30056790924E+03  0.32656422665E+03  0.12500279699E+03 0.  0.
          5    1    1    2  502    0  0.14060244402E+02 -0.15965661017E+02  0.22307787894E+02  0.31182049405E+02  0.47000000000E+01 0. -1.
         -5    1    3    3    0  503  0.19708832354E+02 -0.43235472814E+02  0.23020781600E+03  0.23510736426E+03  0.47000000000E+01 0.  1.
          5    1    3    3  503    0 -0.44977467715E+02  0.36996653282E+02  0.70360093248E+02  0.91456862388E+02  0.47000000000E+01 0.  1.
         -5    1    1    2    0  502  0.11208390959E+02  0.22204480549E+02  0.39060985057E+02  0.46545864886E+02  0.47000000000E+01 0.  1.
<mgrwt>
<rscale>  0 0.99824293E+02</rscale>
<asrwt>0</asrwt>
<pdfrwt beam="1">  1        1 0.58940674E-01 0.12768370E+03</pdfrwt>
<pdfrwt beam="2">  1       -1 0.32581125E-02 0.12768370E+03</pdfrwt>
<totfact> 0.19928951E+04</totfact>
</mgrwt>
</event>
<event>
 7    1  0.1050440E-008  0.1842374E+03  0.7546771E-02  0.1171642E+00
          3   -1    0    0  501    0  0.00000000000E+00  0.00000000000E+00  0.11998275442E+03  0.11998275442E+03  0.00000000000E+00 0. -1.
         -3   -1    0    0    0  501 -0.00000000000E+00 -0.00000000000E+00 -0.26204505935E+03  0.26204505935E+03  0.00000000000E+00 0.  1.
         25    2    1    2    0    0 -0.84197098633E+02 -0.10597379838E+03 -0.19227604083E+02  0.18523805270E+03  0.12499535211E+03 0.  0.
          5    1    1    2  502    0  0.27578619566E+02  0.64327870465E+02 -0.21485714562E+02  0.73364712948E+02  0.47000000000E+01 0. -1.
         -5    1    1    2    0  502  0.56618479066E+02  0.41645927911E+02 -0.10134898628E+03  0.12342504812E+03  0.47000000000E+01 0.  1.
          5    1    3    3  503    0 -0.44185174232E+01 -0.99338685228E+02 -0.30826674481E+02  0.10421166700E+03  0.47000000000E+01 0.  1.
         -5    1    3    3    0  503 -0.79778581210E+02 -0.66351131471E+01  0.11599070397E+02  0.81026385705E+02  0.47000000000E+01 0.  1.
<mgrwt>
<rscale>  0 0.17608989E+03</rscale>
<asrwt>0</asrwt>
<pdfrwt beam="1">  1        3 0.18458885E-01 0.18423744E+03</pdfrwt>
<pdfrwt beam="2">  1       -3 0.40314624E-01 0.18423744E+03</pdfrwt>
<totfact> 0.38246620E+02</totfact>
</mgrwt>
</event>
<event>
 7    1  0.1050440E-008  0.5166665E+03  0.7546771E-02  0.1022661E+00
         -2   -1    0    0    0  501 -0.00000000000E+00  0.00000000000E+00  0.11556913230E+03  0.11556913230E+03  0.00000000000E+00 0.  1.
          2   -1    0    0  501    0  0.00000000000E+00 -0.00000000000E+00 -0.18579880789E+04  0.18579880789E+04  0.00000000000E+00 0. -1.
         25    2    1    2    0    0 -0.68646724655E+01  0.32255417003E+03 -0.10763320312E+04  0.11305767576E+04  0.12499938822E+03 0.  0.
          5    1    1    2  502    0  0.18442402774E+03 -0.19269823062E+03 -0.50208504912E+03  0.56855634430E+03  0.47000000000E+01 0. -1.
         -5    1    3    3    0  503 -0.73761872027E+01  0.26068707221E+03 -0.66043024181E+03  0.71007207526E+03  0.47000000000E+01 0.  1.
          5    1    3    3  503    0  0.51151473725E+00  0.61867097817E+02 -0.41590178937E+03  0.42050468231E+03  0.47000000000E+01 0.  1.
         -5    1    1    2    0  502 -0.17755935528E+03 -0.12985593941E+03 -0.16400186633E+03  0.27442410937E+03  0.47000000000E+01 0.  1.
<mgrwt>
<rscale>  0 0.46738574E+03</rscale>
<asrwt>0</asrwt>
<pdfrwt beam="1">  1        2 0.28584428E+00 0.51666649E+03</pdfrwt>
<pdfrwt beam="2">  1       -2 0.17779869E-01 0.51666649E+03</pdfrwt>
<totfact> 0.21928906E+02</totfact>
</mgrwt>
</event>
<event>
 7    1  0.1050440E-008  0.1392672E+03  0.7546771E-02  0.1243386E+00
         -3   -1    0    0    0  501 -0.00000000000E+00  0.00000000000E+00  0.17395522617E+03  0.17395522617E+03  0.00000000000E+00 0.  1.
          3   -1    0    0  501    0  0.00000000000E+00 -0.00000000000E+00 -0.67843098067E+02  0.67843098067E+02  0.00000000000E+00 0. -1.
         25    2    1    2    0    0 -0.49996779399E+02 -0.35645144982E+02  0.82684778939E+02  0.16196337487E+03  0.12500043128E+03 0.  0.
          5    1    3    3  502    0 -0.50641135284E+02 -0.68594733622E+02  0.93818805217E+02  0.12686142154E+03  0.47000000000E+01 0.  1.
         -5    1    1    2    0  503  0.29693147750E+02 -0.50870587532E+01  0.76290996286E+01  0.31430150353E+02  0.47000000000E+01 0.  1.
          5    1    1    2  503    0  0.20303631649E+02  0.40732203735E+02  0.15798249533E+02  0.48404799014E+02  0.47000000000E+01 0. -1.
         -5    1    3    3    0  502  0.64435588509E+00  0.32949588640E+02 -0.11134026278E+02  0.35101953325E+02  0.47000000000E+01 0.  1.
<mgrwt>
<rscale>  0 0.11982478E+03</rscale>
<asrwt>0</asrwt>
<pdfrwt beam="1">  1        3 0.10437400E-01 0.13926723E+03</pdfrwt>
<pdfrwt beam="2">  1       -3 0.26762342E-01 0.13926723E+03</pdfrwt>
<totfact> 0.20971194E+03</totfact>
</mgrwt>
</event>
<event>
 7    1  0.1050440E-008  0.5942861E+03  0.7546771E-02  0.9917332E-01
         -2   -1    0    0    0  501 -0.00000000000E+00  0.00000000000E+00  0.18479674712E+03  0.18479674712E+03  0.00000000000E+00 0.  1.
          2   -1    0    0  501    0  0.00000000000E+00 -0.00000000000E+00 -0.47778979070E+03  0.47778979070E+03  0.00000000000E+00 0. -1.
         25    2    1    2    0    0  0.89398304814E+02 -0.15300215937E+03 -0.27011639550E+03  0.34638968030E+03  0.12498490239E+03 0.  0.
          5    1    1    2  502    0 -0.17309542213E+03  0.13340278058E+03  0.20958238433E+02  0.21958976476E+03  0.47000000000E+01 0. -1.
         -5    1    1    2    0  502  0.83697117318E+02  0.19599378790E+02 -0.43834886507E+02  0.96607092760E+02  0.47000000000E+01 0.  1.
          5    1    3    3  503    0  0.21658518475E+02  0.11799965235E+02 -0.88204831643E+02  0.91708848686E+02  0.47000000000E+01 0.  1.
         -5    1    3    3    0  503  0.67739786339E+02 -0.16480212460E+03 -0.18191156386E+03  0.25468083161E+03  0.47000000000E+01 0.  1.
<mgrwt>
<rscale>  0 0.59428612E+03</rscale>
<asrwt>0</asrwt>
<pdfrwt beam="1">  1        2 0.73506120E-01 0.59428612E+03</pdfrwt>
<pdfrwt beam="2">  1       -2 0.28430269E-01 0.59428612E+03</pdfrwt>
<totfact> 0.73914326E+02</totfact>
</mgrwt>
</event>
<event>
 7    1  0.1050440E-008  0.1839319E+03  0.7546771E-02  0.1174933E+00
         -2   -1    0    0    0  501 -0.00000000000E+00  0.00000000000E+00  0.49935040385E+02  0.49935040385E+02  0.00000000000E+00 0.  1.
          2   -1    0    0  501    0  0.00000000000E+00 -0.00000000000E+00 -0.55143980845E+03  0.55143980845E+03  0.00000000000E+00 0. -1.
         25    2    1    2    0    0 -0.39304141090E+02  0.12909044780E+03 -0.33037751637E+03  0.37812726634E+03  0.12498706736E+03 0.  0.
          5    1    1    2  502    0 -0.35135574759E+01 -0.24931511794E+02 -0.12101365181E+02  0.28327696795E+02  0.47000000000E+01 0. -1.
         -5    1    3    3    0  503 -0.22777860207E+02  0.14583760833E+03 -0.21863968731E+03  0.26384245637E+03  0.47000000000E+01 0. -1.
          5    1    3    3  503    0 -0.16526280882E+02 -0.16747160532E+02 -0.11173782906E+03  0.11428480997E+03  0.47000000000E+01 0. -1.
         -5    1    1    2    0  502  0.42817698566E+02 -0.10415893600E+03 -0.15902588651E+03  0.19491988570E+03  0.47000000000E+01 0.  1.
<mgrwt>
<rscale>  0 0.17282527E+03</rscale>
<asrwt>0</asrwt>
<pdfrwt beam="1">  1        2 0.84836897E-01 0.18393185E+03</pdfrwt>
<pdfrwt beam="2">  1       -2 0.76823136E-02 0.18393185E+03</pdfrwt>
<totfact> 0.54892109E+03</totfact>
</mgrwt>
</event>
<event>
 7    1  0.1050440E-008  0.2059467E+03  0.7546771E-02  0.1148798E+00
         -1   -1    0    0    0  501 -0.00000000000E+00  0.00000000000E+00  0.21556189388E+03  0.21556189388E+03  0.00000000000E+00 0.  1.
          1   -1    0    0  501    0  0.00000000000E+00 -0.00000000000E+00 -0.20026903228E+03  0.20026903228E+03  0.00000000000E+00 0. -1.
         25    2    1    2    0    0 -0.15986172577E+03 -0.35105860394E+02  0.75092195796E+02  0.21920971295E+03  0.12500347028E+03 0.  0.
          5    1    3    3  502    0 -0.65829166738E+02  0.79248153096E+01  0.92839442745E+02  0.11418202144E+03  0.47000000000E+01 0. -1.
         -5    1    1    2    0  503  0.83526851821E+02 -0.52987826398E+01  0.11389356856E+02  0.84596805626E+02  0.47000000000E+01 0.  1.
          5    1    1    2  503    0  0.76334873949E+02  0.40404643034E+02 -0.71188691060E+02  0.11202440758E+03  0.47000000000E+01 0. -1.
         -5    1    3    3    0  502 -0.94032559031E+02 -0.43030675704E+02 -0.17747246949E+02  0.10502769151E+03  0.47000000000E+01 0. -1.
<mgrwt>
<rscale>  0 0.20111976E+03</rscale>
<asrwt>0</asrwt>
<pdfrwt beam="1">  1        1 0.30810621E-01 0.20594674E+03</pdfrwt>
<pdfrwt beam="2">  1       -1 0.33163368E-01 0.20594674E+03</pdfrwt>
<totfact> 0.12519903E+03</totfact>
</mgrwt>
</event>
<event>
 7    1  0.1050440E-008  0.1617925E+03  0.7546771E-02  0.1191890E+00
          1   -1    0    0  501    0  0.00000000000E+00  0.00000000000E+00  0.40670028972E+02  0.40670028972E+02  0.00000000000E+00 0. -1.
         -1   -1    0    0    0  501 -0.00000000000E+00 -0.00000000000E+00 -0.57657654645E+03  0.57657654645E+03  0.00000000000E+00 0.  1.
         25    2    1    2    0    0  0.99131197559E+02 -0.26956628942E+02 -0.27048905626E+03  0.31518429672E+03  0.12499262845E+03 0.  0.
          5    1    3    3  502    0  0.36991517612E+02  0.10619381908E+01 -0.11584356434E+01  0.37322005052E+02  0.47000000000E+01 0.  1.
         -5    1    1    2    0  503 -0.21471975810E+02  0.32606595530E+02 -0.19155283574E+02  0.43740721371E+02  0.47000000000E+01 0. -1.
          5    1    1    2  503    0 -0.77659221749E+02 -0.56499665886E+01 -0.24626217764E+03  0.25832155733E+03  0.47000000000E+01 0.  1.
         -5    1    3    3    0  502  0.62139679947E+02 -0.28018567132E+02 -0.26933062062E+03  0.27786229167E+03  0.47000000000E+01 0.  1.
<mgrwt>
<rscale>  0 0.15720420E+03</rscale>
<asrwt>0</asrwt>
<pdfrwt beam="1">  1        1 0.62569278E-02 0.16179249E+03</pdfrwt>
<pdfrwt beam="2">  1       -1 0.88704080E-01 0.16179249E+03</pdfrwt>
<totfact> 0.15702518E+03</totfact>
</mgrwt>
</event>
<event>
 7    1  0.1050440E-008  0.5724913E+03  0.7546771E-02  0.1032157E+00
          1   -1    0    0  501    0  0.00000000000E+00  0.00000000000E+00  0.89214987059E+03  0.89214987059E+03  0.00000000000E+00 0. -1.
         -1   -1    0    0    0  501 -0.00000000000E+00 -0.00000000000E+00 -0.16478640106E+03  0.16478640106E+03  0.00000000000E+00 0.  1.
         25    2    1    2    0    0  0.37553730891E+02 -0.14026015606E+03  0.14478299775E+03  0.24014605631E+03  0.12499927136E+03 0.  0.
          5    1    1    2  502    0 -0.20424229819E+03 -0.39598751201E+02  0.52516390580E+03  0.56489131293E+03  0.47000000000E+01 0. -1.
         -5    1    3    3    0  503  0.24479917978E+02 -0.20044548068E+02 -0.18466048221E+02  0.36934201337E+02  0.47000000000E+01 0.  1.
          5    1    3    3  503    0  0.13073812913E+02 -0.12021560800E+03  0.16324904597E+03  0.20321185497E+03  0.47000000000E+01 0.  1.
         -5    1    1    2    0  502  0.16668856730E+03  0.17985890726E+03  0.57416565969E+02  0.25189890241E+03  0.47000000000E+01 0.  1.
<mgrwt>
<rscale>  0 0.43543342E+03</rscale>
<asrwt>0</asrwt>
<pdfrwt beam="1">  1        1 0.13725382E+00 0.57249127E+03</pdfrwt>
<pdfrwt beam="2">  1       -1 0.25351754E-01 0.57249127E+03</pdfrwt>
<totfact> 0.25820382E+02</totfact>
</mgrwt>
</event>
<event>
 7    1  0.1050440E-008  0.4797167E+03  0.7546771E-02  0.1019213E+00
          2   -1    0    0  501    0  0.00000000000E+00  0.00000000000E+00  0.14177860127E+03  0.14177860127E+03  0.00000000000E+00 0. -1.
         -2   -1    0    0    0  501 -0.00000000000E+00 -0.00000000000E+00 -0.40578777370E+03  0.40578777370E+03  0.00000000000E+00 0.  1.
         25    2    1    2    0    0 -0.14721748205E+03 -0.45540425102E+02 -0.25338257066E+03  0.32183124686E+03  0.12500282795E+03 0.  0.
          5    1    3    3  502    0 -0.88448588851E+02 -0.16214090460E+01 -0.22708409080E+03  0.24375203821E+03  0.47000000000E+01 0. -1.
         -5    1    1    2    0  503  0.88902413929E+01  0.53917059088E+02 -0.57407080461E+02  0.79396149401E+02  0.47000000000E+01 0.  1.
          5    1    1    2  503    0  0.13832724066E+03 -0.83766339855E+01  0.46780478688E+02  0.14633897872E+03  0.47000000000E+01 0. -1.
         -5    1    3    3    0  502 -0.58768893202E+02 -0.43919016056E+02 -0.26298479861E+02  0.78079208644E+02  0.47000000000E+01 0. -1.
<mgrwt>
<rscale>  0 0.47971668E+03</rscale>
<asrwt>0</asrwt>
<pdfrwt beam="1">  1        2 0.21812093E-01 0.47971668E+03</pdfrwt>
<pdfrwt beam="2">  1       -2 0.62428888E-01 0.47971668E+03</pdfrwt>
<totfact> 0.61510248E+02</totfact>
</mgrwt>
</event>
<event>
 7    1  0.1050440E-008  0.6033080E+03  0.7546771E-02  0.1000620E+00
          1   -1    0    0  501    0  0.00000000000E+00  0.00000000000E+00  0.73644526094E+03  0.73644526094E+03  0.00000000000E+00 0. -1.
         -1   -1    0    0    0  501 -0.00000000000E+00 -0.00000000000E+00 -0.36412130599E+03  0.36412130599E+03  0.00000000000E+00 0.  1.
         25    2    1    2    0    0 -0.26512984610E+03  0.31231562860E+03  0.10696482757E+03  0.44147930473E+03  0.12501045957E+03 0.  0.
          5    1    1    2  502    0  0.18070912517E+02 -0.32780982040E+03  0.52369379930E+02  0.33249132047E+03  0.47000000000E+01 0. -1.
         -5    1    3    3    0  503 -0.86675035538E+02  0.19703715152E+03  0.64631738599E+02  0.22480113990E+03  0.47000000000E+01 0. -1.
          5    1    3    3  503    0 -0.17845481057E+03  0.11527847708E+03  0.42333088973E+02  0.21667816483E+03  0.47000000000E+01 0. -1.
         -5    1    1    2    0  502  0.24705893359E+03  0.15494191801E+02  0.21298974745E+03  0.32659594174E+03  0.47000000000E+01 0.  1.
<mgrwt>
<rscale>  0 0.55379334E+03</rscale>
<asrwt>0</asrwt>
<pdfrwt beam="1">  1        1 0.11329927E+00 0.60330801E+03</pdfrwt>
<pdfrwt beam="2">  1       -1 0.56018663E-01 0.60330801E+03</pdfrwt>
<totfact> 0.83891021E+01</totfact>
</mgrwt>
</event>
<event>
 7    1  0.1050440E-008  0.1404118E+03  0.7546771E-02  0.1239754E+00
         -4   -1    0    0    0  501 -0.00000000000E+00  0.00000000000E+00  0.21349458237E+03  0.21349458237E+03  0.00000000000E+00 0.  1.
          4   -1    0    0  501    0  0.00000000000E+00 -0.00000000000E+00 -0.58631825554E+02  0.58631825554E+02  0.00000000000E+00 0. -1.
         25    2    1    2    0    0 -0.55605624418E+02  0.31592747516E+02  0.75911596980E+02  0.15961841098E+03  0.12500151761E+03 0.  0.
          5    1    1    2  502    0  0.52930097459E+02 -0.63404927384E+01  0.45467964266E+02  0.70222666140E+02  0.47000000000E+01 0. -1.
         -5    1    3    3    0  503  0.12026495886E+02  0.55275197064E+02  0.66117080812E+02  0.87140934060E+02  0.47000000000E+01 0.  1.
          5    1    3    3  503    0 -0.67632120304E+02 -0.23682449548E+02  0.97945161680E+01  0.72477476918E+02  0.47000000000E+01 0.  1.
         -5    1    1    2    0  502  0.26755269587E+01 -0.25252254777E+02  0.33483195565E+02  0.42285330803E+02  0.47000000000E+01 0.  1.
<mgrwt>
<rscale>  0 0.12204916E+03</rscale>
<asrwt>0</asrwt>
<pdfrwt beam="1">  1        4 0.90202809E-02 0.14041178E+03</pdfrwt>
<pdfrwt beam="2">  1       -4 0.32845320E-01 0.14041178E+03</pdfrwt>
<totfact> 0.13401299E+03</totfact>
</mgrwt>
</event>
<event>
 7    1  0.1050440E-008  0.1443157E+03  0.7546771E-02  0.1228601E+00
          1   -1    0    0  501    0  0.00000000000E+00  0.00000000000E+00  0.11140682588E+04  0.11140682588E+04  0.00000000000E+00 0. -1.
         -1   -1    0    0    0  501 -0.00000000000E+00 -0.00000000000E+00 -0.12821282269E+02  0.12821282269E+02  0.00000000000E+00 0.  1.
         25    2    1    2    0    0  0.71921954554E+02 -0.54283724476E+01  0.73791200853E+03  0.75189171309E+03  0.12499912440E+03 0.  0.
          5    1    3    3  502    0  0.73619810655E+02 -0.47959056920E+02  0.62442770470E+03  0.63059653984E+03  0.47000000000E+01 0. -1.
         -5    1    1    2    0  503 -0.46802439415E+02 -0.12392546654E+02  0.11712223576E+03  0.12682173180E+03  0.47000000000E+01 0.  1.
          5    1    1    2  503    0 -0.25119515139E+02  0.17820919102E+02  0.24621273219E+03  0.24817609613E+03  0.47000000000E+01 0. -1.
         -5    1    3    3    0  502 -0.16978561012E+01  0.42530684473E+02  0.11348430384E+03  0.12129517325E+03  0.47000000000E+01 0. -1.
<mgrwt>
<rscale>  0 0.12923118E+03</rscale>
<asrwt>0</asrwt>
<pdfrwt beam="1">  1        1 0.17139504E+00 0.14431568E+03</pdfrwt>
<pdfrwt beam="2">  1       -1 0.19725058E-02 0.14431568E+03</pdfrwt>
<totfact> 0.89600021E+03</totfact>
</mgrwt>
</event>
<event>
 7    1  0.1050440E-008  0.3298711E+03  0.7546771E-02  0.1095896E+00
         -1   -1    0    0    0  501 -0.00000000000E+00  0.00000000000E+00  0.25985176432E+03  0.25985176432E+03  0.00000000000E+00 0.  1.
          1   -1    0    0  501    0  0.00000000000E+00 -0.00000000000E+00 -0.24125018882E+03  0.24125018882E+03  0.00000000000E+00 0. -1.
         25    2    1    2    0    0 -0.40767841928E+02 -0.10825818244E+03  0.17679720963E+02  0.17122957528E+03  0.12500057567E+03 0.  0.
          5    1    3    3  502    0 -0.56082341091E+02 -0.57958367853E+02 -0.42412801974E+02  0.91243285548E+02  0.47000000000E+01 0. -1.
         -5    1    1    2    0  503 -0.12596397855E+03  0.28691172267E+02  0.50088316818E+02  0.13863995362E+03  0.47000000000E+01 0.  1.
          5    1    1    2  503    0  0.16673182048E+03  0.79567010172E+02 -0.49166462275E+02  0.19123242424E+03  0.47000000000E+01 0. -1.
         -5    1    3    3    0  502  0.15314499163E+02 -0.50299814587E+02  0.60092522937E+02  0.79986289732E+02  0.47000000000E+01 0. -1.
<mgrwt>
<rscale>  0 0.27962180E+03</rscale>
<asrwt>0</asrwt>
<pdfrwt beam="1">  1        1 0.37115413E-01 0.32987109E+03</pdfrwt>
<pdfrwt beam="2">  1       -1 0.39977195E-01 0.32987109E+03</pdfrwt>
<totfact> 0.71605311E+02</totfact>
</mgrwt>
</event>
<event>
 7    1  0.1050440E-008  0.3950451E+03  0.7546771E-02  0.1054203E+00
          2   -1    0    0  501    0  0.00000000000E+00  0.00000000000E+00  0.17309808360E+04  0.17309808360E+04  0.00000000000E+00 0. -1.
         -2   -1    0    0    0  501 -0.00000000000E+00 -0.00000000000E+00 -0.80230298472E+02  0.80230298472E+02  0.00000000000E+00 0.  1.
         25    2    1    2    0    0  0.28022968970E+03 -0.29304838240E+02  0.43686557841E+03  0.53466214272E+03  0.12499848290E+03 0.  0.
          5    1    3    3  502    0  0.18364944092E+03 -0.18373563371E+02  0.37866094887E+03  0.42127296279E+03  0.47000000000E+01 0. -1.
         -5    1    3    3    0  502  0.96580248783E+02 -0.10931274869E+02  0.58204629539E+02  0.11338917993E+03  0.47000000000E+01 0. -1.
          5    1    1    2  503    0 -0.16036699490E+03 -0.32844620940E+02  0.10565670964E+04  0.10691830813E+04  0.47000000000E+01 0. -1.
         -5    1    1    2    0  503 -0.11986269480E+03  0.62149459179E+02  0.15731786272E+03  0.20736591044E+03  0.47000000000E+01 0.  1.
<mgrwt>
<rscale>  0 0.37128496E+03</rscale>
<asrwt>0</asrwt>
<pdfrwt beam="1">  1        2 0.26630472E+00 0.39504510E+03</pdfrwt>
<pdfrwt beam="2">  1       -2 0.12343124E-01 0.39504510E+03</pdfrwt>
<totfact> 0.47945903E+02</totfact>
</mgrwt>
</event>
<event>
 7    1  0.1050440E-008  0.1346240E+03  0.7546771E-02  0.1222976E+00
          1   -1    0    0  501    0  0.00000000000E+00  0.00000000000E+00  0.20964942514E+03  0.20964942514E+03  0.00000000000E+00 0. -1.
         -1   -1    0    0    0  501 -0.00000000000E+00 -0.00000000000E+00 -0.13436590245E+03  0.13436590245E+03  0.00000000000E+00 0.  1.
         25    2    1    2    0    0  0.13582900099E+02  0.48090478404E+02  0.14496817555E+03  0.19783679381E+03  0.12500574297E+03 0.  0.
          5    1    3    3  502    0  0.48370472766E+02  0.39751272695E+00  0.88559315980E+01  0.49400183972E+02  0.47000000000E+01 0.  1.
         -5    1    3    3    0  502 -0.34787572667E+02  0.47692965677E+02  0.13611224395E+03  0.14843660984E+03  0.47000000000E+01 0.  1.
          5    1    1    2  503    0 -0.87945432526E+01 -0.81006928564E+02 -0.16494713515E+02  0.83268433636E+02  0.47000000000E+01 0. -1.
         -5    1    1    2    0  503 -0.47883568463E+01  0.32916450159E+02 -0.53189939347E+02  0.62910100143E+02  0.47000000000E+01 0.  1.
<mgrwt>
<rscale>  0 0.13306614E+03</rscale>
<asrwt>0</asrwt>
<pdfrwt beam="1">  1        1 0.32253758E-01 0.13462401E+03</pdfrwt>
<pdfrwt beam="2">  1       -1 0.20671677E-01 0.13462401E+03</pdfrwt>
<totfact> 0.25602517E+03</totfact>
</mgrwt>
</event>
<event>
 7    1  0.1050440E-008  0.2887714E+03  0.7546771E-02  0.1118728E+00
         -2   -1    0    0    0  501 -0.00000000000E+00  0.00000000000E+00  0.97603049458E+02  0.97603049458E+02  0.00000000000E+00 0.  1.
          2   -1    0    0  501    0  0.00000000000E+00 -0.00000000000E+00 -0.58608853187E+03  0.58608853187E+03  0.00000000000E+00 0. -1.
         25    2    1    2    0    0 -0.66143046984E+02 -0.46905626898E+01 -0.31871065421E+03  0.34871036486E+03  0.12500213362E+03 0.  0.
          5    1    3    3  502    0 -0.59355835462E+02 -0.30031255702E+02 -0.31478507075E+03  0.32177122664E+03  0.47000000000E+01 0. -1.
         -5    1    1    2    0  503  0.11951858491E+02 -0.32404945593E+02  0.74359865805E+02  0.82124339040E+02  0.47000000000E+01 0.  1.
          5    1    1    2  503    0  0.54191188493E+02  0.37095508282E+02 -0.24413469401E+03  0.25285687743E+03  0.47000000000E+01 0. -1.
         -5    1    3    3    0  502 -0.67872115211E+01  0.25340693013E+02 -0.39255834556E+01  0.26939138220E+02  0.47000000000E+01 0. -1.
<mgrwt>
<rscale>  0 0.24160463E+03</rscale>
<asrwt>0</asrwt>
<pdfrwt beam="1">  1        2 0.90167467E-01 0.28877140E+03</pdfrwt>
<pdfrwt beam="2">  1       -2 0.15015854E-01 0.28877140E+03</pdfrwt>
<totfact> 0.17720989E+03</totfact>
</mgrwt>
</event>
<event>
 7    1  0.1050440E-008  0.1274448E+03  0.7546771E-02  0.1245774E+00
          1   -1    0    0  501    0  0.00000000000E+00  0.00000000000E+00  0.14562571281E+03  0.14562571281E+03  0.00000000000E+00 0. -1.
         -1   -1    0    0    0  501 -0.00000000000E+00 -0.00000000000E+00 -0.98275131556E+02  0.98275131556E+02  0.00000000000E+00 0.  1.
         25    2    1    2    0    0 -0.13633258262E+02 -0.20754988454E+02  0.71274247220E+02  0.14602125113E+03  0.12500220873E+03 0.  0.
          5    1    1    2  502    0 -0.17446548616E+02 -0.23635695869E+02 -0.31072734341E+02  0.43018984150E+02  0.47000000000E+01 0. -1.
         -5    1    3    3    0  503 -0.41439000192E+02 -0.63322512803E+02  0.35815792924E+02  0.83855783268E+02  0.47000000000E+01 0.  1.
          5    1    3    3  503    0  0.27805741930E+02  0.42567524349E+02  0.35458454295E+02  0.62165467862E+02  0.47000000000E+01 0.  1.
         -5    1    1    2    0  502  0.31079806878E+02  0.44390684323E+02  0.71490683701E+01  0.54860609082E+02  0.47000000000E+01 0.  1.
<mgrwt>
<rscale>  0 0.11839154E+03</rscale>
<asrwt>0</asrwt>
<pdfrwt beam="1">  1        1 0.22403956E-01 0.12744484E+03</pdfrwt>
<pdfrwt beam="2">  1       -1 0.15119251E-01 0.12744484E+03</pdfrwt>
<totfact> 0.66098726E+03</totfact>
</mgrwt>
</event>
<event>
 7    1  0.1050440E-008  0.1670136E+03  0.7546771E-02  0.1195196E+00
         -2   -1    0    0    0  501 -0.00000000000E+00  0.00000000000E+00  0.91764392925E+03  0.91764392925E+03  0.00000000000E+00 0.  1.
          2   -1    0    0  501    0  0.00000000000E+00 -0.00000000000E+00 -0.23606343987E+02  0.23606343987E+02  0.00000000000E+00 0. -1.
         25    2    1    2    0    0 -0.19099366248E+02 -0.10911393747E+03  0.60314078429E+03  0.62583731182E+03  0.12499159195E+03 0.  0.
          5    1    3    3  502    0 -0.21770608738E+02 -0.13599131357E+03  0.46441693140E+03  0.48443035922E+03  0.47000000000E+01 0. -1.
         -5    1    1    2    0  503 -0.12715973273E+02  0.25490895495E+02  0.10737914731E+03  0.11119286401E+03  0.47000000000E+01 0.  1.
          5    1    1    2  503    0  0.31815339521E+02  0.83623041971E+02  0.18351765367E+03  0.20422009741E+03  0.47000000000E+01 0. -1.
         -5    1    3    3    0  502  0.26712424902E+01  0.26877376100E+02  0.13872385289E+03  0.14140695260E+03  0.47000000000E+01 0. -1.
<mgrwt>
<rscale>  0 0.15437686E+03</rscale>
<asrwt>0</asrwt>
<pdfrwt beam="1">  1        2 0.36317460E-02 0.16701358E+03</pdfrwt>
<pdfrwt beam="2">  1       -2 0.14117596E+00 0.16701358E+03</pdfrwt>
<totfact> 0.87733762E+02</totfact>
</mgrwt>
</event>
<event>
 7    1  0.1050440E-008  0.1566686E+03  0.7546771E-02  0.1194330E+00
          2   -1    0    0  501    0  0.00000000000E+00  0.00000000000E+00  0.90920972771E+03  0.90920972771E+03  0.00000000000E+00 0. -1.
         -2   -1    0    0    0  501 -0.00000000000E+00 -0.00000000000E+00 -0.36472341561E+02  0.36472341561E+02  0.00000000000E+00 0.  1.
         25    2    1    2    0    0 -0.47099289922E+02 -0.69394238454E+02  0.68412170615E+03  0.70048639329E+03  0.12499909962E+03 0.  0.
          5    1    1    2  502    0  0.47907976328E+02  0.42432153888E+02  0.20395465156E+03  0.21381125268E+03  0.47000000000E+01 0. -1.
         -5    1    3    3    0  503 -0.73299011862E+02  0.98693446699E+00  0.28366645751E+03  0.29302298254E+03  0.47000000000E+01 0. -1.
          5    1    3    3  503    0  0.26199721940E+02 -0.70381172921E+02  0.40045524864E+03  0.40746341074E+03  0.47000000000E+01 0. -1.
         -5    1    1    2    0  502 -0.80868640660E+00  0.26962084566E+02 -0.15338971561E+02  0.31384423308E+02  0.47000000000E+01 0.  1.
<mgrwt>
<rscale>  0 0.15511034E+03</rscale>
<asrwt>0</asrwt>
<pdfrwt beam="1">  1        2 0.13987840E+00 0.15666858E+03</pdfrwt>
<pdfrwt beam="2">  1       -2 0.56111302E-02 0.15666858E+03</pdfrwt>
<totfact> 0.48194973E+03</totfact>
</mgrwt>
</event>
<event>
 7    1  0.1050440E-008  0.2379972E+03  0.7546771E-02  0.1137277E+00
         -4   -1    0    0    0  501 -0.00000000000E+00  0.00000000000E+00  0.67829666369E+03  0.67829666369E+03  0.00000000000E+00 0.  1.
          4   -1    0    0  501    0  0.00000000000E+00 -0.00000000000E+00 -0.93548641088E+02  0.93548641088E+02  0.00000000000E+00 0. -1.
         25    2    1    2    0    0  0.18603775567E+02 -0.98134326064E+02  0.49037637583E+03  0.51582058945E+03  0.12500177643E+03 0.  0.
          5    1    3    3  502    0  0.67293433541E+02 -0.85437882993E+02  0.35518161918E+03  0.37148904513E+03  0.47000000000E+01 0.  1.
         -5    1    1    2    0  503  0.80058150424E+02 -0.13926099749E+02  0.41225335087E+01  0.81500484576E+02  0.47000000000E+01 0.  1.
          5    1    1    2  503    0 -0.98661925992E+02  0.11206042581E+03  0.90249113259E+02  0.17452423075E+03  0.47000000000E+01 0. -1.
         -5    1    3    3    0  502 -0.48689657973E+02 -0.12696443070E+02  0.13519475665E+03  0.14433154432E+03  0.47000000000E+01 0.  1.
<mgrwt>
<rscale>  0 0.21550772E+03</rscale>
<asrwt>0</asrwt>
<pdfrwt beam="1">  1        4 0.14392099E-01 0.23799716E+03</pdfrwt>
<pdfrwt beam="2">  1       -4 0.10435333E+00 0.23799716E+03</pdfrwt>
<totfact> 0.56847695E+01</totfact>
</mgrwt>
</event>
<event>
 7    1  0.1050440E-008  0.1303265E+03  0.7546771E-02  0.1235483E+00
          1   -1    0    0  501    0  0.00000000000E+00  0.00000000000E+00  0.43698262408E+03  0.43698262408E+03  0.00000000000E+00 0. -1.
         -1   -1    0    0    0  501 -0.00000000000E+00 -0.00000000000E+00 -0.36108623477E+02  0.36108623477E+02  0.00000000000E+00 0.  1.
         25    2    1    2    0    0 -0.16880582063E+02 -0.32778065985E+02  0.14577243490E+03  0.19553672520E+03  0.12500260983E+03 0.  0.
          5    1    3    3  502    0 -0.64525208192E+02 -0.25199243240E+02  0.42371945164E+02  0.81338650647E+02  0.47000000000E+01 0. -1.
         -5    1    1    2    0  503 -0.21917220616E+02  0.29444726381E+02  0.26261779443E+02  0.45377610456E+02  0.47000000000E+01 0.  1.
          5    1    1    2  503    0  0.38797802679E+02  0.33333396043E+01  0.22883978626E+03  0.23217691190E+03  0.47000000000E+01 0. -1.
         -5    1    3    3    0  502  0.47644626130E+02 -0.75788227444E+01  0.10340048974E+03  0.11419807455E+03  0.47000000000E+01 0. -1.
<mgrwt>
<rscale>  0 0.12473540E+03</rscale>
<asrwt>0</asrwt>
<pdfrwt beam="1">  1        1 0.67228092E-01 0.13032654E+03</pdfrwt>
<pdfrwt beam="2">  1       -1 0.55551732E-02 0.13032654E+03</pdfrwt>
<totfact> 0.77188106E+03</totfact>
</mgrwt>
</event>
<event>
 7    1  0.1050440E-008  0.4390240E+03  0.7546771E-02  0.1031047E+00
          1   -1    0    0  501    0  0.00000000000E+00  0.00000000000E+00  0.56402441106E+03  0.56402441106E+03  0.00000000000E+00 0. -1.
         -1   -1    0    0    0  501 -0.00000000000E+00 -0.00000000000E+00 -0.85431607980E+02  0.85431607980E+02  0.00000000000E+00 0.  1.
         25    2    1    2    0    0 -0.55097385960E+02 -0.15335940239E+03  0.25271174880E+03  0.32564192900E+03  0.12499843877E+03 0.  0.
          5    1    1    2  502    0  0.82814924190E+01  0.32755470681E+02  0.18490757073E+03  0.18802766735E+03  0.47000000000E+01 0. -1.
         -5    1    3    3    0  503 -0.11041219173E+01 -0.95525108318E+02  0.49875826059E+02  0.10787007662E+03  0.47000000000E+01 0. -1.
          5    1    3    3  503    0 -0.53993264043E+02 -0.57834294077E+02  0.20283592275E+03  0.21777185238E+03  0.47000000000E+01 0. -1.
         -5    1    1    2    0  502  0.46815893541E+02  0.12060393171E+03  0.40973483542E+02  0.13578642269E+03  0.47000000000E+01 0.  1.
<mgrwt>
<rscale>  0 0.43902397E+03</rscale>
<asrwt>0</asrwt>
<pdfrwt beam="1">  1        1 0.86772984E-01 0.43902397E+03</pdfrwt>
<pdfrwt beam="2">  1       -1 0.13143325E-01 0.43902397E+03</pdfrwt>
<totfact> 0.15254058E+03</totfact>
</mgrwt>
</event>
<event>
 7    1  0.1050440E-008  0.3012905E+03  0.7546771E-02  0.1107040E+00
          1   -1    0    0  501    0  0.00000000000E+00  0.00000000000E+00  0.22606510787E+03  0.22606510787E+03  0.00000000000E+00 0. -1.
         -1   -1    0    0    0  501 -0.00000000000E+00 -0.00000000000E+00 -0.25093502700E+03  0.25093502700E+03  0.00000000000E+00 0.  1.
         25    2    1    2    0    0 -0.92712759741E+02  0.61994999071E+02  0.31555431614E+02  0.17047155706E+03  0.12500308306E+03 0.  0.
          5    1    1    2  502    0  0.26059933405E+02 -0.16675455129E+03  0.28305540297E+01  0.16886770722E+03  0.47000000000E+01 0. -1.
         -5    1    3    3    0  503  0.26356693106E+02 -0.96615784055E+01  0.44986668840E+01  0.28815783392E+02  0.47000000000E+01 0. -1.
          5    1    3    3  503    0 -0.11906945285E+03  0.71656577476E+02  0.27056764730E+02  0.14165577367E+03  0.47000000000E+01 0. -1.
         -5    1    1    2    0  502  0.66652826336E+02  0.10475955222E+03 -0.59255904777E+02  0.13766087059E+03  0.47000000000E+01 0.  1.
<mgrwt>
<rscale>  0 0.26017125E+03</rscale>
<asrwt>0</asrwt>
<pdfrwt beam="1">  1        1 0.34779247E-01 0.30129047E+03</pdfrwt>
<pdfrwt beam="2">  1       -1 0.38605389E-01 0.30129047E+03</pdfrwt>
<totfact> 0.82737630E+02</totfact>
</mgrwt>
</event>
<event>
 7    1  0.1050440E-008  0.1674893E+03  0.7546771E-02  0.1196061E+00
         -2   -1    0    0    0  501 -0.00000000000E+00  0.00000000000E+00  0.69887345939E+03  0.69887345939E+03  0.00000000000E+00 0.  1.
          2   -1    0    0  501    0  0.00000000000E+00 -0.00000000000E+00 -0.29340518119E+02  0.29340518119E+02  0.00000000000E+00 0. -1.
         25    2    1    2    0    0  0.97764181313E+02  0.53568337330E+02  0.40792909061E+03  0.44097482407E+03  0.12500100233E+03 0.  0.
          5    1    3    3  502    0  0.11768544911E+03  0.72234816404E+02  0.36018985595E+03  0.38578045046E+03  0.47000000000E+01 0. -1.
         -5    1    3    3    0  502 -0.19921267793E+02 -0.18666479074E+02  0.47739234663E+02  0.55194373606E+02  0.47000000000E+01 0. -1.
          5    1    1    2  503    0 -0.17795526050E+02 -0.28353197293E+02  0.91235018062E+02  0.97295956057E+02  0.47000000000E+01 0. -1.
         -5    1    1    2    0  503 -0.79968655262E+02 -0.25215140037E+02  0.17036883260E+03  0.18994319739E+03  0.47000000000E+01 0.  1.
<mgrwt>
<rscale>  0 0.15364769E+03</rscale>
<asrwt>0</asrwt>
<pdfrwt beam="1">  1        2 0.45139264E-02 0.16748926E+03</pdfrwt>
<pdfrwt beam="2">  1       -2 0.10751898E+00 0.16748926E+03</pdfrwt>
<totfact> 0.12732616E+03</totfact>
</mgrwt>
</event>
<event>
 7    1  0.1050440E-008  0.1667388E+03  0.7546771E-02  0.1196080E+00
         -3   -1    0    0    0  501 -0.00000000000E+00  0.00000000000E+00  0.15096209058E+03  0.15096209058E+03  0.00000000000E+00 0.  1.
          3   -1    0    0  501    0  0.00000000000E+00 -0.00000000000E+00 -0.16392921877E+03  0.16392921877E+03  0.00000000000E+00 0. -1.
         25    2    1    2    0    0  0.92359650264E+02  0.60390406406E+02  0.56538634076E+02  0.17606371796E+03  0.12499803781E+03 0.  0.
          5    1    3    3  502    0 -0.53337811090E+01  0.68219896180E+02  0.21616006385E+02  0.71914846782E+02  0.47000000000E+01 0. -1.
         -5    1    3    3    0  502  0.97693431373E+02 -0.78294897735E+01  0.34922627691E+02  0.10414887118E+03  0.47000000000E+01 0. -1.
          5    1    1    2  503    0 -0.52716091555E+02 -0.12715301620E+02 -0.49317187399E+02  0.73450256481E+02  0.47000000000E+01 0. -1.
         -5    1    1    2    0  503 -0.39643558709E+02 -0.47675104787E+02 -0.20188574874E+02  0.65377334903E+02  0.47000000000E+01 0.  1.
<mgrwt>
<rscale>  0 0.15363177E+03</rscale>
<asrwt>0</asrwt>
<pdfrwt beam="1">  1        3 0.25219880E-01 0.16673876E+03</pdfrwt>
<pdfrwt beam="2">  1       -3 0.23224937E-01 0.16673876E+03</pdfrwt>
<totfact> 0.60530186E+02</totfact>
</mgrwt>
</event>
<event>
 7    1  0.1050440E-008  0.3697411E+03  0.7546771E-02  0.1086442E+00
         -2   -1    0    0    0  501 -0.00000000000E+00  0.00000000000E+00  0.11337372296E+03  0.11337372296E+03  0.00000000000E+00 0.  1.
          2   -1    0    0  501    0  0.00000000000E+00 -0.00000000000E+00 -0.65683406650E+03  0.65683406650E+03  0.00000000000E+00 0. -1.
         25    2    1    2    0    0 -0.12143789891E+02 -0.91189395640E+02 -0.72089490459E+02  0.17112604966E+03  0.12499701088E+03 0.  0.
          5    1    1    2  502    0  0.66613175342E+02  0.68967497136E+02 -0.51614944502E+03  0.52500111466E+03  0.47000000000E+01 0. -1.
         -5    1    1    2    0  502 -0.54469385451E+02  0.22221898504E+02  0.44778591940E+02  0.74080625137E+02  0.47000000000E+01 0.  1.
          5    1    3    3  503    0 -0.41517177597E+02 -0.11448868167E+02  0.18250812057E+02  0.47009943190E+02  0.47000000000E+01 0. -1.
         -5    1    3    3    0  503  0.29373387707E+02 -0.79740527473E+02 -0.90340302516E+02  0.12411610647E+03  0.47000000000E+01 0. -1.
<mgrwt>
<rscale>  0 0.29760938E+03</rscale>
<asrwt>0</asrwt>
<pdfrwt beam="1">  1        2 0.10105140E+00 0.36974106E+03</pdfrwt>
<pdfrwt beam="2">  1       -2 0.17442111E-01 0.36974106E+03</pdfrwt>
<totfact> 0.12056548E+03</totfact>
</mgrwt>
</event>
<event>
 7    1  0.1050440E-008  0.9578618E+03  0.7546771E-02  0.9356008E-01
         -2   -1    0    0    0  501 -0.00000000000E+00  0.00000000000E+00  0.66805510663E+03  0.66805510663E+03  0.00000000000E+00 0. -1.
          2   -1    0    0  501    0  0.00000000000E+00 -0.00000000000E+00 -0.34334712757E+03  0.34334712757E+03  0.00000000000E+00 0.  1.
         25    2    1    2    0    0  0.11982827925E+03 -0.21020336019E+03  0.50493178176E+03  0.57369381695E+03  0.12499688890E+03 0.  0.
          5    1    1    2  502    0 -0.13736861111E+03  0.28785860368E+03 -0.14882865743E+03  0.35200109417E+03  0.47000000000E+01 0. -1.
         -5    1    1    2    0  502  0.17540331855E+02 -0.77655243487E+02 -0.31395145268E+02  0.85707323077E+02  0.47000000000E+01 0.  1.
          5    1    3    3  503    0  0.56158780597E+02 -0.77514116001E+02  0.33693398292E+03  0.35029822389E+03  0.47000000000E+01 0. -1.
         -5    1    3    3    0  503  0.63669498656E+02 -0.13268924419E+03  0.16799779884E+03  0.22339559306E+03  0.47000000000E+01 0. -1.
<mgrwt>
<rscale>  0 0.95786179E+03</rscale>
<asrwt>0</asrwt>
<pdfrwt beam="1">  1        2 0.52822635E-01 0.95786179E+03</pdfrwt>
<pdfrwt beam="2">  1       -2 0.10277771E+00 0.95786179E+03</pdfrwt>
<totfact> 0.73106337E+01</totfact>
</mgrwt>
</event>
<event>
 7    1  0.1050440E-008  0.2098830E+03  0.7546771E-02  0.1162089E+00
          1   -1    0    0  501    0  0.00000000000E+00  0.00000000000E+00  0.67018350539E+03  0.67018350539E+03  0.00000000000E+00 0. -1.
         -1   -1    0    0    0  501 -0.00000000000E+00 -0.00000000000E+00 -0.48369317322E+02  0.48369317322E+02  0.00000000000E+00 0.  1.
         25    2    1    2    0    0  0.32490874058E+02  0.10156178376E+02  0.12860097767E+03  0.18253963656E+03  0.12499481029E+03 0.  0.
          5    1    1    2  502    0  0.67377280499E+02 -0.46702830504E+02  0.33781381888E+03  0.34765085723E+03  0.47000000000E+01 0. -1.
         -5    1    1    2    0  502 -0.99868154556E+02  0.36546652128E+02  0.15539939151E+03  0.18836232892E+03  0.47000000000E+01 0.  1.
          5    1    3    3  503    0  0.39750015115E+02  0.49211078065E+02  0.12763256764E+03  0.14252703683E+03  0.47000000000E+01 0. -1.
         -5    1    3    3    0  503 -0.72591410574E+01 -0.39054899689E+02  0.96841003345E+00  0.40012599723E+02  0.47000000000E+01 0. -1.
<mgrwt>
<rscale>  0 0.18603301E+03</rscale>
<asrwt>0</asrwt>
<pdfrwt beam="1">  1        1 0.10310515E+00 0.20988298E+03</pdfrwt>
<pdfrwt beam="2">  1       -1 0.74414339E-02 0.20988298E+03</pdfrwt>
<totfact> 0.28661045E+03</totfact>
</mgrwt>
</event>
<event>
 7    1  0.1050440E-008  0.3798641E+03  0.7546771E-02  0.1074294E+00
         -2   -1    0    0    0  501 -0.00000000000E+00  0.00000000000E+00  0.49365043269E+02  0.49365043269E+02  0.00000000000E+00 0.  1.
          2   -1    0    0  501    0  0.00000000000E+00 -0.00000000000E+00 -0.17298633509E+04  0.17298633509E+04  0.00000000000E+00 0. -1.
         25    2    1    2    0    0 -0.12382601528E+03 -0.91866979533E+02 -0.70405969778E+03  0.73150271376E+03  0.12499495271E+03 0.  0.
          5    1    1    2  502    0  0.71822957633E+02  0.13330379228E+03 -0.96886539376E+03  0.98063789419E+03  0.47000000000E+01 0. -1.
         -5    1    1    2    0  502  0.52003057644E+02 -0.41436812750E+02 -0.75732160516E+01  0.67087786195E+02  0.47000000000E+01 0.  1.
          5    1    3    3  503    0  0.19310385826E+02 -0.42135462598E+02 -0.14914440636E+03  0.15625118290E+03  0.47000000000E+01 0. -1.
         -5    1    3    3    0  503 -0.14313640110E+03 -0.49731516935E+02 -0.55491529142E+03  0.57525153086E+03  0.47000000000E+01 0. -1.
<mgrwt>
<rscale>  0 0.32296312E+03</rscale>
<asrwt>0</asrwt>
<pdfrwt beam="1">  1        2 0.26613280E+00 0.37986411E+03</pdfrwt>
<pdfrwt beam="2">  1       -2 0.75946228E-02 0.37986411E+03</pdfrwt>
<totfact> 0.10482681E+03</totfact>
</mgrwt>
</event>
<event>
 7    1  0.1050440E-008  0.5679355E+03  0.7546771E-02  0.1047025E+00
          2   -1    0    0  501    0  0.00000000000E+00  0.00000000000E+00  0.36764440269E+03  0.36764440269E+03  0.00000000000E+00 0.  1.
         -2   -1    0    0    0  501 -0.00000000000E+00 -0.00000000000E+00 -0.37505374752E+03  0.37505374752E+03  0.00000000000E+00 0. -1.
         25    2    1    2    0    0 -0.23349347133E+02 -0.55615602967E+01  0.10347818079E+03  0.16403867834E+03  0.12499932451E+03 0.  0.
          5    1    3    3  502    0  0.31229632759E+02 -0.45112546994E+02  0.24987840756E+02  0.60472423832E+02  0.47000000000E+01 0. -1.
         -5    1    1    2    0  503 -0.15589056270E+03 -0.18532981260E+03  0.79435140600E+02  0.25491378648E+03  0.47000000000E+01 0.  1.
          5    1    1    2  503    0  0.17923990983E+03  0.19089137290E+03 -0.19032266622E+03  0.32374568538E+03  0.47000000000E+01 0. -1.
         -5    1    3    3    0  502 -0.54578979892E+02  0.39550986697E+02  0.78490340032E+02  0.10356625451E+03  0.47000000000E+01 0. -1.
<mgrwt>
<rscale>  0 0.39076606E+03</rscale>
<asrwt>0</asrwt>
<pdfrwt beam="1">  1        2 0.56560678E-01 0.56793551E+03</pdfrwt>
<pdfrwt beam="2">  1       -2 0.57700576E-01 0.56793551E+03</pdfrwt>
<totfact> 0.24958801E+02</totfact>
</mgrwt>
</event>
<event>
 7    1  0.1050440E-008  0.3107823E+03  0.7546771E-02  0.1104836E+00
          3   -1    0    0  501    0  0.00000000000E+00  0.00000000000E+00  0.80067183538E+03  0.80067183538E+03  0.00000000000E+00 0. -1.
         -3   -1    0    0    0  501 -0.00000000000E+00 -0.00000000000E+00 -0.14984472257E+03  0.14984472257E+03  0.00000000000E+00 0.  1.
         25    2    1    2    0    0  0.74001382414E+02 -0.70618445268E+02  0.61712369066E+03  0.63791208108E+03  0.12500801660E+03 0.  0.
          5    1    1    2  502    0 -0.58098512173E+02  0.14536301970E+03  0.11995493545E+03  0.19727422830E+03  0.47000000000E+01 0. -1.
         -5    1    3    3    0  503  0.81698711327E+02 -0.96252994070E+01  0.20081433234E+03  0.21706176977E+03  0.47000000000E+01 0.  1.
          5    1    3    3  503    0 -0.76973289132E+01 -0.60993145861E+02  0.41630935831E+03  0.42085031132E+03  0.47000000000E+01 0.  1.
         -5    1    1    2    0  502 -0.15902870241E+02 -0.74744574434E+02 -0.86251513298E+02  0.11533024857E+03  0.47000000000E+01 0.  1.
<mgrwt>
<rscale>  0 0.26387718E+03</rscale>
<asrwt>0</asrwt>
<pdfrwt beam="1">  1        3 0.12318028E+00 0.31078230E+03</pdfrwt>
<pdfrwt beam="2">  1       -3 0.23053035E-01 0.31078230E+03</pdfrwt>
<totfact> 0.24211364E+01</totfact>
</mgrwt>
</event>
<event>
 7    1  0.1050440E-008  0.5305016E+03  0.7546771E-02  0.1006111E+00
          3   -1    0    0  501    0  0.00000000000E+00  0.00000000000E+00  0.33500747803E+03  0.33500747803E+03  0.00000000000E+00 0. -1.
         -3   -1    0    0    0  501 -0.00000000000E+00 -0.00000000000E+00 -0.21001912456E+03  0.21001912456E+03  0.00000000000E+00 0.  1.
         25    2    1    2    0    0  0.21806987028E+03  0.30090269213E+02  0.22549732895E+02  0.25415294798E+03  0.12500135155E+03 0.  0.
          5    1    3    3  502    0  0.15563233182E+03 -0.38383737191E+02  0.14349425658E+02  0.16100537260E+03  0.47000000000E+01 0.  1.
         -5    1    1    2    0  503 -0.55376244163E+01  0.23177742696E+02 -0.27023432273E+02  0.36334954692E+02  0.47000000000E+01 0.  1.
          5    1    1    2  503    0 -0.21253224586E+03 -0.53268011908E+02  0.12946205285E+03  0.25453869991E+03  0.47000000000E+01 0. -1.
         -5    1    3    3    0  502  0.62437538462E+02  0.68474006403E+02  0.82003072364E+01  0.93147575390E+02  0.47000000000E+01 0.  1.
<mgrwt>
<rscale>  0 0.53050156E+03</rscale>
<asrwt>0</asrwt>
<pdfrwt beam="1">  1        3 0.51539612E-01 0.53050156E+03</pdfrwt>
<pdfrwt beam="2">  1       -3 0.32310634E-01 0.53050156E+03</pdfrwt>
<totfact> 0.91738787E+01</totfact>
</mgrwt>
</event>
<event>
 7    1  0.1050440E-008  0.1471002E+03  0.7546771E-02  0.1219866E+00
          1   -1    0    0  501    0  0.00000000000E+00  0.00000000000E+00  0.83770201823E+03  0.83770201823E+03  0.00000000000E+00 0. -1.
         -1   -1    0    0    0  501 -0.00000000000E+00 -0.00000000000E+00 -0.21930624971E+02  0.21930624971E+02  0.00000000000E+00 0.  1.
         25    2    1    2    0    0  0.47051479195E+02  0.61637737839E+02  0.31105470075E+03  0.34408357232E+03  0.12500170184E+03 0.  0.
          5    1    3    3  502    0 -0.34485152873E+02  0.22591945809E+02  0.18054255670E+03  0.18524936320E+03  0.47000000000E+01 0. -1.
         -5    1    3    3    0  502  0.81536632068E+02  0.39045792029E+02  0.13051214405E+03  0.15883420913E+03  0.47000000000E+01 0. -1.
          5    1    1    2  503    0 -0.82279547483E+00 -0.55201333178E+02  0.33121837574E+03  0.33582073581E+03  0.47000000000E+01 0. -1.
         -5    1    1    2    0  503 -0.46228683720E+02 -0.64364046601E+01  0.17349831677E+03  0.17972833506E+03  0.47000000000E+01 0.  1.
<mgrwt>
<rscale>  0 0.13525074E+03</rscale>
<asrwt>0</asrwt>
<pdfrwt beam="1">  1        1 0.12887721E+00 0.14710023E+03</pdfrwt>
<pdfrwt beam="2">  1       -1 0.33739430E-02 0.14710023E+03</pdfrwt>
<totfact> 0.66029404E+03</totfact>
</mgrwt>
</event>
<event>
 7    1  0.1050440E-008  0.2421234E+03  0.7546771E-02  0.1133107E+00
         -1   -1    0    0    0  501 -0.00000000000E+00  0.00000000000E+00  0.35897473956E+03  0.35897473956E+03  0.00000000000E+00 0.  1.
          1   -1    0    0  501    0  0.00000000000E+00 -0.00000000000E+00 -0.12808014569E+03  0.12808014569E+03  0.00000000000E+00 0. -1.
         25    2    1    2    0    0 -0.97071624525E+02 -0.56926844692E+02  0.16615866025E+03  0.23642667294E+03  0.12500122147E+03 0.  0.
          5    1    3    3  502    0 -0.70420421761E+02  0.22261198886E+02  0.37544039267E+02  0.82983381839E+02  0.47000000000E+01 0.  1.
         -5    1    3    3    0  502 -0.26651202763E+02 -0.79188043578E+02  0.12861462098E+03  0.15344329110E+03  0.47000000000E+01 0.  1.
          5    1    1    2  503    0  0.12702230211E+03 -0.15355075257E+02 -0.26081826093E+02  0.13066290683E+03  0.47000000000E+01 0. -1.
         -5    1    1    2    0  503 -0.29950677583E+02  0.72281919949E+02  0.90817759707E+02  0.11996530547E+03  0.47000000000E+01 0.  1.
<mgrwt>
<rscale>  0 0.22104443E+03</rscale>
<asrwt>0</asrwt>
<pdfrwt beam="1">  1        1 0.19704638E-01 0.24212344E+03</pdfrwt>
<pdfrwt beam="2">  1       -1 0.55226883E-01 0.24212344E+03</pdfrwt>
<totfact> 0.88675627E+02</totfact>
</mgrwt>
</event>
<event>
 7    1  0.1050440E-008  0.1504974E+03  0.7546771E-02  0.1210645E+00
         -2   -1    0    0    0  501 -0.00000000000E+00  0.00000000000E+00  0.64892657608E+02  0.64892657608E+02  0.00000000000E+00 0.  1.
          2   -1    0    0  501    0  0.00000000000E+00 -0.00000000000E+00 -0.45383953157E+03  0.45383953157E+03  0.00000000000E+00 0. -1.
         25    2    1    2    0    0  0.35499306338E+02  0.75923087560E+02 -0.36799642112E+03  0.39758123381E+03  0.12499982219E+03 0.  0.
          5    1    1    2  502    0 -0.16982773652E+02 -0.44962463297E+02 -0.53686494467E+02  0.72210576751E+02  0.47000000000E+01 0. -1.
         -5    1    3    3    0  503  0.64749887772E+02 -0.35182748402E+01 -0.17887240039E+03  0.19032170619E+03  0.47000000000E+01 0. -1.
          5    1    3    3  503    0 -0.29250581434E+02  0.79441362400E+02 -0.18912402073E+03  0.20725952762E+03  0.47000000000E+01 0. -1.
         -5    1    1    2    0  502 -0.18516532686E+02 -0.30960624263E+02  0.32736041626E+02  0.48940378614E+02  0.47000000000E+01 0.  1.
<mgrwt>
<rscale>  0 0.14201372E+03</rscale>
<asrwt>0</asrwt>
<pdfrwt beam="1">  1        2 0.69821468E-01 0.15049741E+03</pdfrwt>
<pdfrwt beam="2">  1       -2 0.99834856E-02 0.15049741E+03</pdfrwt>
<totfact> 0.44798731E+03</totfact>
</mgrwt>
</event>
<event>
 7    1  0.1050440E-008  0.1254073E+03  0.7546771E-02  0.1279069E+00
          3   -1    0    0  501    0  0.00000000000E+00  0.00000000000E+00  0.75491108158E+02  0.75491108158E+02  0.00000000000E+00 0. -1.
         -3   -1    0    0    0  501 -0.00000000000E+00 -0.00000000000E+00 -0.16534898931E+03  0.16534898931E+03  0.00000000000E+00 0.  1.
         25    2    1    2    0    0  0.41585480936E+01 -0.92977401563E+01  0.12547256900E+02  0.12603344109E+03  0.12499301230E+03 0.  0.
          5    1    3    3  502    0  0.53966978878E+02  0.28594723572E+02  0.15562699981E+02  0.63201112776E+02  0.47000000000E+01 0. -1.
         -5    1    3    3    0  502 -0.49808430785E+02 -0.37892463728E+02 -0.30154430815E+01  0.62832328316E+02  0.47000000000E+01 0.  1.
          5    1    1    2  503    0  0.18562982100E+02  0.17495034882E+02 -0.65511217501E+02  0.70458996362E+02  0.47000000000E+01 0. -1.
         -5    1    1    2    0  503 -0.22721530193E+02 -0.81972947260E+01 -0.36893920550E+02  0.44347660014E+02  0.47000000000E+01 0.  1.
<mgrwt>
<rscale>  0 0.10058586E+03</rscale>
<asrwt>0</asrwt>
<pdfrwt beam="1">  1        3 0.11614017E-01 0.12540731E+03</pdfrwt>
<pdfrwt beam="2">  1       -3 0.25438306E-01 0.12540731E+03</pdfrwt>
<totfact> 0.18899656E+03</totfact>
</mgrwt>
</event>
<event>
 7    1  0.1050440E-008  0.1267374E+03  0.7546771E-02  0.1232724E+00
          2   -1    0    0  501    0  0.00000000000E+00  0.00000000000E+00  0.10173045392E+04  0.10173045392E+04  0.00000000000E+00 0. -1.
         -2   -1    0    0    0  501 -0.00000000000E+00 -0.00000000000E+00 -0.24119465215E+02  0.24119465215E+02  0.00000000000E+00 0.  1.
         25    2    1    2    0    0 -0.34934638032E+01  0.20629640737E+02  0.18968194080E+03  0.22812627296E+03  0.12499828552E+03 0.  0.
          5    1    1    2  502    0 -0.56622358904E+02 -0.30840157110E+02  0.40320636131E+03  0.40835605373E+03  0.47000000000E+01 0. -1.
         -5    1    3    3    0  503 -0.65410552729E+01 -0.39409939372E+02  0.14338251230E+02  0.42703678691E+02  0.47000000000E+01 0. -1.
          5    1    3    3  503    0  0.30475914698E+01  0.60039580109E+02  0.17534368957E+03  0.18542259427E+03  0.47000000000E+01 0. -1.
         -5    1    1    2    0  502  0.60115822708E+02  0.10210516374E+02  0.40029677187E+03  0.40494167772E+03  0.47000000000E+01 0.  1.
<mgrwt>
<rscale>  0 0.12651263E+03</rscale>
<asrwt>0</asrwt>
<pdfrwt beam="1">  1        2 0.15650836E+00 0.12673736E+03</pdfrwt>
<pdfrwt beam="2">  1       -2 0.37106878E-02 0.12673736E+03</pdfrwt>
<totfact> 0.76195565E+03</totfact>
</mgrwt>
</event>
<event>
 7    1  0.1050440E-008  0.3345961E+03  0.7546771E-02  0.1069121E+00
         -2   -1    0    0    0  501 -0.00000000000E+00  0.00000000000E+00  0.14212500869E+03  0.14212500869E+03  0.00000000000E+00 0.  1.
          2   -1    0    0  501    0  0.00000000000E+00 -0.00000000000E+00 -0.19692969157E+03  0.19692969157E+03  0.00000000000E+00 0. -1.
         25    2    1    2    0    0 -0.51783827407E+02  0.50172820905E+02 -0.65611030602E+01  0.14444519538E+03  0.12498995823E+03 0.  0.
          5    1    1    2  502    0  0.30174330865E+02 -0.74887122963E+02 -0.10277832139E+03  0.13078243298E+03  0.47000000000E+01 0. -1.
         -5    1    1    2    0  502  0.21609496541E+02  0.24714302058E+02  0.54534741582E+02  0.63827071893E+02  0.47000000000E+01 0.  1.
          5    1    3    3  503    0 -0.79576418824E+02  0.36770082639E+02 -0.41919526353E+02  0.97281972122E+02  0.47000000000E+01 0.  1.
         -5    1    3    3    0  503  0.27792591418E+02  0.13402738266E+02  0.35358423293E+02  0.47163223262E+02  0.47000000000E+01 0.  1.
<mgrwt>
<rscale>  0 0.33459608E+03</rscale>
<asrwt>0</asrwt>
<pdfrwt beam="1">  1        2 0.30296876E-01 0.33459608E+03</pdfrwt>
<pdfrwt beam="2">  1       -2 0.21865386E-01 0.33459608E+03</pdfrwt>
<totfact> 0.31308537E+03</totfact>
</mgrwt>
</event>
<event>
 7    1  0.1050440E-008  0.1520210E+03  0.7546771E-02  0.1202622E+00
          1   -1    0    0  501    0  0.00000000000E+00  0.00000000000E+00  0.80387009425E+03  0.80387009425E+03  0.00000000000E+00 0. -1.
         -1   -1    0    0    0  501 -0.00000000000E+00 -0.00000000000E+00 -0.40674817708E+02  0.40674817708E+02  0.00000000000E+00 0.  1.
         25    2    1    2    0    0 -0.78568371837E+02 -0.36234140656E+02  0.14105118102E+03  0.20737844421E+03  0.12499792580E+03 0.  0.
          5    1    1    2  502    0  0.10306784526E+03  0.42828648867E+02  0.51033749366E+03  0.52242101923E+03  0.47000000000E+01 0. -1.
         -5    1    1    2    0  502 -0.24499473419E+02 -0.65945082111E+01  0.11180660186E+03  0.11474544852E+03  0.47000000000E+01 0.  1.
          5    1    3    3  503    0 -0.48855690701E+02 -0.79621552349E+02  0.61638831890E+02  0.11201743484E+03  0.47000000000E+01 0.  1.
         -5    1    3    3    0  503 -0.29712681137E+02  0.43387411693E+02  0.79412349129E+02  0.95361009369E+02  0.47000000000E+01 0.  1.
<mgrwt>
<rscale>  0 0.14826430E+03</rscale>
<asrwt>0</asrwt>
<pdfrwt beam="1">  1        1 0.12367231E+00 0.15202100E+03</pdfrwt>
<pdfrwt beam="2">  1       -1 0.62576649E-02 0.15202100E+03</pdfrwt>
<totfact> 0.28239967E+03</totfact>
</mgrwt>
</event>
