<event>
 8    1  0.3217375E-004  0.1268332E+03  0.7546771E-02  0.1246884E+00
          2   -1    0    0  501    0  0.00000000000E+00  0.00000000000E+00  0.85433361652E+03  0.85433361652E+03  0.00000000000E+00 0. -1.
         -2   -1    0    0    0  501 -0.00000000000E+00 -0.00000000000E+00 -0.14305824668E+02  0.14305824668E+02  0.00000000000E+00 0.  1.
         25    2    1    2    0    0 -0.76875508445E+01 -0.20197799180E+02  0.46876698142E+03  0.48562243180E+03  0.12497845362E+03 0.  0.
         23    2    1    2    0    0  0.76875508445E+01  0.20197799180E+02  0.37126081044E+03  0.38301700939E+03  0.91653644705E+02 0.  0.
          5    1    3    3  502    0  0.16430897766E+02  0.49099519669E+02  0.22942689327E+03  0.23524354739E+03  0.47000000000E+01 0. -1.
         -5    1    3    3    0  502 -0.24118448610E+02 -0.69297318849E+02  0.23934008815E+03  0.25037888441E+03  0.47000000000E+01 0. -1.
          5    1    4    4  503    0 -0.29299877493E+02 -0.21701285537E+02  0.11682638260E+03  0.12247416987E+03  0.47000000000E+01 0. -1.
         -5    1    4    4    0  503  0.36987428337E+02  0.41899084717E+02  0.25443442784E+03  0.26054283952E+03  0.47000000000E+01 0.  1.
<mgrwt>
<rscale>  0 0.11773336E+03</rscale>
<asrwt>0</asrwt>
<pdfrwt beam="1">  1        2 0.13143590E+00 0.12683321E+03</pdfrwt>
<pdfrwt beam="2">  1       -2 0.22008968E-02 0.12683321E+03</pdfrwt>
<totfact> 0.20645686E+04</totfact>
</mgrwt>
</event>
<event>
 8    1  0.3217375E-004  0.1969665E+03  0.7546771E-02  0.1156712E+00
          1   -1    0    0  501    0  0.00000000000E+00  0.00000000000E+00  0.15128367396E+04  0.15128367396E+04  0.00000000000E+00 0. -1.
         -1   -1    0    0    0  501 -0.00000000000E+00 -0.00000000000E+00 -0.23301870655E+02  0.23301870655E+02  0.00000000000E+00 0.  1.
         25    2    1    2    0    0 -0.15221705041E+03 -0.75895476486E+00  0.83543071138E+03  0.85833575147E+03  0.12500072916E+03 0.  0.
         23    2    1    2    0    0  0.15221705041E+03  0.75895476486E+00  0.65410415754E+03  0.67780285875E+03  0.91618011220E+02 0.  0.
          5    1    3    3  502    0 -0.39789963213E+02 -0.50547302061E+02  0.17429712499E+03  0.18584899435E+03  0.47000000000E+01 0. -1.
         -5    1    3    3    0  502 -0.11242708720E+03  0.49788347296E+02  0.66113358638E+03  0.67248675712E+03  0.47000000000E+01 0. -1.
          5    1    4    4  503    0  0.22023483086E+02 -0.23704735238E+02  0.25900098402E+03  0.26105659924E+03  0.47000000000E+01 0. -1.
         -5    1    4    4    0  503  0.13019356732E+03  0.24463690002E+02  0.39510317351E+03  0.41674625952E+03  0.47000000000E+01 0.  1.
<mgrwt>
<rscale>  0 0.19195261E+03</rscale>
<asrwt>0</asrwt>
<pdfrwt beam="1">  1        1 0.23274404E+00 0.19696647E+03</pdfrwt>
<pdfrwt beam="2">  1       -1 0.35849044E-02 0.19696647E+03</pdfrwt>
<totfact> 0.20322248E+03</totfact>
</mgrwt>
</event>
<event>
 8    1  0.3217375E-004  0.1606278E+03  0.7546771E-02  0.1195597E+00
          1   -1    0    0  501    0  0.00000000000E+00  0.00000000000E+00  0.70450490878E+02  0.70450490878E+02  0.00000000000E+00 0. -1.
         -1   -1    0    0    0  501 -0.00000000000E+00 -0.00000000000E+00 -0.39197289754E+03  0.39197289754E+03  0.00000000000E+00 0.  1.
         25    2    1    2    0    0 -0.10086799265E+03  0.14507303741E+01 -0.67249333070E+02  0.17413718140E+03  0.12499931435E+03 0.  0.
         23    2    1    2    0    0  0.10086799265E+03 -0.14507303741E+01 -0.25427307359E+03  0.28828620702E+03  0.90981781946E+02 0.  0.
          5    1    4    4  502    0  0.77978694430E+02  0.23467897607E+02 -0.94196908335E+02  0.12460564411E+03  0.47000000000E+01 0. -1.
         -5    1    4    4    0  502  0.22889298216E+02 -0.24918627981E+02 -0.16007616525E+03  0.16368056291E+03  0.47000000000E+01 0.  1.
          5    1    3    3  503    0 -0.32661582014E+02  0.46693998100E+02 -0.72089948025E+02  0.92011732972E+02  0.47000000000E+01 0.  1.
         -5    1    3    3    0  503 -0.68206410632E+02 -0.45243267726E+02  0.48406149548E+01  0.82125448425E+02  0.47000000000E+01 0.  1.
<mgrwt>
<rscale>  0 0.15403777E+03</rscale>
<asrwt>0</asrwt>
<pdfrwt beam="1">  1        1 0.10838537E-01 0.16062778E+03</pdfrwt>
<pdfrwt beam="2">  1       -1 0.60303523E-01 0.16062778E+03</pdfrwt>
<totfact> 0.16271166E+03</totfact>
</mgrwt>
</event>
<event>
 8    1  0.3217375E-004  0.1277702E+03  0.7546771E-02  0.1246344E+00
          2   -1    0    0  501    0  0.00000000000E+00  0.00000000000E+00  0.65057514443E+02  0.65057514443E+02  0.00000000000E+00 0. -1.
         -2   -1    0    0    0  501 -0.00000000000E+00 -0.00000000000E+00 -0.20575287207E+03  0.20575287207E+03  0.00000000000E+00 0.  1.
         25    2    1    2    0    0 -0.19119440603E+01  0.26399776074E+02 -0.12029039491E+03  0.17548502123E+03  0.12499843944E+03 0.  0.
         23    2    1    2    0    0  0.19119440603E+01 -0.26399776074E+02 -0.20404962721E+02  0.95325365285E+02  0.89274627170E+02 0.  0.
          5    1    4    4  502    0 -0.18750588844E+02  0.18596992010E+02  0.18156501071E+02  0.32391067055E+02  0.47000000000E+01 0. -1.
         -5    1    3    3    0  503  0.54735439530E+02 -0.54564290940E+01 -0.26388362175E+02  0.61189677375E+02  0.47000000000E+01 0. -1.
          5    1    3    3  503    0 -0.56647383590E+02  0.31856205168E+02 -0.93902032730E+02  0.11429534385E+03  0.47000000000E+01 0. -1.
         -5    1    4    4    0  502  0.20662532904E+02 -0.44996768083E+02 -0.38561463792E+02  0.62934298231E+02  0.47000000000E+01 0.  1.
<mgrwt>
<rscale>  0 0.11805326E+03</rscale>
<asrwt>0</asrwt>
<pdfrwt beam="1">  1        2 0.10008848E-01 0.12777016E+03</pdfrwt>
<pdfrwt beam="2">  1       -2 0.31654288E-01 0.12777016E+03</pdfrwt>
<totfact> 0.56016140E+03</totfact>
</mgrwt>
</event>
<event>
 8    1  0.3217375E-004  0.1370238E+03  0.7546771E-02  0.1228599E+00
          2   -1    0    0  501    0  0.00000000000E+00  0.00000000000E+00  0.26835531149E+03  0.26835531149E+03  0.00000000000E+00 0. -1.
         -2   -1    0    0    0  501 -0.00000000000E+00 -0.00000000000E+00 -0.78097546439E+02  0.78097546439E+02  0.00000000000E+00 0.  1.
         25    2    1    2    0    0  0.26459699236E+02  0.49508205771E+02  0.11654374038E+02  0.13751853685E+03  0.12499738166E+03 0.  0.
         23    2    1    2    0    0 -0.26459699236E+02 -0.49508205771E+02  0.17860339102E+03  0.20893432108E+03  0.92753442640E+02 0.  0.
          5    1    4    4  502    0 -0.91920329992E+01 -0.26411885984E+02  0.17744130331E+03  0.17969303635E+03  0.47000000000E+01 0. -1.
         -5    1    3    3    0  503 -0.36322679289E+02 -0.10006716908E+02  0.30684988234E+02  0.48817311652E+02  0.47000000000E+01 0. -1.
          5    1    3    3  503    0  0.62782378525E+02  0.59514922680E+02 -0.19030614196E+02  0.88701225198E+02  0.47000000000E+01 0. -1.
         -5    1    4    4    0  502 -0.17267666237E+02 -0.23096319788E+02  0.11620877047E+01  0.29241284733E+02  0.47000000000E+01 0.  1.
<mgrwt>
<rscale>  0 0.12923257E+03</rscale>
<asrwt>0</asrwt>
<pdfrwt beam="1">  1        2 0.41285432E-01 0.13702381E+03</pdfrwt>
<pdfrwt beam="2">  1       -2 0.12015007E-01 0.13702381E+03</pdfrwt>
<totfact> 0.58207782E+03</totfact>
</mgrwt>
</event>
<event>
 8    1  0.3217375E-004  0.2297011E+03  0.7546771E-02  0.1130250E+00
         -2   -1    0    0    0  501 -0.00000000000E+00  0.00000000000E+00  0.54876200102E+02  0.54876200102E+02  0.00000000000E+00 0. -1.
          2   -1    0    0  501    0  0.00000000000E+00 -0.00000000000E+00 -0.90702081042E+03  0.90702081042E+03  0.00000000000E+00 0.  1.
         25    2    1    2    0    0  0.91935557485E+02  0.16936569719E+03 -0.37003168716E+03  0.43552959126E+03  0.12500275694E+03 0.  0.
         23    2    1    2    0    0 -0.91935557485E+02 -0.16936569719E+03 -0.48211292315E+03  0.52636741926E+03  0.86561557700E+02 0.  0.
          5    1    4    4  502    0 -0.10001679604E+03 -0.11194678434E+03 -0.30555677113E+03  0.34047389386E+03  0.47000000000E+01 0. -1.
         -5    1    4    4    0  502  0.80812385558E+01 -0.57418912848E+02 -0.17655615202E+03  0.18589352540E+03  0.47000000000E+01 0.  1.
          5    1    3    3  503    0  0.92433171713E+02  0.57537924657E+02 -0.24240479149E+03  0.26577561390E+03  0.47000000000E+01 0.  1.
         -5    1    3    3    0  503 -0.49761422779E+00  0.11182777253E+03 -0.12762689566E+03  0.16975397735E+03  0.47000000000E+01 0.  1.
<mgrwt>
<rscale>  0 0.22494448E+03</rscale>
<asrwt>0</asrwt>
<pdfrwt beam="1">  1        2 0.13954166E+00 0.22970106E+03</pdfrwt>
<pdfrwt beam="2">  1       -2 0.84424924E-02 0.22970106E+03</pdfrwt>
<totfact> 0.26008460E+03</totfact>
</mgrwt>
</event>
<event>
 8    1  0.3217375E-004  0.1362181E+03  0.7546771E-02  0.1230963E+00
          2   -1    0    0  501    0  0.00000000000E+00  0.00000000000E+00  0.86528782362E+02  0.86528782362E+02  0.00000000000E+00 0. -1.
         -2   -1    0    0    0  501 -0.00000000000E+00 -0.00000000000E+00 -0.16893053047E+03  0.16893053047E+03  0.00000000000E+00 0.  1.
         25    2    1    2    0    0 -0.24544559279E+02 -0.48233302646E+02 -0.38414608816E+02  0.14153114292E+03  0.12500598134E+03 0.  0.
         23    2    1    2    0    0  0.24544559279E+02  0.48233302646E+02 -0.43987139291E+02  0.11392816991E+03  0.90088137969E+02 0.  0.
          5    1    4    4  502    0  0.30532330491E+02 -0.88254535210E+01  0.11355340224E+02  0.34075586373E+02  0.47000000000E+01 0. -1.
         -5    1    3    3    0  503  0.67573886448E+01  0.30912086507E+02  0.20426197099E+02  0.37954432171E+02  0.47000000000E+01 0. -1.
          5    1    3    3  503    0 -0.31301947923E+02 -0.79145389152E+02 -0.58840805916E+02  0.10357671074E+03  0.47000000000E+01 0. -1.
         -5    1    4    4    0  502 -0.59877712127E+01  0.57058756166E+02 -0.55342479515E+02  0.79852583541E+02  0.47000000000E+01 0.  1.
<mgrwt>
<rscale>  0 0.12766468E+03</rscale>
<asrwt>0</asrwt>
<pdfrwt beam="1">  1        2 0.13312121E-01 0.13621814E+03</pdfrwt>
<pdfrwt beam="2">  1       -2 0.25989312E-01 0.13621814E+03</pdfrwt>
<totfact> 0.56713254E+03</totfact>
</mgrwt>
</event>
<event>
 8    1  0.3217375E-004  0.1493335E+03  0.7546771E-02  0.1210055E+00
          4   -1    0    0  501    0  0.00000000000E+00  0.00000000000E+00  0.37318599989E+03  0.37318599989E+03  0.00000000000E+00 0. -1.
         -4   -1    0    0    0  501 -0.00000000000E+00 -0.00000000000E+00 -0.56960366642E+02  0.56960366642E+02  0.00000000000E+00 0.  1.
         25    2    1    2    0    0  0.34192998526E+02 -0.74178038485E+02  0.24637853553E+03  0.28810222027E+03  0.12501585505E+03 0.  0.
         23    2    1    2    0    0 -0.34192998526E+02  0.74178038485E+02  0.69847097719E+02  0.14204414626E+03  0.92878306858E+02 0.  0.
          5    1    3    3  502    0 -0.10050577274E+02 -0.95627573371E+02  0.19104920778E+03  0.21393348659E+03  0.47000000000E+01 0. -1.
         -5    1    3    3    0  502  0.44243575800E+02  0.21449534887E+02  0.55329327744E+02  0.74168733675E+02  0.47000000000E+01 0. -1.
          5    1    4    4  503    0  0.79878289912E+01  0.68692096991E+02  0.12409251306E+02  0.70416540095E+02  0.47000000000E+01 0. -1.
         -5    1    4    4    0  503 -0.42180827517E+02  0.54859414937E+01  0.57437846413E+02  0.71627606163E+02  0.47000000000E+01 0.  1.
<mgrwt>
<rscale>  0 0.14246136E+03</rscale>
<asrwt>0</asrwt>
<pdfrwt beam="1">  1        4 0.57413229E-01 0.14933354E+03</pdfrwt>
<pdfrwt beam="2">  1       -4 0.87631336E-02 0.14933354E+03</pdfrwt>
<totfact> 0.46676078E+02</totfact>
</mgrwt>
</event>
<event>
 8    1  0.3217375E-004  0.2167045E+03  0.7546771E-02  0.1139896E+00
         -1   -1    0    0    0  501 -0.00000000000E+00  0.00000000000E+00  0.16849852308E+03  0.16849852308E+03  0.00000000000E+00 0.  1.
          1   -1    0    0  501    0  0.00000000000E+00 -0.00000000000E+00 -0.44892058450E+03  0.44892058450E+03  0.00000000000E+00 0. -1.
         25    2    1    2    0    0 -0.17442540048E+03 -0.30154328359E+02  0.58460969099E+02  0.22445162667E+03  0.12500937547E+03 0.  0.
         23    2    1    2    0    0  0.17442540048E+03  0.30154328359E+02 -0.33888303053E+03  0.39296748092E+03  0.90819760123E+02 0.  0.
          5    1    3    3  502    0 -0.13633590572E+03  0.18797297771E+02  0.79231667949E+02  0.15887279440E+03  0.47000000000E+01 0.  1.
         -5    1    4    4    0  503  0.12820625344E+03 -0.20531448845E+02 -0.23122189429E+03  0.26522450530E+03  0.47000000000E+01 0.  1.
          5    1    4    4  503    0  0.46219147039E+02  0.50685777204E+02 -0.10766113623E+03  0.12774297561E+03  0.47000000000E+01 0. -1.
         -5    1    3    3    0  502 -0.38089494753E+02 -0.48951626130E+02 -0.20770698850E+02  0.65578832271E+02  0.47000000000E+01 0.  1.
<mgrwt>
<rscale>  0 0.21212303E+03</rscale>
<asrwt>0</asrwt>
<pdfrwt beam="1">  1        1 0.69064704E-01 0.21670452E+03</pdfrwt>
<pdfrwt beam="2">  1       -1 0.25922850E-01 0.21670452E+03</pdfrwt>
<totfact> 0.68578113E+02</totfact>
</mgrwt>
</event>
<event>
 8    1  0.3217375E-004  0.1646442E+03  0.7546771E-02  0.1190942E+00
          1   -1    0    0  501    0  0.00000000000E+00  0.00000000000E+00  0.78360364376E+02  0.78360364376E+02  0.00000000000E+00 0. -1.
         -1   -1    0    0    0  501 -0.00000000000E+00 -0.00000000000E+00 -0.31595474425E+03  0.31595474425E+03  0.00000000000E+00 0.  1.
         25    2    1    2    0    0  0.35787232069E+02 -0.10100642180E+03 -0.77973457384E+02  0.18217456135E+03  0.12499875009E+03 0.  0.
         23    2    1    2    0    0 -0.35787232069E+02  0.10100642180E+03 -0.15962092249E+03  0.21214054727E+03  0.89675803192E+02 0.  0.
          5    1    3    3  502    0 -0.17870390122E+02 -0.33103247626E+02 -0.87129494435E+02  0.95020074969E+02  0.47000000000E+01 0.  1.
         -5    1    4    4    0  503 -0.60471680285E+02  0.96624719500E+02 -0.12668684458E+03  0.17048403774E+03  0.47000000000E+01 0.  1.
          5    1    4    4  503    0  0.24684448216E+02  0.43817022994E+01 -0.32934077913E+02  0.41656509537E+02  0.47000000000E+01 0. -1.
         -5    1    3    3    0  502  0.53657622191E+02 -0.67903174173E+02  0.91560370515E+01  0.87154486382E+02  0.47000000000E+01 0.  1.
<mgrwt>
<rscale>  0 0.15802764E+03</rscale>
<asrwt>0</asrwt>
<pdfrwt beam="1">  1        1 0.12055440E-01 0.16464419E+03</pdfrwt>
<pdfrwt beam="2">  1       -1 0.48608423E-01 0.16464419E+03</pdfrwt>
<totfact> 0.21148497E+03</totfact>
</mgrwt>
</event>
<event>
 8    1  0.3217375E-004  0.1984099E+03  0.7546771E-02  0.1155449E+00
          2   -1    0    0  501    0  0.00000000000E+00  0.00000000000E+00  0.49265621019E+03  0.49265621019E+03  0.00000000000E+00 0.  1.
         -2   -1    0    0    0  501 -0.00000000000E+00 -0.00000000000E+00 -0.81354960841E+02  0.81354960841E+02  0.00000000000E+00 0. -1.
         25    2    1    2    0    0 -0.88553167853E+02 -0.12610065015E+03  0.31069594365E+03  0.36864406970E+03  0.12499377271E+03 0.  0.
         23    2    1    2    0    0  0.88553167853E+02  0.12610065015E+03  0.10060530570E+03  0.20536710133E+03  0.91165680324E+02 0.  0.
          5    1    4    4  502    0  0.13237617034E+00  0.55222320622E+02  0.26213555229E+01  0.55484085314E+02  0.47000000000E+01 0. -1.
         -5    1    4    4    0  502  0.88420791683E+02  0.70878329533E+02  0.97983950173E+02  0.14988301602E+03  0.47000000000E+01 0.  1.
          5    1    3    3  503    0 -0.11831212245E+03 -0.10596012065E+03  0.27601492501E+03  0.31848333444E+03  0.47000000000E+01 0. -1.
         -5    1    3    3    0  503  0.29758954600E+02 -0.20140529507E+02  0.34681018639E+02  0.50160735257E+02  0.47000000000E+01 0. -1.
<mgrwt>
<rscale>  0 0.19337847E+03</rscale>
<asrwt>0</asrwt>
<pdfrwt beam="1">  1        2 0.75793261E-01 0.19840988E+03</pdfrwt>
<pdfrwt beam="2">  1       -2 0.12516148E-01 0.19840988E+03</pdfrwt>
<totfact> 0.28853690E+03</totfact>
</mgrwt>
</event>
<event>
 8    1  0.3217375E-004  0.1435015E+03  0.7546771E-02  0.1219276E+00
          4   -1    0    0  501    0  0.00000000000E+00  0.00000000000E+00  0.10418888878E+04  0.10418888878E+04  0.00000000000E+00 0. -1.
         -4   -1    0    0    0  501 -0.00000000000E+00 -0.00000000000E+00 -0.16830647810E+02  0.16830647810E+02  0.00000000000E+00 0.  1.
         25    2    1    2    0    0 -0.65865543975E+02 -0.25094280993E+02  0.68449608453E+03  0.69937655161E+03  0.12499871354E+03 0.  0.
         23    2    1    2    0    0  0.65865543975E+02  0.25094280993E+02  0.34056215542E+03  0.35934298395E+03  0.90425691007E+02 0.  0.
          5    1    4    4  502    0  0.30403938849E+02  0.57062324926E+02  0.22669294772E+03  0.23578017510E+03  0.47000000000E+01 0. -1.
         -5    1    4    4    0  502  0.35461605125E+02 -0.31968043933E+02  0.11386920769E+03  0.12356280885E+03  0.47000000000E+01 0.  1.
          5    1    3    3  503    0 -0.33648739157E+02 -0.60050148244E+02  0.58447984197E+03  0.58853804773E+03  0.47000000000E+01 0.  1.
         -5    1    3    3    0  503 -0.32216804818E+02  0.34955867251E+02  0.10001624256E+03  0.11083850389E+03  0.47000000000E+01 0.  1.
<mgrwt>
<rscale>  0 0.13567084E+03</rscale>
<asrwt>0</asrwt>
<pdfrwt beam="1">  1        4 0.16029055E+00 0.14350147E+03</pdfrwt>
<pdfrwt beam="2">  1       -4 0.25893313E-02 0.14350147E+03</pdfrwt>
<totfact> 0.30725930E+02</totfact>
</mgrwt>
</event>
<event>
 8    1  0.3217375E-004  0.1293319E+03  0.7546771E-02  0.1243344E+00
         -2   -1    0    0    0  501 -0.00000000000E+00  0.00000000000E+00  0.18825626638E+03  0.18825626638E+03  0.00000000000E+00 0.  1.
          2   -1    0    0  501    0  0.00000000000E+00 -0.00000000000E+00 -0.67055310553E+02  0.67055310553E+02  0.00000000000E+00 0. -1.
         25    2    1    2    0    0 -0.10711820945E+02  0.31407086179E+02  0.70128663875E+02  0.14712162898E+03  0.12500238416E+03 0.  0.
         23    2    1    2    0    0  0.10711820945E+02 -0.31407086179E+02  0.51072291952E+02  0.10818994795E+03  0.89417770396E+02 0.  0.
          5    1    3    3  502    0  0.18960093048E+02 -0.82587488318E+01 -0.29163390652E+02  0.36059470531E+02  0.47000000000E+01 0.  1.
         -5    1    4    4    0  503  0.13458021587E+02 -0.51223060621E+02  0.64539448076E+02  0.83620276503E+02  0.47000000000E+01 0.  1.
          5    1    4    4  503    0 -0.27462006423E+01  0.19815974442E+02 -0.13467156125E+02  0.24569671450E+02  0.47000000000E+01 0. -1.
         -5    1    3    3    0  502 -0.29671913993E+02  0.39665835011E+02  0.99292054527E+02  0.11106215845E+03  0.47000000000E+01 0.  1.
<mgrwt>
<rscale>  0 0.11985045E+03</rscale>
<asrwt>0</asrwt>
<pdfrwt beam="1">  1        2 0.10316202E-01 0.12933191E+03</pdfrwt>
<pdfrwt beam="2">  1       -2 0.28962502E-01 0.12933191E+03</pdfrwt>
<totfact> 0.63399766E+03</totfact>
</mgrwt>
</event>
<event>
 8    1  0.3217375E-004  0.1541589E+03  0.7546771E-02  0.1203295E+00
          1   -1    0    0  501    0  0.00000000000E+00  0.00000000000E+00  0.25880765637E+02  0.25880765637E+02  0.00000000000E+00 0. -1.
         -1   -1    0    0    0  501 -0.00000000000E+00 -0.00000000000E+00 -0.78167124215E+03  0.78167124215E+03  0.00000000000E+00 0.  1.
         25    2    1    2    0    0  0.65366932378E+02 -0.62183545285E+02 -0.39109181310E+03  0.42037812041E+03  0.12500131476E+03 0.  0.
         23    2    1    2    0    0 -0.65366932378E+02  0.62183545285E+02 -0.36469866341E+03  0.38717388738E+03  0.93588860552E+02 0.  0.
          5    1    4    4  502    0 -0.39169779798E+02  0.74607721298E+02 -0.16504623864E+03  0.18537242140E+03  0.47000000000E+01 0. -1.
         -5    1    3    3    0  503  0.72437149433E+02  0.16825000948E+02 -0.19947074542E+03  0.21293400281E+03  0.47000000000E+01 0.  1.
          5    1    3    3  503    0 -0.70702170548E+01 -0.79008546232E+02 -0.19162106768E+03  0.20744411760E+03  0.47000000000E+01 0.  1.
         -5    1    4    4    0  502 -0.26197152580E+02 -0.12424176014E+02 -0.19965242477E+03  0.20180146597E+03  0.47000000000E+01 0.  1.
<mgrwt>
<rscale>  0 0.14772617E+03</rscale>
<asrwt>0</asrwt>
<pdfrwt beam="1">  1        1 0.39816557E-02 0.15415887E+03</pdfrwt>
<pdfrwt beam="2">  1       -1 0.12025713E+00 0.15415887E+03</pdfrwt>
<totfact> 0.14768725E+03</totfact>
</mgrwt>
</event>
<event>
 8    1  0.3217375E-004  0.3668842E+03  0.7546771E-02  0.1056871E+00
          2   -1    0    0  501    0  0.00000000000E+00  0.00000000000E+00  0.27846644596E+03  0.27846644596E+03  0.00000000000E+00 0. -1.
         -2   -1    0    0    0  501 -0.00000000000E+00 -0.00000000000E+00 -0.48687172013E+03  0.48687172013E+03  0.00000000000E+00 0.  1.
         25    2    1    2    0    0 -0.31274631439E+03  0.14549452122E+03 -0.34996151395E+02  0.36854954521E+03  0.12500049518E+03 0.  0.
         23    2    1    2    0    0  0.31274631439E+03 -0.14549452122E+03 -0.17340912278E+03  0.39678862088E+03  0.91605528941E+02 0.  0.
          5    1    3    3  502    0 -0.61832994823E+02  0.26992500006E+02  0.43155047331E+02  0.80226943202E+02  0.47000000000E+01 0. -1.
         -5    1    3    3    0  502 -0.25091331956E+03  0.11850202121E+03 -0.78151198726E+02  0.28832260201E+03  0.47000000000E+01 0. -1.
          5    1    4    4  503    0  0.30408618679E+03 -0.12129676796E+03 -0.14469371025E+03  0.35796602451E+03  0.47000000000E+01 0. -1.
         -5    1    4    4    0  503  0.86601275952E+01 -0.24197753260E+02 -0.28715412528E+02  0.38822596378E+02  0.47000000000E+01 0.  1.
<mgrwt>
<rscale>  0 0.36435974E+03</rscale>
<asrwt>0</asrwt>
<pdfrwt beam="1">  1        2 0.42840992E-01 0.36688423E+03</pdfrwt>
<pdfrwt beam="2">  1       -2 0.74903341E-01 0.36688423E+03</pdfrwt>
<totfact> 0.19561765E+02</totfact>
</mgrwt>
</event>
<event>
 8    1  0.3217375E-004  0.1316744E+03  0.7546771E-02  0.1235887E+00
          1   -1    0    0  501    0  0.00000000000E+00  0.00000000000E+00  0.27472175468E+03  0.27472175468E+03  0.00000000000E+00 0. -1.
         -1   -1    0    0    0  501 -0.00000000000E+00 -0.00000000000E+00 -0.51601151809E+02  0.51601151809E+02  0.00000000000E+00 0.  1.
         25    2    1    2    0    0 -0.17804174771E+02  0.37368860861E+02  0.10707455080E+03  0.16971481199E+03  0.12499895031E+03 0.  0.
         23    2    1    2    0    0  0.17804174771E+02 -0.37368860861E+02  0.11604605208E+03  0.15660809450E+03  0.96674653656E+02 0.  0.
          5    1    3    3  502    0 -0.25115413738E+02 -0.11230347538E+02  0.11620283412E+03  0.11950771260E+03  0.47000000000E+01 0.  1.
         -5    1    3    3    0  502  0.73112389666E+01  0.48599208399E+02 -0.91282833282E+01  0.50207099386E+02  0.47000000000E+01 0.  1.
          5    1    4    4  503    0  0.46856979155E+02  0.66752182104E+01  0.78115276710E+02  0.91456117834E+02  0.47000000000E+01 0. -1.
         -5    1    4    4    0  503 -0.29052804384E+02 -0.44044079071E+02  0.37930775366E+02  0.65151976667E+02  0.47000000000E+01 0.  1.
<mgrwt>
<rscale>  0 0.12447800E+03</rscale>
<asrwt>0</asrwt>
<pdfrwt beam="1">  1        1 0.42264884E-01 0.13167444E+03</pdfrwt>
<pdfrwt beam="2">  1       -1 0.79386389E-02 0.13167444E+03</pdfrwt>
<totfact> 0.80834299E+03</totfact>
</mgrwt>
</event>
<event>
 8    1  0.3217375E-004  0.1389294E+03  0.7546771E-02  0.1226299E+00
          2   -1    0    0  501    0  0.00000000000E+00  0.00000000000E+00  0.68153111806E+03  0.68153111806E+03  0.00000000000E+00 0.  1.
         -2   -1    0    0    0  501 -0.00000000000E+00 -0.00000000000E+00 -0.24865853234E+02  0.24865853234E+02  0.00000000000E+00 0. -1.
         25    2    1    2    0    0  0.44242083084E+02 -0.41458792513E+02  0.25746237538E+03  0.29255468015E+03  0.12500069098E+03 0.  0.
         23    2    1    2    0    0 -0.44242083084E+02  0.41458792513E+02  0.39920288944E+03  0.41384229115E+03  0.90698961475E+02 0.  0.
          5    1    4    4  502    0  0.37452835694E+01  0.27704551487E+02  0.30095470331E+02  0.41344850423E+02  0.47000000000E+01 0. -1.
         -5    1    3    3    0  503 -0.21904667511E+02  0.28227035094E+01 -0.46251515770E+00  0.22585084329E+02  0.47000000000E+01 0.  1.
          5    1    3    3  503    0  0.66146750595E+02 -0.44281496022E+02  0.25792489054E+03  0.26996959582E+03  0.47000000000E+01 0.  1.
         -5    1    4    4    0  502 -0.47987366653E+02  0.13754241026E+02  0.36910741911E+03  0.37249744073E+03  0.47000000000E+01 0.  1.
<mgrwt>
<rscale>  0 0.13078269E+03</rscale>
<asrwt>0</asrwt>
<pdfrwt beam="1">  1        2 0.10485093E+00 0.13892936E+03</pdfrwt>
<pdfrwt beam="2">  1       -2 0.38255164E-02 0.13892936E+03</pdfrwt>
<totfact> 0.12172092E+04</totfact>
</mgrwt>
</event>
<event>
 8    1  0.3633990E-004  0.2344794E+03  0.7546771E-02  0.1126455E+00
         -2   -1    0    0    0  501 -0.00000000000E+00  0.00000000000E+00  0.91172597599E+02  0.91172597599E+02  0.00000000000E+00 0. -1.
          2   -1    0    0  501    0  0.00000000000E+00 -0.00000000000E+00 -0.56273823219E+03  0.56273823219E+03  0.00000000000E+00 0.  1.
         25    2    1    2    0    0 -0.17218873336E+03  0.98515571781E+02 -0.25933511865E+03  0.34962162608E+03  0.12500519943E+03 0.  0.
         23    2    1    2    0    0  0.17218873336E+03 -0.98515571781E+02 -0.21223051594E+03  0.30428920370E+03  0.90530932911E+02 0.  0.
          5    1    3    3  502    0 -0.16135328493E+03  0.69574497618E+02 -0.26485770186E+03  0.31787919956E+03  0.47000000000E+01 0.  1.
         -5    1    4    4    0  503  0.96175230255E+02 -0.93585562878E+02 -0.17140492985E+03  0.21773762300E+03  0.47000000000E+01 0.  1.
          5    1    4    4  503    0  0.76013503102E+02 -0.49300089031E+01 -0.40825586089E+02  0.86551580698E+02  0.47000000000E+01 0. -1.
         -5    1    3    3    0  502 -0.10835448431E+02  0.28941074163E+02  0.55225832155E+01  0.31742426527E+02  0.47000000000E+01 0.  1.
<mgrwt>
<rscale>  0 0.23026209E+03</rscale>
<asrwt>0</asrwt>
<pdfrwt beam="1">  1        2 0.86575112E-01 0.23447938E+03</pdfrwt>
<pdfrwt beam="2">  1       -2 0.14026554E-01 0.23447938E+03</pdfrwt>
<totfact> 0.20716239E+03</totfact>
</mgrwt>
</event>
<event>
 8    1  0.3217375E-004  0.1475042E+03  0.7546771E-02  0.1213036E+00
         -2   -1    0    0    0  501 -0.00000000000E+00  0.00000000000E+00  0.16505601577E+02  0.16505601577E+02  0.00000000000E+00 0.  1.
          2   -1    0    0  501    0  0.00000000000E+00 -0.00000000000E+00 -0.11145800348E+04  0.11145800348E+04  0.00000000000E+00 0. -1.
         25    2    1    2    0    0 -0.20239315319E+02 -0.75645593471E+02 -0.69086362687E+03  0.70643473600E+03  0.12500239834E+03 0.  0.
         23    2    1    2    0    0  0.20239315319E+02  0.75645593471E+02 -0.40721080631E+03  0.42465090034E+03  0.91519728403E+02 0.  0.
          5    1    4    4  502    0  0.53452543386E+02  0.24397288363E+02 -0.21346856302E+03  0.22145726330E+03  0.47000000000E+01 0. -1.
         -5    1    4    4    0  502 -0.33213228067E+02  0.51248305107E+02 -0.19374224330E+03  0.20319363704E+03  0.47000000000E+01 0.  1.
          5    1    3    3  503    0  0.44346006209E+02 -0.11183755200E+02 -0.12388641603E+03  0.13214226699E+03  0.47000000000E+01 0. -1.
         -5    1    3    3    0  503 -0.64585321528E+02 -0.64461838271E+02 -0.56697721084E+03  0.57429246901E+03  0.47000000000E+01 0. -1.
<mgrwt>
<rscale>  0 0.14021783E+03</rscale>
<asrwt>0</asrwt>
<pdfrwt beam="1">  1        2 0.17147386E+00 0.14750419E+03</pdfrwt>
<pdfrwt beam="2">  1       -2 0.25393233E-02 0.14750419E+03</pdfrwt>
<totfact> 0.11783113E+04</totfact>
</mgrwt>
</event>
<event>
 8    1  0.3217375E-004  0.1437754E+03  0.7546771E-02  0.1218666E+00
          1   -1    0    0  501    0  0.00000000000E+00  0.00000000000E+00  0.16824470536E+03  0.16824470536E+03  0.00000000000E+00 0. -1.
         -1   -1    0    0    0  501 -0.00000000000E+00 -0.00000000000E+00 -0.10735680632E+03  0.10735680632E+03  0.00000000000E+00 0.  1.
         25    2    1    2    0    0  0.53413812000E+02 -0.46863898787E+02 -0.26642152294E+01  0.14380008389E+03  0.12498842251E+03 0.  0.
         23    2    1    2    0    0 -0.53413812000E+02  0.46863898787E+02  0.63552114273E+02  0.13180142779E+03  0.91013651821E+02 0.  0.
          5    1    3    3  502    0  0.85971182933E+02 -0.41900066251E+01 -0.17401314366E+02  0.87940299022E+02  0.47000000000E+01 0. -1.
         -5    1    3    3    0  502 -0.32557370933E+02 -0.42673892162E+02  0.14737099137E+02  0.55859784866E+02  0.47000000000E+01 0. -1.
          5    1    4    4  503    0 -0.58292941348E+02 -0.17911100876E+01  0.57964162513E+02  0.82360240543E+02  0.47000000000E+01 0. -1.
         -5    1    4    4    0  503  0.48791293483E+01  0.48655008875E+02  0.55879517593E+01  0.49441187250E+02  0.47000000000E+01 0.  1.
<mgrwt>
<rscale>  0 0.13610635E+03</rscale>
<asrwt>0</asrwt>
<pdfrwt beam="1">  1        1 0.25883801E-01 0.14377540E+03</pdfrwt>
<pdfrwt beam="2">  1       -1 0.16516432E-01 0.14377540E+03</pdfrwt>
<totfact> 0.48343058E+03</totfact>
</mgrwt>
</event>
<event>
 8    1  0.3217375E-004  0.1433410E+03  0.7546771E-02  0.1218629E+00
         -1   -1    0    0    0  501 -0.00000000000E+00  0.00000000000E+00  0.49752289020E+02  0.49752289020E+02  0.00000000000E+00 0.  1.
          1   -1    0    0  501    0  0.00000000000E+00 -0.00000000000E+00 -0.37212850541E+03  0.37212850541E+03  0.00000000000E+00 0. -1.
         25    2    1    2    0    0 -0.68329099951E+02  0.15868308756E+02 -0.11420812640E+03  0.18327613135E+03  0.12500390020E+03 0.  0.
         23    2    1    2    0    0  0.68329099951E+02 -0.15868308756E+02 -0.20816808998E+03  0.23860466307E+03  0.93153434880E+02 0.  0.
          5    1    4    4  502    0  0.14267738640E+02  0.18844864609E+02 -0.14964154651E+03  0.15156971904E+03  0.47000000000E+01 0. -1.
         -5    1    3    3    0  503 -0.43942205289E+02 -0.27483724787E+02  0.66813979350E+01  0.52469072911E+02  0.47000000000E+01 0.  1.
          5    1    3    3  503    0 -0.24386894662E+02  0.43352033543E+02 -0.12088952434E+03  0.13080705844E+03  0.47000000000E+01 0.  1.
         -5    1    4    4    0  502  0.54061361311E+02 -0.34713173365E+02 -0.58526543475E+02  0.87034944034E+02  0.47000000000E+01 0.  1.
<mgrwt>
<rscale>  0 0.13613291E+03</rscale>
<asrwt>0</asrwt>
<pdfrwt beam="1">  1        1 0.57250538E-01 0.14334101E+03</pdfrwt>
<pdfrwt beam="2">  1       -1 0.76541985E-02 0.14334101E+03</pdfrwt>
<totfact> 0.58893730E+03</totfact>
</mgrwt>
</event>
<event>
 8    1  0.3217375E-004  0.1342054E+03  0.7546771E-02  0.1234298E+00
          2   -1    0    0  501    0  0.00000000000E+00  0.00000000000E+00  0.10449242819E+04  0.10449242819E+04  0.00000000000E+00 0. -1.
         -2   -1    0    0    0  501 -0.00000000000E+00 -0.00000000000E+00 -0.13628735276E+02  0.13628735276E+02  0.00000000000E+00 0.  1.
         25    2    1    2    0    0 -0.47678916547E+02  0.10585309421E+02  0.51809709809E+03  0.53519687162E+03  0.12500304188E+03 0.  0.
         23    2    1    2    0    0  0.47678916547E+02 -0.10585309421E+02  0.51319844853E+03  0.52335614555E+03  0.90242338503E+02 0.  0.
          5    1    4    4  502    0 -0.67714283090E+01  0.30473389694E+02  0.11149223490E+03  0.11587531301E+03  0.47000000000E+01 0. -1.
         -5    1    4    4    0  502  0.54450344856E+02 -0.41058699115E+02  0.40170621363E+03  0.40748083255E+03  0.47000000000E+01 0.  1.
          5    1    3    3  503    0 -0.86737402400E+02  0.25126733940E+02  0.39250691144E+03  0.40278840011E+03  0.47000000000E+01 0. -1.
         -5    1    3    3    0  503  0.39058485854E+02 -0.14541424519E+02  0.12559018665E+03  0.13240847151E+03  0.47000000000E+01 0. -1.
<mgrwt>
<rscale>  0 0.12549485E+03</rscale>
<asrwt>0</asrwt>
<pdfrwt beam="1">  1        2 0.16075752E+00 0.13420540E+03</pdfrwt>
<pdfrwt beam="2">  1       -2 0.20967293E-02 0.13420540E+03</pdfrwt>
<totfact> 0.16996936E+04</totfact>
</mgrwt>
</event>
<event>
 8    1  0.3217375E-004  0.1294572E+03  0.7546771E-02  0.1242612E+00
          3   -1    0    0  501    0  0.00000000000E+00  0.00000000000E+00  0.25349235047E+03  0.25349235047E+03  0.00000000000E+00 0. -1.
         -3   -1    0    0    0  501 -0.00000000000E+00 -0.00000000000E+00 -0.51311924281E+02  0.51311924281E+02  0.00000000000E+00 0.  1.
         25    2    1    2    0    0  0.14677700431E+02 -0.30315977225E+02  0.13608349101E+03  0.18782405821E+03  0.12499866781E+03 0.  0.
         23    2    1    2    0    0 -0.14677700431E+02  0.30315977225E+02  0.66096935185E+02  0.11698021654E+03  0.90449283340E+02 0.  0.
          5    1    3    3  502    0  0.11555777264E+02 -0.74796541628E+02  0.11625160064E+03  0.13879691380E+03  0.47000000000E+01 0. -1.
         -5    1    3    3    0  502  0.31219231675E+01  0.44480564404E+02  0.19831890365E+02  0.49027144414E+02  0.47000000000E+01 0. -1.
          5    1    4    4  503    0 -0.47343510080E+02  0.71341253474E+01  0.58837565738E+02  0.76001663358E+02  0.47000000000E+01 0. -1.
         -5    1    4    4    0  503  0.32665809649E+02  0.23181851877E+02  0.72593694471E+01  0.40978553186E+02  0.47000000000E+01 0.  1.
<mgrwt>
<rscale>  0 0.12029449E+03</rscale>
<asrwt>0</asrwt>
<pdfrwt beam="1">  1        3 0.38998822E-01 0.12945718E+03</pdfrwt>
<pdfrwt beam="2">  1       -3 0.78941424E-02 0.12945718E+03</pdfrwt>
<totfact> 0.16209958E+03</totfact>
</mgrwt>
</event>
<event>
 8    1  0.3217375E-004  0.4667708E+03  0.7546771E-02  0.1023430E+00
          3   -1    0    0  501    0  0.00000000000E+00  0.00000000000E+00  0.11600195666E+03  0.11600195666E+03  0.00000000000E+00 0. -1.
         -3   -1    0    0    0  501 -0.00000000000E+00 -0.00000000000E+00 -0.19160069942E+04  0.19160069942E+04  0.00000000000E+00 0.  1.
         25    2    1    2    0    0  0.25898071302E+03 -0.36766038369E+03 -0.11032096678E+04  0.11978925470E+04  0.12501926114E+03 0.  0.
         23    2    1    2    0    0 -0.25898071302E+03  0.36766038369E+03 -0.69679536973E+03  0.83411640383E+03  0.89337676330E+02 0.  0.
          5    1    4    4  502    0 -0.49651358819E+02  0.85482280445E+02 -0.94619453962E+02  0.13692117722E+03  0.47000000000E+01 0. -1.
         -5    1    3    3    0  503  0.17251746871E+03 -0.31508419527E+03 -0.77118613963E+03  0.85075876667E+03  0.47000000000E+01 0.  1.
          5    1    3    3  503    0  0.86463244313E+02 -0.52576188419E+02 -0.33202352817E+03  0.34713378036E+03  0.47000000000E+01 0.  1.
         -5    1    4    4    0  502 -0.20932935420E+03  0.28217810324E+03 -0.60217591577E+03  0.69719522661E+03  0.47000000000E+01 0.  1.
<mgrwt>
<rscale>  0 0.46469036E+03</rscale>
<asrwt>0</asrwt>
<pdfrwt beam="1">  1        3 0.17846457E-01 0.46677080E+03</pdfrwt>
<pdfrwt beam="2">  1       -3 0.29477028E+00 0.46677080E+03</pdfrwt>
<totfact> 0.31247366E+00</totfact>
</mgrwt>
</event>
<event>
 8    1  0.3217375E-004  0.1489679E+03  0.7546771E-02  0.1211136E+00
         -2   -1    0    0    0  501 -0.00000000000E+00  0.00000000000E+00  0.61807210948E+02  0.61807210948E+02  0.00000000000E+00 0.  1.
          2   -1    0    0  501    0  0.00000000000E+00 -0.00000000000E+00 -0.29684417501E+03  0.29684417501E+03  0.00000000000E+00 0. -1.
         25    2    1    2    0    0  0.78245225694E+02  0.20917792842E+02 -0.12285956097E+03  0.19309557226E+03  0.12502623286E+03 0.  0.
         23    2    1    2    0    0 -0.78245225694E+02 -0.20917792842E+02 -0.11217740309E+03  0.16555581370E+03  0.90912530951E+02 0.  0.
          5    1    3    3  502    0  0.96758979538E+02  0.28407133349E+00 -0.38621054512E+02  0.10428833429E+03  0.47000000000E+01 0. -1.
         -5    1    3    3    0  502 -0.18513753844E+02  0.20633721509E+02 -0.84238506459E+02  0.88807237966E+02  0.47000000000E+01 0. -1.
          5    1    4    4  503    0 -0.26447987494E+02  0.35810658267E+02 -0.43026114175E+02  0.62090545086E+02  0.47000000000E+01 0. -1.
         -5    1    4    4    0  503 -0.51797238201E+02 -0.56728451110E+02 -0.69151288911E+02  0.10346526861E+03  0.47000000000E+01 0.  1.
<mgrwt>
<rscale>  0 0.14164252E+03</rscale>
<asrwt>0</asrwt>
<pdfrwt beam="1">  1        2 0.45668333E-01 0.14896788E+03</pdfrwt>
<pdfrwt beam="2">  1       -2 0.95088021E-02 0.14896788E+03</pdfrwt>
<totfact> 0.76123350E+03</totfact>
</mgrwt>
</event>
<event>
 8    1  0.3217375E-004  0.2114505E+03  0.7546771E-02  0.1144270E+00
          2   -1    0    0  501    0  0.00000000000E+00  0.00000000000E+00  0.17771177723E+04  0.17771177723E+04  0.00000000000E+00 0. -1.
         -2   -1    0    0    0  501 -0.00000000000E+00 -0.00000000000E+00 -0.23132918584E+02  0.23132918584E+02  0.00000000000E+00 0.  1.
         25    2    1    2    0    0 -0.58370096780E+02 -0.16025025053E+03  0.98846256700E+03  0.10108261875E+04  0.12499649576E+03 0.  0.
         23    2    1    2    0    0  0.58370096780E+02  0.16025025053E+03  0.76552228671E+03  0.78942450339E+03  0.89885839355E+02 0.  0.
          5    1    3    3  502    0 -0.92293062397E+02 -0.89766987404E+02  0.51187697195E+03  0.52784111795E+03  0.47000000000E+01 0.  1.
         -5    1    4    4    0  503 -0.88444170274E+01  0.40427217529E+02  0.79338293593E+02  0.89606017989E+02  0.47000000000E+01 0.  1.
          5    1    4    4  503    0  0.67214513808E+02  0.11982303300E+03  0.68618399312E+03  0.69981848540E+03  0.47000000000E+01 0. -1.
         -5    1    3    3    0  502  0.33922965617E+02 -0.70483263125E+02  0.47658559506E+03  0.48298506953E+03  0.47000000000E+01 0.  1.
<mgrwt>
<rscale>  0 0.20662165E+03</rscale>
<asrwt>0</asrwt>
<pdfrwt beam="1">  1        2 0.27340263E+00 0.21145055E+03</pdfrwt>
<pdfrwt beam="2">  1       -2 0.35589119E-02 0.21145055E+03</pdfrwt>
<totfact> 0.31883270E+03</totfact>
</mgrwt>
</event>
<event>
 8    1  0.3217375E-004  0.1307232E+03  0.7546771E-02  0.1240876E+00
         -2   -1    0    0    0  501 -0.00000000000E+00  0.00000000000E+00  0.22453276076E+02  0.22453276076E+02  0.00000000000E+00 0.  1.
          2   -1    0    0  501    0  0.00000000000E+00 -0.00000000000E+00 -0.58392007133E+03  0.58392007133E+03  0.00000000000E+00 0. -1.
         25    2    1    2    0    0  0.25342269223E+02 -0.28779624315E+02 -0.29123863207E+03  0.31923110725E+03  0.12497224349E+03 0.  0.
         23    2    1    2    0    0 -0.25342269223E+02  0.28779624315E+02 -0.27022816319E+03  0.28714224016E+03  0.89201505122E+02 0.  0.
          5    1    3    3  502    0 -0.21873164636E+02  0.40432433451E+02 -0.89195594984E+02  0.10045477177E+03  0.47000000000E+01 0.  1.
         -5    1    4    4    0  503 -0.41446405379E+02  0.10448133200E+02 -0.25365362417E+03  0.25727265510E+03  0.47000000000E+01 0. -1.
          5    1    4    4  503    0  0.16104136156E+02  0.18331491114E+02 -0.16574539016E+02  0.29869585055E+02  0.47000000000E+01 0.  1.
         -5    1    3    3    0  502  0.47215433859E+02 -0.69212057766E+02 -0.20204303708E+03  0.21877633548E+03  0.47000000000E+01 0.  1.
<mgrwt>
<rscale>  0 0.12135665E+03</rscale>
<asrwt>0</asrwt>
<pdfrwt beam="1">  1        2 0.89833852E-01 0.13072322E+03</pdfrwt>
<pdfrwt beam="2">  1       -2 0.34543504E-02 0.13072322E+03</pdfrwt>
<totfact> 0.16841530E+04</totfact>
</mgrwt>
</event>
<event>
 8    1  0.3217375E-004  0.1283384E+03  0.7546771E-02  0.1243498E+00
         -1   -1    0    0    0  501 -0.00000000000E+00  0.00000000000E+00  0.79032607905E+02  0.79032607905E+02  0.00000000000E+00 0.  1.
          1   -1    0    0  501    0  0.00000000000E+00 -0.00000000000E+00 -0.16503025929E+03  0.16503025929E+03  0.00000000000E+00 0. -1.
         25    2    1    2    0    0 -0.26073737364E+02  0.12930876427E+02 -0.30012031534E+02  0.13180082394E+03  0.12499475112E+03 0.  0.
         23    2    1    2    0    0  0.26073737364E+02 -0.12930876427E+02 -0.55985619850E+02  0.11226204326E+03  0.92851114052E+02 0.  0.
          5    1    4    4  502    0  0.22938697719E+02 -0.49381465735E+02 -0.51519187431E+02  0.75106788540E+02  0.47000000000E+01 0. -1.
         -5    1    3    3    0  503  0.27041323524E+02 -0.37255514341E+02  0.11425458998E+02  0.47663798003E+02  0.47000000000E+01 0.  1.
          5    1    3    3  503    0 -0.53115060889E+02  0.50186390768E+02 -0.41437490532E+02  0.84137025935E+02  0.47000000000E+01 0.  1.
         -5    1    4    4    0  502  0.31350396459E+01  0.36450589308E+02 -0.44664324194E+01  0.37155254717E+02  0.47000000000E+01 0.  1.
<mgrwt>
<rscale>  0 0.11975725E+03</rscale>
<asrwt>0</asrwt>
<pdfrwt beam="1">  1        1 0.25389270E-01 0.12833836E+03</pdfrwt>
<pdfrwt beam="2">  1       -1 0.12158863E-01 0.12833836E+03</pdfrwt>
<totfact> 0.79284308E+03</totfact>
</mgrwt>
</event>
<event>
 8    1  0.3217375E-004  0.1498052E+03  0.7546771E-02  0.1211487E+00
         -1   -1    0    0    0  501 -0.00000000000E+00  0.00000000000E+00  0.41685220801E+02  0.41685220801E+02  0.00000000000E+00 0.  1.
          1   -1    0    0  501    0  0.00000000000E+00 -0.00000000000E+00 -0.49567475385E+03  0.49567475385E+03  0.00000000000E+00 0. -1.
         25    2    1    2    0    0  0.40324723888E+02 -0.72053070229E+02 -0.15471848907E+03  0.21535876575E+03  0.12499543527E+03 0.  0.
         23    2    1    2    0    0 -0.40324723888E+02  0.72053070229E+02 -0.29927104398E+03  0.32200120890E+03  0.85462813451E+02 0.  0.
          5    1    3    3  502    0 -0.42735205976E+02 -0.43864982264E+02 -0.54727892309E+02  0.82265829452E+02  0.47000000000E+01 0.  1.
         -5    1    4    4    0  503 -0.15087371594E+01  0.61828947830E+02 -0.25333549828E+03  0.26081805874E+03  0.47000000000E+01 0.  1.
          5    1    4    4  503    0 -0.38815986729E+02  0.10224122400E+02 -0.45935545700E+02  0.61183150158E+02  0.47000000000E+01 0. -1.
         -5    1    3    3    0  502  0.83059929864E+02 -0.28188087966E+02 -0.99990596758E+02  0.13309293630E+03  0.47000000000E+01 0.  1.
<mgrwt>
<rscale>  0 0.14137762E+03</rscale>
<asrwt>0</asrwt>
<pdfrwt beam="1">  1        1 0.76257656E-01 0.14980516E+03</pdfrwt>
<pdfrwt beam="2">  1       -1 0.64131107E-02 0.14980516E+03</pdfrwt>
<totfact> 0.53405270E+03</totfact>
</mgrwt>
</event>
<event>
 8    1  0.3217375E-004  0.1512219E+03  0.7546771E-02  0.1209575E+00
          1   -1    0    0  501    0  0.00000000000E+00  0.00000000000E+00  0.91646370897E+03  0.91646370897E+03  0.00000000000E+00 0. -1.
         -1   -1    0    0    0  501 -0.00000000000E+00 -0.00000000000E+00 -0.20261119309E+02  0.20261119309E+02  0.00000000000E+00 0.  1.
         25    2    1    2    0    0 -0.50345328499E+02 -0.68653818254E+02  0.45936452051E+03  0.48361536459E+03  0.12498023565E+03 0.  0.
         23    2    1    2    0    0  0.50345328499E+02  0.68653818254E+02  0.43683806915E+03  0.45310946369E+03  0.85045214800E+02 0.  0.
          5    1    3    3  502    0 -0.70058785611E+02  0.89361481803E+01  0.22918120251E+03  0.23986288118E+03  0.47000000000E+01 0. -1.
         -5    1    4    4    0  503 -0.20508681464E+02  0.28316089806E+02  0.87313231011E+02  0.94170575377E+02  0.47000000000E+01 0.  1.
          5    1    4    4  503    0  0.70854009963E+02  0.40337728449E+02  0.34952483814E+03  0.35893888831E+03  0.47000000000E+01 0. -1.
         -5    1    3    3    0  502  0.19713457112E+02 -0.77589966434E+02  0.23018331800E+03  0.24375248341E+03  0.47000000000E+01 0. -1.
<mgrwt>
<rscale>  0 0.14282678E+03</rscale>
<asrwt>0</asrwt>
<pdfrwt beam="1">  1        1 0.14099438E+00 0.15122188E+03</pdfrwt>
<pdfrwt beam="2">  1       -1 0.31170960E-02 0.15122188E+03</pdfrwt>
<totfact> 0.64424734E+03</totfact>
</mgrwt>
</event>
<event>
 8    1  0.3217375E-004  0.1332494E+03  0.7546771E-02  0.1234990E+00
         -2   -1    0    0    0  501 -0.00000000000E+00  0.00000000000E+00  0.17276239315E+03  0.17276239315E+03  0.00000000000E+00 0.  1.
          2   -1    0    0  501    0  0.00000000000E+00 -0.00000000000E+00 -0.84118962644E+02  0.84118962644E+02  0.00000000000E+00 0. -1.
         25    2    1    2    0    0  0.64653027341E+01  0.45714542185E+02  0.74204825069E+02  0.15251803276E+03  0.12499509889E+03 0.  0.
         23    2    1    2    0    0 -0.64653027341E+01 -0.45714542185E+02  0.14438605439E+02  0.10436332303E+03  0.92474917469E+02 0.  0.
          5    1    3    3  502    0  0.39720894964E+02 -0.96941915588E+01  0.77383295335E+02  0.87646969392E+02  0.47000000000E+01 0. -1.
         -5    1    3    3    0  502 -0.33255592230E+02  0.55408733743E+02 -0.31784702652E+01  0.64871063371E+02  0.47000000000E+01 0. -1.
          5    1    4    4  503    0  0.48607819859E+01 -0.20691076815E+02 -0.38676839251E+02  0.44381705192E+02  0.47000000000E+01 0. -1.
         -5    1    4    4    0  503 -0.11326084720E+02 -0.25023465369E+02  0.53115444690E+02  0.59981617841E+02  0.47000000000E+01 0.  1.
<mgrwt>
<rscale>  0 0.12505086E+03</rscale>
<asrwt>0</asrwt>
<pdfrwt beam="1">  1        2 0.12941379E-01 0.13324937E+03</pdfrwt>
<pdfrwt beam="2">  1       -2 0.26578830E-01 0.13324937E+03</pdfrwt>
<totfact> 0.56295515E+03</totfact>
</mgrwt>
</event>
<event>
 8    1  0.3217375E-004  0.1381025E+03  0.7546771E-02  0.1227298E+00
          4   -1    0    0  501    0  0.00000000000E+00  0.00000000000E+00  0.23945957750E+03  0.23945957750E+03  0.00000000000E+00 0. -1.
         -4   -1    0    0    0  501 -0.00000000000E+00 -0.00000000000E+00 -0.78405905185E+02  0.78405905185E+02  0.00000000000E+00 0.  1.
         25    2    1    2    0    0 -0.11185384593E+02 -0.57627654593E+02  0.15686369484E+03  0.20899408974E+03  0.12500500544E+03 0.  0.
         23    2    1    2    0    0  0.11185384593E+02  0.57627654593E+02  0.41899774728E+01  0.10887139294E+03  0.91593476230E+02 0.  0.
          5    1    4    4  502    0 -0.17585001717E+02  0.73265046594E+02 -0.25754832716E+00  0.75492752426E+02  0.47000000000E+01 0. -1.
         -5    1    4    4    0  502  0.28770386311E+02 -0.15637392001E+02  0.44475257999E+01  0.33378640517E+02  0.47000000000E+01 0.  1.
          5    1    3    3  503    0  0.15883476670E+02 -0.57493124047E+02  0.16876186606E+03  0.17905418615E+03  0.47000000000E+01 0.  1.
         -5    1    3    3    0  503 -0.27068861263E+02 -0.13453054584E+00 -0.11898171215E+02  0.29939903587E+02  0.47000000000E+01 0.  1.
<mgrwt>
<rscale>  0 0.13010657E+03</rscale>
<asrwt>0</asrwt>
<pdfrwt beam="1">  1        4 0.36839935E-01 0.13810254E+03</pdfrwt>
<pdfrwt beam="2">  1       -4 0.12062447E-01 0.13810254E+03</pdfrwt>
<totfact> 0.65459949E+02</totfact>
</mgrwt>
</event>
<event>
 8    1  0.3217375E-004  0.1325919E+03  0.7546771E-02  0.1235450E+00
         -1   -1    0    0    0  501 -0.00000000000E+00  0.00000000000E+00  0.86177217513E+03  0.86177217513E+03  0.00000000000E+00 0.  1.
          1   -1    0    0  501    0  0.00000000000E+00 -0.00000000000E+00 -0.19462020193E+02  0.19462020193E+02  0.00000000000E+00 0. -1.
         25    2    1    2    0    0 -0.23945161566E+02 -0.37206247162E+02  0.28520782527E+03  0.31452205848E+03  0.12499178407E+03 0.  0.
         23    2    1    2    0    0  0.23945161566E+02  0.37206247162E+02  0.55710232967E+03  0.56671213684E+03  0.94031721953E+02 0.  0.
          5    1    3    3  502    0 -0.41414518871E+02  0.66629177734E+01  0.25455289183E+03  0.25802872240E+03  0.47000000000E+01 0. -1.
         -5    1    3    3    0  502  0.17469357305E+02 -0.43869164935E+02  0.30654933439E+02  0.56493336075E+02  0.47000000000E+01 0. -1.
          5    1    4    4  503    0  0.41590309820E+02 -0.12218673394E+02  0.14982424406E+03  0.15603987939E+03  0.47000000000E+01 0. -1.
         -5    1    4    4    0  503 -0.17645148254E+02  0.49424920556E+02  0.40727808561E+03  0.41067225746E+03  0.47000000000E+01 0.  1.
<mgrwt>
<rscale>  0 0.12475673E+03</rscale>
<asrwt>0</asrwt>
<pdfrwt beam="1">  1        1 0.29941576E-02 0.13259194E+03</pdfrwt>
<pdfrwt beam="2">  1       -1 0.13258030E+00 0.13259194E+03</pdfrwt>
<totfact> 0.17217539E+03</totfact>
</mgrwt>
</event>
<event>
 8    1  0.3217375E-004  0.1305371E+03  0.7546771E-02  0.1238284E+00
         -2   -1    0    0    0  501 -0.00000000000E+00  0.00000000000E+00  0.17784227604E+02  0.17784227604E+02  0.00000000000E+00 0.  1.
          2   -1    0    0  501    0  0.00000000000E+00 -0.00000000000E+00 -0.87656821410E+03  0.87656821410E+03  0.00000000000E+00 0. -1.
         25    2    1    2    0    0 -0.10757450015E+02  0.36040939930E+02 -0.31562784893E+03  0.34155656308E+03  0.12500109871E+03 0.  0.
         23    2    1    2    0    0  0.10757450015E+02 -0.36040939930E+02 -0.54315613757E+03  0.55279587863E+03  0.95655745111E+02 0.  0.
          5    1    4    4  502    0  0.14888722593E+02  0.31271227254E+02 -0.16797479632E+03  0.17157268405E+03  0.47000000000E+01 0. -1.
         -5    1    4    4    0  502 -0.41312725779E+01 -0.67312167184E+02 -0.37518134125E+03  0.38122319458E+03  0.47000000000E+01 0.  1.
          5    1    3    3  503    0 -0.64158223470E+02  0.79207787375E+01 -0.11514975688E+03  0.13213846104E+03  0.47000000000E+01 0. -1.
         -5    1    3    3    0  503  0.53400773454E+02  0.28120161192E+02 -0.20047809205E+03  0.20941810204E+03  0.47000000000E+01 0. -1.
<mgrwt>
<rscale>  0 0.12296534E+03</rscale>
<asrwt>0</asrwt>
<pdfrwt beam="1">  1        2 0.13485660E+00 0.13053715E+03</pdfrwt>
<pdfrwt beam="2">  1       -2 0.27360361E-02 0.13053715E+03</pdfrwt>
<totfact> 0.14575907E+04</totfact>
</mgrwt>
</event>
<event>
 8    1  0.3217375E-004  0.1337112E+03  0.7546771E-02  0.1234219E+00
         -2   -1    0    0    0  501 -0.00000000000E+00  0.00000000000E+00  0.23422422709E+03  0.23422422709E+03  0.00000000000E+00 0.  1.
          2   -1    0    0  501    0  0.00000000000E+00 -0.00000000000E+00 -0.60884221571E+02  0.60884221571E+02  0.00000000000E+00 0. -1.
         25    2    1    2    0    0  0.29817557982E+02  0.36925619570E+02  0.11209687231E+03  0.17448323342E+03  0.12500440719E+03 0.  0.
         23    2    1    2    0    0 -0.29817557982E+02 -0.36925619570E+02  0.61243133214E+02  0.12062521525E+03  0.92450706016E+02 0.  0.
          5    1    3    3  502    0  0.62246210285E+02  0.45190067243E+02  0.11724066995E+03  0.14030038333E+03  0.47000000000E+01 0.  1.
         -5    1    4    4    0  503 -0.59607937850E+02 -0.20234332595E+02  0.58472330266E+02  0.86044394803E+02  0.47000000000E+01 0.  1.
          5    1    4    4  503    0  0.29790379869E+02 -0.16691286975E+02  0.27708029486E+01  0.34580820444E+02  0.47000000000E+01 0. -1.
         -5    1    3    3    0  502 -0.32428652303E+02 -0.82644476729E+01 -0.51437976464E+01  0.34182850082E+02  0.47000000000E+01 0.  1.
<mgrwt>
<rscale>  0 0.12554588E+03</rscale>
<asrwt>0</asrwt>
<pdfrwt beam="1">  1        2 0.93668034E-02 0.13371122E+03</pdfrwt>
<pdfrwt beam="2">  1       -2 0.36034496E-01 0.13371122E+03</pdfrwt>
<totfact> 0.48080207E+03</totfact>
</mgrwt>
</event>
<event>
 8    1  0.3217375E-004  0.1398430E+03  0.7546771E-02  0.1224580E+00
          2   -1    0    0  501    0  0.00000000000E+00  0.00000000000E+00  0.41665874163E+02  0.41665874163E+02  0.00000000000E+00 0. -1.
         -2   -1    0    0    0  501 -0.00000000000E+00 -0.00000000000E+00 -0.38294305106E+03  0.38294305106E+03  0.00000000000E+00 0.  1.
         25    2    1    2    0    0 -0.61440309501E+02 -0.12580461729E+02 -0.16410930143E+03  0.21561061338E+03  0.12499157627E+03 0.  0.
         23    2    1    2    0    0  0.61440309501E+02  0.12580461729E+02 -0.17716787547E+03  0.20899831184E+03  0.91425699915E+02 0.  0.
          5    1    4    4  502    0  0.74636238172E+02 -0.71792004828E+01 -0.83828089592E+02  0.11256708032E+03  0.47000000000E+01 0. -1.
         -5    1    3    3    0  503 -0.65873222209E+02 -0.40843005635E+02 -0.38446270834E+02  0.86646628639E+02  0.47000000000E+01 0.  1.
          5    1    3    3  503    0  0.44329127074E+01  0.28262543906E+02 -0.12566303059E+03  0.12896398474E+03  0.47000000000E+01 0.  1.
         -5    1    4    4    0  502 -0.13195928671E+02  0.19759662212E+02 -0.93339785877E+02  0.96431231517E+02  0.47000000000E+01 0.  1.
<mgrwt>
<rscale>  0 0.13195709E+03</rscale>
<asrwt>0</asrwt>
<pdfrwt beam="1">  1        2 0.64101343E-02 0.13984303E+03</pdfrwt>
<pdfrwt beam="2">  1       -2 0.58914317E-01 0.13984303E+03</pdfrwt>
<totfact> 0.29844143E+03</totfact>
</mgrwt>
</event>
<event>
 8    1  0.3217375E-004  0.1269038E+03  0.7546771E-02  0.1247027E+00
          2   -1    0    0  501    0  0.00000000000E+00  0.00000000000E+00  0.10230982568E+04  0.10230982568E+04  0.00000000000E+00 0. -1.
         -2   -1    0    0    0  501 -0.00000000000E+00 -0.00000000000E+00 -0.12852184557E+02  0.12852184557E+02  0.00000000000E+00 0.  1.
         25    2    1    2    0    0 -0.53478806511E+01 -0.21239418844E+02  0.71518819622E+03  0.72635992013E+03  0.12499945926E+03 0.  0.
         23    2    1    2    0    0  0.53478806511E+01  0.21239418844E+02  0.29505787605E+03  0.30959052125E+03  0.91145092529E+02 0.  0.
          5    1    4    4  502    0  0.38489757509E+02 -0.13511799551E+02  0.18361905442E+03  0.18815439752E+03  0.47000000000E+01 0. -1.
         -5    1    3    3    0  503 -0.63991928211E+02 -0.22675481630E+02  0.38206907686E+03  0.38808248329E+03  0.47000000000E+01 0.  1.
          5    1    3    3  503    0  0.58644047559E+02  0.14360627864E+01  0.33311911936E+03  0.33827743684E+03  0.47000000000E+01 0.  1.
         -5    1    4    4    0  502 -0.33141876858E+02  0.34751218395E+02  0.11143882163E+03  0.12143612374E+03  0.47000000000E+01 0.  1.
<mgrwt>
<rscale>  0 0.11764865E+03</rscale>
<asrwt>0</asrwt>
<pdfrwt beam="1">  1        2 0.15739967E+00 0.12690381E+03</pdfrwt>
<pdfrwt beam="2">  1       -2 0.19772600E-02 0.12690381E+03</pdfrwt>
<totfact> 0.18986262E+04</totfact>
</mgrwt>
</event>
<event>
 8    1  0.3217375E-004  0.1613652E+03  0.7546771E-02  0.1194546E+00
          2   -1    0    0  501    0  0.00000000000E+00  0.00000000000E+00  0.10423168705E+04  0.10423168705E+04  0.00000000000E+00 0. -1.
         -2   -1    0    0    0  501 -0.00000000000E+00 -0.00000000000E+00 -0.21503440382E+02  0.21503440382E+02  0.00000000000E+00 0.  1.
         25    2    1    2    0    0 -0.73929637688E+02 -0.70304642544E+02  0.50956925589E+03  0.53450871093E+03  0.12502160380E+03 0.  0.
         23    2    1    2    0    0  0.73929637688E+02  0.70304642544E+02  0.51124417424E+03  0.52931159997E+03  0.91606932450E+02 0.  0.
          5    1    4    4  502    0  0.23560408790E+02 -0.21070411408E+02  0.14408608775E+03  0.14758707865E+03  0.47000000000E+01 0. -1.
         -5    1    4    4    0  502  0.50369228898E+02  0.91375053953E+02  0.36715808649E+03  0.38172452132E+03  0.47000000000E+01 0.  1.
          5    1    3    3  503    0 -0.10929140147E+03 -0.52605679100E+02  0.39367971526E+03  0.41196817367E+03  0.47000000000E+01 0.  1.
         -5    1    3    3    0  503  0.35361763777E+02 -0.17698963445E+02  0.11588954063E+03  0.12254053726E+03  0.47000000000E+01 0.  1.
<mgrwt>
<rscale>  0 0.15492720E+03</rscale>
<asrwt>0</asrwt>
<pdfrwt beam="1">  1        2 0.16035640E+00 0.16136522E+03</pdfrwt>
<pdfrwt beam="2">  1       -2 0.33082224E-02 0.16136522E+03</pdfrwt>
<totfact> 0.88310265E+03</totfact>
</mgrwt>
</event>
<event>
 8    1  0.3217375E-004  0.1338181E+03  0.7546771E-02  0.1234015E+00
          4   -1    0    0  501    0  0.00000000000E+00  0.00000000000E+00  0.63245300889E+02  0.63245300889E+02  0.00000000000E+00 0. -1.
         -4   -1    0    0    0  501 -0.00000000000E+00 -0.00000000000E+00 -0.22766977346E+03  0.22766977346E+03  0.00000000000E+00 0.  1.
         25    2    1    2    0    0 -0.27721762568E+02 -0.38900731582E+02 -0.11120275566E+03  0.17399234290E+03  0.12500207792E+03 0.  0.
         23    2    1    2    0    0  0.27721762568E+02  0.38900731582E+02 -0.53221716918E+02  0.11692273145E+03  0.92501951012E+02 0.  0.
          5    1    4    4  502    0 -0.26265019619E+01  0.21739876490E+02  0.23534755205E+02  0.32488389386E+02  0.47000000000E+01 0. -1.
         -5    1    3    3    0  503  0.41966137334E+02 -0.80169546546E+00 -0.76091911496E+02  0.87027974775E+02  0.47000000000E+01 0.  1.
          5    1    3    3  503    0 -0.69687899902E+02 -0.38099036117E+02 -0.35110844160E+02  0.86964368125E+02  0.47000000000E+01 0.  1.
         -5    1    4    4    0  502  0.30348264530E+02  0.17160855092E+02 -0.76756472123E+02  0.84434342066E+02  0.47000000000E+01 0.  1.
<mgrwt>
<rscale>  0 0.12567724E+03</rscale>
<asrwt>0</asrwt>
<pdfrwt beam="1">  1        4 0.97300461E-02 0.13381809E+03</pdfrwt>
<pdfrwt beam="2">  1       -4 0.35026120E-01 0.13381809E+03</pdfrwt>
<totfact> 0.10326882E+03</totfact>
</mgrwt>
</event>
<event>
 8    1  0.3217375E-004  0.1272884E+03  0.7546771E-02  0.1245007E+00
         -1   -1    0    0    0  501 -0.00000000000E+00  0.00000000000E+00  0.28081270045E+02  0.28081270045E+02  0.00000000000E+00 0.  1.
          1   -1    0    0  501    0  0.00000000000E+00 -0.00000000000E+00 -0.44958135953E+03  0.44958135953E+03  0.00000000000E+00 0. -1.
         25    2    1    2    0    0  0.18667795496E+02 -0.15091623675E+02 -0.25781480496E+03  0.28752531171E+03  0.12500435003E+03 0.  0.
         23    2    1    2    0    0 -0.18667795496E+02  0.15091623675E+02 -0.16368528452E+03  0.19013731786E+03  0.93718107001E+02 0.  0.
          5    1    3    3  502    0  0.12482663049E+02 -0.65331704870E+02 -0.19853038056E+03  0.20942886750E+03  0.47000000000E+01 0. -1.
         -5    1    4    4    0  503 -0.16393887730E+02  0.54403884668E+02 -0.10011869997E+03  0.11521452298E+03  0.47000000000E+01 0.  1.
          5    1    4    4  503    0 -0.22739077661E+01 -0.39312260993E+02 -0.63566584551E+02  0.74922794878E+02  0.47000000000E+01 0. -1.
         -5    1    3    3    0  502  0.61851324467E+01  0.50240081195E+02 -0.59284424398E+02  0.78096444209E+02  0.47000000000E+01 0. -1.
<mgrwt>
<rscale>  0 0.11884944E+03</rscale>
<asrwt>0</asrwt>
<pdfrwt beam="1">  1        1 0.69166361E-01 0.12728838E+03</pdfrwt>
<pdfrwt beam="2">  1       -1 0.43201955E-02 0.12728838E+03</pdfrwt>
<totfact> 0.10771668E+04</totfact>
</mgrwt>
</event>
<event>
 8    1  0.3217375E-004  0.1430622E+03  0.7546771E-02  0.1219111E+00
          2   -1    0    0  501    0  0.00000000000E+00  0.00000000000E+00  0.51266657365E+03  0.51266657365E+03  0.00000000000E+00 0. -1.
         -2   -1    0    0    0  501 -0.00000000000E+00 -0.00000000000E+00 -0.43870638198E+02  0.43870638198E+02  0.00000000000E+00 0.  1.
         25    2    1    2    0    0 -0.63979217123E+02 -0.27367755819E+02  0.39209495227E+03  0.41737901661E+03  0.12499783048E+03 0.  0.
         23    2    1    2    0    0  0.63979217123E+02  0.27367755819E+02  0.76700983181E+02  0.13915819524E+03  0.92949600322E+02 0.  0.
          5    1    3    3  502    0 -0.41958571538E+02  0.33056649065E+02  0.30118835136E+03  0.30592446252E+03  0.47000000000E+01 0.  1.
         -5    1    3    3    0  502 -0.22020645585E+02 -0.60424404884E+02  0.90906600913E+02  0.11145455409E+03  0.47000000000E+01 0.  1.
          5    1    4    4  503    0  0.77224098332E+02 -0.55517696523E+01  0.65870643535E+02  0.10176156047E+03  0.47000000000E+01 0. -1.
         -5    1    4    4    0  503 -0.13244881209E+02  0.32919525471E+02  0.10830339646E+02  0.37396634773E+02  0.47000000000E+01 0.  1.
<mgrwt>
<rscale>  0 0.13578844E+03</rscale>
<asrwt>0</asrwt>
<pdfrwt beam="1">  1        2 0.78871777E-01 0.14306220E+03</pdfrwt>
<pdfrwt beam="2">  1       -2 0.67493293E-02 0.14306220E+03</pdfrwt>
<totfact> 0.71741022E+03</totfact>
</mgrwt>
</event>
<event>
 8    1  0.3217375E-004  0.1475833E+03  0.7546771E-02  0.1213890E+00
          1   -1    0    0  501    0  0.00000000000E+00  0.00000000000E+00  0.40963903845E+03  0.40963903845E+03  0.00000000000E+00 0. -1.
         -1   -1    0    0    0  501 -0.00000000000E+00 -0.00000000000E+00 -0.43527981569E+02  0.43527981569E+02  0.00000000000E+00 0.  1.
         25    2    1    2    0    0  0.42500705602E+02 -0.66002118641E+02  0.18025077604E+03  0.23296171084E+03  0.12497290432E+03 0.  0.
         23    2    1    2    0    0 -0.42500705602E+02  0.66002118641E+02  0.18586028084E+03  0.22020530918E+03  0.88225532324E+02 0.  0.
          5    1    3    3  502    0 -0.48572331279E+01 -0.41540481261E+02 -0.28687080568E+01  0.42184402129E+02  0.47000000000E+01 0. -1.
         -5    1    4    4    0  503 -0.13061695903E+02  0.32766054585E+02  0.75330064837E+01  0.36373870011E+02  0.47000000000E+01 0.  1.
          5    1    4    4  503    0 -0.29439009699E+02  0.33236064056E+02  0.17832727436E+03  0.18383143917E+03  0.47000000000E+01 0. -1.
         -5    1    3    3    0  502  0.47357938730E+02 -0.24461637379E+02  0.18311948410E+03  0.19077730871E+03  0.47000000000E+01 0. -1.
<mgrwt>
<rscale>  0 0.13958390E+03</rscale>
<asrwt>0</asrwt>
<pdfrwt beam="1">  1        1 0.63021388E-01 0.14758325E+03</pdfrwt>
<pdfrwt beam="2">  1       -1 0.66966128E-02 0.14758325E+03</pdfrwt>
<totfact> 0.63900414E+03</totfact>
</mgrwt>
</event>
<event>
 8    1  0.3217375E-004  0.1330708E+03  0.7546771E-02  0.1237169E+00
          2   -1    0    0  501    0  0.00000000000E+00  0.00000000000E+00  0.37814924023E+03  0.37814924023E+03  0.00000000000E+00 0. -1.
         -2   -1    0    0    0  501 -0.00000000000E+00 -0.00000000000E+00 -0.36462043429E+02  0.36462043429E+02  0.00000000000E+00 0.  1.
         25    2    1    2    0    0  0.28231799478E+02  0.35849388171E+02  0.22514414160E+03  0.26152956350E+03  0.12500245978E+03 0.  0.
         23    2    1    2    0    0 -0.28231799478E+02 -0.35849388171E+02  0.11654305520E+03  0.15308172017E+03  0.88144859173E+02 0.  0.
          5    1    4    4  502    0 -0.34449038640E+02  0.18036231713E+02  0.74945672032E+02  0.84563500838E+02  0.47000000000E+01 0. -1.
         -5    1    3    3    0  503 -0.11665559344E+02  0.63461801635E+02  0.19193401826E+03  0.20254442206E+03  0.47000000000E+01 0.  1.
          5    1    3    3  503    0  0.39897358822E+02 -0.27612413464E+02  0.33210123343E+02  0.58985141440E+02  0.47000000000E+01 0.  1.
         -5    1    4    4    0  502  0.62172391617E+01 -0.53885619884E+02  0.41597383171E+02  0.68518219327E+02  0.47000000000E+01 0.  1.
<mgrwt>
<rscale>  0 0.12366621E+03</rscale>
<asrwt>0</asrwt>
<pdfrwt beam="1">  1        2 0.58176803E-01 0.13307076E+03</pdfrwt>
<pdfrwt beam="2">  1       -2 0.56095454E-02 0.13307076E+03</pdfrwt>
<totfact> 0.13138698E+04</totfact>
</mgrwt>
</event>
<event>
 8    1  0.3217375E-004  0.1455401E+03  0.7546771E-02  0.1216750E+00
         -1   -1    0    0    0  501 -0.00000000000E+00  0.00000000000E+00  0.18120927248E+03  0.18120927248E+03  0.00000000000E+00 0. -1.
          1   -1    0    0  501    0  0.00000000000E+00 -0.00000000000E+00 -0.10815117191E+03  0.10815117191E+03  0.00000000000E+00 0.  1.
         25    2    1    2    0    0 -0.30406899292E+02  0.68053649226E+02  0.91620126617E+02  0.17197723132E+03  0.12500416711E+03 0.  0.
         23    2    1    2    0    0  0.30406899292E+02 -0.68053649226E+02 -0.18562026047E+02  0.11738321306E+03  0.88760301936E+02 0.  0.
          5    1    4    4  502    0  0.10076340532E+02 -0.86709280559E+02 -0.18679808116E+02  0.89392713376E+02  0.47000000000E+01 0. -1.
         -5    1    4    4    0  502  0.20330558760E+02  0.18655631333E+02  0.11778206913E+00  0.27990499684E+02  0.47000000000E+01 0.  1.
          5    1    3    3  503    0  0.45851226199E+02  0.14672946874E+02  0.13115578826E+02  0.50117249744E+02  0.47000000000E+01 0.  1.
         -5    1    3    3    0  503 -0.76258125492E+02  0.53380702352E+02  0.78504547791E+02  0.12185998158E+03  0.47000000000E+01 0.  1.
<mgrwt>
<rscale>  0 0.13748767E+03</rscale>
<asrwt>0</asrwt>
<pdfrwt beam="1">  1        1 0.16638642E-01 0.14554010E+03</pdfrwt>
<pdfrwt beam="2">  1       -1 0.27878350E-01 0.14554010E+03</pdfrwt>
<totfact> 0.36315837E+03</totfact>
</mgrwt>
</event>
<event>
 8    1  0.3217375E-004  0.1598112E+03  0.7546771E-02  0.1198592E+00
          2   -1    0    0  501    0  0.00000000000E+00  0.00000000000E+00  0.71702012539E+02  0.71702012539E+02  0.00000000000E+00 0. -1.
         -2   -1    0    0    0  501 -0.00000000000E+00 -0.00000000000E+00 -0.29478740223E+03  0.29478740223E+03  0.00000000000E+00 0.  1.
         25    2    1    2    0    0 -0.74820060330E+02 -0.65697109149E+02 -0.10325904652E+03  0.19026834847E+03  0.12500184864E+03 0.  0.
         23    2    1    2    0    0  0.74820060330E+02  0.65697109149E+02 -0.11982634317E+03  0.17622106630E+03  0.82349014031E+02 0.  0.
          5    1    4    4  502    0  0.27112423554E+02  0.47555322883E+00  0.44803728007E+01  0.27883210043E+02  0.47000000000E+01 0. -1.
         -5    1    4    4    0  502  0.47707636776E+02  0.65221555920E+02 -0.12430671597E+03  0.14833785626E+03  0.47000000000E+01 0.  1.
          5    1    3    3  503    0 -0.67656008150E+02 -0.10050800686E+03 -0.63998302522E+02  0.13710239825E+03  0.47000000000E+01 0. -1.
         -5    1    3    3    0  503 -0.71640521802E+01  0.34810897709E+02 -0.39260743998E+02  0.53165950215E+02  0.47000000000E+01 0. -1.
<mgrwt>
<rscale>  0 0.15154107E+03</rscale>
<asrwt>0</asrwt>
<pdfrwt beam="1">  1        2 0.11031079E-01 0.15981118E+03</pdfrwt>
<pdfrwt beam="2">  1       -2 0.45351908E-01 0.15981118E+03</pdfrwt>
<totfact> 0.25694255E+03</totfact>
</mgrwt>
</event>
<event>
 8    1  0.3217375E-004  0.2070954E+03  0.7546771E-02  0.1147713E+00
         -2   -1    0    0    0  501 -0.00000000000E+00  0.00000000000E+00  0.14602479611E+03  0.14602479611E+03  0.00000000000E+00 0. -1.
          2   -1    0    0  501    0  0.00000000000E+00 -0.00000000000E+00 -0.26869479969E+03  0.26869479969E+03  0.00000000000E+00 0.  1.
         25    2    1    2    0    0  0.15943601439E+03  0.42911147823E+02 -0.60869846062E+02  0.21585564588E+03  0.12500924928E+03 0.  0.
         23    2    1    2    0    0 -0.15943601439E+03 -0.42911147823E+02 -0.61800157517E+02  0.19886394992E+03  0.92013052416E+02 0.  0.
          5    1    4    4  502    0 -0.72558113360E+02 -0.19768205345E+02  0.19201573060E+02  0.77757650202E+02  0.47000000000E+01 0. -1.
         -5    1    3    3    0  503  0.38500566579E+01  0.20381136235E+02  0.28034329918E+02  0.35188454135E+02  0.47000000000E+01 0. -1.
          5    1    3    3  503    0  0.15558595773E+03  0.22530011588E+02 -0.88904175979E+02  0.18066719174E+03  0.47000000000E+01 0. -1.
         -5    1    4    4    0  502 -0.86877901032E+02 -0.23142942478E+02 -0.81001730577E+02  0.12110629972E+03  0.47000000000E+01 0.  1.
<mgrwt>
<rscale>  0 0.20241999E+03</rscale>
<asrwt>0</asrwt>
<pdfrwt beam="1">  1        2 0.41337661E-01 0.20709544E+03</pdfrwt>
<pdfrwt beam="2">  1       -2 0.22465353E-01 0.20709544E+03</pdfrwt>
<totfact> 0.20945327E+03</totfact>
</mgrwt>
</event>
<event>
 8    1  0.3217375E-004  0.3603620E+03  0.7546771E-02  0.1059418E+00
          2   -1    0    0  501    0  0.00000000000E+00  0.00000000000E+00  0.24204405136E+03  0.24204405136E+03  0.00000000000E+00 0. -1.
         -2   -1    0    0    0  501 -0.00000000000E+00 -0.00000000000E+00 -0.52217940569E+03  0.52217940569E+03  0.00000000000E+00 0.  1.
         25    2    1    2    0    0 -0.21918764573E+03  0.25727989799E+03 -0.13767577931E+03  0.38576601571E+03  0.12499851486E+03 0.  0.
         23    2    1    2    0    0  0.21918764573E+03 -0.25727989799E+03 -0.14245957502E+03  0.37845744134E+03  0.93269150528E+02 0.  0.
          5    1    4    4  502    0  0.17367111607E+03 -0.18933641753E+03 -0.63531368850E+02  0.26470409968E+03  0.47000000000E+01 0. -1.
         -5    1    4    4    0  502  0.45516529660E+02 -0.67943480454E+02 -0.78928206168E+02  0.11375334165E+03  0.47000000000E+01 0.  1.
          5    1    3    3  503    0 -0.11687500346E+02  0.44690470732E+02  0.18655760043E+02  0.50039616519E+02  0.47000000000E+01 0.  1.
         -5    1    3    3    0  503 -0.20750014538E+03  0.21258942726E+03 -0.15633153936E+03  0.33572639919E+03  0.47000000000E+01 0.  1.
<mgrwt>
<rscale>  0 0.35790178E+03</rscale>
<asrwt>0</asrwt>
<pdfrwt beam="1">  1        2 0.37237547E-01 0.36036204E+03</pdfrwt>
<pdfrwt beam="2">  1       -2 0.80335292E-01 0.36036204E+03</pdfrwt>
<totfact> 0.19543469E+02</totfact>
</mgrwt>
</event>
<event>
 8    1  0.3217375E-004  0.2189910E+03  0.7546771E-02  0.1138102E+00
         -1   -1    0    0    0  501 -0.00000000000E+00  0.00000000000E+00  0.98951555662E+02  0.98951555662E+02  0.00000000000E+00 0.  1.
          1   -1    0    0  501    0  0.00000000000E+00 -0.00000000000E+00 -0.88175048308E+03  0.88175048308E+03  0.00000000000E+00 0. -1.
         25    2    1    2    0    0  0.17975586804E+03 -0.42937990841E+01 -0.74414396693E+03  0.77569793510E+03  0.12500573664E+03 0.  0.
         23    2    1    2    0    0 -0.17975586804E+03  0.42937990841E+01 -0.38654960486E+02  0.20500410364E+03  0.90564163635E+02 0.  0.
          5    1    3    3  502    0  0.16085279685E+03  0.27064087301E+02 -0.43932756918E+03  0.46865433969E+03  0.47000000000E+01 0. -1.
         -5    1    4    4    0  503 -0.16477470609E+03 -0.26208821491E+02 -0.34577540114E+02  0.17045615968E+03  0.47000000000E+01 0.  1.
          5    1    4    4  503    0 -0.14981161945E+02  0.30502620575E+02 -0.40774203724E+01  0.34547943963E+02  0.47000000000E+01 0. -1.
         -5    1    3    3    0  502  0.18903071189E+02 -0.31357886385E+02 -0.30481639775E+03  0.30704359540E+03  0.47000000000E+01 0. -1.
<mgrwt>
<rscale>  0 0.21443469E+03</rscale>
<asrwt>0</asrwt>
<pdfrwt beam="1">  1        1 0.13565392E+00 0.21899097E+03</pdfrwt>
<pdfrwt beam="2">  1       -1 0.15223316E-01 0.21899097E+03</pdfrwt>
<totfact> 0.62442846E+02</totfact>
</mgrwt>
</event>
<event>
 8    1  0.3217375E-004  0.1290903E+03  0.7546771E-02  0.1247351E+00
          2   -1    0    0  501    0  0.00000000000E+00  0.00000000000E+00  0.38086794427E+03  0.38086794427E+03  0.00000000000E+00 0. -1.
         -2   -1    0    0    0  501 -0.00000000000E+00 -0.00000000000E+00 -0.46395292279E+02  0.46395292279E+02  0.00000000000E+00 0.  1.
         25    2    1    2    0    0 -0.28891767069E+02  0.14308094436E+02  0.30947560028E+03  0.33531991029E+03  0.12499935718E+03 0.  0.
         23    2    1    2    0    0  0.28891767069E+02 -0.14308094436E+02  0.24997051707E+02  0.91943326256E+02  0.82397007702E+02 0.  0.
          5    1    4    4  502    0 -0.25708965335E+02 -0.14176561337E+02 -0.39025416561E+01  0.29987424386E+02  0.47000000000E+01 0. -1.
         -5    1    3    3    0  503 -0.51102453041E+02 -0.38856670493E+02  0.21623608184E+03  0.22561346290E+03  0.47000000000E+01 0.  1.
          5    1    3    3  503    0  0.22210685972E+02  0.53164764929E+02  0.93239518437E+02  0.10970644739E+03  0.47000000000E+01 0.  1.
         -5    1    4    4    0  502  0.54600732404E+02 -0.13153309820E+00  0.28899593363E+02  0.61955901870E+02  0.47000000000E+01 0.  1.
<mgrwt>
<rscale>  0 0.11745769E+03</rscale>
<asrwt>0</asrwt>
<pdfrwt beam="1">  1        2 0.58595066E-01 0.12909026E+03</pdfrwt>
<pdfrwt beam="2">  1       -2 0.71377375E-02 0.12909026E+03</pdfrwt>
<totfact> 0.90201600E+03</totfact>
</mgrwt>
</event>
<event>
 8    1  0.3217375E-004  0.1391037E+03  0.7546771E-02  0.1226504E+00
          1   -1    0    0  501    0  0.00000000000E+00  0.00000000000E+00  0.10424466182E+03  0.10424466182E+03  0.00000000000E+00 0. -1.
         -1   -1    0    0    0  501 -0.00000000000E+00 -0.00000000000E+00 -0.14852609060E+03  0.14852609060E+03  0.00000000000E+00 0.  1.
         25    2    1    2    0    0 -0.40533514905E+02  0.45627666034E+02 -0.38756373934E+02  0.14440189800E+03  0.12500000755E+03 0.  0.
         23    2    1    2    0    0  0.40533514905E+02 -0.45627666034E+02 -0.55250548484E+01  0.10836885441E+03  0.89378032187E+02 0.  0.
          5    1    3    3  502    0  0.13258798627E+02  0.70686779650E+02 -0.44326963128E+02  0.84613156297E+02  0.47000000000E+01 0.  1.
         -5    1    4    4    0  503 -0.41540367714E+00 -0.29437692905E+02 -0.41649259626E+02  0.51220124474E+02  0.47000000000E+01 0.  1.
          5    1    4    4  503    0  0.40948918582E+02 -0.16189973129E+02  0.36124204777E+02  0.57148729940E+02  0.47000000000E+01 0. -1.
         -5    1    3    3    0  502 -0.53792313532E+02 -0.25059113616E+02  0.55705891939E+01  0.59788741702E+02  0.47000000000E+01 0.  1.
<mgrwt>
<rscale>  0 0.13064384E+03</rscale>
<asrwt>0</asrwt>
<pdfrwt beam="1">  1        1 0.16037640E-01 0.13910374E+03</pdfrwt>
<pdfrwt beam="2">  1       -1 0.22850168E-01 0.13910374E+03</pdfrwt>
<totfact> 0.52697183E+03</totfact>
</mgrwt>
</event>
<event>
 8    1  0.3217375E-004  0.2214665E+03  0.7546771E-02  0.1136271E+00
         -1   -1    0    0    0  501 -0.00000000000E+00  0.00000000000E+00  0.53571752247E+03  0.53571752247E+03  0.00000000000E+00 0.  1.
          1   -1    0    0  501    0  0.00000000000E+00 -0.00000000000E+00 -0.84965885157E+02  0.84965885157E+02  0.00000000000E+00 0. -1.
         25    2    1    2    0    0 -0.67397541852E+02 -0.16994211960E+03  0.26287946821E+03  0.34373392834E+03  0.12499858409E+03 0.  0.
         23    2    1    2    0    0  0.67397541852E+02  0.16994211960E+03  0.18787216910E+03  0.27694947929E+03  0.89343771433E+02 0.  0.
          5    1    3    3  502    0  0.28563831102E+02 -0.68331623771E+02  0.51671797249E+02  0.90427694239E+02  0.47000000000E+01 0. -1.
         -5    1    3    3    0  502 -0.95961372955E+02 -0.10161049582E+03  0.21120767096E+03  0.25330623410E+03  0.47000000000E+01 0. -1.
          5    1    4    4  503    0  0.79363169937E+02  0.10271725404E+03  0.15109446828E+03  0.19925103605E+03  0.47000000000E+01 0. -1.
         -5    1    4    4    0  503 -0.11965628085E+02  0.67224865556E+02  0.36777700818E+02  0.77698443240E+02  0.47000000000E+01 0.  1.
<mgrwt>
<rscale>  0 0.21682666E+03</rscale>
<asrwt>0</asrwt>
<pdfrwt beam="1">  1        1 0.13071675E-01 0.22146647E+03</pdfrwt>
<pdfrwt beam="2">  1       -1 0.82418078E-01 0.22146647E+03</pdfrwt>
<totfact> 0.68532912E+02</totfact>
</mgrwt>
</event>
<event>
 8    1  0.3217375E-004  0.1374839E+03  0.7546771E-02  0.1230017E+00
          1   -1    0    0  501    0  0.00000000000E+00  0.00000000000E+00  0.15906883726E+04  0.15906883726E+04  0.00000000000E+00 0. -1.
         -1   -1    0    0    0  501 -0.00000000000E+00 -0.00000000000E+00 -0.10222741797E+02  0.10222741797E+02  0.00000000000E+00 0.  1.
         25    2    1    2    0    0 -0.44998063616E+02  0.35465715133E+02  0.11410412139E+04  0.11492940728E+04  0.12497668282E+03 0.  0.
         23    2    1    2    0    0  0.44998063616E+02 -0.35465715133E+02  0.43942441686E+03  0.45161704156E+03  0.87071760180E+02 0.  0.
          5    1    3    3  502    0 -0.77980129861E+02 -0.12427050199E+02  0.67025911399E+03  0.67491088457E+03  0.47000000000E+01 0.  1.
         -5    1    4    4    0  503  0.45328670008E+02  0.82074653157E+01  0.11104466857E+03  0.12031234030E+03  0.47000000000E+01 0.  1.
          5    1    4    4  503    0 -0.33060639181E+00 -0.43673180449E+02  0.32837974829E+03  0.33130470126E+03  0.47000000000E+01 0. -1.
         -5    1    3    3    0  502  0.32982066245E+02  0.47892765332E+02  0.47078209995E+03  0.47438318825E+03  0.47000000000E+01 0.  1.
<mgrwt>
<rscale>  0 0.12828864E+03</rscale>
<asrwt>0</asrwt>
<pdfrwt beam="1">  1        1 0.24472109E+00 0.13748387E+03</pdfrwt>
<pdfrwt beam="2">  1       -1 0.15727308E-02 0.13748387E+03</pdfrwt>
<totfact> 0.59651496E+03</totfact>
</mgrwt>
</event>
<event>
 8    1  0.3217375E-004  0.1387104E+03  0.7546771E-02  0.1226511E+00
         -3   -1    0    0    0  501 -0.00000000000E+00  0.00000000000E+00  0.38782918737E+03  0.38782918737E+03  0.00000000000E+00 0.  1.
          3   -1    0    0  501    0  0.00000000000E+00 -0.00000000000E+00 -0.40406224163E+02  0.40406224163E+02  0.00000000000E+00 0. -1.
         25    2    1    2    0    0 -0.23666379113E+01 -0.60079701160E+02  0.16393003530E+03  0.21474083227E+03  0.12500158841E+03 0.  0.
         23    2    1    2    0    0  0.23666379113E+01  0.60079701160E+02  0.18349292791E+03  0.21349457927E+03  0.91077490723E+02 0.  0.
          5    1    3    3  502    0  0.55289254211E+02 -0.14355220004E+02  0.37861089506E+02  0.68691528380E+02  0.47000000000E+01 0.  1.
         -5    1    3    3    0  502 -0.57655892122E+02 -0.45724481156E+02  0.12606894579E+03  0.14604930389E+03  0.47000000000E+01 0.  1.
          5    1    4    4  503    0 -0.20187343179E+02  0.77510105571E+02  0.13354961083E+03  0.15579773375E+03  0.47000000000E+01 0. -1.
         -5    1    4    4    0  503  0.22553981090E+02 -0.17430404411E+02  0.49943317083E+02  0.57696845514E+02  0.47000000000E+01 0.  1.
<mgrwt>
<rscale>  0 0.13063873E+03</rscale>
<asrwt>0</asrwt>
<pdfrwt beam="1">  1        3 0.62163424E-02 0.13871038E+03</pdfrwt>
<pdfrwt beam="2">  1       -3 0.59666026E-01 0.13871038E+03</pdfrwt>
<totfact> 0.10359624E+03</totfact>
</mgrwt>
</event>
<event>
 8    1  0.3217375E-004  0.1329065E+03  0.7546771E-02  0.1235404E+00
         -1   -1    0    0    0  501 -0.00000000000E+00  0.00000000000E+00  0.30911363285E+03  0.30911363285E+03  0.00000000000E+00 0.  1.
          1   -1    0    0  501    0  0.00000000000E+00 -0.00000000000E+00 -0.45921851348E+02  0.45921851348E+02  0.00000000000E+00 0. -1.
         25    2    1    2    0    0  0.41814993407E+02  0.17045307177E+02  0.12449555788E+03  0.18210791625E+03  0.12500045224E+03 0.  0.
         23    2    1    2    0    0 -0.41814993407E+02 -0.17045307177E+02  0.13869622363E+03  0.17292756795E+03  0.92888455349E+02 0.  0.
          5    1    4    4  502    0 -0.44974988526E+02  0.49195687739E+01  0.16102212848E+02  0.48252699494E+02  0.47000000000E+01 0. -1.
         -5    1    3    3    0  503  0.41989182029E+02 -0.47297466519E+02  0.37085927191E+02  0.73468345171E+02  0.47000000000E+01 0. -1.
          5    1    3    3  503    0 -0.17418862214E+00  0.64342773696E+02  0.87409630685E+02  0.10863957108E+03  0.47000000000E+01 0. -1.
         -5    1    4    4    0  502  0.31599951193E+01 -0.21964875951E+02  0.12259401078E+03  0.12467486845E+03  0.47000000000E+01 0.  1.
<mgrwt>
<rscale>  0 0.12478621E+03</rscale>
<asrwt>0</asrwt>
<pdfrwt beam="1">  1        1 0.70649004E-02 0.13290654E+03</pdfrwt>
<pdfrwt beam="2">  1       -1 0.47555942E-01 0.13290654E+03</pdfrwt>
<totfact> 0.44400521E+03</totfact>
</mgrwt>
</event>
<event>
 8    1  0.3217375E-004  0.1373922E+03  0.7546771E-02  0.1228499E+00
          2   -1    0    0  501    0  0.00000000000E+00  0.00000000000E+00  0.30683949122E+03  0.30683949122E+03  0.00000000000E+00 0. -1.
         -2   -1    0    0    0  501 -0.00000000000E+00 -0.00000000000E+00 -0.50225424189E+02  0.50225424189E+02  0.00000000000E+00 0.  1.
         25    2    1    2    0    0 -0.32508709847E+02 -0.46854041260E+02  0.11540569800E+03  0.17942988298E+03  0.12499796150E+03 0.  0.
         23    2    1    2    0    0  0.32508709847E+02  0.46854041260E+02  0.14120836903E+03  0.17763503243E+03  0.91445524015E+02 0.  0.
          5    1    4    4  502    0  0.28840160735E+02  0.82105909238E+01  0.13460006685E+03  0.13797984154E+03  0.47000000000E+01 0. -1.
         -5    1    4    4    0  502  0.36685491117E+01  0.38643450336E+02  0.66083021765E+01  0.39655190885E+02  0.47000000000E+01 0.  1.
          5    1    3    3  503    0  0.30552608948E+01 -0.70031368429E+02  0.17186877322E+02  0.72327076087E+02  0.47000000000E+01 0.  1.
         -5    1    3    3    0  503 -0.35563970742E+02  0.23177327169E+02  0.98218820676E+02  0.10710280689E+03  0.47000000000E+01 0.  1.
<mgrwt>
<rscale>  0 0.12929927E+03</rscale>
<asrwt>0</asrwt>
<pdfrwt beam="1">  1        2 0.47206074E-01 0.13739217E+03</pdfrwt>
<pdfrwt beam="2">  1       -2 0.77269885E-02 0.13739217E+03</pdfrwt>
<totfact> 0.10089634E+04</totfact>
</mgrwt>
</event>
<event>
 8    1  0.3217375E-004  0.2337944E+03  0.7546771E-02  0.1126792E+00
          2   -1    0    0  501    0  0.00000000000E+00  0.00000000000E+00  0.16378902054E+04  0.16378902054E+04  0.00000000000E+00 0.  1.
         -2   -1    0    0    0  501 -0.00000000000E+00 -0.00000000000E+00 -0.33887328718E+02  0.33887328718E+02  0.00000000000E+00 0. -1.
         25    2    1    2    0    0  0.19740069100E+03  0.81976716407E+01  0.10637445087E+04  0.10891336837E+04  0.12500226648E+03 0.  0.
         23    2    1    2    0    0 -0.19740069100E+03 -0.81976716407E+01  0.54025836798E+03  0.58264385038E+03  0.92523065167E+02 0.  0.
          5    1    3    3  502    0 -0.14503239426E+02  0.15325661541E+02  0.10806344911E+03  0.11020444133E+03  0.47000000000E+01 0. -1.
         -5    1    4    4    0  503 -0.73374053470E+02  0.41126952283E+02  0.22545355366E+03  0.24067939834E+03  0.47000000000E+01 0.  1.
          5    1    4    4  503    0 -0.12402663753E+03 -0.49324623923E+02  0.31480481432E+03  0.34196445204E+03  0.47000000000E+01 0. -1.
         -5    1    3    3    0  502  0.21190393043E+03 -0.71279898998E+01  0.95568105960E+03  0.97892924242E+03  0.47000000000E+01 0. -1.
<mgrwt>
<rscale>  0 0.22978433E+03</rscale>
<asrwt>0</asrwt>
<pdfrwt beam="1">  1        2 0.25198305E+00 0.23379436E+03</pdfrwt>
<pdfrwt beam="2">  1       -2 0.52134365E-02 0.23379436E+03</pdfrwt>
<totfact> 0.21185970E+03</totfact>
</mgrwt>
</event>
<event>
 8    1  0.3217375E-004  0.1406022E+03  0.7546771E-02  0.1223117E+00
         -2   -1    0    0    0  501 -0.00000000000E+00  0.00000000000E+00  0.54444198015E+02  0.54444198015E+02  0.00000000000E+00 0. -1.
          2   -1    0    0  501    0  0.00000000000E+00 -0.00000000000E+00 -0.38914074556E+03  0.38914074556E+03  0.00000000000E+00 0.  1.
         25    2    1    2    0    0 -0.24076880216E+02 -0.59697462286E+02 -0.72297455618E+02  0.15810091977E+03  0.12500198230E+03 0.  0.
         23    2    1    2    0    0  0.24076880216E+02  0.59697462286E+02 -0.26239909193E+03  0.28548402380E+03  0.92219093672E+02 0.  0.
          5    1    4    4  502    0 -0.14366083615E+02  0.70517555946E+02 -0.17498454172E+03  0.18926381032E+03  0.47000000000E+01 0. -1.
         -5    1    4    4    0  502  0.38442963832E+02 -0.10820093661E+02 -0.87414550204E+02  0.96220213481E+02  0.47000000000E+01 0.  1.
          5    1    3    3  503    0  0.20694332053E+02 -0.41531461128E+02 -0.93993753004E+02  0.10492870554E+03  0.47000000000E+01 0. -1.
         -5    1    3    3    0  503 -0.44771212270E+02 -0.18166001158E+02  0.21696297387E+02  0.53172214233E+02  0.47000000000E+01 0. -1.
<mgrwt>
<rscale>  0 0.13296770E+03</rscale>
<asrwt>0</asrwt>
<pdfrwt beam="1">  1        2 0.59867808E-01 0.14060220E+03</pdfrwt>
<pdfrwt beam="2">  1       -2 0.83760304E-02 0.14060220E+03</pdfrwt>
<totfact> 0.69294409E+03</totfact>
</mgrwt>
</event>
<event>
 8    1  0.3217375E-004  0.1394656E+03  0.7546771E-02  0.1224625E+00
         -3   -1    0    0    0  501 -0.00000000000E+00  0.00000000000E+00  0.31361980428E+02  0.31361980428E+02  0.00000000000E+00 0.  1.
          3   -1    0    0  501    0  0.00000000000E+00 -0.00000000000E+00 -0.50319761592E+03  0.50319761592E+03  0.00000000000E+00 0. -1.
         25    2    1    2    0    0  0.21299717744E+02  0.58061844271E+02 -0.26998186761E+03  0.30387638612E+03  0.12500317383E+03 0.  0.
         23    2    1    2    0    0 -0.21299717744E+02 -0.58061844271E+02 -0.20185376788E+03  0.23068321023E+03  0.92978191726E+02 0.  0.
          5    1    4    4  502    0 -0.48847013855E+02 -0.63900165028E+02 -0.16855845740E+03  0.18682426345E+03  0.47000000000E+01 0. -1.
         -5    1    4    4    0  502  0.27547296110E+02  0.58383207575E+01 -0.33295310484E+02  0.43858946778E+02  0.47000000000E+01 0.  1.
          5    1    3    3  503    0  0.46129768748E+02  0.82210938484E+02 -0.23975687539E+03  0.25766653502E+03  0.47000000000E+01 0.  1.
         -5    1    3    3    0  503 -0.24830051004E+02 -0.24149094213E+02 -0.30224992215E+02  0.46209851098E+02  0.47000000000E+01 0.  1.
<mgrwt>
<rscale>  0 0.13192671E+03</rscale>
<asrwt>0</asrwt>
<pdfrwt beam="1">  1        3 0.77415012E-01 0.13946558E+03</pdfrwt>
<pdfrwt beam="2">  1       -3 0.48249204E-02 0.13946558E+03</pdfrwt>
<totfact> 0.89732863E+02</totfact>
</mgrwt>
</event>
<event>
 8    1  0.3217375E-004  0.1285245E+03  0.7546771E-02  0.1244171E+00
         -1   -1    0    0    0  501 -0.00000000000E+00  0.00000000000E+00  0.21860086007E+02  0.21860086007E+02  0.00000000000E+00 0.  1.
          1   -1    0    0  501    0  0.00000000000E+00 -0.00000000000E+00 -0.65479853014E+03  0.65479853014E+03  0.00000000000E+00 0. -1.
         25    2    1    2    0    0 -0.13956122188E+01 -0.29837060918E+02 -0.23981920019E+03  0.27208782829E+03  0.12500535822E+03 0.  0.
         23    2    1    2    0    0  0.13956122188E+01  0.29837060918E+02 -0.39311924394E+03  0.40457078786E+03  0.90788680441E+02 0.  0.
          5    1    3    3  502    0 -0.44520295737E+02 -0.44312478277E+02 -0.61634047539E+02  0.88127738423E+02  0.47000000000E+01 0.  1.
         -5    1    4    4    0  503 -0.37074997094E+02  0.37162931076E+02 -0.16967572911E+03  0.17767268193E+03  0.47000000000E+01 0.  1.
          5    1    4    4  503    0  0.38470609313E+02 -0.73258701574E+01 -0.22344351484E+03  0.22689810593E+03  0.47000000000E+01 0. -1.
         -5    1    3    3    0  502  0.43124683518E+02  0.14475417359E+02 -0.17818515265E+03  0.18396008986E+03  0.47000000000E+01 0.  1.
<mgrwt>
<rscale>  0 0.11935115E+03</rscale>
<asrwt>0</asrwt>
<pdfrwt beam="1">  1        1 0.10073824E+00 0.12852446E+03</pdfrwt>
<pdfrwt beam="2">  1       -1 0.33630899E-02 0.12852446E+03</pdfrwt>
<totfact> 0.94393976E+03</totfact>
</mgrwt>
</event>
<event>
 8    1  0.3217375E-004  0.1530619E+03  0.7546771E-02  0.1205234E+00
         -2   -1    0    0    0  501 -0.00000000000E+00  0.00000000000E+00  0.11311872223E+02  0.11311872223E+02  0.00000000000E+00 0.  1.
          2   -1    0    0  501    0  0.00000000000E+00 -0.00000000000E+00 -0.18878424973E+04  0.18878424973E+04  0.00000000000E+00 0. -1.
         25    2    1    2    0    0  0.57508054493E+02 -0.67049591350E+02 -0.75097263388E+03  0.76641232279E+03  0.12500051064E+03 0.  0.
         23    2    1    2    0    0 -0.57508054493E+02  0.67049591350E+02 -0.11255579912E+04  0.11327420467E+04  0.91765619101E+02 0.  0.
          5    1    3    3  502    0  0.91881899348E+02 -0.39658178474E+02 -0.38668679299E+03  0.39945440343E+03  0.47000000000E+01 0. -1.
         -5    1    4    4    0  503  0.23878665862E+02  0.10257652495E+02 -0.17100601016E+03  0.17303339454E+03  0.47000000000E+01 0.  1.
          5    1    4    4  503    0 -0.81386720355E+02  0.56791938854E+02 -0.95455198103E+03  0.95970865218E+03  0.47000000000E+01 0. -1.
         -5    1    3    3    0  502 -0.34373844855E+02 -0.27391412875E+02 -0.36428584089E+03  0.36695791937E+03  0.47000000000E+01 0. -1.
<mgrwt>
<rscale>  0 0.14619055E+03</rscale>
<asrwt>0</asrwt>
<pdfrwt beam="1">  1        2 0.29043696E+00 0.15306192E+03</pdfrwt>
<pdfrwt beam="2">  1       -2 0.17402901E-02 0.15306192E+03</pdfrwt>
<totfact> 0.79758027E+03</totfact>
</mgrwt>
</event>
<event>
 8    1  0.3217375E-004  0.1447885E+03  0.7546771E-02  0.1217547E+00
         -2   -1    0    0    0  501 -0.00000000000E+00  0.00000000000E+00  0.99916037985E+03  0.99916037985E+03  0.00000000000E+00 0.  1.
          2   -1    0    0  501    0  0.00000000000E+00 -0.00000000000E+00 -0.16987391365E+02  0.16987391365E+02  0.00000000000E+00 0. -1.
         25    2    1    2    0    0  0.25928761655E+02  0.68310776423E+02  0.55130474832E+03  0.57000056688E+03  0.12500023146E+03 0.  0.
         23    2    1    2    0    0 -0.25928761655E+02 -0.68310776423E+02  0.43086824017E+03  0.44614720434E+03  0.89784323234E+02 0.  0.
          5    1    4    4  502    0  0.48516883700E+01 -0.41646565373E+02  0.61914752718E+02  0.74923306731E+02  0.47000000000E+01 0. -1.
         -5    1    3    3    0  503  0.69422369544E+02  0.40564243423E+02  0.43895068283E+03  0.44627874158E+03  0.47000000000E+01 0.  1.
          5    1    3    3  503    0 -0.43493607889E+02  0.27746533000E+02  0.11235406549E+03  0.12372182529E+03  0.47000000000E+01 0.  1.
         -5    1    4    4    0  502 -0.30780450025E+02 -0.26664211051E+02  0.36895348745E+03  0.37122389761E+03  0.47000000000E+01 0.  1.
<mgrwt>
<rscale>  0 0.13691098E+03</rscale>
<asrwt>0</asrwt>
<pdfrwt beam="1">  1        2 0.26134456E-02 0.14478854E+03</pdfrwt>
<pdfrwt beam="2">  1       -2 0.15371694E+00 0.14478854E+03</pdfrwt>
<totfact> 0.10924089E+03</totfact>
</mgrwt>
</event>
<event>
 8    1  0.3217375E-004  0.1390102E+03  0.7546771E-02  0.1225600E+00
          1   -1    0    0  501    0  0.00000000000E+00  0.00000000000E+00  0.32802831132E+03  0.32802831132E+03  0.00000000000E+00 0. -1.
         -1   -1    0    0    0  501 -0.00000000000E+00 -0.00000000000E+00 -0.75600446779E+02  0.75600446779E+02  0.00000000000E+00 0.  1.
         25    2    1    2    0    0  0.25438983144E+02 -0.55249869690E+02  0.12614873043E+02  0.13958145155E+03  0.12499662648E+03 0.  0.
         23    2    1    2    0    0 -0.25438983144E+02  0.55249869690E+02  0.23981299149E+03  0.26404730654E+03  0.92255185425E+02 0.  0.
          5    1    3    3  502    0 -0.43527407688E+02 -0.35168242612E+01  0.27708338479E+02  0.51931159184E+02  0.47000000000E+01 0. -1.
         -5    1    4    4    0  503  0.22013954998E+02  0.23530775012E+02  0.23178961664E+02  0.39970812490E+02  0.47000000000E+01 0.  1.
          5    1    4    4  503    0 -0.47452938142E+02  0.31719094679E+02  0.21663402983E+03  0.22407649405E+03  0.47000000000E+01 0. -1.
         -5    1    3    3    0  502  0.68966390832E+02 -0.51733045429E+02 -0.15093465436E+02  0.87650292370E+02  0.47000000000E+01 0. -1.
<mgrwt>
<rscale>  0 0.13125858E+03</rscale>
<asrwt>0</asrwt>
<pdfrwt beam="1">  1        1 0.50465893E-01 0.13901024E+03</pdfrwt>
<pdfrwt beam="2">  1       -1 0.11630838E-01 0.13901024E+03</pdfrwt>
<totfact> 0.36391614E+03</totfact>
</mgrwt>
</event>
<event>
 8    1  0.3217375E-004  0.1385465E+03  0.7546771E-02  0.1228303E+00
          1   -1    0    0  501    0  0.00000000000E+00  0.00000000000E+00  0.33744019349E+03  0.33744019349E+03  0.00000000000E+00 0. -1.
         -1   -1    0    0    0  501 -0.00000000000E+00 -0.00000000000E+00 -0.44715111396E+02  0.44715111396E+02  0.00000000000E+00 0.  1.
         25    2    1    2    0    0  0.59468556593E+02 -0.58280255950E+01  0.14433629672E+03  0.20007020108E+03  0.12499857481E+03 0.  0.
         23    2    1    2    0    0 -0.59468556593E+02  0.58280255950E+01  0.14838878537E+03  0.18208510381E+03  0.86978608278E+02 0.  0.
          5    1    3    3  502    0  0.10172119417E+02 -0.57528678953E+02  0.99859396563E+02  0.11578864365E+03  0.47000000000E+01 0. -1.
         -5    1    3    3    0  502  0.49296437176E+02  0.51700653358E+02  0.44476900159E+02  0.84281557435E+02  0.47000000000E+01 0. -1.
          5    1    4    4  503    0 -0.24580448945E+02 -0.36678239606E+02  0.96973749500E+02  0.10665594134E+03  0.47000000000E+01 0. -1.
         -5    1    4    4    0  503 -0.34888107648E+02  0.42506265201E+02  0.51415035875E+02  0.75429162468E+02  0.47000000000E+01 0.  1.
<mgrwt>
<rscale>  0 0.12943046E+03</rscale>
<asrwt>0</asrwt>
<pdfrwt beam="1">  1        1 0.51913874E-01 0.13854645E+03</pdfrwt>
<pdfrwt beam="2">  1       -1 0.68792481E-02 0.13854645E+03</pdfrwt>
<totfact> 0.77976161E+03</totfact>
</mgrwt>
</event>
<event>
 8    1  0.3217375E-004  0.1287131E+03  0.7546771E-02  0.1243067E+00
         -1   -1    0    0    0  501 -0.00000000000E+00  0.00000000000E+00  0.15076962762E+03  0.15076962762E+03  0.00000000000E+00 0.  1.
          1   -1    0    0  501    0  0.00000000000E+00 -0.00000000000E+00 -0.88866939273E+02  0.88866939273E+02  0.00000000000E+00 0. -1.
         25    2    1    2    0    0 -0.24327798397E+02 -0.18683435461E+02  0.60747569125E+02  0.14232820698E+03  0.12500455517E+03 0.  0.
         23    2    1    2    0    0  0.24327798397E+02  0.18683435461E+02  0.11551192195E+01  0.97308359907E+02  0.92339970067E+02 0.  0.
          5    1    3    3  502    0 -0.73540273410E+02 -0.14918344031E+02  0.19089608316E+02  0.77570818917E+02  0.47000000000E+01 0.  1.
         -5    1    3    3    0  502  0.49212475014E+02 -0.37650914297E+01  0.41657960810E+02  0.64757388067E+02  0.47000000000E+01 0.  1.
          5    1    4    4  503    0  0.29702317406E+02  0.47394316291E+02 -0.21436456084E+02  0.60083779220E+02  0.47000000000E+01 0. -1.
         -5    1    4    4    0  503 -0.53745190092E+01 -0.28710880830E+02  0.22591575303E+02  0.37224580687E+02  0.47000000000E+01 0.  1.
<mgrwt>
<rscale>  0 0.12001813E+03</rscale>
<asrwt>0</asrwt>
<pdfrwt beam="1">  1        1 0.13671837E-01 0.12871306E+03</pdfrwt>
<pdfrwt beam="2">  1       -1 0.23195327E-01 0.12871306E+03</pdfrwt>
<totfact> 0.62901055E+03</totfact>
</mgrwt>
</event>
<event>
 8    1  0.3217375E-004  0.1256098E+03  0.7546771E-02  0.1251369E+00
          2   -1    0    0  501    0  0.00000000000E+00  0.00000000000E+00  0.38294498263E+03  0.38294498263E+03  0.00000000000E+00 0. -1.
         -2   -1    0    0    0  501 -0.00000000000E+00 -0.00000000000E+00 -0.42168126970E+02  0.42168126970E+02  0.00000000000E+00 0.  1.
         25    2    1    2    0    0 -0.12453458470E+02  0.16634680067E+01  0.78151414440E+02  0.14793740832E+03  0.12497990818E+03 0.  0.
         23    2    1    2    0    0  0.12453458470E+02 -0.16634680067E+01  0.26262544122E+03  0.27717570127E+03  0.87729078689E+02 0.  0.
          5    1    3    3  502    0  0.26996280821E+02  0.42053033477E+02  0.76204926180E+02  0.91249863435E+02  0.47000000000E+01 0.  1.
         -5    1    3    3    0  502 -0.39449739290E+02 -0.40389565471E+02  0.19464882598E+01  0.56687544889E+02  0.47000000000E+01 0.  1.
          5    1    4    4  503    0 -0.12908550896E+02  0.36874546858E+02  0.15630117872E+03  0.16117850775E+03  0.47000000000E+01 0. -1.
         -5    1    4    4    0  503  0.25362009366E+02 -0.38538014865E+02  0.10632426250E+03  0.11599719352E+03  0.47000000000E+01 0.  1.
<mgrwt>
<rscale>  0 0.11512134E+03</rscale>
<asrwt>0</asrwt>
<pdfrwt beam="1">  1        2 0.58914610E-01 0.12560985E+03</pdfrwt>
<pdfrwt beam="2">  1       -2 0.64874044E-02 0.12560985E+03</pdfrwt>
<totfact> 0.10354142E+04</totfact>
</mgrwt>
</event>
<event>
 8    1  0.3217375E-004  0.1283762E+03  0.7546771E-02  0.1244495E+00
         -1   -1    0    0    0  501 -0.00000000000E+00  0.00000000000E+00  0.16845738926E+03  0.16845738926E+03  0.00000000000E+00 0.  1.
          1   -1    0    0  501    0  0.00000000000E+00 -0.00000000000E+00 -0.77080749798E+02  0.77080749798E+02  0.00000000000E+00 0. -1.
         25    2    1    2    0    0  0.12458680452E+00  0.29252796147E+02  0.28870561267E+02  0.13158251558E+03  0.12499882997E+03 0.  0.
         23    2    1    2    0    0 -0.12458680452E+00 -0.29252796147E+02  0.62506078190E+02  0.11395562348E+03  0.90681490434E+02 0.  0.
          5    1    3    3  502    0 -0.51828096877E+02  0.19267724836E+02  0.49735556536E+02  0.74519208465E+02  0.47000000000E+01 0.  1.
         -5    1    3    3    0  502  0.51952683682E+02  0.99850713103E+01 -0.20864995269E+02  0.57063307110E+02  0.47000000000E+01 0.  1.
          5    1    4    4  503    0 -0.14479420009E+02 -0.56856600443E+02  0.22396784694E+02  0.62976444663E+02  0.47000000000E+01 0. -1.
         -5    1    4    4    0  503  0.14354833204E+02  0.27603804296E+02  0.40109293497E+02  0.50979178816E+02  0.47000000000E+01 0.  1.
<mgrwt>
<rscale>  0 0.11915640E+03</rscale>
<asrwt>0</asrwt>
<pdfrwt beam="1">  1        1 0.11858577E-01 0.12837620E+03</pdfrwt>
<pdfrwt beam="2">  1       -1 0.25916521E-01 0.12837620E+03</pdfrwt>
<totfact> 0.63150788E+03</totfact>
</mgrwt>
</event>
<event>
 8    1  0.3217375E-004  0.1370507E+03  0.7546771E-02  0.1228717E+00
          2   -1    0    0  501    0  0.00000000000E+00  0.00000000000E+00  0.48709741851E+03  0.48709741851E+03  0.00000000000E+00 0. -1.
         -2   -1    0    0    0  501 -0.00000000000E+00 -0.00000000000E+00 -0.34570671038E+02  0.34570671038E+02  0.00000000000E+00 0.  1.
         25    2    1    2    0    0  0.26405373849E+02 -0.49684947662E+02  0.33522829780E+03  0.36216142625E+03  0.12496819285E+03 0.  0.
         23    2    1    2    0    0 -0.26405373849E+02  0.49684947662E+02  0.11729844967E+03  0.15950666330E+03  0.92290907185E+02 0.  0.
          5    1    4    4  502    0 -0.56477573566E+02  0.13143839111E+02  0.80766043507E+02  0.99537533655E+02  0.47000000000E+01 0. -1.
         -5    1    4    4    0  502  0.30072199717E+02  0.36541108551E+02  0.36532406164E+02  0.59969129643E+02  0.47000000000E+01 0.  1.
          5    1    3    3  503    0  0.61266023066E+02 -0.62277426200E+02  0.15394663093E+03  0.17706964328E+03  0.47000000000E+01 0. -1.
         -5    1    3    3    0  503 -0.34860649217E+02  0.12592478538E+02  0.18128166687E+03  0.18509178297E+03  0.47000000000E+01 0. -1.
<mgrwt>
<rscale>  0 0.12915382E+03</rscale>
<asrwt>0</asrwt>
<pdfrwt beam="1">  1        2 0.74938059E-01 0.13705067E+03</pdfrwt>
<pdfrwt beam="2">  1       -2 0.53185651E-02 0.13705067E+03</pdfrwt>
<totfact> 0.10864208E+04</totfact>
</mgrwt>
</event>
<event>
 8    1  0.3217375E-004  0.1800865E+03  0.7546771E-02  0.1173199E+00
         -1   -1    0    0    0  501 -0.00000000000E+00  0.00000000000E+00  0.38575810629E+02  0.38575810629E+02  0.00000000000E+00 0.  1.
          1   -1    0    0  501    0  0.00000000000E+00 -0.00000000000E+00 -0.84794491445E+03  0.84794491445E+03  0.00000000000E+00 0. -1.
         25    2    1    2    0    0 -0.69998425651E+02  0.10911453115E+03 -0.27247591911E+03  0.32661030299E+03  0.12500161209E+03 0.  0.
         23    2    1    2    0    0  0.69998425651E+02 -0.10911453115E+03 -0.53689318471E+03  0.55991042208E+03  0.91867450517E+02 0.  0.
          5    1    3    3  502    0 -0.67702656210E+01 -0.25849693779E+02 -0.70600229768E+02  0.75634156360E+02  0.47000000000E+01 0.  1.
         -5    1    3    3    0  502 -0.63228160030E+02  0.13496422493E+03 -0.20187568934E+03  0.25097614663E+03  0.47000000000E+01 0.  1.
          5    1    4    4  503    0 -0.19535303906E+02 -0.40429056869E+02 -0.17982970475E+03  0.18541021938E+03  0.47000000000E+01 0. -1.
         -5    1    4    4    0  503  0.89533729557E+02 -0.68685474285E+02 -0.35706347996E+03  0.37450020271E+03  0.47000000000E+01 0.  1.
<mgrwt>
<rscale>  0 0.17453547E+03</rscale>
<asrwt>0</asrwt>
<pdfrwt beam="1">  1        1 0.13045306E+00 0.18008654E+03</pdfrwt>
<pdfrwt beam="2">  1       -1 0.59347402E-02 0.18008654E+03</pdfrwt>
<totfact> 0.28282312E+03</totfact>
</mgrwt>
</event>
<event>
 8    1  0.3217375E-004  0.1254429E+03  0.7546771E-02  0.1254234E+00
          1   -1    0    0  501    0  0.00000000000E+00  0.00000000000E+00  0.10970119554E+03  0.10970119554E+03  0.00000000000E+00 0.  1.
         -1   -1    0    0    0  501 -0.00000000000E+00 -0.00000000000E+00 -0.20811759769E+03  0.20811759769E+03  0.00000000000E+00 0. -1.
         25    2    1    2    0    0 -0.98482941355E+01 -0.34781272905E+01  0.59567313611E+02  0.13886754122E+03  0.12500737133E+03 0.  0.
         23    2    1    2    0    0  0.98482941355E+01  0.34781272905E+01 -0.15798371576E+03  0.17895125201E+03  0.83400299056E+02 0.  0.
          5    1    4    4  502    0 -0.32063426837E+02 -0.17618325844E+02 -0.70669783171E+02  0.79716855178E+02  0.47000000000E+01 0. -1.
         -5    1    4    4    0  502  0.41911720973E+02  0.21096453134E+02 -0.87313932594E+02  0.99234396833E+02  0.47000000000E+01 0.  1.
          5    1    3    3  503    0  0.22431481387E+02  0.46727138741E+02  0.59427274317E+02  0.78995492181E+02  0.47000000000E+01 0. -1.
         -5    1    3    3    0  503 -0.32279775523E+02 -0.50205266031E+02  0.14003929441E+00  0.59872049039E+02  0.47000000000E+01 0. -1.
<mgrwt>
<rscale>  0 0.11349359E+03</rscale>
<asrwt>0</asrwt>
<pdfrwt beam="1">  1        1 0.16877107E-01 0.12544293E+03</pdfrwt>
<pdfrwt beam="2">  1       -1 0.32018092E-01 0.12544293E+03</pdfrwt>
<totfact> 0.28044953E+03</totfact>
</mgrwt>
</event>
<event>
 8    1  0.3217375E-004  0.1799396E+03  0.7546771E-02  0.1173978E+00
         -1   -1    0    0    0  501 -0.00000000000E+00  0.00000000000E+00  0.13424214454E+03  0.13424214454E+03  0.00000000000E+00 0.  1.
          1   -1    0    0  501    0  0.00000000000E+00 -0.00000000000E+00 -0.24981134761E+03  0.24981134761E+03  0.00000000000E+00 0. -1.
         25    2    1    2    0    0 -0.53419807121E+02 -0.11790059306E+03  0.14567639205E+02  0.18052834807E+03  0.12499617077E+03 0.  0.
         23    2    1    2    0    0  0.53419807121E+02  0.11790059306E+03 -0.13013684228E+03  0.20352514409E+03  0.87935549805E+02 0.  0.
          5    1    3    3  502    0 -0.34725411393E+02 -0.13545792479E+03  0.38520261336E+02  0.14512272089E+03  0.47000000000E+01 0. -1.
         -5    1    3    3    0  502 -0.18694395729E+02  0.17557331728E+02 -0.23952622132E+02  0.35405627181E+02  0.47000000000E+01 0. -1.
          5    1    4    4  503    0  0.13576575323E+02  0.65059239478E+02 -0.11521312643E+02  0.67615521028E+02  0.47000000000E+01 0.  1.
         -5    1    4    4    0  503  0.39843231799E+02  0.52841353584E+02 -0.11861552964E+03  0.13590962306E+03  0.47000000000E+01 0. -1.
<mgrwt>
<rscale>  0 0.17376480E+03</rscale>
<asrwt>0</asrwt>
<pdfrwt beam="1">  1        1 0.38432515E-01 0.17993962E+03</pdfrwt>
<pdfrwt beam="2">  1       -1 0.20652638E-01 0.17993962E+03</pdfrwt>
<totfact> 0.20841145E+03</totfact>
</mgrwt>
</event>
<event>
 8    1  0.3217375E-004  0.1261712E+03  0.7546771E-02  0.1249320E+00
         -2   -1    0    0    0  501 -0.00000000000E+00  0.00000000000E+00  0.36428106352E+02  0.36428106352E+02  0.00000000000E+00 0.  1.
          2   -1    0    0  501    0  0.00000000000E+00 -0.00000000000E+00 -0.39079010796E+03  0.39079010796E+03  0.00000000000E+00 0. -1.
         25    2    1    2    0    0  0.87072582053E+01  0.14823056061E+02 -0.11352079042E+03  0.16972373760E+03  0.12499455153E+03 0.  0.
         23    2    1    2    0    0 -0.87072582053E+01 -0.14823056061E+02 -0.24084121119E+03  0.25749447671E+03  0.89461596189E+02 0.  0.
          5    1    4    4  502    0  0.19705872058E+01  0.31233954290E+02 -0.16494470099E+03  0.16795323009E+03  0.47000000000E+01 0. -1.
         -5    1    3    3    0  503 -0.37985474915E+02 -0.57662742574E+01  0.64732920550E+01  0.39244614068E+02  0.47000000000E+01 0.  1.
          5    1    3    3  503    0  0.46692733120E+02  0.20589330319E+02 -0.11999408247E+03  0.13047912353E+03  0.47000000000E+01 0.  1.
         -5    1    4    4    0  502 -0.10677845411E+02 -0.46057010351E+02 -0.75896510200E+02  0.89541246617E+02  0.47000000000E+01 0.  1.
<mgrwt>
<rscale>  0 0.11630487E+03</rscale>
<asrwt>0</asrwt>
<pdfrwt beam="1">  1        2 0.60121562E-01 0.12617122E+03</pdfrwt>
<pdfrwt beam="2">  1       -2 0.56043235E-02 0.12617122E+03</pdfrwt>
<totfact> 0.12650277E+04</totfact>
</mgrwt>
</event>
<event>
 8    1  0.3217375E-004  0.1340826E+03  0.7546771E-02  0.1233555E+00
          2   -1    0    0  501    0  0.00000000000E+00  0.00000000000E+00  0.13956221119E+03  0.13956221119E+03  0.00000000000E+00 0.  1.
         -2   -1    0    0    0  501 -0.00000000000E+00 -0.00000000000E+00 -0.10804202924E+03  0.10804202924E+03  0.00000000000E+00 0. -1.
         25    2    1    2    0    0  0.29242392135E+01  0.48403645895E+02  0.46809534257E+02  0.14201860430E+03  0.12500674926E+03 0.  0.
         23    2    1    2    0    0 -0.29242392135E+01 -0.48403645895E+02 -0.15289352310E+02  0.10558563613E+03  0.92537009630E+02 0.  0.
          5    1    3    3  502    0 -0.52161531549E+02  0.17442171652E+02  0.55241817105E+02  0.78094833904E+02  0.47000000000E+01 0. -1.
         -5    1    3    3    0  502  0.55085770763E+02  0.30961474243E+02 -0.84322828479E+01  0.63923770398E+02  0.47000000000E+01 0. -1.
          5    1    4    4  503    0 -0.46120216973E+02 -0.32263856518E+02 -0.17647791186E+02  0.59174026268E+02  0.47000000000E+01 0.  1.
         -5    1    4    4    0  503  0.43195977759E+02 -0.16139789377E+02  0.23584388763E+01  0.46411609858E+02  0.47000000000E+01 0. -1.
<mgrwt>
<rscale>  0 0.12597379E+03</rscale>
<asrwt>0</asrwt>
<pdfrwt beam="1">  1        2 0.21471109E-01 0.13408263E+03</pdfrwt>
<pdfrwt beam="2">  1       -2 0.16621851E-01 0.13408263E+03</pdfrwt>
<totfact> 0.69828034E+03</totfact>
</mgrwt>
</event>
<event>
 8    1  0.3217375E-004  0.1337281E+03  0.7546771E-02  0.1238794E+00
          1   -1    0    0  501    0  0.00000000000E+00  0.00000000000E+00  0.22128399931E+02  0.22128399931E+02  0.00000000000E+00 0. -1.
         -1   -1    0    0    0  501 -0.00000000000E+00 -0.00000000000E+00 -0.63462212115E+03  0.63462212115E+03  0.00000000000E+00 0.  1.
         25    2    1    2    0    0 -0.45123871515E+02 -0.14886698406E+02 -0.44171601784E+03  0.46151517240E+03  0.12500174546E+03 0.  0.
         23    2    1    2    0    0  0.45123871515E+02  0.14886698406E+02 -0.17077770338E+03  0.19523534868E+03  0.81817112109E+02 0.  0.
          5    1    4    4  502    0  0.47857187818E+02 -0.24635393252E+02 -0.86425236846E+02  0.10192460248E+03  0.47000000000E+01 0. -1.
         -5    1    4    4    0  502 -0.27333163030E+01  0.39522091657E+02 -0.84352466532E+02  0.93310746204E+02  0.47000000000E+01 0.  1.
          5    1    3    3  503    0  0.18450263787E+02 -0.45585424816E+02 -0.28916452232E+03  0.29335414460E+03  0.47000000000E+01 0.  1.
         -5    1    3    3    0  503 -0.63574135301E+02  0.30698726410E+02 -0.15255149553E+03  0.16816102780E+03  0.47000000000E+01 0.  1.
<mgrwt>
<rscale>  0 0.12264674E+03</rscale>
<asrwt>0</asrwt>
<pdfrwt beam="1">  1        1 0.34043701E-02 0.13372813E+03</pdfrwt>
<pdfrwt beam="2">  1       -1 0.97634148E-01 0.13372813E+03</pdfrwt>
<totfact> 0.29204166E+03</totfact>
</mgrwt>
</event>
<event>
 8    1  0.3217375E-004  0.1857461E+03  0.7546771E-02  0.1167511E+00
          2   -1    0    0  501    0  0.00000000000E+00  0.00000000000E+00  0.14958924777E+03  0.14958924777E+03  0.00000000000E+00 0. -1.
         -2   -1    0    0    0  501 -0.00000000000E+00 -0.00000000000E+00 -0.20679244933E+03  0.20679244933E+03  0.00000000000E+00 0.  1.
         25    2    1    2    0    0  0.92241309404E+02  0.10182105216E+03 -0.44383644999E+02  0.19097521669E+03  0.12500255846E+03 0.  0.
         23    2    1    2    0    0 -0.92241309404E+02 -0.10182105216E+03 -0.12819556562E+02  0.16540648040E+03  0.91208425628E+02 0.  0.
          5    1    3    3  502    0 -0.59227821861E+00  0.44626103189E+02  0.34254454063E+02  0.56456155576E+02  0.47000000000E+01 0. -1.
         -5    1    3    3    0  502  0.92833587622E+02  0.57194948972E+02 -0.78638099062E+02  0.13451906111E+03  0.47000000000E+01 0. -1.
          5    1    4    4  503    0 -0.19673262163E+02  0.74697036749E+01  0.20733227968E+02  0.29913048308E+02  0.47000000000E+01 0. -1.
         -5    1    4    4    0  503 -0.72568047241E+02 -0.10929075584E+03 -0.33552784529E+02  0.13549343210E+03  0.47000000000E+01 0.  1.
<mgrwt>
<rscale>  0 0.18030214E+03</rscale>
<asrwt>0</asrwt>
<pdfrwt beam="1">  1        2 0.23013730E-01 0.18574613E+03</pdfrwt>
<pdfrwt beam="2">  1       -2 0.31814223E-01 0.18574613E+03</pdfrwt>
<totfact> 0.21335075E+03</totfact>
</mgrwt>
</event>
<event>
 8    1  0.3217375E-004  0.1728935E+03  0.7546771E-02  0.1180767E+00
          2   -1    0    0  501    0  0.00000000000E+00  0.00000000000E+00  0.22383957766E+03  0.22383957766E+03  0.00000000000E+00 0. -1.
         -2   -1    0    0    0  501 -0.00000000000E+00 -0.00000000000E+00 -0.11787289098E+03  0.11787289098E+03  0.00000000000E+00 0.  1.
         25    2    1    2    0    0  0.93503530698E+01 -0.11907768917E+03  0.45766449836E+02  0.17884831882E+03  0.12500091221E+03 0.  0.
         23    2    1    2    0    0 -0.93503530698E+01  0.11907768917E+03  0.60200236840E+02  0.16286414982E+03  0.92917907956E+02 0.  0.
          5    1    4    4  502    0 -0.55870208572E+01  0.91255166083E+02  0.85139552703E+02  0.12501821297E+03  0.47000000000E+01 0. -1.
         -5    1    3    3    0  503 -0.21138091210E+02 -0.10396602045E+03  0.77982538321E+02  0.13175400788E+03  0.47000000000E+01 0. -1.
          5    1    3    3  503    0  0.30488444280E+02 -0.15111668720E+02 -0.32216088485E+02  0.47094310945E+02  0.47000000000E+01 0. -1.
         -5    1    4    4    0  502 -0.37633322126E+01  0.27822523091E+02 -0.24939315863E+02  0.37845936852E+02  0.47000000000E+01 0.  1.
<mgrwt>
<rscale>  0 0.16723030E+03</rscale>
<asrwt>0</asrwt>
<pdfrwt beam="1">  1        2 0.34436858E-01 0.17289347E+03</pdfrwt>
<pdfrwt beam="2">  1       -2 0.18134291E-01 0.17289347E+03</pdfrwt>
<totfact> 0.36496677E+03</totfact>
</mgrwt>
</event>
<event>
 8    1  0.3217375E-004  0.1977950E+03  0.7546771E-02  0.1155809E+00
         -4   -1    0    0    0  501 -0.00000000000E+00  0.00000000000E+00  0.51779313429E+02  0.51779313429E+02  0.00000000000E+00 0.  1.
          4   -1    0    0  501    0  0.00000000000E+00 -0.00000000000E+00 -0.68733190059E+03  0.68733190059E+03  0.00000000000E+00 0. -1.
         25    2    1    2    0    0 -0.13360167143E+02 -0.15270535708E+03 -0.34858485603E+03  0.40079206762E+03  0.12500183785E+03 0.  0.
         23    2    1    2    0    0  0.13360167143E+02  0.15270535708E+03 -0.28696773113E+03  0.33831914640E+03  0.92800570918E+02 0.  0.
          5    1    4    4  502    0  0.50280689048E+02  0.56612750497E+02 -0.11242278986E+03  0.13562494199E+03  0.47000000000E+01 0. -1.
         -5    1    3    3    0  503  0.13504576246E+02 -0.20862191511E+02  0.18743498494E+01  0.25361541783E+02  0.47000000000E+01 0. -1.
          5    1    3    3  503    0 -0.26864743389E+02 -0.13184316557E+03 -0.35045920588E+03  0.37543052584E+03  0.47000000000E+01 0. -1.
         -5    1    4    4    0  502 -0.36920521905E+02  0.96092606582E+02 -0.17454494127E+03  0.20269420441E+03  0.47000000000E+01 0.  1.
<mgrwt>
<rscale>  0 0.19297032E+03</rscale>
<asrwt>0</asrwt>
<pdfrwt beam="1">  1        4 0.10574336E+00 0.19779504E+03</pdfrwt>
<pdfrwt beam="2">  1       -4 0.79660486E-02 0.19779504E+03</pdfrwt>
<totfact> 0.14811402E+02</totfact>
</mgrwt>
</event>
<event>
 8    1  0.3217375E-004  0.1308583E+03  0.7546771E-02  0.1237128E+00
         -2   -1    0    0    0  501 -0.00000000000E+00  0.00000000000E+00  0.32982561317E+02  0.32982561317E+02  0.00000000000E+00 0.  1.
          2   -1    0    0  501    0  0.00000000000E+00 -0.00000000000E+00 -0.46750188297E+03  0.46750188297E+03  0.00000000000E+00 0. -1.
         25    2    1    2    0    0  0.34160769490E+02  0.18216682828E+02 -0.31867613536E+03  0.34449728369E+03  0.12500037406E+03 0.  0.
         23    2    1    2    0    0 -0.34160769490E+02 -0.18216682828E+02 -0.11584318629E+03  0.15598716060E+03  0.97023423747E+02 0.  0.
          5    1    4    4  502    0  0.97112457349E+01 -0.48023802260E+02 -0.40577265655E+02  0.63790268578E+02  0.47000000000E+01 0. -1.
         -5    1    4    4    0  502 -0.43872015225E+02  0.29807119432E+02 -0.75265920636E+02  0.92196892019E+02  0.47000000000E+01 0.  1.
          5    1    3    3  503    0  0.55324394005E+02 -0.32427993774E+02 -0.23991295913E+03  0.24838011456E+03  0.47000000000E+01 0.  1.
         -5    1    3    3    0  503 -0.21163624515E+02  0.50644676603E+02 -0.78763176235E+02  0.96117169129E+02  0.47000000000E+01 0.  1.
<mgrwt>
<rscale>  0 0.12369177E+03</rscale>
<asrwt>0</asrwt>
<pdfrwt beam="1">  1        2 0.71923365E-01 0.13085832E+03</pdfrwt>
<pdfrwt beam="2">  1       -2 0.50742403E-02 0.13085832E+03</pdfrwt>
<totfact> 0.12152983E+04</totfact>
</mgrwt>
</event>
<event>
 8    1  0.3217375E-004  0.1442909E+03  0.7546771E-02  0.1219471E+00
          1   -1    0    0  501    0  0.00000000000E+00  0.00000000000E+00  0.13321642357E+03  0.13321642357E+03  0.00000000000E+00 0. -1.
         -1   -1    0    0    0  501 -0.00000000000E+00 -0.00000000000E+00 -0.15514549321E+03  0.15514549321E+03  0.00000000000E+00 0.  1.
         25    2    1    2    0    0  0.70830778937E+02  0.13335772989E+02  0.52584822471E+02  0.15357420404E+03  0.12500012202E+03 0.  0.
         23    2    1    2    0    0 -0.70830778937E+02 -0.13335772989E+02 -0.74513892113E+02  0.13478771274E+03  0.86142703127E+02 0.  0.
          5    1    3    3  502    0  0.66081989666E+02  0.40477503277E+02 -0.16216528481E+02  0.79311559219E+02  0.47000000000E+01 0.  1.
         -5    1    3    3    0  502  0.47487892708E+01 -0.27141730288E+02  0.68801350952E+02  0.74262644818E+02  0.47000000000E+01 0.  1.
          5    1    4    4  503    0 -0.26312279448E+02 -0.33328848719E+02  0.32635720405E+01  0.42847276566E+02  0.47000000000E+01 0. -1.
         -5    1    4    4    0  503 -0.44518499489E+02  0.19993075730E+02 -0.77777464153E+02  0.91940436175E+02  0.47000000000E+01 0.  1.
<mgrwt>
<rscale>  0 0.13553203E+03</rscale>
<asrwt>0</asrwt>
<pdfrwt beam="1">  1        1 0.20494834E-01 0.14429093E+03</pdfrwt>
<pdfrwt beam="2">  1       -1 0.23868537E-01 0.14429093E+03</pdfrwt>
<totfact> 0.35925551E+03</totfact>
</mgrwt>
</event>
<event>
 8    1  0.3217375E-004  0.1256401E+03  0.7546771E-02  0.1249882E+00
          1   -1    0    0  501    0  0.00000000000E+00  0.00000000000E+00  0.76495685094E+03  0.76495685094E+03  0.00000000000E+00 0. -1.
         -1   -1    0    0    0  501 -0.00000000000E+00 -0.00000000000E+00 -0.15538513971E+02  0.15538513971E+02  0.00000000000E+00 0.  1.
         25    2    1    2    0    0 -0.91948635893E+01  0.86549872411E+01  0.39350062260E+03  0.41307162484E+03  0.12500389169E+03 0.  0.
         23    2    1    2    0    0  0.91948635893E+01 -0.86549872411E+01  0.35591771437E+03  0.36742374007E+03  0.90351154103E+02 0.  0.
          5    1    4    4  502    0  0.31425583636E+02 -0.33688496085E+02  0.28641516322E+03  0.29013482693E+03  0.47000000000E+01 0. -1.
         -5    1    3    3    0  503  0.49468868976E+02 -0.16661011452E+02  0.10273148840E+03  0.11532825763E+03  0.47000000000E+01 0.  1.
          5    1    3    3  503    0 -0.58663732566E+02  0.25315998693E+02  0.29076913421E+03  0.29774336721E+03  0.47000000000E+01 0.  1.
         -5    1    4    4    0  502 -0.22230720047E+02  0.25033508843E+02  0.69502551151E+02  0.77288913146E+02  0.47000000000E+01 0.  1.
<mgrwt>
<rscale>  0 0.11597909E+03</rscale>
<asrwt>0</asrwt>
<pdfrwt beam="1">  1        1 0.11768564E+00 0.12564007E+03</pdfrwt>
<pdfrwt beam="2">  1       -1 0.23905412E-02 0.12564007E+03</pdfrwt>
<totfact> 0.12380770E+04</totfact>
</mgrwt>
</event>
<event>
 8    1  0.3217375E-004  0.1426662E+03  0.7546771E-02  0.1219568E+00
          2   -1    0    0  501    0  0.00000000000E+00  0.00000000000E+00  0.18784099035E+03  0.18784099035E+03  0.00000000000E+00 0.  1.
         -2   -1    0    0    0  501 -0.00000000000E+00 -0.00000000000E+00 -0.89128933362E+02  0.89128933362E+02  0.00000000000E+00 0. -1.
         25    2    1    2    0    0 -0.64717808342E+01 -0.68485762858E+02  0.49687880321E+02  0.15107124856E+03  0.12498581131E+03 0.  0.
         23    2    1    2    0    0  0.64717808342E+01  0.68485762858E+02  0.49024176666E+02  0.12589867515E+03  0.93353751110E+02 0.  0.
          5    1    4    4  502    0 -0.83731289644E+01  0.86240413693E+02  0.21051322457E+02  0.89290348973E+02  0.47000000000E+01 0. -1.
         -5    1    4    4    0  502  0.14844909799E+02 -0.17754650834E+02  0.27972854209E+02  0.36608326181E+02  0.47000000000E+01 0.  1.
          5    1    3    3  503    0 -0.54340644192E+02 -0.42823072897E+01  0.44777214324E+02  0.70698887470E+02  0.47000000000E+01 0. -1.
         -5    1    3    3    0  503  0.47868863357E+02 -0.64203455569E+02  0.49106659967E+01  0.80372361086E+02  0.47000000000E+01 0. -1.
<mgrwt>
<rscale>  0 0.13546259E+03</rscale>
<asrwt>0</asrwt>
<pdfrwt beam="1">  1        2 0.28898614E-01 0.14266617E+03</pdfrwt>
<pdfrwt beam="2">  1       -2 0.13712144E-01 0.14266617E+03</pdfrwt>
<totfact> 0.69204786E+03</totfact>
</mgrwt>
</event>
<event>
 8    1  0.3217375E-004  0.1540035E+03  0.7546771E-02  0.1203864E+00
          1   -1    0    0  501    0  0.00000000000E+00  0.00000000000E+00  0.41459531987E+03  0.41459531987E+03  0.00000000000E+00 0. -1.
         -1   -1    0    0    0  501 -0.00000000000E+00 -0.00000000000E+00 -0.48621065746E+02  0.48621065746E+02  0.00000000000E+00 0.  1.
         25    2    1    2    0    0  0.88041461777E+01 -0.89526903130E+02  0.21997591816E+03  0.26852652412E+03  0.12499804085E+03 0.  0.
         23    2    1    2    0    0 -0.88041461777E+01  0.89526903130E+02  0.14599833597E+03  0.19468986150E+03  0.92174013087E+02 0.  0.
          5    1    3    3  502    0 -0.47060101343E+02 -0.22238983050E+02  0.14181936207E+03  0.15114247240E+03  0.47000000000E+01 0.  1.
         -5    1    3    3    0  502  0.55864247521E+02 -0.67287920080E+02  0.78156556085E+02  0.11738405172E+03  0.47000000000E+01 0.  1.
          5    1    4    4  503    0  0.40415311955E+02  0.25957683348E+02  0.54487171977E+02  0.72788327878E+02  0.47000000000E+01 0. -1.
         -5    1    4    4    0  503 -0.49219458133E+02  0.63569219781E+02  0.91511163997E+02  0.12190153362E+03  0.47000000000E+01 0.  1.
<mgrwt>
<rscale>  0 0.14727341E+03</rscale>
<asrwt>0</asrwt>
<pdfrwt beam="1">  1        1 0.63783893E-01 0.15400354E+03</pdfrwt>
<pdfrwt beam="2">  1       -1 0.74801642E-02 0.15400354E+03</pdfrwt>
<totfact> 0.53411797E+03</totfact>
</mgrwt>
</event>
<event>
 8    1  0.3217375E-004  0.1501573E+03  0.7546771E-02  0.1209973E+00
         -2   -1    0    0    0  501 -0.00000000000E+00  0.00000000000E+00  0.16546004794E+02  0.16546004794E+02  0.00000000000E+00 0.  1.
          2   -1    0    0  501    0  0.00000000000E+00 -0.00000000000E+00 -0.11201492674E+04  0.11201492674E+04  0.00000000000E+00 0. -1.
         25    2    1    2    0    0  0.81054881059E+02 -0.18734589432E+02 -0.58493374173E+03  0.60389956721E+03  0.12500530579E+03 0.  0.
         23    2    1    2    0    0 -0.81054881059E+02  0.18734589432E+02 -0.51866952088E+03  0.53279570499E+03  0.89063532265E+02 0.  0.
          5    1    3    3  502    0  0.10036247580E+03  0.23750577824E+02 -0.40588448607E+03  0.41880905258E+03  0.47000000000E+01 0.  1.
         -5    1    3    3    0  502 -0.19307594738E+02 -0.42485167256E+02 -0.17904925566E+03  0.18509051462E+03  0.47000000000E+01 0.  1.
          5    1    4    4  503    0 -0.15913606453E+02  0.47643239510E+02 -0.21364543400E+03  0.21952125776E+03  0.47000000000E+01 0. -1.
         -5    1    4    4    0  503 -0.65141274605E+02 -0.28908650078E+02 -0.30502408688E+03  0.31327444722E+03  0.47000000000E+01 0.  1.
<mgrwt>
<rscale>  0 0.14252375E+03</rscale>
<asrwt>0</asrwt>
<pdfrwt beam="1">  1        2 0.17233070E+00 0.15015727E+03</pdfrwt>
<pdfrwt beam="2">  1       -2 0.25455386E-02 0.15015727E+03</pdfrwt>
<totfact> 0.11666561E+04</totfact>
</mgrwt>
</event>
<event>
 8    1  0.3217375E-004  0.1738105E+03  0.7546771E-02  0.1179971E+00
          1   -1    0    0  501    0  0.00000000000E+00  0.00000000000E+00  0.76695153748E+03  0.76695153748E+03  0.00000000000E+00 0. -1.
         -1   -1    0    0    0  501 -0.00000000000E+00 -0.00000000000E+00 -0.35650688302E+02  0.35650688302E+02  0.00000000000E+00 0.  1.
         25    2    1    2    0    0  0.99910637332E+02  0.67847617744E+02  0.31862382846E+03  0.36294796254E+03  0.12499857905E+03 0.  0.
         23    2    1    2    0    0 -0.99910637332E+02 -0.67847617744E+02  0.41267702071E+03  0.43965426324E+03  0.91695763654E+02 0.  0.
          5    1    4    4  502    0 -0.86946457372E+02 -0.34787615375E+02  0.37921585088E+03  0.39063616856E+03  0.47000000000E+01 0. -1.
         -5    1    3    3    0  503  0.11627644581E+03  0.88724407138E+02  0.27874241115E+03  0.31482003438E+03  0.47000000000E+01 0.  1.
          5    1    3    3  503    0 -0.16365808477E+02 -0.20876789394E+02  0.39881417315E+02  0.48127928166E+02  0.47000000000E+01 0.  1.
         -5    1    4    4    0  502 -0.12964179959E+02 -0.33060002369E+02  0.33461169835E+02  0.49018094673E+02  0.47000000000E+01 0.  1.
<mgrwt>
<rscale>  0 0.16798005E+03</rscale>
<asrwt>0</asrwt>
<pdfrwt beam="1">  1        1 0.11799253E+00 0.17381047E+03</pdfrwt>
<pdfrwt beam="2">  1       -1 0.54847218E-02 0.17381047E+03</pdfrwt>
<totfact> 0.37063333E+03</totfact>
</mgrwt>
</event>
<event>
 8    1  0.3217375E-004  0.1391282E+03  0.7546771E-02  0.1224613E+00
         -1   -1    0    0    0  501 -0.00000000000E+00  0.00000000000E+00  0.17164111010E+03  0.17164111010E+03  0.00000000000E+00 0.  1.
          1   -1    0    0  501    0  0.00000000000E+00 -0.00000000000E+00 -0.96955943641E+02  0.96955943641E+02  0.00000000000E+00 0. -1.
         25    2    1    2    0    0  0.60248781754E+02 -0.10104290901E+02  0.70595818002E+02  0.15601420595E+03  0.12499860216E+03 0.  0.
         23    2    1    2    0    0 -0.60248781754E+02  0.10104290901E+02  0.40893484527E+01  0.11258284779E+03  0.94478370264E+02 0.  0.
          5    1    3    3  502    0  0.32553823741E+02  0.44071569083E+02  0.77035304785E+02  0.94649790411E+02  0.47000000000E+01 0.  1.
         -5    1    3    3    0  502  0.27694958013E+02 -0.54175859983E+02 -0.64394867831E+01  0.61364415538E+02  0.47000000000E+01 0.  1.
          5    1    4    4  503    0 -0.38462995662E+02  0.28184043884E+02 -0.38335473796E+02  0.61363188608E+02  0.47000000000E+01 0. -1.
         -5    1    4    4    0  503 -0.21785786091E+02 -0.18079752984E+02  0.42424822249E+02  0.51219659179E+02  0.47000000000E+01 0.  1.
<mgrwt>
<rscale>  0 0.13193433E+03</rscale>
<asrwt>0</asrwt>
<pdfrwt beam="1">  1        1 0.14916299E-01 0.13912822E+03</pdfrwt>
<pdfrwt beam="2">  1       -1 0.26406325E-01 0.13912822E+03</pdfrwt>
<totfact> 0.45648600E+03</totfact>
</mgrwt>
</event>
<event>
 8    1  0.3217375E-004  0.2681944E+03  0.7546771E-02  0.1104439E+00
         -2   -1    0    0    0  501 -0.00000000000E+00  0.00000000000E+00  0.15361458454E+03  0.15361458454E+03  0.00000000000E+00 0.  1.
          2   -1    0    0  501    0  0.00000000000E+00 -0.00000000000E+00 -0.47771277037E+03  0.47771277037E+03  0.00000000000E+00 0. -1.
         25    2    1    2    0    0  0.23581316296E+03 -0.26378065758E+02 -0.81890047372E+02  0.28041791725E+03  0.12499831310E+03 0.  0.
         23    2    1    2    0    0 -0.23581316296E+03  0.26378065758E+02 -0.24220813847E+03  0.35090943767E+03  0.90382525567E+02 0.  0.
          5    1    3    3  502    0  0.19274309552E+03 -0.66359345787E+02 -0.86055017568E+02  0.22131655992E+03  0.47000000000E+01 0.  1.
         -5    1    3    3    0  502  0.43070067432E+02  0.39981280028E+02  0.41649701962E+01  0.59101357328E+02  0.47000000000E+01 0.  1.
          5    1    4    4  503    0 -0.10797664504E+03 -0.15387437437E+02 -0.15840582893E+03  0.19238041934E+03  0.47000000000E+01 0. -1.
         -5    1    4    4    0  503 -0.12783651791E+03  0.41765503195E+02 -0.83802309540E+02  0.15852901833E+03  0.47000000000E+01 0.  1.
<mgrwt>
<rscale>  0 0.26455088E+03</rscale>
<asrwt>0</asrwt>
<pdfrwt beam="1">  1        2 0.73494270E-01 0.26819439E+03</pdfrwt>
<pdfrwt beam="2">  1       -2 0.23633014E-01 0.26819439E+03</pdfrwt>
<totfact> 0.10308093E+03</totfact>
</mgrwt>
</event>
<event>
 8    1  0.3217375E-004  0.1275100E+03  0.7546771E-02  0.1246010E+00
         -1   -1    0    0    0  501 -0.00000000000E+00  0.00000000000E+00  0.27071367903E+03  0.27071367903E+03  0.00000000000E+00 0.  1.
          1   -1    0    0  501    0  0.00000000000E+00 -0.00000000000E+00 -0.46062546381E+02  0.46062546381E+02  0.00000000000E+00 0. -1.
         25    2    1    2    0    0  0.45398859427E+01  0.24671947650E+02  0.11073590817E+03  0.16888230356E+03  0.12501790085E+03 0.  0.
         23    2    1    2    0    0 -0.45398859427E+01 -0.24671947650E+02  0.11391522448E+03  0.14789392184E+03  0.90920944705E+02 0.  0.
          5    1    3    3  502    0  0.26637725608E+02  0.24379227361E+02  0.13255918983E+03  0.13746979291E+03  0.47000000000E+01 0.  1.
         -5    1    4    4    0  503 -0.46766163804E+01  0.28733487693E+02  0.77935479003E+02  0.83327744138E+02  0.47000000000E+01 0.  1.
          5    1    4    4  503    0  0.13673043773E+00 -0.53405435342E+02  0.35979745472E+02  0.64566177706E+02  0.47000000000E+01 0. -1.
         -5    1    3    3    0  502 -0.22097839665E+02  0.29272028837E+00 -0.21823281666E+02  0.31412510656E+02  0.47000000000E+01 0.  1.
<mgrwt>
<rscale>  0 0.11825160E+03</rscale>
<asrwt>0</asrwt>
<pdfrwt beam="1">  1        1 0.70865458E-02 0.12750996E+03</pdfrwt>
<pdfrwt beam="2">  1       -1 0.41648257E-01 0.12750996E+03</pdfrwt>
<totfact> 0.55862625E+03</totfact>
</mgrwt>
</event>
<event>
 8    1  0.3217375E-004  0.1336867E+03  0.7546771E-02  0.1236259E+00
          2   -1    0    0  501    0  0.00000000000E+00  0.00000000000E+00  0.13859251910E+04  0.13859251910E+04  0.00000000000E+00 0. -1.
         -2   -1    0    0    0  501 -0.00000000000E+00 -0.00000000000E+00 -0.10379362336E+02  0.10379362336E+02  0.00000000000E+00 0.  1.
         25    2    1    2    0    0 -0.11590123484E+02  0.45960589964E+02  0.94186487447E+03  0.95130519073E+03  0.12500166941E+03 0.  0.
         23    2    1    2    0    0  0.11590123484E+02 -0.45960589964E+02  0.43368095420E+03  0.44499936261E+03  0.87741414952E+02 0.  0.
          5    1    3    3  502    0 -0.21261380461E+02 -0.39913073016E+02  0.25659309200E+03  0.26059010833E+03  0.47000000000E+01 0. -1.
         -5    1    4    4    0  503 -0.57772139792E+01  0.21153140701E+02  0.46407473982E+02  0.51541975168E+02  0.47000000000E+01 0.  1.
          5    1    4    4  503    0  0.17367337464E+02 -0.67113730665E+02  0.38727348022E+03  0.39345738744E+03  0.47000000000E+01 0. -1.
         -5    1    3    3    0  502  0.96712569764E+01  0.85873662981E+02  0.68527178247E+03  0.69071508240E+03  0.47000000000E+01 0. -1.
<mgrwt>
<rscale>  0 0.12424190E+03</rscale>
<asrwt>0</asrwt>
<pdfrwt beam="1">  1        2 0.21321911E+00 0.13368666E+03</pdfrwt>
<pdfrwt beam="2">  1       -2 0.15968261E-02 0.13368666E+03</pdfrwt>
<totfact> 0.16332444E+04</totfact>
</mgrwt>
</event>
<event>
 8    1  0.3217375E-004  0.1456913E+03  0.7546771E-02  0.1214618E+00
         -2   -1    0    0    0  501 -0.00000000000E+00  0.00000000000E+00  0.29304354836E+02  0.29304354836E+02  0.00000000000E+00 0.  1.
          2   -1    0    0  501    0  0.00000000000E+00 -0.00000000000E+00 -0.64873415063E+03  0.64873415063E+03  0.00000000000E+00 0. -1.
         25    2    1    2    0    0  0.42954058761E+02  0.61281114676E+02 -0.42310401189E+03  0.44748516188E+03  0.12500215615E+03 0.  0.
         23    2    1    2    0    0 -0.42954058761E+02 -0.61281114676E+02 -0.19632578390E+03  0.23055334359E+03  0.94924204688E+02 0.  0.
          5    1    4    4  502    0  0.29435034580E+01 -0.46931503246E+02 -0.16805405038E+03  0.17457228892E+03  0.47000000000E+01 0. -1.
         -5    1    3    3    0  503 -0.42891182303E+02  0.28445150566E+02 -0.18908029761E+03  0.19601588980E+03  0.47000000000E+01 0. -1.
          5    1    3    3  503    0  0.85845241064E+02  0.32835964110E+02 -0.23402371428E+03  0.25146927207E+03  0.47000000000E+01 0. -1.
         -5    1    4    4    0  502 -0.45897562219E+02 -0.14349611430E+02 -0.28271733527E+02  0.55981054675E+02  0.47000000000E+01 0.  1.
<mgrwt>
<rscale>  0 0.13904661E+03</rscale>
<asrwt>0</asrwt>
<pdfrwt beam="1">  1        2 0.99805250E-01 0.14569134E+03</pdfrwt>
<pdfrwt beam="2">  1       -2 0.45083624E-02 0.14569134E+03</pdfrwt>
<totfact> 0.10127570E+04</totfact>
</mgrwt>
</event>
<event>
 8    1  0.3217375E-004  0.1258365E+03  0.7546771E-02  0.1249877E+00
          3   -1    0    0  501    0  0.00000000000E+00  0.00000000000E+00  0.13951289007E+03  0.13951289007E+03  0.00000000000E+00 0. -1.
         -3   -1    0    0    0  501 -0.00000000000E+00 -0.00000000000E+00 -0.87391863099E+02  0.87391863099E+02  0.00000000000E+00 0.  1.
         25    2    1    2    0    0  0.13432822316E+02 -0.53799566523E+01  0.51831590024E+02  0.13609309422E+03  0.12500172767E+03 0.  0.
         23    2    1    2    0    0 -0.13432822316E+02  0.53799566523E+01  0.28943694575E+00  0.90811658946E+02  0.89650928483E+02 0.  0.
          5    1    3    3  502    0 -0.48742994865E+02 -0.30489621022E+02  0.32209797955E+02  0.66068582721E+02  0.47000000000E+01 0.  1.
         -5    1    3    3    0  502  0.62175817181E+02  0.25109664369E+02  0.19621792069E+02  0.70024511500E+02  0.47000000000E+01 0.  1.
          5    1    4    4  503    0 -0.14486502271E+02 -0.40164223079E+02  0.97479387698E+01  0.44046973492E+02  0.47000000000E+01 0. -1.
         -5    1    4    4    0  503  0.10536799550E+01  0.45544179731E+02 -0.94585018241E+01  0.46764685454E+02  0.47000000000E+01 0.  1.
<mgrwt>
<rscale>  0 0.11598177E+03</rscale>
<asrwt>0</asrwt>
<pdfrwt beam="1">  1        3 0.21463522E-01 0.12583647E+03</pdfrwt>
<pdfrwt beam="2">  1       -3 0.13444902E-01 0.12583647E+03</pdfrwt>
<totfact> 0.20043878E+03</totfact>
</mgrwt>
</event>
<event>
 8    1  0.3217375E-004  0.1763864E+03  0.7546771E-02  0.1177404E+00
          1   -1    0    0  501    0  0.00000000000E+00  0.00000000000E+00  0.29188994918E+02  0.29188994918E+02  0.00000000000E+00 0. -1.
         -1   -1    0    0    0  501 -0.00000000000E+00 -0.00000000000E+00 -0.95038518661E+03  0.95038518661E+03  0.00000000000E+00 0.  1.
         25    2    1    2    0    0  0.50466023450E+02 -0.11375361270E+03 -0.42624670067E+03  0.46130077696E+03  0.12500181225E+03 0.  0.
         23    2    1    2    0    0 -0.50466023450E+02  0.11375361270E+03 -0.49494949102E+03  0.51827340457E+03  0.90253084700E+02 0.  0.
          5    1    4    4  502    0 -0.30535187661E+02  0.72092185497E+02 -0.14146109721E+03  0.16174984674E+03  0.47000000000E+01 0. -1.
         -5    1    4    4    0  502 -0.19930835790E+02  0.41661427200E+02 -0.35348839381E+03  0.35652355783E+03  0.47000000000E+01 0.  1.
          5    1    3    3  503    0  0.26230830590E+01 -0.98676499403E+02 -0.38091941729E+03  0.39352969973E+03  0.47000000000E+01 0. -1.
         -5    1    3    3    0  503  0.47842940391E+02 -0.15077113294E+02 -0.45327283385E+02  0.67771077235E+02  0.47000000000E+01 0. -1.
<mgrwt>
<rscale>  0 0.17042649E+03</rscale>
<asrwt>0</asrwt>
<pdfrwt beam="1">  1        1 0.44906151E-02 0.17638639E+03</pdfrwt>
<pdfrwt beam="2">  1       -1 0.14621309E+00 0.17638639E+03</pdfrwt>
<totfact> 0.77595125E+02</totfact>
</mgrwt>
</event>
<event>
 8    1  0.3217375E-004  0.1251302E+03  0.7546771E-02  0.1250932E+00
         -1   -1    0    0    0  501 -0.00000000000E+00  0.00000000000E+00  0.48482938914E+02  0.48482938914E+02  0.00000000000E+00 0.  1.
          1   -1    0    0  501    0  0.00000000000E+00 -0.00000000000E+00 -0.32492243798E+03  0.32492243798E+03  0.00000000000E+00 0. -1.
         25    2    1    2    0    0 -0.21052743425E+01  0.51249167542E+01 -0.59875102133E+02  0.13871770641E+03  0.12500750883E+03 0.  0.
         23    2    1    2    0    0  0.21052743425E+01 -0.51249167542E+01 -0.21656439694E+03  0.23468767049E+03  0.90263324273E+02 0.  0.
          5    1    4    4  502    0 -0.26529381023E+02 -0.17795208955E+02 -0.25847275596E+02  0.41359994861E+02  0.47000000000E+01 0.  1.
         -5    1    4    4    0  502  0.28634655366E+02  0.12670292200E+02 -0.19071712134E+03  0.19332767563E+03  0.47000000000E+01 0. -1.
          5    1    3    3  503    0 -0.75925198517E+01  0.55098988838E+02 -0.67567669202E+02  0.87641456230E+02  0.47000000000E+01 0. -1.
         -5    1    3    3    0  503  0.54872455091E+01 -0.49974072084E+02  0.76925670694E+01  0.51076250176E+02  0.47000000000E+01 0. -1.
<mgrwt>
<rscale>  0 0.11537286E+03</rscale>
<asrwt>0</asrwt>
<pdfrwt beam="1">  1        1 0.49988068E-01 0.12513023E+03</pdfrwt>
<pdfrwt beam="2">  1       -1 0.74589135E-02 0.12513023E+03</pdfrwt>
<totfact> 0.71888159E+03</totfact>
</mgrwt>
</event>
<event>
 8    1  0.3217375E-004  0.1306433E+03  0.7546771E-02  0.1239520E+00
         -2   -1    0    0    0  501 -0.00000000000E+00  0.00000000000E+00  0.37664935109E+02  0.37664935109E+02  0.00000000000E+00 0.  1.
          2   -1    0    0  501    0  0.00000000000E+00 -0.00000000000E+00 -0.38291227406E+03  0.38291227406E+03  0.00000000000E+00 0. -1.
         25    2    1    2    0    0 -0.37850445344E+02  0.32020744455E+01 -0.25202287046E+03  0.28387180198E+03  0.12499905293E+03 0.  0.
         23    2    1    2    0    0  0.37850445344E+02 -0.32020744455E+01 -0.93224468493E+02  0.13670540718E+03  0.92491390596E+02 0.  0.
          5    1    3    3  502    0 -0.33416578202E+02 -0.47587911517E+02 -0.20902165000E+03  0.21701017762E+03  0.47000000000E+01 0.  1.
         -5    1    4    4    0  503 -0.23677120411E+01 -0.21865061976E+02  0.97354844829E+01  0.24506257439E+02  0.47000000000E+01 0.  1.
          5    1    4    4  503    0  0.40218157385E+02  0.18662987531E+02 -0.10295995298E+03  0.11219914975E+03  0.47000000000E+01 0. -1.
         -5    1    3    3    0  502 -0.44338671419E+01  0.50789985962E+02 -0.43001220458E+02  0.66861624365E+02  0.47000000000E+01 0.  1.
<mgrwt>
<rscale>  0 0.12219464E+03</rscale>
<asrwt>0</asrwt>
<pdfrwt beam="1">  1        2 0.58909581E-01 0.13064330E+03</pdfrwt>
<pdfrwt beam="2">  1       -2 0.57946054E-02 0.13064330E+03</pdfrwt>
<totfact> 0.12326364E+04</totfact>
</mgrwt>
</event>
<event>
 8    1  0.3217375E-004  0.2036507E+03  0.7546771E-02  0.1150839E+00
          3   -1    0    0  501    0  0.00000000000E+00  0.00000000000E+00  0.28771618924E+03  0.28771618924E+03  0.00000000000E+00 0. -1.
         -3   -1    0    0    0  501 -0.00000000000E+00 -0.00000000000E+00 -0.17042537462E+03  0.17042537462E+03  0.00000000000E+00 0.  1.
         25    2    1    2    0    0 -0.13480722382E+03 -0.87618246356E+02 -0.49277100994E+02  0.20952763641E+03  0.12499461208E+03 0.  0.
         23    2    1    2    0    0  0.13480722382E+03  0.87618246356E+02  0.16656791561E+03  0.24861392744E+03  0.90631505120E+02 0.  0.
          5    1    4    4  502    0  0.32856071142E+02  0.69149217108E+02  0.97282314134E+02  0.12388330913E+03  0.47000000000E+01 0. -1.
         -5    1    3    3    0  503 -0.24741183157E+02 -0.63717208062E+02  0.26757195650E+02  0.73553016704E+02  0.47000000000E+01 0. -1.
          5    1    3    3  503    0 -0.11006604066E+03 -0.23901038294E+02 -0.76034296644E+02  0.13597461971E+03  0.47000000000E+01 0. -1.
         -5    1    4    4    0  502  0.10195115267E+03  0.18469029248E+02  0.69285601478E+02  0.12473061831E+03  0.47000000000E+01 0.  1.
<mgrwt>
<rscale>  0 0.19870160E+03</rscale>
<asrwt>0</asrwt>
<pdfrwt beam="1">  1        3 0.44264029E-01 0.20365068E+03</pdfrwt>
<pdfrwt beam="2">  1       -3 0.26219288E-01 0.20365068E+03</pdfrwt>
<totfact> 0.17165895E+02</totfact>
</mgrwt>
</event>
<event>
 8    1  0.3217375E-004  0.1361002E+03  0.7546771E-02  0.1230520E+00
         -1   -1    0    0    0  501 -0.00000000000E+00  0.00000000000E+00  0.41385628862E+02  0.41385628862E+02  0.00000000000E+00 0.  1.
          1   -1    0    0  501    0  0.00000000000E+00 -0.00000000000E+00 -0.41338311683E+03  0.41338311683E+03  0.00000000000E+00 0. -1.
         25    2    1    2    0    0  0.35738532237E+02  0.40257897898E+02 -0.12074452336E+03  0.18194094840E+03  0.12500131101E+03 0.  0.
         23    2    1    2    0    0 -0.35738532237E+02 -0.40257897898E+02 -0.25125296461E+03  0.27282779729E+03  0.91700674595E+02 0.  0.
          5    1    4    4  502    0  0.20648607562E+02 -0.44733937566E+02 -0.12237556044E+03  0.13200514368E+03  0.47000000000E+01 0.  1.
         -5    1    3    3    0  503  0.20709801514E+02  0.70347878683E+02 -0.12764520345E+03  0.14728580338E+03  0.47000000000E+01 0.  1.
          5    1    3    3  503    0  0.15028730723E+02 -0.30089980785E+02  0.69006800874E+01  0.34655145021E+02  0.47000000000E+01 0.  1.
         -5    1    4    4    0  502 -0.56387139799E+02  0.44760396681E+01 -0.12887740416E+03  0.14082265361E+03  0.47000000000E+01 0. -1.
<mgrwt>
<rscale>  0 0.12795649E+03</rscale>
<asrwt>0</asrwt>
<pdfrwt beam="1">  1        1 0.63597404E-01 0.13610022E+03</pdfrwt>
<pdfrwt beam="2">  1       -1 0.63670196E-02 0.13610022E+03</pdfrwt>
<totfact> 0.67793691E+03</totfact>
</mgrwt>
</event>
<event>
 8    1  0.3217375E-004  0.1306158E+03  0.7546771E-02  0.1239465E+00
          1   -1    0    0  501    0  0.00000000000E+00  0.00000000000E+00  0.15439322514E+03  0.15439322514E+03  0.00000000000E+00 0. -1.
         -1   -1    0    0    0  501 -0.00000000000E+00 -0.00000000000E+00 -0.10986304016E+03  0.10986304016E+03  0.00000000000E+00 0.  1.
         25    2    1    2    0    0  0.15013935889E+02  0.34782013842E+02 -0.36279026567E+02  0.13556050766E+03  0.12500110683E+03 0.  0.
         23    2    1    2    0    0 -0.15013935889E+02 -0.34782013842E+02  0.80809211554E+02  0.12869575765E+03  0.92721424743E+02 0.  0.
          5    1    4    4  502    0  0.39122610709E+02 -0.14196575345E+02  0.30169858782E+02  0.51618134402E+02  0.47000000000E+01 0. -1.
         -5    1    3    3    0  503  0.47847888318E+02  0.23855791854E+02  0.29384130162E+02  0.61188531007E+02  0.47000000000E+01 0. -1.
          5    1    3    3  503    0 -0.32833952428E+02  0.10926221988E+02 -0.65663156730E+02  0.74371976649E+02  0.47000000000E+01 0. -1.
         -5    1    4    4    0  502 -0.54136546599E+02 -0.20585438497E+02  0.50639352773E+02  0.77077623244E+02  0.47000000000E+01 0.  1.
<mgrwt>
<rscale>  0 0.12222857E+03</rscale>
<asrwt>0</asrwt>
<pdfrwt beam="1">  1        1 0.23752804E-01 0.13061579E+03</pdfrwt>
<pdfrwt beam="2">  1       -1 0.16902006E-01 0.13061579E+03</pdfrwt>
<totfact> 0.51622223E+03</totfact>
</mgrwt>
</event>
<event>
 8    1  0.3217375E-004  0.1567217E+03  0.7546771E-02  0.1201409E+00
          2   -1    0    0  501    0  0.00000000000E+00  0.00000000000E+00  0.61987413478E+03  0.61987413478E+03  0.00000000000E+00 0. -1.
         -2   -1    0    0    0  501 -0.00000000000E+00 -0.00000000000E+00 -0.32914648636E+02  0.32914648636E+02  0.00000000000E+00 0.  1.
         25    2    1    2    0    0  0.14827790330E+02 -0.93365555587E+02  0.31422047200E+03  0.35113559302E+03  0.12499883729E+03 0.  0.
         23    2    1    2    0    0 -0.14827790330E+02  0.93365555587E+02  0.27273901414E+03  0.30165319040E+03  0.87584742426E+02 0.  0.
          5    1    4    4  502    0  0.83692007534E+01  0.99290236308E+02  0.24599979520E+03  0.26545542711E+03  0.47000000000E+01 0. -1.
         -5    1    3    3    0  503 -0.53890801571E+02 -0.52767522874E+02  0.17441697153E+03  0.19008419166E+03  0.47000000000E+01 0.  1.
          5    1    3    3  503    0  0.68718591902E+02 -0.40598032713E+02  0.13980350048E+03  0.16105140136E+03  0.47000000000E+01 0.  1.
         -5    1    4    4    0  502 -0.23196991084E+02 -0.59246807207E+01  0.26739218945E+02  0.36197763284E+02  0.47000000000E+01 0.  1.
<mgrwt>
<rscale>  0 0.14924055E+03</rscale>
<asrwt>0</asrwt>
<pdfrwt beam="1">  1        2 0.95365243E-01 0.15672173E+03</pdfrwt>
<pdfrwt beam="2">  1       -2 0.50637925E-02 0.15672173E+03</pdfrwt>
<totfact> 0.90068086E+03</totfact>
</mgrwt>
</event>
<event>
 8    1  0.3217375E-004  0.1284299E+03  0.7546771E-02  0.1243081E+00
         -1   -1    0    0    0  501 -0.00000000000E+00  0.00000000000E+00  0.52440952135E+02  0.52440952135E+02  0.00000000000E+00 0.  1.
          1   -1    0    0  501    0  0.00000000000E+00 -0.00000000000E+00 -0.31071947525E+03  0.31071947525E+03  0.00000000000E+00 0. -1.
         25    2    1    2    0    0  0.16544531983E+02  0.24429778840E+02 -0.59437348023E+02  0.14151687970E+03  0.12499477296E+03 0.  0.
         23    2    1    2    0    0 -0.16544531983E+02 -0.24429778840E+02 -0.19884117509E+03  0.22164354768E+03  0.93367626528E+02 0.  0.
          5    1    4    4  502    0  0.53811066608E+01  0.28931411619E+02 -0.12115001642E+03  0.12476136968E+03  0.47000000000E+01 0. -1.
         -5    1    4    4    0  502 -0.21925638644E+02 -0.53361190459E+02 -0.77691158669E+02  0.96882177992E+02  0.47000000000E+01 0.  1.
          5    1    3    3  503    0 -0.35350629613E+02 -0.32070830176E+02 -0.69920849794E+01  0.48468385723E+02  0.47000000000E+01 0.  1.
         -5    1    3    3    0  503  0.51895161597E+02  0.56500609016E+02 -0.52445263044E+02  0.93048493981E+02  0.47000000000E+01 0.  1.
<mgrwt>
<rscale>  0 0.12000954E+03</rscale>
<asrwt>0</asrwt>
<pdfrwt beam="1">  1        1 0.47802997E-01 0.12842986E+03</pdfrwt>
<pdfrwt beam="2">  1       -1 0.80678386E-02 0.12842986E+03</pdfrwt>
<totfact> 0.67640686E+03</totfact>
</mgrwt>
</event>
<event>
 8    1  0.3217375E-004  0.1250540E+03  0.7546771E-02  0.1249378E+00
          1   -1    0    0  501    0  0.00000000000E+00  0.00000000000E+00  0.22081568242E+03  0.22081568242E+03  0.00000000000E+00 0. -1.
         -1   -1    0    0    0  501 -0.00000000000E+00 -0.00000000000E+00 -0.54546514467E+02  0.54546514467E+02  0.00000000000E+00 0.  1.
         25    2    1    2    0    0  0.36307669806E+01  0.77512360224E+00  0.82135454869E+02  0.14961525730E+03  0.12499883594E+03 0.  0.
         23    2    1    2    0    0 -0.36307669806E+01 -0.77512360224E+00  0.84133713088E+02  0.12574693959E+03  0.93381089372E+02 0.  0.
          5    1    3    3  502    0 -0.27578551498E+02  0.53684044157E+02  0.56768616304E+02  0.82989872255E+02  0.47000000000E+01 0. -1.
         -5    1    3    3    0  502  0.31209318478E+02 -0.52908920554E+02  0.25366838565E+02  0.66625385049E+02  0.47000000000E+01 0. -1.
          5    1    4    4  503    0 -0.22968280358E+02  0.45664035888E+01  0.98027527643E+02  0.10089539197E+03  0.47000000000E+01 0. -1.
         -5    1    4    4    0  503  0.19337513377E+02 -0.53415271910E+01 -0.13893814554E+02  0.24851547622E+02  0.47000000000E+01 0.  1.
<mgrwt>
<rscale>  0 0.11627157E+03</rscale>
<asrwt>0</asrwt>
<pdfrwt beam="1">  1        1 0.33971643E-01 0.12505396E+03</pdfrwt>
<pdfrwt beam="2">  1       -1 0.83917716E-02 0.12505396E+03</pdfrwt>
<totfact> 0.96975418E+03</totfact>
</mgrwt>
</event>
<event>
 8    1  0.3217375E-004  0.1337587E+03  0.7546771E-02  0.1234731E+00
          1   -1    0    0  501    0  0.00000000000E+00  0.00000000000E+00  0.45327259812E+03  0.45327259812E+03  0.00000000000E+00 0. -1.
         -1   -1    0    0    0  501 -0.00000000000E+00 -0.00000000000E+00 -0.31216673282E+02  0.31216673282E+02  0.00000000000E+00 0.  1.
         25    2    1    2    0    0 -0.74960816979E+01  0.46990891705E+02  0.26459464727E+03  0.29648225859E+03  0.12500826834E+03 0.  0.
         23    2    1    2    0    0  0.74960816979E+01 -0.46990891705E+02  0.15746127757E+03  0.18800701281E+03  0.91039814303E+02 0.  0.
          5    1    4    4  502    0  0.87281938509E+01  0.24480906347E+02  0.20469445150E+02  0.33415330736E+02  0.47000000000E+01 0. -1.
         -5    1    4    4    0  502 -0.12321121531E+01 -0.71471798052E+02  0.13699183242E+03  0.15459168208E+03  0.47000000000E+01 0.  1.
          5    1    3    3  503    0  0.13904841616E+02 -0.20278231658E+02  0.19716580014E+03  0.19874856992E+03  0.47000000000E+01 0.  1.
         -5    1    3    3    0  503 -0.21400923314E+02  0.67269123363E+02  0.67428847127E+02  0.97733688673E+02  0.47000000000E+01 0.  1.
<mgrwt>
<rscale>  0 0.12521648E+03</rscale>
<asrwt>0</asrwt>
<pdfrwt beam="1">  1        1 0.69734241E-01 0.13375875E+03</pdfrwt>
<pdfrwt beam="2">  1       -1 0.48025655E-02 0.13375875E+03</pdfrwt>
<totfact> 0.91536079E+03</totfact>
</mgrwt>
</event>
<event>
 8    1  0.3217375E-004  0.1261313E+03  0.7546771E-02  0.1248822E+00
         -4   -1    0    0    0  501 -0.00000000000E+00  0.00000000000E+00  0.49643802307E+03  0.49643802307E+03  0.00000000000E+00 0.  1.
          4   -1    0    0  501    0  0.00000000000E+00 -0.00000000000E+00 -0.24054188694E+02  0.24054188694E+02  0.00000000000E+00 0. -1.
         25    2    1    2    0    0  0.16804282812E+02 -0.10873601571E+01  0.25894967399E+03  0.28803478745E+03  0.12500215538E+03 0.  0.
         23    2    1    2    0    0 -0.16804282812E+02  0.10873601571E+01  0.21343416038E+03  0.23245742431E+03  0.90546932729E+02 0.  0.
          5    1    4    4  502    0 -0.42690389444E+02 -0.29162097185E+02  0.11513600248E+03  0.12629840193E+03  0.47000000000E+01 0. -1.
         -5    1    4    4    0  502  0.25886106632E+02  0.30249457342E+02  0.98298157901E+02  0.10615902238E+03  0.47000000000E+01 0.  1.
          5    1    3    3  503    0 -0.23720882744E+02  0.45031996395E+02  0.18435486919E+03  0.19130961495E+03  0.47000000000E+01 0.  1.
         -5    1    3    3    0  503  0.40525165556E+02 -0.46119356552E+02  0.74594804796E+02  0.96725172498E+02  0.47000000000E+01 0.  1.
<mgrwt>
<rscale>  0 0.11659541E+03</rscale>
<asrwt>0</asrwt>
<pdfrwt beam="1">  1        4 0.37006448E-02 0.12613130E+03</pdfrwt>
<pdfrwt beam="2">  1       -4 0.76375073E-01 0.12613130E+03</pdfrwt>
<totfact> 0.99258075E+02</totfact>
</mgrwt>
</event>
<event>
 8    1  0.3217375E-004  0.1364046E+03  0.7546771E-02  0.1229474E+00
          2   -1    0    0  501    0  0.00000000000E+00  0.00000000000E+00  0.12725577538E+04  0.12725577538E+04  0.00000000000E+00 0.  1.
         -2   -1    0    0    0  501 -0.00000000000E+00 -0.00000000000E+00 -0.13403341635E+02  0.13403341635E+02  0.00000000000E+00 0. -1.
         25    2    1    2    0    0 -0.28596854436E+02 -0.46512634385E+02  0.91972824071E+03  0.92978828828E+03  0.12500007608E+03 0.  0.
         23    2    1    2    0    0  0.28596854436E+02  0.46512634385E+02  0.33942617142E+03  0.35617280712E+03  0.93100684458E+02 0.  0.
          5    1    3    3  502    0  0.44840345451E+02 -0.29854086499E+02  0.53542730560E+03  0.53815091995E+03  0.47000000000E+01 0.  1.
         -5    1    4    4    0  503  0.51906074886E+01  0.56999653880E+02  0.31582161617E+03  0.32100044577E+03  0.47000000000E+01 0.  1.
          5    1    4    4  503    0  0.23406246947E+02 -0.10487019495E+02  0.23604555251E+02  0.35172361346E+02  0.47000000000E+01 0. -1.
         -5    1    3    3    0  502 -0.73437199886E+02 -0.16658547887E+02  0.38430093511E+03  0.39163736832E+03  0.47000000000E+01 0.  1.
<mgrwt>
<rscale>  0 0.12864937E+03</rscale>
<asrwt>0</asrwt>
<pdfrwt beam="1">  1        2 0.19577802E+00 0.13640463E+03</pdfrwt>
<pdfrwt beam="2">  1       -2 0.20620536E-02 0.13640463E+03</pdfrwt>
<totfact> 0.12986113E+04</totfact>
</mgrwt>
</event>
<event>
 8    1  0.3217375E-004  0.1298960E+03  0.7546771E-02  0.1241544E+00
         -2   -1    0    0    0  501 -0.00000000000E+00  0.00000000000E+00  0.46538869520E+02  0.46538869520E+02  0.00000000000E+00 0.  1.
          2   -1    0    0  501    0  0.00000000000E+00 -0.00000000000E+00 -0.40238041457E+03  0.40238041457E+03  0.00000000000E+00 0. -1.
         25    2    1    2    0    0 -0.76673151706E+01 -0.34468061517E+02 -0.31923695673E+03  0.34465229972E+03  0.12500455261E+03 0.  0.
         23    2    1    2    0    0  0.76673151706E+01  0.34468061517E+02 -0.36604588316E+02  0.10426698437E+03  0.91021278593E+02 0.  0.
          5    1    4    4  502    0  0.47482914447E+02  0.14818195864E+02 -0.32113039526E+02  0.59393125870E+02  0.47000000000E+01 0. -1.
         -5    1    3    3    0  503 -0.58050177495E+02 -0.44065058826E+02 -0.23329776436E+03  0.24446163170E+03  0.47000000000E+01 0.  1.
          5    1    3    3  503    0  0.50382862324E+02  0.95969973093E+01 -0.85939192369E+02  0.10019066802E+03  0.47000000000E+01 0.  1.
         -5    1    4    4    0  502 -0.39815599276E+02  0.19649865653E+02 -0.44915487899E+01  0.44873858497E+02  0.47000000000E+01 0.  1.
<mgrwt>
<rscale>  0 0.12094647E+03</rscale>
<asrwt>0</asrwt>
<pdfrwt beam="1">  1        2 0.61904679E-01 0.12989601E+03</pdfrwt>
<pdfrwt beam="2">  1       -2 0.71598261E-02 0.12989601E+03</pdfrwt>
<totfact> 0.84709658E+03</totfact>
</mgrwt>
</event>
<event>
 8    1  0.3217375E-004  0.1599617E+03  0.7546771E-02  0.1196788E+00
         -1   -1    0    0    0  501 -0.00000000000E+00  0.00000000000E+00  0.14570547295E+03  0.14570547295E+03  0.00000000000E+00 0.  1.
          1   -1    0    0  501    0  0.00000000000E+00 -0.00000000000E+00 -0.23208493468E+03  0.23208493468E+03  0.00000000000E+00 0. -1.
         25    2    1    2    0    0  0.98900067352E+02  0.13531585483E+02  0.67599791060E+02  0.17365904041E+03  0.12499361358E+03 0.  0.
         23    2    1    2    0    0 -0.98900067352E+02 -0.13531585483E+02 -0.15397925278E+03  0.20413136722E+03  0.89418553275E+02 0.  0.
          5    1    4    4  502    0 -0.89048512473E+02 -0.39452466295E+02 -0.14475050255E+03  0.17453060665E+03  0.47000000000E+01 0. -1.
         -5    1    4    4    0  502 -0.98515548798E+01  0.25920880813E+02 -0.92287502348E+01  0.29600760574E+02  0.47000000000E+01 0.  1.
          5    1    3    3  503    0 -0.14399029759E+02  0.19507532347E+02  0.53890878327E+02  0.59280626204E+02  0.47000000000E+01 0. -1.
         -5    1    3    3    0  503  0.11329909711E+03 -0.59759468640E+01  0.13708912733E+02  0.11437841420E+03  0.47000000000E+01 0. -1.
<mgrwt>
<rscale>  0 0.15303833E+03</rscale>
<asrwt>0</asrwt>
<pdfrwt beam="1">  1        1 0.35705375E-01 0.15996165E+03</pdfrwt>
<pdfrwt beam="2">  1       -1 0.22416226E-01 0.15996165E+03</pdfrwt>
<totfact> 0.19918827E+03</totfact>
</mgrwt>
</event>
<event>
 8    1  0.3217375E-004  0.1377542E+03  0.7546771E-02  0.1227745E+00
          1   -1    0    0  501    0  0.00000000000E+00  0.00000000000E+00  0.20364609404E+02  0.20364609404E+02  0.00000000000E+00 0. -1.
         -1   -1    0    0    0  501 -0.00000000000E+00 -0.00000000000E+00 -0.78408296482E+03  0.78408296482E+03  0.00000000000E+00 0.  1.
         25    2    1    2    0    0  0.51941822756E+02 -0.25544645602E+02 -0.33568757327E+03  0.36285307866E+03  0.12500291188E+03 0.  0.
         23    2    1    2    0    0 -0.51941822756E+02  0.25544645602E+02 -0.42803078215E+03  0.44159449556E+03  0.91895952979E+02 0.  0.
          5    1    3    3  502    0  0.30843878990E+02  0.11885010911E+01 -0.65211639403E+01  0.31896284817E+02  0.47000000000E+01 0. -1.
         -5    1    3    3    0  502  0.21097943766E+02 -0.26733146693E+02 -0.32916640933E+03  0.33095679384E+03  0.47000000000E+01 0. -1.
          5    1    4    4  503    0 -0.30228519226E+02  0.47809662364E+02 -0.12926179255E+03  0.14117446016E+03  0.47000000000E+01 0. -1.
         -5    1    4    4    0  503 -0.21713303530E+02 -0.22265016762E+02 -0.29876898960E+03  0.30042003540E+03  0.47000000000E+01 0.  1.
<mgrwt>
<rscale>  0 0.12980529E+03</rscale>
<asrwt>0</asrwt>
<pdfrwt beam="1">  1        1 0.31330171E-02 0.13775416E+03</pdfrwt>
<pdfrwt beam="2">  1       -1 0.12062814E+00 0.13775416E+03</pdfrwt>
<totfact> 0.20325092E+03</totfact>
</mgrwt>
</event>
<event>
 8    1  0.3217375E-004  0.1664600E+03  0.7546771E-02  0.1188311E+00
         -1   -1    0    0    0  501 -0.00000000000E+00  0.00000000000E+00  0.14370217735E+02  0.14370217735E+02  0.00000000000E+00 0.  1.
          1   -1    0    0  501    0  0.00000000000E+00 -0.00000000000E+00 -0.16712905732E+04  0.16712905732E+04  0.00000000000E+00 0. -1.
         25    2    1    2    0    0  0.79181474303E+02 -0.76255493232E+02 -0.91905851767E+03  0.93401151000E+03  0.12499734306E+03 0.  0.
         23    2    1    2    0    0 -0.79181474303E+02  0.76255493232E+02 -0.73786183782E+03  0.75164928097E+03  0.91934453544E+02 0.  0.
          5    1    3    3  502    0 -0.17098143488E+02 -0.14998349733E+02 -0.31507403683E+02  0.39142093612E+02  0.47000000000E+01 0.  1.
         -5    1    4    4    0  503 -0.84715557737E+01  0.54379147396E+02 -0.16484836775E+03  0.17385607058E+03  0.47000000000E+01 0.  1.
          5    1    4    4  503    0 -0.70709918529E+02  0.21876345836E+02 -0.57301347007E+03  0.57779321039E+03  0.47000000000E+01 0. -1.
         -5    1    3    3    0  502  0.96279617791E+02 -0.61257143499E+02 -0.88755111399E+03  0.89486941638E+03  0.47000000000E+01 0.  1.
<mgrwt>
<rscale>  0 0.16034241E+03</rscale>
<asrwt>0</asrwt>
<pdfrwt beam="1">  1        1 0.25712153E+00 0.16646003E+03</pdfrwt>
<pdfrwt beam="2">  1       -1 0.22108035E-02 0.16646003E+03</pdfrwt>
<totfact> 0.32509618E+03</totfact>
</mgrwt>
</event>
<event>
 8    1  0.3217375E-004  0.1253246E+03  0.7546771E-02  0.1248010E+00
          1   -1    0    0  501    0  0.00000000000E+00  0.00000000000E+00  0.44543069514E+03  0.44543069514E+03  0.00000000000E+00 0. -1.
         -1   -1    0    0    0  501 -0.00000000000E+00 -0.00000000000E+00 -0.37893120228E+02  0.37893120228E+02  0.00000000000E+00 0.  1.
         25    2    1    2    0    0 -0.18137202725E+01 -0.89111452073E+01  0.35030507202E+03  0.37204824237E+03  0.12499421218E+03 0.  0.
         23    2    1    2    0    0  0.18137202725E+01  0.89111452073E+01  0.57232502888E+02  0.11127557299E+03  0.94994713894E+02 0.  0.
          5    1    4    4  502    0  0.19702529561E+02  0.47742212758E+02  0.37229258996E+02  0.63840553534E+02  0.47000000000E+01 0. -1.
         -5    1    4    4    0  502 -0.17888809289E+02 -0.38831067550E+02  0.20003243892E+02  0.47435019459E+02  0.47000000000E+01 0.  1.
          5    1    3    3  503    0 -0.54073250730E+02 -0.36936709334E+02  0.17365266829E+03  0.18564906718E+03  0.47000000000E+01 0. -1.
         -5    1    3    3    0  503  0.52259530458E+02  0.28025564127E+02  0.17665240373E+03  0.18639917519E+03  0.47000000000E+01 0. -1.
<mgrwt>
<rscale>  0 0.11707045E+03</rscale>
<asrwt>0</asrwt>
<pdfrwt beam="1">  1        1 0.68527796E-01 0.12532458E+03</pdfrwt>
<pdfrwt beam="2">  1       -1 0.58297111E-02 0.12532458E+03</pdfrwt>
<totfact> 0.69943144E+03</totfact>
</mgrwt>
</event>
<event>
 8    1  0.3217375E-004  0.1898530E+03  0.7546771E-02  0.1163605E+00
         -2   -1    0    0    0  501 -0.00000000000E+00  0.00000000000E+00  0.56862820585E+02  0.56862820585E+02  0.00000000000E+00 0.  1.
          2   -1    0    0  501    0  0.00000000000E+00 -0.00000000000E+00 -0.57144082005E+03  0.57144082005E+03  0.00000000000E+00 0. -1.
         25    2    1    2    0    0 -0.11213031000E+03 -0.88578706384E+02 -0.24186413574E+03  0.30747752157E+03  0.12499908986E+03 0.  0.
         23    2    1    2    0    0  0.11213031000E+03  0.88578706384E+02 -0.27271386373E+03  0.32082611907E+03  0.90206172546E+02 0.  0.
          5    1    4    4  502    0  0.44986553039E+02  0.17322267912E+02 -0.17818796085E+03  0.18465343298E+03  0.47000000000E+01 0. -1.
         -5    1    3    3    0  503  0.23833234798E+02  0.55577880997E+00 -0.15795859727E+02  0.28981565789E+02  0.47000000000E+01 0. -1.
          5    1    3    3  503    0 -0.13596354480E+03 -0.89134485194E+02 -0.22606827601E+03  0.27849595578E+03  0.47000000000E+01 0. -1.
         -5    1    4    4    0  502  0.67143756959E+02  0.71256438473E+02 -0.94525902873E+02  0.13617268609E+03  0.47000000000E+01 0.  1.
<mgrwt>
<rscale>  0 0.18440654E+03</rscale>
<asrwt>0</asrwt>
<pdfrwt beam="1">  1        2 0.87913969E-01 0.18985301E+03</pdfrwt>
<pdfrwt beam="2">  1       -2 0.87481266E-02 0.18985301E+03</pdfrwt>
<totfact> 0.43111207E+03</totfact>
</mgrwt>
</event>
<event>
 8    1  0.3217375E-004  0.1419247E+03  0.7546771E-02  0.1221391E+00
          1   -1    0    0  501    0  0.00000000000E+00  0.00000000000E+00  0.45199947844E+02  0.45199947844E+02  0.00000000000E+00 0. -1.
         -1   -1    0    0    0  501 -0.00000000000E+00 -0.00000000000E+00 -0.49561837198E+03  0.49561837198E+03  0.00000000000E+00 0.  1.
         25    2    1    2    0    0  0.60374483259E+02 -0.29536068773E+02 -0.38408534902E+03  0.40946817804E+03  0.12500070365E+03 0.  0.
         23    2    1    2    0    0 -0.60374483259E+02  0.29536068773E+02 -0.66333075115E+02  0.13135014178E+03  0.91298002737E+02 0.  0.
          5    1    4    4  502    0 -0.67485225570E+02  0.54552798390E+02 -0.49435946918E+02  0.99981329907E+02  0.47000000000E+01 0. -1.
         -5    1    3    3    0  503 -0.38890130982E+02 -0.12138030308E+02 -0.11465213752E+03  0.12176607371E+03  0.47000000000E+01 0. -1.
          5    1    3    3  503    0  0.99264614240E+02 -0.17398038466E+02 -0.26943321150E+03  0.28770210434E+03  0.47000000000E+01 0. -1.
         -5    1    4    4    0  502  0.71107423113E+01 -0.25016729616E+02 -0.16897128197E+02  0.31368811871E+02  0.47000000000E+01 0.  1.
<mgrwt>
<rscale>  0 0.13417396E+03</rscale>
<asrwt>0</asrwt>
<pdfrwt beam="1">  1        1 0.69538385E-02 0.14192475E+03</pdfrwt>
<pdfrwt beam="2">  1       -1 0.76248976E-01 0.14192475E+03</pdfrwt>
<totfact> 0.18513902E+03</totfact>
</mgrwt>
</event>
<event>
 8    1  0.3217375E-004  0.1263733E+03  0.7546771E-02  0.1248259E+00
         -2   -1    0    0    0  501 -0.00000000000E+00  0.00000000000E+00  0.25598408719E+02  0.25598408719E+02  0.00000000000E+00 0.  1.
          2   -1    0    0  501    0  0.00000000000E+00 -0.00000000000E+00 -0.53299417204E+03  0.53299417204E+03  0.00000000000E+00 0. -1.
         25    2    1    2    0    0 -0.62599145319E+01  0.17488674824E+02 -0.38433905622E+03  0.40458216113E+03  0.12500069879E+03 0.  0.
         23    2    1    2    0    0  0.62599145319E+01 -0.17488674824E+02 -0.12305670711E+03  0.15401041963E+03  0.90726048703E+02 0.  0.
          5    1    3    3  502    0 -0.27068900152E+02  0.59089688860E+02 -0.30991596096E+03  0.31669276838E+03  0.47000000000E+01 0. -1.
         -5    1    4    4    0  503 -0.16614750557E+02 -0.24247414076E+02 -0.12414118439E+01  0.29792920784E+02  0.47000000000E+01 0.  1.
          5    1    4    4  503    0  0.22874665089E+02  0.67587392524E+01 -0.12181529526E+03  0.12421749885E+03  0.47000000000E+01 0. -1.
         -5    1    3    3    0  502  0.20808985620E+02 -0.41601014036E+02 -0.74423095255E+02  0.87889392754E+02  0.47000000000E+01 0. -1.
<mgrwt>
<rscale>  0 0.11692402E+03</rscale>
<asrwt>0</asrwt>
<pdfrwt beam="1">  1        2 0.81999096E-01 0.12637332E+03</pdfrwt>
<pdfrwt beam="2">  1       -2 0.39382171E-02 0.12637332E+03</pdfrwt>
<totfact> 0.15319939E+04</totfact>
</mgrwt>
</event>
<event>
 8    1  0.3217375E-004  0.1349548E+03  0.7546771E-02  0.1233439E+00
         -1   -1    0    0    0  501 -0.00000000000E+00  0.00000000000E+00  0.23216730681E+02  0.23216730681E+02  0.00000000000E+00 0.  1.
          1   -1    0    0  501    0  0.00000000000E+00 -0.00000000000E+00 -0.65864593930E+03  0.65864593930E+03  0.00000000000E+00 0. -1.
         25    2    1    2    0    0 -0.50707390289E+02  0.42816065414E+01 -0.45106449957E+03  0.47082052663E+03  0.12499285557E+03 0.  0.
         23    2    1    2    0    0  0.50707390289E+02 -0.42816065414E+01 -0.18436470905E+03  0.21104214334E+03  0.89212492067E+02 0.  0.
          5    1    4    4  502    0  0.39911747753E+02 -0.26652824200E+02 -0.17875689191E+03  0.18514706871E+03  0.47000000000E+01 0. -1.
         -5    1    3    3    0  503 -0.42575183918E+02  0.40356036924E+02 -0.41431744660E+03  0.41847615530E+03  0.47000000000E+01 0.  1.
          5    1    3    3  503    0 -0.81322063715E+01 -0.36074430383E+02 -0.36747052971E+02  0.52344371330E+02  0.47000000000E+01 0.  1.
         -5    1    4    4    0  502  0.10795642536E+02  0.22371217658E+02 -0.56078171374E+01  0.25895074635E+02  0.47000000000E+01 0.  1.
<mgrwt>
<rscale>  0 0.12604908E+03</rscale>
<asrwt>0</asrwt>
<pdfrwt beam="1">  1        1 0.10133016E+00 0.13495475E+03</pdfrwt>
<pdfrwt beam="2">  1       -1 0.35718043E-02 0.13495475E+03</pdfrwt>
<totfact> 0.86010350E+03</totfact>
</mgrwt>
</event>
<event>
 8    1  0.3217375E-004  0.1275067E+03  0.7546771E-02  0.1245792E+00
         -1   -1    0    0    0  501 -0.00000000000E+00  0.00000000000E+00  0.51597964998E+02  0.51597964998E+02  0.00000000000E+00 0.  1.
          1   -1    0    0  501    0  0.00000000000E+00 -0.00000000000E+00 -0.33374365208E+03  0.33374365208E+03  0.00000000000E+00 0. -1.
         25    2    1    2    0    0  0.24972681477E+02  0.30715056415E+01 -0.54306060750E+02  0.13858970195E+03  0.12499955315E+03 0.  0.
         23    2    1    2    0    0 -0.24972681477E+02 -0.30715056415E+01 -0.22783962633E+03  0.24675191513E+03  0.91337524182E+02 0.  0.
          5    1    3    3  502    0 -0.20446060165E+02 -0.21327704436E+02 -0.76590517563E+02  0.82225967513E+02  0.47000000000E+01 0.  1.
         -5    1    3    3    0  502  0.45418741642E+02  0.24399210078E+02  0.22284456813E+02  0.56363734442E+02  0.47000000000E+01 0.  1.
          5    1    4    4  503    0 -0.36524037493E+02  0.31876244492E+02 -0.17844518555E+03  0.18497263182E+03  0.47000000000E+01 0. -1.
         -5    1    4    4    0  503  0.11551356017E+02 -0.34947750133E+02 -0.49394440788E+02  0.61779283307E+02  0.47000000000E+01 0.  1.
<mgrwt>
<rscale>  0 0.11838120E+03</rscale>
<asrwt>0</asrwt>
<pdfrwt beam="1">  1        1 0.51345177E-01 0.12750669E+03</pdfrwt>
<pdfrwt beam="2">  1       -1 0.79381485E-02 0.12750669E+03</pdfrwt>
<totfact> 0.63407091E+03</totfact>
</mgrwt>
</event>
<event>
 8    1  0.3217375E-004  0.1819826E+03  0.7546771E-02  0.1172387E+00
         -1   -1    0    0    0  501 -0.00000000000E+00  0.00000000000E+00  0.63594812299E+02  0.63594812299E+02  0.00000000000E+00 0.  1.
          1   -1    0    0  501    0  0.00000000000E+00 -0.00000000000E+00 -0.66868280559E+03  0.66868280559E+03  0.00000000000E+00 0. -1.
         25    2    1    2    0    0 -0.12696590542E+03  0.37008275935E+02 -0.52606062587E+03  0.55664839731E+03  0.12501080959E+03 0.  0.
         23    2    1    2    0    0  0.12696590542E+03 -0.37008275935E+02 -0.79027367417E+02  0.17562922057E+03  0.84322859847E+02 0.  0.
          5    1    3    3  502    0  0.22898260769E+02 -0.20586381216E+01 -0.38785317803E+02  0.45331657969E+02  0.47000000000E+01 0.  1.
         -5    1    3    3    0  502 -0.14986416618E+03  0.39066914057E+02 -0.48727530807E+03  0.51131673934E+03  0.47000000000E+01 0.  1.
          5    1    4    4  503    0  0.91627774167E+02 -0.58447389727E+02 -0.78283964721E+02  0.13402319015E+03  0.47000000000E+01 0. -1.
         -5    1    4    4    0  503  0.35338131248E+02  0.21439113792E+02 -0.74340269624E+00  0.41606030426E+02  0.47000000000E+01 0.  1.
<mgrwt>
<rscale>  0 0.17534359E+03</rscale>
<asrwt>0</asrwt>
<pdfrwt beam="1">  1        1 0.10287428E+00 0.18198257E+03</pdfrwt>
<pdfrwt beam="2">  1       -1 0.97838173E-02 0.18198257E+03</pdfrwt>
<totfact> 0.18871864E+03</totfact>
</mgrwt>
</event>
<event>
 8    1  0.3217375E-004  0.1712496E+03  0.7546771E-02  0.1182401E+00
          1   -1    0    0  501    0  0.00000000000E+00  0.00000000000E+00  0.11083067397E+03  0.11083067397E+03  0.00000000000E+00 0. -1.
         -1   -1    0    0    0  501 -0.00000000000E+00 -0.00000000000E+00 -0.33638003303E+03  0.33638003303E+03  0.00000000000E+00 0.  1.
         25    2    1    2    0    0 -0.11505675090E+03 -0.21510163302E+02  0.58814129283E+01  0.17135058329E+03  0.12500275325E+03 0.  0.
         23    2    1    2    0    0  0.11505675090E+03  0.21510163302E+02 -0.23143077198E+03  0.27586012371E+03  0.94009906829E+02 0.  0.
          5    1    3    3  502    0 -0.11023253819E+03  0.30136130799E+02 -0.14766159888E+02  0.11532358099E+03  0.47000000000E+01 0.  1.
         -5    1    4    4    0  503  0.56009710219E+02  0.11680688491E+02 -0.20002274745E+03  0.20809785107E+03  0.47000000000E+01 0.  1.
          5    1    4    4  503    0  0.59047040686E+02  0.98294748107E+01 -0.31408024528E+02  0.67762272641E+02  0.47000000000E+01 0. -1.
         -5    1    3    3    0  502 -0.48242127132E+01 -0.51646294101E+02  0.20647572816E+02  0.56027002292E+02  0.47000000000E+01 0.  1.
<mgrwt>
<rscale>  0 0.16570594E+03</rscale>
<asrwt>0</asrwt>
<pdfrwt beam="1">  1        1 0.17050873E-01 0.17124962E+03</pdfrwt>
<pdfrwt beam="2">  1       -1 0.51750774E-01 0.17124962E+03</pdfrwt>
<totfact> 0.12001627E+03</totfact>
</mgrwt>
</event>
<event>
 8    1  0.3217375E-004  0.1326411E+03  0.7546771E-02  0.1235816E+00
          1   -1    0    0  501    0  0.00000000000E+00  0.00000000000E+00  0.98647270374E+03  0.98647270374E+03  0.00000000000E+00 0. -1.
         -1   -1    0    0    0  501 -0.00000000000E+00 -0.00000000000E+00 -0.15914726862E+02  0.15914726862E+02  0.00000000000E+00 0.  1.
         25    2    1    2    0    0  0.43836667724E+02  0.68224214807E+01  0.70837848321E+03  0.72068975594E+03  0.12500179985E+03 0.  0.
         23    2    1    2    0    0 -0.43836667724E+02 -0.68224214807E+01  0.26217949367E+03  0.28169767466E+03  0.92990828254E+02 0.  0.
          5    1    4    4  502    0 -0.39637860354E+02  0.20139297072E+02  0.24514559284E+03  0.24918909075E+03  0.47000000000E+01 0. -1.
         -5    1    4    4    0  502 -0.41988073703E+01 -0.26961718552E+02  0.17033900825E+02  0.32508583912E+02  0.47000000000E+01 0.  1.
          5    1    3    3  503    0 -0.85708561608E+01 -0.51296190320E+02  0.34680548094E+03  0.35071482764E+03  0.47000000000E+01 0.  1.
         -5    1    3    3    0  503  0.52407523885E+02  0.58118611800E+02  0.36157300227E+03  0.36997492829E+03  0.47000000000E+01 0.  1.
<mgrwt>
<rscale>  0 0.12452341E+03</rscale>
<asrwt>0</asrwt>
<pdfrwt beam="1">  1        1 0.15176498E+00 0.13264105E+03</pdfrwt>
<pdfrwt beam="2">  1       -1 0.24484203E-02 0.13264105E+03</pdfrwt>
<totfact> 0.80595696E+03</totfact>
</mgrwt>
</event>
<event>
 8    1  0.3217375E-004  0.1457321E+03  0.7546771E-02  0.1215507E+00
          2   -1    0    0  501    0  0.00000000000E+00  0.00000000000E+00  0.51293611289E+03  0.51293611289E+03  0.00000000000E+00 0. -1.
         -2   -1    0    0    0  501 -0.00000000000E+00 -0.00000000000E+00 -0.35756745463E+02  0.35756745463E+02  0.00000000000E+00 0.  1.
         25    2    1    2    0    0 -0.32684814939E+02  0.67406508794E+02  0.32188278109E+03  0.35333604851E+03  0.12500361539E+03 0.  0.
         23    2    1    2    0    0  0.32684814939E+02 -0.67406508794E+02  0.15529658633E+03  0.19535680984E+03  0.91843992008E+02 0.  0.
          5    1    4    4  502    0  0.33963162256E+01  0.21831442413E+02  0.17710046923E+02  0.28703355270E+02  0.47000000000E+01 0. -1.
         -5    1    4    4    0  502  0.29288498714E+02 -0.89237951208E+02  0.13758653941E+03  0.16665345457E+03  0.47000000000E+01 0.  1.
          5    1    3    3  503    0 -0.19136445875E+02  0.98083870549E+02  0.16599025229E+03  0.19380790251E+03  0.47000000000E+01 0. -1.
         -5    1    3    3    0  503 -0.13548369064E+02 -0.30677361755E+02  0.15589252880E+03  0.15952814600E+03  0.47000000000E+01 0. -1.
<mgrwt>
<rscale>  0 0.13839337E+03</rscale>
<asrwt>0</asrwt>
<pdfrwt beam="1">  1        2 0.78913243E-01 0.14573208E+03</pdfrwt>
<pdfrwt beam="2">  1       -2 0.55010381E-02 0.14573208E+03</pdfrwt>
<totfact> 0.97953530E+03</totfact>
</mgrwt>
</event>
<event>
 8    1  0.3217375E-004  0.1308062E+03  0.7546771E-02  0.1242749E+00
          1   -1    0    0  501    0  0.00000000000E+00  0.00000000000E+00  0.10764243376E+04  0.10764243376E+04  0.00000000000E+00 0. -1.
         -1   -1    0    0    0  501 -0.00000000000E+00 -0.00000000000E+00 -0.12622579456E+02  0.12622579456E+02  0.00000000000E+00 0.  1.
         25    2    1    2    0    0 -0.11579189760E+02 -0.36754291692E+02  0.46611214682E+03  0.48411858804E+03  0.12500127313E+03 0.  0.
         23    2    1    2    0    0  0.11579189760E+02  0.36754291692E+02  0.59768961132E+03  0.60492832901E+03  0.84973267336E+02 0.  0.
          5    1    3    3  502    0 -0.15084139624E+02  0.36802659116E+02  0.65554641102E+02  0.76821012465E+02  0.47000000000E+01 0.  1.
         -5    1    4    4    0  503 -0.29112601275E+02  0.38081690762E+02  0.23183862469E+03  0.23678892842E+03  0.47000000000E+01 0.  1.
          5    1    4    4  503    0  0.40691791035E+02 -0.13273990700E+01  0.36585098663E+03  0.36813940059E+03  0.47000000000E+01 0. -1.
         -5    1    3    3    0  502  0.35049498636E+01 -0.73556950808E+02  0.40055750572E+03  0.40729757558E+03  0.47000000000E+01 0.  1.
<mgrwt>
<rscale>  0 0.12021123E+03</rscale>
<asrwt>0</asrwt>
<pdfrwt beam="1">  1        1 0.16560367E+00 0.13080625E+03</pdfrwt>
<pdfrwt beam="2">  1       -1 0.19419361E-02 0.13080625E+03</pdfrwt>
<totfact> 0.96914683E+03</totfact>
</mgrwt>
</event>
<event>
 8    1  0.3217375E-004  0.1398153E+03  0.7546771E-02  0.1224304E+00
         -1   -1    0    0    0  501 -0.00000000000E+00  0.00000000000E+00  0.29214514068E+02  0.29214514068E+02  0.00000000000E+00 0.  1.
          1   -1    0    0  501    0  0.00000000000E+00 -0.00000000000E+00 -0.55485866447E+03  0.55485866447E+03  0.00000000000E+00 0. -1.
         25    2    1    2    0    0 -0.60165660868E+02 -0.17357509809E+02 -0.24540386888E+03  0.28243826558E+03  0.12500850014E+03 0.  0.
         23    2    1    2    0    0  0.60165660868E+02  0.17357509809E+02 -0.28024028152E+03  0.30163491296E+03  0.92346171740E+02 0.  0.
          5    1    3    3  502    0 -0.41519238352E+02  0.44401837694E+02 -0.57867566931E+02  0.84060190616E+02  0.47000000000E+01 0. -1.
         -5    1    3    3    0  502 -0.18646422517E+02 -0.61759347503E+02 -0.18753630195E+03  0.19837807496E+03  0.47000000000E+01 0. -1.
          5    1    4    4  503    0  0.38850581420E+02 -0.29020681582E+02 -0.20420018203E+03  0.20993182698E+03  0.47000000000E+01 0. -1.
         -5    1    4    4    0  503  0.21315079449E+02  0.46378191391E+02 -0.76040099493E+02  0.91703085986E+02  0.47000000000E+01 0.  1.
<mgrwt>
<rscale>  0 0.13214716E+03</rscale>
<asrwt>0</asrwt>
<pdfrwt beam="1">  1        1 0.85362859E-01 0.13981529E+03</pdfrwt>
<pdfrwt beam="2">  1       -1 0.44945413E-02 0.13981529E+03</pdfrwt>
<totfact> 0.77732521E+03</totfact>
</mgrwt>
</event>
<event>
 8    1  0.3217375E-004  0.2163655E+03  0.7546771E-02  0.1139626E+00
          1   -1    0    0  501    0  0.00000000000E+00  0.00000000000E+00  0.13738502340E+03  0.13738502340E+03  0.00000000000E+00 0. -1.
         -1   -1    0    0    0  501 -0.00000000000E+00 -0.00000000000E+00 -0.32018822984E+03  0.32018822984E+03  0.00000000000E+00 0.  1.
         25    2    1    2    0    0  0.94557065304E+02 -0.14915605423E+03 -0.72892535508E+02  0.22831416884E+03  0.12500188338E+03 0.  0.
         23    2    1    2    0    0 -0.94557065304E+02  0.14915605423E+03 -0.10991067093E+03  0.22925908439E+03  0.96388822386E+02 0.  0.
          5    1    3    3  502    0  0.10024381012E+03 -0.47738227201E+02 -0.58585280411E+02  0.12562676818E+03  0.47000000000E+01 0.  1.
         -5    1    4    4    0  503  0.12965472916E+02  0.45219896148E+02 -0.47891958538E+02  0.67295409860E+02  0.47000000000E+01 0.  1.
          5    1    4    4  503    0 -0.10752253822E+03  0.10393615808E+03 -0.62018712390E+02  0.16196367453E+03  0.47000000000E+01 0. -1.
         -5    1    3    3    0  502 -0.56867448107E+01 -0.10141782703E+03 -0.14307255098E+02  0.10268740066E+03  0.47000000000E+01 0.  1.
<mgrwt>
<rscale>  0 0.21246885E+03</rscale>
<asrwt>0</asrwt>
<pdfrwt beam="1">  1        1 0.21136158E-01 0.21636552E+03</pdfrwt>
<pdfrwt beam="2">  1       -1 0.49259727E-01 0.21636552E+03</pdfrwt>
<totfact> 0.10012177E+03</totfact>
</mgrwt>
</event>
<event>
 8    1  0.3217375E-004  0.1543857E+03  0.7546771E-02  0.1203776E+00
         -2   -1    0    0    0  501 -0.00000000000E+00  0.00000000000E+00  0.19073736478E+02  0.19073736478E+02  0.00000000000E+00 0. -1.
          2   -1    0    0  501    0  0.00000000000E+00 -0.00000000000E+00 -0.10555329604E+04  0.10555329604E+04  0.00000000000E+00 0.  1.
         25    2    1    2    0    0  0.89351831654E+02  0.15023132193E+02 -0.61740482564E+03  0.63641468486E+03  0.12500195222E+03 0.  0.
         23    2    1    2    0    0 -0.89351831654E+02 -0.15023132193E+02 -0.41905439832E+03  0.43819201206E+03  0.90532902078E+02 0.  0.
          5    1    4    4  502    0 -0.54580335736E+02  0.27952999266E+02 -0.12939751625E+03  0.14326964238E+03  0.47000000000E+01 0. -1.
         -5    1    4    4    0  502 -0.34771495918E+02 -0.42976131458E+02 -0.28965688207E+03  0.29492236968E+03  0.47000000000E+01 0.  1.
          5    1    3    3  503    0  0.62101011260E+02  0.50621172126E+02 -0.54672443946E+03  0.55258369625E+03  0.47000000000E+01 0. -1.
         -5    1    3    3    0  503  0.27250820394E+02 -0.35598039934E+02 -0.70680386186E+02  0.83830988606E+02  0.47000000000E+01 0. -1.
<mgrwt>
<rscale>  0 0.14734296E+03</rscale>
<asrwt>0</asrwt>
<pdfrwt beam="1">  1        2 0.16238968E+00 0.15438566E+03</pdfrwt>
<pdfrwt beam="2">  1       -2 0.29344211E-02 0.15438566E+03</pdfrwt>
<totfact> 0.10332717E+04</totfact>
</mgrwt>
</event>
<event>
 8    1  0.3217375E-004  0.1461954E+03  0.7546771E-02  0.1215567E+00
          2   -1    0    0  501    0  0.00000000000E+00  0.00000000000E+00  0.10612041335E+03  0.10612041335E+03  0.00000000000E+00 0. -1.
         -2   -1    0    0    0  501 -0.00000000000E+00 -0.00000000000E+00 -0.17282088557E+03  0.17282088557E+03  0.00000000000E+00 0.  1.
         25    2    1    2    0    0 -0.40542764338E+02  0.64068475834E+02 -0.69016910464E+02  0.16166760848E+03  0.12499838545E+03 0.  0.
         23    2    1    2    0    0  0.40542764338E+02 -0.64068475834E+02  0.23164382468E+01  0.11727369044E+03  0.89438622794E+02 0.  0.
          5    1    4    4  502    0  0.16189324696E+02 -0.59919075597E+02  0.38514751459E+02  0.73197444863E+02  0.47000000000E+01 0. -1.
         -5    1    3    3    0  503 -0.63080600460E+02  0.83184665410E+01 -0.77909097096E+02  0.10069893967E+03  0.47000000000E+01 0. -1.
          5    1    3    3  503    0  0.22537836122E+02  0.55750009293E+02  0.88921866311E+01  0.60968668809E+02  0.47000000000E+01 0. -1.
         -5    1    4    4    0  502  0.24353439642E+02 -0.41494002372E+01 -0.36198313212E+02  0.44076245577E+02  0.47000000000E+01 0.  1.
<mgrwt>
<rscale>  0 0.13834999E+03</rscale>
<asrwt>0</asrwt>
<pdfrwt beam="1">  1        2 0.16326218E-01 0.14619535E+03</pdfrwt>
<pdfrwt beam="2">  1       -2 0.26587828E-01 0.14619535E+03</pdfrwt>
<totfact> 0.43069223E+03</totfact>
</mgrwt>
</event>
<event>
 8    1  0.3217375E-004  0.1477394E+03  0.7546771E-02  0.1212993E+00
         -1   -1    0    0    0  501 -0.00000000000E+00  0.00000000000E+00  0.17200138766E+02  0.17200138766E+02  0.00000000000E+00 0.  1.
          1   -1    0    0  501    0  0.00000000000E+00 -0.00000000000E+00 -0.10436088185E+04  0.10436088185E+04  0.00000000000E+00 0. -1.
         25    2    1    2    0    0  0.63813988922E+02 -0.46159487825E+02 -0.54426012342E+03  0.56395567838E+03  0.12499600686E+03 0.  0.
         23    2    1    2    0    0 -0.63813988922E+02  0.46159487825E+02 -0.48214855628E+03  0.49685327885E+03  0.90515340612E+02 0.  0.
          5    1    4    4  502    0 -0.60921027202E+02 -0.81850731761E+01 -0.31595418751E+03  0.32191226379E+03  0.47000000000E+01 0. -1.
         -5    1    3    3    0  503  0.17438598859E+02 -0.82426949377E+02 -0.38392834224E+03  0.39309206134E+03  0.47000000000E+01 0.  1.
          5    1    3    3  503    0  0.46375390063E+02  0.36267461552E+02 -0.16033178118E+03  0.17086361704E+03  0.47000000000E+01 0.  1.
         -5    1    4    4    0  502 -0.28929617201E+01  0.54344561001E+02 -0.16619436877E+03  0.17494101506E+03  0.47000000000E+01 0.  1.
<mgrwt>
<rscale>  0 0.14024980E+03</rscale>
<asrwt>0</asrwt>
<pdfrwt beam="1">  1        1 0.16055522E+00 0.14773938E+03</pdfrwt>
<pdfrwt beam="2">  1       -1 0.26461749E-02 0.14773938E+03</pdfrwt>
<totfact> 0.65766609E+03</totfact>
</mgrwt>
</event>
<event>
 8    1  0.3217375E-004  0.1417969E+03  0.7546771E-02  0.1223545E+00
         -2   -1    0    0    0  501 -0.00000000000E+00  0.00000000000E+00  0.99849829321E+02  0.99849829321E+02  0.00000000000E+00 0.  1.
          2   -1    0    0  501    0  0.00000000000E+00 -0.00000000000E+00 -0.18480882443E+03  0.18480882443E+03  0.00000000000E+00 0. -1.
         25    2    1    2    0    0  0.66269975547E+02 -0.93929680861E+01 -0.10198538250E+03  0.17466364337E+03  0.12500573012E+03 0.  0.
         23    2    1    2    0    0 -0.66269975547E+02  0.93929680861E+01  0.17026387385E+02  0.10999501039E+03  0.85609969829E+02 0.  0.
          5    1    3    3  502    0  0.43158825915E+02  0.49813939309E+02 -0.86904602786E+02  0.10917239939E+03  0.47000000000E+01 0. -1.
         -5    1    3    3    0  502  0.23111149632E+02 -0.59206907395E+02 -0.15080779711E+02  0.65491243974E+02  0.47000000000E+01 0. -1.
          5    1    4    4  503    0 -0.18143179362E+02 -0.36312571807E+02 -0.16128577216E+01  0.40895832778E+02  0.47000000000E+01 0. -1.
         -5    1    4    4    0  503 -0.48126796185E+02  0.45705539893E+02  0.18639245107E+02  0.69099177608E+02  0.47000000000E+01 0.  1.
<mgrwt>
<rscale>  0 0.13267124E+03</rscale>
<asrwt>0</asrwt>
<pdfrwt beam="1">  1        2 0.28432127E-01 0.14179693E+03</pdfrwt>
<pdfrwt beam="2">  1       -2 0.15361512E-01 0.14179693E+03</pdfrwt>
<totfact> 0.58513259E+03</totfact>
</mgrwt>
</event>
<event>
 8    1  0.3217375E-004  0.1329109E+03  0.7546771E-02  0.1236015E+00
         -2   -1    0    0    0  501 -0.00000000000E+00  0.00000000000E+00  0.42914417567E+03  0.42914417567E+03  0.00000000000E+00 0. -1.
          2   -1    0    0  501    0  0.00000000000E+00 -0.00000000000E+00 -0.46047373368E+02  0.46047373368E+02  0.00000000000E+00 0.  1.
         25    2    1    2    0    0  0.16645883331E+02 -0.41978183422E+02  0.79388101364E+02  0.15481527040E+03  0.12500417591E+03 0.  0.
         23    2    1    2    0    0 -0.16645883331E+02  0.41978183422E+02  0.30370870094E+03  0.32037627864E+03  0.91447971956E+02 0.  0.
          5    1    4    4  502    0  0.33134802653E+02  0.12865723215E+02  0.18347017890E+03  0.18694073533E+03  0.47000000000E+01 0. -1.
         -5    1    3    3    0  503 -0.48349383944E+02  0.67806404058E+01  0.15793040354E+02  0.51528148964E+02  0.47000000000E+01 0. -1.
          5    1    3    3  503    0  0.64995267275E+02 -0.48758823827E+02  0.63595061010E+02  0.10328712143E+03  0.47000000000E+01 0. -1.
         -5    1    4    4    0  502 -0.49780685983E+02  0.29112460207E+02  0.12023852204E+03  0.13343554331E+03  0.47000000000E+01 0.  1.
<mgrwt>
<rscale>  0 0.12439699E+03</rscale>
<asrwt>0</asrwt>
<pdfrwt beam="1">  1        2 0.70842116E-02 0.13291086E+03</pdfrwt>
<pdfrwt beam="2">  1       -2 0.66022178E-01 0.13291086E+03</pdfrwt>
<totfact> 0.20687219E+03</totfact>
</mgrwt>
</event>
<event>
 8    1  0.3217375E-004  0.1390470E+03  0.7546771E-02  0.1226669E+00
          2   -1    0    0  501    0  0.00000000000E+00  0.00000000000E+00  0.88749986082E+03  0.88749986082E+03  0.00000000000E+00 0. -1.
         -2   -1    0    0    0  501 -0.00000000000E+00 -0.00000000000E+00 -0.17207158522E+02  0.17207158522E+02  0.00000000000E+00 0.  1.
         25    2    1    2    0    0  0.60899551012E+02 -0.90731251036E+00  0.47584200082E+03  0.49574155153E+03  0.12499799055E+03 0.  0.
         23    2    1    2    0    0 -0.60899551012E+02  0.90731251036E+00  0.39445070148E+03  0.40896546781E+03  0.89172974799E+02 0.  0.
          5    1    3    3  502    0  0.64953314929E+02 -0.37122887559E+02  0.43237645962E+03  0.43882631500E+03  0.47000000000E+01 0.  1.
         -5    1    4    4    0  503 -0.14682907678E+02 -0.21624734385E+02  0.26881783066E+02  0.37788055995E+02  0.47000000000E+01 0.  1.
          5    1    4    4  503    0 -0.46216643334E+02  0.22532046895E+02  0.36756891841E+03  0.37117741182E+03  0.47000000000E+01 0. -1.
         -5    1    3    3    0  502 -0.40537639177E+01  0.36215575049E+02  0.43465541199E+02  0.56915236534E+02  0.47000000000E+01 0.  1.
<mgrwt>
<rscale>  0 0.13053143E+03</rscale>
<asrwt>0</asrwt>
<pdfrwt beam="1">  1        2 0.13653840E+00 0.13904703E+03</pdfrwt>
<pdfrwt beam="2">  1       -2 0.26472559E-02 0.13904703E+03</pdfrwt>
<totfact> 0.15118650E+04</totfact>
</mgrwt>
</event>
<event>
 8    1  0.3217375E-004  0.1853009E+03  0.7546771E-02  0.1167857E+00
         -2   -1    0    0    0  501 -0.00000000000E+00  0.00000000000E+00  0.35461093448E+02  0.35461093448E+02  0.00000000000E+00 0.  1.
          2   -1    0    0  501    0  0.00000000000E+00 -0.00000000000E+00 -0.97367117175E+03  0.97367117175E+03  0.00000000000E+00 0. -1.
         25    2    1    2    0    0 -0.12434506506E+03 -0.57007249225E+02 -0.32445291344E+03  0.37363900718E+03  0.12499957191E+03 0.  0.
         23    2    1    2    0    0  0.12434506506E+03  0.57007249225E+02 -0.61375716486E+03  0.63549325801E+03  0.91881999857E+02 0.  0.
          5    1    4    4  502    0  0.80567459491E+02  0.71901894323E+02 -0.51664837558E+03  0.52783390563E+03  0.47000000000E+01 0. -1.
         -5    1    4    4    0  502  0.43777605572E+02 -0.14894645098E+02 -0.97108789272E+02  0.10765935239E+03  0.47000000000E+01 0.  1.
          5    1    3    3  503    0 -0.81273145889E+02 -0.35181849935E+02 -0.65682550027E+02  0.11036020200E+03  0.47000000000E+01 0. -1.
         -5    1    3    3    0  503 -0.43071919174E+02 -0.21825399290E+02 -0.25877036342E+03  0.26327880518E+03  0.47000000000E+01 0. -1.
<mgrwt>
<rscale>  0 0.17994384E+03</rscale>
<asrwt>0</asrwt>
<pdfrwt beam="1">  1        2 0.14979556E+00 0.18530088E+03</pdfrwt>
<pdfrwt beam="2">  1       -2 0.54555529E-02 0.18530088E+03</pdfrwt>
<totfact> 0.46118105E+03</totfact>
</mgrwt>
</event>
<event>
 8    1  0.3217375E-004  0.1296379E+03  0.7546771E-02  0.1241990E+00
          2   -1    0    0  501    0  0.00000000000E+00  0.00000000000E+00  0.12039355134E+03  0.12039355134E+03  0.00000000000E+00 0. -1.
         -2   -1    0    0    0  501 -0.00000000000E+00 -0.00000000000E+00 -0.11005343613E+03  0.11005343613E+03  0.00000000000E+00 0.  1.
         25    2    1    2    0    0 -0.32734006805E+02 -0.10442735998E+02  0.24974961363E+02  0.13202170303E+03  0.12500166174E+03 0.  0.
         23    2    1    2    0    0  0.32734006805E+02  0.10442735998E+02 -0.14634846153E+02  0.98425284437E+02  0.91064767929E+02 0.  0.
          5    1    4    4  502    0 -0.15451349495E+02  0.13486866851E+02  0.27185772475E+02  0.34377259980E+02  0.47000000000E+01 0. -1.
         -5    1    4    4    0  502  0.48185356300E+02 -0.30441308529E+01 -0.41820618628E+02  0.64048024457E+02  0.47000000000E+01 0.  1.
          5    1    3    3  503    0 -0.20440589985E+02 -0.46947212257E+02 -0.33842432630E+02  0.61556954960E+02  0.47000000000E+01 0. -1.
         -5    1    3    3    0  503 -0.12293416820E+02  0.36504476259E+02  0.58817393993E+02  0.70464748067E+02  0.47000000000E+01 0. -1.
<mgrwt>
<rscale>  0 0.12067351E+03</rscale>
<asrwt>0</asrwt>
<pdfrwt beam="1">  1        2 0.18522085E-01 0.12963789E+03</pdfrwt>
<pdfrwt beam="2">  1       -2 0.16931298E-01 0.12963789E+03</pdfrwt>
<totfact> 0.79835309E+03</totfact>
</mgrwt>
</event>
<event>
 8    1  0.3217375E-004  0.1751047E+03  0.7546771E-02  0.1177847E+00
         -1   -1    0    0    0  501 -0.00000000000E+00  0.00000000000E+00  0.43591819396E+02  0.43591819396E+02  0.00000000000E+00 0.  1.
          1   -1    0    0  501    0  0.00000000000E+00 -0.00000000000E+00 -0.74681521498E+03  0.74681521498E+03  0.00000000000E+00 0. -1.
         25    2    1    2    0    0  0.93311346310E+02  0.79571429207E+02 -0.21104874938E+03  0.27423206150E+03  0.12499211672E+03 0.  0.
         23    2    1    2    0    0 -0.93311346310E+02 -0.79571429207E+02 -0.49217464621E+03  0.51617497288E+03  0.95718862104E+02 0.  0.
          5    1    4    4  502    0 -0.20728307327E+02  0.19344995280E+02 -0.14778190196E+03  0.15055056331E+03  0.47000000000E+01 0. -1.
         -5    1    3    3    0  503  0.94376467058E+02  0.10835802506E+03 -0.18991120906E+03  0.23819474482E+03  0.47000000000E+01 0.  1.
          5    1    3    3  503    0 -0.10651207477E+01 -0.28786595856E+02 -0.21137540317E+02  0.36037316685E+02  0.47000000000E+01 0.  1.
         -5    1    4    4    0  502 -0.72583038983E+02 -0.98916424486E+02 -0.34439274425E+03  0.36562440957E+03  0.47000000000E+01 0.  1.
<mgrwt>
<rscale>  0 0.17000115E+03</rscale>
<asrwt>0</asrwt>
<pdfrwt beam="1">  1        1 0.11489464E+00 0.17510468E+03</pdfrwt>
<pdfrwt beam="2">  1       -1 0.67064343E-02 0.17510468E+03</pdfrwt>
<totfact> 0.28524674E+03</totfact>
</mgrwt>
</event>
<event>
 8    1  0.3217375E-004  0.1315663E+03  0.7546771E-02  0.1238494E+00
         -2   -1    0    0    0  501 -0.00000000000E+00  0.00000000000E+00  0.33327970979E+02  0.33327970979E+02  0.00000000000E+00 0. -1.
          2   -1    0    0  501    0  0.00000000000E+00 -0.00000000000E+00 -0.44647320029E+03  0.44647320029E+03  0.00000000000E+00 0.  1.
         25    2    1    2    0    0 -0.39605351728E+02  0.10465547785E+02 -0.30695261922E+03  0.33396047405E+03  0.12502630206E+03 0.  0.
         23    2    1    2    0    0  0.39605351728E+02 -0.10465547785E+02 -0.10619261009E+03  0.14584069722E+03  0.91184027938E+02 0.  0.
          5    1    3    3  502    0  0.44016644041E+02  0.97510592789E+01 -0.78624860763E+02  0.90755202825E+02  0.47000000000E+01 0.  1.
         -5    1    3    3    0  502 -0.83621995770E+02  0.71448850624E+00 -0.22832775845E+03  0.24320527122E+03  0.47000000000E+01 0.  1.
          5    1    4    4  503    0  0.37556128768E+02  0.14584622370E+02 -0.43004121021E+01  0.40789184375E+02  0.47000000000E+01 0. -1.
         -5    1    4    4    0  503  0.20492229604E+01 -0.25050170155E+02 -0.10189219799E+03  0.10505151284E+03  0.47000000000E+01 0.  1.
<mgrwt>
<rscale>  0 0.12283397E+03</rscale>
<asrwt>0</asrwt>
<pdfrwt beam="1">  1        2 0.68688184E-01 0.13156629E+03</pdfrwt>
<pdfrwt beam="2">  1       -2 0.51273802E-02 0.13156629E+03</pdfrwt>
<totfact> 0.12580776E+04</totfact>
</mgrwt>
</event>
<event>
 8    1  0.3217375E-004  0.1525529E+03  0.7546771E-02  0.1205139E+00
          1   -1    0    0  501    0  0.00000000000E+00  0.00000000000E+00  0.43019264518E+02  0.43019264518E+02  0.00000000000E+00 0. -1.
         -1   -1    0    0    0  501 -0.00000000000E+00 -0.00000000000E+00 -0.49032108490E+03  0.49032108490E+03  0.00000000000E+00 0.  1.
         25    2    1    2    0    0 -0.79111649058E+02  0.37259508142E+02 -0.17563054244E+03  0.23263377422E+03  0.12500184601E+03 0.  0.
         23    2    1    2    0    0  0.79111649058E+02 -0.37259508142E+02 -0.27167127794E+03  0.30070657520E+03  0.94721893691E+02 0.  0.
          5    1    4    4  502    0  0.25766101457E+02  0.24290822768E+02 -0.33588423834E+02  0.49032726528E+02  0.47000000000E+01 0. -1.
         -5    1    3    3    0  503 -0.12672161281E+02  0.74631526851E+02 -0.79824088633E+02  0.11011096039E+03  0.47000000000E+01 0. -1.
          5    1    3    3  503    0 -0.66439487777E+02 -0.37372018709E+02 -0.95806453807E+02  0.12252281383E+03  0.47000000000E+01 0. -1.
         -5    1    4    4    0  502  0.53345547600E+02 -0.61550330910E+02 -0.23808285411E+03  0.25167384867E+03  0.47000000000E+01 0.  1.
<mgrwt>
<rscale>  0 0.14626536E+03</rscale>
<asrwt>0</asrwt>
<pdfrwt beam="1">  1        1 0.66183488E-02 0.15255289E+03</pdfrwt>
<pdfrwt beam="2">  1       -1 0.75434008E-01 0.15255289E+03</pdfrwt>
<totfact> 0.20292492E+03</totfact>
</mgrwt>
</event>
<event>
 8    1  0.3217375E-004  0.3018939E+03  0.7546771E-02  0.1085810E+00
         -1   -1    0    0    0  501 -0.00000000000E+00  0.00000000000E+00  0.18625947819E+03  0.18625947819E+03  0.00000000000E+00 0.  1.
          1   -1    0    0  501    0  0.00000000000E+00 -0.00000000000E+00 -0.50378887264E+03  0.50378887264E+03  0.00000000000E+00 0. -1.
         25    2    1    2    0    0  0.27479596816E+03 -0.18926925948E+01 -0.25088878308E+03  0.39253677561E+03  0.12499412919E+03 0.  0.
         23    2    1    2    0    0 -0.27479596816E+03  0.18926925948E+01 -0.66640611368E+02  0.29751157521E+03  0.92497350776E+02 0.  0.
          5    1    3    3  502    0  0.14193828452E+03 -0.15245152432E+02 -0.20779336825E+03  0.25214889486E+03  0.47000000000E+01 0. -1.
         -5    1    4    4    0  503 -0.22709857043E+03  0.88273096320E+01 -0.16676212943E+02  0.22792952456E+03  0.47000000000E+01 0.  1.
          5    1    4    4  503    0 -0.47697397729E+02 -0.69346170372E+01 -0.49964398425E+02  0.69582050656E+02  0.47000000000E+01 0. -1.
         -5    1    3    3    0  502  0.13285768363E+03  0.13352459837E+02 -0.43095414826E+02  0.14038788076E+03  0.47000000000E+01 0. -1.
<mgrwt>
<rscale>  0 0.29886311E+03</rscale>
<asrwt>0</asrwt>
<pdfrwt beam="1">  1        1 0.77505980E-01 0.30189392E+03</pdfrwt>
<pdfrwt beam="2">  1       -1 0.28655305E-01 0.30189392E+03</pdfrwt>
<totfact> 0.49601603E+02</totfact>
</mgrwt>
</event>
<event>
 8    1  0.3217375E-004  0.1340031E+03  0.7546771E-02  0.1234233E+00
         -1   -1    0    0    0  501 -0.00000000000E+00  0.00000000000E+00  0.84115729022E+02  0.84115729022E+02  0.00000000000E+00 0.  1.
          1   -1    0    0  501    0  0.00000000000E+00 -0.00000000000E+00 -0.19022984927E+03  0.19022984927E+03  0.00000000000E+00 0. -1.
         25    2    1    2    0    0 -0.16345726516E+01 -0.48272133501E+02 -0.10643887584E+03  0.17113172588E+03  0.12499585039E+03 0.  0.
         23    2    1    2    0    0  0.16345726516E+01  0.48272133501E+02  0.32475559191E+00  0.10321385240E+03  0.91214709129E+02 0.  0.
          5    1    4    4  502    0 -0.26913230899E+02  0.63531536974E+02  0.79936844356E+01  0.69617290801E+02  0.47000000000E+01 0.  1.
         -5    1    3    3    0  503  0.49026541039E+02 -0.49418100469E+02 -0.96819141345E+02  0.11933895638E+03  0.47000000000E+01 0. -1.
          5    1    3    3  503    0 -0.50661113691E+02  0.11459669680E+01 -0.96197344900E+01  0.51792769498E+02  0.47000000000E+01 0. -1.
         -5    1    4    4    0  502  0.28547803551E+02 -0.15259403473E+02 -0.76689288437E+01  0.33596561603E+02  0.47000000000E+01 0. -1.
<mgrwt>
<rscale>  0 0.12553653E+03</rscale>
<asrwt>0</asrwt>
<pdfrwt beam="1">  1        1 0.29266130E-01 0.13400311E+03</pdfrwt>
<pdfrwt beam="2">  1       -1 0.12940881E-01 0.13400311E+03</pdfrwt>
<totfact> 0.60484491E+03</totfact>
</mgrwt>
</event>
<event>
 8    1  0.3217375E-004  0.1264830E+03  0.7546771E-02  0.1247998E+00
          1   -1    0    0  501    0  0.00000000000E+00  0.00000000000E+00  0.50959731745E+03  0.50959731745E+03  0.00000000000E+00 0. -1.
         -1   -1    0    0    0  501 -0.00000000000E+00 -0.00000000000E+00 -0.23927623749E+02  0.23927623749E+02  0.00000000000E+00 0.  1.
         25    2    1    2    0    0  0.82862808894E+01  0.17458820492E+02  0.24875498965E+03  0.27906449447E+03  0.12499789730E+03 0.  0.
         23    2    1    2    0    0 -0.82862808894E+01 -0.17458820492E+02  0.23691470405E+03  0.25446044673E+03  0.90818880706E+02 0.  0.
          5    1    4    4  502    0 -0.28186791623E+02 -0.90510254948E+01  0.22903650731E+03  0.23098967069E+03  0.47000000000E+01 0. -1.
         -5    1    3    3    0  503 -0.43027105715E+02 -0.19964367130E+02  0.44859967519E+02  0.65455438788E+02  0.47000000000E+01 0.  1.
          5    1    3    3  503    0  0.51313386605E+02  0.37423187622E+02  0.20389502213E+03  0.21360905568E+03  0.47000000000E+01 0.  1.
         -5    1    4    4    0  502  0.19900510734E+02 -0.84077949972E+01  0.78781967380E+01  0.23470776042E+02  0.47000000000E+01 0.  1.
<mgrwt>
<rscale>  0 0.11707717E+03</rscale>
<asrwt>0</asrwt>
<pdfrwt beam="1">  1        1 0.78399579E-01 0.12648299E+03</pdfrwt>
<pdfrwt beam="2">  1       -1 0.36811733E-02 0.12648299E+03</pdfrwt>
<totfact> 0.11580050E+04</totfact>
</mgrwt>
</event>
<event>
 8    1  0.3217375E-004  0.1767543E+03  0.7546771E-02  0.1176689E+00
          2   -1    0    0  501    0  0.00000000000E+00  0.00000000000E+00  0.10574063312E+04  0.10574063312E+04  0.00000000000E+00 0. -1.
         -2   -1    0    0    0  501 -0.00000000000E+00 -0.00000000000E+00 -0.26065432083E+02  0.26065432083E+02  0.00000000000E+00 0.  1.
         25    2    1    2    0    0 -0.65622605381E+02  0.10635089666E+03  0.55539165046E+03  0.58283957157E+03  0.12500096491E+03 0.  0.
         23    2    1    2    0    0  0.65622605381E+02 -0.10635089666E+03  0.47594924864E+03  0.50063219169E+03  0.92130692621E+02 0.  0.
          5    1    4    4  502    0  0.48963592867E+02 -0.18339087046E+02  0.28332534163E+03  0.28814769606E+03  0.47000000000E+01 0. -1.
         -5    1    3    3    0  503 -0.13635149856E+02  0.12023392422E+03  0.41879748385E+03  0.43595359423E+03  0.47000000000E+01 0. -1.
          5    1    3    3  503    0 -0.51987455525E+02 -0.13883027562E+02  0.13659416661E+03  0.14688597734E+03  0.47000000000E+01 0. -1.
         -5    1    4    4    0  502  0.16659012513E+02 -0.88011809616E+02  0.19262390701E+03  0.21248449563E+03  0.47000000000E+01 0.  1.
<mgrwt>
<rscale>  0 0.17111601E+03</rscale>
<asrwt>0</asrwt>
<pdfrwt beam="1">  1        2 0.16267786E+00 0.17675429E+03</pdfrwt>
<pdfrwt beam="2">  1       -2 0.40100673E-02 0.17675429E+03</pdfrwt>
<totfact> 0.65222952E+03</totfact>
</mgrwt>
</event>
<event>
 8    1  0.3217375E-004  0.1842320E+03  0.7546771E-02  0.1168247E+00
         -2   -1    0    0    0  501 -0.00000000000E+00  0.00000000000E+00  0.45789072801E+02  0.45789072801E+02  0.00000000000E+00 0.  1.
          2   -1    0    0  501    0  0.00000000000E+00 -0.00000000000E+00 -0.76640106538E+03  0.76640106538E+03  0.00000000000E+00 0. -1.
         25    2    1    2    0    0 -0.11234913261E+02  0.13486634202E+03 -0.23297715102E+03  0.29701813226E+03  0.12500505794E+03 0.  0.
         23    2    1    2    0    0  0.11234913261E+02 -0.13486634202E+03 -0.48763484156E+03  0.51517200592E+03  0.96432896322E+02 0.  0.
          5    1    3    3  502    0 -0.35424543729E+02  0.78454308044E+02 -0.21688453918E+03  0.23339016706E+03  0.47000000000E+01 0. -1.
         -5    1    4    4    0  503  0.35926270776E+02 -0.11203829482E+03 -0.26527466986E+03  0.29023441716E+03  0.47000000000E+01 0.  1.
          5    1    4    4  503    0 -0.24691357514E+02 -0.22828047193E+02 -0.22236017170E+03  0.22493758875E+03  0.47000000000E+01 0. -1.
         -5    1    3    3    0  502  0.24189630467E+02  0.56412033973E+02 -0.16092611841E+02  0.63627965196E+02  0.47000000000E+01 0. -1.
<mgrwt>
<rscale>  0 0.17954190E+03</rscale>
<asrwt>0</asrwt>
<pdfrwt beam="1">  1        2 0.11790785E+00 0.18423197E+03</pdfrwt>
<pdfrwt beam="2">  1       -2 0.70444729E-02 0.18423197E+03</pdfrwt>
<totfact> 0.42585220E+03</totfact>
</mgrwt>
</event>
<event>
 8    1  0.3217375E-004  0.1399203E+03  0.7546771E-02  0.1223823E+00
          1   -1    0    0  501    0  0.00000000000E+00  0.00000000000E+00  0.18079705209E+03  0.18079705209E+03  0.00000000000E+00 0. -1.
         -1   -1    0    0    0  501 -0.00000000000E+00 -0.00000000000E+00 -0.10355177337E+03  0.10355177337E+03  0.00000000000E+00 0.  1.
         25    2    1    2    0    0 -0.45317185110E+02  0.43582706016E+02  0.96900140333E+02  0.17019788710E+03  0.12499833618E+03 0.  0.
         23    2    1    2    0    0  0.45317185110E+02 -0.43582706016E+02 -0.19654861612E+02  0.11415093837E+03  0.93225659637E+02 0.  0.
          5    1    4    4  502    0  0.27418700741E+02 -0.14930775399E+02  0.36617085690E+02  0.48348879705E+02  0.47000000000E+01 0. -1.
         -5    1    3    3    0  503 -0.22927629670E+02  0.71799888878E+02  0.10838485453E+03  0.13209945850E+03  0.47000000000E+01 0. -1.
          5    1    3    3  503    0 -0.22389555440E+02 -0.28217182863E+02 -0.11484714196E+02  0.38098428598E+02  0.47000000000E+01 0. -1.
         -5    1    4    4    0  502  0.17898484369E+02 -0.28651930617E+02 -0.56271947302E+02  0.65802058661E+02  0.47000000000E+01 0.  1.
<mgrwt>
<rscale>  0 0.13247886E+03</rscale>
<asrwt>0</asrwt>
<pdfrwt beam="1">  1        1 0.27814931E-01 0.13992028E+03</pdfrwt>
<pdfrwt beam="2">  1       -1 0.15931042E-01 0.13992028E+03</pdfrwt>
<totfact> 0.46693303E+03</totfact>
</mgrwt>
</event>
<event>
 8    1  0.3217375E-004  0.1278443E+03  0.7546771E-02  0.1244752E+00
          2   -1    0    0  501    0  0.00000000000E+00  0.00000000000E+00  0.30510248527E+03  0.30510248527E+03  0.00000000000E+00 0. -1.
         -2   -1    0    0    0  501 -0.00000000000E+00 -0.00000000000E+00 -0.46905761940E+02  0.46905761940E+02  0.00000000000E+00 0.  1.
         25    2    1    2    0    0 -0.22604448322E+02  0.14446586075E+02  0.20682101185E+03  0.24314417637E+03  0.12499797848E+03 0.  0.
         23    2    1    2    0    0  0.22604448322E+02 -0.14446586075E+02  0.51375711476E+02  0.10886407084E+03  0.92153444087E+02 0.  0.
          5    1    4    4  502    0  0.41040400162E+02 -0.23171332230E+02  0.67488266734E+02  0.82449871010E+02  0.47000000000E+01 0. -1.
         -5    1    4    4    0  502 -0.18435951839E+02  0.87247461553E+01 -0.16112555259E+02  0.26414199830E+02  0.47000000000E+01 0.  1.
          5    1    3    3  503    0 -0.23682268548E+02 -0.40360632373E+02  0.17133805583E+03  0.17767568732E+03  0.47000000000E+01 0. -1.
         -5    1    3    3    0  503  0.10778202251E+01  0.54807218447E+02  0.35482956026E+02  0.65468489052E+02  0.47000000000E+01 0. -1.
<mgrwt>
<rscale>  0 0.11900214E+03</rscale>
<asrwt>0</asrwt>
<pdfrwt beam="1">  1        2 0.46938843E-01 0.12784428E+03</pdfrwt>
<pdfrwt beam="2">  1       -2 0.72162712E-02 0.12784428E+03</pdfrwt>
<totfact> 0.11212639E+04</totfact>
</mgrwt>
</event>
<event>
 8    1  0.3217375E-004  0.1490214E+03  0.7546771E-02  0.1210481E+00
         -2   -1    0    0    0  501 -0.00000000000E+00  0.00000000000E+00  0.14247742764E+02  0.14247742764E+02  0.00000000000E+00 0.  1.
          2   -1    0    0  501    0  0.00000000000E+00 -0.00000000000E+00 -0.13084665460E+04  0.13084665460E+04  0.00000000000E+00 0. -1.
         25    2    1    2    0    0 -0.38982764370E+02  0.71162936711E+02 -0.75556642898E+03  0.77012206626E+03  0.12499419526E+03 0.  0.
         23    2    1    2    0    0  0.38982764370E+02 -0.71162936711E+02 -0.53865237426E+03  0.55259222251E+03  0.92886837661E+02 0.  0.
          5    1    4    4  502    0 -0.26979807483E+02 -0.27747519072E+02 -0.26079730838E+03  0.26369520452E+03  0.47000000000E+01 0. -1.
         -5    1    3    3    0  503  0.15008900005E+02  0.84633653359E+02 -0.33584137576E+03  0.34669820021E+03  0.47000000000E+01 0.  1.
          5    1    3    3  503    0 -0.53991664375E+02 -0.13470716647E+02 -0.41972505323E+03  0.42342386604E+03  0.47000000000E+01 0.  1.
         -5    1    4    4    0  502  0.65962571854E+02 -0.43415417640E+02 -0.27785506587E+03  0.28889701799E+03  0.47000000000E+01 0.  1.
<mgrwt>
<rscale>  0 0.14213758E+03</rscale>
<asrwt>0</asrwt>
<pdfrwt beam="1">  1        2 0.20130248E+00 0.14902137E+03</pdfrwt>
<pdfrwt beam="2">  1       -2 0.21919611E-02 0.14902137E+03</pdfrwt>
<totfact> 0.11412394E+04</totfact>
</mgrwt>
</event>
<event>
 8    1  0.3217375E-004  0.1546197E+03  0.7546771E-02  0.1201656E+00
         -1   -1    0    0    0  501 -0.00000000000E+00  0.00000000000E+00  0.11987301137E+02  0.11987301137E+02  0.00000000000E+00 0.  1.
          1   -1    0    0  501    0  0.00000000000E+00 -0.00000000000E+00 -0.17549272542E+04  0.17549272542E+04  0.00000000000E+00 0. -1.
         25    2    1    2    0    0 -0.31286460777E+02 -0.85458102910E+02 -0.83183029100E+03  0.84607852730E+03  0.12500124544E+03 0.  0.
         23    2    1    2    0    0  0.31286460777E+02  0.85458102910E+02 -0.91110966210E+03  0.92083602807E+03  0.97653695455E+02 0.  0.
          5    1    3    3  502    0 -0.27213520374E+02 -0.32509522141E+00 -0.34504390403E+02  0.44196428987E+02  0.47000000000E+01 0. -1.
         -5    1    4    4    0  503 -0.35342583601E+02  0.27193218602E+02 -0.31100623289E+03  0.31422211292E+03  0.47000000000E+01 0.  1.
          5    1    4    4  503    0  0.66629044378E+02  0.58264884308E+02 -0.60010342921E+03  0.60661391514E+03  0.47000000000E+01 0. -1.
         -5    1    3    3    0  502 -0.40729404027E+01 -0.85133007688E+02 -0.79732590059E+03  0.80188209831E+03  0.47000000000E+01 0. -1.
<mgrwt>
<rscale>  0 0.14904124E+03</rscale>
<asrwt>0</asrwt>
<pdfrwt beam="1">  1        1 0.26998875E+00 0.15461967E+03</pdfrwt>
<pdfrwt beam="2">  1       -1 0.18442006E-02 0.15461967E+03</pdfrwt>
<totfact> 0.37322305E+03</totfact>
</mgrwt>
</event>
<event>
 8    1  0.3217375E-004  0.1343035E+03  0.7546771E-02  0.1235423E+00
         -1   -1    0    0    0  501 -0.00000000000E+00  0.00000000000E+00  0.27156464050E+02  0.27156464050E+02  0.00000000000E+00 0.  1.
          1   -1    0    0  501    0  0.00000000000E+00 -0.00000000000E+00 -0.50637532567E+03  0.50637532567E+03  0.00000000000E+00 0. -1.
         25    2    1    2    0    0  0.25276657210E+02 -0.42126643741E+02 -0.26439658764E+03  0.29655180794E+03  0.12499542281E+03 0.  0.
         23    2    1    2    0    0 -0.25276657210E+02  0.42126643741E+02 -0.21482227399E+03  0.23697998179E+03  0.87162714816E+02 0.  0.
          5    1    3    3  502    0 -0.91809096010E+01 -0.30062061074E+02 -0.25706079170E+03  0.25901806355E+03  0.47000000000E+01 0.  1.
         -5    1    4    4    0  503  0.14298824880E+02  0.27743554803E+02 -0.19469321746E+02  0.37085114471E+02  0.47000000000E+01 0.  1.
          5    1    4    4  503    0 -0.39575482090E+02  0.14383088938E+02 -0.19535295224E+03  0.19989486731E+03  0.47000000000E+01 0. -1.
         -5    1    3    3    0  502  0.34457566811E+02 -0.12064582667E+02 -0.73357959368E+01  0.37533744384E+02  0.47000000000E+01 0.  1.
<mgrwt>
<rscale>  0 0.12477413E+03</rscale>
<asrwt>0</asrwt>
<pdfrwt beam="1">  1        1 0.77903898E-01 0.13430346E+03</pdfrwt>
<pdfrwt beam="2">  1       -1 0.41779174E-02 0.13430346E+03</pdfrwt>
<totfact> 0.97416997E+03</totfact>
</mgrwt>
</event>
<event>
 8    1  0.3217375E-004  0.1366320E+03  0.7546771E-02  0.1229714E+00
          4   -1    0    0  501    0  0.00000000000E+00  0.00000000000E+00  0.69655201050E+03  0.69655201050E+03  0.00000000000E+00 0. -1.
         -4   -1    0    0    0  501 -0.00000000000E+00 -0.00000000000E+00 -0.21292154116E+02  0.21292154116E+02  0.00000000000E+00 0.  1.
         25    2    1    2    0    0 -0.26988688735E+01 -0.55105077556E+02  0.38759510113E+03  0.41097234407E+03  0.12499780680E+03 0.  0.
         23    2    1    2    0    0  0.26988688735E+01  0.55105077556E+02  0.28766475525E+03  0.30687182055E+03  0.91517481197E+02 0.  0.
          5    1    4    4  502    0  0.22172154851E+02  0.47518468755E+02  0.27873632596E+03  0.28366465895E+03  0.47000000000E+01 0. -1.
         -5    1    4    4    0  502 -0.19473285978E+02  0.75866088010E+01  0.89284292883E+01  0.23207161598E+02  0.47000000000E+01 0.  1.
          5    1    3    3  503    0  0.10095617183E+02  0.35218493308E+02  0.56461635637E+02  0.67470512492E+02  0.47000000000E+01 0. -1.
         -5    1    3    3    0  503 -0.12794486057E+02 -0.90323570865E+02  0.33113346549E+03  0.34350183158E+03  0.47000000000E+01 0. -1.
<mgrwt>
<rscale>  0 0.12848999E+03</rscale>
<asrwt>0</asrwt>
<pdfrwt beam="1">  1        4 0.10716183E+00 0.13663201E+03</pdfrwt>
<pdfrwt beam="2">  1       -4 0.32757166E-02 0.13663201E+03</pdfrwt>
<totfact> 0.56808694E+02</totfact>
</mgrwt>
</event>
<event>
 8    1  0.3217375E-004  0.1719218E+03  0.7546771E-02  0.1182126E+00
         -2   -1    0    0    0  501 -0.00000000000E+00  0.00000000000E+00  0.20113409834E+03  0.20113409834E+03  0.00000000000E+00 0. -1.
          2   -1    0    0  501    0  0.00000000000E+00 -0.00000000000E+00 -0.12877300024E+03  0.12877300024E+03  0.00000000000E+00 0.  1.
         25    2    1    2    0    0  0.87436284786E+02 -0.79299350820E+02  0.49238358416E+02  0.17883375401E+03  0.12499441865E+03 0.  0.
         23    2    1    2    0    0 -0.87436284786E+02  0.79299350820E+02  0.23122739681E+02  0.15107334458E+03  0.91405707779E+02 0.  0.
          5    1    3    3  502    0  0.49458973426E+02 -0.49162649774E+02 -0.37526403275E+02  0.79331438458E+02  0.47000000000E+01 0. -1.
         -5    1    4    4    0  503 -0.40406587281E+02  0.49276680109E+02  0.57002062180E+02  0.85628316526E+02  0.47000000000E+01 0.  1.
          5    1    4    4  503    0 -0.47029697505E+02  0.30022670711E+02 -0.33879322499E+02  0.65445028054E+02  0.47000000000E+01 0. -1.
         -5    1    3    3    0  502  0.37977311360E+02 -0.30136701046E+02  0.86764761691E+02  0.99502315548E+02  0.47000000000E+01 0. -1.
<mgrwt>
<rscale>  0 0.16596184E+03</rscale>
<asrwt>0</asrwt>
<pdfrwt beam="1">  1        2 0.19811231E-01 0.17192177E+03</pdfrwt>
<pdfrwt beam="2">  1       -2 0.30943708E-01 0.17192177E+03</pdfrwt>
<totfact> 0.26499208E+03</totfact>
</mgrwt>
</event>
<event>
 8    1  0.3217375E-004  0.1397591E+03  0.7546771E-02  0.1224491E+00
         -1   -1    0    0    0  501 -0.00000000000E+00  0.00000000000E+00  0.39454659067E+02  0.39454659067E+02  0.00000000000E+00 0.  1.
          1   -1    0    0  501    0  0.00000000000E+00 -0.00000000000E+00 -0.72327057891E+03  0.72327057891E+03  0.00000000000E+00 0. -1.
         25    2    1    2    0    0  0.61329888029E+02 -0.12140787748E+02 -0.61764733084E+03  0.63326204503E+03  0.12499535389E+03 0.  0.
         23    2    1    2    0    0 -0.61329888029E+02  0.12140787748E+02 -0.66168589006E+02  0.12946319295E+03  0.92052605959E+02 0.  0.
          5    1    3    3  502    0  0.91971448028E+02 -0.37085726039E+02 -0.41117464381E+03  0.42299027890E+03  0.47000000000E+01 0.  1.
         -5    1    4    4    0  503 -0.35471449967E+02  0.44915226495E+02 -0.65955470128E+02  0.87451788853E+02  0.47000000000E+01 0. -1.
          5    1    4    4  503    0 -0.25858438061E+02 -0.32774438747E+02 -0.21311887833E+00  0.42011404092E+02  0.47000000000E+01 0.  1.
         -5    1    3    3    0  502 -0.30641559999E+02  0.24944938291E+02 -0.20647268702E+03  0.21027176613E+03  0.47000000000E+01 0.  1.
<mgrwt>
<rscale>  0 0.13201878E+03</rscale>
<asrwt>0</asrwt>
<pdfrwt beam="1">  1        1 0.11127239E+00 0.13975905E+03</pdfrwt>
<pdfrwt beam="2">  1       -1 0.60699478E-02 0.13975905E+03</pdfrwt>
<totfact> 0.34468306E+03</totfact>
</mgrwt>
</event>
<event>
 8    1  0.3217375E-004  0.1292647E+03  0.7546771E-02  0.1242695E+00
          1   -1    0    0  501    0  0.00000000000E+00  0.00000000000E+00  0.68944106989E+03  0.68944106989E+03  0.00000000000E+00 0. -1.
         -1   -1    0    0    0  501 -0.00000000000E+00 -0.00000000000E+00 -0.20006683348E+02  0.20006683348E+02  0.00000000000E+00 0.  1.
         25    2    1    2    0    0  0.20004980520E+02 -0.26161650743E+02  0.28378802603E+03  0.31184132818E+03  0.12499895610E+03 0.  0.
         23    2    1    2    0    0 -0.20004980520E+02  0.26161650743E+02  0.38564636051E+03  0.39760642506E+03  0.91011662206E+02 0.  0.
          5    1    4    4  502    0 -0.36493719328E+01 -0.27813261640E+02  0.23438500305E+03  0.23610445801E+03  0.47000000000E+01 0. -1.
         -5    1    4    4    0  502 -0.16355608587E+02  0.53974912383E+02  0.15126135746E+03  0.16150196705E+03  0.47000000000E+01 0.  1.
          5    1    3    3  503    0  0.31967403931E+02 -0.57777700427E+02  0.73972822381E+02  0.99268555101E+02  0.47000000000E+01 0.  1.
         -5    1    3    3    0  503 -0.11962423411E+02  0.31616049684E+02  0.20981520365E+03  0.21257277308E+03  0.47000000000E+01 0.  1.
<mgrwt>
<rscale>  0 0.12024429E+03</rscale>
<asrwt>0</asrwt>
<pdfrwt beam="1">  1        1 0.10606784E+00 0.12926473E+03</pdfrwt>
<pdfrwt beam="2">  1       -1 0.30779518E-02 0.12926473E+03</pdfrwt>
<totfact> 0.99925007E+03</totfact>
</mgrwt>
</event>
<event>
 8    1  0.3217375E-004  0.1254131E+03  0.7546771E-02  0.1254178E+00
         -2   -1    0    0    0  501 -0.00000000000E+00  0.00000000000E+00  0.34477175575E+02  0.34477175575E+02  0.00000000000E+00 0.  1.
          2   -1    0    0  501    0  0.00000000000E+00 -0.00000000000E+00 -0.51861896015E+03  0.51861896015E+03  0.00000000000E+00 0. -1.
         25    2    1    2    0    0 -0.47052318217E+01  0.90591846014E+01 -0.44099477560E+03  0.45848100055E+03  0.12499691084E+03 0.  0.
         23    2    1    2    0    0  0.47052318217E+01 -0.90591846014E+01 -0.43147008968E+02  0.94615135176E+02  0.83583200402E+02 0.  0.
          5    1    4    4  502    0  0.30735791997E+02  0.16798486301E+02 -0.45426279045E+02  0.57554451432E+02  0.47000000000E+01 0. -1.
         -5    1    3    3    0  503  0.44571214130E+02 -0.31997480185E+02 -0.13497115087E+03  0.14577288306E+03  0.47000000000E+01 0. -1.
          5    1    3    3  503    0 -0.49276445952E+02  0.41056664786E+02 -0.30602362473E+03  0.31270811749E+03  0.47000000000E+01 0. -1.
         -5    1    4    4    0  502 -0.26030560175E+02 -0.25857670903E+02  0.22792700769E+01  0.37060683745E+02  0.47000000000E+01 0.  1.
<mgrwt>
<rscale>  0 0.11352476E+03</rscale>
<asrwt>0</asrwt>
<pdfrwt beam="1">  1        2 0.79787536E-01 0.12541306E+03</pdfrwt>
<pdfrwt beam="2">  1       -2 0.53041806E-02 0.12541306E+03</pdfrwt>
<totfact> 0.10119007E+04</totfact>
</mgrwt>
</event>
<event>
 8    1  0.3217375E-004  0.2531585E+03  0.7546771E-02  0.1113721E+00
          2   -1    0    0  501    0  0.00000000000E+00  0.00000000000E+00  0.11780688269E+03  0.11780688269E+03  0.00000000000E+00 0. -1.
         -2   -1    0    0    0  501 -0.00000000000E+00 -0.00000000000E+00 -0.54733750668E+03  0.54733750668E+03  0.00000000000E+00 0.  1.
         25    2    1    2    0    0 -0.18672046000E+03 -0.11659914196E+03 -0.30482000990E+03  0.39623786880E+03  0.12501727941E+03 0.  0.
         23    2    1    2    0    0  0.18672046000E+03  0.11659914196E+03 -0.12471061410E+03  0.26890652057E+03  0.91093849685E+02 0.  0.
          5    1    3    3  502    0 -0.14959740339E+03 -0.11372019981E+03 -0.16067005968E+03  0.24728248022E+03  0.47000000000E+01 0.  1.
         -5    1    3    3    0  502 -0.37123056606E+02 -0.28789421488E+01 -0.14414995021E+03  0.14895538858E+03  0.47000000000E+01 0.  1.
          5    1    4    4  503    0  0.23912219817E+02  0.31055683033E+02  0.10194937982E+02  0.40771024830E+02  0.47000000000E+01 0. -1.
         -5    1    4    4    0  503  0.16280824018E+03  0.85543458922E+02 -0.13490555208E+03  0.22813549574E+03  0.47000000000E+01 0.  1.
<mgrwt>
<rscale>  0 0.24934330E+03</rscale>
<asrwt>0</asrwt>
<pdfrwt beam="1">  1        2 0.18124135E-01 0.25315847E+03</pdfrwt>
<pdfrwt beam="2">  1       -2 0.84205773E-01 0.25315847E+03</pdfrwt>
<totfact> 0.39647661E+02</totfact>
</mgrwt>
</event>
<event>
 8    1  0.3217375E-004  0.1831065E+03  0.7546771E-02  0.1170337E+00
          2   -1    0    0  501    0  0.00000000000E+00  0.00000000000E+00  0.16135052810E+03  0.16135052810E+03  0.00000000000E+00 0. -1.
         -2   -1    0    0    0  501 -0.00000000000E+00 -0.00000000000E+00 -0.20592927480E+03  0.20592927480E+03  0.00000000000E+00 0.  1.
         25    2    1    2    0    0 -0.12594845028E+03 -0.45137013640E+02  0.36494191820E+02  0.18670782086E+03  0.12501048838E+03 0.  0.
         23    2    1    2    0    0  0.12594845028E+03  0.45137013640E+02 -0.81072938515E+02  0.18057198204E+03  0.90183464180E+02 0.  0.
          5    1    3    3  502    0 -0.84270921976E+02  0.20412143757E+02 -0.21736312078E+02  0.89514251191E+02  0.47000000000E+01 0. -1.
         -5    1    3    3    0  502 -0.41677528304E+02 -0.65549157397E+02  0.58230503899E+02  0.97193569670E+02  0.47000000000E+01 0. -1.
          5    1    4    4  503    0  0.31393822085E+02  0.10415189306E+02  0.19060037200E+02  0.38463271461E+02  0.47000000000E+01 0. -1.
         -5    1    4    4    0  503  0.94554628194E+02  0.34721824334E+02 -0.10013297572E+03  0.14210871058E+03  0.47000000000E+01 0.  1.
<mgrwt>
<rscale>  0 0.17740636E+03</rscale>
<asrwt>0</asrwt>
<pdfrwt beam="1">  1        2 0.24823158E-01 0.18310648E+03</pdfrwt>
<pdfrwt beam="2">  1       -2 0.31681427E-01 0.18310648E+03</pdfrwt>
<totfact> 0.19743327E+03</totfact>
</mgrwt>
</event>
<event>
 8    1  0.3217375E-004  0.1344680E+03  0.7546771E-02  0.1233698E+00
         -1   -1    0    0    0  501 -0.00000000000E+00  0.00000000000E+00  0.29744884004E+03  0.29744884004E+03  0.00000000000E+00 0.  1.
          1   -1    0    0  501    0  0.00000000000E+00 -0.00000000000E+00 -0.50653361927E+02  0.50653361927E+02  0.00000000000E+00 0. -1.
         25    2    1    2    0    0 -0.43496912855E+02 -0.23762393255E+02  0.18162421574E+03  0.22598450140E+03  0.12500002546E+03 0.  0.
         23    2    1    2    0    0  0.43496912855E+02  0.23762393255E+02  0.65171262369E+02  0.12211770057E+03  0.90602464605E+02 0.  0.
          5    1    3    3  502    0 -0.69649219459E+02 -0.57626050231E+02  0.11042104569E+03  0.14278190631E+03  0.47000000000E+01 0. -1.
         -5    1    3    3    0  502  0.26152306604E+02  0.33863656977E+02  0.71203170048E+02  0.83202595088E+02  0.47000000000E+01 0. -1.
          5    1    4    4  503    0  0.10064881218E+02  0.36355315892E+02 -0.95205833677E+01  0.39188548521E+02  0.47000000000E+01 0. -1.
         -5    1    4    4    0  503  0.33432031638E+02 -0.12592922637E+02  0.74691845737E+02  0.82929152049E+02  0.47000000000E+01 0.  1.
<mgrwt>
<rscale>  0 0.12588139E+03</rscale>
<asrwt>0</asrwt>
<pdfrwt beam="1">  1        1 0.77928251E-02 0.13446799E+03</pdfrwt>
<pdfrwt beam="2">  1       -1 0.45761359E-01 0.13446799E+03</pdfrwt>
<totfact> 0.41734531E+03</totfact>
</mgrwt>
</event>
<event>
 8    1  0.3217375E-004  0.1297795E+03  0.7546771E-02  0.1242008E+00
          1   -1    0    0  501    0  0.00000000000E+00  0.00000000000E+00  0.10839273512E+04  0.10839273512E+04  0.00000000000E+00 0. -1.
         -1   -1    0    0    0  501 -0.00000000000E+00 -0.00000000000E+00 -0.11882523113E+02  0.11882523113E+02  0.00000000000E+00 0.  1.
         25    2    1    2    0    0  0.19946855272E+02 -0.28643845069E+02  0.58951191252E+03  0.60362819847E+03  0.12499744037E+03 0.  0.
         23    2    1    2    0    0 -0.19946855272E+02  0.28643845069E+02  0.48253291559E+03  0.49218167586E+03  0.90478950733E+02 0.  0.
          5    1    3    3  502    0 -0.50758022970E+02 -0.92937793390E+01  0.32507257766E+03  0.32917627797E+03  0.47000000000E+01 0. -1.
         -5    1    3    3    0  502  0.70704878242E+02 -0.19350065730E+02  0.26443933486E+03  0.27445192051E+03  0.47000000000E+01 0. -1.
          5    1    4    4  503    0  0.63915350187E+01  0.57105325980E+02  0.26964313327E+03  0.27573788150E+03  0.47000000000E+01 0. -1.
         -5    1    4    4    0  503 -0.26338390290E+02 -0.28461480911E+02  0.21288978232E+03  0.21644379436E+03  0.47000000000E+01 0.  1.
<mgrwt>
<rscale>  0 0.12066271E+03</rscale>
<asrwt>0</asrwt>
<pdfrwt beam="1">  1        1 0.16675798E+00 0.12977946E+03</pdfrwt>
<pdfrwt beam="2">  1       -1 0.18280813E-02 0.12977946E+03</pdfrwt>
<totfact> 0.10438582E+04</totfact>
</mgrwt>
</event>
<event>
 8    1  0.3217375E-004  0.2280501E+03  0.7546771E-02  0.1131164E+00
         -2   -1    0    0    0  501 -0.00000000000E+00  0.00000000000E+00  0.25243511567E+03  0.25243511567E+03  0.00000000000E+00 0.  1.
          2   -1    0    0  501    0  0.00000000000E+00 -0.00000000000E+00 -0.33009803241E+03  0.33009803241E+03  0.00000000000E+00 0. -1.
         25    2    1    2    0    0  0.18367374046E+02 -0.18985677465E+03 -0.22870255216E+03  0.32297324400E+03  0.12499561458E+03 0.  0.
         23    2    1    2    0    0 -0.18367374046E+02  0.18985677465E+03  0.15103963542E+03  0.25955990409E+03  0.90418012750E+02 0.  0.
          5    1    4    4  502    0 -0.52414789203E+02  0.11101641488E+03  0.70063308057E+02  0.14143165005E+03  0.47000000000E+01 0. -1.
         -5    1    3    3    0  503  0.41226505314E+02 -0.12514539553E+03 -0.68395145965E+02  0.14852939357E+03  0.47000000000E+01 0. -1.
          5    1    3    3  503    0 -0.22859131268E+02 -0.64711379120E+02 -0.16030740620E+03  0.17444385043E+03  0.47000000000E+01 0. -1.
         -5    1    4    4    0  502  0.34047415157E+02  0.78840359771E+02  0.80976327366E+02  0.11812825403E+03  0.47000000000E+01 0.  1.
<mgrwt>
<rscale>  0 0.22368605E+03</rscale>
<asrwt>0</asrwt>
<pdfrwt beam="1">  1        2 0.50784313E-01 0.22805012E+03</pdfrwt>
<pdfrwt beam="2">  1       -2 0.38836172E-01 0.22805012E+03</pdfrwt>
<totfact> 0.62320212E+02</totfact>
</mgrwt>
</event>
<event>
 8    1  0.3217375E-004  0.1502258E+03  0.7546771E-02  0.1212048E+00
         -1   -1    0    0    0  501 -0.00000000000E+00  0.00000000000E+00  0.16943484580E+03  0.16943484580E+03  0.00000000000E+00 0.  1.
          1   -1    0    0  501    0  0.00000000000E+00 -0.00000000000E+00 -0.11473795280E+03  0.11473795280E+03  0.00000000000E+00 0. -1.
         25    2    1    2    0    0  0.81069237068E+02  0.19250676176E+02  0.71767979819E+02  0.16648856327E+03  0.12499995616E+03 0.  0.
         23    2    1    2    0    0 -0.81069237068E+02 -0.19250676176E+02 -0.17071086812E+02  0.11768423533E+03  0.81334786585E+02 0.  0.
          5    1    3    3  502    0  0.24882585237E+02 -0.52555266387E+02  0.35240404846E+02  0.68155522204E+02  0.47000000000E+01 0.  1.
         -5    1    4    4    0  503 -0.45625146372E+02 -0.12742638008E+02  0.31455705875E+02  0.57057692180E+02  0.47000000000E+01 0.  1.
          5    1    4    4  503    0 -0.35444090696E+02 -0.65080381684E+01 -0.48526792688E+02  0.60626543152E+02  0.47000000000E+01 0. -1.
         -5    1    3    3    0  502  0.56186651830E+02  0.71805942564E+02  0.36527574974E+02  0.98333041063E+02  0.47000000000E+01 0.  1.
<mgrwt>
<rscale>  0 0.14095599E+03</rscale>
<asrwt>0</asrwt>
<pdfrwt beam="1">  1        1 0.17651993E-01 0.15022583E+03</pdfrwt>
<pdfrwt beam="2">  1       -1 0.26066899E-01 0.15022583E+03</pdfrwt>
<totfact> 0.37692588E+03</totfact>
</mgrwt>
</event>
<event>
 8    1  0.3217375E-004  0.1273945E+03  0.7546771E-02  0.1245552E+00
          2   -1    0    0  501    0  0.00000000000E+00  0.00000000000E+00  0.19321623626E+03  0.19321623626E+03  0.00000000000E+00 0. -1.
         -2   -1    0    0    0  501 -0.00000000000E+00 -0.00000000000E+00 -0.64911301090E+02  0.64911301090E+02  0.00000000000E+00 0.  1.
         25    2    1    2    0    0  0.21637171625E+02 -0.11698029700E+02  0.86110662793E+02  0.15376735468E+03  0.12499736806E+03 0.  0.
         23    2    1    2    0    0 -0.21637171625E+02  0.11698029700E+02  0.42194272379E+02  0.10436018268E+03  0.92226243617E+02 0.  0.
          5    1    3    3  502    0 -0.23721811248E+02 -0.13186596093E+02  0.10184527282E+03  0.10550431385E+03  0.47000000000E+01 0. -1.
         -5    1    4    4    0  503 -0.38255631056E+02  0.33611292330E+02 -0.30212945791E+01  0.51229195782E+02  0.47000000000E+01 0.  1.
          5    1    4    4  503    0  0.16618459430E+02 -0.21913262630E+02  0.45215566958E+02  0.53130986894E+02  0.47000000000E+01 0. -1.
         -5    1    3    3    0  502  0.45358982873E+02  0.14885663933E+01 -0.15734610025E+02  0.48263040826E+02  0.47000000000E+01 0. -1.
<mgrwt>
<rscale>  0 0.11852416E+03</rscale>
<asrwt>0</asrwt>
<pdfrwt beam="1">  1        2 0.29725575E-01 0.12739448E+03</pdfrwt>
<pdfrwt beam="2">  1       -2 0.99863541E-02 0.12739448E+03</pdfrwt>
<totfact> 0.11029494E+04</totfact>
</mgrwt>
</event>
<event>
 8    1  0.3217375E-004  0.1403083E+03  0.7546771E-02  0.1223006E+00
         -2   -1    0    0    0  501 -0.00000000000E+00  0.00000000000E+00  0.58618864308E+03  0.58618864308E+03  0.00000000000E+00 0.  1.
          2   -1    0    0  501    0  0.00000000000E+00 -0.00000000000E+00 -0.38868266343E+02  0.38868266343E+02  0.00000000000E+00 0. -1.
         25    2    1    2    0    0 -0.62022459246E+02  0.14728058622E+02  0.46278431626E+03  0.48358634159E+03  0.12499090060E+03 0.  0.
         23    2    1    2    0    0  0.62022459246E+02 -0.14728058622E+02  0.84536060478E+02  0.14147056783E+03  0.93828966107E+02 0.  0.
          5    1    4    4  502    0  0.47801025579E+02 -0.52187758907E+02  0.66692627369E+02  0.97357571721E+02  0.47000000000E+01 0. -1.
         -5    1    3    3    0  503 -0.74607827966E+02  0.54150851937E+02  0.37822926269E+03  0.38933033264E+03  0.47000000000E+01 0.  1.
          5    1    3    3  503    0  0.12585368721E+02 -0.39422793316E+02  0.84555053571E+02  0.94256008949E+02  0.47000000000E+01 0.  1.
         -5    1    4    4    0  502  0.14221433666E+02  0.37459700285E+02  0.17843433109E+02  0.44112996113E+02  0.47000000000E+01 0.  1.
<mgrwt>
<rscale>  0 0.13304534E+03</rscale>
<asrwt>0</asrwt>
<pdfrwt beam="1">  1        2 0.59797337E-02 0.14030833E+03</pdfrwt>
<pdfrwt beam="2">  1       -2 0.90182862E-01 0.14030833E+03</pdfrwt>
<totfact> 0.13095740E+03</totfact>
</mgrwt>
</event>
<event>
 8    1  0.3217375E-004  0.1489628E+03  0.7546771E-02  0.1210952E+00
          2   -1    0    0  501    0  0.00000000000E+00  0.00000000000E+00  0.24573937992E+03  0.24573937992E+03  0.00000000000E+00 0. -1.
         -2   -1    0    0    0  501 -0.00000000000E+00 -0.00000000000E+00 -0.77492977697E+02  0.77492977697E+02  0.00000000000E+00 0.  1.
         25    2    1    2    0    0 -0.44785679844E+02 -0.67521110044E+02  0.62310361911E+02  0.16146982058E+03  0.12500025735E+03 0.  0.
         23    2    1    2    0    0  0.44785679844E+02  0.67521110044E+02  0.10593604031E+03  0.16176253704E+03  0.91541336728E+02 0.  0.
          5    1    3    3  502    0 -0.36342121615E+02  0.30397419610E+02  0.35793181486E+02  0.59565046490E+02  0.47000000000E+01 0.  1.
         -5    1    4    4    0  503 -0.13008776515E+02  0.44294351095E+02  0.10297635326E+02  0.47532610897E+02  0.47000000000E+01 0.  1.
          5    1    4    4  503    0  0.57794456359E+02  0.23226758949E+02  0.95638404987E+02  0.11422992614E+03  0.47000000000E+01 0. -1.
         -5    1    3    3    0  502 -0.84435582294E+01 -0.97918529655E+02  0.26517180425E+02  0.10190477409E+03  0.47000000000E+01 0.  1.
<mgrwt>
<rscale>  0 0.14178139E+03</rscale>
<asrwt>0</asrwt>
<pdfrwt beam="1">  1        2 0.37806058E-01 0.14896282E+03</pdfrwt>
<pdfrwt beam="2">  1       -2 0.11921997E-01 0.14896282E+03</pdfrwt>
<totfact> 0.65069351E+03</totfact>
</mgrwt>
</event>
<event>
 8    1  0.3217375E-004  0.1328473E+03  0.7546771E-02  0.1235757E+00
         -2   -1    0    0    0  501 -0.00000000000E+00  0.00000000000E+00  0.13653842139E+02  0.13653842139E+02  0.00000000000E+00 0.  1.
          2   -1    0    0  501    0  0.00000000000E+00 -0.00000000000E+00 -0.10949619236E+04  0.10949619236E+04  0.00000000000E+00 0. -1.
         25    2    1    2    0    0 -0.28192908276E+02  0.35054944827E+02 -0.75292624802E+03  0.76455629748E+03  0.12499883129E+03 0.  0.
         23    2    1    2    0    0  0.28192908276E+02 -0.35054944827E+02 -0.32838183346E+03  0.34405946828E+03  0.92296261745E+02 0.  0.
          5    1    3    3  502    0 -0.71261682615E+02 -0.74931566874E+01 -0.43402686172E+03  0.43992701838E+03  0.47000000000E+01 0. -1.
         -5    1    4    4    0  503 -0.17520428211E+01  0.27792518706E+02 -0.53933882501E+02  0.60880599798E+02  0.47000000000E+01 0.  1.
          5    1    4    4  503    0  0.29944951097E+02 -0.62847463533E+02 -0.27444795096E+03  0.28317886848E+03  0.47000000000E+01 0. -1.
         -5    1    3    3    0  502  0.43068774339E+02  0.42548101514E+02 -0.31889938630E+03  0.32462927910E+03  0.47000000000E+01 0. -1.
<mgrwt>
<rscale>  0 0.12456079E+03</rscale>
<asrwt>0</asrwt>
<pdfrwt beam="1">  1        2 0.16845574E+00 0.13284727E+03</pdfrwt>
<pdfrwt beam="2">  1       -2 0.21005904E-02 0.13284727E+03</pdfrwt>
<totfact> 0.15847368E+04</totfact>
</mgrwt>
</event>
<event>
 8    1  0.3217375E-004  0.2358956E+03  0.7546771E-02  0.1125281E+00
         -4   -1    0    0    0  501 -0.00000000000E+00  0.00000000000E+00  0.27315752643E+03  0.27315752643E+03  0.00000000000E+00 0.  1.
          4   -1    0    0  501    0  0.00000000000E+00 -0.00000000000E+00 -0.20476087705E+03  0.20476087705E+03  0.00000000000E+00 0. -1.
         25    2    1    2    0    0  0.45603342344E+02  0.19478549646E+03  0.98052186094E+02  0.25546226976E+03  0.12500274242E+03 0.  0.
         23    2    1    2    0    0 -0.45603342344E+02 -0.19478549646E+03 -0.29655536712E+02  0.22245613371E+03  0.92661891326E+02 0.  0.
          5    1    4    4  502    0 -0.66650354805E+02 -0.89288779185E+02 -0.31573408926E+01  0.11156529337E+03  0.47000000000E+01 0. -1.
         -5    1    3    3    0  503  0.65039560685E+02  0.18013482190E+03  0.11680848789E+03  0.22437694034E+03  0.47000000000E+01 0. -1.
          5    1    3    3  503    0 -0.19436218341E+02  0.14650674557E+02 -0.18756301794E+02  0.31085329423E+02  0.47000000000E+01 0. -1.
         -5    1    4    4    0  502  0.21047012461E+02 -0.10549671727E+03 -0.26498195819E+02  0.11089084033E+03  0.47000000000E+01 0.  1.
<mgrwt>
<rscale>  0 0.23194102E+03</rscale>
<asrwt>0</asrwt>
<pdfrwt beam="1">  1        4 0.31501673E-01 0.23589561E+03</pdfrwt>
<pdfrwt beam="2">  1       -4 0.42024235E-01 0.23589561E+03</pdfrwt>
<totfact> 0.96941478E+01</totfact>
</mgrwt>
</event>
<event>
 8    1  0.3217375E-004  0.2373409E+03  0.7546771E-02  0.1124395E+00
         -2   -1    0    0    0  501 -0.00000000000E+00  0.00000000000E+00  0.28396855004E+03  0.28396855004E+03  0.00000000000E+00 0.  1.
          2   -1    0    0  501    0  0.00000000000E+00 -0.00000000000E+00 -0.18602686878E+03  0.18602686878E+03  0.00000000000E+00 0. -1.
         25    2    1    2    0    0  0.17099423938E+02  0.20102924193E+03  0.34718406786E+02  0.23986673831E+03  0.12500215185E+03 0.  0.
         23    2    1    2    0    0 -0.17099423938E+02 -0.20102924193E+03  0.63223274483E+02  0.23012868051E+03  0.90867379992E+02 0.  0.
          5    1    4    4  502    0  0.37059354899E+02 -0.72296288236E+02  0.27445218179E+02  0.85880609448E+02  0.47000000000E+01 0. -1.
         -5    1    3    3    0  503  0.62688614122E+02  0.16851024724E+03  0.37015889530E+02  0.18362415921E+03  0.47000000000E+01 0. -1.
          5    1    3    3  503    0 -0.45589190184E+02  0.32518994688E+02 -0.22974827443E+01  0.56242579103E+02  0.47000000000E+01 0. -1.
         -5    1    4    4    0  502 -0.54158778837E+02 -0.12873295370E+03  0.35778056304E+02  0.14424807106E+03  0.47000000000E+01 0.  1.
<mgrwt>
<rscale>  0 0.23321786E+03</rscale>
<asrwt>0</asrwt>
<pdfrwt beam="1">  1        2 0.28619519E-01 0.23734086E+03</pdfrwt>
<pdfrwt beam="2">  1       -2 0.43687469E-01 0.23734086E+03</pdfrwt>
<totfact> 0.92674892E+02</totfact>
</mgrwt>
</event>
<event>
 8    1  0.3217375E-004  0.2072791E+03  0.7546771E-02  0.1147639E+00
          2   -1    0    0  501    0  0.00000000000E+00  0.00000000000E+00  0.18663411504E+04  0.18663411504E+04  0.00000000000E+00 0. -1.
         -2   -1    0    0    0  501 -0.00000000000E+00 -0.00000000000E+00 -0.21111043930E+02  0.21111043930E+02  0.00000000000E+00 0.  1.
         25    2    1    2    0    0 -0.13603501203E+03  0.93989955005E+02  0.10274318808E+04  0.10481321045E+04  0.12500001054E+03 0.  0.
         23    2    1    2    0    0  0.13603501203E+03 -0.93989955005E+02  0.81779822571E+03  0.83932008988E+03  0.91239460578E+02 0.  0.
          5    1    4    4  502    0  0.60961262878E+02 -0.47132651729E+02  0.58764579072E+03  0.59269505463E+03  0.47000000000E+01 0. -1.
         -5    1    4    4    0  502  0.75073749153E+02 -0.46857303276E+02  0.23015243499E+03  0.24662503525E+03  0.47000000000E+01 0.  1.
          5    1    3    3  503    0 -0.31731035519E+02  0.97036658436E+02  0.54877320893E+03  0.55820882879E+03  0.47000000000E+01 0.  1.
         -5    1    3    3    0  503 -0.10430397651E+03 -0.30467034319E+01  0.47865867187E+03  0.48992327570E+03  0.47000000000E+01 0.  1.
<mgrwt>
<rscale>  0 0.20250971E+03</rscale>
<asrwt>0</asrwt>
<pdfrwt beam="1">  1        2 0.28712928E+00 0.20727913E+03</pdfrwt>
<pdfrwt beam="2">  1       -2 0.32478544E-02 0.20727913E+03</pdfrwt>
<totfact> 0.32841231E+03</totfact>
</mgrwt>
</event>
<event>
 8    1  0.3217375E-004  0.2229718E+03  0.7546771E-02  0.1134947E+00
         -3   -1    0    0    0  501 -0.00000000000E+00  0.00000000000E+00  0.13571479227E+03  0.13571479227E+03  0.00000000000E+00 0.  1.
          3   -1    0    0  501    0  0.00000000000E+00 -0.00000000000E+00 -0.40934785443E+03  0.40934785443E+03  0.00000000000E+00 0. -1.
         25    2    1    2    0    0  0.15874659841E+03 -0.94291892689E+02 -0.28289770502E+02  0.22475925804E+03  0.12499987770E+03 0.  0.
         23    2    1    2    0    0 -0.15874659841E+03  0.94291892689E+02 -0.24534329166E+03  0.32030338866E+03  0.91156384782E+02 0.  0.
          5    1    3    3  502    0  0.74178116734E+02  0.21144000746E+02  0.60836494166E+01  0.77514918306E+02  0.47000000000E+01 0.  1.
         -5    1    4    4    0  503 -0.10021836954E+03  0.97522847390E+02 -0.20787247780E+03  0.25057430910E+03  0.47000000000E+01 0.  1.
          5    1    4    4  503    0 -0.58528228878E+02 -0.32309547015E+01 -0.37470813861E+02  0.69729079553E+02  0.47000000000E+01 0. -1.
         -5    1    3    3    0  502  0.84568481681E+02 -0.11543589343E+03 -0.34373419919E+02  0.14724433973E+03  0.47000000000E+01 0.  1.
<mgrwt>
<rscale>  0 0.21857946E+03</rscale>
<asrwt>0</asrwt>
<pdfrwt beam="1">  1        3 0.62976592E-01 0.22297178E+03</pdfrwt>
<pdfrwt beam="2">  1       -3 0.20879199E-01 0.22297178E+03</pdfrwt>
<totfact> 0.12768560E+02</totfact>
</mgrwt>
</event>
<event>
 8    1  0.3217375E-004  0.1414078E+03  0.7546771E-02  0.1222458E+00
         -3   -1    0    0    0  501 -0.00000000000E+00  0.00000000000E+00  0.18026248644E+03  0.18026248644E+03  0.00000000000E+00 0.  1.
          3   -1    0    0  501    0  0.00000000000E+00 -0.00000000000E+00 -0.90750277581E+02  0.90750277581E+02  0.00000000000E+00 0. -1.
         25    2    1    2    0    0  0.52763168457E+02 -0.39809534862E+02  0.31790826014E+02  0.14493726121E+03  0.12500960786E+03 0.  0.
         23    2    1    2    0    0 -0.52763168457E+02  0.39809534862E+02  0.57721382844E+02  0.12607550281E+03  0.90523606642E+02 0.  0.
          5    1    4    4  502    0 -0.73762652815E+02  0.10256113998E+02  0.31051066304E+02  0.80823112680E+02  0.47000000000E+01 0. -1.
         -5    1    3    3    0  503  0.26013235164E+02 -0.60201433695E+02 -0.31655168327E+02  0.72972876498E+02  0.47000000000E+01 0.  1.
          5    1    3    3  503    0  0.26749933293E+02  0.20391898833E+02  0.63445994340E+02  0.71964384712E+02  0.47000000000E+01 0.  1.
         -5    1    4    4    0  502  0.20999484358E+02  0.29553420864E+02  0.26670316540E+02  0.45252390129E+02  0.47000000000E+01 0.  1.
<mgrwt>
<rscale>  0 0.13342671E+03</rscale>
<asrwt>0</asrwt>
<pdfrwt beam="1">  1        3 0.13961581E-01 0.14140775E+03</pdfrwt>
<pdfrwt beam="2">  1       -3 0.27732690E-01 0.14140775E+03</pdfrwt>
<totfact> 0.12086870E+03</totfact>
</mgrwt>
</event>
<event>
 8    1  0.3217375E-004  0.1375011E+03  0.7546771E-02  0.1228492E+00
          2   -1    0    0  501    0  0.00000000000E+00  0.00000000000E+00  0.89899204944E+03  0.89899204944E+03  0.00000000000E+00 0. -1.
         -2   -1    0    0    0  501 -0.00000000000E+00 -0.00000000000E+00 -0.17046163693E+02  0.17046163693E+02  0.00000000000E+00 0.  1.
         25    2    1    2    0    0 -0.49843165285E+02  0.28264471710E+02  0.55892823867E+03  0.57559302829E+03  0.12499334679E+03 0.  0.
         23    2    1    2    0    0  0.49843165285E+02 -0.28264471710E+02  0.32301764707E+03  0.34044518484E+03  0.90990670271E+02 0.  0.
          5    1    3    3  502    0  0.13239443369E+02  0.43972053730E+02  0.80914829730E+02  0.93156449268E+02  0.47000000000E+01 0.  1.
         -5    1    4    4    0  503  0.34103079469E+02  0.24013308468E+02  0.70487807518E+02  0.82038283877E+02  0.47000000000E+01 0.  1.
          5    1    4    4  503    0  0.15740085816E+02 -0.52277780177E+02  0.25252983955E+03  0.25840690096E+03  0.47000000000E+01 0. -1.
         -5    1    3    3    0  502 -0.63082608653E+02 -0.15707582021E+02  0.47801340895E+03  0.48243657902E+03  0.47000000000E+01 0.  1.
<mgrwt>
<rscale>  0 0.12930379E+03</rscale>
<asrwt>0</asrwt>
<pdfrwt beam="1">  1        2 0.13830643E+00 0.13750112E+03</pdfrwt>
<pdfrwt beam="2">  1       -2 0.26224874E-02 0.13750112E+03</pdfrwt>
<totfact> 0.15061926E+04</totfact>
</mgrwt>
</event>
<event>
 8    1  0.3217375E-004  0.1281349E+03  0.7546771E-02  0.1244975E+00
         -3   -1    0    0    0  501 -0.00000000000E+00  0.00000000000E+00  0.39878084156E+03  0.39878084156E+03  0.00000000000E+00 0.  1.
          3   -1    0    0  501    0  0.00000000000E+00 -0.00000000000E+00 -0.47787952127E+02  0.47787952127E+02  0.00000000000E+00 0. -1.
         25    2    1    2    0    0  0.11477716246E+02 -0.25736518896E+02  0.32321279373E+03  0.34768529104E+03  0.12499778079E+03 0.  0.
         23    2    1    2    0    0 -0.11477716246E+02  0.25736518896E+02  0.27780095703E+02  0.98883502644E+02  0.90620676463E+02 0.  0.
          5    1    4    4  502    0  0.35214907075E+02 -0.88088796148E+01  0.11839330656E+02  0.38470063566E+02  0.47000000000E+01 0. -1.
         -5    1    4    4    0  502 -0.46692623321E+02  0.34545398511E+02  0.15940765048E+02  0.60413439078E+02  0.47000000000E+01 0.  1.
          5    1    3    3  503    0  0.67014988921E+02 -0.26674852452E+02  0.18957161563E+03  0.20288431173E+03  0.47000000000E+01 0.  1.
         -5    1    3    3    0  503 -0.55537272675E+02  0.93833355571E+00  0.13364117809E+03  0.14480097931E+03  0.47000000000E+01 0.  1.
<mgrwt>
<rscale>  0 0.11886893E+03</rscale>
<asrwt>0</asrwt>
<pdfrwt beam="1">  1        3 0.73519929E-02 0.12813490E+03</pdfrwt>
<pdfrwt beam="2">  1       -3 0.61350897E-01 0.12813490E+03</pdfrwt>
<totfact> 0.73758083E+02</totfact>
</mgrwt>
</event>
<event>
 8    1  0.3217375E-004  0.1251218E+03  0.7546771E-02  0.1249093E+00
         -3   -1    0    0    0  501 -0.00000000000E+00  0.00000000000E+00  0.58229720136E+03  0.58229720136E+03  0.00000000000E+00 0.  1.
          3   -1    0    0  501    0  0.00000000000E+00 -0.00000000000E+00 -0.22601661445E+02  0.22601661445E+02  0.00000000000E+00 0. -1.
         25    2    1    2    0    0  0.12597292810E+01 -0.55057777300E+01  0.22672423448E+03  0.25895818533E+03  0.12499425084E+03 0.  0.
         23    2    1    2    0    0 -0.12597292810E+01  0.55057777300E+01  0.33297130544E+03  0.34594067748E+03  0.93665156705E+02 0.  0.
          5    1    4    4  502    0 -0.15947905971E+02 -0.22232051904E+02  0.28379518489E+02  0.39699961037E+02  0.47000000000E+01 0. -1.
         -5    1    3    3    0  503 -0.43171638169E+02 -0.33087625821E+02  0.18191281404E+03  0.18992878464E+03  0.47000000000E+01 0. -1.
          5    1    3    3  503    0  0.44431367450E+02  0.27581848091E+02  0.44811420439E+02  0.69029400688E+02  0.47000000000E+01 0. -1.
         -5    1    4    4    0  502  0.14688176690E+02  0.27737829634E+02  0.30459178695E+03  0.30624071644E+03  0.47000000000E+01 0.  1.
<mgrwt>
<rscale>  0 0.11643707E+03</rscale>
<asrwt>0</asrwt>
<pdfrwt beam="1">  1        3 0.34771791E-02 0.12512179E+03</pdfrwt>
<pdfrwt beam="2">  1       -3 0.89584173E-01 0.12512179E+03</pdfrwt>
<totfact> 0.10690319E+03</totfact>
</mgrwt>
</event>
<event>
 8    1  0.3217375E-004  0.1306217E+03  0.7546771E-02  0.1239857E+00
          2   -1    0    0  501    0  0.00000000000E+00  0.00000000000E+00  0.38844666646E+03  0.38844666646E+03  0.00000000000E+00 0. -1.
         -2   -1    0    0    0  501 -0.00000000000E+00 -0.00000000000E+00 -0.37255438689E+02  0.37255438689E+02  0.00000000000E+00 0.  1.
         25    2    1    2    0    0 -0.36530391516E+02  0.10155495729E+02  0.13539661396E+03  0.18813367653E+03  0.12499773428E+03 0.  0.
         23    2    1    2    0    0  0.36530391516E+02 -0.10155495729E+02  0.21579461382E+03  0.23756842862E+03  0.91835937025E+02 0.  0.
          5    1    4    4  502    0  0.17130319657E+02 -0.30649463130E+02  0.20327775800E+03  0.20634140239E+03  0.47000000000E+01 0. -1.
         -5    1    4    4    0  502  0.19400071858E+02  0.20493967401E+02  0.12516855813E+02  0.31227026234E+02  0.47000000000E+01 0.  1.
          5    1    3    3  503    0 -0.30160716822E+01 -0.44064671954E+02  0.11128542882E+03  0.11982207088E+03  0.47000000000E+01 0. -1.
         -5    1    3    3    0  503 -0.33514319834E+02  0.54220167683E+02  0.24111185142E+02  0.68311605650E+02  0.47000000000E+01 0. -1.
<mgrwt>
<rscale>  0 0.12198577E+03</rscale>
<asrwt>0</asrwt>
<pdfrwt beam="1">  1        2 0.59761023E-01 0.13062173E+03</pdfrwt>
<pdfrwt beam="2">  1       -2 0.57316062E-02 0.13062173E+03</pdfrwt>
<totfact> 0.12341563E+04</totfact>
</mgrwt>
</event>
<event>
 8    1  0.3217375E-004  0.2169576E+03  0.7546771E-02  0.1139652E+00
         -1   -1    0    0    0  501 -0.00000000000E+00  0.00000000000E+00  0.76352014171E+02  0.76352014171E+02  0.00000000000E+00 0.  1.
          1   -1    0    0  501    0  0.00000000000E+00 -0.00000000000E+00 -0.57702185060E+03  0.57702185060E+03  0.00000000000E+00 0. -1.
         25    2    1    2    0    0 -0.43426450364E+02  0.17192985249E+03 -0.21918395828E+03  0.30840268186E+03  0.12499950337E+03 0.  0.
         23    2    1    2    0    0  0.43426450364E+02 -0.17192985249E+03 -0.28148587815E+03  0.34497118291E+03  0.91241912921E+02 0.  0.
          5    1    4    4  502    0  0.47981375769E+02 -0.12353229284E+03 -0.25948721702E+03  0.29140718178E+03  0.47000000000E+01 0. -1.
         -5    1    3    3    0  503 -0.37812791647E+02  0.11474983280E+03 -0.21967706916E+03  0.25075373587E+03  0.47000000000E+01 0. -1.
          5    1    3    3  503    0 -0.56136587175E+01  0.57180019686E+02  0.49311087427E+00  0.57648945991E+02  0.47000000000E+01 0. -1.
         -5    1    4    4    0  502 -0.45549254049E+01 -0.48397559653E+02 -0.21998661123E+02  0.53564001130E+02  0.47000000000E+01 0. -1.
<mgrwt>
<rscale>  0 0.21243533E+03</rscale>
<asrwt>0</asrwt>
<pdfrwt beam="1">  1        1 0.88772591E-01 0.21695761E+03</pdfrwt>
<pdfrwt beam="2">  1       -1 0.11746464E-01 0.21695761E+03</pdfrwt>
<totfact> 0.17521913E+03</totfact>
</mgrwt>
</event>
<event>
 8    1  0.3217375E-004  0.1620522E+03  0.7546771E-02  0.1193679E+00
         -2   -1    0    0    0  501 -0.00000000000E+00  0.00000000000E+00  0.10776407459E+03  0.10776407459E+03  0.00000000000E+00 0.  1.
          2   -1    0    0  501    0  0.00000000000E+00 -0.00000000000E+00 -0.21205190647E+03  0.21205190647E+03  0.00000000000E+00 0. -1.
         25    2    1    2    0    0  0.24985887559E+02 -0.10005426763E+03 -0.36621123732E+02  0.16613855638E+03  0.12500304862E+03 0.  0.
         23    2    1    2    0    0 -0.24985887559E+02  0.10005426763E+03 -0.67666708146E+02  0.15367742468E+03  0.91666877437E+02 0.  0.
          5    1    4    4  502    0 -0.42525545971E+02  0.24816580163E+02  0.20593765276E+01  0.49503694234E+02  0.47000000000E+01 0. -1.
         -5    1    3    3    0  503  0.47617241152E+02 -0.10508155517E+03 -0.62322422200E+02  0.13120864758E+03  0.47000000000E+01 0.  1.
          5    1    3    3  503    0 -0.22631353593E+02  0.50272875414E+01  0.25701298469E+02  0.34929908796E+02  0.47000000000E+01 0.  1.
         -5    1    4    4    0  502  0.17539658413E+02  0.75237687462E+02 -0.69726084674E+02  0.10417373045E+03  0.47000000000E+01 0.  1.
<mgrwt>
<rscale>  0 0.15566600E+03</rscale>
<asrwt>0</asrwt>
<pdfrwt beam="1">  1        2 0.32623370E-01 0.16205219E+03</pdfrwt>
<pdfrwt beam="2">  1       -2 0.16579089E-01 0.16205219E+03</pdfrwt>
<totfact> 0.44796419E+03</totfact>
</mgrwt>
</event>
<event>
 8    1  0.3217375E-004  0.1898437E+03  0.7546771E-02  0.1163273E+00
          1   -1    0    0  501    0  0.00000000000E+00  0.00000000000E+00  0.20216988296E+03  0.20216988296E+03  0.00000000000E+00 0. -1.
         -1   -1    0    0    0  501 -0.00000000000E+00 -0.00000000000E+00 -0.16064971593E+03  0.16064971593E+03  0.00000000000E+00 0.  1.
         25    2    1    2    0    0  0.95370672141E+02  0.10639530437E+03  0.14767029264E+02  0.19041719409E+03  0.12500046701E+03 0.  0.
         23    2    1    2    0    0 -0.95370672141E+02 -0.10639530437E+03  0.26753137768E+02  0.17240240480E+03  0.92689443324E+02 0.  0.
          5    1    4    4  502    0 -0.26962173917E+02 -0.25581216765E+02  0.51386677026E+02  0.63592751547E+02  0.47000000000E+01 0. -1.
         -5    1    4    4    0  502 -0.68408498223E+02 -0.80814087605E+02 -0.24633539258E+02  0.10880965325E+03  0.47000000000E+01 0.  1.
          5    1    3    3  503    0 -0.14900269272E+02  0.15418415662E+02  0.39568603324E+02  0.45249419167E+02  0.47000000000E+01 0. -1.
         -5    1    3    3    0  503  0.11027094141E+03  0.90976888709E+02 -0.24801574060E+02  0.14516777492E+03  0.47000000000E+01 0. -1.
<mgrwt>
<rscale>  0 0.18476078E+03</rscale>
<asrwt>0</asrwt>
<pdfrwt beam="1">  1        1 0.31103059E-01 0.18984373E+03</pdfrwt>
<pdfrwt beam="2">  1       -1 0.24715341E-01 0.18984373E+03</pdfrwt>
<totfact> 0.20270063E+03</totfact>
</mgrwt>
</event>
<event>
 8    1  0.3217375E-004  0.1353755E+03  0.7546771E-02  0.1231333E+00
          1   -1    0    0  501    0  0.00000000000E+00  0.00000000000E+00  0.17905364695E+03  0.17905364695E+03  0.00000000000E+00 0. -1.
         -1   -1    0    0    0  501 -0.00000000000E+00 -0.00000000000E+00 -0.88316303833E+02  0.88316303833E+02  0.00000000000E+00 0.  1.
         25    2    1    2    0    0  0.45274940380E+02  0.25533996662E+02  0.87254914733E+02  0.16105882453E+03  0.12499887841E+03 0.  0.
         23    2    1    2    0    0 -0.45274940380E+02 -0.25533996662E+02  0.34824283812E+01  0.10631112625E+03  0.92672126576E+02 0.  0.
          5    1    4    4  502    0 -0.14481883520E+02  0.28069835998E+02  0.25137960148E+02  0.40640468546E+02  0.47000000000E+01 0. -1.
         -5    1    3    3    0  503  0.65350569357E+02 -0.13408609053E+02  0.41638170579E+01  0.67006828641E+02  0.47000000000E+01 0.  1.
          5    1    3    3  503    0 -0.20075628977E+02  0.38942605715E+02  0.83091097675E+02  0.94051995893E+02  0.47000000000E+01 0.  1.
         -5    1    4    4    0  502 -0.30793056860E+02 -0.53603832660E+02 -0.21655531767E+02  0.65670657700E+02  0.47000000000E+01 0.  1.
<mgrwt>
<rscale>  0 0.12742113E+03</rscale>
<asrwt>0</asrwt>
<pdfrwt beam="1">  1        1 0.27546715E-01 0.13537550E+03</pdfrwt>
<pdfrwt beam="2">  1       -1 0.13587124E-01 0.13537550E+03</pdfrwt>
<totfact> 0.60510689E+03</totfact>
</mgrwt>
</event>
<event>
 8    1  0.3217375E-004  0.1262383E+03  0.7546771E-02  0.1247977E+00
          3   -1    0    0  501    0  0.00000000000E+00  0.00000000000E+00  0.11615014015E+03  0.11615014015E+03  0.00000000000E+00 0. -1.
         -3   -1    0    0    0  501 -0.00000000000E+00 -0.00000000000E+00 -0.11103135871E+03  0.11103135871E+03  0.00000000000E+00 0.  1.
         25    2    1    2    0    0  0.13127402488E+02  0.11845062960E+02 -0.25639640252E+02  0.12881572055E+03  0.12499385784E+03 0.  0.
         23    2    1    2    0    0 -0.13127402488E+02 -0.11845062960E+02  0.30758421688E+02  0.98365778310E+02  0.91744817975E+02 0.  0.
          5    1    4    4  502    0 -0.14145988272E+01 -0.45139927098E+02  0.41145331940E+02  0.61275137280E+02  0.47000000000E+01 0. -1.
         -5    1    3    3    0  503 -0.46593053130E+02 -0.24249612148E+02  0.39319744323E+01  0.52882007452E+02  0.47000000000E+01 0. -1.
          5    1    3    3  503    0  0.59720455617E+02  0.36094675108E+02 -0.29571614685E+02  0.75933713101E+02  0.47000000000E+01 0. -1.
         -5    1    4    4    0  502 -0.11712803660E+02  0.33294864137E+02 -0.10386910251E+02  0.37090641031E+02  0.47000000000E+01 0.  1.
<mgrwt>
<rscale>  0 0.11708964E+03</rscale>
<asrwt>0</asrwt>
<pdfrwt beam="1">  1        3 0.17869252E-01 0.12623826E+03</pdfrwt>
<pdfrwt beam="2">  1       -3 0.17081747E-01 0.12623826E+03</pdfrwt>
<totfact> 0.18370258E+03</totfact>
</mgrwt>
</event>
<event>
 8    1  0.3217375E-004  0.1609773E+03  0.7546771E-02  0.1194937E+00
          2   -1    0    0  501    0  0.00000000000E+00  0.00000000000E+00  0.86832233577E+03  0.86832233577E+03  0.00000000000E+00 0.  1.
         -2   -1    0    0    0  501 -0.00000000000E+00 -0.00000000000E+00 -0.32187496861E+02  0.32187496861E+02  0.00000000000E+00 0. -1.
         25    2    1    2    0    0 -0.69628571121E+02  0.73786617910E+02  0.64876544533E+03  0.66843869586E+03  0.12498433568E+03 0.  0.
         23    2    1    2    0    0  0.69628571121E+02 -0.73786617910E+02  0.18736939358E+03  0.23207113678E+03  0.91962600959E+02 0.  0.
          5    1    4    4  502    0  0.49963587959E+02 -0.85081240532E+02  0.95748034947E+02  0.13756799704E+03  0.47000000000E+01 0. -1.
         -5    1    3    3    0  503  0.34088605575E+02  0.18625684722E+01  0.15367418946E+03  0.15749078925E+03  0.47000000000E+01 0.  1.
          5    1    3    3  503    0 -0.10371717670E+03  0.71924049438E+02  0.49509125587E+03  0.51094790661E+03  0.47000000000E+01 0.  1.
         -5    1    4    4    0  502  0.19664983163E+02  0.11294622622E+02  0.91621358636E+02  0.94503139743E+02  0.47000000000E+01 0.  1.
<mgrwt>
<rscale>  0 0.15459584E+03</rscale>
<asrwt>0</asrwt>
<pdfrwt beam="1">  1        2 0.13358803E+00 0.16097729E+03</pdfrwt>
<pdfrwt beam="2">  1       -2 0.49519233E-02 0.16097729E+03</pdfrwt>
<totfact> 0.61893678E+03</totfact>
</mgrwt>
</event>
<event>
 8    1  0.3217375E-004  0.1348009E+03  0.7546771E-02  0.1232843E+00
         -2   -1    0    0    0  501 -0.00000000000E+00  0.00000000000E+00  0.28210523649E+02  0.28210523649E+02  0.00000000000E+00 0.  1.
          2   -1    0    0  501    0  0.00000000000E+00 -0.00000000000E+00 -0.50791326037E+03  0.50791326037E+03  0.00000000000E+00 0. -1.
         25    2    1    2    0    0  0.46242226774E+02 -0.20175264247E+02 -0.25756994249E+03  0.29071215234E+03  0.12500358165E+03 0.  0.
         23    2    1    2    0    0 -0.46242226774E+02  0.20175264247E+02 -0.22213279424E+03  0.24541163168E+03  0.91315419632E+02 0.  0.
          5    1    4    4  502    0  0.20565942588E+02 -0.11998286562E+02 -0.25470500209E+02  0.35181717637E+02  0.47000000000E+01 0. -1.
         -5    1    4    4    0  502 -0.66808169362E+02  0.32173550809E+02 -0.19666229403E+03  0.21022991404E+03  0.47000000000E+01 0.  1.
          5    1    3    3  503    0  0.25196598737E+01  0.38650631250E+02 -0.17882544581E+03  0.18303237433E+03  0.47000000000E+01 0. -1.
         -5    1    3    3    0  503  0.43722566900E+02 -0.58825895497E+02 -0.78744496672E+02  0.10767977802E+03  0.47000000000E+01 0. -1.
<mgrwt>
<rscale>  0 0.12643508E+03</rscale>
<asrwt>0</asrwt>
<pdfrwt beam="1">  1        2 0.78140493E-01 0.13480089E+03</pdfrwt>
<pdfrwt beam="2">  1       -2 0.43400810E-02 0.13480089E+03</pdfrwt>
<totfact> 0.14056008E+04</totfact>
</mgrwt>
</event>
<event>
 8    1  0.3217375E-004  0.1427054E+03  0.7546771E-02  0.1220603E+00
         -1   -1    0    0    0  501 -0.00000000000E+00  0.00000000000E+00  0.21332697238E+03  0.21332697238E+03  0.00000000000E+00 0.  1.
          1   -1    0    0  501    0  0.00000000000E+00 -0.00000000000E+00 -0.85990107083E+02  0.85990107083E+02  0.00000000000E+00 0. -1.
         25    2    1    2    0    0  0.55980367552E+01  0.68650163596E+02  0.11868962949E+03  0.18561267310E+03  0.12498261194E+03 0.  0.
         23    2    1    2    0    0 -0.55980367552E+01 -0.68650163596E+02  0.86472358039E+01  0.11370440636E+03  0.90054063549E+02 0.  0.
          5    1    3    3  502    0 -0.50082210795E+02  0.70546567460E+02  0.76283463801E+02  0.11543960702E+03  0.47000000000E+01 0.  1.
         -5    1    4    4    0  503 -0.30728601737E+01 -0.45302242906E+02  0.48881046319E+02  0.66881853826E+02  0.47000000000E+01 0.  1.
          5    1    4    4  503    0 -0.25251765816E+01 -0.23347920690E+02 -0.40233810515E+02  0.46822552535E+02  0.47000000000E+01 0. -1.
         -5    1    3    3    0  502  0.55680247550E+02 -0.18964038634E+01  0.42406165688E+02  0.70173066081E+02  0.47000000000E+01 0.  1.
<mgrwt>
<rscale>  0 0.13472860E+03</rscale>
<asrwt>0</asrwt>
<pdfrwt beam="1">  1        1 0.13229247E-01 0.14270542E+03</pdfrwt>
<pdfrwt beam="2">  1       -1 0.32819534E-01 0.14270542E+03</pdfrwt>
<totfact> 0.37108140E+03</totfact>
</mgrwt>
</event>
<event>
 8    1  0.3217375E-004  0.1350721E+03  0.7546771E-02  0.1232619E+00
         -3   -1    0    0    0  501 -0.00000000000E+00  0.00000000000E+00  0.38576996472E+02  0.38576996472E+02  0.00000000000E+00 0.  1.
          3   -1    0    0  501    0  0.00000000000E+00 -0.00000000000E+00 -0.37517972576E+03  0.37517972576E+03  0.00000000000E+00 0. -1.
         25    2    1    2    0    0  0.19512853879E+02 -0.47317527180E+02 -0.16800667119E+03  0.21557069749E+03  0.12499913682E+03 0.  0.
         23    2    1    2    0    0 -0.19512853879E+02  0.47317527180E+02 -0.16859605810E+03  0.19818602475E+03  0.90737917945E+02 0.  0.
          5    1    3    3  502    0 -0.14727647203E+02  0.36399576139E+02 -0.80217649850E+02  0.89435977563E+02  0.47000000000E+01 0.  1.
         -5    1    3    3    0  502  0.34240501082E+02 -0.83717103319E+02 -0.87789021341E+02  0.12613471992E+03  0.47000000000E+01 0.  1.
          5    1    4    4  503    0  0.27529709914E+02  0.42587681459E+02 -0.54496649075E+02  0.74589344416E+02  0.47000000000E+01 0. -1.
         -5    1    4    4    0  503 -0.47042563793E+02  0.47298457205E+01 -0.11409940902E+03  0.12359668033E+03  0.47000000000E+01 0.  1.
<mgrwt>
<rscale>  0 0.12658097E+03</rscale>
<asrwt>0</asrwt>
<pdfrwt beam="1">  1        3 0.57719959E-01 0.13507214E+03</pdfrwt>
<pdfrwt beam="2">  1       -3 0.59349224E-02 0.13507214E+03</pdfrwt>
<totfact> 0.11900096E+03</totfact>
</mgrwt>
</event>
<event>
 8    1  0.3217375E-004  0.1500808E+03  0.7546771E-02  0.1207466E+00
          2   -1    0    0  501    0  0.00000000000E+00  0.00000000000E+00  0.28669599154E+02  0.28669599154E+02  0.00000000000E+00 0. -1.
         -2   -1    0    0    0  501 -0.00000000000E+00 -0.00000000000E+00 -0.94395612293E+03  0.94395612293E+03  0.00000000000E+00 0.  1.
         25    2    1    2    0    0  0.26922346645E+02  0.78604895562E+02 -0.74027490248E+03  0.75533514537E+03  0.12498283174E+03 0.  0.
         23    2    1    2    0    0 -0.26922346645E+02 -0.78604895562E+02 -0.17501162129E+03  0.21729057671E+03  0.98400125945E+02 0.  0.
          5    1    4    4  502    0 -0.10778376537E+02 -0.62990159294E+02 -0.30496764232E+02  0.70965316861E+02  0.47000000000E+01 0. -1.
         -5    1    4    4    0  502 -0.16143970108E+02 -0.15614736268E+02 -0.14451485706E+03  0.14632525985E+03  0.47000000000E+01 0.  1.
          5    1    3    3  503    0 -0.85066127395E+01 -0.23418295860E+02 -0.44532954920E+02  0.51245030151E+02  0.47000000000E+01 0. -1.
         -5    1    3    3    0  503  0.35428959384E+02  0.10202319142E+03 -0.69574194756E+03  0.70409011521E+03  0.47000000000E+01 0. -1.
<mgrwt>
<rscale>  0 0.14444816E+03</rscale>
<asrwt>0</asrwt>
<pdfrwt beam="1">  1        2 0.44107071E-02 0.15008081E+03</pdfrwt>
<pdfrwt beam="2">  1       -2 0.14522404E+00 0.15008081E+03</pdfrwt>
<totfact> 0.62793654E+02</totfact>
</mgrwt>
</event>
<event>
 8    1  0.3217375E-004  0.1277140E+03  0.7546771E-02  0.1248047E+00
          3   -1    0    0  501    0  0.00000000000E+00  0.00000000000E+00  0.19839281373E+03  0.19839281373E+03  0.00000000000E+00 0. -1.
         -3   -1    0    0    0  501 -0.00000000000E+00 -0.00000000000E+00 -0.64905344805E+02  0.64905344805E+02  0.00000000000E+00 0.  1.
         25    2    1    2    0    0  0.73636615404E+01 -0.25208123637E+02  0.40900788616E+02  0.13410347977E+03  0.12498478215E+03 0.  0.
         23    2    1    2    0    0 -0.73636615404E+01  0.25208123637E+02  0.92586680310E+02  0.12919467876E+03  0.86193379337E+02 0.  0.
          5    1    4    4  502    0  0.21320978550E+02 -0.34939349128E+01  0.84766914038E+02  0.87603147335E+02  0.47000000000E+01 0. -1.
         -5    1    4    4    0  502 -0.28684640090E+02  0.28702058550E+02  0.78197662723E+01  0.41591531429E+02  0.47000000000E+01 0.  1.
          5    1    3    3  503    0 -0.15353239323E+02 -0.71900221298E+02  0.35221146612E+02  0.81657718246E+02  0.47000000000E+01 0. -1.
         -5    1    3    3    0  503  0.22716900863E+02  0.46692097661E+02  0.56796420042E+01  0.52445761527E+02  0.47000000000E+01 0. -1.
<mgrwt>
<rscale>  0 0.11704868E+03</rscale>
<asrwt>0</asrwt>
<pdfrwt beam="1">  1        3 0.30521971E-01 0.12771401E+03</pdfrwt>
<pdfrwt beam="2">  1       -3 0.99854377E-02 0.12771401E+03</pdfrwt>
<totfact> 0.17462852E+03</totfact>
</mgrwt>
</event>
<event>
 8    1  0.3217375E-004  0.1251511E+03  0.7546771E-02  0.1249640E+00
         -4   -1    0    0    0  501 -0.00000000000E+00  0.00000000000E+00  0.39490564542E+02  0.39490564542E+02  0.00000000000E+00 0.  1.
          4   -1    0    0  501    0  0.00000000000E+00 -0.00000000000E+00 -0.30120232121E+03  0.30120232121E+03  0.00000000000E+00 0. -1.
         25    2    1    2    0    0  0.53603552733E+00  0.61307897251E+01 -0.14264739375E+03  0.18976583977E+03  0.12499968433E+03 0.  0.
         23    2    1    2    0    0 -0.53603552733E+00 -0.61307897251E+01 -0.11906436291E+03  0.15092704598E+03  0.92546079204E+02 0.  0.
          5    1    4    4  502    0  0.16159432998E+02  0.25540015129E+02 -0.10933148694E+03  0.11352921952E+03  0.47000000000E+01 0. -1.
         -5    1    3    3    0  503 -0.40743809808E+02 -0.24621775152E+02 -0.12079457120E+02  0.49338556258E+02  0.47000000000E+01 0. -1.
          5    1    3    3  503    0  0.41279845335E+02  0.30752564877E+02 -0.13056793663E+03  0.14042728351E+03  0.47000000000E+01 0. -1.
         -5    1    4    4    0  502 -0.16695468525E+02 -0.31670804854E+02 -0.97328759685E+01  0.37397826461E+02  0.47000000000E+01 0.  1.
<mgrwt>
<rscale>  0 0.11611946E+03</rscale>
<asrwt>0</asrwt>
<pdfrwt beam="1">  1        4 0.46338817E-01 0.12515109E+03</pdfrwt>
<pdfrwt beam="2">  1       -4 0.60754717E-02 0.12515109E+03</pdfrwt>
<totfact> 0.12765472E+03</totfact>
</mgrwt>
</event>
<event>
 8    1  0.3217375E-004  0.2744902E+03  0.7546771E-02  0.1100675E+00
         -2   -1    0    0    0  501 -0.00000000000E+00  0.00000000000E+00  0.19963626043E+04  0.19963626043E+04  0.00000000000E+00 0.  1.
          2   -1    0    0  501    0  0.00000000000E+00 -0.00000000000E+00 -0.37752696946E+02  0.37752696946E+02  0.00000000000E+00 0. -1.
         25    2    1    2    0    0  0.75352463376E+02 -0.23247167338E+03  0.77822219902E+03  0.82521189196E+03  0.12499521164E+03 0.  0.
         23    2    1    2    0    0 -0.75352463376E+02  0.23247167338E+03  0.11803877084E+04  0.12089034093E+04  0.91712803508E+02 0.  0.
          5    1    3    3  502    0 -0.50912748248E+01 -0.15376571093E+03  0.34861217414E+03  0.38108050711E+03  0.47000000000E+01 0.  1.
         -5    1    4    4    0  503 -0.92528602566E+02  0.18910556227E+03  0.10327839171E+04  0.10540337592E+04  0.47000000000E+01 0.  1.
          5    1    4    4  503    0  0.17176139190E+02  0.43366111111E+02  0.14760379124E+03  0.15486965015E+03  0.47000000000E+01 0. -1.
         -5    1    3    3    0  502  0.80443738201E+02 -0.78705962452E+02  0.42961002487E+03  0.44413138486E+03  0.47000000000E+01 0.  1.
<mgrwt>
<rscale>  0 0.27105928E+03</rscale>
<asrwt>0</asrwt>
<pdfrwt beam="1">  1        2 0.58081088E-02 0.27449021E+03</pdfrwt>
<pdfrwt beam="2">  1       -2 0.30713263E+00 0.27449021E+03</pdfrwt>
<totfact> 0.42722301E+01</totfact>
</mgrwt>
</event>
<event>
 8    1  0.3217375E-004  0.1611644E+03  0.7546771E-02  0.1195258E+00
         -1   -1    0    0    0  501 -0.00000000000E+00  0.00000000000E+00  0.22833191322E+02  0.22833191322E+02  0.00000000000E+00 0.  1.
          1   -1    0    0  501    0  0.00000000000E+00 -0.00000000000E+00 -0.14809167751E+04  0.14809167751E+04  0.00000000000E+00 0. -1.
         25    2    1    2    0    0 -0.79086857749E+01 -0.10142271340E+03 -0.32678267944E+03  0.36436367149E+03  0.12499940564E+03 0.  0.
         23    2    1    2    0    0  0.79086857749E+01  0.10142271340E+03 -0.11313009043E+04  0.11393862949E+04  0.89500161067E+02 0.  0.
          5    1    4    4  502    0  0.32062790045E+02  0.10239351659E+03 -0.10037875569E+04  0.10095167181E+04  0.47000000000E+01 0. -1.
         -5    1    3    3    0  503  0.56778515753E+02 -0.32717031798E+02 -0.11461827971E+03  0.13211224041E+03  0.47000000000E+01 0.  1.
          5    1    3    3  503    0 -0.64687201528E+02 -0.68705681604E+02 -0.21216439973E+03  0.23225143108E+03  0.47000000000E+01 0.  1.
         -5    1    4    4    0  502 -0.24154104270E+02 -0.97080319142E+00 -0.12751334746E+03  0.12986957685E+03  0.47000000000E+01 0.  1.
<mgrwt>
<rscale>  0 0.15432424E+03</rscale>
<asrwt>0</asrwt>
<pdfrwt beam="1">  1        1 0.22783332E+00 0.16116441E+03</pdfrwt>
<pdfrwt beam="2">  1       -1 0.35127991E-02 0.16116441E+03</pdfrwt>
<totfact> 0.21954920E+03</totfact>
</mgrwt>
</event>
<event>
 8    1  0.3217375E-004  0.2112120E+03  0.7546771E-02  0.1144289E+00
          2   -1    0    0  501    0  0.00000000000E+00  0.00000000000E+00  0.58268285190E+02  0.58268285190E+02  0.00000000000E+00 0. -1.
         -2   -1    0    0    0  501 -0.00000000000E+00 -0.00000000000E+00 -0.70538524548E+03  0.70538524548E+03  0.00000000000E+00 0.  1.
         25    2    1    2    0    0  0.16669784341E+03  0.34571381230E+02 -0.36329248972E+03  0.42022845159E+03  0.12500866785E+03 0.  0.
         23    2    1    2    0    0 -0.16669784341E+03 -0.34571381230E+02 -0.28382447057E+03  0.34342507908E+03  0.91657533541E+02 0.  0.
          5    1    4    4  502    0 -0.97997132752E+02 -0.12194490504E+02 -0.80178870311E+02  0.12729055295E+03  0.47000000000E+01 0. -1.
         -5    1    4    4    0  502 -0.68700710654E+02 -0.22376890726E+02 -0.20364560026E+03  0.21613452613E+03  0.47000000000E+01 0.  1.
          5    1    3    3  503    0  0.82909614067E+00  0.44165633050E+02 -0.64512589992E+02  0.78327867395E+02  0.47000000000E+01 0.  1.
         -5    1    3    3    0  503  0.16586874727E+03 -0.95942518201E+01 -0.29877989973E+03  0.34190058419E+03  0.47000000000E+01 0.  1.
<mgrwt>
<rscale>  0 0.20659764E+03</rscale>
<asrwt>0</asrwt>
<pdfrwt beam="1">  1        2 0.89643516E-02 0.21121202E+03</pdfrwt>
<pdfrwt beam="2">  1       -2 0.10852081E+00 0.21121202E+03</pdfrwt>
<totfact> 0.51759921E+02</totfact>
</mgrwt>
</event>
<event>
 8    1  0.3217375E-004  0.1476957E+03  0.7546771E-02  0.1215201E+00
          1   -1    0    0  501    0  0.00000000000E+00  0.00000000000E+00  0.74871959880E+02  0.74871959880E+02  0.00000000000E+00 0. -1.
         -1   -1    0    0    0  501 -0.00000000000E+00 -0.00000000000E+00 -0.23157821977E+03  0.23157821977E+03  0.00000000000E+00 0.  1.
         25    2    1    2    0    0 -0.46933972866E+02  0.63140523168E+02 -0.74526456046E+02  0.16543340810E+03  0.12499798555E+03 0.  0.
         23    2    1    2    0    0  0.46933972866E+02 -0.63140523168E+02 -0.82179803844E+02  0.14101677155E+03  0.83322783336E+02 0.  0.
          5    1    3    3  502    0 -0.78655308671E+02  0.79075578926E+02 -0.60530399131E+02  0.12698670790E+03  0.47000000000E+01 0. -1.
         -5    1    4    4    0  503  0.27486554468E+02 -0.71701556397E+02 -0.89533015872E+02  0.11804607066E+03  0.47000000000E+01 0.  1.
          5    1    4    4  503    0  0.19447418398E+02  0.85610332297E+01  0.73532120274E+01  0.22970700891E+02  0.47000000000E+01 0. -1.
         -5    1    3    3    0  502  0.31721335805E+02 -0.15935055759E+02 -0.13996056915E+02  0.38446700202E+02  0.47000000000E+01 0. -1.
<mgrwt>
<rscale>  0 0.13861752E+03</rscale>
<asrwt>0</asrwt>
<pdfrwt beam="1">  1        1 0.11518763E-01 0.14769570E+03</pdfrwt>
<pdfrwt beam="2">  1       -1 0.35627419E-01 0.14769570E+03</pdfrwt>
<totfact> 0.38738953E+03</totfact>
</mgrwt>
</event>
<event>
 8    1  0.3217375E-004  0.1374324E+03  0.7546771E-02  0.1228778E+00
          2   -1    0    0  501    0  0.00000000000E+00  0.00000000000E+00  0.14821206371E+04  0.14821206371E+04  0.00000000000E+00 0. -1.
         -2   -1    0    0    0  501 -0.00000000000E+00 -0.00000000000E+00 -0.11261129577E+02  0.11261129577E+02  0.00000000000E+00 0.  1.
         25    2    1    2    0    0  0.46327633183E+02 -0.33414720279E+02  0.57736215570E+03  0.59349366299E+03  0.12499950420E+03 0.  0.
         23    2    1    2    0    0 -0.46327633183E+02  0.33414720279E+02  0.89349735178E+03  0.89988810364E+03  0.90544399658E+02 0.  0.
          5    1    3    3  502    0 -0.23580938793E+02  0.18951120031E+02  0.47855953318E+02  0.56810983910E+02  0.47000000000E+01 0. -1.
         -5    1    3    3    0  502  0.69908571976E+02 -0.52365840310E+02  0.52950620238E+03  0.53668267908E+03  0.47000000000E+01 0. -1.
          5    1    4    4  503    0 -0.18925602561E+02  0.62753740837E+02  0.60868266402E+03  0.61221963861E+03  0.47000000000E+01 0. -1.
         -5    1    4    4    0  503 -0.27402030622E+02 -0.29339020559E+02  0.28481468776E+03  0.28766846503E+03  0.47000000000E+01 0.  1.
<mgrwt>
<rscale>  0 0.12911303E+03</rscale>
<asrwt>0</asrwt>
<pdfrwt beam="1">  1        2 0.22801841E+00 0.13743242E+03</pdfrwt>
<pdfrwt beam="2">  1       -2 0.17324826E-02 0.13743242E+03</pdfrwt>
<totfact> 0.12940591E+04</totfact>
</mgrwt>
</event>
<event>
 8    1  0.3217375E-004  0.1478808E+03  0.7546771E-02  0.1211953E+00
          1   -1    0    0  501    0  0.00000000000E+00  0.00000000000E+00  0.39230690701E+03  0.39230690701E+03  0.00000000000E+00 0. -1.
         -1   -1    0    0    0  501 -0.00000000000E+00 -0.00000000000E+00 -0.73527740495E+02  0.73527740495E+02  0.00000000000E+00 0.  1.
         25    2    1    2    0    0 -0.70936985759E+01 -0.78699824647E+02  0.30968500661E+03  0.34318149797E+03  0.12499901708E+03 0.  0.
         23    2    1    2    0    0  0.70936985759E+01  0.78699824647E+02  0.90941599020E+01  0.12265314953E+03  0.93365456066E+02 0.  0.
          5    1    3    3  502    0 -0.58879141103E+02 -0.54120772824E+02  0.23890831699E+03  0.25198231135E+03  0.47000000000E+01 0.  1.
         -5    1    4    4    0  503  0.45158681190E+02  0.23871079251E+02 -0.11645169799E+02  0.52600711888E+02  0.47000000000E+01 0.  1.
          5    1    4    4  503    0 -0.38064982614E+02  0.54828745397E+02  0.20739329701E+02  0.70052437643E+02  0.47000000000E+01 0. -1.
         -5    1    3    3    0  502  0.51785442527E+02 -0.24579051823E+02  0.70776689625E+02  0.91199186622E+02  0.47000000000E+01 0.  1.
<mgrwt>
<rscale>  0 0.14102766E+03</rscale>
<asrwt>0</asrwt>
<pdfrwt beam="1">  1        1 0.60354907E-01 0.14788082E+03</pdfrwt>
<pdfrwt beam="2">  1       -1 0.11311960E-01 0.14788082E+03</pdfrwt>
<totfact> 0.30443099E+03</totfact>
</mgrwt>
</event>
<event>
 8    1  0.3217375E-004  0.1955157E+03  0.7546771E-02  0.1157966E+00
          1   -1    0    0  501    0  0.00000000000E+00  0.00000000000E+00  0.11258159628E+03  0.11258159628E+03  0.00000000000E+00 0. -1.
         -1   -1    0    0    0  501 -0.00000000000E+00 -0.00000000000E+00 -0.31930872037E+03  0.31930872037E+03  0.00000000000E+00 0.  1.
         25    2    1    2    0    0  0.20698841622E+02 -0.14890979203E+03 -0.66401149911E+02  0.20648366237E+03  0.12499528756E+03 0.  0.
         23    2    1    2    0    0 -0.20698841622E+02  0.14890979203E+03 -0.14032597417E+03  0.22540665427E+03  0.92272490790E+02 0.  0.
          5    1    3    3  502    0  0.31772413950E+02 -0.11040175946E+03  0.14687902491E+02  0.11591315395E+03  0.47000000000E+01 0. -1.
         -5    1    4    4    0  503  0.20803569748E+02  0.12772992506E+03 -0.10584242809E+03  0.16724960943E+03  0.47000000000E+01 0.  1.
          5    1    4    4  503    0 -0.41502411371E+02  0.21179866963E+02 -0.34483546088E+02  0.58157044843E+02  0.47000000000E+01 0. -1.
         -5    1    3    3    0  502 -0.11073572328E+02 -0.38508032566E+02 -0.81089052402E+02  0.90570508421E+02  0.47000000000E+01 0. -1.
<mgrwt>
<rscale>  0 0.19055071E+03</rscale>
<asrwt>0</asrwt>
<pdfrwt beam="1">  1        1 0.17320246E-01 0.19551570E+03</pdfrwt>
<pdfrwt beam="2">  1       -1 0.49124417E-01 0.19551570E+03</pdfrwt>
<totfact> 0.12984886E+03</totfact>
</mgrwt>
</event>
<event>
 8    1  0.3217375E-004  0.1639796E+03  0.7546771E-02  0.1191338E+00
         -1   -1    0    0    0  501 -0.00000000000E+00  0.00000000000E+00  0.52687171721E+03  0.52687171721E+03  0.00000000000E+00 0.  1.
          1   -1    0    0  501    0  0.00000000000E+00 -0.00000000000E+00 -0.44006180867E+02  0.44006180867E+02  0.00000000000E+00 0. -1.
         25    2    1    2    0    0 -0.48652210155E+02 -0.94323832322E+02  0.24660896038E+03  0.29615078219E+03  0.12500113422E+03 0.  0.
         23    2    1    2    0    0  0.48652210155E+02  0.94323832322E+02  0.23625657597E+03  0.27472711589E+03  0.91617659979E+02 0.  0.
          5    1    3    3  502    0 -0.54605829164E+02 -0.50914412127E+02  0.39873014297E+02  0.84770402913E+02  0.47000000000E+01 0. -1.
         -5    1    4    4    0  503  0.51261924100E+02  0.68744398634E+02  0.23307727407E+03  0.24839622158E+03  0.47000000000E+01 0.  1.
          5    1    4    4  503    0 -0.26097139451E+01  0.25579433688E+02  0.31793018969E+01  0.26330894311E+02  0.47000000000E+01 0. -1.
         -5    1    3    3    0  502  0.59536190089E+01 -0.43409420195E+02  0.20673594608E+03  0.21138037928E+03  0.47000000000E+01 0. -1.
<mgrwt>
<rscale>  0 0.15768278E+03</rscale>
<asrwt>0</asrwt>
<pdfrwt beam="1">  1        1 0.67701821E-02 0.16397959E+03</pdfrwt>
<pdfrwt beam="2">  1       -1 0.81057182E-01 0.16397959E+03</pdfrwt>
<totfact> 0.17041141E+03</totfact>
</mgrwt>
</event>
<event>
 8    1  0.3217375E-004  0.2162262E+03  0.7546771E-02  0.1140191E+00
          1   -1    0    0  501    0  0.00000000000E+00  0.00000000000E+00  0.23717758215E+03  0.23717758215E+03  0.00000000000E+00 0. -1.
         -1   -1    0    0    0  501 -0.00000000000E+00 -0.00000000000E+00 -0.24027395622E+03  0.24027395622E+03  0.00000000000E+00 0.  1.
         25    2    1    2    0    0  0.17417524167E+03 -0.28144405910E+02  0.11628681331E+03  0.24551251081E+03  0.12499859045E+03 0.  0.
         23    2    1    2    0    0 -0.17417524167E+03  0.28144405910E+02 -0.11938318737E+03  0.23193902757E+03  0.91729192102E+02 0.  0.
          5    1    4    4  502    0 -0.16759278106E+02  0.32116045053E+02 -0.41673329198E+01  0.36766430561E+02  0.47000000000E+01 0. -1.
         -5    1    4    4    0  502 -0.15741596357E+03 -0.39716391434E+01 -0.11521585445E+03  0.19517259700E+03  0.47000000000E+01 0.  1.
          5    1    3    3  503    0  0.34756386349E+02 -0.27253416094E+02 -0.21579057593E+02  0.49381178676E+02  0.47000000000E+01 0. -1.
         -5    1    3    3    0  503  0.13941885533E+03 -0.89098981568E+00  0.13786587090E+03  0.19613133213E+03  0.47000000000E+01 0. -1.
<mgrwt>
<rscale>  0 0.21174611E+03</rscale>
<asrwt>0</asrwt>
<pdfrwt beam="1">  1        1 0.36488859E-01 0.21622620E+03</pdfrwt>
<pdfrwt beam="2">  1       -1 0.36965224E-01 0.21622620E+03</pdfrwt>
<totfact> 0.83918469E+02</totfact>
</mgrwt>
</event>
<event>
 8    1  0.3217375E-004  0.1449284E+03  0.7546771E-02  0.1218892E+00
         -1   -1    0    0    0  501 -0.00000000000E+00  0.00000000000E+00  0.73467601201E+02  0.73467601201E+02  0.00000000000E+00 0.  1.
          1   -1    0    0  501    0  0.00000000000E+00 -0.00000000000E+00 -0.22868630871E+03  0.22868630871E+03  0.00000000000E+00 0. -1.
         25    2    1    2    0    0  0.40861300122E+01  0.73231098845E+02 -0.68249429297E+02  0.16019432399E+03  0.12499898616E+03 0.  0.
         23    2    1    2    0    0 -0.40861300122E+01 -0.73231098845E+02 -0.86969278210E+02  0.14195958592E+03  0.84908058428E+02 0.  0.
          5    1    4    4  502    0 -0.39310387095E+02 -0.59784806509E+02 -0.70469325569E+02  0.10053628931E+03  0.47000000000E+01 0. -1.
         -5    1    4    4    0  502  0.35224257083E+02 -0.13446292335E+02 -0.16499952642E+02  0.41423296607E+02  0.47000000000E+01 0.  1.
          5    1    3    3  503    0 -0.30146086648E+02  0.51015142104E+02  0.20110432856E+02  0.62752296960E+02  0.47000000000E+01 0.  1.
         -5    1    3    3    0  503  0.34232216660E+02  0.22215956741E+02 -0.88359862154E+02  0.97442027027E+02  0.47000000000E+01 0.  1.
<mgrwt>
<rscale>  0 0.13594506E+03</rscale>
<asrwt>0</asrwt>
<pdfrwt beam="1">  1        1 0.35182508E-01 0.14492839E+03</pdfrwt>
<pdfrwt beam="2">  1       -1 0.11302708E-01 0.14492839E+03</pdfrwt>
<totfact> 0.59602774E+03</totfact>
</mgrwt>
</event>
<event>
 8    1  0.3217375E-004  0.3327618E+03  0.7546771E-02  0.1071143E+00
         -2   -1    0    0    0  501 -0.00000000000E+00  0.00000000000E+00  0.24017141304E+03  0.24017141304E+03  0.00000000000E+00 0.  1.
          2   -1    0    0  501    0  0.00000000000E+00 -0.00000000000E+00 -0.46555147497E+03  0.46555147497E+03  0.00000000000E+00 0. -1.
         25    2    1    2    0    0 -0.12562610614E+03 -0.28164372913E+03 -0.42154739320E+02  0.33542132024E+03  0.12500132527E+03 0.  0.
         23    2    1    2    0    0  0.12562610614E+03  0.28164372913E+03 -0.18322532261E+03  0.37030156777E+03  0.91905514207E+02 0.  0.
          5    1    3    3  502    0 -0.96697977920E+02 -0.91551441777E+02  0.16681572342E+02  0.13428525712E+03  0.47000000000E+01 0.  1.
         -5    1    4    4    0  503  0.62415074870E+02  0.21587936285E+03 -0.16046152647E+03  0.27616939069E+03  0.47000000000E+01 0.  1.
          5    1    4    4  503    0  0.63211031273E+02  0.65764366287E+02 -0.22763796137E+02  0.94132177082E+02  0.47000000000E+01 0. -1.
         -5    1    3    3    0  502 -0.28928128223E+02 -0.19009228736E+03 -0.58836311662E+02  0.20113606311E+03  0.47000000000E+01 0.  1.
<mgrwt>
<rscale>  0 0.32998546E+03</rscale>
<asrwt>0</asrwt>
<pdfrwt beam="1">  1        2 0.71623303E-01 0.33276184E+03</pdfrwt>
<pdfrwt beam="2">  1       -2 0.36949449E-01 0.33276184E+03</pdfrwt>
<totfact> 0.46941445E+02</totfact>
</mgrwt>
</event>
<event>
 8    1  0.3217375E-004  0.1531042E+03  0.7546771E-02  0.1205831E+00
          1   -1    0    0  501    0  0.00000000000E+00  0.00000000000E+00  0.10339228581E+03  0.10339228581E+03  0.00000000000E+00 0. -1.
         -1   -1    0    0    0  501 -0.00000000000E+00 -0.00000000000E+00 -0.18800745232E+03  0.18800745232E+03  0.00000000000E+00 0.  1.
         25    2    1    2    0    0  0.79117222038E+02  0.39455663870E+02 -0.50328084244E+02  0.16116393477E+03  0.12499845429E+03 0.  0.
         23    2    1    2    0    0 -0.79117222038E+02 -0.39455663870E+02 -0.34287082274E+02  0.13023580336E+03  0.89271922968E+02 0.  0.
          5    1    3    3  502    0  0.67440607538E+02  0.21412367686E+02 -0.90733156379E+02  0.11515780782E+03  0.47000000000E+01 0.  1.
         -5    1    4    4    0  503 -0.23867890637E+02  0.22487452166E+02 -0.33475425211E+02  0.47096239780E+02  0.47000000000E+01 0.  1.
          5    1    4    4  503    0 -0.55249331401E+02 -0.61943116035E+02 -0.81165706328E+00  0.83139563576E+02  0.47000000000E+01 0. -1.
         -5    1    3    3    0  502  0.11676614501E+02  0.18043296184E+02  0.40405072134E+02  0.46006126957E+02  0.47000000000E+01 0.  1.
<mgrwt>
<rscale>  0 0.14572147E+03</rscale>
<asrwt>0</asrwt>
<pdfrwt beam="1">  1        1 0.15906506E-01 0.15310421E+03</pdfrwt>
<pdfrwt beam="2">  1       -1 0.28924223E-01 0.15310421E+03</pdfrwt>
<totfact> 0.36288471E+03</totfact>
</mgrwt>
</event>
<event>
 8    1  0.3217375E-004  0.1556879E+03  0.7546771E-02  0.1202174E+00
         -2   -1    0    0    0  501 -0.00000000000E+00  0.00000000000E+00  0.11371466540E+03  0.11371466540E+03  0.00000000000E+00 0.  1.
          2   -1    0    0  501    0  0.00000000000E+00 -0.00000000000E+00 -0.77016115381E+03  0.77016115381E+03  0.00000000000E+00 0. -1.
         25    2    1    2    0    0  0.90711660331E+02 -0.19635233274E+02 -0.72221993234E+03  0.73881009660E+03  0.12499832185E+03 0.  0.
         23    2    1    2    0    0 -0.90711660331E+02  0.19635233274E+02  0.65773443932E+02  0.14506572260E+03  0.90020943346E+02 0.  0.
          5    1    3    3  502    0  0.28525932287E+02  0.50783217539E+02 -0.20775946211E+03  0.21582110205E+03  0.47000000000E+01 0.  1.
         -5    1    4    4    0  503 -0.27927831685E+02 -0.19970446469E+01  0.72784188502E+02  0.78125412420E+02  0.47000000000E+01 0.  1.
          5    1    4    4  503    0 -0.62783828647E+02  0.21632277921E+02 -0.70107445694E+01  0.66940310180E+02  0.47000000000E+01 0. -1.
         -5    1    3    3    0  502  0.62185728044E+02 -0.70418450812E+02 -0.51446047023E+03  0.52298899455E+03  0.47000000000E+01 0.  1.
<mgrwt>
<rscale>  0 0.14862400E+03</rscale>
<asrwt>0</asrwt>
<pdfrwt beam="1">  1        2 0.11848633E+00 0.15568792E+03</pdfrwt>
<pdfrwt beam="2">  1       -2 0.17494564E-01 0.15568792E+03</pdfrwt>
<totfact> 0.98653786E+02</totfact>
</mgrwt>
</event>
<event>
 8    1  0.3217375E-004  0.1451889E+03  0.7546771E-02  0.1216620E+00
         -1   -1    0    0    0  501 -0.00000000000E+00  0.00000000000E+00  0.11494049931E+02  0.11494049931E+02  0.00000000000E+00 0.  1.
          1   -1    0    0  501    0  0.00000000000E+00 -0.00000000000E+00 -0.17001599139E+04  0.17001599139E+04  0.00000000000E+00 0. -1.
         25    2    1    2    0    0 -0.87302042611E+01 -0.73325430089E+02 -0.62892187910E+03  0.64546305250E+03  0.12500794760E+03 0.  0.
         23    2    1    2    0    0  0.87302042611E+01  0.73325430089E+02 -0.10597439849E+04  0.10661909114E+04  0.90845532530E+02 0.  0.
          5    1    3    3  502    0 -0.49312883381E+02 -0.53638472991E+02 -0.54678519404E+03  0.55163845467E+03  0.47000000000E+01 0. -1.
         -5    1    3    3    0  502  0.40582679120E+02 -0.19686957099E+02 -0.82136685064E+02  0.93824597828E+02  0.47000000000E+01 0. -1.
          5    1    4    4  503    0 -0.37113845413E+02  0.10588611617E+02 -0.31532571522E+03  0.31771363348E+03  0.47000000000E+01 0. -1.
         -5    1    4    4    0  503  0.45844049675E+02  0.62736818473E+02 -0.74441826968E+03  0.74847727789E+03  0.47000000000E+01 0.  1.
<mgrwt>
<rscale>  0 0.13758242E+03</rscale>
<asrwt>0</asrwt>
<pdfrwt beam="1">  1        1 0.26156297E+00 0.14518892E+03</pdfrwt>
<pdfrwt beam="2">  1       -1 0.17683160E-02 0.14518892E+03</pdfrwt>
<totfact> 0.42936781E+03</totfact>
</mgrwt>
</event>
<event>
 8    1  0.3217375E-004  0.1343559E+03  0.7546771E-02  0.1235034E+00
          3   -1    0    0  501    0  0.00000000000E+00  0.00000000000E+00  0.20454254304E+03  0.20454254304E+03  0.00000000000E+00 0.  1.
         -3   -1    0    0    0  501 -0.00000000000E+00 -0.00000000000E+00 -0.67602780620E+02  0.67602780620E+02  0.00000000000E+00 0. -1.
         25    2    1    2    0    0  0.36220238415E+02  0.33384765326E+02  0.74535803081E+02  0.15364597347E+03  0.12500020399E+03 0.  0.
         23    2    1    2    0    0 -0.36220238415E+02 -0.33384765326E+02  0.62403959342E+02  0.11849935019E+03  0.87871460826E+02 0.  0.
          5    1    3    3  502    0 -0.16936000934E+02  0.24649003054E+02  0.91975223581E+02  0.96829402724E+02  0.47000000000E+01 0. -1.
         -5    1    3    3    0  502  0.53156239349E+02  0.87357622722E+01 -0.17439420499E+02  0.56816570748E+02  0.47000000000E+01 0. -1.
          5    1    4    4  503    0  0.35198869035E+01 -0.31821691494E+02 -0.11582723506E+02  0.34369450638E+02  0.47000000000E+01 0. -1.
         -5    1    4    4    0  503 -0.39740125319E+02 -0.15630738316E+01  0.73986682848E+02  0.84129899554E+02  0.47000000000E+01 0.  1.
<mgrwt>
<rscale>  0 0.12502279E+03</rscale>
<asrwt>0</asrwt>
<pdfrwt beam="1">  1        3 0.31468083E-01 0.13435587E+03</pdfrwt>
<pdfrwt beam="2">  1       -3 0.10400428E-01 0.13435587E+03</pdfrwt>
<totfact> 0.15562452E+03</totfact>
</mgrwt>
</event>
<event>
 8    1  0.3217375E-004  0.1727611E+03  0.7546771E-02  0.1182797E+00
          1   -1    0    0  501    0  0.00000000000E+00  0.00000000000E+00  0.20713043421E+03  0.20713043421E+03  0.00000000000E+00 0. -1.
         -1   -1    0    0    0  501 -0.00000000000E+00 -0.00000000000E+00 -0.12560740202E+03  0.12560740202E+03  0.00000000000E+00 0.  1.
         25    2    1    2    0    0 -0.88228252531E+01  0.11893747982E+03  0.15436476062E+02  0.17344932057E+03  0.12498966222E+03 0.  0.
         23    2    1    2    0    0  0.88228252531E+01 -0.11893747982E+03  0.66086556123E+02  0.15928851566E+03  0.82349450333E+02 0.  0.
          5    1    4    4  502    0  0.45304667444E+02 -0.61927812494E+02  0.30802495092E+02  0.82815762729E+02  0.47000000000E+01 0. -1.
         -5    1    3    3    0  503  0.42402479004E+02  0.10289050527E+03  0.33996509638E+02  0.11645719800E+03  0.47000000000E+01 0. -1.
          5    1    3    3  503    0 -0.51225304257E+02  0.16046974554E+02 -0.18560033576E+02  0.56992122569E+02  0.47000000000E+01 0. -1.
         -5    1    4    4    0  502 -0.36481842191E+02 -0.57009667326E+02  0.35284061031E+02  0.76472752932E+02  0.47000000000E+01 0.  1.
<mgrwt>
<rscale>  0 0.16533917E+03</rscale>
<asrwt>0</asrwt>
<pdfrwt beam="1">  1        1 0.31866221E-01 0.17276105E+03</pdfrwt>
<pdfrwt beam="2">  1       -1 0.19324216E-01 0.17276105E+03</pdfrwt>
<totfact> 0.29275964E+03</totfact>
</mgrwt>
</event>
<event>
 8    1  0.3217375E-004  0.1559522E+03  0.7546771E-02  0.1199746E+00
          1   -1    0    0  501    0  0.00000000000E+00  0.00000000000E+00  0.71137398955E+02  0.71137398955E+02  0.00000000000E+00 0. -1.
         -1   -1    0    0    0  501 -0.00000000000E+00 -0.00000000000E+00 -0.58621998014E+03  0.58621998014E+03  0.00000000000E+00 0.  1.
         25    2    1    2    0    0  0.54210782027E+02  0.75877362380E+02 -0.49659353028E+03  0.52050574099E+03  0.12499963631E+03 0.  0.
         23    2    1    2    0    0 -0.54210782027E+02 -0.75877362380E+02 -0.18489050912E+02  0.13685163811E+03  0.98439539009E+02 0.  0.
          5    1    3    3  502    0  0.67014608836E+02 -0.29256202852E+01 -0.31475070596E+03  0.32185340444E+03  0.47000000000E+01 0. -1.
         -5    1    4    4    0  503 -0.67280860977E+02 -0.47717926150E+02 -0.46473324403E+02  0.94792270839E+02  0.47000000000E+01 0.  1.
          5    1    4    4  503    0  0.13070078950E+02 -0.28159436229E+02  0.27984273490E+02  0.42059367272E+02  0.47000000000E+01 0. -1.
         -5    1    3    3    0  502 -0.12803826809E+02  0.78802982665E+02 -0.18184282432E+03  0.19865233655E+03  0.47000000000E+01 0. -1.
<mgrwt>
<rscale>  0 0.15059346E+03</rscale>
<asrwt>0</asrwt>
<pdfrwt beam="1">  1        1 0.10944215E-01 0.15595221E+03</pdfrwt>
<pdfrwt beam="2">  1       -1 0.90187689E-01 0.15595221E+03</pdfrwt>
<totfact> 0.71420090E+02</totfact>
</mgrwt>
</event>
<event>
 8    1  0.3217375E-004  0.1338515E+03  0.7546771E-02  0.1234311E+00
          2   -1    0    0  501    0  0.00000000000E+00  0.00000000000E+00  0.49013802678E+02  0.49013802678E+02  0.00000000000E+00 0. -1.
         -2   -1    0    0    0  501 -0.00000000000E+00 -0.00000000000E+00 -0.30259661634E+03  0.30259661634E+03  0.00000000000E+00 0.  1.
         25    2    1    2    0    0 -0.25189487724E+02 -0.40691897777E+02 -0.10276475984E+03  0.16875076531E+03  0.12500353631E+03 0.  0.
         23    2    1    2    0    0  0.25189487724E+02  0.40691897777E+02 -0.15081805382E+03  0.18285965371E+03  0.91658206190E+02 0.  0.
          5    1    4    4  502    0  0.36056287387E+02  0.19237403323E+02 -0.13385561047E+02  0.43259643911E+02  0.47000000000E+01 0. -1.
         -5    1    4    4    0  502 -0.10866799663E+02  0.21454494454E+02 -0.13743249277E+03  0.13960000980E+03  0.47000000000E+01 0.  1.
          5    1    3    3  503    0 -0.32747013710E+02 -0.76589752750E+02 -0.10197876726E+03  0.13175779334E+03  0.47000000000E+01 0. -1.
         -5    1    3    3    0  503  0.75575259858E+01  0.35897854973E+02 -0.78599258290E+00  0.36992971968E+02  0.47000000000E+01 0. -1.
<mgrwt>
<rscale>  0 0.12548668E+03</rscale>
<asrwt>0</asrwt>
<pdfrwt beam="1">  1        2 0.75405848E-02 0.13385150E+03</pdfrwt>
<pdfrwt beam="2">  1       -2 0.46553327E-01 0.13385150E+03</pdfrwt>
<totfact> 0.38739204E+03</totfact>
</mgrwt>
</event>
<event>
 8    1  0.3217375E-004  0.1906997E+03  0.7546771E-02  0.1163090E+00
         -2   -1    0    0    0  501 -0.00000000000E+00  0.00000000000E+00  0.14574377492E+02  0.14574377492E+02  0.00000000000E+00 0.  1.
          2   -1    0    0  501    0  0.00000000000E+00 -0.00000000000E+00 -0.23538099589E+04  0.23538099589E+04  0.00000000000E+00 0. -1.
         25    2    1    2    0    0  0.12470225990E+03 -0.72034365657E+02 -0.15226381967E+04  0.15345336270E+04  0.12500708305E+03 0.  0.
         23    2    1    2    0    0 -0.12470225990E+03  0.72034365657E+02 -0.81659738465E+03  0.83385070936E+03  0.87955178462E+02 0.  0.
          5    1    3    3  502    0  0.35043429502E+01  0.30454978720E+02 -0.30863861974E+03  0.31019296212E+03  0.47000000000E+01 0. -1.
         -5    1    4    4    0  503 -0.10157693094E+03  0.37295130537E+02 -0.72548713099E+03  0.73352741387E+03  0.47000000000E+01 0.  1.
          5    1    4    4  503    0 -0.23125328957E+02  0.34739235120E+02 -0.91110253660E+02  0.10032329549E+03  0.47000000000E+01 0. -1.
         -5    1    3    3    0  502  0.12119791695E+03 -0.10248934438E+03 -0.12139995770E+04  0.12243406649E+04  0.47000000000E+01 0. -1.
<mgrwt>
<rscale>  0 0.18495745E+03</rscale>
<asrwt>0</asrwt>
<pdfrwt beam="1">  1        2 0.36212464E+00 0.19069970E+03</pdfrwt>
<pdfrwt beam="2">  1       -2 0.22422117E-02 0.19069970E+03</pdfrwt>
<totfact> 0.31560705E+03</totfact>
</mgrwt>
</event>
<event>
 8    1  0.3217375E-004  0.2383449E+03  0.7546771E-02  0.1123674E+00
         -1   -1    0    0    0  501 -0.00000000000E+00  0.00000000000E+00  0.67046936197E+02  0.67046936197E+02  0.00000000000E+00 0.  1.
          1   -1    0    0  501    0  0.00000000000E+00 -0.00000000000E+00 -0.81041591632E+03  0.81041591632E+03  0.00000000000E+00 0. -1.
         25    2    1    2    0    0 -0.19638433391E+03  0.51132439341E+02 -0.45088964899E+03  0.51000956655E+03  0.12500779755E+03 0.  0.
         23    2    1    2    0    0  0.19638433391E+03 -0.51132439341E+02 -0.29247933114E+03  0.36745328597E+03  0.91084714816E+02 0.  0.
          5    1    4    4  502    0  0.12002903103E+03 -0.41947453378E+02 -0.24736154648E+03  0.27816610472E+03  0.47000000000E+01 0. -1.
         -5    1    4    4    0  502  0.76355302876E+02 -0.91849859629E+01 -0.45117784652E+02  0.89287181254E+02  0.47000000000E+01 0.  1.
          5    1    3    3  503    0 -0.80188068694E+02 -0.40618577513E+02 -0.16025937213E+03  0.18380737623E+03  0.47000000000E+01 0. -1.
         -5    1    3    3    0  503 -0.11619626521E+03  0.91751016855E+02 -0.29063027686E+03  0.32620219032E+03  0.47000000000E+01 0. -1.
<mgrwt>
<rscale>  0 0.23426404E+03</rscale>
<asrwt>0</asrwt>
<pdfrwt beam="1">  1        1 0.12467937E+00 0.23834488E+03</pdfrwt>
<pdfrwt beam="2">  1       -1 0.10314913E-01 0.23834488E+03</pdfrwt>
<totfact> 0.13119989E+03</totfact>
</mgrwt>
</event>
<event>
 8    1  0.3217375E-004  0.1615031E+03  0.7546771E-02  0.1194406E+00
          2   -1    0    0  501    0  0.00000000000E+00  0.00000000000E+00  0.47063458781E+03  0.47063458781E+03  0.00000000000E+00 0. -1.
         -2   -1    0    0    0  501 -0.00000000000E+00 -0.00000000000E+00 -0.49137725503E+02  0.49137725503E+02  0.00000000000E+00 0.  1.
         25    2    1    2    0    0  0.92249087021E+02 -0.44151841551E+02  0.17844073584E+03  0.24067478996E+03  0.12499591653E+03 0.  0.
         23    2    1    2    0    0 -0.92249087021E+02  0.44151841551E+02  0.24305612647E+03  0.27909752336E+03  0.91432312444E+02 0.  0.
          5    1    4    4  502    0 -0.59836395578E+01  0.49087745541E+02  0.73111387573E+02  0.88389907215E+02  0.47000000000E+01 0. -1.
         -5    1    4    4    0  502 -0.86265447464E+02 -0.49359039906E+01  0.16994473890E+03  0.19070761614E+03  0.47000000000E+01 0.  1.
          5    1    3    3  503    0  0.31905672103E+02 -0.58285154203E+02  0.16378951388E+03  0.17681692783E+03  0.47000000000E+01 0.  1.
         -5    1    3    3    0  503  0.60343414918E+02  0.14133312652E+02  0.14651221961E+02  0.63857862127E+02  0.47000000000E+01 0.  1.
<mgrwt>
<rscale>  0 0.15504604E+03</rscale>
<asrwt>0</asrwt>
<pdfrwt beam="1">  1        2 0.72405318E-01 0.16150312E+03</pdfrwt>
<pdfrwt beam="2">  1       -2 0.75596504E-02 0.16150312E+03</pdfrwt>
<totfact> 0.66678115E+03</totfact>
</mgrwt>
</event>
<event>
 8    1  0.3217375E-004  0.1259937E+03  0.7546771E-02  0.1249825E+00
          2   -1    0    0  501    0  0.00000000000E+00  0.00000000000E+00  0.28190745011E+03  0.28190745011E+03  0.00000000000E+00 0. -1.
         -2   -1    0    0    0  501 -0.00000000000E+00 -0.00000000000E+00 -0.41832349874E+02  0.41832349874E+02  0.00000000000E+00 0.  1.
         25    2    1    2    0    0 -0.11918888770E+02 -0.10373118996E+02  0.15172589350E+03  0.19721853874E+03  0.12499897502E+03 0.  0.
         23    2    1    2    0    0  0.11918888770E+02  0.10373118996E+02  0.88349206742E+02  0.12652126125E+03  0.89176149892E+02 0.  0.
          5    1    3    3  502    0 -0.51939460708E+02  0.16162719502E+02  0.22095392477E+02  0.58900233014E+02  0.47000000000E+01 0. -1.
         -5    1    4    4    0  503  0.45107155916E+02  0.15926474291E+01  0.19394570231E+02  0.49350090122E+02  0.47000000000E+01 0.  1.
          5    1    4    4  503    0 -0.33188267146E+02  0.87804715671E+01  0.68954636511E+02  0.77171171129E+02  0.47000000000E+01 0. -1.
         -5    1    3    3    0  502  0.40020571939E+02 -0.26535838498E+02  0.12963050102E+03  0.13831830572E+03  0.47000000000E+01 0. -1.
<mgrwt>
<rscale>  0 0.11601171E+03</rscale>
<asrwt>0</asrwt>
<pdfrwt beam="1">  1        2 0.43370376E-01 0.12599367E+03</pdfrwt>
<pdfrwt beam="2">  1       -2 0.64357463E-02 0.12599367E+03</pdfrwt>
<totfact> 0.14498171E+04</totfact>
</mgrwt>
</event>
<event>
 8    1  0.3217375E-004  0.1378922E+03  0.7546771E-02  0.1229325E+00
         -4   -1    0    0    0  501 -0.00000000000E+00  0.00000000000E+00  0.27626468889E+02  0.27626468889E+02  0.00000000000E+00 0.  1.
          4   -1    0    0  501    0  0.00000000000E+00 -0.00000000000E+00 -0.53444312370E+03  0.53444312370E+03  0.00000000000E+00 0. -1.
         25    2    1    2    0    0 -0.55581386148E+02 -0.17336615813E+02 -0.30240353727E+03  0.33235847257E+03  0.12499762480E+03 0.  0.
         23    2    1    2    0    0  0.55581386148E+02  0.17336615813E+02 -0.20441311755E+03  0.22971112002E+03  0.87135683283E+02 0.  0.
          5    1    4    4  502    0  0.49684630181E+02 -0.16109751256E+02 -0.18035999242E+03  0.18782945303E+03  0.47000000000E+01 0. -1.
         -5    1    3    3    0  503 -0.37872718975E+02 -0.26647391110E+01 -0.30620044246E+03  0.30858101796E+03  0.47000000000E+01 0. -1.
          5    1    3    3  503    0 -0.17708667173E+02 -0.14671876702E+02  0.37969051969E+01  0.23777454617E+02  0.47000000000E+01 0. -1.
         -5    1    4    4    0  502  0.58967559665E+01  0.33446367069E+02 -0.24053125129E+02  0.41881666986E+02  0.47000000000E+01 0.  1.
<mgrwt>
<rscale>  0 0.12874853E+03</rscale>
<asrwt>0</asrwt>
<pdfrwt beam="1">  1        4 0.82222024E-01 0.13789219E+03</pdfrwt>
<pdfrwt beam="2">  1       -4 0.42502257E-02 0.13789219E+03</pdfrwt>
<totfact> 0.68981414E+02</totfact>
</mgrwt>
</event>
<event>
 8    1  0.3217375E-004  0.1653896E+03  0.7546771E-02  0.1187280E+00
          4   -1    0    0  501    0  0.00000000000E+00  0.00000000000E+00  0.17480070464E+03  0.17480070464E+03  0.00000000000E+00 0. -1.
         -4   -1    0    0    0  501 -0.00000000000E+00 -0.00000000000E+00 -0.14573527881E+03  0.14573527881E+03  0.00000000000E+00 0.  1.
         25    2    1    2    0    0 -0.95503564923E+02  0.51066771390E+02 -0.11061086227E+02  0.16575906308E+03  0.12499989324E+03 0.  0.
         23    2    1    2    0    0  0.95503564923E+02 -0.51066771390E+02  0.40126512058E+02  0.15477692037E+03  0.10303888614E+03 0.  0.
          5    1    4    4  502    0  0.18194600533E+02 -0.53936241396E+02  0.50926867360E+02  0.76523182393E+02  0.47000000000E+01 0. -1.
         -5    1    4    4    0  502  0.77308964390E+02  0.28694700052E+01 -0.10800355302E+02  0.78253737980E+02  0.47000000000E+01 0.  1.
          5    1    3    3  503    0 -0.11592783665E+03  0.71096229671E+02 -0.13068056702E+02  0.13669967553E+03  0.47000000000E+01 0. -1.
         -5    1    3    3    0  503  0.20424271723E+02 -0.20029458281E+02  0.20069704752E+01  0.29059387553E+02  0.47000000000E+01 0. -1.
<mgrwt>
<rscale>  0 0.16126144E+03</rscale>
<asrwt>0</asrwt>
<pdfrwt beam="1">  1        4 0.26892416E-01 0.16538960E+03</pdfrwt>
<pdfrwt beam="2">  1       -4 0.22420812E-01 0.16538960E+03</pdfrwt>
<totfact> 0.41252023E+02</totfact>
</mgrwt>
</event>
<event>
 8    1  0.3217375E-004  0.1250559E+03  0.7546771E-02  0.1250604E+00
          1   -1    0    0  501    0  0.00000000000E+00  0.00000000000E+00  0.14245750842E+02  0.14245750842E+02  0.00000000000E+00 0. -1.
         -1   -1    0    0    0  501 -0.00000000000E+00 -0.00000000000E+00 -0.85767883572E+03  0.85767883572E+03  0.00000000000E+00 0.  1.
         25    2    1    2    0    0  0.70683077903E+00  0.35298375483E+01 -0.57444680339E+03  0.58790145455E+03  0.12500412385E+03 0.  0.
         23    2    1    2    0    0 -0.70683077903E+00 -0.35298375483E+01 -0.26898628149E+03  0.28402313201E+03  0.91118387406E+02 0.  0.
          5    1    4    4  502    0  0.31605470256E+02 -0.30358478267E+02 -0.91322941823E+02  0.10140272509E+03  0.47000000000E+01 0. -1.
         -5    1    4    4    0  502 -0.32312301035E+02  0.26828640719E+02 -0.17766333966E+03  0.18262040691E+03  0.47000000000E+01 0.  1.
          5    1    3    3  503    0  0.40549383781E+02  0.40820150743E+02 -0.16500188720E+03  0.17480918171E+03  0.47000000000E+01 0. -1.
         -5    1    3    3    0  503 -0.39842553002E+02 -0.37290313195E+02 -0.40944491619E+03  0.41309227284E+03  0.47000000000E+01 0. -1.
<mgrwt>
<rscale>  0 0.11556184E+03</rscale>
<asrwt>0</asrwt>
<pdfrwt beam="1">  1        1 0.21916538E-02 0.12505595E+03</pdfrwt>
<pdfrwt beam="2">  1       -1 0.13195060E+00 0.12505595E+03</pdfrwt>
<totfact> 0.26767686E+03</totfact>
</mgrwt>
</event>
<event>
 8    1  0.3217375E-004  0.1343730E+03  0.7546771E-02  0.1232382E+00
         -3   -1    0    0    0  501 -0.00000000000E+00  0.00000000000E+00  0.14180309646E+03  0.14180309646E+03  0.00000000000E+00 0.  1.
          3   -1    0    0  501    0  0.00000000000E+00 -0.00000000000E+00 -0.10357831985E+03  0.10357831985E+03  0.00000000000E+00 0. -1.
         25    2    1    2    0    0 -0.46790793926E+02 -0.15572949702E+02  0.69681818450E+01  0.13455350958E+03  0.12499678485E+03 0.  0.
         23    2    1    2    0    0  0.46790793926E+02  0.15572949702E+02  0.31256594768E+02  0.11082790674E+03  0.94201672157E+02 0.  0.
          5    1    3    3  502    0  0.21483097351E+02 -0.20334755143E+02  0.46549153957E+02  0.55352863275E+02  0.47000000000E+01 0. -1.
         -5    1    3    3    0  502 -0.68273891277E+02  0.47618054420E+01 -0.39580972112E+02  0.79200646301E+02  0.47000000000E+01 0. -1.
          5    1    4    4  503    0  0.42896463876E+02  0.46833317812E+02 -0.33802032505E+01  0.63772894276E+02  0.47000000000E+01 0. -1.
         -5    1    4    4    0  503  0.38943300498E+01 -0.31260368111E+02  0.34636798019E+02  0.47055012463E+02  0.47000000000E+01 0.  1.
<mgrwt>
<rscale>  0 0.12673507E+03</rscale>
<asrwt>0</asrwt>
<pdfrwt beam="1">  1        3 0.15935126E-01 0.13437296E+03</pdfrwt>
<pdfrwt beam="2">  1       -3 0.21815861E-01 0.13437296E+03</pdfrwt>
<totfact> 0.14742599E+03</totfact>
</mgrwt>
</event>
<event>
 8    1  0.3217375E-004  0.1755421E+03  0.7546771E-02  0.1177932E+00
         -1   -1    0    0    0  501 -0.00000000000E+00  0.00000000000E+00  0.77975948476E+03  0.77975948476E+03  0.00000000000E+00 0.  1.
          1   -1    0    0  501    0  0.00000000000E+00 -0.00000000000E+00 -0.40960113301E+02  0.40960113301E+02  0.00000000000E+00 0. -1.
         25    2    1    2    0    0 -0.11759550297E+03 -0.36830031290E+02  0.23150549959E+03  0.29053371370E+03  0.12501955419E+03 0.  0.
         23    2    1    2    0    0  0.11759550297E+03  0.36830031290E+02  0.50729387187E+03  0.53018588436E+03  0.92546453309E+02 0.  0.
          5    1    4    4  502    0  0.92296031950E+02  0.52350620317E+02  0.25683472842E+03  0.27793040979E+03  0.47000000000E+01 0. -1.
         -5    1    3    3    0  503 -0.66455836164E+01 -0.61195113945E+02  0.86582971318E+02  0.10633770110E+03  0.47000000000E+01 0. -1.
          5    1    3    3  503    0 -0.11094991935E+03  0.24365082654E+02  0.14492252827E+03  0.18419601260E+03  0.47000000000E+01 0. -1.
         -5    1    4    4    0  502  0.25299471018E+02 -0.15520589027E+02  0.25045914344E+03  0.25225547457E+03  0.47000000000E+01 0.  1.
<mgrwt>
<rscale>  0 0.16991980E+03</rscale>
<asrwt>0</asrwt>
<pdfrwt beam="1">  1        1 0.63015565E-02 0.17554214E+03</pdfrwt>
<pdfrwt beam="2">  1       -1 0.11996299E+00 0.17554214E+03</pdfrwt>
<totfact> 0.79349221E+02</totfact>
</mgrwt>
</event>
<event>
 8    1  0.3217375E-004  0.1365134E+03  0.7546771E-02  0.1230032E+00
          1   -1    0    0  501    0  0.00000000000E+00  0.00000000000E+00  0.36204478249E+03  0.36204478249E+03  0.00000000000E+00 0. -1.
         -1   -1    0    0    0  501 -0.00000000000E+00 -0.00000000000E+00 -0.40981014622E+02  0.40981014622E+02  0.00000000000E+00 0.  1.
         25    2    1    2    0    0 -0.15567418426E+02  0.52567420966E+02  0.19504648928E+03  0.23807357897E+03  0.12502086929E+03 0.  0.
         23    2    1    2    0    0  0.15567418426E+02 -0.52567420966E+02  0.12601727859E+03  0.16495221814E+03  0.91231581731E+02 0.  0.
          5    1    4    4  502    0  0.51071491587E+02 -0.34195271539E+02  0.98486133281E+02  0.11618615364E+03  0.47000000000E+01 0. -1.
         -5    1    3    3    0  503  0.37191179901E+01  0.85245271505E+02  0.80829804541E+02  0.11762710340E+03  0.47000000000E+01 0.  1.
          5    1    3    3  503    0 -0.19286536416E+02 -0.32677850540E+02  0.11421668474E+03  0.12044647556E+03  0.47000000000E+01 0.  1.
         -5    1    4    4    0  502 -0.35504073162E+02 -0.18372149426E+02  0.27531145305E+02  0.48766064506E+02  0.47000000000E+01 0.  1.
<mgrwt>
<rscale>  0 0.12827875E+03</rscale>
<asrwt>0</asrwt>
<pdfrwt beam="1">  1        1 0.55699195E-01 0.13651335E+03</pdfrwt>
<pdfrwt beam="2">  1       -1 0.63047717E-02 0.13651335E+03</pdfrwt>
<totfact> 0.81291123E+03</totfact>
</mgrwt>
</event>
<event>
 8    1  0.3217375E-004  0.1655752E+03  0.7546771E-02  0.1189437E+00
         -1   -1    0    0    0  501 -0.00000000000E+00  0.00000000000E+00  0.55745657365E+02  0.55745657365E+02  0.00000000000E+00 0.  1.
          1   -1    0    0  501    0  0.00000000000E+00 -0.00000000000E+00 -0.57038658735E+03  0.57038658735E+03  0.00000000000E+00 0. -1.
         25    2    1    2    0    0 -0.10586160161E+03  0.24201595258E+02 -0.43003930360E+03  0.46081333986E+03  0.12499094225E+03 0.  0.
         23    2    1    2    0    0  0.10586160161E+03 -0.24201595258E+02 -0.84601626379E+02  0.16531890485E+03  0.91545121153E+02 0.  0.
          5    1    3    3  502    0  0.10529539781E+02  0.37054935738E+02 -0.18712694177E+03  0.19110866492E+03  0.47000000000E+01 0.  1.
         -5    1    3    3    0  502 -0.11639114139E+03 -0.12853340479E+02 -0.24291236183E+03  0.26970467495E+03  0.47000000000E+01 0.  1.
          5    1    4    4  503    0  0.10559553039E+03  0.11147026447E+02 -0.65794790964E+02  0.12500286699E+03  0.47000000000E+01 0. -1.
         -5    1    4    4    0  503  0.26607121383E+00 -0.35348621705E+02 -0.18806835415E+02  0.40316037859E+02  0.47000000000E+01 0.  1.
<mgrwt>
<rscale>  0 0.15934646E+03</rscale>
<asrwt>0</asrwt>
<pdfrwt beam="1">  1        1 0.87751772E-01 0.16557515E+03</pdfrwt>
<pdfrwt beam="2">  1       -1 0.85762560E-02 0.16557515E+03</pdfrwt>
<totfact> 0.28702853E+03</totfact>
</mgrwt>
</event>
<event>
 8    1  0.3217375E-004  0.1337203E+03  0.7546771E-02  0.1235027E+00
         -1   -1    0    0    0  501 -0.00000000000E+00  0.00000000000E+00  0.20094187302E+02  0.20094187302E+02  0.00000000000E+00 0.  1.
          1   -1    0    0  501    0  0.00000000000E+00 -0.00000000000E+00 -0.72039835662E+03  0.72039835662E+03  0.00000000000E+00 0. -1.
         25    2    1    2    0    0 -0.38708646727E+02 -0.27534660843E+02 -0.46745778658E+03  0.48620767514E+03  0.12499841699E+03 0.  0.
         23    2    1    2    0    0  0.38708646727E+02  0.27534660843E+02 -0.23284638274E+03  0.25428486878E+03  0.90481156373E+02 0.  0.
          5    1    4    4  502    0  0.32248836803E+02  0.55719194192E+02 -0.20054703300E+03  0.21067942121E+03  0.47000000000E+01 0. -1.
         -5    1    4    4    0  502  0.64598099235E+01 -0.28184533349E+02 -0.32299349732E+02  0.43605447567E+02  0.47000000000E+01 0.  1.
          5    1    3    3  503    0  0.27936337092E+02  0.28568746901E+02 -0.22413605026E+03  0.22771840342E+03  0.47000000000E+01 0.  1.
         -5    1    3    3    0  503 -0.66644983818E+02 -0.56103407744E+02 -0.24332173632E+03  0.25848927172E+03  0.47000000000E+01 0.  1.
<mgrwt>
<rscale>  0 0.12502678E+03</rscale>
<asrwt>0</asrwt>
<pdfrwt beam="1">  1        1 0.11083052E+00 0.13372031E+03</pdfrwt>
<pdfrwt beam="2">  1       -1 0.30914134E-02 0.13372031E+03</pdfrwt>
<totfact> 0.93449052E+03</totfact>
</mgrwt>
</event>
<event>
 8    1  0.3217375E-004  0.1564276E+03  0.7546771E-02  0.1200990E+00
          2   -1    0    0  501    0  0.00000000000E+00  0.00000000000E+00  0.18427625108E+03  0.18427625108E+03  0.00000000000E+00 0. -1.
         -2   -1    0    0    0  501 -0.00000000000E+00 -0.00000000000E+00 -0.11638070579E+03  0.11638070579E+03  0.00000000000E+00 0.  1.
         25    2    1    2    0    0  0.92967995804E+02  0.14175458336E+02  0.75152595107E+01  0.15660797561E+03  0.12500234813E+03 0.  0.
         23    2    1    2    0    0 -0.92967995804E+02 -0.14175458336E+02  0.60380285773E+02  0.14404898126E+03  0.90886402879E+02 0.  0.
          5    1    4    4  502    0 -0.87864667502E+02 -0.37884501521E+02  0.68806054034E+02  0.11794828664E+03  0.47000000000E+01 0. -1.
         -5    1    4    4    0  502 -0.51033283022E+01  0.23709043184E+02 -0.84257682607E+01  0.26100694613E+02  0.47000000000E+01 0.  1.
          5    1    3    3  503    0  0.10865907317E+03 -0.27041043312E+02  0.58691312234E+01  0.11222543788E+03  0.47000000000E+01 0. -1.
         -5    1    3    3    0  503 -0.15691077370E+02  0.41216501648E+02  0.16461282873E+01  0.44382537732E+02  0.47000000000E+01 0. -1.
<mgrwt>
<rscale>  0 0.14957988E+03</rscale>
<asrwt>0</asrwt>
<pdfrwt beam="1">  1        2 0.28350192E-01 0.15642755E+03</pdfrwt>
<pdfrwt beam="2">  1       -2 0.17904724E-01 0.15642755E+03</pdfrwt>
<totfact> 0.45816235E+03</totfact>
</mgrwt>
</event>
<event>
 8    1  0.3217375E-004  0.2138387E+03  0.7546771E-02  0.1142138E+00
         -2   -1    0    0    0  501 -0.00000000000E+00  0.00000000000E+00  0.61986490216E+02  0.61986490216E+02  0.00000000000E+00 0.  1.
          2   -1    0    0  501    0  0.00000000000E+00 -0.00000000000E+00 -0.80859999199E+03  0.80859999199E+03  0.00000000000E+00 0. -1.
         25    2    1    2    0    0 -0.16817035232E+03 -0.42685729708E+02 -0.21200325818E+03  0.30111850778E+03  0.12499454118E+03 0.  0.
         23    2    1    2    0    0  0.16817035232E+03  0.42685729708E+02 -0.53461024359E+03  0.56946797443E+03  0.91555024028E+02 0.  0.
          5    1    3    3  502    0 -0.70948905241E+02 -0.71212377938E+02 -0.56354754445E+02  0.11533819088E+03  0.47000000000E+01 0.  1.
         -5    1    4    4    0  503  0.71199033443E+02  0.38713391891E+02 -0.36571868887E+03  0.37462017893E+03  0.47000000000E+01 0.  1.
          5    1    4    4  503    0  0.96971318878E+02  0.39723378169E+01 -0.16889155472E+03  0.19484779549E+03  0.47000000000E+01 0. -1.
         -5    1    3    3    0  502 -0.97221447081E+02  0.28526648230E+02 -0.15564850374E+03  0.18578031690E+03  0.47000000000E+01 0.  1.
<mgrwt>
<rscale>  0 0.20927967E+03</rscale>
<asrwt>0</asrwt>
<pdfrwt beam="1">  1        2 0.12440000E+00 0.21383866E+03</pdfrwt>
<pdfrwt beam="2">  1       -2 0.95363830E-02 0.21383866E+03</pdfrwt>
<totfact> 0.24906956E+03</totfact>
</mgrwt>
</event>
<event>
 8    1  0.3217375E-004  0.1369122E+03  0.7546771E-02  0.1228874E+00
         -2   -1    0    0    0  501 -0.00000000000E+00  0.00000000000E+00  0.19689462560E+02  0.19689462560E+02  0.00000000000E+00 0.  1.
          2   -1    0    0  501    0  0.00000000000E+00 -0.00000000000E+00 -0.80306269367E+03  0.80306269367E+03  0.00000000000E+00 0. -1.
         25    2    1    2    0    0  0.29062958959E+02 -0.47701206094E+02 -0.34305458924E+03  0.36936623242E+03  0.12499960721E+03 0.  0.
         23    2    1    2    0    0 -0.29062958959E+02  0.47701206094E+02 -0.44031864187E+03  0.45338592381E+03  0.92510696081E+02 0.  0.
          5    1    4    4  502    0  0.24771362038E+02 -0.11619643198E+02 -0.10671540577E+03  0.11026742182E+03  0.47000000000E+01 0. -1.
         -5    1    3    3    0  503  0.11184095198E+02  0.37960437185E+02 -0.17889564019E+03  0.18328071054E+03  0.47000000000E+01 0. -1.
          5    1    3    3  503    0  0.17878863761E+02 -0.85661643279E+02 -0.16415894905E+03  0.18608552188E+03  0.47000000000E+01 0. -1.
         -5    1    4    4    0  502 -0.53834320997E+02  0.59320849293E+02 -0.33360323610E+03  0.34311850200E+03  0.47000000000E+01 0.  1.
<mgrwt>
<rscale>  0 0.12904884E+03</rscale>
<asrwt>0</asrwt>
<pdfrwt beam="1">  1        2 0.12354811E+00 0.13691224E+03</pdfrwt>
<pdfrwt beam="2">  1       -2 0.30291481E-02 0.13691224E+03</pdfrwt>
<totfact> 0.14073700E+04</totfact>
</mgrwt>
</event>
<event>
 8    1  0.3217375E-004  0.1384765E+03  0.7546771E-02  0.1225220E+00
          1   -1    0    0  501    0  0.00000000000E+00  0.00000000000E+00  0.86792759896E+03  0.86792759896E+03  0.00000000000E+00 0. -1.
         -1   -1    0    0    0  501 -0.00000000000E+00 -0.00000000000E+00 -0.19597968454E+02  0.19597968454E+02  0.00000000000E+00 0.  1.
         25    2    1    2    0    0 -0.27947756427E+02 -0.52622933842E+02  0.34530779369E+03  0.37203924584E+03  0.12500191121E+03 0.  0.
         23    2    1    2    0    0  0.27947756427E+02  0.52622933842E+02  0.50302183681E+03  0.51548632157E+03  0.95629122984E+02 0.  0.
          5    1    3    3  502    0  0.40460621944E+02 -0.43314819713E+02  0.23000064788E+03  0.23756183102E+03  0.47000000000E+01 0. -1.
         -5    1    4    4    0  503  0.11245477692E+02 -0.25601559101E+02  0.78380398573E+02  0.83351529544E+02  0.47000000000E+01 0.  1.
          5    1    4    4  503    0  0.16702278735E+02  0.78224492943E+02  0.42464143824E+03  0.43213479202E+03  0.47000000000E+01 0. -1.
         -5    1    3    3    0  502 -0.68408378371E+02 -0.93081141292E+01  0.11530714582E+03  0.13447741482E+03  0.47000000000E+01 0. -1.
<mgrwt>
<rscale>  0 0.13151849E+03</rscale>
<asrwt>0</asrwt>
<pdfrwt beam="1">  1        1 0.13352729E+00 0.13847645E+03</pdfrwt>
<pdfrwt beam="2">  1       -1 0.30150727E-02 0.13847645E+03</pdfrwt>
<totfact> 0.73422473E+03</totfact>
</mgrwt>
</event>
<event>
 8    1  0.3217375E-004  0.1437040E+03  0.7546771E-02  0.1218356E+00
         -2   -1    0    0    0  501 -0.00000000000E+00  0.00000000000E+00  0.26041166991E+02  0.26041166991E+02  0.00000000000E+00 0.  1.
          2   -1    0    0  501    0  0.00000000000E+00 -0.00000000000E+00 -0.64964950551E+03  0.64964950551E+03  0.00000000000E+00 0. -1.
         25    2    1    2    0    0  0.54123315679E+02 -0.45795592892E+02 -0.33901277520E+03  0.36821258411E+03  0.12499710285E+03 0.  0.
         23    2    1    2    0    0 -0.54123315679E+02  0.45795592892E+02 -0.28459556333E+03  0.30747808840E+03  0.92312353188E+02 0.  0.
          5    1    4    4  502    0 -0.79326355035E+02  0.30066665123E+02 -0.22924348952E+03  0.24448178346E+03  0.47000000000E+01 0. -1.
         -5    1    3    3    0  503 -0.40265796012E+02 -0.21945504450E+02 -0.10146590286E+03  0.11144666409E+03  0.47000000000E+01 0. -1.
          5    1    3    3  503    0  0.94389111691E+02 -0.23850088441E+02 -0.23754687234E+03  0.25676592002E+03  0.47000000000E+01 0. -1.
         -5    1    4    4    0  502  0.25203039356E+02  0.15728927769E+02 -0.55352073805E+02  0.62996304940E+02  0.47000000000E+01 0.  1.
<mgrwt>
<rscale>  0 0.13632850E+03</rscale>
<asrwt>0</asrwt>
<pdfrwt beam="1">  1        2 0.99946067E-01 0.14370402E+03</pdfrwt>
<pdfrwt beam="2">  1       -2 0.40063338E-02 0.14370402E+03</pdfrwt>
<totfact> 0.12048160E+04</totfact>
</mgrwt>
</event>
<event>
 8    1  0.3217375E-004  0.1704881E+03  0.7546771E-02  0.1183374E+00
          2   -1    0    0  501    0  0.00000000000E+00  0.00000000000E+00  0.45191369480E+03  0.45191369480E+03  0.00000000000E+00 0. -1.
         -2   -1    0    0    0  501 -0.00000000000E+00 -0.00000000000E+00 -0.61292633941E+02  0.61292633941E+02  0.00000000000E+00 0.  1.
         25    2    1    2    0    0  0.89198476577E+02  0.74069348513E+02  0.27965686166E+03  0.32752733587E+03  0.12499423529E+03 0.  0.
         23    2    1    2    0    0 -0.89198476577E+02 -0.74069348513E+02  0.11096419920E+03  0.18567899287E+03  0.93386285270E+02 0.  0.
          5    1    4    4  502    0 -0.13245488927E+02 -0.39423695881E+02  0.90332107576E+02  0.99557272125E+02  0.47000000000E+01 0. -1.
         -5    1    4    4    0  502 -0.75952987650E+02 -0.34645652632E+02  0.20632091621E+02  0.86121720744E+02  0.47000000000E+01 0.  1.
          5    1    3    3  503    0 -0.16842660389E+02  0.29370124542E+02  0.12143425870E+02  0.36274401669E+02  0.47000000000E+01 0. -1.
         -5    1    3    3    0  503  0.10604113697E+03  0.44699223971E+02  0.26751343579E+03  0.29125293420E+03  0.47000000000E+01 0. -1.
<mgrwt>
<rscale>  0 0.16480702E+03</rscale>
<asrwt>0</asrwt>
<pdfrwt beam="1">  1        2 0.69525182E-01 0.17048811E+03</pdfrwt>
<pdfrwt beam="2">  1       -2 0.94296363E-02 0.17048811E+03</pdfrwt>
<totfact> 0.49531324E+03</totfact>
</mgrwt>
</event>
<event>
 8    1  0.3217375E-004  0.1716489E+03  0.7546771E-02  0.1182512E+00
          4   -1    0    0  501    0  0.00000000000E+00  0.00000000000E+00  0.16418836304E+03  0.16418836304E+03  0.00000000000E+00 0. -1.
         -4   -1    0    0    0  501 -0.00000000000E+00 -0.00000000000E+00 -0.15873397476E+03  0.15873397476E+03  0.00000000000E+00 0.  1.
         25    2    1    2    0    0 -0.78024743004E+02 -0.88034788562E+02 -0.17141394603E+02  0.17250269614E+03  0.12500147299E+03 0.  0.
         23    2    1    2    0    0  0.78024743004E+02  0.88034788562E+02  0.22595782891E+02  0.15041964166E+03  0.90980847839E+02 0.  0.
          5    1    4    4  502    0  0.27768170820E+02  0.72006284414E+02  0.48698934144E+02  0.91376432916E+02  0.47000000000E+01 0. -1.
         -5    1    4    4    0  502  0.50256572184E+02  0.16028504148E+02 -0.26103151253E+02  0.59043208740E+02  0.47000000000E+01 0.  1.
          5    1    3    3  503    0 -0.44861419137E+02  0.16333091906E+02 -0.37658301044E+02  0.60988150126E+02  0.47000000000E+01 0.  1.
         -5    1    3    3    0  503 -0.33163323867E+02 -0.10436788047E+03  0.20516906441E+02  0.11151454602E+03  0.47000000000E+01 0.  1.
<mgrwt>
<rscale>  0 0.16560289E+03</rscale>
<asrwt>0</asrwt>
<pdfrwt beam="1">  1        4 0.25259748E-01 0.17164892E+03</pdfrwt>
<pdfrwt beam="2">  1       -4 0.24420611E-01 0.17164892E+03</pdfrwt>
<totfact> 0.39870787E+02</totfact>
</mgrwt>
</event>
<event>
 8    1  0.3217375E-004  0.2039083E+03  0.7546771E-02  0.1150142E+00
          2   -1    0    0  501    0  0.00000000000E+00  0.00000000000E+00  0.27235396781E+03  0.27235396781E+03  0.00000000000E+00 0.  1.
         -2   -1    0    0    0  501 -0.00000000000E+00 -0.00000000000E+00 -0.15195036665E+03  0.15195036665E+03  0.00000000000E+00 0. -1.
         25    2    1    2    0    0 -0.15889120165E+03 -0.26592382361E+02  0.37015264779E+01  0.20394191534E+03  0.12500013909E+03 0.  0.
         23    2    1    2    0    0  0.15889120165E+03  0.26592382361E+02  0.11670207469E+03  0.22036241912E+03  0.94797957588E+02 0.  0.
          5    1    4    4  502    0  0.39228819373E+02  0.17532217822E+02 -0.11466288810E+02  0.44719623324E+02  0.47000000000E+01 0. -1.
         -5    1    3    3    0  503 -0.10142968085E+02  0.17976499299E+02  0.39231029532E+02  0.44577999134E+02  0.47000000000E+01 0.  1.
          5    1    3    3  503    0 -0.14874823357E+03 -0.44568881660E+02 -0.35529503054E+02  0.15936391621E+03  0.47000000000E+01 0.  1.
         -5    1    4    4    0  502  0.11966238228E+03  0.90601645390E+01  0.12816836350E+03  0.17564279580E+03  0.47000000000E+01 0.  1.
<mgrwt>
<rscale>  0 0.19952252E+03</rscale>
<asrwt>0</asrwt>
<pdfrwt beam="1">  1        2 0.41900610E-01 0.20390832E+03</pdfrwt>
<pdfrwt beam="2">  1       -2 0.23376979E-01 0.20390832E+03</pdfrwt>
<totfact> 0.19254005E+03</totfact>
</mgrwt>
</event>
<event>
 8    1  0.3217375E-004  0.1337504E+03  0.7546771E-02  0.1232445E+00
         -2   -1    0    0    0  501 -0.00000000000E+00  0.00000000000E+00  0.44305057600E+03  0.44305057600E+03  0.00000000000E+00 0.  1.
          2   -1    0    0  501    0  0.00000000000E+00 -0.00000000000E+00 -0.42987138279E+02  0.42987138279E+02  0.00000000000E+00 0. -1.
         25    2    1    2    0    0 -0.40030376833E+02  0.25684406839E+02  0.33380322912E+03  0.35960222999E+03  0.12500819260E+03 0.  0.
         23    2    1    2    0    0  0.40030376833E+02 -0.25684406839E+02  0.66260208595E+02  0.12643548429E+03  0.96609505845E+02 0.  0.
          5    1    4    4  502    0  0.55406319734E+02 -0.47267518359E+02  0.24942292658E+02  0.77125135470E+02  0.47000000000E+01 0. -1.
         -5    1    3    3    0  503  0.43224055368E+01  0.62619917676E+02  0.24955537801E+03  0.25737115995E+03  0.47000000000E+01 0. -1.
          5    1    3    3  503    0 -0.44352782370E+02 -0.36935510837E+02  0.84247851110E+02  0.10223107004E+03  0.47000000000E+01 0. -1.
         -5    1    4    4    0  502 -0.15375942901E+02  0.21583111520E+02  0.41317915937E+02  0.49310348816E+02  0.47000000000E+01 0.  1.
<mgrwt>
<rscale>  0 0.12669444E+03</rscale>
<asrwt>0</asrwt>
<pdfrwt beam="1">  1        2 0.66134062E-02 0.13375039E+03</pdfrwt>
<pdfrwt beam="2">  1       -2 0.68161624E-01 0.13375039E+03</pdfrwt>
<totfact> 0.21122110E+03</totfact>
</mgrwt>
</event>
<event>
 8    1  0.3217375E-004  0.1698391E+03  0.7546771E-02  0.1184317E+00
         -1   -1    0    0    0  501 -0.00000000000E+00  0.00000000000E+00  0.47102967892E+02  0.47102967892E+02  0.00000000000E+00 0.  1.
          1   -1    0    0  501    0  0.00000000000E+00 -0.00000000000E+00 -0.70974529796E+03  0.70974529796E+03  0.00000000000E+00 0. -1.
         25    2    1    2    0    0 -0.11267790828E+03  0.22847324690E+02 -0.16113896309E+03  0.23411769448E+03  0.12500807246E+03 0.  0.
         23    2    1    2    0    0  0.11267790828E+03 -0.22847324690E+02 -0.50150336697E+03  0.52273057137E+03  0.92321784569E+02 0.  0.
          5    1    4    4  502    0  0.21133952679E+02 -0.35741601128E+02 -0.27316179684E+03  0.27633957961E+03  0.47000000000E+01 0. -1.
         -5    1    4    4    0  502  0.91543955600E+02  0.12894276438E+02 -0.22834157013E+03  0.24639099176E+03  0.47000000000E+01 0.  1.
          5    1    3    3  503    0 -0.70526420305E+02 -0.18638430928E+02 -0.15871483770E+03  0.17473939674E+03  0.47000000000E+01 0. -1.
         -5    1    3    3    0  503 -0.42151487974E+02  0.41485755618E+02 -0.24241253953E+01  0.59378297732E+02  0.47000000000E+01 0. -1.
<mgrwt>
<rscale>  0 0.16394184E+03</rscale>
<asrwt>0</asrwt>
<pdfrwt beam="1">  1        1 0.10919159E+00 0.16983913E+03</pdfrwt>
<pdfrwt beam="2">  1       -1 0.72466103E-02 0.16983913E+03</pdfrwt>
<totfact> 0.27319494E+03</totfact>
</mgrwt>
</event>
<event>
 8    1  0.3217375E-004  0.1286765E+03  0.7546771E-02  0.1244261E+00
         -1   -1    0    0    0  501 -0.00000000000E+00  0.00000000000E+00  0.28921055819E+03  0.28921055819E+03  0.00000000000E+00 0.  1.
          1   -1    0    0  501    0  0.00000000000E+00 -0.00000000000E+00 -0.46821669876E+02  0.46821669876E+02  0.00000000000E+00 0. -1.
         25    2    1    2    0    0  0.18934443506E+02 -0.23937654195E+02  0.18378963192E+03  0.22435746495E+03  0.12500447528E+03 0.  0.
         23    2    1    2    0    0 -0.18934443506E+02  0.23937654195E+02  0.58599256397E+02  0.11167476311E+03  0.90032524271E+02 0.  0.
          5    1    4    4  502    0 -0.48344992759E+02  0.36470803597E+02  0.48777282437E+02  0.77901675989E+02  0.47000000000E+01 0. -1.
         -5    1    4    4    0  502  0.29410549253E+02 -0.12533149402E+02  0.98219739595E+01  0.33773087123E+02  0.47000000000E+01 0.  1.
          5    1    3    3  503    0  0.38489715094E+01 -0.74758240953E+02  0.11665232484E+03  0.13868476507E+03  0.47000000000E+01 0.  1.
         -5    1    3    3    0  503  0.15085471996E+02  0.50820586758E+02  0.67137307076E+02  0.85672699883E+02  0.47000000000E+01 0.  1.
<mgrwt>
<rscale>  0 0.11929707E+03</rscale>
<asrwt>0</asrwt>
<pdfrwt beam="1">  1        1 0.72033340E-02 0.12867651E+03</pdfrwt>
<pdfrwt beam="2">  1       -1 0.44493931E-01 0.12867651E+03</pdfrwt>
<totfact> 0.48636997E+03</totfact>
</mgrwt>
</event>
<event>
 8    1  0.3217375E-004  0.1274057E+03  0.7546771E-02  0.1246015E+00
         -1   -1    0    0    0  501 -0.00000000000E+00  0.00000000000E+00  0.10941739206E+03  0.10941739206E+03  0.00000000000E+00 0.  1.
          1   -1    0    0  501    0  0.00000000000E+00 -0.00000000000E+00 -0.11468937502E+03  0.11468937502E+03  0.00000000000E+00 0. -1.
         25    2    1    2    0    0 -0.81033592189E+01 -0.23277164762E+02 -0.18157713952E+02  0.12869311909E+03  0.12499890198E+03 0.  0.
         23    2    1    2    0    0  0.81033592189E+01  0.23277164762E+02  0.12885730994E+02  0.95413647981E+02  0.91270100952E+02 0.  0.
          5    1    4    4  502    0  0.28236889858E+02 -0.19957999084E+02 -0.17121664562E+02  0.38870105141E+02  0.47000000000E+01 0. -1.
         -5    1    4    4    0  502 -0.20133530639E+02  0.43235163846E+02  0.30007395556E+02  0.56543542840E+02  0.47000000000E+01 0.  1.
          5    1    3    3  503    0  0.17857756793E+02  0.37192296892E+02 -0.41503952853E+02  0.58709748153E+02  0.47000000000E+01 0.  1.
         -5    1    3    3    0  503 -0.25961116012E+02 -0.60469461654E+02  0.23346238901E+02  0.69983370941E+02  0.47000000000E+01 0.  1.
<mgrwt>
<rscale>  0 0.11824834E+03</rscale>
<asrwt>0</asrwt>
<pdfrwt beam="1">  1        1 0.17644519E-01 0.12740572E+03</pdfrwt>
<pdfrwt beam="2">  1       -1 0.16833445E-01 0.12740572E+03</pdfrwt>
<totfact> 0.75597815E+03</totfact>
</mgrwt>
</event>
<event>
 8    1  0.3217375E-004  0.1291560E+03  0.7546771E-02  0.1242688E+00
          3   -1    0    0  501    0  0.00000000000E+00  0.00000000000E+00  0.36391968511E+02  0.36391968511E+02  0.00000000000E+00 0. -1.
         -3   -1    0    0    0  501 -0.00000000000E+00 -0.00000000000E+00 -0.35877680665E+03  0.35877680665E+03  0.00000000000E+00 0.  1.
         25    2    1    2    0    0  0.37333632839E-01 -0.32515871361E+02 -0.15574654340E+03  0.20233207490E+03  0.12499599781E+03 0.  0.
         23    2    1    2    0    0 -0.37333632839E-01  0.32515871361E+02 -0.16663829474E+03  0.19283670027E+03  0.91435159594E+02 0.  0.
          5    1    4    4  502    0 -0.12670804656E+02  0.51867689925E+02 -0.48235288644E+02  0.72107833273E+02  0.47000000000E+01 0. -1.
         -5    1    4    4    0  502  0.12633471023E+02 -0.19351818564E+02 -0.11840300610E+03  0.12072886699E+03  0.47000000000E+01 0.  1.
          5    1    3    3  503    0  0.18575304875E+02 -0.69206690154E+02 -0.46597561786E+02  0.85603917420E+02  0.47000000000E+01 0.  1.
         -5    1    3    3    0  503 -0.18537971242E+02  0.36690818793E+02 -0.10914898161E+03  0.11672815748E+03  0.47000000000E+01 0.  1.
<mgrwt>
<rscale>  0 0.12024831E+03</rscale>
<asrwt>0</asrwt>
<pdfrwt beam="1">  1        3 0.55987645E-02 0.12915604E+03</pdfrwt>
<pdfrwt beam="2">  1       -3 0.55196431E-01 0.12915604E+03</pdfrwt>
<totfact> 0.14186171E+03</totfact>
</mgrwt>
</event>
<event>
 8    1  0.3217375E-004  0.1407964E+03  0.7546771E-02  0.1222256E+00
         -2   -1    0    0    0  501 -0.00000000000E+00  0.00000000000E+00  0.67057637155E+02  0.67057637155E+02  0.00000000000E+00 0.  1.
          2   -1    0    0  501    0  0.00000000000E+00 -0.00000000000E+00 -0.24330204458E+03  0.24330204458E+03  0.00000000000E+00 0. -1.
         25    2    1    2    0    0 -0.39976813353E+02 -0.51023159395E+02 -0.86473241432E+02  0.16523087781E+03  0.12498845186E+03 0.  0.
         23    2    1    2    0    0  0.39976813353E+02  0.51023159395E+02 -0.89771165988E+02  0.14512880392E+03  0.93818969741E+02 0.  0.
          5    1    3    3  502    0 -0.60555052579E+02 -0.74966913351E+02 -0.31199108093E+02  0.10140230193E+03  0.47000000000E+01 0. -1.
         -5    1    4    4    0  503  0.12661053535E+02  0.52836267944E+02 -0.36701946374E+01  0.54658337109E+02  0.47000000000E+01 0.  1.
          5    1    4    4  503    0  0.27315759818E+02 -0.18131085492E+01 -0.86100971351E+02  0.90470466809E+02  0.47000000000E+01 0. -1.
         -5    1    3    3    0  502  0.20578239226E+02  0.23943753956E+02 -0.55274133339E+02  0.63828575885E+02  0.47000000000E+01 0. -1.
<mgrwt>
<rscale>  0 0.13356762E+03</rscale>
<asrwt>0</asrwt>
<pdfrwt beam="1">  1        2 0.37431084E-01 0.14079638E+03</pdfrwt>
<pdfrwt beam="2">  1       -2 0.10316560E-01 0.14079638E+03</pdfrwt>
<totfact> 0.82433131E+03</totfact>
</mgrwt>
</event>
<event>
 8    1  0.3217375E-004  0.1260810E+03  0.7546771E-02  0.1250951E+00
         -2   -1    0    0    0  501 -0.00000000000E+00  0.00000000000E+00  0.10727080279E+02  0.10727080279E+02  0.00000000000E+00 0. -1.
          2   -1    0    0  501    0  0.00000000000E+00 -0.00000000000E+00 -0.12395854007E+04  0.12395854007E+04  0.00000000000E+00 0.  1.
         25    2    1    2    0    0  0.16421281577E+02  0.14789489729E+01 -0.48094044726E+03  0.49719224217E+03  0.12499826433E+03 0.  0.
         23    2    1    2    0    0 -0.16421281577E+02 -0.14789489729E+01 -0.74791787320E+03  0.75312023885E+03  0.86816492278E+02 0.  0.
          5    1    3    3  502    0  0.10136498930E+02 -0.56959732400E+02 -0.14625212176E+03  0.15734971511E+03  0.47000000000E+01 0. -1.
         -5    1    4    4    0  503 -0.47920126077E+02 -0.18815195116E+02 -0.47474658053E+03  0.47755288270E+03  0.47000000000E+01 0.  1.
          5    1    4    4  503    0  0.31498844499E+02  0.17336246143E+02 -0.27317129267E+03  0.27556735615E+03  0.47000000000E+01 0. -1.
         -5    1    3    3    0  502  0.62847826475E+01  0.58438681373E+02 -0.33468832550E+03  0.33984252706E+03  0.47000000000E+01 0. -1.
<mgrwt>
<rscale>  0 0.11536159E+03</rscale>
<asrwt>0</asrwt>
<pdfrwt beam="1">  1        2 0.19070544E+00 0.12608097E+03</pdfrwt>
<pdfrwt beam="2">  1       -2 0.16503201E-02 0.12608097E+03</pdfrwt>
<totfact> 0.18593703E+04</totfact>
</mgrwt>
</event>
<event>
 8    1  0.3217375E-004  0.1297881E+03  0.7546771E-02  0.1241561E+00
         -1   -1    0    0    0  501 -0.00000000000E+00  0.00000000000E+00  0.99242997748E+02  0.99242997748E+02  0.00000000000E+00 0.  1.
          1   -1    0    0  501    0  0.00000000000E+00 -0.00000000000E+00 -0.16442268902E+03  0.16442268902E+03  0.00000000000E+00 0. -1.
         25    2    1    2    0    0 -0.11582327696E+02 -0.32914099564E+02  0.23168846245E+02  0.13183986339E+03  0.12500986312E+03 0.  0.
         23    2    1    2    0    0  0.11582327696E+02  0.32914099564E+02 -0.88348537515E+02  0.13182582338E+03  0.91406210745E+02 0.  0.
          5    1    3    3  502    0 -0.62842793883E+02  0.57135561646E+01  0.23450050042E+02  0.67482266664E+02  0.47000000000E+01 0.  1.
         -5    1    4    4    0  503  0.40988844088E+02 -0.10716423543E+02 -0.25286341711E+02  0.49562245211E+02  0.47000000000E+01 0.  1.
          5    1    4    4  503    0 -0.29406516392E+02  0.43630523107E+02 -0.63062195803E+02  0.82263578165E+02  0.47000000000E+01 0. -1.
         -5    1    3    3    0  502  0.51260466188E+02 -0.38627655729E+02 -0.28120379746E+00  0.64357596727E+02  0.47000000000E+01 0.  1.
<mgrwt>
<rscale>  0 0.12093579E+03</rscale>
<asrwt>0</asrwt>
<pdfrwt beam="1">  1        1 0.25295798E-01 0.12978811E+03</pdfrwt>
<pdfrwt beam="2">  1       -1 0.15268154E-01 0.12978811E+03</pdfrwt>
<totfact> 0.55954273E+03</totfact>
</mgrwt>
</event>
<event>
 8    1  0.3217375E-004  0.1626689E+03  0.7546771E-02  0.1192947E+00
         -2   -1    0    0    0  501 -0.00000000000E+00  0.00000000000E+00  0.16136029403E+02  0.16136029403E+02  0.00000000000E+00 0.  1.
          2   -1    0    0  501    0  0.00000000000E+00 -0.00000000000E+00 -0.14064974874E+04  0.14064974874E+04  0.00000000000E+00 0. -1.
         25    2    1    2    0    0  0.60113715975E+02  0.84988598160E+02 -0.74693194462E+03  0.76444000095E+03  0.12499785795E+03 0.  0.
         23    2    1    2    0    0 -0.60113715975E+02 -0.84988598160E+02 -0.64342951335E+03  0.65819351583E+03  0.91544770258E+02 0.  0.
          5    1    4    4  502    0 -0.68092478695E+02 -0.30328773888E+02 -0.47600475242E+03  0.48182884358E+03  0.47000000000E+01 0. -1.
         -5    1    3    3    0  503  0.91200169382E+02  0.51075718110E+02 -0.36446003217E+03  0.37918254829E+03  0.47000000000E+01 0. -1.
          5    1    3    3  503    0 -0.31086453407E+02  0.33912880050E+02 -0.38247191244E+03  0.38525745265E+03  0.47000000000E+01 0. -1.
         -5    1    4    4    0  502  0.79787627200E+01 -0.54659824272E+02 -0.16742476093E+03  0.17636467225E+03  0.47000000000E+01 0.  1.
<mgrwt>
<rscale>  0 0.15629304E+03</rscale>
<asrwt>0</asrwt>
<pdfrwt beam="1">  1        2 0.21638421E+00 0.16266894E+03</pdfrwt>
<pdfrwt beam="2">  1       -2 0.24824663E-02 0.16266894E+03</pdfrwt>
<totfact> 0.84600056E+03</totfact>
</mgrwt>
</event>
<event>
 8    1  0.3217375E-004  0.1637855E+03  0.7546771E-02  0.1191500E+00
         -4   -1    0    0    0  501 -0.00000000000E+00  0.00000000000E+00  0.17728906538E+03  0.17728906538E+03  0.00000000000E+00 0. -1.
          4   -1    0    0  501    0  0.00000000000E+00 -0.00000000000E+00 -0.14723865175E+03  0.14723865175E+03  0.00000000000E+00 0.  1.
         25    2    1    2    0    0  0.93964561862E+02  0.48693502504E+02  0.70933791194E+02  0.17848610129E+03  0.12500115819E+03 0.  0.
         23    2    1    2    0    0 -0.93964561862E+02 -0.48693502504E+02 -0.40883377563E+02  0.14604161584E+03  0.91958180295E+02 0.  0.
          5    1    4    4  502    0 -0.87521263140E+02 -0.70521639366E+02 -0.18939875323E+02  0.11407927944E+03  0.47000000000E+01 0. -1.
         -5    1    4    4    0  502 -0.64432987214E+01  0.21828136862E+02 -0.21943502240E+02  0.31962336395E+02  0.47000000000E+01 0.  1.
          5    1    3    3  503    0  0.12192105746E+03  0.21383585591E+02  0.47441509790E+02  0.13264534984E+03  0.47000000000E+01 0. -1.
         -5    1    3    3    0  503 -0.27956495596E+02  0.27309916913E+02  0.23492281404E+02  0.45840751449E+02  0.47000000000E+01 0. -1.
<mgrwt>
<rscale>  0 0.15754165E+03</rscale>
<asrwt>0</asrwt>
<pdfrwt beam="1">  1        4 0.22652100E-01 0.16378549E+03</pdfrwt>
<pdfrwt beam="2">  1       -4 0.27275241E-01 0.16378549E+03</pdfrwt>
<totfact> 0.39360759E+02</totfact>
</mgrwt>
</event>
<event>
 8    1  0.3217375E-004  0.1282439E+03  0.7546771E-02  0.1245860E+00
          2   -1    0    0  501    0  0.00000000000E+00  0.00000000000E+00  0.15829227017E+03  0.15829227017E+03  0.00000000000E+00 0. -1.
         -2   -1    0    0    0  501 -0.00000000000E+00 -0.00000000000E+00 -0.77721668317E+02  0.77721668317E+02  0.00000000000E+00 0.  1.
         25    2    1    2    0    0  0.33083459244E+01  0.28477906907E+02  0.55255978916E+02  0.13964137011E+03  0.12499821081E+03 0.  0.
         23    2    1    2    0    0 -0.33083459244E+01 -0.28477906907E+02  0.25314622940E+02  0.96372568382E+02  0.88458495734E+02 0.  0.
          5    1    3    3  502    0  0.15974734588E+02 -0.41107570710E+02  0.52467155896E+02  0.68701651819E+02  0.47000000000E+01 0.  1.
         -5    1    4    4    0  503  0.15519562610E+02 -0.19391207533E+02 -0.28710873235E+02  0.38252842968E+02  0.47000000000E+01 0.  1.
          5    1    4    4  503    0 -0.18827908535E+02 -0.90866993743E+01  0.54025496175E+02  0.58119725414E+02  0.47000000000E+01 0. -1.
         -5    1    3    3    0  502 -0.12666388664E+02  0.69585477617E+02  0.27888230192E+01  0.70939718288E+02  0.47000000000E+01 0.  1.
<mgrwt>
<rscale>  0 0.11834084E+03</rscale>
<asrwt>0</asrwt>
<pdfrwt beam="1">  1        2 0.24352657E-01 0.12824387E+03</pdfrwt>
<pdfrwt beam="2">  1       -2 0.11957180E-01 0.12824387E+03</pdfrwt>
<totfact> 0.10321405E+04</totfact>
</mgrwt>
</event>
<event>
 8    1  0.3217375E-004  0.1314243E+03  0.7546771E-02  0.1238565E+00
         -2   -1    0    0    0  501 -0.00000000000E+00  0.00000000000E+00  0.13166725728E+02  0.13166725728E+02  0.00000000000E+00 0.  1.
          2   -1    0    0  501    0  0.00000000000E+00 -0.00000000000E+00 -0.11018553337E+04  0.11018553337E+04  0.00000000000E+00 0. -1.
         25    2    1    2    0    0  0.16842847908E+02  0.36934120488E+02 -0.76465134706E+03  0.77586341442E+03  0.12499817792E+03 0.  0.
         23    2    1    2    0    0 -0.16842847908E+02 -0.36934120488E+02 -0.32403726092E+03  0.33915864502E+03  0.91545776778E+02 0.  0.
          5    1    3    3  502    0  0.46963799582E+01 -0.46383458245E+02 -0.25114391910E+03  0.25547766886E+03  0.47000000000E+01 0.  1.
         -5    1    4    4    0  503  0.73408715237E+01  0.25460011867E+02 -0.47421646810E+02  0.54525252729E+02  0.47000000000E+01 0.  1.
          5    1    4    4  503    0 -0.24183719431E+02 -0.62394132355E+02 -0.27661561411E+03  0.28463339229E+03  0.47000000000E+01 0. -1.
         -5    1    3    3    0  502  0.12146467949E+02  0.83317578733E+02 -0.51350742796E+03  0.52038574556E+03  0.47000000000E+01 0.  1.
<mgrwt>
<rscale>  0 0.12278944E+03</rscale>
<asrwt>0</asrwt>
<pdfrwt beam="1">  1        2 0.16951627E+00 0.13142433E+03</pdfrwt>
<pdfrwt beam="2">  1       -2 0.20256494E-02 0.13142433E+03</pdfrwt>
<totfact> 0.16543038E+04</totfact>
</mgrwt>
</event>
<event>
 8    1  0.3217375E-004  0.1403061E+03  0.7546771E-02  0.1224130E+00
          2   -1    0    0  501    0  0.00000000000E+00  0.00000000000E+00  0.75331322575E+03  0.75331322575E+03  0.00000000000E+00 0. -1.
         -2   -1    0    0    0  501 -0.00000000000E+00 -0.00000000000E+00 -0.21192469777E+02  0.21192469777E+02  0.00000000000E+00 0.  1.
         25    2    1    2    0    0 -0.43185626627E+02  0.46860669452E+02  0.45155905208E+03  0.47285449593E+03  0.12499950449E+03 0.  0.
         23    2    1    2    0    0  0.43185626627E+02 -0.46860669452E+02  0.28056170390E+03  0.30165119959E+03  0.90651286993E+02 0.  0.
          5    1    4    4  502    0  0.55480751119E+02 -0.11539545741E+02  0.83538757898E+02  0.10105488079E+03  0.47000000000E+01 0. -1.
         -5    1    4    4    0  502 -0.12295124492E+02 -0.35321123711E+02  0.19702294600E+03  0.20059631880E+03  0.47000000000E+01 0.  1.
          5    1    3    3  503    0 -0.35970112974E+02  0.74084793791E+02  0.42788320108E+03  0.43576201012E+03  0.47000000000E+01 0.  1.
         -5    1    3    3    0  503 -0.72155136535E+01 -0.27224124339E+02  0.23675850996E+02  0.37092485812E+02  0.47000000000E+01 0.  1.
<mgrwt>
<rscale>  0 0.13226681E+03</rscale>
<asrwt>0</asrwt>
<pdfrwt beam="1">  1        2 0.11589432E+00 0.14030608E+03</pdfrwt>
<pdfrwt beam="2">  1       -2 0.32603805E-02 0.14030608E+03</pdfrwt>
<totfact> 0.13686341E+04</totfact>
</mgrwt>
</event>
<event>
 8    1  0.3217375E-004  0.1344203E+03  0.7546771E-02  0.1234381E+00
          3   -1    0    0  501    0  0.00000000000E+00  0.00000000000E+00  0.83794299106E+03  0.83794299106E+03  0.00000000000E+00 0. -1.
         -3   -1    0    0    0  501 -0.00000000000E+00 -0.00000000000E+00 -0.16669001351E+02  0.16669001351E+02  0.00000000000E+00 0.  1.
         25    2    1    2    0    0  0.47650897842E+02  0.13201857086E+02  0.46503940052E+03  0.48407691583E+03  0.12499567713E+03 0.  0.
         23    2    1    2    0    0 -0.47650897842E+02 -0.13201857086E+02  0.35623458918E+03  0.37053507658E+03  0.89153033327E+02 0.  0.
          5    1    4    4  502    0  0.12760257847E+02 -0.25179830904E+02  0.20781520249E+03  0.20977630097E+03  0.47000000000E+01 0. -1.
         -5    1    4    4    0  502 -0.60411155688E+02  0.11977973818E+02  0.14841938670E+03  0.16075877561E+03  0.47000000000E+01 0.  1.
          5    1    3    3  503    0 -0.45398489824E+01  0.39582410921E+02  0.37151235445E+03  0.37367217851E+03  0.47000000000E+01 0. -1.
         -5    1    3    3    0  503  0.52190746824E+02 -0.26380553835E+02  0.93527046071E+02  0.11040473731E+03  0.47000000000E+01 0. -1.
<mgrwt>
<rscale>  0 0.12544175E+03</rscale>
<asrwt>0</asrwt>
<pdfrwt beam="1">  1        3 0.12891427E+00 0.13442030E+03</pdfrwt>
<pdfrwt beam="2">  1       -3 0.25644624E-02 0.13442030E+03</pdfrwt>
<totfact> 0.75068234E+02</totfact>
</mgrwt>
</event>
<event>
 8    1  0.3217375E-004  0.1858084E+03  0.7546771E-02  0.1167435E+00
         -3   -1    0    0    0  501 -0.00000000000E+00  0.00000000000E+00  0.14130929892E+03  0.14130929892E+03  0.00000000000E+00 0.  1.
          3   -1    0    0  501    0  0.00000000000E+00 -0.00000000000E+00 -0.24762167620E+03  0.24762167620E+03  0.00000000000E+00 0. -1.
         25    2    1    2    0    0  0.30994052258E+02  0.13394209744E+03 -0.12334530855E+03  0.22302200471E+03  0.12499453068E+03 0.  0.
         23    2    1    2    0    0 -0.30994052258E+02 -0.13394209744E+03  0.17032931276E+02  0.16590897041E+03  0.91293751004E+02 0.  0.
          5    1    4    4  502    0 -0.52423722068E+02 -0.40993704831E+02 -0.79671594483E+01  0.67188511674E+02  0.47000000000E+01 0. -1.
         -5    1    3    3    0  503  0.71874000399E+01  0.10001042004E+03 -0.83862780476E+01  0.10072816138E+03  0.47000000000E+01 0. -1.
          5    1    3    3  503    0  0.23806652218E+02  0.33931677401E+02 -0.11495903051E+03  0.12229384333E+03  0.47000000000E+01 0. -1.
         -5    1    4    4    0  502  0.21429669810E+02 -0.92948392610E+02  0.25000090725E+02  0.98720458737E+02  0.47000000000E+01 0.  1.
<mgrwt>
<rscale>  0 0.18038117E+03</rscale>
<asrwt>0</asrwt>
<pdfrwt beam="1">  1        3 0.38095642E-01 0.18580837E+03</pdfrwt>
<pdfrwt beam="2">  1       -3 0.21739892E-01 0.18580837E+03</pdfrwt>
<totfact> 0.31966247E+02</totfact>
</mgrwt>
</event>
<event>
 8    1  0.3217375E-004  0.1459130E+03  0.7546771E-02  0.1215151E+00
         -2   -1    0    0    0  501 -0.00000000000E+00  0.00000000000E+00  0.51862995988E+03  0.51862995988E+03  0.00000000000E+00 0.  1.
          2   -1    0    0  501    0  0.00000000000E+00 -0.00000000000E+00 -0.33914989249E+02  0.33914989249E+02  0.00000000000E+00 0. -1.
         25    2    1    2    0    0  0.74939102592E+02  0.69914659417E+01  0.28131378747E+03  0.31690383474E+03  0.12500337498E+03 0.  0.
         23    2    1    2    0    0 -0.74939102592E+02 -0.69914659417E+01  0.20340118316E+03  0.23564111439E+03  0.92140890961E+02 0.  0.
          5    1    4    4  502    0 -0.25708475468E+02  0.23821325866E+02  0.14958746348E+02  0.38395772804E+02  0.47000000000E+01 0. -1.
         -5    1    3    3    0  503 -0.12404197013E+02 -0.42636894293E+02  0.10125202321E+03  0.11066088316E+03  0.47000000000E+01 0. -1.
          5    1    3    3  503    0  0.87343299605E+02  0.49628360235E+02  0.18006176426E+03  0.20624295158E+03  0.47000000000E+01 0. -1.
         -5    1    4    4    0  502 -0.49230627124E+02 -0.30812791807E+02  0.18844243681E+03  0.19724534159E+03  0.47000000000E+01 0.  1.
<mgrwt>
<rscale>  0 0.13865418E+03</rscale>
<asrwt>0</asrwt>
<pdfrwt beam="1">  1        2 0.52176910E-02 0.14591297E+03</pdfrwt>
<pdfrwt beam="2">  1       -2 0.79789219E-01 0.14591297E+03</pdfrwt>
<totfact> 0.20547457E+03</totfact>
</mgrwt>
</event>
<event>
 8    1  0.3217375E-004  0.1861104E+03  0.7546771E-02  0.1167076E+00
         -2   -1    0    0    0  501 -0.00000000000E+00  0.00000000000E+00  0.10758464381E+03  0.10758464381E+03  0.00000000000E+00 0.  1.
          2   -1    0    0  501    0  0.00000000000E+00 -0.00000000000E+00 -0.36226291062E+03  0.36226291062E+03  0.00000000000E+00 0. -1.
         25    2    1    2    0    0 -0.46032723193E+02 -0.12997080514E+03 -0.26605555579E+02  0.18800252713E+03  0.12500269126E+03 0.  0.
         23    2    1    2    0    0  0.46032723193E+02  0.12997080514E+03 -0.22807271123E+03  0.28184502730E+03  0.91695343464E+02 0.  0.
          5    1    3    3  502    0 -0.54390536280E+01 -0.14277192594E+03 -0.25197045895E+02  0.14515642343E+03  0.47000000000E+01 0.  1.
         -5    1    3    3    0  502 -0.40593669565E+02  0.12801120796E+02 -0.14085096848E+01  0.42846103696E+02  0.47000000000E+01 0.  1.
          5    1    4    4  503    0  0.30779962519E+01  0.82651283896E+02 -0.19008034604E+03  0.20734834637E+03  0.47000000000E+01 0. -1.
         -5    1    4    4    0  503  0.42954726941E+02  0.47319521249E+02 -0.37992365192E+02  0.74496680938E+02  0.47000000000E+01 0.  1.
<mgrwt>
<rscale>  0 0.18075295E+03</rscale>
<asrwt>0</asrwt>
<pdfrwt beam="1">  1        2 0.55732756E-01 0.18611044E+03</pdfrwt>
<pdfrwt beam="2">  1       -2 0.16551484E-01 0.18611044E+03</pdfrwt>
<totfact> 0.25448198E+03</totfact>
</mgrwt>
</event>
<event>
 8    1  0.3217375E-004  0.1412001E+03  0.7546771E-02  0.1222934E+00
          1   -1    0    0  501    0  0.00000000000E+00  0.00000000000E+00  0.56753310957E+03  0.56753310957E+03  0.00000000000E+00 0. -1.
         -1   -1    0    0    0  501 -0.00000000000E+00 -0.00000000000E+00 -0.60335716722E+02  0.60335716722E+02  0.00000000000E+00 0.  1.
         25    2    1    2    0    0 -0.65422497140E+02  0.56927855829E+01  0.38860836806E+02  0.14645012741E+03  0.12499985697E+03 0.  0.
         23    2    1    2    0    0  0.65422497140E+02 -0.56927855829E+01  0.46833655604E+03  0.48141869888E+03  0.90068434904E+02 0.  0.
          5    1    3    3  502    0 -0.68842266465E+02 -0.39318788069E+02  0.56808586973E+02  0.97644919485E+02  0.47000000000E+01 0.  1.
         -5    1    3    3    0  502  0.34197693254E+01  0.45011573652E+02 -0.17947750167E+02  0.48805207928E+02  0.47000000000E+01 0.  1.
          5    1    4    4  503    0  0.10264932743E+02  0.32821579525E+02  0.26327045280E+03  0.26554857605E+03  0.47000000000E+01 0. -1.
         -5    1    4    4    0  503  0.55157564397E+02 -0.38514365108E+02  0.20506610324E+03  0.21587012282E+03  0.47000000000E+01 0.  1.
<mgrwt>
<rscale>  0 0.13309527E+03</rscale>
<asrwt>0</asrwt>
<pdfrwt beam="1">  1        1 0.87312782E-01 0.14120012E+03</pdfrwt>
<pdfrwt beam="2">  1       -1 0.92824183E-02 0.14120012E+03</pdfrwt>
<totfact> 0.25488837E+03</totfact>
</mgrwt>
</event>
<event>
 8    1  0.3217375E-004  0.1366641E+03  0.7546771E-02  0.1228973E+00
         -1   -1    0    0    0  501 -0.00000000000E+00  0.00000000000E+00  0.71468107390E+02  0.71468107390E+02  0.00000000000E+00 0.  1.
          1   -1    0    0  501    0  0.00000000000E+00 -0.00000000000E+00 -0.36061804290E+03  0.36061804290E+03  0.00000000000E+00 0. -1.
         25    2    1    2    0    0 -0.34398621105E+02 -0.43203581183E+02 -0.15261145892E+02  0.13751354553E+03  0.12500903196E+03 0.  0.
         23    2    1    2    0    0  0.34398621105E+02  0.43203581183E+02 -0.27388878962E+03  0.29457260476E+03  0.93317392985E+02 0.  0.
          5    1    4    4  502    0  0.26092401251E+02 -0.15068391916E+01 -0.22888690801E+03  0.23042220081E+03  0.47000000000E+01 0. -1.
         -5    1    4    4    0  502  0.83062198535E+01  0.44710420375E+02 -0.45001881610E+02  0.64150403949E+02  0.47000000000E+01 0.  1.
          5    1    3    3  503    0  0.28219855334E+02 -0.37536046438E+02 -0.47275841928E+02  0.66801274294E+02  0.47000000000E+01 0. -1.
         -5    1    3    3    0  503 -0.62618476439E+02 -0.56675347452E+01  0.32014696037E+02  0.70712271240E+02  0.47000000000E+01 0. -1.
<mgrwt>
<rscale>  0 0.12898294E+03</rscale>
<asrwt>0</asrwt>
<pdfrwt beam="1">  1        1 0.55479700E-01 0.13666409E+03</pdfrwt>
<pdfrwt beam="2">  1       -1 0.10995093E-01 0.13666409E+03</pdfrwt>
<totfact> 0.35230146E+03</totfact>
</mgrwt>
</event>
<event>
 8    1  0.3217375E-004  0.1373593E+03  0.7546771E-02  0.1228756E+00
          2   -1    0    0  501    0  0.00000000000E+00  0.00000000000E+00  0.91240259788E+03  0.91240259788E+03  0.00000000000E+00 0. -1.
         -2   -1    0    0    0  501 -0.00000000000E+00 -0.00000000000E+00 -0.17000251490E+02  0.17000251490E+02  0.00000000000E+00 0.  1.
         25    2    1    2    0    0  0.35510696353E+02  0.44508944194E+02  0.41397949807E+03  0.43617268357E+03  0.12500211756E+03 0.  0.
         23    2    1    2    0    0 -0.35510696353E+02 -0.44508944194E+02  0.48142284831E+03  0.49323016580E+03  0.90917445577E+02 0.  0.
          5    1    3    3  502    0  0.77253908472E+02  0.33181877734E+02  0.34068285921E+03  0.35093603968E+03  0.47000000000E+01 0.  1.
         -5    1    4    4    0  503 -0.66907066850E+01 -0.66318534020E+02  0.24226872945E+03  0.25131482403E+03  0.47000000000E+01 0.  1.
          5    1    4    4  503    0 -0.28819989668E+02  0.21809589826E+02  0.23915411887E+03  0.24191534177E+03  0.47000000000E+01 0. -1.
         -5    1    3    3    0  502 -0.41743212119E+02  0.11327066460E+02  0.73296638863E+02  0.85236643887E+02  0.47000000000E+01 0.  1.
<mgrwt>
<rscale>  0 0.12912751E+03</rscale>
<asrwt>0</asrwt>
<pdfrwt beam="1">  1        2 0.14036959E+00 0.13735933E+03</pdfrwt>
<pdfrwt beam="2">  1       -2 0.26154240E-02 0.13735933E+03</pdfrwt>
<totfact> 0.14829739E+04</totfact>
</mgrwt>
</event>
<event>
 8    1  0.3217375E-004  0.1792412E+03  0.7546771E-02  0.1174195E+00
          1   -1    0    0  501    0  0.00000000000E+00  0.00000000000E+00  0.69960507346E+03  0.69960507346E+03  0.00000000000E+00 0. -1.
         -1   -1    0    0    0  501 -0.00000000000E+00 -0.00000000000E+00 -0.70115974284E+02  0.70115974284E+02  0.00000000000E+00 0.  1.
         25    2    1    2    0    0  0.80869728929E+02 -0.99812486143E+02  0.76772573187E+02  0.19499081836E+03  0.12499978321E+03 0.  0.
         23    2    1    2    0    0 -0.80869728929E+02  0.99812486143E+02  0.55271652599E+03  0.57473022939E+03  0.91196672224E+02 0.  0.
          5    1    3    3  502    0 -0.22564919686E+02 -0.62148860404E+02  0.45706672940E+02  0.80516125100E+02  0.47000000000E+01 0. -1.
         -5    1    3    3    0  502  0.10343464861E+03 -0.37663625739E+02  0.31065900248E+02  0.11447469326E+03  0.47000000000E+01 0. -1.
          5    1    4    4  503    0 -0.31385857147E+02  0.72394049083E+02  0.45421674221E+03  0.46104328352E+03  0.47000000000E+01 0. -1.
         -5    1    4    4    0  503 -0.49483871782E+02  0.27418437060E+02  0.98499783780E+02  0.11368694587E+03  0.47000000000E+01 0.  1.
<mgrwt>
<rscale>  0 0.17355093E+03</rscale>
<asrwt>0</asrwt>
<pdfrwt beam="1">  1        1 0.10763154E+00 0.17924115E+03</pdfrwt>
<pdfrwt beam="2">  1       -1 0.10787073E-01 0.17924115E+03</pdfrwt>
<totfact> 0.15216357E+03</totfact>
</mgrwt>
</event>
<event>
 8    1  0.3217375E-004  0.1388640E+03  0.7546771E-02  0.1226105E+00
          3   -1    0    0  501    0  0.00000000000E+00  0.00000000000E+00  0.34421862057E+03  0.34421862057E+03  0.00000000000E+00 0. -1.
         -3   -1    0    0    0  501 -0.00000000000E+00 -0.00000000000E+00 -0.45289024860E+02  0.45289024860E+02  0.00000000000E+00 0.  1.
         25    2    1    2    0    0 -0.10383856109E+02  0.59541701884E+02  0.18543873209E+03  0.23166945547E+03  0.12502069632E+03 0.  0.
         23    2    1    2    0    0  0.10383856109E+02 -0.59541701884E+02  0.11349086362E+03  0.15783818996E+03  0.91540588552E+02 0.  0.
          5    1    4    4  502    0 -0.25133535505E+01 -0.81353694627E+02  0.99079948621E+02  0.12831082103E+03  0.47000000000E+01 0. -1.
         -5    1    4    4    0  502  0.12897209660E+02  0.21811992743E+02  0.14410915004E+02  0.29527368926E+02  0.47000000000E+01 0.  1.
          5    1    3    3  503    0  0.55958960112E+02  0.31821775477E+02  0.66986361242E+02  0.93023078877E+02  0.47000000000E+01 0. -1.
         -5    1    3    3    0  503 -0.66342816221E+02  0.27719926408E+02  0.11845237085E+03  0.13864637660E+03  0.47000000000E+01 0. -1.
<mgrwt>
<rscale>  0 0.13091450E+03</rscale>
<asrwt>0</asrwt>
<pdfrwt beam="1">  1        3 0.52956709E-01 0.13886401E+03</pdfrwt>
<pdfrwt beam="2">  1       -3 0.69675425E-02 0.13886401E+03</pdfrwt>
<totfact> 0.11004151E+03</totfact>
</mgrwt>
</event>
<event>
 8    1  0.3217375E-004  0.1490125E+03  0.7546771E-02  0.1210703E+00
          2   -1    0    0  501    0  0.00000000000E+00  0.00000000000E+00  0.26075914732E+03  0.26075914732E+03  0.00000000000E+00 0. -1.
         -2   -1    0    0    0  501 -0.00000000000E+00 -0.00000000000E+00 -0.76168752695E+02  0.76168752695E+02  0.00000000000E+00 0.  1.
         25    2    1    2    0    0 -0.50119152484E+02 -0.63773248136E+02  0.14502440950E+03  0.20793460373E+03  0.12500305378E+03 0.  0.
         23    2    1    2    0    0  0.50119152484E+02  0.63773248136E+02  0.39565985132E+02  0.12899329629E+03  0.92167492560E+02 0.  0.
          5    1    4    4  502    0 -0.19792375288E+02  0.20986650642E+02  0.36601955401E+02  0.46839841630E+02  0.47000000000E+01 0. -1.
         -5    1    4    4    0  502  0.69911527772E+02  0.42786597493E+02  0.29640297307E+01  0.82153454660E+02  0.47000000000E+01 0.  1.
          5    1    3    3  503    0 -0.25526568047E+02 -0.54940055525E+02  0.26776579077E+00  0.60763287237E+02  0.47000000000E+01 0. -1.
         -5    1    3    3    0  503 -0.24592584437E+02 -0.88331926105E+01  0.14475664371E+03  0.14717131649E+03  0.47000000000E+01 0. -1.
<mgrwt>
<rscale>  0 0.14196943E+03</rscale>
<asrwt>0</asrwt>
<pdfrwt beam="1">  1        2 0.40116791E-01 0.14901248E+03</pdfrwt>
<pdfrwt beam="2">  1       -2 0.11718270E-01 0.14901248E+03</pdfrwt>
<totfact> 0.62781636E+03</totfact>
</mgrwt>
</event>
<event>
 8    1  0.3217375E-004  0.1279039E+03  0.7546771E-02  0.1245452E+00
          2   -1    0    0  501    0  0.00000000000E+00  0.00000000000E+00  0.28308970322E+03  0.28308970322E+03  0.00000000000E+00 0. -1.
         -2   -1    0    0    0  501 -0.00000000000E+00 -0.00000000000E+00 -0.43884187539E+02  0.43884187539E+02  0.00000000000E+00 0.  1.
         25    2    1    2    0    0 -0.13562442396E+02 -0.23466071130E+02  0.14843076095E+03  0.19593644707E+03  0.12499921663E+03 0.  0.
         23    2    1    2    0    0  0.13562442396E+02  0.23466071130E+02  0.90774754732E+02  0.13103744369E+03  0.90532641701E+02 0.  0.
          5    1    3    3  502    0  0.20268922623E+02 -0.57794914307E+02  0.30774696227E+02  0.68704099382E+02  0.47000000000E+01 0.  1.
         -5    1    4    4    0  503 -0.18367836769E+02  0.46884703975E+02  0.31442787469E+02  0.59550749602E+02  0.47000000000E+01 0.  1.
          5    1    4    4  503    0  0.31930279165E+02 -0.23418632845E+02  0.59331967263E+02  0.71486694085E+02  0.47000000000E+01 0. -1.
         -5    1    3    3    0  502 -0.33831365019E+02  0.34328843177E+02  0.11765606472E+03  0.12723234769E+03  0.47000000000E+01 0.  1.
<mgrwt>
<rscale>  0 0.11858337E+03</rscale>
<asrwt>0</asrwt>
<pdfrwt beam="1">  1        2 0.43552261E-01 0.12790387E+03</pdfrwt>
<pdfrwt beam="2">  1       -2 0.67514137E-02 0.12790387E+03</pdfrwt>
<totfact> 0.13436886E+04</totfact>
</mgrwt>
</event>
<event>
 8    1  0.3217375E-004  0.2016773E+03  0.7546771E-02  0.1152794E+00
          2   -1    0    0  501    0  0.00000000000E+00  0.00000000000E+00  0.68582398521E+03  0.68582398521E+03  0.00000000000E+00 0.  1.
         -2   -1    0    0    0  501 -0.00000000000E+00 -0.00000000000E+00 -0.53818110991E+02  0.53818110991E+02  0.00000000000E+00 0. -1.
         25    2    1    2    0    0 -0.14368347757E+03 -0.66363554986E+02  0.30464265891E+03  0.36535034455E+03  0.12499864589E+03 0.  0.
         23    2    1    2    0    0  0.14368347757E+03  0.66363554986E+02  0.32736321530E+03  0.37429175165E+03  0.88761351191E+02 0.  0.
          5    1    3    3  502    0 -0.41551594769E+02 -0.59097272072E+02  0.42657529567E+02  0.84028432230E+02  0.47000000000E+01 0. -1.
         -5    1    3    3    0  502 -0.10213188280E+03 -0.72662829142E+01  0.26198512935E+03  0.28132191232E+03  0.47000000000E+01 0. -1.
          5    1    4    4  503    0  0.11501590207E+02  0.39734701583E+02  0.44727442133E+02  0.61104559298E+02  0.47000000000E+01 0. -1.
         -5    1    4    4    0  503  0.13218188736E+03  0.26628853403E+02  0.28263577317E+03  0.31318719235E+03  0.47000000000E+01 0.  1.
<mgrwt>
<rscale>  0 0.19642095E+03</rscale>
<asrwt>0</asrwt>
<pdfrwt beam="1">  1        2 0.10551138E+00 0.20167728E+03</pdfrwt>
<pdfrwt beam="2">  1       -2 0.82797099E-02 0.20167728E+03</pdfrwt>
<totfact> 0.38053889E+03</totfact>
</mgrwt>
</event>
<event>
 8    1  0.3217375E-004  0.1613124E+03  0.7546771E-02  0.1194718E+00
          2   -1    0    0  501    0  0.00000000000E+00  0.00000000000E+00  0.14062169466E+03  0.14062169466E+03  0.00000000000E+00 0. -1.
         -2   -1    0    0    0  501 -0.00000000000E+00 -0.00000000000E+00 -0.16827257212E+03  0.16827257212E+03  0.00000000000E+00 0.  1.
         25    2    1    2    0    0  0.31999298109E+02 -0.96816039980E+02  0.23281850865E+02  0.16298385729E+03  0.12499756989E+03 0.  0.
         23    2    1    2    0    0 -0.31999298109E+02  0.96816039980E+02 -0.50932728323E+02  0.14591040950E+03  0.91095576777E+02 0.  0.
          5    1    4    4  502    0 -0.14325880581E+02  0.48248849794E+02  0.23036952749E+02  0.55551539608E+02  0.47000000000E+01 0. -1.
         -5    1    3    3    0  503  0.32997166204E+02 -0.33641339668E+02  0.69824374848E+02  0.84368750347E+02  0.47000000000E+01 0.  1.
          5    1    3    3  503    0 -0.99786809479E+00 -0.63174700312E+02 -0.46542523983E+02  0.78615106939E+02  0.47000000000E+01 0.  1.
         -5    1    4    4    0  502 -0.17673417528E+02  0.48567190186E+02 -0.73969681072E+02  0.90358869889E+02  0.47000000000E+01 0.  1.
<mgrwt>
<rscale>  0 0.15478133E+03</rscale>
<asrwt>0</asrwt>
<pdfrwt beam="1">  1        2 0.21634107E-01 0.16131241E+03</pdfrwt>
<pdfrwt beam="2">  1       -2 0.25888088E-01 0.16131241E+03</pdfrwt>
<totfact> 0.32901860E+03</totfact>
</mgrwt>
</event>
<event>
 8    1  0.3217375E-004  0.1296601E+03  0.7546771E-02  0.1240900E+00
          3   -1    0    0  501    0  0.00000000000E+00  0.00000000000E+00  0.22992214716E+03  0.22992214716E+03  0.00000000000E+00 0. -1.
         -3   -1    0    0    0  501 -0.00000000000E+00 -0.00000000000E+00 -0.72057146989E+02  0.72057146989E+02  0.00000000000E+00 0.  1.
         25    2    1    2    0    0 -0.57411889170E+01 -0.33950026641E+02  0.15554508226E+03  0.20249940661E+03  0.12500468592E+03 0.  0.
         23    2    1    2    0    0  0.57411889170E+01  0.33950026641E+02  0.23199179052E+01  0.99479887536E+02  0.93302199578E+02 0.  0.
          5    1    3    3  502    0  0.52673196295E+02 -0.25291633321E+02  0.35230423023E+02  0.68391556718E+02  0.47000000000E+01 0.  1.
         -5    1    3    3    0  502 -0.58414385212E+02 -0.86583933194E+01  0.12031465924E+03  0.13410784989E+03  0.47000000000E+01 0.  1.
          5    1    4    4  503    0 -0.25602390488E+02 -0.18496027125E+02  0.17410411892E+02  0.36370288153E+02  0.47000000000E+01 0. -1.
         -5    1    4    4    0  503  0.31343579405E+02  0.52446053766E+02 -0.15090493986E+02  0.63109599383E+02  0.47000000000E+01 0.  1.
<mgrwt>
<rscale>  0 0.12134140E+03</rscale>
<asrwt>0</asrwt>
<pdfrwt beam="1">  1        3 0.35372638E-01 0.12966008E+03</pdfrwt>
<pdfrwt beam="2">  1       -3 0.11085715E-01 0.12966008E+03</pdfrwt>
<totfact> 0.11175264E+03</totfact>
</mgrwt>
</event>
<event>
 8    1  0.3217375E-004  0.1726629E+03  0.7546771E-02  0.1181388E+00
          2   -1    0    0  501    0  0.00000000000E+00  0.00000000000E+00  0.19565319768E+02  0.19565319768E+02  0.00000000000E+00 0.  1.
         -2   -1    0    0    0  501 -0.00000000000E+00 -0.00000000000E+00 -0.14017685089E+04  0.14017685089E+04  0.00000000000E+00 0. -1.
         25    2    1    2    0    0  0.10665088275E+03  0.53058974966E+02 -0.57589742293E+03  0.60122402148E+03  0.12499126629E+03 0.  0.
         23    2    1    2    0    0 -0.10665088275E+03 -0.53058974966E+02 -0.80630576617E+03  0.82010980715E+03  0.90892472858E+02 0.  0.
          5    1    4    4  502    0 -0.53717460177E+02  0.13291795156E+02 -0.46814821490E+03  0.47143088407E+03  0.47000000000E+01 0. -1.
         -5    1    4    4    0  502 -0.52933422573E+02 -0.66350770121E+02 -0.33815755127E+03  0.34867892308E+03  0.47000000000E+01 0.  1.
          5    1    3    3  503    0  0.10775166314E+03  0.29852156872E+01 -0.48948153880E+03  0.50123208122E+03  0.47000000000E+01 0. -1.
         -5    1    3    3    0  503 -0.11007803929E+01  0.50073759279E+02 -0.86415884129E+02  0.99991940253E+02  0.47000000000E+01 0. -1.
<mgrwt>
<rscale>  0 0.16664950E+03</rscale>
<asrwt>0</asrwt>
<pdfrwt beam="1">  1        2 0.30100482E-02 0.17266292E+03</pdfrwt>
<pdfrwt beam="2">  1       -2 0.21565676E+00 0.17266292E+03</pdfrwt>
<totfact> 0.35595964E+02</totfact>
</mgrwt>
</event>
<event>
 8    1  0.3217375E-004  0.1259998E+03  0.7546771E-02  0.1249089E+00
          1   -1    0    0  501    0  0.00000000000E+00  0.00000000000E+00  0.70990329975E+02  0.70990329975E+02  0.00000000000E+00 0. -1.
         -1   -1    0    0    0  501 -0.00000000000E+00 -0.00000000000E+00 -0.17799242664E+03  0.17799242664E+03  0.00000000000E+00 0.  1.
         25    2    1    2    0    0  0.15635078442E+02 -0.26134986522E+01 -0.31066969839E+02  0.12977332365E+03  0.12499869144E+03 0.  0.
         23    2    1    2    0    0 -0.15635078442E+02  0.26134986522E+01 -0.75935126823E+02  0.11920943296E+03  0.90517729584E+02 0.  0.
          5    1    3    3  502    0 -0.26811120748E+02  0.36690601126E+02  0.22381196809E+02  0.50872825530E+02  0.47000000000E+01 0. -1.
         -5    1    4    4    0  503 -0.14739566112E+02 -0.41579681152E+02 -0.22632357827E+02  0.49803998983E+02  0.47000000000E+01 0.  1.
          5    1    4    4  503    0 -0.89551233041E+00  0.44193179804E+02 -0.53302768996E+02  0.69405433982E+02  0.47000000000E+01 0. -1.
         -5    1    3    3    0  502  0.42446199190E+02 -0.39304099779E+02 -0.53448166648E+02  0.78900498117E+02  0.47000000000E+01 0. -1.
<mgrwt>
<rscale>  0 0.11643963E+03</rscale>
<asrwt>0</asrwt>
<pdfrwt beam="1">  1        1 0.10921589E-01 0.12599984E+03</pdfrwt>
<pdfrwt beam="2">  1       -1 0.27383450E-01 0.12599984E+03</pdfrwt>
<totfact> 0.64155687E+03</totfact>
</mgrwt>
</event>
<event>
 8    1  0.3217375E-004  0.1589563E+03  0.7546771E-02  0.1197498E+00
          1   -1    0    0  501    0  0.00000000000E+00  0.00000000000E+00  0.87649951675E+03  0.87649951675E+03  0.00000000000E+00 0. -1.
         -1   -1    0    0    0  501 -0.00000000000E+00 -0.00000000000E+00 -0.35880528101E+02  0.35880528101E+02  0.00000000000E+00 0.  1.
         25    2    1    2    0    0 -0.74181502022E+02  0.64349843110E+02  0.69995695896E+03  0.71777910692E+03  0.12499321733E+03 0.  0.
         23    2    1    2    0    0  0.74181502022E+02 -0.64349843110E+02  0.14066202969E+03  0.19460093794E+03  0.91869042112E+02 0.  0.
          5    1    3    3  502    0 -0.10288020316E+03  0.22433206398E+02  0.52782061565E+03  0.53824183901E+03  0.47000000000E+01 0.  1.
         -5    1    3    3    0  502  0.28698701143E+02  0.41916636711E+02  0.17213634331E+03  0.17953726791E+03  0.47000000000E+01 0.  1.
          5    1    4    4  503    0  0.41649226133E+02 -0.85201275327E+02  0.10783010872E+03  0.14367789566E+03  0.47000000000E+01 0. -1.
         -5    1    4    4    0  503  0.32532275889E+02  0.20851432218E+02  0.32831920975E+02  0.50923042279E+02  0.47000000000E+01 0.  1.
<mgrwt>
<rscale>  0 0.15244713E+03</rscale>
<asrwt>0</asrwt>
<pdfrwt beam="1">  1        1 0.13484606E+00 0.15895629E+03</pdfrwt>
<pdfrwt beam="2">  1       -1 0.55200819E-02 0.15895629E+03</pdfrwt>
<totfact> 0.29825628E+03</totfact>
</mgrwt>
</event>
<event>
 8    1  0.3217375E-004  0.1739893E+03  0.7546771E-02  0.1179595E+00
         -2   -1    0    0    0  501 -0.00000000000E+00  0.00000000000E+00  0.29018906778E+03  0.29018906778E+03  0.00000000000E+00 0. -1.
          2   -1    0    0  501    0  0.00000000000E+00 -0.00000000000E+00 -0.93156771077E+02  0.93156771077E+02  0.00000000000E+00 0.  1.
         25    2    1    2    0    0 -0.11964130052E+03 -0.18267045097E+02  0.12795723182E+03  0.21597529483E+03  0.12499819629E+03 0.  0.
         23    2    1    2    0    0  0.11964130052E+03  0.18267045097E+02  0.69075064890E+02  0.16737054403E+03  0.92702797651E+02 0.  0.
          5    1    3    3  502    0 -0.10597205035E+03 -0.41251787480E+02  0.14468353367E+03  0.18408476401E+03  0.47000000000E+01 0.  1.
         -5    1    3    3    0  502 -0.13669250168E+02  0.22984742383E+02 -0.16726301850E+02  0.31890530823E+02  0.47000000000E+01 0.  1.
          5    1    4    4  503    0  0.75307485260E+02 -0.30468207385E+02  0.59100676396E+02  0.10057091502E+03  0.47000000000E+01 0. -1.
         -5    1    4    4    0  503  0.44333815260E+02  0.48735252482E+02  0.99743884947E+01  0.66799629010E+02  0.47000000000E+01 0.  1.
<mgrwt>
<rscale>  0 0.16833522E+03</rscale>
<asrwt>0</asrwt>
<pdfrwt beam="1">  1        2 0.14331811E-01 0.17398930E+03</pdfrwt>
<pdfrwt beam="2">  1       -2 0.44644471E-01 0.17398930E+03</pdfrwt>
<totfact> 0.19413918E+03</totfact>
</mgrwt>
</event>
<event>
 8    1  0.3217375E-004  0.1268017E+03  0.7546771E-02  0.1241667E+00
          1   -1    0    0  501    0  0.00000000000E+00  0.00000000000E+00  0.69211636971E+03  0.69211636971E+03  0.00000000000E+00 0. -1.
         -1   -1    0    0    0  501 -0.00000000000E+00 -0.00000000000E+00 -0.20882261046E+02  0.20882261046E+02  0.00000000000E+00 0.  1.
         25    2    1    2    0    0 -0.20741269090E+01  0.21146695889E+02  0.46126629347E+03  0.47837773691E+03  0.12500872342E+03 0.  0.
         23    2    1    2    0    0  0.20741269090E+01 -0.21146695889E+02  0.20996781519E+03  0.23462089384E+03  0.10251339260E+03 0.  0.
          5    1    3    3  502    0 -0.62780597434E+02  0.52932129843E+01  0.25629259234E+03  0.26396477873E+03  0.47000000000E+01 0. -1.
         -5    1    4    4    0  503 -0.77098242126E+01 -0.44234439768E+02  0.33245878229E+02  0.56066973079E+02  0.47000000000E+01 0.  1.
          5    1    4    4  503    0  0.97839511217E+01  0.23087743879E+02  0.17672193696E+03  0.17855392076E+03  0.47000000000E+01 0. -1.
         -5    1    3    3    0  502  0.60706470525E+02  0.15853482905E+02  0.20497370113E+03  0.21441295819E+03  0.47000000000E+01 0. -1.
<mgrwt>
<rscale>  0 0.12087109E+03</rscale>
<asrwt>0</asrwt>
<pdfrwt beam="1">  1        1 0.10647942E+00 0.12680168E+03</pdfrwt>
<pdfrwt beam="2">  1       -1 0.32126561E-02 0.12680168E+03</pdfrwt>
<totfact> 0.93250431E+03</totfact>
</mgrwt>
</event>
<event>
 8    1  0.3217375E-004  0.1785135E+03  0.7546771E-02  0.1175304E+00
          3   -1    0    0  501    0  0.00000000000E+00  0.00000000000E+00  0.79437413101E+03  0.79437413101E+03  0.00000000000E+00 0. -1.
         -3   -1    0    0    0  501 -0.00000000000E+00 -0.00000000000E+00 -0.35362949934E+02  0.35362949934E+02  0.00000000000E+00 0.  1.
         25    2    1    2    0    0 -0.70748234000E+02  0.10599907239E+03  0.44022630236E+03  0.47504345089E+03  0.12500386786E+03 0.  0.
         23    2    1    2    0    0  0.70748234000E+02 -0.10599907239E+03  0.31878487871E+03  0.35469363005E+03  0.89121581806E+02 0.  0.
          5    1    3    3  502    0 -0.89432340337E+02  0.83704452194E+02  0.21173239176E+03  0.24465746369E+03  0.47000000000E+01 0.  1.
         -5    1    3    3    0  502  0.18684106337E+02  0.22294620192E+02  0.22849391060E+03  0.23038598721E+03  0.47000000000E+01 0.  1.
          5    1    4    4  503    0  0.79367332505E+02 -0.40770587781E+02  0.19217190796E+03  0.21192816355E+03  0.47000000000E+01 0. -1.
         -5    1    4    4    0  503 -0.86190985046E+01 -0.65228484605E+02  0.12661297075E+03  0.14276546650E+03  0.47000000000E+01 0.  1.
<mgrwt>
<rscale>  0 0.17246218E+03</rscale>
<asrwt>0</asrwt>
<pdfrwt beam="1">  1        3 0.12221139E+00 0.17851354E+03</pdfrwt>
<pdfrwt beam="2">  1       -3 0.54404544E-02 0.17851354E+03</pdfrwt>
<totfact> 0.27279574E+02</totfact>
</mgrwt>
</event>
<event>
 8    1  0.3217375E-004  0.1351270E+03  0.7546771E-02  0.1232191E+00
          3   -1    0    0  501    0  0.00000000000E+00  0.00000000000E+00  0.22782088475E+02  0.22782088475E+02  0.00000000000E+00 0. -1.
         -3   -1    0    0    0  501 -0.00000000000E+00 -0.00000000000E+00 -0.69507642764E+03  0.69507642764E+03  0.00000000000E+00 0.  1.
         25    2    1    2    0    0 -0.44197575498E+02 -0.26153171498E+02 -0.48140769554E+03  0.50001266282E+03  0.12498751776E+03 0.  0.
         23    2    1    2    0    0  0.44197575498E+02  0.26153171498E+02 -0.19088664363E+03  0.21784585330E+03  0.91551575759E+02 0.  0.
          5    1    4    4  502    0  0.66999666744E+01  0.28323015642E+02 -0.72657608963E+01  0.30363860919E+02  0.47000000000E+01 0. -1.
         -5    1    4    4    0  502  0.37497608824E+02 -0.21698441437E+01 -0.18362088273E+03  0.18748199238E+03  0.47000000000E+01 0.  1.
          5    1    3    3  503    0 -0.26370769915E+02  0.48246723443E+02 -0.25755828529E+03  0.26340372843E+03  0.47000000000E+01 0. -1.
         -5    1    3    3    0  503 -0.17826805583E+02 -0.74399894942E+02 -0.22384941025E+03  0.23660893439E+03  0.47000000000E+01 0. -1.
<mgrwt>
<rscale>  0 0.12686002E+03</rscale>
<asrwt>0</asrwt>
<pdfrwt beam="1">  1        3 0.35049371E-02 0.13512695E+03</pdfrwt>
<pdfrwt beam="2">  1       -3 0.10693482E+00 0.13512695E+03</pdfrwt>
<totfact> 0.71662205E+02</totfact>
</mgrwt>
</event>
<event>
 8    1  0.3217375E-004  0.1583394E+03  0.7546771E-02  0.1198625E+00
          1   -1    0    0  501    0  0.00000000000E+00  0.00000000000E+00  0.45695287386E+02  0.45695287386E+02  0.00000000000E+00 0. -1.
         -1   -1    0    0    0  501 -0.00000000000E+00 -0.00000000000E+00 -0.47389271580E+03  0.47389271580E+03  0.00000000000E+00 0.  1.
         25    2    1    2    0    0 -0.81291498511E+02  0.53321307209E+02 -0.19434008479E+03  0.25067792857E+03  0.12497954147E+03 0.  0.
         23    2    1    2    0    0  0.81291498511E+02 -0.53321307209E+02 -0.23385734363E+03  0.26891007462E+03  0.90398570388E+02 0.  0.
          5    1    3    3  502    0 -0.12358456632E+02 -0.33658765034E+02 -0.95018365613E+02  0.10166722047E+03  0.47000000000E+01 0. -1.
         -5    1    4    4    0  503  0.26378883943E+02 -0.66359592045E+02 -0.94936583881E+02  0.11888854416E+03  0.47000000000E+01 0.  1.
          5    1    4    4  503    0  0.54912614567E+02  0.13038284836E+02 -0.13892075975E+03  0.15002153045E+03  0.47000000000E+01 0. -1.
         -5    1    3    3    0  502 -0.68933041879E+02  0.86980072243E+02 -0.99321719174E+02  0.14901070810E+03  0.47000000000E+01 0. -1.
<mgrwt>
<rscale>  0 0.15151401E+03</rscale>
<asrwt>0</asrwt>
<pdfrwt beam="1">  1        1 0.70300444E-02 0.15833937E+03</pdfrwt>
<pdfrwt beam="2">  1       -1 0.72906570E-01 0.15833937E+03</pdfrwt>
<totfact> 0.20055951E+03</totfact>
</mgrwt>
</event>
<event>
 8    1  0.3217375E-004  0.1295905E+03  0.7546771E-02  0.1242807E+00
         -2   -1    0    0    0  501 -0.00000000000E+00  0.00000000000E+00  0.10504970898E+03  0.10504970898E+03  0.00000000000E+00 0.  1.
          2   -1    0    0  501    0  0.00000000000E+00 -0.00000000000E+00 -0.12332645792E+03  0.12332645792E+03  0.00000000000E+00 0. -1.
         25    2    1    2    0    0  0.10340393754E+02 -0.32588860558E+02  0.52228510264E+01  0.12969571334E+03  0.12499896924E+03 0.  0.
         23    2    1    2    0    0 -0.10340393754E+02  0.32588860558E+02 -0.23499599963E+02  0.98680453560E+02  0.89535708747E+02 0.  0.
          5    1    4    4  502    0 -0.49727687805E+01  0.62171022034E+02 -0.42883325962E+01  0.62693254873E+02  0.47000000000E+01 0. -1.
         -5    1    4    4    0  502 -0.53676249732E+01 -0.29582161476E+02 -0.19211267367E+02  0.35987198686E+02  0.47000000000E+01 0.  1.
          5    1    3    3  503    0 -0.23856333655E+02  0.34961465928E+02 -0.23430755527E+02  0.48605751305E+02  0.47000000000E+01 0. -1.
         -5    1    3    3    0  503  0.34196727409E+02 -0.67550326487E+02  0.28653606554E+02  0.81089962033E+02  0.47000000000E+01 0. -1.
<mgrwt>
<rscale>  0 0.12017616E+03</rscale>
<asrwt>0</asrwt>
<pdfrwt beam="1">  1        2 0.18973301E-01 0.12959051E+03</pdfrwt>
<pdfrwt beam="2">  1       -2 0.16161494E-01 0.12959051E+03</pdfrwt>
<totfact> 0.83875703E+03</totfact>
</mgrwt>
</event>
<event>
 8    1  0.3217375E-004  0.3650966E+03  0.7546771E-02  0.1057603E+00
         -1   -1    0    0    0  501 -0.00000000000E+00  0.00000000000E+00  0.81764823933E+02  0.81764823933E+02  0.00000000000E+00 0.  1.
          1   -1    0    0  501    0  0.00000000000E+00 -0.00000000000E+00 -0.18284335612E+04  0.18284335612E+04  0.00000000000E+00 0. -1.
         25    2    1    2    0    0  0.34159094460E+03 -0.31482516658E+02 -0.12330246300E+04  0.12859413858E+04  0.12497994686E+03 0.  0.
         23    2    1    2    0    0 -0.34159094460E+03  0.31482516658E+02 -0.51364410720E+03  0.62425699932E+03  0.90504199068E+02 0.  0.
          5    1    3    3  502    0  0.21129089479E+03 -0.52202046848E+02 -0.57558516286E+03  0.61537733597E+03  0.47000000000E+01 0.  1.
         -5    1    4    4    0  503 -0.14274489168E+03  0.57573371171E+02 -0.21320295958E+03  0.26299883867E+03  0.47000000000E+01 0.  1.
          5    1    4    4  503    0 -0.19884605292E+03 -0.26090854513E+02 -0.30044114762E+03  0.36125816064E+03  0.47000000000E+01 0. -1.
         -5    1    3    3    0  502  0.13030004981E+03  0.20719530190E+02 -0.65743946716E+03  0.67056404981E+03  0.47000000000E+01 0.  1.
<mgrwt>
<rscale>  0 0.36248881E+03</rscale>
<asrwt>0</asrwt>
<pdfrwt beam="1">  1        1 0.28129748E+00 0.36509658E+03</pdfrwt>
<pdfrwt beam="2">  1       -1 0.12579203E-01 0.36509658E+03</pdfrwt>
<totfact> 0.18278995E+02</totfact>
</mgrwt>
</event>
<event>
 8    1  0.3217375E-004  0.1377543E+03  0.7546771E-02  0.1229200E+00
          1   -1    0    0  501    0  0.00000000000E+00  0.00000000000E+00  0.12281696823E+04  0.12281696823E+04  0.00000000000E+00 0. -1.
         -1   -1    0    0    0  501 -0.00000000000E+00 -0.00000000000E+00 -0.31945878119E+02  0.31945878119E+02  0.00000000000E+00 0.  1.
         25    2    1    2    0    0  0.29148072079E+02 -0.50011807916E+02  0.11238783804E+04  0.11322892159E+04  0.12500185388E+03 0.  0.
         23    2    1    2    0    0 -0.29148072079E+02  0.50011807916E+02  0.72345423700E+02  0.12782634444E+03  0.88062040434E+02 0.  0.
          5    1    4    4  502    0 -0.30944289271E+01  0.48462127163E+02  0.85334581537E+02  0.98296663553E+02  0.47000000000E+01 0. -1.
         -5    1    4    4    0  502 -0.26053643152E+02  0.15496807532E+01 -0.12989157837E+02  0.29529680886E+02  0.47000000000E+01 0.  1.
          5    1    3    3  503    0  0.52077384905E+02  0.25699188401E+02  0.50983438146E+03  0.51315269542E+03  0.47000000000E+01 0. -1.
         -5    1    3    3    0  503 -0.22929312826E+02 -0.75710996316E+02  0.61404399898E+03  0.61913652051E+03  0.47000000000E+01 0. -1.
<mgrwt>
<rscale>  0 0.12883155E+03</rscale>
<asrwt>0</asrwt>
<pdfrwt beam="1">  1        1 0.18894915E+00 0.13775433E+03</pdfrwt>
<pdfrwt beam="2">  1       -1 0.49147514E-02 0.13775433E+03</pdfrwt>
<totfact> 0.19681433E+03</totfact>
</mgrwt>
</event>
<event>
 8    1  0.3217375E-004  0.1828518E+03  0.7546771E-02  0.1170474E+00
         -2   -1    0    0    0  501 -0.00000000000E+00  0.00000000000E+00  0.13171934635E+03  0.13171934635E+03  0.00000000000E+00 0.  1.
          2   -1    0    0  501    0  0.00000000000E+00 -0.00000000000E+00 -0.31328902685E+03  0.31328902685E+03  0.00000000000E+00 0. -1.
         25    2    1    2    0    0  0.67772834713E+02 -0.11496675971E+03 -0.21272766949E+03  0.28051351602E+03  0.12499703333E+03 0.  0.
         23    2    1    2    0    0 -0.67772834713E+02  0.11496675971E+03  0.31157988986E+02  0.16449485717E+03  0.90979254755E+02 0.  0.
          5    1    4    4  502    0 -0.86063300052E+02  0.79824438587E+02  0.66330117553E+01  0.11766443582E+03  0.47000000000E+01 0. -1.
         -5    1    4    4    0  502  0.18290465338E+02  0.35142321120E+02  0.24524977230E+02  0.46830421354E+02  0.47000000000E+01 0.  1.
          5    1    3    3  503    0  0.10322029042E+02  0.22357389865E+02 -0.60904068572E+01  0.25798841462E+02  0.47000000000E+01 0. -1.
         -5    1    3    3    0  503  0.57450805671E+02 -0.13732414957E+03 -0.20663726263E+03  0.25471467456E+03  0.47000000000E+01 0. -1.
<mgrwt>
<rscale>  0 0.17726743E+03</rscale>
<asrwt>0</asrwt>
<pdfrwt beam="1">  1        2 0.48198312E-01 0.18285177E+03</pdfrwt>
<pdfrwt beam="2">  1       -2 0.20264515E-01 0.18285177E+03</pdfrwt>
<totfact> 0.21132821E+03</totfact>
</mgrwt>
</event>
<event>
 8    1  0.3217375E-004  0.1488197E+03  0.7546771E-02  0.1209955E+00
          1   -1    0    0  501    0  0.00000000000E+00  0.00000000000E+00  0.80518252941E+03  0.80518252941E+03  0.00000000000E+00 0. -1.
         -1   -1    0    0    0  501 -0.00000000000E+00 -0.00000000000E+00 -0.24199158143E+02  0.24199158143E+02  0.00000000000E+00 0.  1.
         25    2    1    2    0    0 -0.27543474414E+01 -0.80715450091E+02  0.34411232857E+03  0.37491413993E+03  0.12499898933E+03 0.  0.
         23    2    1    2    0    0  0.27543474414E+01  0.80715450091E+02  0.43687104269E+03  0.45446754762E+03  0.95717676436E+02 0.  0.
          5    1    3    3  502    0 -0.33866231456E+02  0.21400254464E+02  0.71240885562E+02  0.81867248029E+02  0.47000000000E+01 0. -1.
         -5    1    4    4    0  503  0.27191450050E+02 -0.11993171820E+01  0.40937528788E+02  0.49384051888E+02  0.47000000000E+01 0.  1.
          5    1    4    4  503    0 -0.24437102609E+02  0.81914767273E+02  0.39593351390E+03  0.40508349573E+03  0.47000000000E+01 0. -1.
         -5    1    3    3    0  502  0.31111884015E+02 -0.10211570455E+03  0.27287144301E+03  0.29304689190E+03  0.47000000000E+01 0. -1.
<mgrwt>
<rscale>  0 0.14253748E+03</rscale>
<asrwt>0</asrwt>
<pdfrwt beam="1">  1        1 0.12387421E+00 0.14881975E+03</pdfrwt>
<pdfrwt beam="2">  1       -1 0.37229480E-02 0.14881975E+03</pdfrwt>
<totfact> 0.60758033E+03</totfact>
</mgrwt>
</event>
<event>
 8    1  0.3217375E-004  0.1506775E+03  0.7546771E-02  0.1208711E+00
          2   -1    0    0  501    0  0.00000000000E+00  0.00000000000E+00  0.12235285381E+04  0.12235285381E+04  0.00000000000E+00 0. -1.
         -2   -1    0    0    0  501 -0.00000000000E+00 -0.00000000000E+00 -0.16724094195E+02  0.16724094195E+02  0.00000000000E+00 0.  1.
         25    2    1    2    0    0 -0.82754605785E+02 -0.15119804554E+02  0.83089166328E+03  0.84444339975E+03  0.12500706379E+03 0.  0.
         23    2    1    2    0    0  0.82754605785E+02  0.15119804554E+02  0.37591278059E+03  0.39580923251E+03  0.90981298427E+02 0.  0.
          5    1    3    3  502    0 -0.84176999141E+02  0.41229695829E+02  0.54231465265E+03  0.55037526060E+03  0.47000000000E+01 0.  1.
         -5    1    3    3    0  502  0.14223933554E+01 -0.56349500383E+02  0.28857701063E+03  0.29406813914E+03  0.47000000000E+01 0.  1.
          5    1    4    4  503    0  0.14619985204E+02  0.31777401779E+02  0.24205644527E+03  0.24461594373E+03  0.47000000000E+01 0. -1.
         -5    1    4    4    0  503  0.68134620582E+02 -0.16657597226E+02  0.13385633532E+03  0.15119328878E+03  0.47000000000E+01 0.  1.
<mgrwt>
<rscale>  0 0.14348807E+03</rscale>
<asrwt>0</asrwt>
<pdfrwt beam="1">  1        2 0.18823509E+00 0.15067747E+03</pdfrwt>
<pdfrwt beam="2">  1       -2 0.25729385E-02 0.15067747E+03</pdfrwt>
<totfact> 0.10050918E+04</totfact>
</mgrwt>
</event>
<event>
 8    1  0.3217375E-004  0.2017931E+03  0.7546771E-02  0.1152363E+00
          2   -1    0    0  501    0  0.00000000000E+00  0.00000000000E+00  0.57037705972E+03  0.57037705972E+03  0.00000000000E+00 0. -1.
         -2   -1    0    0    0  501 -0.00000000000E+00 -0.00000000000E+00 -0.73041181471E+02  0.73041181471E+02  0.00000000000E+00 0.  1.
         25    2    1    2    0    0 -0.15601602287E+03  0.27472854201E+02  0.36676615011E+03  0.41861422876E+03  0.12499882617E+03 0.  0.
         23    2    1    2    0    0  0.15601602287E+03 -0.27472854201E+02  0.13056972813E+03  0.22480401243E+03  0.91611314746E+02 0.  0.
          5    1    4    4  502    0  0.10762781476E+03 -0.37706388453E+02  0.13275370197E+03  0.17507470870E+03  0.47000000000E+01 0. -1.
         -5    1    4    4    0  502  0.48388208106E+02  0.10233534252E+02 -0.21839738405E+01  0.49729303723E+02  0.47000000000E+01 0.  1.
          5    1    3    3  503    0 -0.88786837178E+02  0.20967037867E+02  0.32823916523E+03  0.34071360220E+03  0.47000000000E+01 0. -1.
         -5    1    3    3    0  503 -0.67229185688E+02  0.65058163338E+01  0.38526984883E+02  0.77900626561E+02  0.47000000000E+01 0. -1.
<mgrwt>
<rscale>  0 0.19692078E+03</rscale>
<asrwt>0</asrwt>
<pdfrwt beam="1">  1        2 0.87750314E-01 0.20179312E+03</pdfrwt>
<pdfrwt beam="2">  1       -2 0.11237105E-01 0.20179312E+03</pdfrwt>
<totfact> 0.29118023E+03</totfact>
</mgrwt>
</event>
<event>
 8    1  0.3217375E-004  0.2091616E+03  0.7546771E-02  0.1146111E+00
          2   -1    0    0  501    0  0.00000000000E+00  0.00000000000E+00  0.31110556397E+03  0.31110556397E+03  0.00000000000E+00 0. -1.
         -2   -1    0    0    0  501 -0.00000000000E+00 -0.00000000000E+00 -0.13213372437E+03  0.13213372437E+03  0.00000000000E+00 0.  1.
         25    2    1    2    0    0 -0.15138778505E+03  0.72145887315E+02  0.56435974883E+02  0.21664162086E+03  0.12500112842E+03 0.  0.
         23    2    1    2    0    0  0.15138778505E+03 -0.72145887315E+02  0.12253586472E+03  0.22659766748E+03  0.90598974868E+02 0.  0.
          5    1    3    3  502    0 -0.34632085160E+02  0.75900917398E+02 -0.65977339800E+01  0.83820944149E+02  0.47000000000E+01 0.  1.
         -5    1    4    4    0  503  0.73801318399E+02 -0.74867368814E+02  0.38398702200E+02  0.11201922978E+03  0.47000000000E+01 0.  1.
          5    1    4    4  503    0  0.77586466650E+02  0.27214814987E+01  0.84137162517E+02  0.11457843770E+03  0.47000000000E+01 0. -1.
         -5    1    3    3    0  502 -0.11675569989E+03 -0.37550300829E+01  0.63033708863E+02  0.13282067671E+03  0.47000000000E+01 0.  1.
<mgrwt>
<rscale>  0 0.20436044E+03</rscale>
<asrwt>0</asrwt>
<pdfrwt beam="1">  1        2 0.47862394E-01 0.20916159E+03</pdfrwt>
<pdfrwt beam="2">  1       -2 0.20328265E-01 0.20916159E+03</pdfrwt>
<totfact> 0.21264902E+03</totfact>
</mgrwt>
</event>
<event>
 8    1  0.3217375E-004  0.1263827E+03  0.7546771E-02  0.1246849E+00
         -1   -1    0    0    0  501 -0.00000000000E+00  0.00000000000E+00  0.41077647074E+03  0.41077647074E+03  0.00000000000E+00 0.  1.
          1   -1    0    0  501    0  0.00000000000E+00 -0.00000000000E+00 -0.50072505449E+02  0.50072505449E+02  0.00000000000E+00 0. -1.
         25    2    1    2    0    0 -0.42653104231E+01 -0.18141079432E+02  0.50067202586E+02  0.13593860158E+03  0.12500114795E+03 0.  0.
         23    2    1    2    0    0  0.42653104231E+01  0.18141079432E+02  0.31063676271E+03  0.32491037461E+03  0.93403755527E+02 0.  0.
          5    1    3    3  502    0  0.41664637945E+02 -0.48694215830E+02  0.48233550811E+01  0.64439300622E+02  0.47000000000E+01 0.  1.
         -5    1    3    3    0  502 -0.45929948368E+02  0.30553136397E+02  0.45243847505E+02  0.71499300961E+02  0.47000000000E+01 0.  1.
          5    1    4    4  503    0 -0.36669636448E+02 -0.14027126735E+02  0.92488393882E+02  0.10058635854E+03  0.47000000000E+01 0. -1.
         -5    1    4    4    0  503  0.40934946871E+02  0.32168206167E+02  0.21814836883E+03  0.22432401607E+03  0.47000000000E+01 0.  1.
<mgrwt>
<rscale>  0 0.11775405E+03</rscale>
<asrwt>0</asrwt>
<pdfrwt beam="1">  1        1 0.77034627E-02 0.12638267E+03</pdfrwt>
<pdfrwt beam="2">  1       -1 0.63196378E-01 0.12638267E+03</pdfrwt>
<totfact> 0.23221769E+03</totfact>
</mgrwt>
</event>
<event>
 8    1  0.3217375E-004  0.1271330E+03  0.7546771E-02  0.1244248E+00
         -2   -1    0    0    0  501 -0.00000000000E+00  0.00000000000E+00  0.32946090459E+02  0.32946090459E+02  0.00000000000E+00 0.  1.
          2   -1    0    0  501    0  0.00000000000E+00 -0.00000000000E+00 -0.41924086106E+03  0.41924086106E+03  0.00000000000E+00 0. -1.
         25    2    1    2    0    0  0.17765667904E+02 -0.14837495146E+02 -0.27824228125E+03  0.30591103978E+03  0.12500810760E+03 0.  0.
         23    2    1    2    0    0 -0.17765667904E+02  0.14837495146E+02 -0.10805248935E+03  0.14627591174E+03  0.95841179468E+02 0.  0.
          5    1    3    3  502    0 -0.33551450249E+02  0.21329943700E+02 -0.20700471707E+03  0.21084048283E+03  0.47000000000E+01 0.  1.
         -5    1    3    3    0  502  0.51317118153E+02 -0.36167438846E+02 -0.71237564182E+02  0.95070556950E+02  0.47000000000E+01 0.  1.
          5    1    4    4  503    0 -0.51732623007E+02  0.25812507283E+02 -0.87013820664E+02  0.10457554591E+03  0.47000000000E+01 0. -1.
         -5    1    4    4    0  503  0.33966955103E+02 -0.10975012137E+02 -0.21038668688E+02  0.41700365832E+02  0.47000000000E+01 0.  1.
<mgrwt>
<rscale>  0 0.11930517E+03</rscale>
<asrwt>0</asrwt>
<pdfrwt beam="1">  1        2 0.64498588E-01 0.12713299E+03</pdfrwt>
<pdfrwt beam="2">  1       -2 0.50686297E-02 0.12713299E+03</pdfrwt>
<totfact> 0.13658647E+04</totfact>
</mgrwt>
</event>
<event>
 8    1  0.3217375E-004  0.1456290E+03  0.7546771E-02  0.1214925E+00
         -4   -1    0    0    0  501 -0.00000000000E+00  0.00000000000E+00  0.26436825264E+03  0.26436825264E+03  0.00000000000E+00 0.  1.
          4   -1    0    0  501    0  0.00000000000E+00 -0.00000000000E+00 -0.75245257022E+02  0.75245257022E+02  0.00000000000E+00 0. -1.
         25    2    1    2    0    0  0.67356050391E+02 -0.32335237251E+02  0.15908071913E+03  0.21567214597E+03  0.12500157701E+03 0.  0.
         23    2    1    2    0    0 -0.67356050391E+02  0.32335237251E+02  0.30042276490E+02  0.12394136370E+03  0.94215275653E+02 0.  0.
          5    1    3    3  502    0 -0.12007856444E+02  0.35604385831E+02  0.23967034163E+02  0.44814837201E+02  0.47000000000E+01 0.  1.
         -5    1    3    3    0  502  0.79363906835E+02 -0.67939623082E+02  0.13511368497E+03  0.17085730876E+03  0.47000000000E+01 0.  1.
          5    1    4    4  503    0 -0.70648995999E+02  0.52960046930E+02  0.43615993380E+02  0.98592555931E+02  0.47000000000E+01 0. -1.
         -5    1    4    4    0  503  0.32929456073E+01 -0.20624809678E+02 -0.13573716890E+02  0.25348807768E+02  0.47000000000E+01 0.  1.
<mgrwt>
<rscale>  0 0.13882026E+03</rscale>
<asrwt>0</asrwt>
<pdfrwt beam="1">  1        4 0.11576194E-01 0.14562898E+03</pdfrwt>
<pdfrwt beam="2">  1       -4 0.40672038E-01 0.14562898E+03</pdfrwt>
<totfact> 0.58448233E+02</totfact>
</mgrwt>
</event>
<event>
 8    1  0.3217375E-004  0.1386192E+03  0.7546771E-02  0.1230073E+00
         -2   -1    0    0    0  501 -0.00000000000E+00  0.00000000000E+00  0.45922043383E+02  0.45922043383E+02  0.00000000000E+00 0.  1.
          2   -1    0    0  501    0  0.00000000000E+00 -0.00000000000E+00 -0.31865304661E+03  0.31865304661E+03  0.00000000000E+00 0. -1.
         25    2    1    2    0    0 -0.50369827107E+02  0.32451657807E+02 -0.17867464861E+03  0.22614136733E+03  0.12500023353E+03 0.  0.
         23    2    1    2    0    0  0.50369827107E+02 -0.32451657807E+02 -0.94056354620E+02  0.13843372267E+03  0.82018706105E+02 0.  0.
          5    1    3    3  502    0 -0.23242886495E+02  0.78914497801E+02 -0.87652514215E+02  0.12030288020E+03  0.47000000000E+01 0. -1.
         -5    1    4    4    0  503  0.70419488847E+02 -0.21240142603E+02 -0.51724644869E+02  0.90042084350E+02  0.47000000000E+01 0.  1.
          5    1    4    4  503    0 -0.20049661740E+02 -0.11211515203E+02 -0.42331709751E+02  0.48391638322E+02  0.47000000000E+01 0. -1.
         -5    1    3    3    0  502 -0.27126940612E+02 -0.46462839994E+02 -0.91022134397E+02  0.10583848713E+03  0.47000000000E+01 0. -1.
<mgrwt>
<rscale>  0 0.12825176E+03</rscale>
<asrwt>0</asrwt>
<pdfrwt beam="1">  1        2 0.49023546E-01 0.13861922E+03</pdfrwt>
<pdfrwt beam="2">  1       -2 0.70649297E-02 0.13861922E+03</pdfrwt>
<totfact> 0.11131283E+04</totfact>
</mgrwt>
</event>
<event>
 8    1  0.3217375E-004  0.1492640E+03  0.7546771E-02  0.1210054E+00
          2   -1    0    0  501    0  0.00000000000E+00  0.00000000000E+00  0.11222641285E+04  0.11222641285E+04  0.00000000000E+00 0. -1.
         -2   -1    0    0    0  501 -0.00000000000E+00 -0.00000000000E+00 -0.17529184891E+02  0.17529184891E+02  0.00000000000E+00 0.  1.
         25    2    1    2    0    0 -0.93765294112E+01  0.81030071800E+02  0.73051677111E+03  0.74561015380E+03  0.12500382689E+03 0.  0.
         23    2    1    2    0    0  0.93765294112E+01 -0.81030071800E+02  0.37421817251E+03  0.39418315960E+03  0.93205851947E+02 0.  0.
          5    1    4    4  502    0 -0.97460675082E+01 -0.39164707811E+02  0.32143899426E+03  0.32399687838E+03  0.47000000000E+01 0. -1.
         -5    1    3    3    0  503 -0.64591740907E+02  0.28035710105E+02  0.41155736196E+03  0.41756394267E+03  0.47000000000E+01 0.  1.
          5    1    3    3  503    0  0.55215211496E+02  0.52994361695E+02  0.31895940915E+03  0.32804621113E+03  0.47000000000E+01 0.  1.
         -5    1    4    4    0  502  0.19122596919E+02 -0.41865363989E+02  0.52779178250E+02  0.70186281221E+02  0.47000000000E+01 0.  1.
<mgrwt>
<rscale>  0 0.14246182E+03</rscale>
<asrwt>0</asrwt>
<pdfrwt beam="1">  1        2 0.17265596E+00 0.14926402E+03</pdfrwt>
<pdfrwt beam="2">  1       -2 0.26967986E-02 0.14926402E+03</pdfrwt>
<totfact> 0.10686402E+04</totfact>
</mgrwt>
</event>
<event>
 8    1  0.3217375E-004  0.1437474E+03  0.7546771E-02  0.1218045E+00
         -1   -1    0    0    0  501 -0.00000000000E+00  0.00000000000E+00  0.14096080128E+03  0.14096080128E+03  0.00000000000E+00 0.  1.
          1   -1    0    0  501    0  0.00000000000E+00 -0.00000000000E+00 -0.12698783031E+03  0.12698783031E+03  0.00000000000E+00 0. -1.
         25    2    1    2    0    0 -0.62829854043E+02 -0.33050730331E+02 -0.22152033795E+02  0.14544424664E+03  0.12499349961E+03 0.  0.
         23    2    1    2    0    0  0.62829854043E+02  0.33050730331E+02  0.36125004763E+02  0.12250438496E+03  0.93071838007E+02 0.  0.
          5    1    4    4  502    0  0.48108804255E+02 -0.22328229863E+02 -0.23938193542E+01  0.53299411505E+02  0.47000000000E+01 0. -1.
         -5    1    4    4    0  502  0.14721049788E+02  0.55378960194E+02  0.38518824117E+02  0.69204973451E+02  0.47000000000E+01 0.  1.
          5    1    3    3  503    0 -0.12374023019E+02 -0.76107462810E+02 -0.12192291501E+02  0.78206165442E+02  0.47000000000E+01 0.  1.
         -5    1    3    3    0  503 -0.50455831024E+02  0.43056732479E+02 -0.99597422939E+01  0.67238081194E+02  0.47000000000E+01 0.  1.
<mgrwt>
<rscale>  0 0.13655236E+03</rscale>
<asrwt>0</asrwt>
<pdfrwt beam="1">  1        1 0.19536589E-01 0.14374740E+03</pdfrwt>
<pdfrwt beam="2">  1       -1 0.21686277E-01 0.14374740E+03</pdfrwt>
<totfact> 0.44627788E+03</totfact>
</mgrwt>
</event>
<event>
 8    1  0.3217375E-004  0.2816738E+03  0.7546771E-02  0.1096520E+00
          2   -1    0    0  501    0  0.00000000000E+00  0.00000000000E+00  0.38150080776E+03  0.38150080776E+03  0.00000000000E+00 0. -1.
         -2   -1    0    0    0  501 -0.00000000000E+00 -0.00000000000E+00 -0.19906033918E+03  0.19906033918E+03  0.00000000000E+00 0.  1.
         25    2    1    2    0    0  0.21652759384E+03  0.12973383438E+03  0.10355707641E+03  0.30010693735E+03  0.12500015638E+03 0.  0.
         23    2    1    2    0    0 -0.21652759384E+03 -0.12973383438E+03  0.78883392167E+02  0.28045420960E+03  0.93364379959E+02 0.  0.
          5    1    3    3  502    0  0.18162166263E+02 -0.14210857642E+02 -0.14896055128E+02  0.27853100665E+02  0.47000000000E+01 0.  1.
         -5    1    4    4    0  503 -0.66482513661E+02 -0.79619363020E+01 -0.97103011117E+01  0.67821066049E+02  0.47000000000E+01 0.  1.
          5    1    4    4  503    0 -0.15004508018E+03 -0.12177189807E+03  0.88593693279E+02  0.21263314355E+03  0.47000000000E+01 0. -1.
         -5    1    3    3    0  502  0.19836542758E+03  0.14394469202E+03  0.11845313154E+03  0.27225383668E+03  0.47000000000E+01 0.  1.
<mgrwt>
<rscale>  0 0.27848453E+03</rscale>
<asrwt>0</asrwt>
<pdfrwt beam="1">  1        2 0.58692432E-01 0.28167376E+03</pdfrwt>
<pdfrwt beam="2">  1       -2 0.30624668E-01 0.28167376E+03</pdfrwt>
<totfact> 0.83023380E+02</totfact>
</mgrwt>
</event>
<event>
 8    1  0.3217375E-004  0.1710053E+03  0.7546771E-02  0.1181662E+00
         -2   -1    0    0    0  501 -0.00000000000E+00  0.00000000000E+00  0.64928842535E+02  0.64928842535E+02  0.00000000000E+00 0. -1.
          2   -1    0    0  501    0  0.00000000000E+00 -0.00000000000E+00 -0.52340552468E+03  0.52340552468E+03  0.00000000000E+00 0.  1.
         25    2    1    2    0    0 -0.11421074814E+03 -0.23946587957E+02 -0.37871610243E+03  0.41553423663E+03  0.12500112599E+03 0.  0.
         23    2    1    2    0    0  0.11421074814E+03  0.23946587957E+02 -0.79760579709E+02  0.17280013059E+03  0.99401212219E+02 0.  0.
          5    1    4    4  502    0  0.46358659311E+02  0.56705302988E+02 -0.18790019682E+02  0.75761279818E+02  0.47000000000E+01 0. -1.
         -5    1    4    4    0  502  0.67852088827E+02 -0.32758715031E+02 -0.60970560027E+02  0.97038850770E+02  0.47000000000E+01 0.  1.
          5    1    3    3  503    0 -0.13437306303E+03  0.59893900734E+01 -0.30063234016E+03  0.32938410225E+03  0.47000000000E+01 0. -1.
         -5    1    3    3    0  503  0.20162314896E+02 -0.29935978031E+02 -0.78083762271E+02  0.86150134376E+02  0.47000000000E+01 0. -1.
<mgrwt>
<rscale>  0 0.16639350E+03</rscale>
<asrwt>0</asrwt>
<pdfrwt beam="1">  1        2 0.80523925E-01 0.17100531E+03</pdfrwt>
<pdfrwt beam="2">  1       -2 0.99890529E-02 0.17100531E+03</pdfrwt>
<totfact> 0.38471153E+03</totfact>
</mgrwt>
</event>
<event>
 8    1  0.3217375E-004  0.1944146E+03  0.7546771E-02  0.1159249E+00
          2   -1    0    0  501    0  0.00000000000E+00  0.00000000000E+00  0.42684272690E+03  0.42684272690E+03  0.00000000000E+00 0. -1.
         -2   -1    0    0    0  501 -0.00000000000E+00 -0.00000000000E+00 -0.79564000337E+02  0.79564000337E+02  0.00000000000E+00 0.  1.
         25    2    1    2    0    0  0.14527002292E+03  0.32682291424E+02  0.17968375503E+03  0.26473248738E+03  0.12500210527E+03 0.  0.
         23    2    1    2    0    0 -0.14527002292E+03 -0.32682291424E+02  0.16759497153E+03  0.24167423985E+03  0.90259913542E+02 0.  0.
          5    1    4    4  502    0 -0.69841025435E+02 -0.57750754653E+02  0.11392833045E+03  0.14565257628E+03  0.47000000000E+01 0. -1.
         -5    1    4    4    0  502 -0.75428997489E+02  0.25068463229E+02  0.53666641078E+02  0.96021663573E+02  0.47000000000E+01 0.  1.
          5    1    3    3  503    0 -0.60832149108E+01 -0.19273128576E+02  0.63831099164E+02  0.67118985461E+02  0.47000000000E+01 0. -1.
         -5    1    3    3    0  503  0.15135323783E+03  0.51955420000E+02  0.11585265587E+03  0.19761350192E+03  0.47000000000E+01 0. -1.
<mgrwt>
<rscale>  0 0.18912976E+03</rscale>
<asrwt>0</asrwt>
<pdfrwt beam="1">  1        2 0.65668111E-01 0.19441460E+03</pdfrwt>
<pdfrwt beam="2">  1       -2 0.12240616E-01 0.19441460E+03</pdfrwt>
<totfact> 0.34991948E+03</totfact>
</mgrwt>
</event>
<event>
 8    1  0.3217375E-004  0.1491640E+03  0.7546771E-02  0.1210429E+00
         -3   -1    0    0    0  501 -0.00000000000E+00  0.00000000000E+00  0.11899639052E+03  0.11899639052E+03  0.00000000000E+00 0.  1.
          3   -1    0    0  501    0  0.00000000000E+00 -0.00000000000E+00 -0.17497657409E+03  0.17497657409E+03  0.00000000000E+00 0. -1.
         25    2    1    2    0    0  0.52151701290E+02 -0.62486108431E+02 -0.78889039987E+02  0.16874061268E+03  0.12500240015E+03 0.  0.
         23    2    1    2    0    0 -0.52151701290E+02  0.62486108431E+02  0.22908856417E+02  0.12523235192E+03  0.92379719484E+02 0.  0.
          5    1    3    3  502    0  0.27012595121E+02 -0.51037191762E+02  0.23549344508E+02  0.62539082699E+02  0.47000000000E+01 0. -1.
         -5    1    3    3    0  502  0.25139106169E+02 -0.11448916669E+02 -0.10243838449E+03  0.10620152998E+03  0.47000000000E+01 0. -1.
          5    1    4    4  503    0 -0.37720480380E+02 -0.15483924459E+02 -0.42968401642E+01  0.41269109418E+02  0.47000000000E+01 0. -1.
         -5    1    4    4    0  503 -0.14431220910E+02  0.77970032890E+02  0.27205696581E+02  0.83963242507E+02  0.47000000000E+01 0.  1.
<mgrwt>
<rscale>  0 0.14217706E+03</rscale>
<asrwt>0</asrwt>
<pdfrwt beam="1">  1        3 0.26919473E-01 0.14916405E+03</pdfrwt>
<pdfrwt beam="2">  1       -3 0.18307137E-01 0.14916405E+03</pdfrwt>
<totfact> 0.80674372E+02</totfact>
</mgrwt>
</event>
<event>
 8    1  0.3217375E-004  0.1255297E+03  0.7546771E-02  0.1249037E+00
         -1   -1    0    0    0  501 -0.00000000000E+00  0.00000000000E+00  0.37064536930E+03  0.37064536930E+03  0.00000000000E+00 0.  1.
          1   -1    0    0  501    0  0.00000000000E+00 -0.00000000000E+00 -0.33436424913E+02  0.33436424913E+02  0.00000000000E+00 0. -1.
         25    2    1    2    0    0  0.10993198471E+02 -0.33931060672E+01  0.15462782835E+03  0.19916697187E+03  0.12500141520E+03 0.  0.
         23    2    1    2    0    0 -0.10993198471E+02  0.33931060672E+01  0.18258111605E+03  0.20491482235E+03  0.92313904161E+02 0.  0.
          5    1    4    4  502    0  0.15029204352E+02  0.23182483411E+02  0.10874931783E+02  0.30060915852E+02  0.47000000000E+01 0. -1.
         -5    1    4    4    0  502 -0.26022402824E+02 -0.19789377343E+02  0.17170618426E+03  0.17485390650E+03  0.47000000000E+01 0.  1.
          5    1    3    3  503    0  0.48258160338E+02  0.42668541205E+02  0.65073721719E+02  0.91684969903E+02  0.47000000000E+01 0. -1.
         -5    1    3    3    0  503 -0.37264961866E+02 -0.46061647272E+02  0.89554106626E+02  0.10748200196E+03  0.47000000000E+01 0. -1.
<mgrwt>
<rscale>  0 0.11646984E+03</rscale>
<asrwt>0</asrwt>
<pdfrwt beam="1">  1        1 0.51440656E-02 0.12552975E+03</pdfrwt>
<pdfrwt beam="2">  1       -1 0.57022362E-01 0.12552975E+03</pdfrwt>
<totfact> 0.48698291E+03</totfact>
</mgrwt>
</event>
<event>
 8    1  0.3217375E-004  0.1778922E+03  0.7546771E-02  0.1175605E+00
          2   -1    0    0  501    0  0.00000000000E+00  0.00000000000E+00  0.63844086673E+03  0.63844086673E+03  0.00000000000E+00 0. -1.
         -2   -1    0    0    0  501 -0.00000000000E+00 -0.00000000000E+00 -0.84703813858E+02  0.84703813858E+02  0.00000000000E+00 0.  1.
         25    2    1    2    0    0 -0.33308165133E+02  0.12211071920E+03  0.53755871959E+03  0.56622875817E+03  0.12500067186E+03 0.  0.
         23    2    1    2    0    0  0.33308165133E+02 -0.12211071920E+03  0.16178333282E+02  0.15691592241E+03  0.91325826745E+02 0.  0.
          5    1    3    3  502    0 -0.65032166531E+01  0.12349873536E+03  0.26684633723E+03  0.29414841009E+03  0.47000000000E+01 0.  1.
         -5    1    3    3    0  502 -0.26804948480E+02 -0.13880161609E+01  0.27071238236E+03  0.27208034809E+03  0.47000000000E+01 0.  1.
          5    1    4    4  503    0 -0.11372459261E+02 -0.10809243265E+03  0.15157703605E+02  0.10984148945E+03  0.47000000000E+01 0. -1.
         -5    1    4    4    0  503  0.44680624394E+02 -0.14018286553E+02  0.10206296764E+01  0.47074432966E+02  0.47000000000E+01 0.  1.
<mgrwt>
<rscale>  0 0.17216872E+03</rscale>
<asrwt>0</asrwt>
<pdfrwt beam="1">  1        2 0.98221669E-01 0.17789219E+03</pdfrwt>
<pdfrwt beam="2">  1       -2 0.13031356E-01 0.17789219E+03</pdfrwt>
<totfact> 0.20074264E+03</totfact>
</mgrwt>
</event>
<event>
 8    1  0.3217375E-004  0.1410709E+03  0.7546771E-02  0.1222386E+00
         -2   -1    0    0    0  501 -0.00000000000E+00  0.00000000000E+00  0.13908158074E+03  0.13908158074E+03  0.00000000000E+00 0. -1.
          2   -1    0    0  501    0  0.00000000000E+00 -0.00000000000E+00 -0.12329143376E+03  0.12329143376E+03  0.00000000000E+00 0.  1.
         25    2    1    2    0    0  0.31273474998E+02  0.57419706155E+02 -0.22811648679E+02  0.14290333825E+03  0.12500375945E+03 0.  0.
         23    2    1    2    0    0 -0.31273474998E+02 -0.57419706155E+02  0.38601795657E+02  0.11946967625E+03  0.92238018310E+02 0.  0.
          5    1    3    3  502    0  0.84101433346E+01  0.34890711742E+02  0.50848581937E+02  0.62416028084E+02  0.47000000000E+01 0. -1.
         -5    1    4    4    0  503 -0.33561049082E+02  0.17287384982E+02  0.10325785646E+02  0.39419659362E+02  0.47000000000E+01 0.  1.
          5    1    4    4  503    0  0.22875740846E+01 -0.74707091137E+02  0.28276010012E+02  0.80050016887E+02  0.47000000000E+01 0. -1.
         -5    1    3    3    0  502  0.22863331663E+02  0.22528994413E+02 -0.73660230616E+02  0.80487310170E+02  0.47000000000E+01 0. -1.
<mgrwt>
<rscale>  0 0.13347709E+03</rscale>
<asrwt>0</asrwt>
<pdfrwt beam="1">  1        2 0.18967913E-01 0.14107088E+03</pdfrwt>
<pdfrwt beam="2">  1       -2 0.21397166E-01 0.14107088E+03</pdfrwt>
<totfact> 0.52732746E+03</totfact>
</mgrwt>
</event>
<event>
 8    1  0.3217375E-004  0.1847919E+03  0.7546771E-02  0.1168537E+00
          2   -1    0    0  501    0  0.00000000000E+00  0.00000000000E+00  0.17269163533E+04  0.17269163533E+04  0.00000000000E+00 0. -1.
         -2   -1    0    0    0  501 -0.00000000000E+00 -0.00000000000E+00 -0.17937475322E+02  0.17937475322E+02  0.00000000000E+00 0.  1.
         25    2    1    2    0    0 -0.13088218754E+03 -0.37309402161E+02  0.10302021054E+04  0.10466443707E+04  0.12500368850E+03 0.  0.
         23    2    1    2    0    0  0.13088218754E+03  0.37309402161E+02  0.67877677251E+03  0.69820945791E+03  0.90754623581E+02 0.  0.
          5    1    3    3  502    0 -0.11526886031E+03  0.26021211407E+02  0.71700801875E+03  0.72669567396E+03  0.47000000000E+01 0.  1.
         -5    1    4    4    0  503 -0.52318508199E+01  0.23749666906E+02  0.70504845621E+02  0.74729125495E+02  0.47000000000E+01 0.  1.
          5    1    4    4  503    0  0.13611403836E+03  0.13559735256E+02  0.60827192689E+03  0.62348033241E+03  0.47000000000E+01 0. -1.
         -5    1    3    3    0  502 -0.15613327239E+02 -0.63330613568E+02  0.31319408668E+03  0.31994869673E+03  0.47000000000E+01 0.  1.
<mgrwt>
<rscale>  0 0.17924418E+03</rscale>
<asrwt>0</asrwt>
<pdfrwt beam="1">  1        2 0.26567931E+00 0.18479194E+03</pdfrwt>
<pdfrwt beam="2">  1       -2 0.27596129E-02 0.18479194E+03</pdfrwt>
<totfact> 0.49356631E+03</totfact>
</mgrwt>
</event>
<event>
 8    1  0.3217375E-004  0.1901175E+03  0.7546771E-02  0.1163334E+00
          2   -1    0    0  501    0  0.00000000000E+00  0.00000000000E+00  0.10756200960E+03  0.10756200960E+03  0.00000000000E+00 0. -1.
         -2   -1    0    0    0  501 -0.00000000000E+00 -0.00000000000E+00 -0.35262039562E+03  0.35262039562E+03  0.00000000000E+00 0.  1.
         25    2    1    2    0    0 -0.80051464844E+02 -0.11878697706E+03 -0.40072803317E+02  0.19429485208E+03  0.12500430807E+03 0.  0.
         23    2    1    2    0    0  0.80051464844E+02  0.11878697706E+03 -0.20498558271E+03  0.26588755314E+03  0.90324519679E+02 0.  0.
          5    1    4    4  502    0  0.80037139896E+02  0.45238312348E+02 -0.86310576581E+02  0.12619054757E+03  0.47000000000E+01 0. -1.
         -5    1    3    3    0  503  0.25620801799E+02  0.54457247473E+01 -0.16183972688E+01  0.26660656641E+02  0.47000000000E+01 0.  1.
          5    1    3    3  503    0 -0.10567226664E+03 -0.12423270181E+03 -0.38454406048E+02  0.16763419544E+03  0.47000000000E+01 0.  1.
         -5    1    4    4    0  502  0.14324948727E-01  0.73548664711E+02 -0.11867500613E+03  0.13969700557E+03  0.47000000000E+01 0.  1.
<mgrwt>
<rscale>  0 0.18469641E+03</rscale>
<asrwt>0</asrwt>
<pdfrwt beam="1">  1        2 0.16548001E-01 0.19011749E+03</pdfrwt>
<pdfrwt beam="2">  1       -2 0.54249292E-01 0.19011749E+03</pdfrwt>
<totfact> 0.11175488E+03</totfact>
</mgrwt>
</event>
<event>
 8    1  0.3217375E-004  0.1294877E+03  0.7546771E-02  0.1243026E+00
          2   -1    0    0  501    0  0.00000000000E+00  0.00000000000E+00  0.32748533139E+03  0.32748533139E+03  0.00000000000E+00 0.  1.
         -2   -1    0    0    0  501 -0.00000000000E+00 -0.00000000000E+00 -0.38951721336E+02  0.38951721336E+02  0.00000000000E+00 0. -1.
         25    2    1    2    0    0  0.30454009159E+02  0.14650137078E+02  0.18058402856E+03  0.22221081515E+03  0.12499992724E+03 0.  0.
         23    2    1    2    0    0 -0.30454009159E+02 -0.14650137078E+02  0.10794958149E+03  0.14422623757E+03  0.89476378277E+02 0.  0.
          5    1    3    3  502    0  0.18319243625E+01 -0.41184103283E+02  0.14305258137E+03  0.14894837141E+03  0.47000000000E+01 0.  1.
         -5    1    4    4    0  503 -0.50926535236E+02 -0.98880163456E+01  0.11086415209E+03  0.12249177555E+03  0.47000000000E+01 0.  1.
          5    1    4    4  503    0  0.20472526077E+02 -0.47621207323E+01 -0.29145705936E+01  0.21734462027E+02  0.47000000000E+01 0. -1.
         -5    1    3    3    0  502  0.28622084796E+02  0.55834240361E+02  0.37531447194E+02  0.73262443743E+02  0.47000000000E+01 0.  1.
<mgrwt>
<rscale>  0 0.12004322E+03</rscale>
<asrwt>0</asrwt>
<pdfrwt beam="1">  1        2 0.50382357E-01 0.12948766E+03</pdfrwt>
<pdfrwt beam="2">  1       -2 0.59925727E-02 0.12948766E+03</pdfrwt>
<totfact> 0.13820262E+04</totfact>
</mgrwt>
</event>
<event>
 8    1  0.3217375E-004  0.1756080E+03  0.7546771E-02  0.1178166E+00
         -2   -1    0    0    0  501 -0.00000000000E+00  0.00000000000E+00  0.79292276129E+02  0.79292276129E+02  0.00000000000E+00 0. -1.
          2   -1    0    0  501    0  0.00000000000E+00 -0.00000000000E+00 -0.63243219310E+03  0.63243219310E+03  0.00000000000E+00 0.  1.
         25    2    1    2    0    0  0.66600975765E+02  0.10381736976E+03 -0.52814324074E+03  0.55657294760E+03  0.12499770806E+03 0.  0.
         23    2    1    2    0    0 -0.66600975765E+02 -0.10381736976E+03 -0.24996676228E+02  0.15515152163E+03  0.90738220201E+02 0.  0.
          5    1    4    4  502    0 -0.50351545414E+02 -0.54753737920E+02  0.29258830921E+02  0.80071337747E+02  0.47000000000E+01 0. -1.
         -5    1    3    3    0  503  0.34210756093E+02  0.46925356448E+01 -0.25443702226E+02  0.43149365073E+02  0.47000000000E+01 0.  1.
          5    1    3    3  503    0  0.32390219673E+02  0.99124834115E+02 -0.50269953851E+03  0.51342358252E+03  0.47000000000E+01 0.  1.
         -5    1    4    4    0  502 -0.16249430351E+02 -0.49063631841E+02 -0.54255507149E+02  0.75080183884E+02  0.47000000000E+01 0.  1.
<mgrwt>
<rscale>  0 0.16969517E+03</rscale>
<asrwt>0</asrwt>
<pdfrwt beam="1">  1        2 0.97297255E-01 0.17560798E+03</pdfrwt>
<pdfrwt beam="2">  1       -2 0.12198812E-01 0.17560798E+03</pdfrwt>
<totfact> 0.22573002E+03</totfact>
</mgrwt>
</event>
<event>
 8    1  0.3217375E-004  0.1590359E+03  0.7546771E-02  0.1197416E+00
          2   -1    0    0  501    0  0.00000000000E+00  0.00000000000E+00  0.60263555901E+03  0.60263555901E+03  0.00000000000E+00 0.  1.
         -2   -1    0    0    0  501 -0.00000000000E+00 -0.00000000000E+00 -0.56094709906E+02  0.56094709906E+02  0.00000000000E+00 0. -1.
         25    2    1    2    0    0 -0.72836190375E+02 -0.66049642167E+02  0.89894658000E+02  0.18268406136E+03  0.12499900351E+03 0.  0.
         23    2    1    2    0    0  0.72836190375E+02  0.66049642167E+02  0.45664619110E+03  0.47604620756E+03  0.91796416178E+02 0.  0.
          5    1    3    3  502    0 -0.80943722964E+01 -0.87049170815E+02  0.68562225926E+02  0.11120227438E+03  0.47000000000E+01 0. -1.
         -5    1    4    4    0  503  0.53950301984E+02 -0.10693684156E+02  0.17692181884E+03  0.18533324026E+03  0.47000000000E+01 0.  1.
          5    1    4    4  503    0  0.18885888391E+02  0.76743326323E+02  0.27972437227E+03  0.29071296730E+03  0.47000000000E+01 0. -1.
         -5    1    3    3    0  502 -0.64741818078E+02  0.20999528648E+02  0.21332432074E+02  0.71481786979E+02  0.47000000000E+01 0. -1.
<mgrwt>
<rscale>  0 0.15251549E+03</rscale>
<asrwt>0</asrwt>
<pdfrwt beam="1">  1        2 0.92713158E-01 0.15903590E+03</pdfrwt>
<pdfrwt beam="2">  1       -2 0.86299558E-02 0.15903590E+03</pdfrwt>
<totfact> 0.41150583E+03</totfact>
</mgrwt>
</event>
<event>
 8    1  0.3217375E-004  0.1485080E+03  0.7546771E-02  0.1211008E+00
         -2   -1    0    0    0  501 -0.00000000000E+00  0.00000000000E+00  0.24155034232E+02  0.24155034232E+02  0.00000000000E+00 0.  1.
          2   -1    0    0  501    0  0.00000000000E+00 -0.00000000000E+00 -0.77648258817E+03  0.77648258817E+03  0.00000000000E+00 0. -1.
         25    2    1    2    0    0 -0.41861819560E+02 -0.68398571449E+02 -0.36055247751E+03  0.38993937577E+03  0.12499540481E+03 0.  0.
         23    2    1    2    0    0  0.41861819560E+02  0.68398571449E+02 -0.39177507642E+03  0.41069824663E+03  0.93565820497E+02 0.  0.
          5    1    3    3  502    0 -0.13870640433E+02  0.32467195663E+02 -0.15712562987E+03  0.16111197045E+03  0.47000000000E+01 0.  1.
         -5    1    3    3    0  502 -0.27991179127E+02 -0.10086576711E+03 -0.20342684764E+03  0.22882740532E+03  0.47000000000E+01 0.  1.
          5    1    4    4  503    0  0.96625772066E+01  0.65425401658E+02 -0.35650578652E+03  0.36261869009E+03  0.47000000000E+01 0. -1.
         -5    1    4    4    0  503  0.32199242353E+02  0.29731697910E+01 -0.35269289901E+02  0.48079556538E+02  0.47000000000E+01 0.  1.
<mgrwt>
<rscale>  0 0.14173936E+03</rscale>
<asrwt>0</asrwt>
<pdfrwt beam="1">  1        2 0.11945887E+00 0.14850801E+03</pdfrwt>
<pdfrwt beam="2">  1       -2 0.37161588E-02 0.14850801E+03</pdfrwt>
<totfact> 0.10905653E+04</totfact>
</mgrwt>
</event>
<event>
 8    1  0.3217375E-004  0.1272495E+03  0.7546771E-02  0.1246014E+00
         -2   -1    0    0    0  501 -0.00000000000E+00  0.00000000000E+00  0.30158993713E+03  0.30158993713E+03  0.00000000000E+00 0.  1.
          2   -1    0    0  501    0  0.00000000000E+00 -0.00000000000E+00 -0.40977487960E+02  0.40977487960E+02  0.00000000000E+00 0. -1.
         25    2    1    2    0    0 -0.13961088007E+02  0.19290310925E+02  0.14212046219E+03  0.19076334558E+03  0.12500160067E+03 0.  0.
         23    2    1    2    0    0  0.13961088007E+02 -0.19290310925E+02  0.11849198697E+03  0.15180407951E+03  0.91853685306E+02 0.  0.
          5    1    3    3  502    0  0.55645228974E+02  0.10245493818E+02  0.67696139821E+02  0.88352809790E+02  0.47000000000E+01 0.  1.
         -5    1    3    3    0  502 -0.69606316981E+02  0.90448171067E+01  0.74424322371E+02  0.10241053579E+03  0.47000000000E+01 0.  1.
          5    1    4    4  503    0  0.50101960346E+02 -0.13186217513E+02  0.94114618728E+02  0.10753480470E+03  0.47000000000E+01 0. -1.
         -5    1    4    4    0  503 -0.36140872339E+02 -0.61040934113E+01  0.24377368247E+02  0.44269274812E+02  0.47000000000E+01 0.  1.
<mgrwt>
<rscale>  0 0.11824892E+03</rscale>
<asrwt>0</asrwt>
<pdfrwt beam="1">  1        2 0.63042291E-02 0.12724947E+03</pdfrwt>
<pdfrwt beam="2">  1       -2 0.46398450E-01 0.12724947E+03</pdfrwt>
<totfact> 0.48776188E+03</totfact>
</mgrwt>
</event>
<event>
 8    1  0.3217375E-004  0.4102706E+03  0.7546771E-02  0.1041030E+00
          3   -1    0    0  501    0  0.00000000000E+00  0.00000000000E+00  0.12401723173E+04  0.12401723173E+04  0.00000000000E+00 0. -1.
         -3   -1    0    0    0  501 -0.00000000000E+00 -0.00000000000E+00 -0.13455662002E+03  0.13455662002E+03  0.00000000000E+00 0.  1.
         25    2    1    2    0    0  0.37390052505E+03 -0.11356153224E+03  0.63694526213E+03  0.75764186314E+03  0.12499640634E+03 0.  0.
         23    2    1    2    0    0 -0.37390052505E+03  0.11356153224E+03  0.46867043515E+03  0.61708707418E+03  0.91905691277E+02 0.  0.
          5    1    4    4  502    0 -0.35470484110E+03  0.81840228040E+02  0.42509698303E+03  0.55968105400E+03  0.47000000000E+01 0. -1.
         -5    1    3    3    0  503  0.16469750110E+03 -0.19025813886E+02  0.17118468758E+03  0.23835590139E+03  0.47000000000E+01 0. -1.
          5    1    3    3  503    0  0.20920302395E+03 -0.94535718353E+02  0.46576057454E+03  0.51928596175E+03  0.47000000000E+01 0. -1.
         -5    1    4    4    0  502 -0.19195683953E+02  0.31721304199E+02  0.43573452121E+02  0.57406020174E+02  0.47000000000E+01 0.  1.
<mgrwt>
<rscale>  0 0.40804183E+03</rscale>
<asrwt>0</asrwt>
<pdfrwt beam="1">  1        3 0.19079573E+00 0.41027055E+03</pdfrwt>
<pdfrwt beam="2">  1       -3 0.20701019E-01 0.41027055E+03</pdfrwt>
<totfact> 0.96047816E+00</totfact>
</mgrwt>
</event>
<event>
 8    1  0.3217375E-004  0.1754629E+03  0.7546771E-02  0.1178638E+00
         -2   -1    0    0    0  501 -0.00000000000E+00  0.00000000000E+00  0.19690834720E+02  0.19690834720E+02  0.00000000000E+00 0.  1.
          2   -1    0    0  501    0  0.00000000000E+00 -0.00000000000E+00 -0.13862118782E+04  0.13862118782E+04  0.00000000000E+00 0. -1.
         25    2    1    2    0    0  0.12309740075E+03  0.27842939197E+01 -0.63600560184E+03  0.65976536590E+03  0.12500596026E+03 0.  0.
         23    2    1    2    0    0 -0.12309740075E+03 -0.27842939197E+01 -0.73051544161E+03  0.74613734700E+03  0.88923606457E+02 0.  0.
          5    1    3    3  502    0  0.12046527232E+03 -0.36226745320E+02 -0.56208901924E+03  0.57601251242E+03  0.47000000000E+01 0. -1.
         -5    1    3    3    0  502  0.26321284312E+01  0.39011039239E+02 -0.73916582599E+02  0.83752853478E+02  0.47000000000E+01 0. -1.
          5    1    4    4  503    0 -0.89408905416E+02  0.25906634820E+02 -0.62053250237E+03  0.62749325303E+03  0.47000000000E+01 0. -1.
         -5    1    4    4    0  503 -0.33688495332E+02 -0.28690928739E+02 -0.10998293924E+03  0.11864409397E+03  0.47000000000E+01 0.  1.
<mgrwt>
<rscale>  0 0.16924484E+03</rscale>
<asrwt>0</asrwt>
<pdfrwt beam="1">  1        2 0.21326338E+00 0.17546285E+03</pdfrwt>
<pdfrwt beam="2">  1       -2 0.30293590E-02 0.17546285E+03</pdfrwt>
<totfact> 0.64847376E+03</totfact>
</mgrwt>
</event>
<event>
 8    1  0.3217375E-004  0.4213088E+03  0.7546771E-02  0.1037436E+00
          1   -1    0    0  501    0  0.00000000000E+00  0.00000000000E+00  0.14938289797E+04  0.14938289797E+04  0.00000000000E+00 0.  1.
         -1   -1    0    0    0  501 -0.00000000000E+00 -0.00000000000E+00 -0.13126426891E+03  0.13126426891E+03  0.00000000000E+00 0. -1.
         25    2    1    2    0    0 -0.33584947810E+03 -0.22154810886E+03  0.41219242987E+03  0.58940964958E+03  0.12499079686E+03 0.  0.
         23    2    1    2    0    0  0.33584947810E+03  0.22154810886E+03  0.95037228089E+03  0.10356835990E+04  0.86917250725E+02 0.  0.
          5    1    4    4  502    0  0.23601350282E+03  0.16799967216E+03  0.57998866944E+03  0.64833263841E+03  0.47000000000E+01 0. -1.
         -5    1    3    3    0  503 -0.10323648060E+03 -0.23723876187E+02  0.16676504216E+03  0.19761898319E+03  0.47000000000E+01 0.  1.
          5    1    3    3  503    0 -0.23261299750E+03 -0.19782423267E+03  0.24542738770E+03  0.39179066639E+03  0.47000000000E+01 0.  1.
         -5    1    4    4    0  502  0.99835975281E+02  0.53548436700E+02  0.37038361145E+03  0.38735096058E+03  0.47000000000E+01 0.  1.
<mgrwt>
<rscale>  0 0.41886608E+03</rscale>
<asrwt>0</asrwt>
<pdfrwt beam="1">  1        1 0.22981983E+00 0.42130884E+03</pdfrwt>
<pdfrwt beam="2">  1       -1 0.20194504E-01 0.42130884E+03</pdfrwt>
<totfact> 0.14062970E+02</totfact>
</mgrwt>
</event>
<event>
 8    1  0.3217375E-004  0.1880739E+03  0.7546771E-02  0.1164407E+00
          2   -1    0    0  501    0  0.00000000000E+00  0.00000000000E+00  0.91551542930E+03  0.91551542930E+03  0.00000000000E+00 0. -1.
         -2   -1    0    0    0  501 -0.00000000000E+00 -0.00000000000E+00 -0.45089038297E+02  0.45089038297E+02  0.00000000000E+00 0.  1.
         25    2    1    2    0    0 -0.52991661192E+02  0.13014672673E+03  0.22625546765E+03  0.29421644947E+03  0.12500198345E+03 0.  0.
         23    2    1    2    0    0  0.52991661192E+02 -0.13014672673E+03  0.64417092335E+03  0.66638801812E+03  0.96801475042E+02 0.  0.
          5    1    4    4  502    0  0.68361904753E+02 -0.41120670636E+02  0.28397168500E+03  0.29500214823E+03  0.47000000000E+01 0. -1.
         -5    1    4    4    0  502 -0.15370243561E+02 -0.89026056090E+02  0.36019923835E+03  0.37138586990E+03  0.47000000000E+01 0.  1.
          5    1    3    3  503    0  0.34526548256E+02  0.34002526597E+02  0.25412775510E+02  0.54919518467E+02  0.47000000000E+01 0.  1.
         -5    1    3    3    0  503 -0.87518209448E+02  0.96144200129E+02  0.20084269214E+03  0.23929693101E+03  0.47000000000E+01 0.  1.
<mgrwt>
<rscale>  0 0.18355420E+03</rscale>
<asrwt>0</asrwt>
<pdfrwt beam="1">  1        2 0.14084851E+00 0.18807388E+03</pdfrwt>
<pdfrwt beam="2">  1       -2 0.69367758E-02 0.18807388E+03</pdfrwt>
<totfact> 0.34724885E+03</totfact>
</mgrwt>
</event>
<event>
 8    1  0.3217375E-004  0.1658346E+03  0.7546771E-02  0.1189120E+00
          2   -1    0    0  501    0  0.00000000000E+00  0.00000000000E+00  0.39183831447E+03  0.39183831447E+03  0.00000000000E+00 0. -1.
         -2   -1    0    0    0  501 -0.00000000000E+00 -0.00000000000E+00 -0.73308401240E+02  0.73308401240E+02  0.00000000000E+00 0.  1.
         25    2    1    2    0    0 -0.50060656786E+02 -0.96796787922E+02  0.72696212175E+02  0.18106868911E+03  0.12500177359E+03 0.  0.
         23    2    1    2    0    0  0.50060656786E+02  0.96796787922E+02  0.24583370106E+03  0.28407802660E+03  0.91599285548E+02 0.  0.
          5    1    4    4  502    0  0.21764315411E+02  0.10389434136E+03  0.22199088348E+03  0.24610924798E+03  0.47000000000E+01 0. -1.
         -5    1    3    3    0  503  0.39429691448E+02 -0.33633819025E+02  0.42935504918E+02  0.67464671736E+02  0.47000000000E+01 0.  1.
          5    1    3    3  503    0 -0.89490348235E+02 -0.63162968897E+02  0.29760707257E+02  0.11360401737E+03  0.47000000000E+01 0.  1.
         -5    1    4    4    0  502  0.28296341375E+02 -0.70975534416E+01  0.23842817576E+02  0.37968778622E+02  0.47000000000E+01 0.  1.
<mgrwt>
<rscale>  0 0.15962569E+03</rscale>
<asrwt>0</asrwt>
<pdfrwt beam="1">  1        2 0.60282816E-01 0.16583465E+03</pdfrwt>
<pdfrwt beam="2">  1       -2 0.11278216E-01 0.16583465E+03</pdfrwt>
<totfact> 0.43475797E+03</totfact>
</mgrwt>
</event>
<event>
 8    1  0.3217375E-004  0.1414151E+03  0.7546771E-02  0.1219084E+00
         -2   -1    0    0    0  501 -0.00000000000E+00  0.00000000000E+00  0.39190760566E+02  0.39190760566E+02  0.00000000000E+00 0.  1.
          2   -1    0    0  501    0  0.00000000000E+00 -0.00000000000E+00 -0.55616684585E+03  0.55616684585E+03  0.00000000000E+00 0. -1.
         25    2    1    2    0    0 -0.38383636469E+02  0.53837590689E+02 -0.41239008712E+03  0.43596309189E+03  0.12500577512E+03 0.  0.
         23    2    1    2    0    0  0.38383636469E+02 -0.53837590689E+02 -0.10458599816E+03  0.15939451453E+03  0.10048179203E+03 0.  0.
          5    1    4    4  502    0  0.62737156358E+02 -0.10342135773E+02 -0.83517285841E+02  0.10507205906E+03  0.47000000000E+01 0. -1.
         -5    1    3    3    0  503 -0.65978157179E+02  0.78487430795E+02 -0.32832061989E+03  0.34399115318E+03  0.47000000000E+01 0. -1.
          5    1    3    3  503    0  0.27594520710E+02 -0.24649840106E+02 -0.84069467226E+02  0.91971938710E+02  0.47000000000E+01 0. -1.
         -5    1    4    4    0  502 -0.24353519889E+02 -0.43495454916E+02 -0.21068712322E+02  0.54322455469E+02  0.47000000000E+01 0.  1.
<mgrwt>
<rscale>  0 0.13580769E+03</rscale>
<asrwt>0</asrwt>
<pdfrwt beam="1">  1        2 0.85564127E-01 0.14141511E+03</pdfrwt>
<pdfrwt beam="2">  1       -2 0.60293480E-02 0.14141511E+03</pdfrwt>
<totfact> 0.77761143E+03</totfact>
</mgrwt>
</event>
<event>
 8    1  0.3217375E-004  0.1761049E+03  0.7546771E-02  0.1177686E+00
          4   -1    0    0  501    0  0.00000000000E+00  0.00000000000E+00  0.19219234149E+03  0.19219234149E+03  0.00000000000E+00 0. -1.
         -4   -1    0    0    0  501 -0.00000000000E+00 -0.00000000000E+00 -0.16427404439E+03  0.16427404439E+03  0.00000000000E+00 0.  1.
         25    2    1    2    0    0  0.11380535445E+02  0.12352578668E+03  0.81297731543E+02  0.19396455839E+03  0.12499916878E+03 0.  0.
         23    2    1    2    0    0 -0.11380535445E+02 -0.12352578668E+03 -0.53379434450E+02  0.16250182749E+03  0.90384419864E+02 0.  0.
          5    1    4    4  502    0  0.28973048774E+01 -0.91319322561E+02  0.77260927031E+01  0.91811739756E+02  0.47000000000E+01 0. -1.
         -5    1    3    3    0  503 -0.52576167464E+02  0.25852633233E+02  0.20500007887E+02  0.62249115284E+02  0.47000000000E+01 0.  1.
          5    1    3    3  503    0  0.63956702909E+02  0.97673153443E+02  0.60797723657E+02  0.13171544310E+03  0.47000000000E+01 0.  1.
         -5    1    4    4    0  502 -0.14277840323E+02 -0.32206464115E+02 -0.61105527153E+02  0.70690087734E+02  0.47000000000E+01 0.  1.
<mgrwt>
<rscale>  0 0.17015497E+03</rscale>
<asrwt>0</asrwt>
<pdfrwt beam="1">  1        4 0.29568053E-01 0.17610488E+03</pdfrwt>
<pdfrwt beam="2">  1       -4 0.25272930E-01 0.17610488E+03</pdfrwt>
<totfact> 0.27960605E+02</totfact>
</mgrwt>
</event>
<event>
 8    1  0.3217375E-004  0.1257459E+03  0.7546771E-02  0.1247680E+00
         -3   -1    0    0    0  501 -0.00000000000E+00  0.00000000000E+00  0.30228972618E+03  0.30228972618E+03  0.00000000000E+00 0.  1.
          3   -1    0    0  501    0  0.00000000000E+00 -0.00000000000E+00 -0.41223739617E+02  0.41223739617E+02  0.00000000000E+00 0. -1.
         25    2    1    2    0    0  0.76879300596E+01  0.11323541592E+02  0.17322040283E+03  0.21404985257E+03  0.12499881826E+03 0.  0.
         23    2    1    2    0    0 -0.76879300596E+01 -0.11323541592E+02  0.87845583738E+02  0.12946361323E+03  0.94109796014E+02 0.  0.
          5    1    4    4  502    0 -0.34372666153E+02 -0.12049720460E+02 -0.83307169675E+00  0.36734996258E+02  0.47000000000E+01 0. -1.
         -5    1    4    4    0  502  0.26684736093E+02  0.72617886782E+00  0.88678655434E+02  0.92728616973E+02  0.47000000000E+01 0.  1.
          5    1    3    3  503    0  0.26559252111E+02 -0.18009451462E+02  0.17579488748E+03  0.17876147985E+03  0.47000000000E+01 0. -1.
         -5    1    3    3    0  503 -0.18871322051E+02  0.29332993054E+02 -0.25744846560E+01  0.35288372713E+02  0.47000000000E+01 0. -1.
<mgrwt>
<rscale>  0 0.11726417E+03</rscale>
<asrwt>0</asrwt>
<pdfrwt beam="1">  1        3 0.63421140E-02 0.12574590E+03</pdfrwt>
<pdfrwt beam="2">  1       -3 0.46506110E-01 0.12574590E+03</pdfrwt>
<totfact> 0.16297323E+03</totfact>
</mgrwt>
</event>
<event>
 8    1  0.3217375E-004  0.1471748E+03  0.7546771E-02  0.1214073E+00
         -1   -1    0    0    0  501 -0.00000000000E+00  0.00000000000E+00  0.23765131373E+03  0.23765131373E+03  0.00000000000E+00 0.  1.
          1   -1    0    0  501    0  0.00000000000E+00 -0.00000000000E+00 -0.74420494695E+02  0.74420494695E+02  0.00000000000E+00 0. -1.
         25    2    1    2    0    0  0.65763799961E+02 -0.41376300022E+02  0.96159750692E+02  0.17580423781E+03  0.12499422702E+03 0.  0.
         23    2    1    2    0    0 -0.65763799961E+02  0.41376300022E+02  0.67071068340E+02  0.13626757062E+03  0.89629498518E+02 0.  0.
          5    1    3    3  502    0  0.82318187331E+02  0.16793573465E+02  0.71131031631E+02  0.11018176680E+03  0.47000000000E+01 0. -1.
         -5    1    4    4    0  503  0.29331437583E+01  0.32556548602E+02  0.57338010448E+02  0.66168494250E+02  0.47000000000E+01 0.  1.
          5    1    4    4  503    0 -0.68696943720E+02  0.88197514201E+01  0.97330578918E+01  0.70099076367E+02  0.47000000000E+01 0. -1.
         -5    1    3    3    0  502 -0.16554387369E+02 -0.58169873487E+02  0.25028719061E+02  0.65622471002E+02  0.47000000000E+01 0. -1.
<mgrwt>
<rscale>  0 0.13944828E+03</rscale>
<asrwt>0</asrwt>
<pdfrwt beam="1">  1        1 0.11449307E-01 0.14717484E+03</pdfrwt>
<pdfrwt beam="2">  1       -1 0.36561740E-01 0.14717484E+03</pdfrwt>
<totfact> 0.37334009E+03</totfact>
</mgrwt>
</event>
<event>
 8    1  0.3217375E-004  0.1398267E+03  0.7546771E-02  0.1222793E+00
          2   -1    0    0  501    0  0.00000000000E+00  0.00000000000E+00  0.33971458988E+03  0.33971458988E+03  0.00000000000E+00 0.  1.
         -2   -1    0    0    0  501 -0.00000000000E+00 -0.00000000000E+00 -0.52784516666E+02  0.52784516666E+02  0.00000000000E+00 0. -1.
         25    2    1    2    0    0 -0.49144662125E+02 -0.38890735389E+02  0.21590857017E+03  0.25723144298E+03  0.12499526981E+03 0.  0.
         23    2    1    2    0    0  0.49144662125E+02  0.38890735389E+02  0.71021503049E+02  0.13526766356E+03  0.96569145155E+02 0.  0.
          5    1    3    3  502    0  0.20409917702E+02 -0.44084552985E+02  0.26942971374E+02  0.55749674967E+02  0.47000000000E+01 0. -1.
         -5    1    4    4    0  503 -0.91661113465E+01  0.19720236495E+02  0.70263820442E+02  0.73702101650E+02  0.47000000000E+01 0.  1.
          5    1    4    4  503    0  0.58310773472E+02  0.19170498894E+02  0.75768260748E+00  0.61565561913E+02  0.47000000000E+01 0. -1.
         -5    1    3    3    0  502 -0.69554579827E+02  0.51938175966E+01  0.18896559879E+03  0.20148176802E+03  0.47000000000E+01 0. -1.
<mgrwt>
<rscale>  0 0.13319350E+03</rscale>
<asrwt>0</asrwt>
<pdfrwt beam="1">  1        2 0.52263782E-01 0.13982669E+03</pdfrwt>
<pdfrwt beam="2">  1       -2 0.81206951E-02 0.13982669E+03</pdfrwt>
<totfact> 0.83983610E+03</totfact>
</mgrwt>
</event>
<event>
 8    1  0.3217375E-004  0.1276081E+03  0.7546771E-02  0.1244801E+00
          1   -1    0    0  501    0  0.00000000000E+00  0.00000000000E+00  0.10366453566E+03  0.10366453566E+03  0.00000000000E+00 0. -1.
         -1   -1    0    0    0  501 -0.00000000000E+00 -0.00000000000E+00 -0.13533699907E+03  0.13533699907E+03  0.00000000000E+00 0.  1.
         25    2    1    2    0    0 -0.18103365350E+02  0.18096646030E+02  0.20702015389E+02  0.12927644562E+03  0.12501442123E+03 0.  0.
         23    2    1    2    0    0  0.18103365350E+02 -0.18096646030E+02 -0.52374478802E+02  0.10972508911E+03  0.92958532234E+02 0.  0.
          5    1    4    4  502    0 -0.30265948510E+02 -0.17140609758E+02  0.39580223576E+01  0.35321156310E+02  0.47000000000E+01 0. -1.
         -5    1    3    3    0  503  0.29520311160E+02 -0.16580506720E+02 -0.34385418081E+02  0.48485141546E+02  0.47000000000E+01 0. -1.
          5    1    3    3  503    0 -0.47623676510E+02  0.34677152751E+02  0.55087433470E+02  0.80791304071E+02  0.47000000000E+01 0. -1.
         -5    1    4    4    0  502  0.48369313860E+02 -0.95603627229E+00 -0.56332501160E+02  0.74403932797E+02  0.47000000000E+01 0.  1.
<mgrwt>
<rscale>  0 0.11897307E+03</rscale>
<asrwt>0</asrwt>
<pdfrwt beam="1">  1        1 0.15948390E-01 0.12760810E+03</pdfrwt>
<pdfrwt beam="2">  1       -1 0.20821077E-01 0.12760810E+03</pdfrwt>
<totfact> 0.61341374E+03</totfact>
</mgrwt>
</event>
<event>
 8    1  0.3217375E-004  0.1404542E+03  0.7546771E-02  0.1223248E+00
          1   -1    0    0  501    0  0.00000000000E+00  0.00000000000E+00  0.67577902139E+02  0.67577902139E+02  0.00000000000E+00 0. -1.
         -1   -1    0    0    0  501 -0.00000000000E+00 -0.00000000000E+00 -0.28740201719E+03  0.28740201719E+03  0.00000000000E+00 0.  1.
         25    2    1    2    0    0 -0.64008057906E+02 -0.23454381759E+01 -0.45762881643E+02  0.14772146764E+03  0.12499943243E+03 0.  0.
         23    2    1    2    0    0  0.64008057906E+02  0.23454381759E+01 -0.17406123341E+03  0.20725845169E+03  0.92499839274E+02 0.  0.
          5    1    4    4  502    0  0.85138173511E+02 -0.74633447050E+01 -0.15386720420E+03  0.17607219154E+03  0.47000000000E+01 0. -1.
         -5    1    3    3    0  503 -0.89664169038E+02 -0.33119143452E+02 -0.48499142988E+02  0.10728838587E+03  0.47000000000E+01 0. -1.
          5    1    3    3  503    0  0.25656111132E+02  0.30773705276E+02  0.27362613453E+01  0.40433081764E+02  0.47000000000E+01 0. -1.
         -5    1    4    4    0  502 -0.21130115605E+02  0.98087828809E+01 -0.20194029204E+02  0.31186260157E+02  0.47000000000E+01 0.  1.
<mgrwt>
<rscale>  0 0.13287705E+03</rscale>
<asrwt>0</asrwt>
<pdfrwt beam="1">  1        1 0.10396601E-01 0.14045423E+03</pdfrwt>
<pdfrwt beam="2">  1       -1 0.44215694E-01 0.14045423E+03</pdfrwt>
<totfact> 0.30291140E+03</totfact>
</mgrwt>
</event>
<event>
 8    1  0.3217375E-004  0.1357352E+03  0.7546771E-02  0.1226731E+00
          1   -1    0    0  501    0  0.00000000000E+00  0.00000000000E+00  0.19487738823E+03  0.19487738823E+03  0.00000000000E+00 0. -1.
         -1   -1    0    0    0  501 -0.00000000000E+00 -0.00000000000E+00 -0.83557661729E+02  0.83557661729E+02  0.00000000000E+00 0.  1.
         25    2    1    2    0    0  0.16550508019E+02 -0.50220077387E+02  0.82953544192E+02  0.15907653678E+03  0.12501231368E+03 0.  0.
         23    2    1    2    0    0 -0.16550508019E+02  0.50220077387E+02  0.28366182310E+02  0.11935851318E+03  0.10317867455E+03 0.  0.
          5    1    4    4  502    0  0.35982451540E+02  0.49084906165E+02  0.37896871107E+01  0.61159762593E+02  0.47000000000E+01 0. -1.
         -5    1    3    3    0  503  0.32529663848E+02  0.35056967675E+02  0.37900929608E+02  0.61202454835E+02  0.47000000000E+01 0.  1.
          5    1    3    3  503    0 -0.15979155829E+02 -0.85277045062E+02  0.45052614584E+02  0.97874081944E+02  0.47000000000E+01 0.  1.
         -5    1    4    4    0  502 -0.52532959560E+02  0.11351712220E+01  0.24576495200E+02  0.58198750589E+02  0.47000000000E+01 0.  1.
<mgrwt>
<rscale>  0 0.13048984E+03</rscale>
<asrwt>0</asrwt>
<pdfrwt beam="1">  1        1 0.29981137E-01 0.13573524E+03</pdfrwt>
<pdfrwt beam="2">  1       -1 0.12855025E-01 0.13573524E+03</pdfrwt>
<totfact> 0.59352367E+03</totfact>
</mgrwt>
</event>
<event>
 8    1  0.3217375E-004  0.1412151E+03  0.7546771E-02  0.1222156E+00
         -1   -1    0    0    0  501 -0.00000000000E+00  0.00000000000E+00  0.50305296480E+02  0.50305296480E+02  0.00000000000E+00 0.  1.
          1   -1    0    0  501    0  0.00000000000E+00 -0.00000000000E+00 -0.43408778847E+03  0.43408778847E+03  0.00000000000E+00 0. -1.
         25    2    1    2    0    0  0.14609538914E+02 -0.64046709163E+02 -0.33013873365E+03  0.35907280474E+03  0.12500510415E+03 0.  0.
         23    2    1    2    0    0 -0.14609538914E+02  0.64046709163E+02 -0.53643758337E+02  0.12532028021E+03  0.92261044009E+02 0.  0.
          5    1    4    4  502    0 -0.43800458103E+02  0.61826436828E+02 -0.57754043088E+02  0.95386623349E+02  0.47000000000E+01 0. -1.
         -5    1    4    4    0  502  0.29190919190E+02  0.22202723353E+01  0.41102847516E+01  0.29933656862E+02  0.47000000000E+01 0.  1.
          5    1    3    3  503    0  0.31883461454E+01  0.37760954479E+02 -0.76980405347E+02  0.85930949266E+02  0.47000000000E+01 0. -1.
         -5    1    3    3    0  503  0.11421192768E+02 -0.10180766364E+03 -0.25315832830E+03  0.27314185547E+03  0.47000000000E+01 0. -1.
<mgrwt>
<rscale>  0 0.13363758E+03</rscale>
<asrwt>0</asrwt>
<pdfrwt beam="1">  1        1 0.66782740E-01 0.14121507E+03</pdfrwt>
<pdfrwt beam="2">  1       -1 0.77392759E-02 0.14121507E+03</pdfrwt>
<totfact> 0.47637066E+03</totfact>
</mgrwt>
</event>
<event>
 8    1  0.3217375E-004  0.1253822E+03  0.7546771E-02  0.1248936E+00
         -1   -1    0    0    0  501 -0.00000000000E+00  0.00000000000E+00  0.21880849840E+02  0.21880849840E+02  0.00000000000E+00 0.  1.
          1   -1    0    0  501    0  0.00000000000E+00 -0.00000000000E+00 -0.54874461066E+03  0.54874461066E+03  0.00000000000E+00 0. -1.
         25    2    1    2    0    0  0.46292822713E+01 -0.83923699174E+01 -0.28886017807E+03  0.31489824389E+03  0.12501535668E+03 0.  0.
         23    2    1    2    0    0 -0.46292822713E+01  0.83923699174E+01 -0.23800358275E+03  0.25572721660E+03  0.93052897773E+02 0.  0.
          5    1    4    4  502    0  0.36711119893E+01  0.49911557249E+02 -0.11337050257E+03  0.12401452118E+03  0.47000000000E+01 0. -1.
         -5    1    4    4    0  502 -0.83003942606E+01 -0.41519187331E+02 -0.12463308017E+03  0.13171269542E+03  0.47000000000E+01 0.  1.
          5    1    3    3  503    0  0.62538684083E+02  0.54792438937E+01 -0.18052186391E+03  0.19118405391E+03  0.47000000000E+01 0.  1.
         -5    1    3    3    0  503 -0.57909401811E+02 -0.13871613811E+02 -0.10833831416E+03  0.12371418998E+03  0.47000000000E+01 0.  1.
<mgrwt>
<rscale>  0 0.11652855E+03</rscale>
<asrwt>0</asrwt>
<pdfrwt beam="1">  1        1 0.84422246E-01 0.12538222E+03</pdfrwt>
<pdfrwt beam="2">  1       -1 0.33662847E-02 0.12538222E+03</pdfrwt>
<totfact> 0.11962360E+04</totfact>
</mgrwt>
</event>
<event>
 8    1  0.3217375E-004  0.1794924E+03  0.7546771E-02  0.1174144E+00
         -2   -1    0    0    0  501 -0.00000000000E+00  0.00000000000E+00  0.27153161398E+03  0.27153161398E+03  0.00000000000E+00 0.  1.
          2   -1    0    0  501    0  0.00000000000E+00 -0.00000000000E+00 -0.10505806821E+03  0.10505806821E+03  0.00000000000E+00 0. -1.
         25    2    1    2    0    0 -0.11864117062E+03  0.50152221285E+02  0.72634089430E+02  0.19363170045E+03  0.12500620706E+03 0.  0.
         23    2    1    2    0    0  0.11864117062E+03 -0.50152221285E+02  0.93839456340E+02  0.18295798174E+03  0.89871056805E+02 0.  0.
          5    1    3    3  502    0  0.16711561939E+02  0.32069328337E+02 -0.44735683949E+01  0.36739909317E+02  0.47000000000E+01 0.  1.
         -5    1    3    3    0  502 -0.13535273256E+03  0.18082892948E+02  0.77107657825E+02  0.15689179113E+03  0.47000000000E+01 0.  1.
          5    1    4    4  503    0  0.10468314018E+03 -0.22665742670E+02  0.10478000960E+03  0.14991076059E+03  0.47000000000E+01 0.  1.
         -5    1    4    4    0  503  0.13958030445E+02 -0.27486478615E+02 -0.10940553260E+02  0.33047221156E+02  0.47000000000E+01 0. -1.
<mgrwt>
<rscale>  0 0.17360044E+03</rscale>
<asrwt>0</asrwt>
<pdfrwt beam="1">  1        2 0.16162780E-01 0.17949241E+03</pdfrwt>
<pdfrwt beam="2">  1       -2 0.41774094E-01 0.17949241E+03</pdfrwt>
<totfact> 0.19182582E+03</totfact>
</mgrwt>
</event>
<event>
 8    1  0.3217375E-004  0.1283769E+03  0.7546771E-02  0.1243454E+00
         -2   -1    0    0    0  501 -0.00000000000E+00  0.00000000000E+00  0.70634883801E+02  0.70634883801E+02  0.00000000000E+00 0.  1.
          2   -1    0    0  501    0  0.00000000000E+00 -0.00000000000E+00 -0.18438572759E+03  0.18438572759E+03  0.00000000000E+00 0. -1.
         25    2    1    2    0    0  0.27756009656E+02 -0.92765363482E+01 -0.45647245803E+02  0.13625085506E+03  0.12499669699E+03 0.  0.
         23    2    1    2    0    0 -0.27756009656E+02  0.92765363482E+01 -0.68103597987E+02  0.11876975633E+03  0.92799271335E+02 0.  0.
          5    1    3    3  502    0  0.48753265400E+02  0.33480363693E+02 -0.61861750248E+02  0.85713369925E+02  0.47000000000E+01 0.  1.
         -5    1    3    3    0  502 -0.20997255743E+02 -0.42756900041E+02  0.16214504446E+02  0.50537485140E+02  0.47000000000E+01 0.  1.
          5    1    4    4  503    0 -0.38436325667E+02 -0.34538806299E+02 -0.34032268883E+02  0.62052925770E+02  0.47000000000E+01 0. -1.
         -5    1    4    4    0  503  0.10680316010E+02  0.43815342647E+02 -0.34071329104E+02  0.56716830556E+02  0.47000000000E+01 0.  1.
<mgrwt>
<rscale>  0 0.11978386E+03</rscale>
<asrwt>0</asrwt>
<pdfrwt beam="1">  1        2 0.28367035E-01 0.12837688E+03</pdfrwt>
<pdfrwt beam="2">  1       -2 0.10866905E-01 0.12837688E+03</pdfrwt>
<totfact> 0.10164311E+04</totfact>
</mgrwt>
</event>
<event>
 8    1  0.3217375E-004  0.1409305E+03  0.7546771E-02  0.1223140E+00
          4   -1    0    0  501    0  0.00000000000E+00  0.00000000000E+00  0.75597927563E+02  0.75597927563E+02  0.00000000000E+00 0.  1.
         -4   -1    0    0    0  501 -0.00000000000E+00 -0.00000000000E+00 -0.22624471216E+03  0.22624471216E+03  0.00000000000E+00 0. -1.
         25    2    1    2    0    0 -0.35176407146E+02  0.54755032511E+02 -0.12248432144E+03  0.18671853139E+03  0.12500363100E+03 0.  0.
         23    2    1    2    0    0  0.35176407146E+02 -0.54755032511E+02 -0.28162463162E+02  0.11512410833E+03  0.90691470286E+02 0.  0.
          5    1    4    4  502    0  0.83549624282E+01 -0.70070927155E+02 -0.40540926209E+02  0.81519304017E+02  0.47000000000E+01 0. -1.
         -5    1    3    3    0  503  0.58840015333E+01  0.63091721204E+02 -0.71752575643E+01  0.63943420925E+02  0.47000000000E+01 0.  1.
          5    1    3    3  503    0 -0.41060408679E+02 -0.83366886933E+01 -0.11530906387E+03  0.12277511047E+03  0.47000000000E+01 0.  1.
         -5    1    4    4    0  502  0.26821444718E+02  0.15315894644E+02  0.12378463047E+02  0.33604804313E+02  0.47000000000E+01 0.  1.
<mgrwt>
<rscale>  0 0.13295215E+03</rscale>
<asrwt>0</asrwt>
<pdfrwt beam="1">  1        4 0.11630451E-01 0.14093048E+03</pdfrwt>
<pdfrwt beam="2">  1       -4 0.34806877E-01 0.14093048E+03</pdfrwt>
<totfact> 0.78083059E+02</totfact>
</mgrwt>
</event>
<event>
 8    1  0.3217375E-004  0.1270018E+03  0.7546771E-02  0.1244942E+00
          2   -1    0    0  501    0  0.00000000000E+00  0.00000000000E+00  0.75439537213E+02  0.75439537213E+02  0.00000000000E+00 0.  1.
         -2   -1    0    0    0  501 -0.00000000000E+00 -0.00000000000E+00 -0.19921054150E+03  0.19921054150E+03  0.00000000000E+00 0. -1.
         25    2    1    2    0    0  0.62806157485E+01 -0.21549322391E+02 -0.12345994207E+03  0.17712090275E+03  0.12500254983E+03 0.  0.
         23    2    1    2    0    0 -0.62806157485E+01  0.21549322391E+02 -0.31106221641E+00  0.97529175965E+02  0.94910610445E+02 0.  0.
          5    1    4    4  502    0 -0.44221060140E+02  0.18495428926E+02 -0.22566231500E+02  0.53187478368E+02  0.47000000000E+01 0. -1.
         -5    1    3    3    0  503 -0.51957954431E+02 -0.39969579260E+02 -0.62416994333E+02  0.90637561069E+02  0.47000000000E+01 0. -1.
          5    1    3    3  503    0  0.58238570179E+02  0.18420256870E+02 -0.61042947737E+02  0.86483341679E+02  0.47000000000E+01 0. -1.
         -5    1    4    4    0  502  0.37940444392E+02  0.30538934644E+01  0.22255169283E+02  0.44341697597E+02  0.47000000000E+01 0.  1.
<mgrwt>
<rscale>  0 0.11888868E+03</rscale>
<asrwt>0</asrwt>
<pdfrwt beam="1">  1        2 0.11606083E-01 0.12700180E+03</pdfrwt>
<pdfrwt beam="2">  1       -2 0.30647775E-01 0.12700180E+03</pdfrwt>
<totfact> 0.49589073E+03</totfact>
</mgrwt>
</event>
<event>
 8    1  0.3284412E-004  0.2080235E+03  0.7546771E-02  0.1147013E+00
         -4   -1    0    0    0  501 -0.00000000000E+00  0.00000000000E+00  0.56004944961E+02  0.56004944961E+02  0.00000000000E+00 0.  1.
          4   -1    0    0  501    0  0.00000000000E+00 -0.00000000000E+00 -0.70589395541E+03  0.70589395541E+03  0.00000000000E+00 0. -1.
         25    2    1    2    0    0 -0.11129508231E+03 -0.12353551128E+03 -0.33857079918E+03  0.39737129485E+03  0.12500456801E+03 0.  0.
         23    2    1    2    0    0  0.11129508231E+03  0.12353551128E+03 -0.31131821128E+03  0.36452760552E+03  0.91179650255E+02 0.  0.
          5    1    3    3  502    0 -0.99570532671E+01 -0.85957674529E+02 -0.83655295742E+02  0.12044983697E+03  0.47000000000E+01 0.  1.
         -5    1    3    3    0  502 -0.10133802905E+03 -0.37577836753E+02 -0.25491550343E+03  0.27692145788E+03  0.47000000000E+01 0.  1.
          5    1    4    4  503    0  0.55079819643E+02  0.12094399778E+03 -0.22576701610E+03  0.26201922198E+03  0.47000000000E+01 0. -1.
         -5    1    4    4    0  503  0.56215262669E+02  0.25915135011E+01 -0.85551195179E+02  0.10250838354E+03  0.47000000000E+01 0.  1.
<mgrwt>
<rscale>  0 0.20326553E+03</rscale>
<asrwt>0</asrwt>
<pdfrwt beam="1">  1        4 0.10859907E+00 0.20802346E+03</pdfrwt>
<pdfrwt beam="2">  1       -4 0.86161455E-02 0.20802346E+03</pdfrwt>
<totfact> 0.12276961E+02</totfact>
</mgrwt>
</event>
<event>
 8    1  0.3217375E-004  0.1404114E+03  0.7546771E-02  0.1223426E+00
          2   -1    0    0  501    0  0.00000000000E+00  0.00000000000E+00  0.10466002506E+03  0.10466002506E+03  0.00000000000E+00 0. -1.
         -2   -1    0    0    0  501 -0.00000000000E+00 -0.00000000000E+00 -0.15357827543E+03  0.15357827543E+03  0.00000000000E+00 0.  1.
         25    2    1    2    0    0  0.50364785102E+02 -0.39401544772E+02 -0.16040309000E+02  0.14132462932E+03  0.12500506402E+03 0.  0.
         23    2    1    2    0    0 -0.50364785102E+02  0.39401544772E+02 -0.32877941372E+02  0.11691367117E+03  0.92188687856E+02 0.  0.
          5    1    4    4  502    0 -0.53943402645E+02  0.58753030110E+01  0.16525091875E+02  0.56917295577E+02  0.47000000000E+01 0. -1.
         -5    1    4    4    0  502  0.35786175428E+01  0.33526241761E+02 -0.49403033247E+02  0.59996375592E+02  0.47000000000E+01 0.  1.
          5    1    3    3  503    0  0.29597950239E+02 -0.18316995423E+02 -0.70726103703E+02  0.78967225636E+02  0.47000000000E+01 0. -1.
         -5    1    3    3    0  503  0.20766834863E+02 -0.21084549349E+02  0.54685794703E+02  0.62357403680E+02  0.47000000000E+01 0. -1.
<mgrwt>
<rscale>  0 0.13275341E+03</rscale>
<asrwt>0</asrwt>
<pdfrwt beam="1">  1        2 0.16101542E-01 0.14041139E+03</pdfrwt>
<pdfrwt beam="2">  1       -2 0.23627427E-01 0.14041139E+03</pdfrwt>
<totfact> 0.53667762E+03</totfact>
</mgrwt>
</event>
<event>
 8    1  0.3217375E-004  0.1524986E+03  0.7546771E-02  0.1206138E+00
         -3   -1    0    0    0  501 -0.00000000000E+00  0.00000000000E+00  0.32372971653E+03  0.32372971653E+03  0.00000000000E+00 0.  1.
          3   -1    0    0  501    0  0.00000000000E+00 -0.00000000000E+00 -0.64287212499E+02  0.64287212499E+02  0.00000000000E+00 0. -1.
         25    2    1    2    0    0 -0.12090766991E+02  0.86520410319E+02  0.19081852471E+03  0.24426939391E+03  0.12499543743E+03 0.  0.
         23    2    1    2    0    0  0.12090766991E+02 -0.86520410319E+02  0.68623979327E+02  0.14374753513E+03  0.91225737968E+02 0.  0.
          5    1    4    4  502    0 -0.19583766732E+02  0.65022551125E+01 -0.39068695560E+01  0.21521079682E+02  0.47000000000E+01 0. -1.
         -5    1    3    3    0  503 -0.37858459277E+02  0.42382439622E+02  0.12054316178E+02  0.58283193681E+02  0.47000000000E+01 0. -1.
          5    1    3    3  503    0  0.25767692286E+02  0.44137970698E+02  0.17876420853E+03  0.18598620022E+03  0.47000000000E+01 0. -1.
         -5    1    4    4    0  502  0.31674533723E+02 -0.93022665432E+02  0.72530848883E+02  0.12222645544E+03  0.47000000000E+01 0.  1.
<mgrwt>
<rscale>  0 0.14548174E+03</rscale>
<asrwt>0</asrwt>
<pdfrwt beam="1">  1        3 0.98903406E-02 0.15249861E+03</pdfrwt>
<pdfrwt beam="2">  1       -3 0.49804571E-01 0.15249861E+03</pdfrwt>
<totfact> 0.71197109E+02</totfact>
</mgrwt>
</event>
<event>
 8    1  0.3217375E-004  0.1293160E+03  0.7546771E-02  0.1242407E+00
         -2   -1    0    0    0  501 -0.00000000000E+00  0.00000000000E+00  0.99015182488E+02  0.99015182488E+02  0.00000000000E+00 0.  1.
          2   -1    0    0  501    0  0.00000000000E+00 -0.00000000000E+00 -0.13240898797E+03  0.13240898797E+03  0.00000000000E+00 0. -1.
         25    2    1    2    0    0  0.11216481021E+02 -0.31170047913E+02 -0.22974886757E+01  0.12933643435E+03  0.12500101384E+03 0.  0.
         23    2    1    2    0    0 -0.11216481021E+02  0.31170047913E+02 -0.31096316807E+02  0.10208773611E+03  0.91419601904E+02 0.  0.
          5    1    4    4  502    0 -0.20900563337E+02 -0.95844018266E+01 -0.50497846135E+02  0.55684977961E+02  0.47000000000E+01 0. -1.
         -5    1    3    3    0  503 -0.71751523539E+01  0.30501572143E+02  0.40861257657E+02  0.51706489843E+02  0.47000000000E+01 0. -1.
          5    1    3    3  503    0  0.18391633375E+02 -0.61671620056E+02 -0.43158746333E+02  0.77629944503E+02  0.47000000000E+01 0. -1.
         -5    1    4    4    0  502  0.96840823160E+01  0.40754449740E+02  0.19401529328E+02  0.46402758152E+02  0.47000000000E+01 0.  1.
<mgrwt>
<rscale>  0 0.12041942E+03</rscale>
<asrwt>0</asrwt>
<pdfrwt beam="1">  1        2 0.20370613E-01 0.12931603E+03</pdfrwt>
<pdfrwt beam="2">  1       -2 0.15233105E-01 0.12931603E+03</pdfrwt>
<totfact> 0.85269854E+03</totfact>
</mgrwt>
</event>
<event>
 8    1  0.3217375E-004  0.1410413E+03  0.7546771E-02  0.1220861E+00
          2   -1    0    0  501    0  0.00000000000E+00  0.00000000000E+00  0.37648595439E+03  0.37648595439E+03  0.00000000000E+00 0. -1.
         -2   -1    0    0    0  501 -0.00000000000E+00 -0.00000000000E+00 -0.44549307040E+02  0.44549307040E+02  0.00000000000E+00 0.  1.
         25    2    1    2    0    0 -0.41442838140E+02  0.50467049950E+02  0.16151870489E+03  0.21443165485E+03  0.12501284179E+03 0.  0.
         23    2    1    2    0    0  0.41442838140E+02 -0.50467049950E+02  0.17041794247E+03  0.20660360658E+03  0.96841846188E+02 0.  0.
          5    1    4    4  502    0  0.45777761837E+02 -0.21055550435E+02  0.16906292592E+03  0.17647465145E+03  0.47000000000E+01 0. -1.
         -5    1    4    4    0  502 -0.43349236979E+01 -0.29411499515E+02  0.13550165419E+01  0.30128955127E+02  0.47000000000E+01 0.  1.
          5    1    3    3  503    0  0.73484089283E+01 -0.27639334373E+02  0.62949913873E+00  0.28989967015E+02  0.47000000000E+01 0.  1.
         -5    1    3    3    0  503 -0.48791247068E+02  0.78106384323E+02  0.16088920575E+03  0.18544168784E+03  0.47000000000E+01 0.  1.
<mgrwt>
<rscale>  0 0.13454654E+03</rscale>
<asrwt>0</asrwt>
<pdfrwt beam="1">  1        2 0.57920914E-01 0.14104128E+03</pdfrwt>
<pdfrwt beam="2">  1       -2 0.68537398E-02 0.14104128E+03</pdfrwt>
<totfact> 0.97781617E+03</totfact>
</mgrwt>
</event>
<event>
 8    1  0.3217375E-004  0.1665605E+03  0.7546771E-02  0.1189042E+00
          1   -1    0    0  501    0  0.00000000000E+00  0.00000000000E+00  0.14822534142E+03  0.14822534142E+03  0.00000000000E+00 0. -1.
         -1   -1    0    0    0  501 -0.00000000000E+00 -0.00000000000E+00 -0.23324705807E+03  0.23324705807E+03  0.00000000000E+00 0.  1.
         25    2    1    2    0    0  0.71185431407E+02 -0.83955890055E+02  0.62198590763E+02  0.17779496287E+03  0.12500570790E+03 0.  0.
         23    2    1    2    0    0 -0.71185431407E+02  0.83955890055E+02 -0.14722030742E+03  0.20367743662E+03  0.87719565400E+02 0.  0.
          5    1    4    4  502    0 -0.86467816410E+02  0.66971279747E+02 -0.89428217460E+02  0.14135533829E+03  0.47000000000E+01 0. -1.
         -5    1    4    4    0  502  0.15282385003E+02  0.16984610307E+02 -0.57792089959E+02  0.62322098332E+02  0.47000000000E+01 0.  1.
          5    1    3    3  503    0  0.77154812207E+02 -0.10661578175E+03  0.74090431769E+02  0.15110020531E+03  0.47000000000E+01 0.  1.
         -5    1    3    3    0  503 -0.59693808007E+01  0.22659891691E+02 -0.11891841005E+02  0.26694757558E+02  0.47000000000E+01 0.  1.
<mgrwt>
<rscale>  0 0.15969501E+03</rscale>
<asrwt>0</asrwt>
<pdfrwt beam="1">  1        1 0.22803899E-01 0.16656045E+03</pdfrwt>
<pdfrwt beam="2">  1       -1 0.35884163E-01 0.16656045E+03</pdfrwt>
<totfact> 0.15898498E+03</totfact>
</mgrwt>
</event>
<event>
 8    1  0.3217375E-004  0.1860038E+03  0.7546771E-02  0.1167343E+00
         -1   -1    0    0    0  501 -0.00000000000E+00  0.00000000000E+00  0.58488624249E+02  0.58488624249E+02  0.00000000000E+00 0.  1.
          1   -1    0    0  501    0  0.00000000000E+00 -0.00000000000E+00 -0.53614019996E+03  0.53614019996E+03  0.00000000000E+00 0. -1.
         25    2    1    2    0    0 -0.11583323546E+03  0.74574642267E+02 -0.29336607206E+03  0.34736303842E+03  0.12497484756E+03 0.  0.
         23    2    1    2    0    0  0.11583323546E+03 -0.74574642267E+02 -0.18428550366E+03  0.24726578579E+03  0.90556646679E+02 0.  0.
          5    1    4    4  502    0  0.40117700596E+01 -0.47364995535E+02 -0.72046594304E+02  0.86442691142E+02  0.47000000000E+01 0. -1.
         -5    1    4    4    0  502  0.11182146540E+03 -0.27209646732E+02 -0.11223890935E+03  0.16082309465E+03  0.47000000000E+01 0.  1.
          5    1    3    3  503    0 -0.13345819264E+03  0.30514831755E+02 -0.19837984462E+03  0.24107861143E+03  0.47000000000E+01 0. -1.
         -5    1    3    3    0  503  0.17624957179E+02  0.44059810513E+02 -0.94986227435E+02  0.10628442699E+03  0.47000000000E+01 0. -1.
<mgrwt>
<rscale>  0 0.18047667E+03</rscale>
<asrwt>0</asrwt>
<pdfrwt beam="1">  1        1 0.82483109E-01 0.18600384E+03</pdfrwt>
<pdfrwt beam="2">  1       -1 0.89982497E-02 0.18600384E+03</pdfrwt>
<totfact> 0.29100049E+03</totfact>
</mgrwt>
</event>
<event>
 8    1  0.3217375E-004  0.1353708E+03  0.7546771E-02  0.1231386E+00
          1   -1    0    0  501    0  0.00000000000E+00  0.00000000000E+00  0.11696479134E+03  0.11696479134E+03  0.00000000000E+00 0. -1.
         -1   -1    0    0    0  501 -0.00000000000E+00 -0.00000000000E+00 -0.20779949300E+03  0.20779949300E+03  0.00000000000E+00 0.  1.
         25    2    1    2    0    0 -0.49458351525E+02  0.15970381862E+02 -0.15096214602E+03  0.20276791871E+03  0.12499631072E+03 0.  0.
         23    2    1    2    0    0  0.49458351525E+02 -0.15970381862E+02  0.60127444367E+02  0.12199636563E+03  0.92556048041E+02 0.  0.
          5    1    3    3  502    0 -0.84957422194E+02  0.17949308408E+02 -0.14080566901E+03  0.16549401102E+03  0.47000000000E+01 0.  1.
         -5    1    3    3    0  502  0.35499070669E+02 -0.19789265460E+01 -0.10156477006E+02  0.37273907681E+02  0.47000000000E+01 0.  1.
          5    1    4    4  503    0  0.62774494535E+02 -0.14709084243E+00  0.73616865725E+02  0.96861714413E+02  0.47000000000E+01 0. -1.
         -5    1    4    4    0  503 -0.13316143010E+02 -0.15823291020E+02 -0.13489421358E+02  0.25134651220E+02  0.47000000000E+01 0.  1.
<mgrwt>
<rscale>  0 0.12738659E+03</rscale>
<asrwt>0</asrwt>
<pdfrwt beam="1">  1        1 0.17994583E-01 0.13537082E+03</pdfrwt>
<pdfrwt beam="2">  1       -1 0.31969152E-01 0.13537082E+03</pdfrwt>
<totfact> 0.25997524E+03</totfact>
</mgrwt>
</event>
<event>
 8    1  0.3217375E-004  0.1335658E+03  0.7546771E-02  0.1235830E+00
          2   -1    0    0  501    0  0.00000000000E+00  0.00000000000E+00  0.16770657687E+03  0.16770657687E+03  0.00000000000E+00 0.  1.
         -2   -1    0    0    0  501 -0.00000000000E+00 -0.00000000000E+00 -0.82466885064E+02  0.82466885064E+02  0.00000000000E+00 0. -1.
         25    2    1    2    0    0  0.61127006870E+01 -0.46660232054E+02  0.38572708440E+02  0.13902402794E+03  0.12500113657E+03 0.  0.
         23    2    1    2    0    0 -0.61127006870E+01  0.46660232054E+02  0.46666983363E+02  0.11114943399E+03  0.89229182309E+02 0.  0.
          5    1    3    3  502    0  0.19132965957E+02 -0.19222334948E+02  0.81617714715E+02  0.86134255105E+02  0.47000000000E+01 0.  1.
         -5    1    3    3    0  502 -0.13020265270E+02 -0.27437897106E+02 -0.43045006275E+02  0.52889772835E+02  0.47000000000E+01 0.  1.
          5    1    4    4  503    0 -0.27020796737E+02  0.22687253085E+02 -0.17284882215E+02  0.39568826898E+02  0.47000000000E+01 0. -1.
         -5    1    4    4    0  503  0.20908096050E+02  0.23972978969E+02  0.63951865578E+02  0.71580607095E+02  0.47000000000E+01 0.  1.
<mgrwt>
<rscale>  0 0.12451472E+03</rscale>
<asrwt>0</asrwt>
<pdfrwt beam="1">  1        2 0.25801012E-01 0.13356581E+03</pdfrwt>
<pdfrwt beam="2">  1       -2 0.12687213E-01 0.13356581E+03</pdfrwt>
<totfact> 0.88379385E+03</totfact>
</mgrwt>
</event>
<event>
 8    1  0.3217375E-004  0.1454805E+03  0.7546771E-02  0.1216989E+00
          2   -1    0    0  501    0  0.00000000000E+00  0.00000000000E+00  0.52010295773E+03  0.52010295773E+03  0.00000000000E+00 0. -1.
         -2   -1    0    0    0  501 -0.00000000000E+00 -0.00000000000E+00 -0.34305246871E+02  0.34305246871E+02  0.00000000000E+00 0.  1.
         25    2    1    2    0    0  0.17136538178E+02 -0.72411254210E+02  0.21053513996E+03  0.25590938117E+03  0.12501006174E+03 0.  0.
         23    2    1    2    0    0 -0.17136538178E+02  0.72411254210E+02  0.27526257091E+03  0.29849882344E+03  0.88289376337E+02 0.  0.
          5    1    4    4  502    0  0.29375325588E+02  0.59031643466E+02  0.14171388005E+03  0.15637313862E+03  0.47000000000E+01 0. -1.
         -5    1    4    4    0  502 -0.46511863765E+02  0.13379610745E+02  0.13354869085E+03  0.14212568481E+03  0.47000000000E+01 0.  1.
          5    1    3    3  503    0 -0.12926873771E+02 -0.45205528219E+02  0.63407138613E+01  0.47675344774E+02  0.47000000000E+01 0. -1.
         -5    1    3    3    0  503  0.30063411949E+02 -0.27205725992E+02  0.20419442610E+03  0.20823403639E+03  0.47000000000E+01 0. -1.
<mgrwt>
<rscale>  0 0.13731428E+03</rscale>
<asrwt>0</asrwt>
<pdfrwt beam="1">  1        2 0.80015834E-01 0.14548047E+03</pdfrwt>
<pdfrwt beam="2">  1       -2 0.52777307E-02 0.14548047E+03</pdfrwt>
<totfact> 0.10267689E+04</totfact>
</mgrwt>
</event>
<event>
 8    1  0.3217375E-004  0.1409254E+03  0.7546771E-02  0.1222860E+00
          1   -1    0    0  501    0  0.00000000000E+00  0.00000000000E+00  0.77614537268E+02  0.77614537268E+02  0.00000000000E+00 0. -1.
         -1   -1    0    0    0  501 -0.00000000000E+00 -0.00000000000E+00 -0.20706648843E+03  0.20706648843E+03  0.00000000000E+00 0.  1.
         25    2    1    2    0    0  0.64751597948E+02 -0.64371135921E+01 -0.79221984692E+02  0.16166656621E+03  0.12500299958E+03 0.  0.
         23    2    1    2    0    0 -0.64751597948E+02  0.64371135921E+01 -0.50229966472E+02  0.12301445949E+03  0.91516675219E+02 0.  0.
          5    1    4    4  502    0 -0.25941004318E+02  0.24795353494E+02  0.19410529122E+02  0.41068283391E+02  0.47000000000E+01 0. -1.
         -5    1    3    3    0  503  0.91066137441E+02  0.29765997247E+02 -0.53740491526E+02  0.10995083633E+03  0.47000000000E+01 0.  1.
          5    1    3    3  503    0 -0.26314539493E+02 -0.36203110839E+02 -0.25481493166E+02  0.51715729881E+02  0.47000000000E+01 0.  1.
         -5    1    4    4    0  502 -0.38810593630E+02 -0.18358239902E+02 -0.69640495594E+02  0.81946176096E+02  0.47000000000E+01 0.  1.
<mgrwt>
<rscale>  0 0.13314631E+03</rscale>
<asrwt>0</asrwt>
<pdfrwt beam="1">  1        1 0.11940698E-01 0.14092536E+03</pdfrwt>
<pdfrwt beam="2">  1       -1 0.31856382E-01 0.14092536E+03</pdfrwt>
<totfact> 0.44610376E+03</totfact>
</mgrwt>
</event>
<event>
 8    1  0.3217375E-004  0.1311882E+03  0.7546771E-02  0.1239050E+00
          1   -1    0    0  501    0  0.00000000000E+00  0.00000000000E+00  0.28764020328E+02  0.28764020328E+02  0.00000000000E+00 0. -1.
         -1   -1    0    0    0  501 -0.00000000000E+00 -0.00000000000E+00 -0.47614021795E+03  0.47614021795E+03  0.00000000000E+00 0.  1.
         25    2    1    2    0    0 -0.34945771255E+02 -0.19163799034E+02 -0.29443004675E+03  0.32233429034E+03  0.12498753611E+03 0.  0.
         23    2    1    2    0    0  0.34945771255E+02  0.19163799034E+02 -0.15294615087E+03  0.18256994793E+03  0.91382726479E+02 0.  0.
          5    1    3    3  502    0  0.38041235537E+02 -0.20247445115E+01 -0.33966973963E+02  0.51255053524E+02  0.47000000000E+01 0. -1.
         -5    1    3    3    0  502 -0.72987006793E+02 -0.17139054522E+02 -0.26046307278E+03  0.27107923682E+03  0.47000000000E+01 0. -1.
          5    1    4    4  503    0  0.26783376561E+02 -0.25880115400E+02 -0.21408855797E+02  0.43215260495E+02  0.47000000000E+01 0. -1.
         -5    1    4    4    0  503  0.81623946947E+01  0.45043914434E+02 -0.13153729507E+03  0.13935468743E+03  0.47000000000E+01 0.  1.
<mgrwt>
<rscale>  0 0.12248709E+03</rscale>
<asrwt>0</asrwt>
<pdfrwt beam="1">  1        1 0.44252343E-02 0.13118819E+03</pdfrwt>
<pdfrwt beam="2">  1       -1 0.73252335E-01 0.13118819E+03</pdfrwt>
<totfact> 0.36981332E+03</totfact>
</mgrwt>
</event>
<event>
 8    1  0.3217375E-004  0.1449957E+03  0.7546771E-02  0.1217206E+00
          1   -1    0    0  501    0  0.00000000000E+00  0.00000000000E+00  0.15794402692E+02  0.15794402692E+02  0.00000000000E+00 0. -1.
         -1   -1    0    0    0  501 -0.00000000000E+00 -0.00000000000E+00 -0.12079020550E+04  0.12079020550E+04  0.00000000000E+00 0.  1.
         25    2    1    2    0    0 -0.64538835309E+02  0.35116531423E+02 -0.85377918961E+03  0.86600384291E+03  0.12500127712E+03 0.  0.
         23    2    1    2    0    0  0.64538835309E+02 -0.35116531423E+02 -0.33832846265E+03  0.35769261473E+03  0.89885627070E+02 0.  0.
          5    1    3    3  502    0 -0.62444594135E+02  0.78231015873E+02 -0.53790395466E+03  0.54715827109E+03  0.47000000000E+01 0.  1.
         -5    1    4    4    0  503  0.60422914878E+02  0.16695254491E+02 -0.16074916692E+03  0.17260372195E+03  0.47000000000E+01 0.  1.
          5    1    4    4  503    0  0.41159204305E+01 -0.51811785914E+02 -0.17757929573E+03  0.18508889279E+03  0.47000000000E+01 0. -1.
         -5    1    3    3    0  502 -0.20942411738E+01 -0.43114484450E+02 -0.31587523496E+03  0.31884557183E+03  0.47000000000E+01 0.  1.
<mgrwt>
<rscale>  0 0.13715730E+03</rscale>
<asrwt>0</asrwt>
<pdfrwt beam="1">  1        1 0.24299078E-02 0.14499569E+03</pdfrwt>
<pdfrwt beam="2">  1       -1 0.18583111E+00 0.14499569E+03</pdfrwt>
<totfact> 0.94144908E+02</totfact>
</mgrwt>
</event>
<event>
 8    1  0.3217375E-004  0.1383425E+03  0.7546771E-02  0.1226819E+00
          1   -1    0    0  501    0  0.00000000000E+00  0.00000000000E+00  0.70693108679E+03  0.70693108679E+03  0.00000000000E+00 0. -1.
         -1   -1    0    0    0  501 -0.00000000000E+00 -0.00000000000E+00 -0.26164291127E+02  0.26164291127E+02  0.00000000000E+00 0.  1.
         25    2    1    2    0    0  0.24245830428E+02  0.54087903832E+02  0.22273115472E+03  0.26219806094E+03  0.12500117697E+03 0.  0.
         23    2    1    2    0    0 -0.24245830428E+02 -0.54087903832E+02  0.45803564094E+03  0.47089731698E+03  0.91838298816E+02 0.  0.
          5    1    3    3  502    0  0.28765699044E+02 -0.75093478836E+01  0.18955820540E+03  0.19193295439E+03  0.47000000000E+01 0.  1.
         -5    1    4    4    0  503 -0.11815621494E+02  0.25515955759E+02  0.12817424569E+03  0.13130651228E+03  0.47000000000E+01 0.  1.
          5    1    4    4  503    0 -0.12430208935E+02 -0.79603859591E+02  0.32986139526E+03  0.33959080470E+03  0.47000000000E+01 0. -1.
         -5    1    3    3    0  502 -0.45198686159E+01  0.61597251716E+02  0.33172949317E+02  0.70265106544E+02  0.47000000000E+01 0.  1.
<mgrwt>
<rscale>  0 0.13042986E+03</rscale>
<asrwt>0</asrwt>
<pdfrwt beam="1">  1        1 0.10875861E+00 0.13834253E+03</pdfrwt>
<pdfrwt beam="2">  1       -1 0.40252761E-02 0.13834253E+03</pdfrwt>
<totfact> 0.65390946E+03</totfact>
</mgrwt>
</event>
<event>
 8    1  0.3217375E-004  0.1939843E+03  0.7546771E-02  0.1160971E+00
         -2   -1    0    0    0  501 -0.00000000000E+00  0.00000000000E+00  0.36638234922E+03  0.36638234922E+03  0.00000000000E+00 0.  1.
          2   -1    0    0  501    0  0.00000000000E+00 -0.00000000000E+00 -0.94343722227E+02  0.94343722227E+02  0.00000000000E+00 0. -1.
         25    2    1    2    0    0  0.42853236778E+01 -0.14827785452E+03  0.93638533511E+02  0.21540212103E+03  0.12500085057E+03 0.  0.
         23    2    1    2    0    0 -0.42853236778E+01  0.14827785452E+03  0.17840009348E+03  0.24532395042E+03  0.79702955743E+02 0.  0.
          5    1    4    4  502    0 -0.23785192707E+02  0.33003129260E+02  0.89340685027E+02  0.98279142925E+02  0.47000000000E+01 0.  1.
         -5    1    3    3    0  503 -0.31899247176E+02 -0.14633268081E+03  0.97325669674E+02  0.17867621952E+03  0.47000000000E+01 0.  1.
          5    1    3    3  503    0  0.36184570854E+02 -0.19451737157E+01 -0.36871361632E+01  0.36725901511E+02  0.47000000000E+01 0.  1.
         -5    1    4    4    0  502  0.19499869029E+02  0.11527472526E+03  0.89059408454E+02  0.14704480749E+03  0.47000000000E+01 0. -1.
<mgrwt>
<rscale>  0 0.18724400E+03</rscale>
<asrwt>0</asrwt>
<pdfrwt beam="1">  1        2 0.14514419E-01 0.19398427E+03</pdfrwt>
<pdfrwt beam="2">  1       -2 0.56366514E-01 0.19398427E+03</pdfrwt>
<totfact> 0.12072560E+03</totfact>
</mgrwt>
</event>
<event>
 8    1  0.3217375E-004  0.1616885E+03  0.7546771E-02  0.1194327E+00
          2   -1    0    0  501    0  0.00000000000E+00  0.00000000000E+00  0.52920759841E+03  0.52920759841E+03  0.00000000000E+00 0. -1.
         -2   -1    0    0    0  501 -0.00000000000E+00 -0.00000000000E+00 -0.52911669964E+02  0.52911669964E+02  0.00000000000E+00 0.  1.
         25    2    1    2    0    0  0.18460991862E+02  0.10088886196E+03  0.12283489076E+03  0.20305560665E+03  0.12499519317E+03 0.  0.
         23    2    1    2    0    0 -0.18460991862E+02 -0.10088886196E+03  0.35346103768E+03  0.37906366172E+03  0.90747913428E+02 0.  0.
          5    1    4    4  502    0 -0.40084742043E+02 -0.20611789711E+02  0.19338693367E+03  0.19862585062E+03  0.47000000000E+01 0. -1.
         -5    1    4    4    0  502  0.21623750182E+02 -0.80277072247E+02  0.16007410401E+03  0.18043781110E+03  0.47000000000E+01 0.  1.
          5    1    3    3  503    0  0.25032998437E+02  0.73058657522E+02  0.14647700087E+03  0.16565572805E+03  0.47000000000E+01 0. -1.
         -5    1    3    3    0  503 -0.65720065749E+01  0.27830204437E+02 -0.23642110107E+02  0.37399878606E+02  0.47000000000E+01 0. -1.
<mgrwt>
<rscale>  0 0.15511282E+03</rscale>
<asrwt>0</asrwt>
<pdfrwt beam="1">  1        2 0.81416550E-01 0.16168849E+03</pdfrwt>
<pdfrwt beam="2">  1       -2 0.81402573E-02 0.16168849E+03</pdfrwt>
<totfact> 0.52231922E+03</totfact>
</mgrwt>
</event>
<event>
 8    1  0.3217375E-004  0.1367987E+03  0.7546771E-02  0.1230031E+00
         -2   -1    0    0    0  501 -0.00000000000E+00  0.00000000000E+00  0.61652748876E+02  0.61652748876E+02  0.00000000000E+00 0.  1.
          2   -1    0    0  501    0  0.00000000000E+00 -0.00000000000E+00 -0.25320002958E+03  0.25320002958E+03  0.00000000000E+00 0. -1.
         25    2    1    2    0    0 -0.54670219780E+02 -0.10054672549E+02 -0.14482020849E+03  0.19921539025E+03  0.12499579814E+03 0.  0.
         23    2    1    2    0    0  0.54670219780E+02  0.10054672549E+02 -0.46727072212E+02  0.11563738821E+03  0.89992538044E+02 0.  0.
          5    1    3    3  502    0  0.39432417985E+00  0.27412358172E+02  0.10829915813E+02  0.29849119729E+02  0.47000000000E+01 0. -1.
         -5    1    3    3    0  502 -0.55064543960E+02 -0.37467030720E+02 -0.15565012430E+03  0.16936627052E+03  0.47000000000E+01 0. -1.
          5    1    4    4  503    0  0.63506398121E+02 -0.23174319022E+02 -0.16812547749E+02  0.69820222187E+02  0.47000000000E+01 0. -1.
         -5    1    4    4    0  503 -0.88361783411E+01  0.33228991570E+02 -0.29914524463E+02  0.45817166022E+02  0.47000000000E+01 0.  1.
<mgrwt>
<rscale>  0 0.12827982E+03</rscale>
<asrwt>0</asrwt>
<pdfrwt beam="1">  1        2 0.38953851E-01 0.13679868E+03</pdfrwt>
<pdfrwt beam="2">  1       -2 0.94850383E-02 0.13679868E+03</pdfrwt>
<totfact> 0.89962638E+03</totfact>
</mgrwt>
</event>
<event>
 8    1  0.3217375E-004  0.1289772E+03  0.7546771E-02  0.1243624E+00
         -1   -1    0    0    0  501 -0.00000000000E+00  0.00000000000E+00  0.79418358416E+02  0.79418358416E+02  0.00000000000E+00 0.  1.
          1   -1    0    0  501    0  0.00000000000E+00 -0.00000000000E+00 -0.15900632149E+03  0.15900632149E+03  0.00000000000E+00 0. -1.
         25    2    1    2    0    0  0.25513079094E+02  0.18893448062E+02 -0.49970720713E+02  0.13831917087E+03  0.12500896175E+03 0.  0.
         23    2    1    2    0    0 -0.25513079094E+02 -0.18893448062E+02 -0.29617242359E+02  0.10010550903E+03  0.90200068233E+02 0.  0.
          5    1    3    3  502    0  0.21532886998E+02  0.67918792265E+02 -0.52832586313E+02  0.88825670511E+02  0.47000000000E+01 0. -1.
         -5    1    4    4    0  503  0.22947168202E+02 -0.31983722327E+02  0.34793969107E+01  0.39796070475E+02  0.47000000000E+01 0.  1.
          5    1    4    4  503    0 -0.48460247295E+02  0.13090274265E+02 -0.33096639270E+02  0.60309438558E+02  0.47000000000E+01 0. -1.
         -5    1    3    3    0  502  0.39801920957E+01 -0.49025344203E+02  0.28618655999E+01  0.49493500361E+02  0.47000000000E+01 0. -1.
<mgrwt>
<rscale>  0 0.11968131E+03</rscale>
<asrwt>0</asrwt>
<pdfrwt beam="1">  1        1 0.24462511E-01 0.12897721E+03</pdfrwt>
<pdfrwt beam="2">  1       -1 0.12218209E-01 0.12897721E+03</pdfrwt>
<totfact> 0.82476824E+03</totfact>
</mgrwt>
</event>
<event>
 8    1  0.3217375E-004  0.1285606E+03  0.7546771E-02  0.1241297E+00
          2   -1    0    0  501    0  0.00000000000E+00  0.00000000000E+00  0.78572689789E+03  0.78572689789E+03  0.00000000000E+00 0. -1.
         -2   -1    0    0    0  501 -0.00000000000E+00 -0.00000000000E+00 -0.17915843285E+02  0.17915843285E+02  0.00000000000E+00 0.  1.
         25    2    1    2    0    0 -0.28733209952E+02  0.87976957904E+01  0.32704363694E+03  0.35140486210E+03  0.12499935936E+03 0.  0.
         23    2    1    2    0    0  0.28733209952E+02 -0.87976957904E+01  0.44076741766E+03  0.45223787907E+03  0.96644637666E+02 0.  0.
          5    1    4    4  502    0  0.62540479299E+01 -0.43798053684E+02  0.34316118221E+03  0.34603333596E+03  0.47000000000E+01 0. -1.
         -5    1    3    3    0  503 -0.50280617168E+02  0.27138272044E+02  0.60597636140E+02  0.83419360930E+02  0.47000000000E+01 0. -1.
          5    1    3    3  503    0  0.21547407216E+02 -0.18340576253E+02  0.26644600080E+03  0.26798550117E+03  0.47000000000E+01 0. -1.
         -5    1    4    4    0  502  0.22479162022E+02  0.35000357893E+02  0.97606235456E+02  0.10620454311E+03  0.47000000000E+01 0.  1.
<mgrwt>
<rscale>  0 0.12109755E+03</rscale>
<asrwt>0</asrwt>
<pdfrwt beam="1">  1        2 0.12088103E+00 0.12856063E+03</pdfrwt>
<pdfrwt beam="2">  1       -2 0.27562842E-02 0.12856063E+03</pdfrwt>
<totfact> 0.16531936E+04</totfact>
</mgrwt>
</event>
<event>
 8    1  0.3217375E-004  0.2233607E+03  0.7546771E-02  0.1134554E+00
         -1   -1    0    0    0  501 -0.00000000000E+00  0.00000000000E+00  0.16454609680E+03  0.16454609680E+03  0.00000000000E+00 0.  1.
          1   -1    0    0  501    0  0.00000000000E+00 -0.00000000000E+00 -0.42607739177E+03  0.42607739177E+03  0.00000000000E+00 0. -1.
         25    2    1    2    0    0  0.13923516846E+03  0.12197634498E+03  0.38064015524E+02  0.22658083413E+03  0.12500137697E+03 0.  0.
         23    2    1    2    0    0 -0.13923516846E+03 -0.12197634498E+03 -0.29959531049E+03  0.36404265445E+03  0.92222791743E+02 0.  0.
          5    1    4    4  502    0 -0.18398929015E+02 -0.62334128306E+02 -0.14461088314E+03  0.15861419124E+03  0.47000000000E+01 0. -1.
         -5    1    4    4    0  502 -0.12083623945E+03 -0.59642216673E+02 -0.15498442735E+03  0.20542846321E+03  0.47000000000E+01 0.  1.
          5    1    3    3  503    0  0.10192234038E+03  0.12747204375E+03  0.69309853547E+02  0.17737877890E+03  0.47000000000E+01 0.  1.
         -5    1    3    3    0  503  0.37312828084E+02 -0.54956987698E+01 -0.31245838023E+02  0.49202055225E+02  0.47000000000E+01 0.  1.
<mgrwt>
<rscale>  0 0.21910239E+03</rscale>
<asrwt>0</asrwt>
<pdfrwt beam="1">  1        1 0.65550369E-01 0.22336071E+03</pdfrwt>
<pdfrwt beam="2">  1       -1 0.25314784E-01 0.22336071E+03</pdfrwt>
<totfact> 0.76338283E+02</totfact>
</mgrwt>
</event>
<event>
 8    1  0.3217375E-004  0.1281648E+03  0.7546771E-02  0.1246080E+00
          2   -1    0    0  501    0  0.00000000000E+00  0.00000000000E+00  0.34196920279E+03  0.34196920279E+03  0.00000000000E+00 0. -1.
         -2   -1    0    0    0  501 -0.00000000000E+00 -0.00000000000E+00 -0.36233465699E+02  0.36233465699E+02  0.00000000000E+00 0.  1.
         25    2    1    2    0    0  0.26654809409E+02 -0.94952703418E+01  0.20012688067E+03  0.23764889249E+03  0.12500235482E+03 0.  0.
         23    2    1    2    0    0 -0.26654809409E+02  0.94952703418E+01  0.10560885642E+03  0.14055377600E+03  0.88326068460E+02 0.  0.
          5    1    4    4  502    0 -0.35743254110E+02  0.29022464973E+02  0.10884134249E+03  0.11827261527E+03  0.47000000000E+01 0. -1.
         -5    1    3    3    0  503 -0.20123003356E+00 -0.64738006916E+02  0.83600791222E+02  0.10584059867E+03  0.47000000000E+01 0.  1.
          5    1    3    3  503    0  0.26856039442E+02  0.55242736575E+02  0.11652608945E+03  0.13180829383E+03  0.47000000000E+01 0.  1.
         -5    1    4    4    0  502  0.90884447010E+01 -0.19527194632E+02 -0.32324860699E+01  0.22281160730E+02  0.47000000000E+01 0.  1.
<mgrwt>
<rscale>  0 0.11820952E+03</rscale>
<asrwt>0</asrwt>
<pdfrwt beam="1">  1        2 0.52610644E-01 0.12816485E+03</pdfrwt>
<pdfrwt beam="2">  1       -2 0.55743796E-02 0.12816485E+03</pdfrwt>
<totfact> 0.14712959E+04</totfact>
</mgrwt>
</event>
<event>
 8    1  0.3217375E-004  0.1399085E+03  0.7546771E-02  0.1223201E+00
         -2   -1    0    0    0  501 -0.00000000000E+00  0.00000000000E+00  0.87382970841E+02  0.87382970841E+02  0.00000000000E+00 0. -1.
          2   -1    0    0  501    0  0.00000000000E+00 -0.00000000000E+00 -0.25468366129E+03  0.25468366129E+03  0.00000000000E+00 0.  1.
         25    2    1    2    0    0  0.37177897254E+02  0.50667564087E+02 -0.17937396878E+03  0.22748493417E+03  0.12499990602E+03 0.  0.
         23    2    1    2    0    0 -0.37177897254E+02 -0.50667564087E+02  0.12073278323E+02  0.11458169797E+03  0.95046322205E+02 0.  0.
          5    1    4    4  502    0 -0.12890956324E+02 -0.39197107408E+02  0.51803242756E+02  0.66394698163E+02  0.47000000000E+01 0. -1.
         -5    1    4    4    0  502 -0.24286940931E+02 -0.11470456679E+02 -0.39729964434E+02  0.48186999804E+02  0.47000000000E+01 0.  1.
          5    1    3    3  503    0  0.34807661498E+02  0.11288596973E+02 -0.18384015844E+03  0.18750546545E+03  0.47000000000E+01 0.  1.
         -5    1    3    3    0  503  0.23702357565E+01  0.39378967114E+02  0.44661896632E+01  0.39979468714E+02  0.47000000000E+01 0.  1.
<mgrwt>
<rscale>  0 0.13290940E+03</rscale>
<asrwt>0</asrwt>
<pdfrwt beam="1">  1        2 0.39182101E-01 0.13990845E+03</pdfrwt>
<pdfrwt beam="2">  1       -2 0.13443534E-01 0.13990845E+03</pdfrwt>
<totfact> 0.51437413E+03</totfact>
</mgrwt>
</event>
<event>
 8    1  0.3217375E-004  0.1349079E+03  0.7546771E-02  0.1231733E+00
          3   -1    0    0  501    0  0.00000000000E+00  0.00000000000E+00  0.75804051313E+03  0.75804051313E+03  0.00000000000E+00 0. -1.
         -3   -1    0    0    0  501 -0.00000000000E+00 -0.00000000000E+00 -0.19501447330E+02  0.19501447330E+02  0.00000000000E+00 0.  1.
         25    2    1    2    0    0  0.13030310229E+02 -0.49041340792E+02  0.36549459205E+03  0.38959778287E+03  0.12500117403E+03 0.  0.
         23    2    1    2    0    0 -0.13030310229E+02  0.49041340792E+02  0.37304447375E+03  0.38794417759E+03  0.93614440331E+02 0.  0.
          5    1    4    4  502    0  0.79249791247E+01 -0.23729604170E+02  0.15498579857E+03  0.15706236712E+03  0.47000000000E+01 0. -1.
         -5    1    3    3    0  503  0.65241193917E+02 -0.44879600548E+02  0.17815934264E+03  0.19502162265E+03  0.47000000000E+01 0. -1.
          5    1    3    3  503    0 -0.52210883688E+02 -0.41617402443E+01  0.18733524941E+03  0.19457616022E+03  0.47000000000E+01 0. -1.
         -5    1    4    4    0  502 -0.20955289353E+02  0.72770944962E+02  0.21805867518E+03  0.23088181047E+03  0.47000000000E+01 0.  1.
<mgrwt>
<rscale>  0 0.12715910E+03</rscale>
<asrwt>0</asrwt>
<pdfrwt beam="1">  1        3 0.11662159E+00 0.13490788E+03</pdfrwt>
<pdfrwt beam="2">  1       -3 0.30002232E-02 0.13490788E+03</pdfrwt>
<totfact> 0.74763674E+02</totfact>
</mgrwt>
</event>
<event>
 8    1  0.3217375E-004  0.1251363E+03  0.7546771E-02  0.1249006E+00
          2   -1    0    0  501    0  0.00000000000E+00  0.00000000000E+00  0.57063288887E+03  0.57063288887E+03  0.00000000000E+00 0. -1.
         -2   -1    0    0    0  501 -0.00000000000E+00 -0.00000000000E+00 -0.23857602470E+02  0.23857602470E+02  0.00000000000E+00 0.  1.
         25    2    1    2    0    0  0.11447102530E+01  0.57341667103E+01  0.20629207044E+03  0.24127892011E+03  0.12499963174E+03 0.  0.
         23    2    1    2    0    0 -0.11447102530E+01 -0.57341667103E+01  0.34048321597E+03  0.35321157123E+03  0.93783808145E+02 0.  0.
          5    1    3    3  502    0  0.49622230006E+02  0.41074769831E+02  0.11607054137E+03  0.13283058007E+03  0.47000000000E+01 0.  1.
         -5    1    3    3    0  502 -0.48477519753E+02 -0.35340603121E+02  0.90221529070E+02  0.10844834004E+03  0.47000000000E+01 0.  1.
          5    1    4    4  503    0 -0.46144904698E+02  0.32311457929E+01  0.14112884179E+03  0.14859082246E+03  0.47000000000E+01 0. -1.
         -5    1    4    4    0  503  0.45000194445E+02 -0.89653125032E+01  0.19935437417E+03  0.20462074878E+03  0.47000000000E+01 0.  1.
<mgrwt>
<rscale>  0 0.11648772E+03</rscale>
<asrwt>0</asrwt>
<pdfrwt beam="1">  1        2 0.87789665E-01 0.12513632E+03</pdfrwt>
<pdfrwt beam="2">  1       -2 0.36704008E-02 0.12513632E+03</pdfrwt>
<totfact> 0.15746046E+04</totfact>
</mgrwt>
</event>
<event>
 8    1  0.3217375E-004  0.1376917E+03  0.7546771E-02  0.1227686E+00
          2   -1    0    0  501    0  0.00000000000E+00  0.00000000000E+00  0.72635532633E+03  0.72635532633E+03  0.00000000000E+00 0. -1.
         -2   -1    0    0    0  501 -0.00000000000E+00 -0.00000000000E+00 -0.24440660537E+02  0.24440660537E+02  0.00000000000E+00 0.  1.
         25    2    1    2    0    0 -0.33737747024E+02  0.46851735173E+02  0.24455456786E+03  0.28065270129E+03  0.12500272565E+03 0.  0.
         23    2    1    2    0    0  0.33737747024E+02 -0.46851735173E+02  0.45736009794E+03  0.47014328557E+03  0.92320794651E+02 0.  0.
          5    1    3    3  502    0 -0.27795376548E+02 -0.27687383726E+02  0.20728956607E+02  0.44620105525E+02  0.47000000000E+01 0.  1.
         -5    1    3    3    0  502 -0.59423704761E+01  0.74539118898E+02  0.22382561125E+03  0.23603259577E+03  0.47000000000E+01 0.  1.
          5    1    4    4  503    0 -0.30643515002E+02 -0.38562651111E+01  0.13992928806E+03  0.14337430540E+03  0.47000000000E+01 0.  1.
         -5    1    4    4    0  503  0.64381262026E+02 -0.42995470061E+02  0.31743080988E+03  0.32676898018E+03  0.47000000000E+01 0. -1.
<mgrwt>
<rscale>  0 0.12984497E+03</rscale>
<asrwt>0</asrwt>
<pdfrwt beam="1">  1        2 0.11174696E+00 0.13769169E+03</pdfrwt>
<pdfrwt beam="2">  1       -2 0.37601022E-02 0.13769169E+03</pdfrwt>
<totfact> 0.11569012E+04</totfact>
</mgrwt>
</event>
<event>
 8    1  0.3217375E-004  0.1316335E+03  0.7546771E-02  0.1238352E+00
         -1   -1    0    0    0  501 -0.00000000000E+00  0.00000000000E+00  0.11098959450E+03  0.11098959450E+03  0.00000000000E+00 0.  1.
          1   -1    0    0  501    0  0.00000000000E+00 -0.00000000000E+00 -0.13403784751E+03  0.13403784751E+03  0.00000000000E+00 0. -1.
         25    2    1    2    0    0 -0.64310975748E+01  0.40757776130E+02 -0.50890187807E+02  0.14112831413E+03  0.12499933801E+03 0.  0.
         23    2    1    2    0    0  0.64310975748E+01 -0.40757776130E+02  0.27841934797E+02  0.10389912788E+03  0.91199233054E+02 0.  0.
          5    1    4    4  502    0 -0.19262888588E+02  0.16841017663E+02 -0.12521937353E+02  0.28871571965E+02  0.47000000000E+01 0. -1.
         -5    1    4    4    0  502  0.25693986163E+02 -0.57598793794E+02  0.40363872149E+02  0.75027555913E+02  0.47000000000E+01 0.  1.
          5    1    3    3  503    0 -0.26770194143E+02  0.77317798126E+02 -0.10217246051E+02  0.82590358507E+02  0.47000000000E+01 0. -1.
         -5    1    3    3    0  503  0.20339096568E+02 -0.36560021996E+02 -0.40672941756E+02  0.58537955624E+02  0.47000000000E+01 0. -1.
<mgrwt>
<rscale>  0 0.12292285E+03</rscale>
<asrwt>0</asrwt>
<pdfrwt beam="1">  1        1 0.20621207E-01 0.13163354E+03</pdfrwt>
<pdfrwt beam="2">  1       -1 0.17075322E-01 0.13163354E+03</pdfrwt>
<totfact> 0.60752116E+03</totfact>
</mgrwt>
</event>
<event>
 8    1  0.3217375E-004  0.1671299E+03  0.7546771E-02  0.1187579E+00
          2   -1    0    0  501    0  0.00000000000E+00  0.00000000000E+00  0.18652888878E+04  0.18652888878E+04  0.00000000000E+00 0.  1.
         -2   -1    0    0    0  501 -0.00000000000E+00 -0.00000000000E+00 -0.15606315193E+02  0.15606315193E+02  0.00000000000E+00 0. -1.
         25    2    1    2    0    0 -0.40650978544E+02 -0.10322255750E+03  0.59630346764E+03  0.61928202252E+03  0.12499999785E+03 0.  0.
         23    2    1    2    0    0  0.40650978544E+02  0.10322255750E+03  0.12533791050E+04  0.12616131805E+04  0.91658267188E+02 0.  0.
          5    1    3    3  502    0 -0.45914964650E+02  0.77371525332E+01  0.96343469326E+02  0.10710836377E+03  0.47000000000E+01 0. -1.
         -5    1    3    3    0  502  0.52639861063E+01 -0.11095971003E+03  0.49995999832E+03  0.51217365875E+03  0.47000000000E+01 0. -1.
          5    1    4    4  503    0  0.48052241192E+01  0.10554281817E+03  0.10153893567E+04  0.10208819777E+04  0.47000000000E+01 0. -1.
         -5    1    4    4    0  503  0.35845754425E+02 -0.23202606701E+01  0.23798974831E+03  0.24073120284E+03  0.47000000000E+01 0.  1.
<mgrwt>
<rscale>  0 0.16099394E+03</rscale>
<asrwt>0</asrwt>
<pdfrwt beam="1">  1        2 0.28696735E+00 0.16712988E+03</pdfrwt>
<pdfrwt beam="2">  1       -2 0.24009730E-02 0.16712988E+03</pdfrwt>
<totfact> 0.51313670E+03</totfact>
</mgrwt>
</event>
<event>
 8    1  0.3217375E-004  0.1319357E+03  0.7546771E-02  0.1237418E+00
          1   -1    0    0  501    0  0.00000000000E+00  0.00000000000E+00  0.25320385762E+03  0.25320385762E+03  0.00000000000E+00 0. -1.
         -1   -1    0    0    0  501 -0.00000000000E+00 -0.00000000000E+00 -0.61090798475E+02  0.61090798475E+02  0.00000000000E+00 0.  1.
         25    2    1    2    0    0  0.25261192603E+02 -0.33825993383E+02  0.52974828919E+02  0.14217369908E+03  0.12499881012E+03 0.  0.
         23    2    1    2    0    0 -0.25261192603E+02  0.33825993383E+02  0.13913823023E+03  0.17212095702E+03  0.92107822979E+02 0.  0.
          5    1    3    3  502    0  0.59968603752E+02  0.20085813053E+02  0.84653230120E+01  0.63979879772E+02  0.47000000000E+01 0. -1.
         -5    1    4    4    0  503  0.23095833201E+02 -0.12795094523E+02  0.14575265795E+02  0.30523111377E+02  0.47000000000E+01 0.  1.
          5    1    4    4  503    0 -0.48357025804E+02  0.46621087906E+02  0.12456296443E+03  0.14159784564E+03  0.47000000000E+01 0. -1.
         -5    1    3    3    0  502 -0.34707411149E+02 -0.53911806435E+02  0.44509505907E+02  0.78193819308E+02  0.47000000000E+01 0. -1.
<mgrwt>
<rscale>  0 0.12350878E+03</rscale>
<asrwt>0</asrwt>
<pdfrwt beam="1">  1        1 0.38954439E-01 0.13193570E+03</pdfrwt>
<pdfrwt beam="2">  1       -1 0.93985845E-02 0.13193570E+03</pdfrwt>
<totfact> 0.69253201E+03</totfact>
</mgrwt>
</event>
<event>
 8    1  0.3217375E-004  0.1540702E+03  0.7546771E-02  0.1204155E+00
          1   -1    0    0  501    0  0.00000000000E+00  0.00000000000E+00  0.79320008431E+02  0.79320008431E+02  0.00000000000E+00 0. -1.
         -1   -1    0    0    0  501 -0.00000000000E+00 -0.00000000000E+00 -0.26559453043E+03  0.26559453043E+03  0.00000000000E+00 0.  1.
         25    2    1    2    0    0 -0.66995897495E+02  0.60197311606E+02 -0.14231761382E+03  0.20974254212E+03  0.12500185665E+03 0.  0.
         23    2    1    2    0    0  0.66995897495E+02 -0.60197311606E+02 -0.43956908177E+02  0.13517199674E+03  0.90703320340E+02 0.  0.
          5    1    3    3  502    0  0.35268631557E+02  0.25520511677E+02 -0.25846197579E+02  0.50845735489E+02  0.47000000000E+01 0.  1.
         -5    1    4    4    0  503  0.87824562877E+02 -0.56210205970E+02 -0.44440731767E+02  0.11344518385E+03  0.47000000000E+01 0.  1.
          5    1    4    4  503    0 -0.20828665382E+02 -0.39871056369E+01  0.48382358961E+00  0.21726812887E+02  0.47000000000E+01 0. -1.
         -5    1    3    3    0  502 -0.10226452905E+03  0.34676799929E+02 -0.11647141624E+03  0.15889680663E+03  0.47000000000E+01 0.  1.
<mgrwt>
<rscale>  0 0.14704256E+03</rscale>
<asrwt>0</asrwt>
<pdfrwt beam="1">  1        1 0.12203078E-01 0.15407021E+03</pdfrwt>
<pdfrwt beam="2">  1       -1 0.40860697E-01 0.15407021E+03</pdfrwt>
<totfact> 0.28334322E+03</totfact>
</mgrwt>
</event>
<event>
 8    1  0.3217375E-004  0.1505362E+03  0.7546771E-02  0.1209444E+00
          1   -1    0    0  501    0  0.00000000000E+00  0.00000000000E+00  0.90028710049E+02  0.90028710049E+02  0.00000000000E+00 0. -1.
         -1   -1    0    0    0  501 -0.00000000000E+00 -0.00000000000E+00 -0.22698520647E+03  0.22698520647E+03  0.00000000000E+00 0.  1.
         25    2    1    2    0    0  0.64406495510E+02  0.53738321606E+02 -0.12201653400E+03  0.19377610240E+03  0.12500055767E+03 0.  0.
         23    2    1    2    0    0 -0.64406495510E+02 -0.53738321606E+02 -0.14939962412E+02  0.12323781412E+03  0.89041296477E+02 0.  0.
          5    1    4    4  502    0 -0.52316831581E+02 -0.60057316339E+00  0.22297770912E+02  0.57067435043E+02  0.47000000000E+01 0. -1.
         -5    1    4    4    0  502 -0.12089663929E+02 -0.53137748443E+02 -0.37237733324E+02  0.66170379073E+02  0.47000000000E+01 0.  1.
          5    1    3    3  503    0  0.56273471502E+02  0.90501235568E+02 -0.11170051363E+03  0.15445475707E+03  0.47000000000E+01 0.  1.
         -5    1    3    3    0  503  0.81330240084E+01 -0.36762913962E+02 -0.10316020370E+02  0.39321345333E+02  0.47000000000E+01 0.  1.
<mgrwt>
<rscale>  0 0.14292656E+03</rscale>
<asrwt>0</asrwt>
<pdfrwt beam="1">  1        1 0.13850571E-01 0.15053619E+03</pdfrwt>
<pdfrwt beam="2">  1       -1 0.34920801E-01 0.15053619E+03</pdfrwt>
<totfact> 0.31518501E+03</totfact>
</mgrwt>
</event>
<event>
 8    1  0.3217375E-004  0.2097088E+03  0.7546771E-02  0.1145645E+00
          1   -1    0    0  501    0  0.00000000000E+00  0.00000000000E+00  0.99389673682E+02  0.99389673682E+02  0.00000000000E+00 0. -1.
         -1   -1    0    0    0  501 -0.00000000000E+00 -0.00000000000E+00 -0.42433976838E+03  0.42433976838E+03  0.00000000000E+00 0.  1.
         25    2    1    2    0    0  0.15159598709E+03  0.73297329966E+02 -0.11284539037E+03  0.23814251089E+03  0.12499572587E+03 0.  0.
         23    2    1    2    0    0 -0.15159598709E+03 -0.73297329966E+02 -0.21210470432E+03  0.28558693117E+03  0.90651242543E+02 0.  0.
          5    1    4    4  502    0 -0.86747814566E+02  0.14191669401E+01 -0.66164266805E+02  0.10921079419E+03  0.47000000000E+01 0. -1.
         -5    1    4    4    0  502 -0.64848172522E+02 -0.74716496906E+02 -0.14594043752E+03  0.17637613697E+03  0.47000000000E+01 0.  1.
          5    1    3    3  503    0  0.81820346482E+01  0.46981907220E+02  0.81539748930E+01  0.48608873712E+02  0.47000000000E+01 0. -1.
         -5    1    3    3    0  503  0.14341395244E+03  0.26315422745E+02 -0.12099936526E+03  0.18953363718E+03  0.47000000000E+01 0. -1.
<mgrwt>
<rscale>  0 0.20492988E+03</rscale>
<asrwt>0</asrwt>
<pdfrwt beam="1">  1        1 0.15290719E-01 0.20970878E+03</pdfrwt>
<pdfrwt beam="2">  1       -1 0.65283040E-01 0.20970878E+03</pdfrwt>
<totfact> 0.89243648E+02</totfact>
</mgrwt>
</event>
<event>
 8    1  0.3217375E-004  0.1276629E+03  0.7546771E-02  0.1244011E+00
          1   -1    0    0  501    0  0.00000000000E+00  0.00000000000E+00  0.23915403016E+02  0.23915403016E+02  0.00000000000E+00 0. -1.
         -1   -1    0    0    0  501 -0.00000000000E+00 -0.00000000000E+00 -0.56427971223E+03  0.56427971223E+03  0.00000000000E+00 0.  1.
         25    2    1    2    0    0 -0.22137777632E+01  0.25841878762E+02 -0.23362948389E+03  0.26623402257E+03  0.12500046209E+03 0.  0.
         23    2    1    2    0    0  0.22137777632E+01 -0.25841878762E+02 -0.30673482533E+03  0.32196109268E+03  0.94339751004E+02 0.  0.
          5    1    3    3  502    0  0.20929646209E+02  0.11478944488E+02 -0.23712809322E+03  0.23837289873E+03  0.47000000000E+01 0. -1.
         -5    1    3    3    0  502 -0.23143423973E+02  0.14362934274E+02  0.34986093311E+01  0.27861123836E+02  0.47000000000E+01 0. -1.
          5    1    4    4  503    0 -0.28315829084E+02 -0.12350967591E+02 -0.30459549511E+02  0.43637217298E+02  0.47000000000E+01 0. -1.
         -5    1    4    4    0  503  0.30529606847E+02 -0.13490911171E+02 -0.27627527582E+03  0.27832387538E+03  0.47000000000E+01 0.  1.
<mgrwt>
<rscale>  0 0.11944771E+03</rscale>
<asrwt>0</asrwt>
<pdfrwt beam="1">  1        1 0.36792935E-02 0.12766291E+03</pdfrwt>
<pdfrwt beam="2">  1       -1 0.86812246E-01 0.12766291E+03</pdfrwt>
<totfact> 0.33625077E+03</totfact>
</mgrwt>
</event>
<event>
 8    1  0.3217375E-004  0.1343717E+03  0.7546771E-02  0.1234053E+00
          3   -1    0    0  501    0  0.00000000000E+00  0.00000000000E+00  0.26107833907E+02  0.26107833907E+02  0.00000000000E+00 0. -1.
         -3   -1    0    0    0  501 -0.00000000000E+00 -0.00000000000E+00 -0.59028758780E+03  0.59028758780E+03  0.00000000000E+00 0.  1.
         25    2    1    2    0    0 -0.77974087114E+01  0.48658870910E+02 -0.22576493248E+03  0.26272718107E+03  0.12500912621E+03 0.  0.
         23    2    1    2    0    0  0.77974087114E+01 -0.48658870910E+02 -0.33841482142E+03  0.35366824064E+03  0.90156240940E+02 0.  0.
          5    1    4    4  502    0  0.22201381561E+02 -0.67211618764E+02 -0.18037500854E+03  0.19382346800E+03  0.47000000000E+01 0. -1.
         -5    1    3    3    0  503  0.12098946442E+02  0.56841239317E+02 -0.29706622729E+02  0.65436109496E+02  0.47000000000E+01 0.  1.
          5    1    3    3  503    0 -0.19896355153E+02 -0.81823684068E+01 -0.19605830975E+03  0.19729107157E+03  0.47000000000E+01 0.  1.
         -5    1    4    4    0  502 -0.14403972849E+02  0.18552747855E+02 -0.15803981288E+03  0.15984477264E+03  0.47000000000E+01 0.  1.
<mgrwt>
<rscale>  0 0.12565265E+03</rscale>
<asrwt>0</asrwt>
<pdfrwt beam="1">  1        3 0.40165901E-02 0.13437175E+03</pdfrwt>
<pdfrwt beam="2">  1       -3 0.90813469E-01 0.13437175E+03</pdfrwt>
<totfact> 0.83805861E+02</totfact>
</mgrwt>
</event>
<event>
 8    1  0.3217375E-004  0.1527707E+03  0.7546771E-02  0.1205461E+00
          2   -1    0    0  501    0  0.00000000000E+00  0.00000000000E+00  0.33407682545E+03  0.33407682545E+03  0.00000000000E+00 0. -1.
         -2   -1    0    0    0  501 -0.00000000000E+00 -0.00000000000E+00 -0.72848912873E+02  0.72848912873E+02  0.00000000000E+00 0.  1.
         25    2    1    2    0    0  0.40343366041E+02 -0.77981251189E+02  0.50983613758E+02  0.16105342807E+03  0.12502085866E+03 0.  0.
         23    2    1    2    0    0 -0.40343366041E+02  0.77981251189E+02  0.21024429882E+03  0.24587231026E+03  0.92422210778E+02 0.  0.
          5    1    4    4  502    0 -0.48177179585E+02  0.46012147917E+02  0.20034178831E+03  0.21118020866E+03  0.47000000000E+01 0. -1.
         -5    1    3    3    0  503 -0.11632697826E+02 -0.94686568716E+02  0.46048597768E+02  0.10603503813E+03  0.47000000000E+01 0.  1.
          5    1    3    3  503    0  0.51976063867E+02  0.16705317527E+02  0.49350159905E+01  0.55018389940E+02  0.47000000000E+01 0.  1.
         -5    1    4    4    0  502  0.78338135441E+01  0.31969103272E+02  0.99025105132E+01  0.34692101596E+02  0.47000000000E+01 0.  1.
<mgrwt>
<rscale>  0 0.14601196E+03</rscale>
<asrwt>0</asrwt>
<pdfrwt beam="1">  1        2 0.51396434E-01 0.15277067E+03</pdfrwt>
<pdfrwt beam="2">  1       -2 0.11207525E-01 0.15277067E+03</pdfrwt>
<totfact> 0.51862247E+03</totfact>
</mgrwt>
</event>
<event>
 8    1  0.3217375E-004  0.1801478E+03  0.7546771E-02  0.1173073E+00
          1   -1    0    0  501    0  0.00000000000E+00  0.00000000000E+00  0.23512989605E+03  0.23512989605E+03  0.00000000000E+00 0. -1.
         -1   -1    0    0    0  501 -0.00000000000E+00 -0.00000000000E+00 -0.13052287228E+03  0.13052287228E+03  0.00000000000E+00 0.  1.
         25    2    1    2    0    0  0.54378858484E+02  0.11777399713E+03  0.10078984913E+03  0.20642633705E+03  0.12500185715E+03 0.  0.
         23    2    1    2    0    0 -0.54378858484E+02 -0.11777399713E+03  0.38171746358E+01  0.15922643127E+03  0.92253514529E+02 0.  0.
          5    1    3    3  502    0  0.11958465562E+02 -0.25927908999E+02  0.25988235750E+02  0.38893955328E+02  0.47000000000E+01 0. -1.
         -5    1    4    4    0  503 -0.77532493349E+02 -0.65510616787E+02  0.63949733879E+01  0.10181313334E+03  0.47000000000E+01 0.  1.
          5    1    4    4  503    0  0.23153634865E+02 -0.52263380347E+02 -0.25777987521E+01  0.57413297930E+02  0.47000000000E+01 0. -1.
         -5    1    3    3    0  502  0.42420392922E+02  0.14370190613E+03  0.74801613382E+02  0.16753238172E+03  0.47000000000E+01 0. -1.
<mgrwt>
<rscale>  0 0.17466036E+03</rscale>
<asrwt>0</asrwt>
<pdfrwt beam="1">  1        1 0.36173830E-01 0.18014783E+03</pdfrwt>
<pdfrwt beam="2">  1       -1 0.20080442E-01 0.18014783E+03</pdfrwt>
<totfact> 0.23524772E+03</totfact>
</mgrwt>
</event>
<event>
 8    1  0.3217375E-004  0.1301915E+03  0.7546771E-02  0.1242504E+00
          1   -1    0    0  501    0  0.00000000000E+00  0.00000000000E+00  0.27608767195E+03  0.27608767195E+03  0.00000000000E+00 0. -1.
         -1   -1    0    0    0  501 -0.00000000000E+00 -0.00000000000E+00 -0.55267099150E+02  0.55267099150E+02  0.00000000000E+00 0.  1.
         25    2    1    2    0    0 -0.35702972767E+02  0.71566571230E+01  0.57414246433E+02  0.14228921857E+03  0.12499562401E+03 0.  0.
         23    2    1    2    0    0  0.35702972767E+02 -0.71566571230E+01  0.16340632637E+03  0.18906555253E+03  0.87853489690E+02 0.  0.
          5    1    3    3  502    0 -0.23355022332E+02  0.27755868951E+02 -0.32606589494E+02  0.49001275573E+02  0.47000000000E+01 0.  1.
         -5    1    3    3    0  502 -0.12347950435E+02 -0.20599211828E+02  0.90020835927E+02  0.93287942998E+02  0.47000000000E+01 0.  1.
          5    1    4    4  503    0  0.38912996837E+02 -0.30901514544E+02  0.15563295762E+03  0.16344060824E+03  0.47000000000E+01 0. -1.
         -5    1    4    4    0  503 -0.32100240696E+01  0.23744857421E+02  0.77733687553E+01  0.25624944298E+02  0.47000000000E+01 0.  1.
<mgrwt>
<rscale>  0 0.12036022E+03</rscale>
<asrwt>0</asrwt>
<pdfrwt beam="1">  1        1 0.42475026E-01 0.13019150E+03</pdfrwt>
<pdfrwt beam="2">  1       -1 0.85026308E-02 0.13019150E+03</pdfrwt>
<totfact> 0.72377773E+03</totfact>
</mgrwt>
</event>
<event>
 8    1  0.3217375E-004  0.1269633E+03  0.7546771E-02  0.1246491E+00
         -1   -1    0    0    0  501 -0.00000000000E+00  0.00000000000E+00  0.44376792759E+02  0.44376792759E+02  0.00000000000E+00 0.  1.
          1   -1    0    0  501    0  0.00000000000E+00 -0.00000000000E+00 -0.30366712507E+03  0.30366712507E+03  0.00000000000E+00 0. -1.
         25    2    1    2    0    0 -0.17993828449E+02  0.13100018079E+02 -0.19832492782E+03  0.23548344327E+03  0.12499714687E+03 0.  0.
         23    2    1    2    0    0  0.17993828449E+02 -0.13100018079E+02 -0.60965404492E+02  0.11256047455E+03  0.91965708560E+02 0.  0.
          5    1    4    4  502    0  0.20651049152E+02  0.16586997163E+02 -0.74708377034E+02  0.79404193246E+02  0.47000000000E+01 0. -1.
         -5    1    4    4    0  502 -0.26572207032E+01 -0.29687015242E+02  0.13742972543E+02  0.33156281307E+02  0.47000000000E+01 0.  1.
          5    1    3    3  503    0  0.26973506383E+02  0.55797116449E+02 -0.75324055615E+02  0.97655986017E+02  0.47000000000E+01 0.  1.
         -5    1    3    3    0  503 -0.44967334832E+02 -0.42697098370E+02 -0.12300087220E+03  0.13782745725E+03  0.47000000000E+01 0.  1.
<mgrwt>
<rscale>  0 0.11796554E+03</rscale>
<asrwt>0</asrwt>
<pdfrwt beam="1">  1        1 0.46718019E-01 0.12696328E+03</pdfrwt>
<pdfrwt beam="2">  1       -1 0.68271989E-02 0.12696328E+03</pdfrwt>
<totfact> 0.89334029E+03</totfact>
</mgrwt>
</event>
<event>
 8    1  0.3217375E-004  0.1543637E+03  0.7546771E-02  0.1203584E+00
          2   -1    0    0  501    0  0.00000000000E+00  0.00000000000E+00  0.97583445709E+02  0.97583445709E+02  0.00000000000E+00 0.  1.
         -2   -1    0    0    0  501 -0.00000000000E+00 -0.00000000000E+00 -0.39680914605E+03  0.39680914605E+03  0.00000000000E+00 0. -1.
         25    2    1    2    0    0  0.33499582777E+01 -0.90516357671E+02 -0.32802946549E+03  0.36253481893E+03  0.12499492582E+03 0.  0.
         23    2    1    2    0    0 -0.33499582777E+01  0.90516357671E+02  0.28803765150E+02  0.13185777283E+03  0.91391367982E+02 0.  0.
          5    1    3    3  502    0 -0.42887717022E+02 -0.51861765730E+02 -0.27155431060E+03  0.27980856424E+03  0.47000000000E+01 0.  1.
         -5    1    3    3    0  502  0.46237675299E+02 -0.38654591941E+02 -0.56475154882E+02  0.82726254685E+02  0.47000000000E+01 0.  1.
          5    1    4    4  503    0 -0.48275825036E+01  0.44812509253E+02 -0.32114353217E+02  0.55541770056E+02  0.47000000000E+01 0. -1.
         -5    1    4    4    0  503  0.14776242259E+01  0.45703848417E+02  0.60918118367E+02  0.76316002771E+02  0.47000000000E+01 0.  1.
<mgrwt>
<rscale>  0 0.14749628E+03</rscale>
<asrwt>0</asrwt>
<pdfrwt beam="1">  1        2 0.15012838E-01 0.15436374E+03</pdfrwt>
<pdfrwt beam="2">  1       -2 0.61047561E-01 0.15436374E+03</pdfrwt>
<totfact> 0.97774874E+02</totfact>
</mgrwt>
</event>
<event>
 8    1  0.3217375E-004  0.3698280E+03  0.7546771E-02  0.1055718E+00
          2   -1    0    0  501    0  0.00000000000E+00  0.00000000000E+00  0.10641700486E+04  0.10641700486E+04  0.00000000000E+00 0. -1.
         -2   -1    0    0    0  501 -0.00000000000E+00 -0.00000000000E+00 -0.20604941544E+03  0.20604941544E+03  0.00000000000E+00 0.  1.
         25    2    1    2    0    0  0.70408764077E+02  0.34086621059E+03  0.83061571896E+03  0.90922781905E+03  0.12500234704E+03 0.  0.
         23    2    1    2    0    0 -0.70408764077E+02 -0.34086621059E+03  0.27504914200E+02  0.36099164499E+03  0.91713029948E+02 0.  0.
          5    1    4    4  502    0 -0.89176225421E+02 -0.31446361239E+03  0.29316391573E+02  0.32820923739E+03  0.47000000000E+01 0. -1.
         -5    1    3    3    0  503  0.22160319806E+02  0.10138198899E+01  0.91672064452E+02  0.94434977660E+02  0.47000000000E+01 0.  1.
          5    1    3    3  503    0  0.48248444271E+02  0.33985239070E+03  0.73894365451E+03  0.81479284139E+03  0.47000000000E+01 0.  1.
         -5    1    4    4    0  502  0.18767461344E+02 -0.26402598208E+02 -0.18114773730E+01  0.32782407595E+02  0.47000000000E+01 0.  1.
<mgrwt>
<rscale>  0 0.36733141E+03</rscale>
<asrwt>0</asrwt>
<pdfrwt beam="1">  1        2 0.16371847E+00 0.36982801E+03</pdfrwt>
<pdfrwt beam="2">  1       -2 0.31699911E-01 0.36982801E+03</pdfrwt>
<totfact> 0.22090271E+02</totfact>
</mgrwt>
</event>
<event>
 8    1  0.3217375E-004  0.1275514E+03  0.7546771E-02  0.1245395E+00
         -1   -1    0    0    0  501 -0.00000000000E+00  0.00000000000E+00  0.26273269958E+02  0.26273269958E+02  0.00000000000E+00 0.  1.
          1   -1    0    0  501    0  0.00000000000E+00 -0.00000000000E+00 -0.48430777879E+03  0.48430777879E+03  0.00000000000E+00 0. -1.
         25    2    1    2    0    0  0.25196163935E+02 -0.25901518801E+01 -0.29991818726E+03  0.32591450848E+03  0.12501116838E+03 0.  0.
         23    2    1    2    0    0 -0.25196163935E+02  0.25901518801E+01 -0.15811632157E+03  0.18466654028E+03  0.91975020444E+02 0.  0.
          5    1    4    4  502    0 -0.33710910244E+02 -0.39422730411E+02 -0.92293392122E+02  0.10597517337E+03  0.47000000000E+01 0. -1.
         -5    1    3    3    0  503  0.28317881601E+02 -0.30404710213E+02 -0.23346576057E+02  0.47890515085E+02  0.47000000000E+01 0. -1.
          5    1    3    3  503    0 -0.31217176657E+01  0.27814558333E+02 -0.27657161121E+03  0.27802399339E+03  0.47000000000E+01 0. -1.
         -5    1    4    4    0  502  0.85147463090E+01  0.42012882291E+02 -0.65822929453E+02  0.78691366902E+02  0.47000000000E+01 0.  1.
<mgrwt>
<rscale>  0 0.11861776E+03</rscale>
<asrwt>0</asrwt>
<pdfrwt beam="1">  1        1 0.74508888E-01 0.12755135E+03</pdfrwt>
<pdfrwt beam="2">  1       -1 0.40420416E-02 0.12755135E+03</pdfrwt>
<totfact> 0.10795694E+04</totfact>
</mgrwt>
</event>
<event>
 8    1  0.3217375E-004  0.2350840E+03  0.7546771E-02  0.1126092E+00
          1   -1    0    0  501    0  0.00000000000E+00  0.00000000000E+00  0.65326797727E+02  0.65326797727E+02  0.00000000000E+00 0.  1.
         -1   -1    0    0    0  501 -0.00000000000E+00 -0.00000000000E+00 -0.79736858843E+03  0.79736858843E+03  0.00000000000E+00 0. -1.
         25    2    1    2    0    0 -0.55912836640E+02 -0.19107460619E+03 -0.42904895675E+03  0.48923152427E+03  0.12501490558E+03 0.  0.
         23    2    1    2    0    0  0.55912836640E+02  0.19107460619E+03 -0.30299283395E+03  0.37346386188E+03  0.89637315198E+02 0.  0.
          5    1    4    4  502    0  0.40185605562E+02  0.16830215790E+03 -0.18995779928E+03  0.25699524268E+03  0.47000000000E+01 0.  1.
         -5    1    3    3    0  503 -0.35119732892E+02 -0.17796968874E+03 -0.42719631834E+03  0.46413940810E+03  0.47000000000E+01 0. -1.
          5    1    3    3  503    0 -0.20793103748E+02 -0.13104917448E+02 -0.18526384137E+01  0.25092116170E+02  0.47000000000E+01 0. -1.
         -5    1    4    4    0  502  0.15727231079E+02  0.22772448289E+02 -0.11303503466E+03  0.11646861921E+03  0.47000000000E+01 0. -1.
<mgrwt>
<rscale>  0 0.23078023E+03</rscale>
<asrwt>0</asrwt>
<pdfrwt beam="1">  1        1 0.10050277E-01 0.23508398E+03</pdfrwt>
<pdfrwt beam="2">  1       -1 0.12267208E+00 0.23508398E+03</pdfrwt>
<totfact> 0.40035663E+02</totfact>
</mgrwt>
</event>
<event>
 8    1  0.3217375E-004  0.1494119E+03  0.7546771E-02  0.1210550E+00
          1   -1    0    0  501    0  0.00000000000E+00  0.00000000000E+00  0.13766461836E+03  0.13766461836E+03  0.00000000000E+00 0. -1.
         -1   -1    0    0    0  501 -0.00000000000E+00 -0.00000000000E+00 -0.13482364004E+03  0.13482364004E+03  0.00000000000E+00 0.  1.
         25    2    1    2    0    0  0.80954506090E+02 -0.12085473769E+02 -0.92631314447E+01  0.14969879571E+03  0.12499693236E+03 0.  0.
         23    2    1    2    0    0 -0.80954506090E+02  0.12085473769E+02  0.12104109770E+02  0.12278946269E+03  0.90725145033E+02 0.  0.
          5    1    4    4  502    0 -0.72921039862E+02 -0.24082357524E+02  0.28440193879E+02  0.82026658023E+02  0.47000000000E+01 0. -1.
         -5    1    3    3    0  503  0.55872819761E+02 -0.50118742310E+02 -0.48417615437E+02  0.89442807444E+02  0.47000000000E+01 0.  1.
          5    1    3    3  503    0  0.25081686329E+02  0.38033268541E+02  0.39154483992E+02  0.60255988264E+02  0.47000000000E+01 0.  1.
         -5    1    4    4    0  502 -0.80334662282E+01  0.36167831294E+02 -0.16336084110E+02  0.40762804665E+02  0.47000000000E+01 0.  1.
<mgrwt>
<rscale>  0 0.14208529E+03</rscale>
<asrwt>0</asrwt>
<pdfrwt beam="1">  1        1 0.21179172E-01 0.14941193E+03</pdfrwt>
<pdfrwt beam="2">  1       -1 0.20742098E-01 0.14941193E+03</pdfrwt>
<totfact> 0.43374104E+03</totfact>
</mgrwt>
</event>
<event>
 8    1  0.3217375E-004  0.1546677E+03  0.7546771E-02  0.1202632E+00
         -2   -1    0    0    0  501 -0.00000000000E+00  0.00000000000E+00  0.21742906228E+03  0.21742906228E+03  0.00000000000E+00 0.  1.
          2   -1    0    0  501    0  0.00000000000E+00 -0.00000000000E+00 -0.10485918424E+03  0.10485918424E+03  0.00000000000E+00 0. -1.
         25    2    1    2    0    0  0.66977636734E+02 -0.61726000566E+02  0.77759684630E+01  0.15486303692E+03  0.12500396614E+03 0.  0.
         23    2    1    2    0    0 -0.66977636734E+02  0.61726000566E+02  0.10479390958E+03  0.16742520960E+03  0.93559255856E+02 0.  0.
          5    1    3    3  502    0  0.37742479925E+02 -0.97309980162E+02  0.21315664905E+02  0.10663102082E+03  0.47000000000E+01 0. -1.
         -5    1    4    4    0  503 -0.38903343436E+02  0.22023179560E+02  0.10947959478E+03  0.11834847799E+03  0.47000000000E+01 0.  1.
          5    1    4    4  503    0 -0.28074293299E+02  0.39702821006E+02 -0.46856852012E+01  0.49076731614E+02  0.47000000000E+01 0. -1.
         -5    1    3    3    0  502  0.29235156810E+02  0.35583979596E+02 -0.13539696442E+02  0.48232016103E+02  0.47000000000E+01 0. -1.
<mgrwt>
<rscale>  0 0.14825640E+03</rscale>
<asrwt>0</asrwt>
<pdfrwt beam="1">  1        2 0.16132182E-01 0.15466769E+03</pdfrwt>
<pdfrwt beam="2">  1       -2 0.33450625E-01 0.15466769E+03</pdfrwt>
<totfact> 0.28975455E+03</totfact>
</mgrwt>
</event>
<event>
 8    1  0.3217375E-004  0.1462105E+03  0.7546771E-02  0.1215710E+00
         -4   -1    0    0    0  501 -0.00000000000E+00  0.00000000000E+00  0.14662987158E+02  0.14662987158E+02  0.00000000000E+00 0. -1.
          4   -1    0    0  501    0  0.00000000000E+00 -0.00000000000E+00 -0.12704810010E+04  0.12704810010E+04  0.00000000000E+00 0.  1.
         25    2    1    2    0    0 -0.64620681260E+02 -0.39709426262E+02 -0.86351384921E+03  0.87580459453E+03  0.12499939613E+03 0.  0.
         23    2    1    2    0    0  0.64620681260E+02  0.39709426262E+02 -0.39230416465E+03  0.40933939365E+03  0.88901690718E+02 0.  0.
          5    1    4    4  502    0  0.85911964187E+02  0.40338374862E+02 -0.32195059524E+03  0.33568188192E+03  0.47000000000E+01 0. -1.
         -5    1    3    3    0  503  0.34665712065E+02  0.72154774440E+01 -0.24691135275E+03  0.24948162422E+03  0.47000000000E+01 0.  1.
          5    1    3    3  503    0 -0.99286393325E+02 -0.46924903706E+02 -0.61660249646E+03  0.62632297030E+03  0.47000000000E+01 0.  1.
         -5    1    4    4    0  502 -0.21291282927E+02 -0.62894860015E+00 -0.70353569408E+02  0.73657511725E+02  0.47000000000E+01 0.  1.
<mgrwt>
<rscale>  0 0.13824523E+03</rscale>
<asrwt>0</asrwt>
<pdfrwt beam="1">  1        4 0.19545865E+00 0.14621053E+03</pdfrwt>
<pdfrwt beam="2">  1       -4 0.22558438E-02 0.14621053E+03</pdfrwt>
<totfact> 0.22288919E+02</totfact>
</mgrwt>
</event>
<event>
 8    1  0.3217375E-004  0.1270355E+03  0.7546771E-02  0.1248365E+00
          3   -1    0    0  501    0  0.00000000000E+00  0.00000000000E+00  0.16143354453E+03  0.16143354453E+03  0.00000000000E+00 0. -1.
         -3   -1    0    0    0  501 -0.00000000000E+00 -0.00000000000E+00 -0.76692410077E+02  0.76692410077E+02  0.00000000000E+00 0.  1.
         25    2    1    2    0    0  0.18669129641E+02 -0.12811974924E+02  0.25519446502E+02  0.12957340896E+03  0.12500137222E+03 0.  0.
         23    2    1    2    0    0 -0.18669129641E+02  0.12811974924E+02  0.59221687953E+02  0.10855254565E+03  0.88112222426E+02 0.  0.
          5    1    4    4  502    0 -0.49316992887E+02 -0.71080636255E+01  0.49602849360E+02  0.70464338644E+02  0.47000000000E+01 0. -1.
         -5    1    3    3    0  503  0.71703470220E+01 -0.50685469765E+02  0.58473021438E+02  0.77856373907E+02  0.47000000000E+01 0.  1.
          5    1    3    3  503    0  0.11498782619E+02  0.37873494841E+02 -0.32953574936E+02  0.51717035050E+02  0.47000000000E+01 0.  1.
         -5    1    4    4    0  502  0.30647863246E+02  0.19920038549E+02  0.96188385934E+01  0.38088207010E+02  0.47000000000E+01 0.  1.
<mgrwt>
<rscale>  0 0.11686229E+03</rscale>
<asrwt>0</asrwt>
<pdfrwt beam="1">  1        3 0.24835930E-01 0.12703553E+03</pdfrwt>
<pdfrwt beam="2">  1       -3 0.11798832E-01 0.12703553E+03</pdfrwt>
<totfact> 0.19267379E+03</totfact>
</mgrwt>
</event>
<event>
 8    1  0.3217375E-004  0.3018762E+03  0.7546771E-02  0.1085900E+00
         -2   -1    0    0    0  501 -0.00000000000E+00  0.00000000000E+00  0.97145712276E+02  0.97145712276E+02  0.00000000000E+00 0.  1.
          2   -1    0    0  501    0  0.00000000000E+00 -0.00000000000E+00 -0.89943408068E+03  0.89943408068E+03  0.00000000000E+00 0. -1.
         25    2    1    2    0    0 -0.27081722357E+03  0.46494994611E+02 -0.40773066554E+03  0.50731994270E+03  0.12500190213E+03 0.  0.
         23    2    1    2    0    0  0.27081722357E+03 -0.46494994611E+02 -0.39455770286E+03  0.48925985025E+03  0.90529923643E+02 0.  0.
          5    1    3    3  502    0 -0.96439450171E+02 -0.40844900497E+02 -0.17080978557E+03  0.20041693115E+03  0.47000000000E+01 0. -1.
         -5    1    3    3    0  502 -0.17437777340E+03  0.87339895108E+02 -0.23692087997E+03  0.30690301155E+03  0.47000000000E+01 0. -1.
          5    1    4    4  503    0  0.24263434950E+03 -0.69073624094E+02 -0.33396280842E+03  0.41856402200E+03  0.47000000000E+01 0. -1.
         -5    1    4    4    0  503  0.28182874069E+02  0.22578629483E+02 -0.60594894440E+02  0.70695828252E+02  0.47000000000E+01 0.  1.
<mgrwt>
<rscale>  0 0.29868399E+03</rscale>
<asrwt>0</asrwt>
<pdfrwt beam="1">  1        2 0.13837448E+00 0.30187618E+03</pdfrwt>
<pdfrwt beam="2">  1       -2 0.14945494E-01 0.30187618E+03</pdfrwt>
<totfact> 0.10482055E+03</totfact>
</mgrwt>
</event>
<event>
 8    1  0.3217375E-004  0.1549217E+03  0.7546771E-02  0.1204050E+00
          4   -1    0    0  501    0  0.00000000000E+00  0.00000000000E+00  0.45165198830E+03  0.45165198830E+03  0.00000000000E+00 0. -1.
         -4   -1    0    0    0  501 -0.00000000000E+00 -0.00000000000E+00 -0.44664378687E+02  0.44664378687E+02  0.00000000000E+00 0.  1.
         25    2    1    2    0    0  0.91265346693E+02 -0.67610662845E+01  0.18744584845E+03  0.24318036119E+03  0.12500266575E+03 0.  0.
         23    2    1    2    0    0 -0.91265346693E+02  0.67610662845E+01  0.21954176116E+03  0.25313600579E+03  0.86626653011E+02 0.  0.
          5    1    3    3  502    0  0.74584250533E+02 -0.32496509085E+02  0.19491714165E+03  0.21126669316E+03  0.47000000000E+01 0. -1.
         -5    1    3    3    0  502  0.16681096160E+02  0.25735442800E+02 -0.74712931976E+01  0.31913668032E+02  0.47000000000E+01 0. -1.
          5    1    4    4  503    0 -0.29677813290E+02 -0.32836549453E+01  0.17176586908E+03  0.17440515695E+03  0.47000000000E+01 0. -1.
         -5    1    4    4    0  503 -0.61587533403E+02  0.10044721230E+02  0.47775892084E+02  0.78730848844E+02  0.47000000000E+01 0.  1.
<mgrwt>
<rscale>  0 0.14712552E+03</rscale>
<asrwt>0</asrwt>
<pdfrwt beam="1">  1        4 0.69484918E-01 0.15492173E+03</pdfrwt>
<pdfrwt beam="2">  1       -4 0.68714432E-02 0.15492173E+03</pdfrwt>
<totfact> 0.46886646E+02</totfact>
</mgrwt>
</event>
<event>
 8    1  0.3217375E-004  0.1330653E+03  0.7546771E-02  0.1236441E+00
         -2   -1    0    0    0  501 -0.00000000000E+00  0.00000000000E+00  0.31492762320E+02  0.31492762320E+02  0.00000000000E+00 0.  1.
          2   -1    0    0  501    0  0.00000000000E+00 -0.00000000000E+00 -0.48594328900E+03  0.48594328900E+03  0.00000000000E+00 0. -1.
         25    2    1    2    0    0 -0.21509080308E+02 -0.40237971217E+02 -0.17140491290E+03  0.21699312229E+03  0.12499854436E+03 0.  0.
         23    2    1    2    0    0  0.21509080308E+02  0.40237971217E+02 -0.28304561378E+03  0.30044292903E+03  0.89829835028E+02 0.  0.
          5    1    4    4  502    0  0.34040547187E+02 -0.39969289213E+01 -0.21755008227E+03  0.22028359582E+03  0.47000000000E+01 0. -1.
         -5    1    4    4    0  502 -0.12531466878E+02  0.44234900138E+02 -0.65495531509E+02  0.80159333206E+02  0.47000000000E+01 0.  1.
          5    1    3    3  503    0 -0.47501967728E+02 -0.52140198909E+02 -0.17409201585E+03  0.18789666645E+03  0.47000000000E+01 0.  1.
         -5    1    3    3    0  503  0.25992887420E+02  0.11902227692E+02  0.26871029443E+01  0.29096455844E+02  0.47000000000E+01 0.  1.
<mgrwt>
<rscale>  0 0.12412604E+03</rscale>
<asrwt>0</asrwt>
<pdfrwt beam="1">  1        2 0.74760507E-01 0.13306529E+03</pdfrwt>
<pdfrwt beam="2">  1       -2 0.48450403E-02 0.13306529E+03</pdfrwt>
<totfact> 0.12503930E+04</totfact>
</mgrwt>
</event>
<event>
 8    1  0.3217375E-004  0.1543668E+03  0.7546771E-02  0.1203591E+00
         -2   -1    0    0    0  501 -0.00000000000E+00  0.00000000000E+00  0.15249284868E+02  0.15249284868E+02  0.00000000000E+00 0.  1.
          2   -1    0    0  501    0  0.00000000000E+00 -0.00000000000E+00 -0.14024747760E+04  0.14024747760E+04  0.00000000000E+00 0. -1.
         25    2    1    2    0    0 -0.51704773670E+02 -0.74361985377E+02 -0.93086393068E+03  0.94357657608E+03  0.12500403595E+03 0.  0.
         23    2    1    2    0    0  0.51704773670E+02  0.74361985377E+02 -0.45636156050E+03  0.47414748483E+03  0.91361233473E+02 0.  0.
          5    1    3    3  502    0 -0.21397689854E+02  0.12537646267E+02 -0.35928008538E+02  0.43908603969E+02  0.47000000000E+01 0. -1.
         -5    1    3    3    0  502 -0.30307083817E+02 -0.86899631644E+02 -0.89493592214E+03  0.89966797212E+03  0.47000000000E+01 0. -1.
          5    1    4    4  503    0  0.41113482527E+02  0.16460521539E+02 -0.34714414232E+03  0.34998916093E+03  0.47000000000E+01 0. -1.
         -5    1    4    4    0  503  0.10591291143E+02  0.57901463837E+02 -0.10921741817E+03  0.12415832391E+03  0.47000000000E+01 0.  1.
<mgrwt>
<rscale>  0 0.14749082E+03</rscale>
<asrwt>0</asrwt>
<pdfrwt beam="1">  1        2 0.21576543E+00 0.15436676E+03</pdfrwt>
<pdfrwt beam="2">  1       -2 0.23460429E-02 0.15436676E+03</pdfrwt>
<totfact> 0.92172271E+03</totfact>
</mgrwt>
</event>
<event>
 8    1  0.3217375E-004  0.1276115E+03  0.7546771E-02  0.1246507E+00
          2   -1    0    0  501    0  0.00000000000E+00  0.00000000000E+00  0.79332192754E+03  0.79332192754E+03  0.00000000000E+00 0.  1.
         -2   -1    0    0    0  501 -0.00000000000E+00 -0.00000000000E+00 -0.15394958975E+02  0.15394958975E+02  0.00000000000E+00 0. -1.
         25    2    1    2    0    0 -0.23168263736E+02 -0.11302887376E+02  0.46878514882E+03  0.48584381059E+03  0.12498067381E+03 0.  0.
         23    2    1    2    0    0  0.23168263736E+02  0.11302887376E+02  0.30914181974E+03  0.32287307592E+03  0.89520024214E+02 0.  0.
          5    1    3    3  502    0  0.18841081721E+02  0.43547791703E+02  0.10220390318E+03  0.11277909535E+03  0.47000000000E+01 0. -1.
         -5    1    3    3    0  502 -0.42009345457E+02 -0.54850679079E+02  0.36658124564E+03  0.37306471524E+03  0.47000000000E+01 0. -1.
          5    1    4    4  503    0  0.47614821210E+02  0.19100039437E+02  0.10380636031E+03  0.11588715695E+03  0.47000000000E+01 0. -1.
         -5    1    4    4    0  503 -0.24446557474E+02 -0.77971520609E+01  0.20533545944E+03  0.20698591898E+03  0.47000000000E+01 0.  1.
<mgrwt>
<rscale>  0 0.11795654E+03</rscale>
<asrwt>0</asrwt>
<pdfrwt beam="1">  1        2 0.12204950E+00 0.12761149E+03</pdfrwt>
<pdfrwt beam="2">  1       -2 0.23684558E-02 0.12761149E+03</pdfrwt>
<totfact> 0.20372968E+04</totfact>
</mgrwt>
</event>
<event>
 8    1  0.3217375E-004  0.1258440E+03  0.7546771E-02  0.1243467E+00
          2   -1    0    0  501    0  0.00000000000E+00  0.00000000000E+00  0.29183476867E+03  0.29183476867E+03  0.00000000000E+00 0. -1.
         -2   -1    0    0    0  501 -0.00000000000E+00 -0.00000000000E+00 -0.45006436541E+02  0.45006436541E+02  0.00000000000E+00 0.  1.
         25    2    1    2    0    0  0.13673903578E+02  0.49146502165E+01  0.14039377757E+03  0.18853947031E+03  0.12500235862E+03 0.  0.
         23    2    1    2    0    0 -0.13673903578E+02 -0.49146502165E+01  0.10643455455E+03  0.14830173489E+03  0.10224461229E+03 0.  0.
          5    1    3    3  502    0  0.67895399082E+02  0.16754402345E+02  0.75417015122E+02  0.10295781362E+03  0.47000000000E+01 0. -1.
         -5    1    4    4    0  503  0.34428422794E+02 -0.23484906809E+02  0.17606859750E+02  0.45485697248E+02  0.47000000000E+01 0.  1.
          5    1    4    4  503    0 -0.48102326372E+02  0.18570256593E+02  0.88827694804E+02  0.10281603764E+03  0.47000000000E+01 0. -1.
         -5    1    3    3    0  502 -0.54221495504E+02 -0.11839752128E+02  0.64976762449E+02  0.85581656700E+02  0.47000000000E+01 0. -1.
<mgrwt>
<rscale>  0 0.11977606E+03</rscale>
<asrwt>0</asrwt>
<pdfrwt beam="1">  1        2 0.44897655E-01 0.12584403E+03</pdfrwt>
<pdfrwt beam="2">  1       -2 0.69240673E-02 0.12584403E+03</pdfrwt>
<totfact> 0.12502677E+04</totfact>
</mgrwt>
</event>
<event>
 8    1  0.3217375E-004  0.1297381E+03  0.7546771E-02  0.1242007E+00
          1   -1    0    0  501    0  0.00000000000E+00  0.00000000000E+00  0.36207859587E+02  0.36207859587E+02  0.00000000000E+00 0. -1.
         -1   -1    0    0    0  501 -0.00000000000E+00 -0.00000000000E+00 -0.42135449763E+03  0.42135449763E+03  0.00000000000E+00 0.  1.
         25    2    1    2    0    0  0.26861373846E+02  0.22130222620E+02 -0.12609206772E+03  0.18091760887E+03  0.12498276481E+03 0.  0.
         23    2    1    2    0    0 -0.26861373846E+02 -0.22130222620E+02 -0.25905457032E+03  0.27664474834E+03  0.90618796199E+02 0.  0.
          5    1    3    3  502    0  0.64779908581E+02 -0.13720972529E+02 -0.10544558843E+03  0.12460162023E+03  0.47000000000E+01 0.  1.
         -5    1    4    4    0  503  0.25904636443E+02  0.65378118102E+01 -0.14645790721E+03  0.14894899045E+03  0.47000000000E+01 0.  1.
          5    1    4    4  503    0 -0.52766010289E+02 -0.28668034430E+02 -0.11259666310E+03  0.12769575789E+03  0.47000000000E+01 0. -1.
         -5    1    3    3    0  502 -0.37918534736E+02  0.35851195149E+02 -0.20646479288E+02  0.56315988645E+02  0.47000000000E+01 0.  1.
<mgrwt>
<rscale>  0 0.12066312E+03</rscale>
<asrwt>0</asrwt>
<pdfrwt beam="1">  1        1 0.55704397E-02 0.12973809E+03</pdfrwt>
<pdfrwt beam="2">  1       -1 0.64823772E-01 0.12973809E+03</pdfrwt>
<totfact> 0.34309906E+03</totfact>
</mgrwt>
</event>
<event>
 8    1  0.3217375E-004  0.1463031E+03  0.7546771E-02  0.1214934E+00
         -2   -1    0    0    0  501 -0.00000000000E+00  0.00000000000E+00  0.44269079727E+03  0.44269079727E+03  0.00000000000E+00 0.  1.
          2   -1    0    0  501    0  0.00000000000E+00 -0.00000000000E+00 -0.52665041964E+02  0.52665041964E+02  0.00000000000E+00 0. -1.
         25    2    1    2    0    0 -0.30936161142E+02 -0.69459764027E+02  0.33313397376E+03  0.36384451945E+03  0.12499153962E+03 0.  0.
         23    2    1    2    0    0  0.30936161142E+02  0.69459764027E+02  0.56891781551E+02  0.13151131979E+03  0.90977181421E+02 0.  0.
          5    1    3    3  502    0 -0.74469277414E+02 -0.63104858493E+02  0.18473840795E+03  0.20899345878E+03  0.47000000000E+01 0. -1.
         -5    1    4    4    0  503  0.15389892545E+02  0.88600398532E+02  0.56689268055E+02  0.10640790631E+03  0.47000000000E+01 0.  1.
          5    1    4    4  503    0  0.15546268597E+02 -0.19140634505E+02  0.20251349615E+00  0.25103413478E+02  0.47000000000E+01 0. -1.
         -5    1    3    3    0  502  0.43533116271E+02 -0.63549055345E+01  0.14839556581E+03  0.15485106067E+03  0.47000000000E+01 0. -1.
<mgrwt>
<rscale>  0 0.13881381E+03</rscale>
<asrwt>0</asrwt>
<pdfrwt beam="1">  1        2 0.81023144E-02 0.14630308E+03</pdfrwt>
<pdfrwt beam="2">  1       -2 0.68106274E-01 0.14630308E+03</pdfrwt>
<totfact> 0.16438292E+03</totfact>
</mgrwt>
</event>
<event>
 8    1  0.3217375E-004  0.1522928E+03  0.7546771E-02  0.1206175E+00
          2   -1    0    0  501    0  0.00000000000E+00  0.00000000000E+00  0.31532076717E+03  0.31532076717E+03  0.00000000000E+00 0. -1.
         -2   -1    0    0    0  501 -0.00000000000E+00 -0.00000000000E+00 -0.74253106622E+02  0.74253106622E+02  0.00000000000E+00 0.  1.
         25    2    1    2    0    0 -0.85494463934E+02 -0.16085980089E+02  0.20945734273E+03  0.25897000458E+03  0.12500009093E+03 0.  0.
         23    2    1    2    0    0  0.85494463934E+02  0.16085980089E+02  0.31610317819E+02  0.13060386921E+03  0.92141718785E+02 0.  0.
          5    1    4    4  502    0  0.21265496673E+02  0.27830521681E+02  0.51255047361E+02  0.62256960782E+02  0.47000000000E+01 0. -1.
         -5    1    4    4    0  502  0.64228967261E+02 -0.11744541591E+02 -0.19644729543E+02  0.68346908426E+02  0.47000000000E+01 0.  1.
          5    1    3    3  503    0  0.30935901877E+02  0.80304620945E+01  0.33364062607E+02  0.46441027336E+02  0.47000000000E+01 0.  1.
         -5    1    3    3    0  503 -0.11643036581E+03 -0.24116442184E+02  0.17609328012E+03  0.21252897725E+03  0.47000000000E+01 0.  1.
<mgrwt>
<rscale>  0 0.14545257E+03</rscale>
<asrwt>0</asrwt>
<pdfrwt beam="1">  1        2 0.48510887E-01 0.15229276E+03</pdfrwt>
<pdfrwt beam="2">  1       -2 0.11423555E-01 0.15229276E+03</pdfrwt>
<totfact> 0.53490604E+03</totfact>
</mgrwt>
</event>
<event>
 8    1  0.3217375E-004  0.1261353E+03  0.7546771E-02  0.1248899E+00
         -4   -1    0    0    0  501 -0.00000000000E+00  0.00000000000E+00  0.26563422657E+02  0.26563422657E+02  0.00000000000E+00 0.  1.
          4   -1    0    0  501    0  0.00000000000E+00 -0.00000000000E+00 -0.45170697142E+03  0.45170697142E+03  0.00000000000E+00 0. -1.
         25    2    1    2    0    0 -0.14557502009E+02 -0.85175303359E+01 -0.22310367394E+03  0.25629155301E+03  0.12500256649E+03 0.  0.
         23    2    1    2    0    0  0.14557502009E+02  0.85175303359E+01 -0.20203987481E+03  0.22197884106E+03  0.90388194346E+02 0.  0.
          5    1    3    3  502    0 -0.56567702927E+02  0.28167057433E+02 -0.15916938628E+03  0.17131920986E+03  0.47000000000E+01 0.  1.
         -5    1    3    3    0  502  0.42010200918E+02 -0.36684587769E+02 -0.63934287666E+02  0.84972343150E+02  0.47000000000E+01 0.  1.
          5    1    4    4  503    0 -0.13079169261E+02 -0.33921571196E+02 -0.52546840602E+02  0.64070259233E+02  0.47000000000E+01 0. -1.
         -5    1    4    4    0  503  0.27636671270E+02  0.42439101532E+02 -0.14949303421E+03  0.15790858183E+03  0.47000000000E+01 0.  1.
<mgrwt>
<rscale>  0 0.11655030E+03</rscale>
<asrwt>0</asrwt>
<pdfrwt beam="1">  1        4 0.69493376E-01 0.12613529E+03</pdfrwt>
<pdfrwt beam="2">  1       -4 0.40866807E-02 0.12613529E+03</pdfrwt>
<totfact> 0.10411379E+03</totfact>
</mgrwt>
</event>
<event>
 8    1  0.3217375E-004  0.1305869E+03  0.7546771E-02  0.1240167E+00
         -1   -1    0    0    0  501 -0.00000000000E+00  0.00000000000E+00  0.57822954905E+02  0.57822954905E+02  0.00000000000E+00 0.  1.
          1   -1    0    0  501    0  0.00000000000E+00 -0.00000000000E+00 -0.39157446872E+03  0.39157446872E+03  0.00000000000E+00 0. -1.
         25    2    1    2    0    0  0.28528913520E+02  0.24756760657E+02 -0.32493686350E+03  0.35019553184E+03  0.12500459653E+03 0.  0.
         23    2    1    2    0    0 -0.28528913520E+02 -0.24756760657E+02 -0.88146503130E+01  0.99201891785E+02  0.91304551742E+02 0.  0.
          5    1    4    4  502    0 -0.47137076312E+02 -0.10599819565E+02 -0.37902594107E+02  0.61586985461E+02  0.47000000000E+01 0. -1.
         -5    1    4    4    0  502  0.18608162793E+02 -0.14156941092E+02  0.29087943794E+02  0.37614906324E+02  0.47000000000E+01 0.  1.
          5    1    3    3  503    0  0.22306280118E+01  0.64615956329E+02 -0.26803447998E+03  0.27576216197E+03  0.47000000000E+01 0.  1.
         -5    1    3    3    0  503  0.26298285508E+02 -0.39859195672E+02 -0.56902383515E+02  0.74433369869E+02  0.47000000000E+01 0.  1.
<mgrwt>
<rscale>  0 0.12179359E+03</rscale>
<asrwt>0</asrwt>
<pdfrwt beam="1">  1        1 0.60242226E-01 0.13058693E+03</pdfrwt>
<pdfrwt beam="2">  1       -1 0.88958393E-02 0.13058693E+03</pdfrwt>
<totfact> 0.43795369E+03</totfact>
</mgrwt>
</event>
<event>
 8    1  0.3217375E-004  0.2810849E+03  0.7546771E-02  0.1096985E+00
          2   -1    0    0  501    0  0.00000000000E+00  0.00000000000E+00  0.94331158047E+03  0.94331158047E+03  0.00000000000E+00 0. -1.
         -2   -1    0    0    0  501 -0.00000000000E+00 -0.00000000000E+00 -0.93423712580E+02  0.93423712580E+02  0.00000000000E+00 0.  1.
         25    2    1    2    0    0 -0.22450221450E+03 -0.11393264504E+03  0.23580787639E+03  0.36689789968E+03  0.12500728898E+03 0.  0.
         23    2    1    2    0    0  0.22450221450E+03  0.11393264504E+03  0.61407999151E+03  0.66983739338E+03  0.90587006088E+02 0.  0.
          5    1    4    4  502    0  0.18748651485E+03  0.11232635840E+03  0.57778563630E+03  0.61775944797E+03  0.47000000000E+01 0. -1.
         -5    1    3    3    0  503 -0.88860287710E+02 -0.28349102083E+01  0.14303228100E+03  0.16847703361E+03  0.47000000000E+01 0.  1.
          5    1    3    3  503    0 -0.13564192680E+03 -0.11109773483E+03  0.92775595390E+02  0.19842086606E+03  0.47000000000E+01 0.  1.
         -5    1    4    4    0  502  0.37015699656E+02  0.16062866439E+01  0.36294355204E+02  0.52077945404E+02  0.47000000000E+01 0.  1.
<mgrwt>
<rscale>  0 0.27764066E+03</rscale>
<asrwt>0</asrwt>
<pdfrwt beam="1">  1        2 0.14512485E+00 0.28108489E+03</pdfrwt>
<pdfrwt beam="2">  1       -2 0.14372880E-01 0.28108489E+03</pdfrwt>
<totfact> 0.10486031E+03</totfact>
</mgrwt>
</event>
<event>
 8    1  0.3217375E-004  0.1557780E+03  0.7546771E-02  0.1201643E+00
         -2   -1    0    0    0  501 -0.00000000000E+00  0.00000000000E+00  0.67087362996E+02  0.67087362996E+02  0.00000000000E+00 0. -1.
          2   -1    0    0  501    0  0.00000000000E+00 -0.00000000000E+00 -0.31624674714E+03  0.31624674714E+03  0.00000000000E+00 0.  1.
         25    2    1    2    0    0  0.62477154781E+01 -0.92749796367E+02 -0.17029955432E+03  0.23080019041E+03  0.12500092406E+03 0.  0.
         23    2    1    2    0    0 -0.62477154781E+01  0.92749796367E+02 -0.78859829824E+02  0.15253391973E+03  0.91685141835E+02 0.  0.
          5    1    4    4  502    0  0.42462194183E+02  0.39686519512E+02 -0.32713306829E+02  0.66860363516E+02  0.47000000000E+01 0. -1.
         -5    1    3    3    0  503  0.26657735966E+02  0.16471171334E+02 -0.57651950006E+01  0.32206549728E+02  0.47000000000E+01 0. -1.
          5    1    3    3  503    0 -0.20410020488E+02 -0.10922096770E+03 -0.16453435932E+03  0.19859364068E+03  0.47000000000E+01 0. -1.
         -5    1    4    4    0  502 -0.48709909661E+02  0.53063276855E+02 -0.46146522995E+02  0.85673556214E+02  0.47000000000E+01 0.  1.
<mgrwt>
<rscale>  0 0.14905204E+03</rscale>
<asrwt>0</asrwt>
<pdfrwt beam="1">  1        2 0.48653346E-01 0.15577801E+03</pdfrwt>
<pdfrwt beam="2">  1       -2 0.10321133E-01 0.15577801E+03</pdfrwt>
<totfact> 0.62726404E+03</totfact>
</mgrwt>
</event>
<event>
 8    1  0.3217375E-004  0.2202168E+03  0.7546771E-02  0.1136930E+00
         -1   -1    0    0    0  501 -0.00000000000E+00  0.00000000000E+00  0.86042194771E+02  0.86042194771E+02  0.00000000000E+00 0.  1.
          1   -1    0    0  501    0  0.00000000000E+00 -0.00000000000E+00 -0.56372507086E+03  0.56372507086E+03  0.00000000000E+00 0. -1.
         25    2    1    2    0    0  0.15268337797E+03  0.97767330380E+02 -0.15925098907E+03  0.27176519963E+03  0.12499912563E+03 0.  0.
         23    2    1    2    0    0 -0.15268337797E+03 -0.97767330380E+02 -0.31843188702E+03  0.37800206601E+03  0.92822575039E+02 0.  0.
          5    1    3    3  502    0  0.11588538326E+03  0.12349526535E+03 -0.14866059619E+03  0.22539424456E+03  0.47000000000E+01 0.  1.
         -5    1    4    4    0  503 -0.10179150268E+03 -0.10990799082E+03 -0.21629280884E+03  0.26314624379E+03  0.47000000000E+01 0.  1.
          5    1    4    4  503    0 -0.50891875292E+02  0.12140660438E+02 -0.10213907818E+03  0.11485582222E+03  0.47000000000E+01 0. -1.
         -5    1    3    3    0  502  0.36797994712E+02 -0.25727934974E+02 -0.10590392876E+02  0.46370955070E+02  0.47000000000E+01 0.  1.
<mgrwt>
<rscale>  0 0.21596156E+03</rscale>
<asrwt>0</asrwt>
<pdfrwt beam="1">  1        1 0.86726936E-01 0.22021682E+03</pdfrwt>
<pdfrwt beam="2">  1       -1 0.13237260E-01 0.22021682E+03</pdfrwt>
<totfact> 0.15007310E+03</totfact>
</mgrwt>
</event>
<event>
 8    1  0.3217375E-004  0.1403958E+03  0.7546771E-02  0.1222764E+00
          2   -1    0    0  501    0  0.00000000000E+00  0.00000000000E+00  0.30525848536E+03  0.30525848536E+03  0.00000000000E+00 0. -1.
         -2   -1    0    0    0  501 -0.00000000000E+00 -0.00000000000E+00 -0.53986030546E+02  0.53986030546E+02  0.00000000000E+00 0.  1.
         25    2    1    2    0    0 -0.52683883610E+02  0.36211102788E+02  0.11338122541E+03  0.18046127338E+03  0.12499653337E+03 0.  0.
         23    2    1    2    0    0  0.52683883610E+02 -0.36211102788E+02  0.13789122940E+03  0.17878324253E+03  0.94141495138E+02 0.  0.
          5    1    3    3  502    0  0.18078357625E+02  0.40083022617E+02  0.98392254223E+02  0.10787308009E+03  0.47000000000E+01 0.  1.
         -5    1    3    3    0  502 -0.70762241235E+02 -0.38719198293E+01  0.14988971192E+02  0.72588193290E+02  0.47000000000E+01 0.  1.
          5    1    4    4  503    0  0.64543461975E+02 -0.13450723706E+02  0.13764261249E+03  0.15269040318E+03  0.47000000000E+01 0. -1.
         -5    1    4    4    0  503 -0.11859578365E+02 -0.22760379082E+02  0.24861691609E+00  0.26092839350E+02  0.47000000000E+01 0.  1.
<mgrwt>
<rscale>  0 0.13321310E+03</rscale>
<asrwt>0</asrwt>
<pdfrwt beam="1">  1        2 0.46962843E-01 0.14039576E+03</pdfrwt>
<pdfrwt beam="2">  1       -2 0.83055433E-02 0.14039576E+03</pdfrwt>
<totfact> 0.90880564E+03</totfact>
</mgrwt>
</event>
<event>
 8    1  0.3217375E-004  0.1571951E+03  0.7546771E-02  0.1199344E+00
          1   -1    0    0  501    0  0.00000000000E+00  0.00000000000E+00  0.94983459899E+03  0.94983459899E+03  0.00000000000E+00 0. -1.
         -1   -1    0    0    0  501 -0.00000000000E+00 -0.00000000000E+00 -0.22341090921E+02  0.22341090921E+02  0.00000000000E+00 0.  1.
         25    2    1    2    0    0 -0.61360717986E+02 -0.72940257567E+02  0.47068802733E+03  0.49624339936E+03  0.12499949379E+03 0.  0.
         23    2    1    2    0    0  0.61360717986E+02  0.72940257567E+02  0.45680548074E+03  0.47593229056E+03  0.93567510780E+02 0.  0.
          5    1    4    4  502    0  0.19698970697E+02  0.40402744955E+02  0.37939151234E+03  0.38207386836E+03  0.47000000000E+01 0. -1.
         -5    1    4    4    0  502  0.41661747289E+02  0.32537512612E+02  0.77413968407E+02  0.93858422204E+02  0.47000000000E+01 0.  1.
          5    1    3    3  503    0 -0.77635105779E+02 -0.99088948998E+02  0.38317850750E+03  0.40335305636E+03  0.47000000000E+01 0. -1.
         -5    1    3    3    0  503  0.16274387793E+02  0.26148691431E+02  0.87509519830E+02  0.92890342999E+02  0.47000000000E+01 0. -1.
<mgrwt>
<rscale>  0 0.15092267E+03</rscale>
<asrwt>0</asrwt>
<pdfrwt beam="1">  1        1 0.14612837E+00 0.15719508E+03</pdfrwt>
<pdfrwt beam="2">  1       -1 0.34370917E-02 0.15719508E+03</pdfrwt>
<totfact> 0.52759032E+03</totfact>
</mgrwt>
</event>
<event>
 8    1  0.3217375E-004  0.1415020E+03  0.7546771E-02  0.1223036E+00
          2   -1    0    0  501    0  0.00000000000E+00  0.00000000000E+00  0.10801918790E+03  0.10801918790E+03  0.00000000000E+00 0. -1.
         -2   -1    0    0    0  501 -0.00000000000E+00 -0.00000000000E+00 -0.14763823741E+03  0.14763823741E+03  0.00000000000E+00 0.  1.
         25    2    1    2    0    0  0.44797603784E+02  0.48902277002E+02 -0.13876449654E+02  0.14218074072E+03  0.12499819669E+03 0.  0.
         23    2    1    2    0    0 -0.44797603784E+02 -0.48902277002E+02 -0.25742599851E+02  0.11347668459E+03  0.88408249036E+02 0.  0.
          5    1    4    4  502    0 -0.61491418378E+02 -0.36081944995E+02  0.95804590412E+01  0.72090058151E+02  0.47000000000E+01 0. -1.
         -5    1    4    4    0  502  0.16693814594E+02 -0.12820332007E+02 -0.35323058892E+02  0.41386626439E+02  0.47000000000E+01 0.  1.
          5    1    3    3  503    0 -0.16232222492E+01 -0.39996066904E+02  0.28229126257E+01  0.40402710973E+02  0.47000000000E+01 0. -1.
         -5    1    3    3    0  503  0.46420826033E+02  0.88898343906E+02 -0.16699362279E+02  0.10177802975E+03  0.47000000000E+01 0. -1.
<mgrwt>
<rscale>  0 0.13302410E+03</rscale>
<asrwt>0</asrwt>
<pdfrwt beam="1">  1        2 0.16618337E-01 0.14150197E+03</pdfrwt>
<pdfrwt beam="2">  1       -2 0.22713575E-01 0.14150197E+03</pdfrwt>
<totfact> 0.55415293E+03</totfact>
</mgrwt>
</event>
<event>
 8    1  0.3217375E-004  0.2069601E+03  0.7546771E-02  0.1147927E+00
         -3   -1    0    0    0  501 -0.00000000000E+00  0.00000000000E+00  0.29823827198E+03  0.29823827198E+03  0.00000000000E+00 0.  1.
          3   -1    0    0  501    0  0.00000000000E+00 -0.00000000000E+00 -0.16902936617E+03  0.16902936617E+03  0.00000000000E+00 0. -1.
         25    2    1    2    0    0 -0.15669483792E+03 -0.51520900473E+02 -0.43704959717E+02  0.21152448953E+03  0.12499924300E+03 0.  0.
         23    2    1    2    0    0  0.15669483792E+03  0.51520900473E+02  0.17291386553E+03  0.25574314862E+03  0.91091589947E+02 0.  0.
          5    1    3    3  502    0 -0.64347293760E+02 -0.74956984559E+02  0.14230192235E+02  0.99918527408E+02  0.47000000000E+01 0.  1.
         -5    1    3    3    0  502 -0.92347544161E+02  0.23436084086E+02 -0.57935151952E+02  0.11160596212E+03  0.47000000000E+01 0.  1.
          5    1    4    4  503    0  0.33045827863E+02  0.36672916724E+02  0.99316918779E+02  0.11100842273E+03  0.47000000000E+01 0. -1.
         -5    1    4    4    0  503  0.12364901006E+03  0.14847983749E+02  0.73596946746E+02  0.14473472590E+03  0.47000000000E+01 0.  1.
<mgrwt>
<rscale>  0 0.20216302E+03</rscale>
<asrwt>0</asrwt>
<pdfrwt beam="1">  1        3 0.26004518E-01 0.20696011E+03</pdfrwt>
<pdfrwt beam="2">  1       -3 0.45882811E-01 0.20696011E+03</pdfrwt>
<totfact> 0.16250778E+02</totfact>
</mgrwt>
</event>
<event>
 8    1  0.3217375E-004  0.1739654E+03  0.7546771E-02  0.1179887E+00
          2   -1    0    0  501    0  0.00000000000E+00  0.00000000000E+00  0.56818358289E+03  0.56818358289E+03  0.00000000000E+00 0. -1.
         -2   -1    0    0    0  501 -0.00000000000E+00 -0.00000000000E+00 -0.46701257029E+02  0.46701257029E+02  0.00000000000E+00 0.  1.
         25    2    1    2    0    0 -0.12949117338E+01 -0.12098429647E+03  0.26536274131E+03  0.31730322191E+03  0.12500029350E+03 0.  0.
         23    2    1    2    0    0  0.12949117338E+01  0.12098429647E+03  0.25611958455E+03  0.29758161801E+03  0.91206913093E+02 0.  0.
          5    1    3    3  502    0 -0.35709818128E+02  0.80107936459E+01  0.34170129264E+02  0.50289677464E+02  0.47000000000E+01 0.  1.
         -5    1    4    4    0  503 -0.18647694112E+02  0.26967366018E+02  0.12078753779E+02  0.35255660801E+02  0.47000000000E+01 0.  1.
          5    1    4    4  503    0  0.19942605846E+02  0.94016930448E+02  0.24404083077E+03  0.26232595720E+03  0.47000000000E+01 0. -1.
         -5    1    3    3    0  502  0.34414906394E+02 -0.12899509011E+03  0.23119261205E+03  0.26701354445E+03  0.47000000000E+01 0.  1.
<mgrwt>
<rscale>  0 0.16805942E+03</rscale>
<asrwt>0</asrwt>
<pdfrwt beam="1">  1        2 0.87412854E-01 0.17396537E+03</pdfrwt>
<pdfrwt beam="2">  1       -2 0.71848092E-02 0.17396537E+03</pdfrwt>
<totfact> 0.58699311E+03</totfact>
</mgrwt>
</event>
<event>
 8    1  0.3217375E-004  0.1502588E+03  0.7546771E-02  0.1209373E+00
         -2   -1    0    0    0  501 -0.00000000000E+00  0.00000000000E+00  0.14775303997E+03  0.14775303997E+03  0.00000000000E+00 0.  1.
          2   -1    0    0  501    0  0.00000000000E+00 -0.00000000000E+00 -0.13634688235E+03  0.13634688235E+03  0.00000000000E+00 0. -1.
         25    2    1    2    0    0  0.51753495078E+02 -0.65370053097E+02  0.44182765904E+02  0.15662001450E+03  0.12500417611E+03 0.  0.
         23    2    1    2    0    0 -0.51753495078E+02  0.65370053097E+02 -0.32776608283E+02  0.12747990783E+03  0.90692627893E+02 0.  0.
          5    1    3    3  502    0 -0.95205234830E+01 -0.84726708937E+02  0.31087398477E+02  0.90872283556E+02  0.47000000000E+01 0. -1.
         -5    1    4    4    0  503 -0.13574152301E+02  0.64659505765E+02  0.13190251603E+02  0.67536523702E+02  0.47000000000E+01 0.  1.
          5    1    4    4  503    0 -0.38179342778E+02  0.71054733168E+00 -0.45966859886E+02  0.59943384124E+02  0.47000000000E+01 0. -1.
         -5    1    3    3    0  502  0.61274018561E+02  0.19356655840E+02  0.13095367427E+02  0.65747730942E+02  0.47000000000E+01 0. -1.
<mgrwt>
<rscale>  0 0.14298075E+03</rscale>
<asrwt>0</asrwt>
<pdfrwt beam="1">  1        2 0.20976443E-01 0.15025882E+03</pdfrwt>
<pdfrwt beam="2">  1       -2 0.22731237E-01 0.15025882E+03</pdfrwt>
<totfact> 0.42570955E+03</totfact>
</mgrwt>
</event>
<event>
 8    1  0.3217375E-004  0.1404591E+03  0.7546771E-02  0.1223498E+00
         -2   -1    0    0    0  501 -0.00000000000E+00  0.00000000000E+00  0.13139676863E+02  0.13139676863E+02  0.00000000000E+00 0.  1.
          2   -1    0    0  501    0  0.00000000000E+00 -0.00000000000E+00 -0.12226015893E+04  0.12226015893E+04  0.00000000000E+00 0. -1.
         25    2    1    2    0    0 -0.14383733248E+02 -0.62412442566E+02 -0.73018890242E+03  0.74357554710E+03  0.12500622488E+03 0.  0.
         23    2    1    2    0    0  0.14383733248E+02  0.62412442566E+02 -0.47927301000E+03  0.49216571904E+03  0.91772937844E+02 0.  0.
          5    1    4    4  502    0  0.17814923970E+02  0.83704003458E+02 -0.42536755461E+03  0.43391632630E+03  0.47000000000E+01 0. -1.
         -5    1    3    3    0  503 -0.51786699689E+02 -0.58513613315E+02 -0.65203952023E+03  0.65672165424E+03  0.47000000000E+01 0.  1.
          5    1    3    3  503    0  0.37402966441E+02 -0.38988292508E+01 -0.78149382189E+02  0.86853892858E+02  0.47000000000E+01 0.  1.
         -5    1    4    4    0  502 -0.34311907215E+01 -0.21291560892E+02 -0.53905455383E+02  0.58249392744E+02  0.47000000000E+01 0.  1.
<mgrwt>
<rscale>  0 0.13270350E+03</rscale>
<asrwt>0</asrwt>
<pdfrwt beam="1">  1        2 0.18809255E+00 0.14045911E+03</pdfrwt>
<pdfrwt beam="2">  1       -2 0.20214887E-02 0.14045911E+03</pdfrwt>
<totfact> 0.14257346E+04</totfact>
</mgrwt>
</event>
<event>
 8    1  0.3217375E-004  0.2651081E+03  0.7546771E-02  0.1106247E+00
          1   -1    0    0  501    0  0.00000000000E+00  0.00000000000E+00  0.54649295826E+03  0.54649295826E+03  0.00000000000E+00 0. -1.
         -1   -1    0    0    0  501 -0.00000000000E+00 -0.00000000000E+00 -0.12319343281E+03  0.12319343281E+03  0.00000000000E+00 0.  1.
         25    2    1    2    0    0 -0.13371207966E+03 -0.19177543936E+03  0.18220551432E+03  0.32168484950E+03  0.12500221423E+03 0.  0.
         23    2    1    2    0    0  0.13371207966E+03  0.19177543936E+03  0.24109401113E+03  0.34800154157E+03  0.91225058755E+02 0.  0.
          5    1    3    3  502    0 -0.63023990456E+02 -0.68845256842E+02  0.35214289044E+01  0.93521030919E+02  0.47000000000E+01 0. -1.
         -5    1    3    3    0  502 -0.70688089208E+02 -0.12293018251E+03  0.17868408542E+03  0.22816381858E+03  0.47000000000E+01 0. -1.
          5    1    4    4  503    0  0.13157558916E+03  0.12084818327E+03  0.15711716225E+03  0.23795863451E+03  0.47000000000E+01 0. -1.
         -5    1    4    4    0  503  0.21364905047E+01  0.70927256088E+02  0.83976848880E+02  0.11004290707E+03  0.47000000000E+01 0.  1.
<mgrwt>
<rscale>  0 0.26149686E+03</rscale>
<asrwt>0</asrwt>
<pdfrwt beam="1">  1        1 0.84075838E-01 0.26510808E+03</pdfrwt>
<pdfrwt beam="2">  1       -1 0.18952836E-01 0.26510808E+03</pdfrwt>
<totfact> 0.88364035E+02</totfact>
</mgrwt>
</event>
<event>
 8    1  0.3217375E-004  0.1316933E+03  0.7546771E-02  0.1238915E+00
          3   -1    0    0  501    0  0.00000000000E+00  0.00000000000E+00  0.56270461882E+02  0.56270461882E+02  0.00000000000E+00 0. -1.
         -3   -1    0    0    0  501 -0.00000000000E+00 -0.00000000000E+00 -0.23924317347E+03  0.23924317347E+03  0.00000000000E+00 0.  1.
         25    2    1    2    0    0  0.34081913444E+02  0.23534427880E+02 -0.12117096278E+03  0.17895680401E+03  0.12501075698E+03 0.  0.
         23    2    1    2    0    0 -0.34081913444E+02 -0.23534427880E+02 -0.61801748810E+02  0.11655683134E+03  0.89725094913E+02 0.  0.
          5    1    3    3  502    0  0.76651826886E+02  0.31992396074E+02 -0.10104216200E+03  0.13088401153E+03  0.47000000000E+01 0.  1.
         -5    1    4    4    0  503  0.10185685341E+00 -0.41645341897E+02 -0.65126103099E+02  0.77445749925E+02  0.47000000000E+01 0.  1.
          5    1    4    4  503    0 -0.34183770297E+02  0.18110914017E+02  0.33243542886E+01  0.39111081418E+02  0.47000000000E+01 0. -1.
         -5    1    3    3    0  502 -0.42569913442E+02 -0.84579681942E+01 -0.20128800775E+02  0.48072792482E+02  0.47000000000E+01 0.  1.
<mgrwt>
<rscale>  0 0.12257098E+03</rscale>
<asrwt>0</asrwt>
<pdfrwt beam="1">  1        3 0.86569944E-02 0.13169334E+03</pdfrwt>
<pdfrwt beam="2">  1       -3 0.36806641E-01 0.13169334E+03</pdfrwt>
<totfact> 0.15619773E+03</totfact>
</mgrwt>
</event>
<event>
 8    1  0.3217375E-004  0.1353827E+03  0.7546771E-02  0.1231351E+00
         -1   -1    0    0    0  501 -0.00000000000E+00  0.00000000000E+00  0.23276943865E+02  0.23276943865E+02  0.00000000000E+00 0.  1.
          1   -1    0    0  501    0  0.00000000000E+00 -0.00000000000E+00 -0.62786585713E+03  0.62786585713E+03  0.00000000000E+00 0. -1.
         25    2    1    2    0    0 -0.37584637077E+02  0.35936416750E+02 -0.35196711151E+03  0.37710650260E+03  0.12499774286E+03 0.  0.
         23    2    1    2    0    0  0.37584637077E+02 -0.35936416750E+02 -0.25262180175E+03  0.27403629840E+03  0.92596366709E+02 0.  0.
          5    1    3    3  502    0 -0.64356574985E+01 -0.27587916471E+02 -0.14308426206E+02  0.32083202507E+02  0.47000000000E+01 0. -1.
         -5    1    3    3    0  502 -0.31148979579E+02  0.63524333220E+02 -0.33765868531E+03  0.34502330009E+03  0.47000000000E+01 0. -1.
          5    1    4    4  503    0  0.27720428727E+02  0.27491873486E+02 -0.68440252865E+02  0.78932778292E+02  0.47000000000E+01 0. -1.
         -5    1    4    4    0  503  0.98642083498E+01 -0.63428290236E+02 -0.18418154889E+03  0.19510352011E+03  0.47000000000E+01 0.  1.
<mgrwt>
<rscale>  0 0.12740952E+03</rscale>
<asrwt>0</asrwt>
<pdfrwt beam="1">  1        1 0.96594740E-01 0.13538267E+03</pdfrwt>
<pdfrwt beam="2">  1       -1 0.35810685E-02 0.13538267E+03</pdfrwt>
<totfact> 0.91593751E+03</totfact>
</mgrwt>
</event>
<event>
 8    1  0.3217375E-004  0.1295374E+03  0.7546771E-02  0.1242214E+00
          2   -1    0    0  501    0  0.00000000000E+00  0.00000000000E+00  0.24839245007E+02  0.24839245007E+02  0.00000000000E+00 0. -1.
         -2   -1    0    0    0  501 -0.00000000000E+00 -0.00000000000E+00 -0.56456989597E+03  0.56456989597E+03  0.00000000000E+00 0.  1.
         25    2    1    2    0    0  0.25841788468E+02  0.22180246258E+02 -0.22051785380E+03  0.25575000796E+03  0.12498072401E+03 0.  0.
         23    2    1    2    0    0 -0.25841788468E+02 -0.22180246258E+02 -0.31921279716E+03  0.33365913301E+03  0.90949688367E+02 0.  0.
          5    1    3    3  502    0 -0.16082317623E+02  0.19784639903E+02  0.49178996390E+01  0.26388418920E+02  0.47000000000E+01 0.  1.
         -5    1    3    3    0  502  0.41924106091E+02  0.23956063545E+01 -0.22543575343E+03  0.22936158904E+03  0.47000000000E+01 0.  1.
          5    1    4    4  503    0 -0.32413983712E+02  0.29651086876E+02 -0.12959387919E+03  0.13691792000E+03  0.47000000000E+01 0. -1.
         -5    1    4    4    0  503  0.65721952447E+01 -0.51831333134E+02 -0.18961891797E+03  0.19674121301E+03  0.47000000000E+01 0.  1.
<mgrwt>
<rscale>  0 0.12053680E+03</rscale>
<asrwt>0</asrwt>
<pdfrwt beam="1">  1        2 0.38214226E-02 0.12953742E+03</pdfrwt>
<pdfrwt beam="2">  1       -2 0.86856901E-01 0.12953742E+03</pdfrwt>
<totfact> 0.25467878E+03</totfact>
</mgrwt>
</event>
<event>
 8    1  0.3217375E-004  0.1392470E+03  0.7546771E-02  0.1224591E+00
          1   -1    0    0  501    0  0.00000000000E+00  0.00000000000E+00  0.59519632395E+02  0.59519632395E+02  0.00000000000E+00 0. -1.
         -1   -1    0    0    0  501 -0.00000000000E+00 -0.00000000000E+00 -0.26757375929E+03  0.26757375929E+03  0.00000000000E+00 0.  1.
         25    2    1    2    0    0  0.20830463345E+02 -0.57712310014E+02 -0.10156735707E+03  0.17235331758E+03  0.12500047651E+03 0.  0.
         23    2    1    2    0    0 -0.20830463345E+02  0.57712310014E+02 -0.10648676983E+03  0.15474007411E+03  0.94023611163E+02 0.  0.
          5    1    3    3  502    0 -0.51368479939E+02 -0.15586437426E+02 -0.27155041659E+02  0.60341892996E+02  0.47000000000E+01 0.  1.
         -5    1    4    4    0  503  0.15684792360E+02  0.32081214997E+02 -0.10371892242E+03  0.10979490851E+03  0.47000000000E+01 0.  1.
          5    1    4    4  503    0 -0.36515255706E+02  0.25631095017E+02 -0.27678474053E+01  0.44945165594E+02  0.47000000000E+01 0. -1.
         -5    1    3    3    0  502  0.72198943284E+02 -0.42125872588E+02 -0.74412315413E+02  0.11201142459E+03  0.47000000000E+01 0.  1.
<mgrwt>
<rscale>  0 0.13194945E+03</rscale>
<asrwt>0</asrwt>
<pdfrwt beam="1">  1        1 0.91568664E-02 0.13924704E+03</pdfrwt>
<pdfrwt beam="2">  1       -1 0.41165194E-01 0.13924704E+03</pdfrwt>
<totfact> 0.40686071E+03</totfact>
</mgrwt>
</event>
<event>
 8    1  0.3217375E-004  0.1260676E+03  0.7546771E-02  0.1247966E+00
         -2   -1    0    0    0  501 -0.00000000000E+00  0.00000000000E+00  0.41001659713E+02  0.41001659713E+02  0.00000000000E+00 0.  1.
          2   -1    0    0  501    0  0.00000000000E+00 -0.00000000000E+00 -0.29787728163E+03  0.29787728163E+03  0.00000000000E+00 0. -1.
         25    2    1    2    0    0  0.16292729378E+02  0.15668269407E+01 -0.16398719615E+03  0.20684494880E+03  0.12500049746E+03 0.  0.
         23    2    1    2    0    0 -0.16292729378E+02 -0.15668269407E+01 -0.92888425762E+02  0.13203399254E+03  0.92394846001E+02 0.  0.
          5    1    4    4  502    0  0.30539298119E+02  0.21127628436E+02 -0.20262368172E+02  0.42563822395E+02  0.47000000000E+01 0. -1.
         -5    1    3    3    0  503  0.45350026406E+02  0.37114743672E+02 -0.14585633396E+03  0.15725866987E+03  0.47000000000E+01 0. -1.
          5    1    3    3  503    0 -0.29057297028E+02 -0.35547916732E+02 -0.18130862192E+02  0.49586278932E+02  0.47000000000E+01 0. -1.
         -5    1    4    4    0  502 -0.46832027497E+02 -0.22694455377E+02 -0.72626057590E+02  0.89470170143E+02  0.47000000000E+01 0.  1.
<mgrwt>
<rscale>  0 0.11709597E+03</rscale>
<asrwt>0</asrwt>
<pdfrwt beam="1">  1        2 0.45827275E-01 0.12606757E+03</pdfrwt>
<pdfrwt beam="2">  1       -2 0.63079475E-02 0.12606757E+03</pdfrwt>
<totfact> 0.14101731E+04</totfact>
</mgrwt>
</event>
<event>
 8    1  0.3217375E-004  0.1256679E+03  0.7546771E-02  0.1247967E+00
          2   -1    0    0  501    0  0.00000000000E+00  0.00000000000E+00  0.12688175360E+03  0.12688175360E+03  0.00000000000E+00 0. -1.
         -2   -1    0    0    0  501 -0.00000000000E+00 -0.00000000000E+00 -0.10305164956E+03  0.10305164956E+03  0.00000000000E+00 0.  1.
         25    2    1    2    0    0  0.50361092159E+00  0.12770266503E+02  0.43874668861E+02  0.13310673098E+03  0.12501632667E+03 0.  0.
         23    2    1    2    0    0 -0.50361092159E+00 -0.12770266503E+02 -0.20044564815E+02  0.96826672187E+02  0.93863126613E+02 0.  0.
          5    1    3    3  502    0 -0.86551892806E+01  0.43151721401E+02 -0.29387813980E+02  0.53129247801E+02  0.47000000000E+01 0. -1.
         -5    1    3    3    0  502  0.91588002022E+01 -0.30381454899E+02  0.73262482841E+02  0.79977483175E+02  0.47000000000E+01 0. -1.
          5    1    4    4  503    0 -0.39365837311E+02  0.88237113462E+01  0.11381441559E+02  0.42180021824E+02  0.47000000000E+01 0. -1.
         -5    1    4    4    0  503  0.38862226389E+02 -0.21593977849E+02 -0.31426006374E+02  0.54646650363E+02  0.47000000000E+01 0.  1.
<mgrwt>
<rscale>  0 0.11709522E+03</rscale>
<asrwt>0</asrwt>
<pdfrwt beam="1">  1        2 0.19520270E-01 0.12566788E+03</pdfrwt>
<pdfrwt beam="2">  1       -2 0.15854100E-01 0.12566788E+03</pdfrwt>
<totfact> 0.83616152E+03</totfact>
</mgrwt>
</event>
<event>
 8    1  0.3217375E-004  0.1347183E+03  0.7546771E-02  0.1233010E+00
          2   -1    0    0  501    0  0.00000000000E+00  0.00000000000E+00  0.17167650200E+02  0.17167650200E+02  0.00000000000E+00 0. -1.
         -2   -1    0    0    0  501 -0.00000000000E+00 -0.00000000000E+00 -0.86831266991E+03  0.86831266991E+03  0.00000000000E+00 0.  1.
         25    2    1    2    0    0 -0.44248163100E+02  0.23778706203E+02 -0.56876075919E+03  0.58449793364E+03  0.12500282567E+03 0.  0.
         23    2    1    2    0    0  0.44248163100E+02 -0.23778706203E+02 -0.28238426051E+03  0.30098238647E+03  0.91248011326E+02 0.  0.
          5    1    3    3  502    0  0.30507336208E+02  0.46837109044E+02 -0.21979566367E+03  0.22684055218E+03  0.47000000000E+01 0. -1.
         -5    1    4    4    0  503 -0.17852615024E+02 -0.21522897554E+02 -0.17112726998E+03  0.17346061084E+03  0.47000000000E+01 0.  1.
          5    1    4    4  503    0  0.62100778124E+02 -0.22558086494E+01 -0.11125699053E+03  0.12752177562E+03  0.47000000000E+01 0. -1.
         -5    1    3    3    0  502 -0.74755499308E+02 -0.23058402841E+02 -0.34896509552E+03  0.35765738146E+03  0.47000000000E+01 0. -1.
<mgrwt>
<rscale>  0 0.12632707E+03</rscale>
<asrwt>0</asrwt>
<pdfrwt beam="1">  1        2 0.26411776E-02 0.13471835E+03</pdfrwt>
<pdfrwt beam="2">  1       -2 0.13358653E+00 0.13471835E+03</pdfrwt>
<totfact> 0.15276814E+03</totfact>
</mgrwt>
</event>
<event>
 8    1  0.3217375E-004  0.1253093E+03  0.7546771E-02  0.1250059E+00
         -1   -1    0    0    0  501 -0.00000000000E+00  0.00000000000E+00  0.10342513630E+03  0.10342513630E+03  0.00000000000E+00 0.  1.
          1   -1    0    0  501    0  0.00000000000E+00 -0.00000000000E+00 -0.11438970071E+03  0.11438970071E+03  0.00000000000E+00 0. -1.
         25    2    1    2    0    0  0.38681238310E+01 -0.79221431666E+01 -0.14326024495E+02  0.12612557507E+03  0.12499881189E+03 0.  0.
         23    2    1    2    0    0 -0.38681238310E+01  0.79221431666E+01  0.33614600920E+01  0.91689261947E+02  0.91202514264E+02 0.  0.
          5    1    3    3  502    0 -0.54769004578E+02 -0.10124418626E+02  0.18310178847E+02  0.58817517496E+02  0.47000000000E+01 0.  1.
         -5    1    4    4    0  503  0.30573468611E+02  0.24640823287E+02 -0.22261006878E+02  0.45382260657E+02  0.47000000000E+01 0.  1.
          5    1    4    4  503    0 -0.34441592441E+02 -0.16718680120E+02  0.25622466970E+02  0.46307001290E+02  0.47000000000E+01 0. -1.
         -5    1    3    3    0  502  0.58637128409E+02  0.22022754593E+01 -0.32636203342E+02  0.67308057570E+02  0.47000000000E+01 0.  1.
<mgrwt>
<rscale>  0 0.11587617E+03</rscale>
<asrwt>0</asrwt>
<pdfrwt beam="1">  1        1 0.17598415E-01 0.12530932E+03</pdfrwt>
<pdfrwt beam="2">  1       -1 0.15911559E-01 0.12530932E+03</pdfrwt>
<totfact> 0.82778752E+03</totfact>
</mgrwt>
</event>
<event>
 8    1  0.3217375E-004  0.1717711E+03  0.7546771E-02  0.1182493E+00
          2   -1    0    0  501    0  0.00000000000E+00  0.00000000000E+00  0.55108783546E+03  0.55108783546E+03  0.00000000000E+00 0. -1.
         -2   -1    0    0    0  501 -0.00000000000E+00 -0.00000000000E+00 -0.46829527413E+02  0.46829527413E+02  0.00000000000E+00 0.  1.
         25    2    1    2    0    0  0.80397346453E+02 -0.86123169063E+02  0.24615611009E+03  0.30016353603E+03  0.12499753702E+03 0.  0.
         23    2    1    2    0    0 -0.80397346453E+02  0.86123169063E+02  0.25810219795E+03  0.29775382684E+03  0.90330854324E+02 0.  0.
          5    1    3    3  502    0  0.61945473819E+02 -0.33655202436E+01  0.18590905984E+03  0.19604294678E+03  0.47000000000E+01 0. -1.
         -5    1    4    4    0  503 -0.32682226649E+02  0.60899052953E+02  0.57696211137E+02  0.90154120088E+02  0.47000000000E+01 0.  1.
          5    1    4    4  503    0 -0.47715119804E+02  0.25224116110E+02  0.20040598682E+03  0.20759970675E+03  0.47000000000E+01 0. -1.
         -5    1    3    3    0  502  0.18451872634E+02 -0.82757648820E+02  0.60247050257E+02  0.10412058925E+03  0.47000000000E+01 0. -1.
<mgrwt>
<rscale>  0 0.16562105E+03</rscale>
<asrwt>0</asrwt>
<pdfrwt beam="1">  1        2 0.84782739E-01 0.17177112E+03</pdfrwt>
<pdfrwt beam="2">  1       -2 0.72045431E-02 0.17177112E+03</pdfrwt>
<totfact> 0.60468475E+03</totfact>
</mgrwt>
</event>
<event>
 8    1  0.3217375E-004  0.1769410E+03  0.7546771E-02  0.1176947E+00
          2   -1    0    0  501    0  0.00000000000E+00  0.00000000000E+00  0.29743594268E+03  0.29743594268E+03  0.00000000000E+00 0. -1.
         -2   -1    0    0    0  501 -0.00000000000E+00 -0.00000000000E+00 -0.95365620520E+02  0.95365620520E+02  0.00000000000E+00 0.  1.
         25    2    1    2    0    0  0.12506791133E+03  0.67380385342E+01  0.70923072446E+02  0.19062578574E+03  0.12498289633E+03 0.  0.
         23    2    1    2    0    0 -0.12506791133E+03 -0.67380385342E+01  0.13114724971E+03  0.20217577746E+03  0.89375949094E+02 0.  0.
          5    1    4    4  502    0 -0.10627094177E+03 -0.33181370420E+02  0.66692444435E+02  0.12986334569E+03  0.47000000000E+01 0. -1.
         -5    1    3    3    0  503  0.13409505879E+00 -0.39439555575E+02  0.14235765849E+00  0.39719098569E+02  0.47000000000E+01 0. -1.
          5    1    3    3  503    0  0.12493381627E+03  0.46177594109E+02  0.70780714787E+02  0.15090668717E+03  0.47000000000E+01 0. -1.
         -5    1    4    4    0  502 -0.18796969560E+02  0.26443331886E+02  0.64454805276E+02  0.72312431774E+02  0.47000000000E+01 0.  1.
<mgrwt>
<rscale>  0 0.17086715E+03</rscale>
<asrwt>0</asrwt>
<pdfrwt beam="1">  1        2 0.45759375E-01 0.17694097E+03</pdfrwt>
<pdfrwt beam="2">  1       -2 0.14671634E-01 0.17694097E+03</pdfrwt>
<totfact> 0.38280018E+03</totfact>
</mgrwt>
</event>
<event>
 8    1  0.3217375E-004  0.1395092E+03  0.7546771E-02  0.1225233E+00
         -1   -1    0    0    0  501 -0.00000000000E+00  0.00000000000E+00  0.20960682277E+03  0.20960682277E+03  0.00000000000E+00 0.  1.
          1   -1    0    0  501    0  0.00000000000E+00 -0.00000000000E+00 -0.93824943891E+02  0.93824943891E+02  0.00000000000E+00 0. -1.
         25    2    1    2    0    0  0.83590351778E+01  0.61393893336E+02  0.13203209003E+03  0.19208146935E+03  0.12499493774E+03 0.  0.
         23    2    1    2    0    0 -0.83590351778E+01 -0.61393893336E+02 -0.16250211152E+02  0.11135029732E+03  0.91080929627E+02 0.  0.
          5    1    4    4  502    0  0.37356214389E+02 -0.71589517014E+01 -0.11899021777E+02  0.40129964643E+02  0.47000000000E+01 0.  1.
         -5    1    3    3    0  503  0.26124926240E+02  0.70767112319E+02  0.20023582532E+02  0.78189064545E+02  0.47000000000E+01 0. -1.
          5    1    3    3  503    0 -0.17765891063E+02 -0.93732189825E+01  0.11200850750E+03  0.11389240480E+03  0.47000000000E+01 0. -1.
         -5    1    4    4    0  502 -0.45715249567E+02 -0.54234941635E+02 -0.43511893742E+01  0.71220332673E+02  0.47000000000E+01 0. -1.
<mgrwt>
<rscale>  0 0.13150925E+03</rscale>
<asrwt>0</asrwt>
<pdfrwt beam="1">  1        1 0.14434607E-01 0.13950920E+03</pdfrwt>
<pdfrwt beam="2">  1       -1 0.32247203E-01 0.13950920E+03</pdfrwt>
<totfact> 0.34088309E+03</totfact>
</mgrwt>
</event>
<event>
 8    1  0.3217375E-004  0.2378083E+03  0.7546771E-02  0.1124145E+00
         -2   -1    0    0    0  501 -0.00000000000E+00  0.00000000000E+00  0.40311922078E+02  0.40311922078E+02  0.00000000000E+00 0.  1.
          2   -1    0    0  501    0  0.00000000000E+00 -0.00000000000E+00 -0.13411248375E+04  0.13411248375E+04  0.00000000000E+00 0. -1.
         25    2    1    2    0    0  0.83450443560E+02  0.18428847410E+03 -0.78258192602E+03  0.81791639980E+03  0.12500619147E+03 0.  0.
         23    2    1    2    0    0 -0.83450443560E+02 -0.18428847410E+03 -0.51823098939E+03  0.56352035976E+03  0.89808792959E+02 0.  0.
          5    1    3    3  502    0  0.33237326326E+01  0.14217822417E+03 -0.39414083958E+03  0.41904031554E+03  0.47000000000E+01 0. -1.
         -5    1    4    4    0  503 -0.13026586916E+02 -0.12280378715E+03 -0.23972278882E+03  0.26970273930E+03  0.47000000000E+01 0.  1.
          5    1    4    4  503    0 -0.70423856644E+02 -0.61484686948E+02 -0.27850820057E+03  0.29381762047E+03  0.47000000000E+01 0. -1.
         -5    1    3    3    0  502  0.80126710927E+02  0.42110249929E+02 -0.38844108644E+03  0.39887608425E+03  0.47000000000E+01 0. -1.
<mgrwt>
<rscale>  0 0.23358000E+03</rscale>
<asrwt>0</asrwt>
<pdfrwt beam="1">  1        2 0.20632693E+00 0.23780825E+03</pdfrwt>
<pdfrwt beam="2">  1       -2 0.62018333E-02 0.23780825E+03</pdfrwt>
<totfact> 0.23405397E+03</totfact>
</mgrwt>
</event>
<event>
 8    1  0.3217375E-004  0.1301425E+03  0.7546771E-02  0.1241106E+00
         -1   -1    0    0    0  501 -0.00000000000E+00  0.00000000000E+00  0.68374407323E+03  0.68374407323E+03  0.00000000000E+00 0.  1.
          1   -1    0    0  501    0  0.00000000000E+00 -0.00000000000E+00 -0.24005112262E+02  0.24005112262E+02  0.00000000000E+00 0. -1.
         25    2    1    2    0    0 -0.35130672492E+02 -0.87651235745E+01  0.20680475540E+03  0.24434661477E+03  0.12500427894E+03 0.  0.
         23    2    1    2    0    0  0.35130672492E+02  0.87651235745E+01  0.45293420557E+03  0.46340257072E+03  0.91003057287E+02 0.  0.
          5    1    4    4  502    0  0.23195507448E+02 -0.34608042882E+02  0.11403115900E+03  0.12149462301E+03  0.47000000000E+01 0. -1.
         -5    1    3    3    0  503 -0.88756643658E+01 -0.23581975432E+02  0.21187232496E+03  0.21341710116E+03  0.47000000000E+01 0.  1.
          5    1    3    3  503    0 -0.26255008127E+02  0.14816851858E+02 -0.50675695653E+01  0.30929513607E+02  0.47000000000E+01 0.  1.
         -5    1    4    4    0  502  0.11935165044E+02  0.43373166457E+02  0.33890304657E+03  0.34190794771E+03  0.47000000000E+01 0.  1.
<mgrwt>
<rscale>  0 0.12121490E+03</rscale>
<asrwt>0</asrwt>
<pdfrwt beam="1">  1        1 0.36930947E-02 0.13014247E+03</pdfrwt>
<pdfrwt beam="2">  1       -1 0.10519138E+00 0.13014247E+03</pdfrwt>
<totfact> 0.22105931E+03</totfact>
</mgrwt>
</event>
<event>
 8    1  0.3217375E-004  0.1287812E+03  0.7546771E-02  0.1243125E+00
         -2   -1    0    0    0  501 -0.00000000000E+00  0.00000000000E+00  0.67078686757E+02  0.67078686757E+02  0.00000000000E+00 0. -1.
          2   -1    0    0  501    0  0.00000000000E+00 -0.00000000000E+00 -0.21825199028E+03  0.21825199028E+03  0.00000000000E+00 0.  1.
         25    2    1    2    0    0 -0.97963067504E+01 -0.29400538087E+02 -0.13568391036E+03  0.18706872881E+03  0.12499690597E+03 0.  0.
         23    2    1    2    0    0  0.97963067504E+01  0.29400538087E+02 -0.15489393163E+02  0.98261948227E+02  0.91951780315E+02 0.  0.
          5    1    3    3  502    0 -0.50310158139E+02 -0.59227642007E+02 -0.89386993659E+02  0.11853754774E+03  0.47000000000E+01 0. -1.
         -5    1    4    4    0  503  0.40688988482E+02  0.26491100398E+01 -0.33862118435E+02  0.53210380873E+02  0.47000000000E+01 0.  1.
          5    1    4    4  503    0 -0.30892681732E+02  0.26751428047E+02  0.18372725272E+02  0.45051567354E+02  0.47000000000E+01 0. -1.
         -5    1    3    3    0  502  0.40513851389E+02  0.29827103920E+02 -0.46296916703E+02  0.68531181070E+02  0.47000000000E+01 0. -1.
<mgrwt>
<rscale>  0 0.11998297E+03</rscale>
<asrwt>0</asrwt>
<pdfrwt beam="1">  1        2 0.33577229E-01 0.12878115E+03</pdfrwt>
<pdfrwt beam="2">  1       -2 0.10319798E-01 0.12878115E+03</pdfrwt>
<totfact> 0.91949645E+03</totfact>
</mgrwt>
</event>
<event>
 8    1  0.3217375E-004  0.1348045E+03  0.7546771E-02  0.1232029E+00
          2   -1    0    0  501    0  0.00000000000E+00  0.00000000000E+00  0.13757842653E+03  0.13757842653E+03  0.00000000000E+00 0. -1.
         -2   -1    0    0    0  501 -0.00000000000E+00 -0.00000000000E+00 -0.11490058680E+03  0.11490058680E+03  0.00000000000E+00 0.  1.
         25    2    1    2    0    0  0.49897288060E+02 -0.75715624964E+01 -0.23408328048E+02  0.13682180788E+03  0.12500075750E+03 0.  0.
         23    2    1    2    0    0 -0.49897288060E+02  0.75715624964E+01  0.46086167776E+02  0.11565720544E+03  0.93303731947E+02 0.  0.
          5    1    3    3  502    0  0.36990218727E+02  0.55145715348E+02  0.46999983487E+01  0.66734595130E+02  0.47000000000E+01 0. -1.
         -5    1    4    4    0  503 -0.17914550646E+02 -0.42561726352E+02  0.19382668462E+02  0.50301187974E+02  0.47000000000E+01 0.  1.
          5    1    4    4  503    0 -0.31982737414E+02  0.50133288848E+02  0.26703499313E+02  0.65356017465E+02  0.47000000000E+01 0. -1.
         -5    1    3    3    0  502  0.12907069333E+02 -0.62717277844E+02 -0.28108326397E+02  0.70087212755E+02  0.47000000000E+01 0. -1.
<mgrwt>
<rscale>  0 0.12696535E+03</rscale>
<asrwt>0</asrwt>
<pdfrwt beam="1">  1        2 0.21165912E-01 0.13480452E+03</pdfrwt>
<pdfrwt beam="2">  1       -2 0.17677013E-01 0.13480452E+03</pdfrwt>
<totfact> 0.64096355E+03</totfact>
</mgrwt>
</event>
<event>
 8    1  0.3217375E-004  0.1442939E+03  0.7546771E-02  0.1218833E+00
         -2   -1    0    0    0  501 -0.00000000000E+00  0.00000000000E+00  0.16419748864E+02  0.16419748864E+02  0.00000000000E+00 0. -1.
          2   -1    0    0  501    0  0.00000000000E+00 -0.00000000000E+00 -0.10689197312E+04  0.10689197312E+04  0.00000000000E+00 0.  1.
         25    2    1    2    0    0  0.42534013024E+00 -0.72081053186E+02 -0.46348848354E+03  0.48543003287E+03  0.12499953315E+03 0.  0.
         23    2    1    2    0    0 -0.42534013024E+00  0.72081053186E+02 -0.58901149882E+03  0.59990944722E+03  0.88096197348E+02 0.  0.
          5    1    4    4  502    0 -0.42344079896E+02  0.25619648034E+02 -0.21523150853E+03  0.22089834705E+03  0.47000000000E+01 0. -1.
         -5    1    3    3    0  503 -0.46988847593E+02  0.71333684598E+01 -0.10742914779E+03  0.11756678331E+03  0.47000000000E+01 0. -1.
          5    1    3    3  503    0  0.47414187723E+02 -0.79214421646E+02 -0.35605933575E+03  0.36786324955E+03  0.47000000000E+01 0. -1.
         -5    1    4    4    0  502  0.41918739765E+02  0.46461405152E+02 -0.37377999029E+03  0.37901110017E+03  0.47000000000E+01 0.  1.
<mgrwt>
<rscale>  0 0.13598728E+03</rscale>
<asrwt>0</asrwt>
<pdfrwt beam="1">  1        2 0.16444916E+00 0.14429394E+03</pdfrwt>
<pdfrwt beam="2">  1       -2 0.25261156E-02 0.14429394E+03</pdfrwt>
<totfact> 0.12599235E+04</totfact>
</mgrwt>
</event>
<event>
 8    1  0.3217375E-004  0.1539332E+03  0.7546771E-02  0.1203275E+00
         -2   -1    0    0    0  501 -0.00000000000E+00  0.00000000000E+00  0.17125561281E+02  0.17125561281E+02  0.00000000000E+00 0. -1.
          2   -1    0    0  501    0  0.00000000000E+00 -0.00000000000E+00 -0.13388803455E+04  0.13388803455E+04  0.00000000000E+00 0.  1.
         25    2    1    2    0    0 -0.83084009649E+02  0.34168270047E+02 -0.47730882406E+03  0.50151682919E+03  0.12499997237E+03 0.  0.
         23    2    1    2    0    0  0.83084009649E+02 -0.34168270047E+02 -0.84444596013E+03  0.85448907757E+03  0.94827109846E+02 0.  0.
          5    1    3    3  502    0 -0.87664722405E+02  0.10027474794E+02 -0.46557292267E+03  0.47388383611E+03  0.47000000000E+01 0.  1.
         -5    1    4    4    0  503  0.96559944875E+02 -0.35660044588E+01 -0.64144560279E+03  0.64869953806E+03  0.47000000000E+01 0.  1.
          5    1    4    4  503    0 -0.13475935226E+02 -0.30602265589E+02 -0.20300035734E+03  0.20578953951E+03  0.47000000000E+01 0. -1.
         -5    1    3    3    0  502  0.45807127559E+01  0.24140795253E+02 -0.11735901392E+02  0.27632993075E+02  0.47000000000E+01 0.  1.
<mgrwt>
<rscale>  0 0.14774228E+03</rscale>
<asrwt>0</asrwt>
<pdfrwt beam="1">  1        2 0.20598157E+00 0.15393316E+03</pdfrwt>
<pdfrwt beam="2">  1       -2 0.26347020E-02 0.15393316E+03</pdfrwt>
<totfact> 0.84078056E+03</totfact>
</mgrwt>
</event>
<event>
 8    1  0.3217375E-004  0.1384719E+03  0.7546771E-02  0.1226019E+00
          2   -1    0    0  501    0  0.00000000000E+00  0.00000000000E+00  0.67189074464E+02  0.67189074464E+02  0.00000000000E+00 0. -1.
         -2   -1    0    0    0  501 -0.00000000000E+00 -0.00000000000E+00 -0.26708959135E+03  0.26708959135E+03  0.00000000000E+00 0.  1.
         25    2    1    2    0    0  0.45231632628E+02 -0.38687080778E+02 -0.17044783664E+03  0.21960628399E+03  0.12502745356E+03 0.  0.
         23    2    1    2    0    0 -0.45231632628E+02  0.38687080778E+02 -0.29452680248E+02  0.11467238183E+03  0.93486383878E+02 0.  0.
          5    1    4    4  502    0 -0.24249100735E+02 -0.18825355648E+02  0.19043086861E+02  0.36429961006E+02  0.47000000000E+01 0. -1.
         -5    1    4    4    0  502 -0.20982531893E+02  0.57512436426E+02 -0.48495767110E+02  0.78242420820E+02  0.47000000000E+01 0.  1.
          5    1    3    3  503    0 -0.20987926906E+02 -0.30804531842E+02 -0.14211590120E+03  0.14699806677E+03  0.47000000000E+01 0. -1.
         -5    1    3    3    0  503  0.66219559534E+02 -0.78825489366E+01 -0.28331935432E+02  0.72608217221E+02  0.47000000000E+01 0. -1.
<mgrwt>
<rscale>  0 0.13097279E+03</rscale>
<asrwt>0</asrwt>
<pdfrwt beam="1">  1        2 0.10336781E-01 0.13847186E+03</pdfrwt>
<pdfrwt beam="2">  1       -2 0.41090706E-01 0.13847186E+03</pdfrwt>
<totfact> 0.33359051E+03</totfact>
</mgrwt>
</event>
<event>
 8    1  0.3217375E-004  0.1251798E+03  0.7546771E-02  0.1249997E+00
          2   -1    0    0  501    0  0.00000000000E+00  0.00000000000E+00  0.89978184307E+03  0.89978184307E+03  0.00000000000E+00 0. -1.
         -2   -1    0    0    0  501 -0.00000000000E+00 -0.00000000000E+00 -0.13271229213E+02  0.13271229213E+02  0.00000000000E+00 0.  1.
         25    2    1    2    0    0  0.60790349129E+01  0.86502136336E+00  0.46008452655E+03  0.47680997425E+03  0.12502910481E+03 0.  0.
         23    2    1    2    0    0 -0.60790349129E+01 -0.86502136336E+00  0.42642608730E+03  0.43624309803E+03  0.91821183376E+02 0.  0.
          5    1    4    4  502    0 -0.49774738082E+01 -0.44093530863E+02  0.27858634024E+03  0.28213729579E+03  0.47000000000E+01 0. -1.
         -5    1    4    4    0  502 -0.11015611047E+01  0.43228509500E+02  0.14783974707E+03  0.15410580224E+03  0.47000000000E+01 0.  1.
          5    1    3    3  503    0 -0.37111252581E+02 -0.19011486416E+02  0.38842001256E+03  0.39068001976E+03  0.47000000000E+01 0.  1.
         -5    1    3    3    0  503  0.43190287494E+02  0.19876507779E+02  0.71664513996E+02  0.86129954497E+02  0.47000000000E+01 0.  1.
<mgrwt>
<rscale>  0 0.11591206E+03</rscale>
<asrwt>0</asrwt>
<pdfrwt beam="1">  1        2 0.13842793E+00 0.12517979E+03</pdfrwt>
<pdfrwt beam="2">  1       -2 0.20417283E-02 0.12517979E+03</pdfrwt>
<totfact> 0.21513606E+04</totfact>
</mgrwt>
</event>
<event>
 8    1  0.3217375E-004  0.1341842E+03  0.7546771E-02  0.1233885E+00
         -1   -1    0    0    0  501 -0.00000000000E+00  0.00000000000E+00  0.73598015393E+03  0.73598015393E+03  0.00000000000E+00 0.  1.
          1   -1    0    0  501    0  0.00000000000E+00 -0.00000000000E+00 -0.19384588627E+02  0.19384588627E+02  0.00000000000E+00 0. -1.
         25    2    1    2    0    0 -0.52826601814E+00  0.48772157762E+02  0.36704108518E+03  0.39079990822E+03  0.12500563033E+03 0.  0.
         23    2    1    2    0    0  0.52826601814E+00 -0.48772157762E+02  0.34955448012E+03  0.36456483433E+03  0.91324593762E+02 0.  0.
          5    1    4    4  502    0 -0.22767920420E+02 -0.65141034012E+02  0.18515119225E+03  0.19764813812E+03  0.47000000000E+01 0. -1.
         -5    1    3    3    0  503 -0.55668217917E+02 -0.61091781527E+01  0.14874574291E+03  0.15900836009E+03  0.47000000000E+01 0.  1.
          5    1    3    3  503    0  0.55139951899E+02  0.54881335915E+02  0.21829534227E+03  0.23179154813E+03  0.47000000000E+01 0.  1.
         -5    1    4    4    0  502  0.23296186438E+02  0.16368876251E+02  0.16440328787E+03  0.16691669621E+03  0.47000000000E+01 0.  1.
<mgrwt>
<rscale>  0 0.12576111E+03</rscale>
<asrwt>0</asrwt>
<pdfrwt beam="1">  1        1 0.29822450E-02 0.13418424E+03</pdfrwt>
<pdfrwt beam="2">  1       -1 0.11322769E+00 0.13418424E+03</pdfrwt>
<totfact> 0.25178093E+03</totfact>
</mgrwt>
</event>
<event>
 8    1  0.3217375E-004  0.1257988E+03  0.7546771E-02  0.1248979E+00
          2   -1    0    0  501    0  0.00000000000E+00  0.00000000000E+00  0.48169537847E+03  0.48169537847E+03  0.00000000000E+00 0. -1.
         -2   -1    0    0    0  501 -0.00000000000E+00 -0.00000000000E+00 -0.24741899469E+02  0.24741899469E+02  0.00000000000E+00 0.  1.
         25    2    1    2    0    0  0.12432766004E+02 -0.67973301397E+01  0.26385716975E+03  0.29231140283E+03  0.12499829131E+03 0.  0.
         23    2    1    2    0    0 -0.12432766004E+02  0.67973301397E+01  0.19309630925E+03  0.21412587511E+03  0.91449047977E+02 0.  0.
          5    1    4    4  502    0  0.74999282418E+01  0.44585094851E+02  0.13053689578E+03  0.13822463878E+03  0.47000000000E+01 0. -1.
         -5    1    4    4    0  502 -0.19932694245E+02 -0.37787764711E+02  0.62559413477E+02  0.75901236329E+02  0.47000000000E+01 0.  1.
          5    1    3    3  503    0 -0.35369371688E+02 -0.39546664913E+02  0.19525571231E+03  0.20239025260E+03  0.47000000000E+01 0. -1.
         -5    1    3    3    0  503  0.47802137691E+02  0.32749334773E+02  0.68601457442E+02  0.89921150233E+02  0.47000000000E+01 0. -1.
<mgrwt>
<rscale>  0 0.11650383E+03</rscale>
<asrwt>0</asrwt>
<pdfrwt beam="1">  1        2 0.74106974E-01 0.12579885E+03</pdfrwt>
<pdfrwt beam="2">  1       -2 0.38064464E-02 0.12579885E+03</pdfrwt>
<totfact> 0.17997760E+04</totfact>
</mgrwt>
</event>
<event>
 8    1  0.3217375E-004  0.1663688E+03  0.7546771E-02  0.1190225E+00
         -1   -1    0    0    0  501 -0.00000000000E+00  0.00000000000E+00  0.36934509132E+02  0.36934509132E+02  0.00000000000E+00 0.  1.
          1   -1    0    0  501    0  0.00000000000E+00 -0.00000000000E+00 -0.87613871558E+03  0.87613871558E+03  0.00000000000E+00 0. -1.
         25    2    1    2    0    0 -0.10505852865E+03 -0.31908186289E+02 -0.20449638406E+03  0.26362349369E+03  0.12499259393E+03 0.  0.
         23    2    1    2    0    0  0.10505852865E+03  0.31908186289E+02 -0.63470782239E+03  0.64944973103E+03  0.82918674211E+02 0.  0.
          5    1    3    3  502    0 -0.32774001579E+02 -0.18742768641E+02 -0.18301786054E+03  0.18693061235E+03  0.47000000000E+01 0. -1.
         -5    1    3    3    0  502 -0.72284527070E+02 -0.13165417649E+02 -0.21478523518E+02  0.76692881339E+02  0.47000000000E+01 0. -1.
          5    1    4    4  503    0  0.56784896344E+02 -0.10079191516E+02 -0.45440792870E+03  0.45807725355E+03  0.47000000000E+01 0. -1.
         -5    1    4    4    0  503  0.48273632305E+02  0.41987377806E+02 -0.18029989370E+03  0.19137247748E+03  0.47000000000E+01 0.  1.
<mgrwt>
<rscale>  0 0.15865377E+03</rscale>
<asrwt>0</asrwt>
<pdfrwt beam="1">  1        1 0.13479056E+00 0.16636879E+03</pdfrwt>
<pdfrwt beam="2">  1       -1 0.56822326E-02 0.16636879E+03</pdfrwt>
<totfact> 0.28615731E+03</totfact>
</mgrwt>
</event>
<event>
 8    1  0.3217375E-004  0.2220372E+03  0.7546771E-02  0.1135780E+00
         -2   -1    0    0    0  501 -0.00000000000E+00  0.00000000000E+00  0.18291822042E+03  0.18291822042E+03  0.00000000000E+00 0.  1.
          2   -1    0    0  501    0  0.00000000000E+00 -0.00000000000E+00 -0.32109808388E+03  0.32109808388E+03  0.00000000000E+00 0. -1.
         25    2    1    2    0    0 -0.82417756507E+02  0.16396011791E+03 -0.19108225689E+03  0.29293849627E+03  0.12499970740E+03 0.  0.
         23    2    1    2    0    0  0.82417756507E+02 -0.16396011791E+03  0.52902393423E+02  0.21107780803E+03  0.89886433675E+02 0.  0.
          5    1    4    4  502    0  0.53323928208E+02 -0.15813544867E+03  0.22712628461E+02  0.16848802609E+03  0.47000000000E+01 0. -1.
         -5    1    3    3    0  503  0.31407272961E+02  0.19403758910E+02 -0.41723083415E+02  0.55909107883E+02  0.47000000000E+01 0.  1.
          5    1    3    3  503    0 -0.11382502947E+03  0.14455635900E+03 -0.14935917347E+03  0.23702938839E+03  0.47000000000E+01 0.  1.
         -5    1    4    4    0  502  0.29093828298E+02 -0.58246692440E+01  0.30189764963E+02  0.42589781936E+02  0.47000000000E+01 0.  1.
<mgrwt>
<rscale>  0 0.21747440E+03</rscale>
<asrwt>0</asrwt>
<pdfrwt beam="1">  1        2 0.49399704E-01 0.22203723E+03</pdfrwt>
<pdfrwt beam="2">  1       -2 0.28141265E-01 0.22203723E+03</pdfrwt>
<totfact> 0.11638648E+03</totfact>
</mgrwt>
</event>
<event>
 8    1  0.3217375E-004  0.1318680E+03  0.7546771E-02  0.1241342E+00
         -4   -1    0    0    0  501 -0.00000000000E+00  0.00000000000E+00  0.47463037390E+02  0.47463037390E+02  0.00000000000E+00 0.  1.
          4   -1    0    0  501    0  0.00000000000E+00 -0.00000000000E+00 -0.27589783249E+03  0.27589783249E+03  0.00000000000E+00 0. -1.
         25    2    1    2    0    0  0.27534751551E+02  0.31701965096E+02 -0.10601640151E+03  0.16919999207E+03  0.12500393111E+03 0.  0.
         23    2    1    2    0    0 -0.27534751551E+02 -0.31701965096E+02 -0.12241839360E+03  0.15416087782E+03  0.83762378335E+02 0.  0.
          5    1    4    4  502    0 -0.41349801295E+02  0.76414146595E+01 -0.95104294044E+02  0.10409185382E+03  0.47000000000E+01 0. -1.
         -5    1    3    3    0  503  0.73730185454E+02  0.79092736100E+01 -0.85142634002E+02  0.11300466796E+03  0.47000000000E+01 0.  1.
          5    1    3    3  503    0 -0.46195433903E+02  0.23792691486E+02 -0.20873767504E+02  0.56195324106E+02  0.47000000000E+01 0.  1.
         -5    1    4    4    0  502  0.13815049744E+02 -0.39343379756E+02 -0.27314099552E+02  0.50069024000E+02  0.47000000000E+01 0.  1.
<mgrwt>
<rscale>  0 0.12107014E+03</rscale>
<asrwt>0</asrwt>
<pdfrwt beam="1">  1        4 0.42445821E-01 0.13186796E+03</pdfrwt>
<pdfrwt beam="2">  1       -4 0.73020056E-02 0.13186796E+03</pdfrwt>
<totfact> 0.11392842E+03</totfact>
</mgrwt>
</event>
<event>
 8    1  0.3217375E-004  0.1695669E+03  0.7546771E-02  0.1185034E+00
          2   -1    0    0  501    0  0.00000000000E+00  0.00000000000E+00  0.49216619557E+03  0.49216619557E+03  0.00000000000E+00 0.  1.
         -2   -1    0    0    0  501 -0.00000000000E+00 -0.00000000000E+00 -0.54127889496E+02  0.54127889496E+02  0.00000000000E+00 0. -1.
         25    2    1    2    0    0  0.96454208913E+02 -0.61843072255E+02  0.30471948186E+03  0.34872182156E+03  0.12499986482E+03 0.  0.
         23    2    1    2    0    0 -0.96454208913E+02  0.61843072255E+02  0.13331882422E+03  0.19757226351E+03  0.90182650297E+02 0.  0.
          5    1    3    3  502    0  0.77104763939E+02  0.13732264340E+02  0.85773488375E+02  0.11624500425E+03  0.47000000000E+01 0.  1.
         -5    1    3    3    0  502  0.19349444973E+02 -0.75575336594E+02  0.21894599349E+03  0.23247681731E+03  0.47000000000E+01 0.  1.
          5    1    4    4  503    0 -0.64097167637E+02 -0.36756476964E+01  0.30216093509E+02  0.71113005787E+02  0.47000000000E+01 0. -1.
         -5    1    4    4    0  503 -0.32357041275E+02  0.65518719951E+02  0.10310273071E+03  0.12645925772E+03  0.47000000000E+01 0.  1.
<mgrwt>
<rscale>  0 0.16328773E+03</rscale>
<asrwt>0</asrwt>
<pdfrwt beam="1">  1        2 0.75717873E-01 0.16956694E+03</pdfrwt>
<pdfrwt beam="2">  1       -2 0.83273680E-02 0.16956694E+03</pdfrwt>
<totfact> 0.54772435E+03</totfact>
</mgrwt>
</event>
<event>
 8    1  0.3217375E-004  0.2186356E+03  0.7546771E-02  0.1138685E+00
          2   -1    0    0  501    0  0.00000000000E+00  0.00000000000E+00  0.10393425199E+04  0.10393425199E+04  0.00000000000E+00 0. -1.
         -2   -1    0    0    0  501 -0.00000000000E+00 -0.00000000000E+00 -0.48144322220E+02  0.48144322220E+02  0.00000000000E+00 0.  1.
         25    2    1    2    0    0  0.15888999733E+03  0.83241114868E+02  0.70872370901E+03  0.74168107134E+03  0.12500560552E+03 0.  0.
         23    2    1    2    0    0 -0.15888999733E+03 -0.83241114868E+02  0.28247448868E+03  0.34580577080E+03  0.87262133272E+02 0.  0.
          5    1    3    3  502    0  0.23720811870E+02 -0.24907211177E+02  0.52105354418E+02  0.62610734250E+02  0.47000000000E+01 0. -1.
         -5    1    4    4    0  503 -0.83641690518E+02 -0.78836886899E+02  0.11786583694E+03  0.16469861155E+03  0.47000000000E+01 0.  1.
          5    1    4    4  503    0 -0.75248306812E+02 -0.44042279683E+01  0.16460865174E+03  0.18110715924E+03  0.47000000000E+01 0. -1.
         -5    1    3    3    0  502  0.13516918546E+03  0.10814832604E+03  0.65661835459E+03  0.67907033709E+03  0.47000000000E+01 0. -1.
<mgrwt>
<rscale>  0 0.21367912E+03</rscale>
<asrwt>0</asrwt>
<pdfrwt beam="1">  1        2 0.15989883E+00 0.21863558E+03</pdfrwt>
<pdfrwt beam="2">  1       -2 0.74068196E-02 0.21863558E+03</pdfrwt>
<totfact> 0.26402393E+03</totfact>
</mgrwt>
</event>
<event>
 8    1  0.3217375E-004  0.1720052E+03  0.7546771E-02  0.1181936E+00
         -1   -1    0    0    0  501 -0.00000000000E+00  0.00000000000E+00  0.21081646042E+02  0.21081646042E+02  0.00000000000E+00 0.  1.
          1   -1    0    0  501    0  0.00000000000E+00 -0.00000000000E+00 -0.12358895473E+04  0.12358895473E+04  0.00000000000E+00 0. -1.
         25    2    1    2    0    0 -0.14356320772E+02 -0.11727807446E+03 -0.59719523042E+03  0.62147238535E+03  0.12500212729E+03 0.  0.
         23    2    1    2    0    0  0.14356320772E+02  0.11727807446E+03 -0.61761267086E+03  0.63549880800E+03  0.91940595384E+02 0.  0.
          5    1    3    3  502    0  0.32219070751E+02  0.11839557655E+02 -0.11675889119E+03  0.12179069060E+03  0.47000000000E+01 0. -1.
         -5    1    3    3    0  502 -0.46575391523E+02 -0.12911763211E+03 -0.48043633923E+03  0.49968169475E+03  0.47000000000E+01 0. -1.
          5    1    4    4  503    0 -0.21826068023E+02 -0.36021343049E+01 -0.72094654079E+02  0.75558465863E+02  0.47000000000E+01 0.  1.
         -5    1    4    4    0  503  0.36182388795E+02  0.12088020876E+03 -0.54551801678E+03  0.55994034214E+03  0.47000000000E+01 0. -1.
<mgrwt>
<rscale>  0 0.16613817E+03</rscale>
<asrwt>0</asrwt>
<pdfrwt beam="1">  1        1 0.19013690E+00 0.17200518E+03</pdfrwt>
<pdfrwt beam="2">  1       -1 0.32433294E-02 0.17200518E+03</pdfrwt>
<totfact> 0.35998409E+03</totfact>
</mgrwt>
</event>
<event>
 8    1  0.3217375E-004  0.1316920E+03  0.7546771E-02  0.1236914E+00
         -1   -1    0    0    0  501 -0.00000000000E+00  0.00000000000E+00  0.50602951186E+02  0.50602951186E+02  0.00000000000E+00 0.  1.
          1   -1    0    0  501    0  0.00000000000E+00 -0.00000000000E+00 -0.35716729656E+03  0.35716729656E+03  0.00000000000E+00 0. -1.
         25    2    1    2    0    0 -0.40473206200E+02  0.89007729864E+01 -0.26658688026E+03  0.29734043579E+03  0.12500186338E+03 0.  0.
         23    2    1    2    0    0  0.40473206200E+02 -0.89007729864E+01 -0.39977465122E+02  0.11042981196E+03  0.94229727120E+02 0.  0.
          5    1    4    4  502    0 -0.77025876579E+01  0.28984404733E+02 -0.38389591113E+02  0.48941559846E+02  0.47000000000E+01 0. -1.
         -5    1    4    4    0  502  0.48175793858E+02 -0.37885177719E+02 -0.15878740092E+01  0.61488252118E+02  0.47000000000E+01 0.  1.
          5    1    3    3  503    0  0.21825632625E+02 -0.37422933767E+02 -0.15715866014E+03  0.16308822358E+03  0.47000000000E+01 0. -1.
         -5    1    3    3    0  503 -0.62298838825E+02  0.46323706753E+02 -0.10942822011E+03  0.13425221221E+03  0.47000000000E+01 0. -1.
<mgrwt>
<rscale>  0 0.12382689E+03</rscale>
<asrwt>0</asrwt>
<pdfrwt beam="1">  1        1 0.54948817E-01 0.13169195E+03</pdfrwt>
<pdfrwt beam="2">  1       -1 0.77850691E-02 0.13169195E+03</pdfrwt>
<totfact> 0.60132424E+03</totfact>
</mgrwt>
</event>
<event>
 8    1  0.3217375E-004  0.1688796E+03  0.7546771E-02  0.1187835E+00
          1   -1    0    0  501    0  0.00000000000E+00  0.00000000000E+00  0.91103056519E+02  0.91103056519E+02  0.00000000000E+00 0. -1.
         -1   -1    0    0    0  501 -0.00000000000E+00 -0.00000000000E+00 -0.47335621531E+03  0.47335621531E+03  0.00000000000E+00 0.  1.
         25    2    1    2    0    0  0.10851736754E+03 -0.33472652350E+02 -0.12256709456E+02  0.16932376414E+03  0.12499549057E+03 0.  0.
         23    2    1    2    0    0 -0.10851736754E+03  0.33472652350E+02 -0.36999644934E+03  0.39513550769E+03  0.79613186119E+02 0.  0.
          5    1    4    4  502    0 -0.73755428465E+02 -0.99364690251E+01 -0.14178669281E+03  0.16020035238E+03  0.47000000000E+01 0. -1.
         -5    1    3    3    0  503  0.48323391767E+02  0.15340372380E+02  0.48818672259E+02  0.70539563209E+02  0.47000000000E+01 0.  1.
          5    1    3    3  503    0  0.60193975769E+02 -0.48813024730E+02 -0.61075381715E+02  0.98784200932E+02  0.47000000000E+01 0.  1.
         -5    1    4    4    0  502 -0.34761939070E+02  0.43409121375E+02 -0.22820975653E+03  0.23493515532E+03  0.47000000000E+01 0.  1.
<mgrwt>
<rscale>  0 0.16076574E+03</rscale>
<asrwt>0</asrwt>
<pdfrwt beam="1">  1        1 0.14015855E-01 0.16887957E+03</pdfrwt>
<pdfrwt beam="2">  1       -1 0.72824033E-01 0.16887957E+03</pdfrwt>
<totfact> 0.80287939E+02</totfact>
</mgrwt>
</event>
<event>
 8    1  0.3217375E-004  0.1302925E+03  0.7546771E-02  0.1242114E+00
          1   -1    0    0  501    0  0.00000000000E+00  0.00000000000E+00  0.52114263680E+03  0.52114263680E+03  0.00000000000E+00 0. -1.
         -1   -1    0    0    0  501 -0.00000000000E+00 -0.00000000000E+00 -0.42177434434E+02  0.42177434434E+02  0.00000000000E+00 0.  1.
         25    2    1    2    0    0  0.25368983919E+02 -0.26584850324E+02  0.79642141331E+02  0.15270560354E+03  0.12500316422E+03 0.  0.
         23    2    1    2    0    0 -0.25368983919E+02  0.26584850324E+02  0.39932306104E+03  0.41061446769E+03  0.88289265434E+02 0.  0.
          5    1    3    3  502    0  0.23009326767E+02 -0.49010959697E+02  0.10513289243E+03  0.11834913755E+03  0.47000000000E+01 0.  1.
         -5    1    4    4    0  503 -0.36015886532E+02 -0.22489372139E+02  0.23023287120E+03  0.23416272317E+03  0.47000000000E+01 0.  1.
          5    1    4    4  503    0  0.10646902613E+02  0.49074222463E+02  0.16909018984E+03  0.17645174452E+03  0.47000000000E+01 0. -1.
         -5    1    3    3    0  502  0.23596571517E+01  0.22426109373E+02 -0.25490751102E+02  0.34356465989E+02  0.47000000000E+01 0.  1.
<mgrwt>
<rscale>  0 0.12059782E+03</rscale>
<asrwt>0</asrwt>
<pdfrwt beam="1">  1        1 0.80175786E-01 0.13029248E+03</pdfrwt>
<pdfrwt beam="2">  1       -1 0.64888364E-02 0.13029248E+03</pdfrwt>
<totfact> 0.48791630E+03</totfact>
</mgrwt>
</event>
<event>
 8    1  0.3217375E-004  0.1622462E+03  0.7546771E-02  0.1192208E+00
          2   -1    0    0  501    0  0.00000000000E+00  0.00000000000E+00  0.69854380656E+03  0.69854380656E+03  0.00000000000E+00 0. -1.
         -2   -1    0    0    0  501 -0.00000000000E+00 -0.00000000000E+00 -0.55062121827E+02  0.55062121827E+02  0.00000000000E+00 0.  1.
         25    2    1    2    0    0 -0.66789628873E+02 -0.78977962057E+02  0.97121433754E+02  0.18909363896E+03  0.12500183353E+03 0.  0.
         23    2    1    2    0    0  0.66789628873E+02  0.78977962057E+02  0.54636025098E+03  0.56451228942E+03  0.97294542744E+02 0.  0.
          5    1    3    3  502    0 -0.48376941237E+01 -0.97168413886E+02  0.54985969016E+02  0.11185102025E+03  0.47000000000E+01 0.  1.
         -5    1    4    4    0  503  0.62136850725E+02  0.38033458143E+02  0.15924531300E+03  0.17518188225E+03  0.47000000000E+01 0.  1.
          5    1    4    4  503    0  0.46527781481E+01  0.40944503913E+02  0.38711493798E+03  0.38933040717E+03  0.47000000000E+01 0. -1.
         -5    1    3    3    0  502 -0.61951934750E+02  0.18190451830E+02  0.42135464738E+02  0.77242618713E+02  0.47000000000E+01 0.  1.
<mgrwt>
<rscale>  0 0.15692951E+03</rscale>
<asrwt>0</asrwt>
<pdfrwt beam="1">  1        2 0.10746827E+00 0.16224621E+03</pdfrwt>
<pdfrwt beam="2">  1       -2 0.84710962E-02 0.16224621E+03</pdfrwt>
<totfact> 0.35665911E+03</totfact>
</mgrwt>
</event>
<event>
 8    1  0.3217375E-004  0.2261683E+03  0.7546771E-02  0.1132542E+00
          1   -1    0    0  501    0  0.00000000000E+00  0.00000000000E+00  0.21502718122E+03  0.21502718122E+03  0.00000000000E+00 0. -1.
         -1   -1    0    0    0  501 -0.00000000000E+00 -0.00000000000E+00 -0.22298944435E+03  0.22298944435E+03  0.00000000000E+00 0.  1.
         25    2    1    2    0    0 -0.92449735384E+02 -0.16425537652E+03 -0.27708540979E+02  0.22785929494E+03  0.12500125103E+03 0.  0.
         23    2    1    2    0    0  0.92449735384E+02  0.16425537652E+03  0.19746277851E+02  0.21015733063E+03  0.90826239822E+02 0.  0.
          5    1    3    3  502    0  0.10461433241E+02 -0.18361296554E+02 -0.43473008828E+02  0.48565124247E+02  0.47000000000E+01 0.  1.
         -5    1    3    3    0  502 -0.10291116862E+03 -0.14589407996E+03  0.15764467849E+02  0.17929417069E+03  0.47000000000E+01 0.  1.
          5    1    4    4  503    0  0.18522646208E+01  0.91911991833E+02  0.19650144284E+02  0.94124722031E+02  0.47000000000E+01 0. -1.
         -5    1    4    4    0  503  0.90597470763E+02  0.72343384685E+02  0.96133567399E-01  0.11603260860E+03  0.47000000000E+01 0.  1.
<mgrwt>
<rscale>  0 0.22180867E+03</rscale>
<asrwt>0</asrwt>
<pdfrwt beam="1">  1        1 0.33081105E-01 0.22616829E+03</pdfrwt>
<pdfrwt beam="2">  1       -1 0.34306068E-01 0.22616829E+03</pdfrwt>
<totfact> 0.10814679E+03</totfact>
</mgrwt>
</event>
<event>
 8    1  0.3217375E-004  0.1260232E+03  0.7546771E-02  0.1247891E+00
          2   -1    0    0  501    0  0.00000000000E+00  0.00000000000E+00  0.72171744491E+03  0.72171744491E+03  0.00000000000E+00 0. -1.
         -2   -1    0    0    0  501 -0.00000000000E+00 -0.00000000000E+00 -0.16896724203E+02  0.16896724203E+02  0.00000000000E+00 0.  1.
         25    2    1    2    0    0 -0.97947637994E+01 -0.12906705536E+02  0.43353058096E+03  0.45147603642E+03  0.12497730347E+03 0.  0.
         23    2    1    2    0    0  0.97947637994E+01  0.12906705536E+02  0.27129013975E+03  0.28713813270E+03  0.92668478353E+02 0.  0.
          5    1    3    3  502    0  0.27970288251E+02  0.44604138605E+02  0.13264969525E+03  0.14279319962E+03  0.47000000000E+01 0.  1.
         -5    1    3    3    0  502 -0.37765052051E+02 -0.57510844141E+02  0.30088088571E+03  0.30868283680E+03  0.47000000000E+01 0.  1.
          5    1    4    4  503    0  0.39644480039E+01  0.52753645169E+02  0.16709637001E+03  0.17533382673E+03  0.47000000000E+01 0. -1.
         -5    1    4    4    0  503  0.58303157955E+01 -0.39846939633E+02  0.10419376974E+03  0.11180430597E+03  0.47000000000E+01 0.  1.
<mgrwt>
<rscale>  0 0.11714010E+03</rscale>
<asrwt>0</asrwt>
<pdfrwt beam="1">  1        2 0.11103343E+00 0.12602320E+03</pdfrwt>
<pdfrwt beam="2">  1       -2 0.25994966E-02 0.12602320E+03</pdfrwt>
<totfact> 0.19933454E+04</totfact>
</mgrwt>
</event>
<event>
 8    1  0.3217375E-004  0.1788621E+03  0.7546771E-02  0.1174597E+00
          1   -1    0    0  501    0  0.00000000000E+00  0.00000000000E+00  0.18969528087E+03  0.18969528087E+03  0.00000000000E+00 0. -1.
         -1   -1    0    0    0  501 -0.00000000000E+00 -0.00000000000E+00 -0.15134352147E+03  0.15134352147E+03  0.00000000000E+00 0.  1.
         25    2    1    2    0    0  0.11146692927E+03  0.62783810221E+02 -0.18545884625E+01  0.17887168939E+03  0.12499983449E+03 0.  0.
         23    2    1    2    0    0 -0.11146692927E+03 -0.62783810221E+02  0.40206347858E+02  0.16216711294E+03  0.91186287164E+02 0.  0.
          5    1    4    4  502    0 -0.65045196276E+02 -0.75765125341E+02  0.11878430210E+01  0.99973660269E+02  0.47000000000E+01 0. -1.
         -5    1    3    3    0  503  0.12310609019E+03  0.29120579418E+02  0.30841834224E+02  0.13029361582E+03  0.47000000000E+01 0. -1.
          5    1    3    3  503    0 -0.11639160920E+02  0.33663230804E+02 -0.32696422686E+02  0.48578073567E+02  0.47000000000E+01 0. -1.
         -5    1    4    4    0  502 -0.46421732989E+02  0.12981315119E+02  0.39018504837E+02  0.62193452675E+02  0.47000000000E+01 0.  1.
<mgrwt>
<rscale>  0 0.17315515E+03</rscale>
<asrwt>0</asrwt>
<pdfrwt beam="1">  1        1 0.29183889E-01 0.17886207E+03</pdfrwt>
<pdfrwt beam="2">  1       -1 0.23283619E-01 0.17886207E+03</pdfrwt>
<totfact> 0.24175056E+03</totfact>
</mgrwt>
</event>
<event>
 8    1  0.3217375E-004  0.1776102E+03  0.7546771E-02  0.1175235E+00
         -3   -1    0    0    0  501 -0.00000000000E+00  0.00000000000E+00  0.10901515492E+04  0.10901515492E+04  0.00000000000E+00 0.  1.
          3   -1    0    0  501    0  0.00000000000E+00 -0.00000000000E+00 -0.25868763986E+02  0.25868763986E+02  0.00000000000E+00 0. -1.
         25    2    1    2    0    0 -0.11868210249E+03  0.42822010230E+02  0.54888738111E+03  0.57690792779E+03  0.12500493589E+03 0.  0.
         23    2    1    2    0    0  0.11868210249E+03 -0.42822010230E+02  0.51539540410E+03  0.53911238539E+03  0.95344509553E+02 0.  0.
          5    1    3    3  502    0 -0.58994550270E+01  0.53770250740E+02  0.98634574025E+02  0.11259179645E+03  0.47000000000E+01 0. -1.
         -5    1    4    4    0  503  0.11353252508E+03 -0.35926334259E+00  0.33870467095E+03  0.35725720069E+03  0.47000000000E+01 0.  1.
          5    1    4    4  503    0  0.51495774031E+01 -0.42462746887E+02  0.17669073315E+03  0.18185518470E+03  0.47000000000E+01 0. -1.
         -5    1    3    3    0  502 -0.11278264746E+03 -0.10948240510E+02  0.45025280708E+03  0.46431613134E+03  0.47000000000E+01 0. -1.
<mgrwt>
<rscale>  0 0.17253002E+03</rscale>
<asrwt>0</asrwt>
<pdfrwt beam="1">  1        3 0.39798107E-02 0.17761025E+03</pdfrwt>
<pdfrwt beam="2">  1       -3 0.16771559E+00 0.17761025E+03</pdfrwt>
<totfact> 0.20337128E+02</totfact>
</mgrwt>
</event>
<event>
 8    1  0.3217375E-004  0.1885910E+03  0.7546771E-02  0.1164484E+00
          1   -1    0    0  501    0  0.00000000000E+00  0.00000000000E+00  0.11660519441E+04  0.11660519441E+04  0.00000000000E+00 0. -1.
         -1   -1    0    0    0  501 -0.00000000000E+00 -0.00000000000E+00 -0.48680613800E+02  0.48680613800E+02  0.00000000000E+00 0.  1.
         25    2    1    2    0    0  0.60958930604E+02  0.12738125508E+03  0.17479900209E+03  0.25714054136E+03  0.12499836604E+03 0.  0.
         23    2    1    2    0    0 -0.60958930604E+02 -0.12738125508E+03  0.94257232818E+03  0.95759201651E+03  0.92724866492E+02 0.  0.
          5    1    4    4  502    0  0.15994492492E+02 -0.71718634996E+02  0.38748246895E+03  0.39441620167E+03  0.47000000000E+01 0. -1.
         -5    1    4    4    0  502 -0.76953423096E+02 -0.55662620085E+02  0.55508985923E+03  0.56317581484E+03  0.47000000000E+01 0.  1.
          5    1    3    3  503    0 -0.27059757855E+02  0.87237398267E+02  0.77935929648E+02  0.12016111385E+03  0.47000000000E+01 0.  1.
         -5    1    3    3    0  503  0.88018688459E+02  0.40143856814E+02  0.96863072444E+02  0.13697942751E+03  0.47000000000E+01 0.  1.
<mgrwt>
<rscale>  0 0.18347303E+03</rscale>
<asrwt>0</asrwt>
<pdfrwt beam="1">  1        1 0.17939259E+00 0.18859100E+03</pdfrwt>
<pdfrwt beam="2">  1       -1 0.74893261E-02 0.18859100E+03</pdfrwt>
<totfact> 0.11569164E+03</totfact>
</mgrwt>
</event>
<event>
 8    1  0.3217375E-004  0.1345495E+03  0.7546771E-02  0.1233536E+00
         -2   -1    0    0    0  501 -0.00000000000E+00  0.00000000000E+00  0.28117789258E+03  0.28117789258E+03  0.00000000000E+00 0. -1.
          2   -1    0    0  501    0  0.00000000000E+00 -0.00000000000E+00 -0.50891507635E+02  0.50891507635E+02  0.00000000000E+00 0.  1.
         25    2    1    2    0    0  0.37776792596E+01 -0.49663109629E+02  0.14695823259E+03  0.19924929634E+03  0.12499145831E+03 0.  0.
         23    2    1    2    0    0 -0.37776792596E+01  0.49663109629E+02  0.83328152358E+02  0.13282010387E+03  0.90647138392E+02 0.  0.
          5    1    3    3  502    0 -0.10234347210E+02 -0.69591730531E+02  0.15729570294E+03  0.17237105031E+03  0.47000000000E+01 0. -1.
         -5    1    3    3    0  502  0.14012026469E+02  0.19928620902E+02 -0.10337470350E+02  0.26878246038E+02  0.47000000000E+01 0. -1.
          5    1    4    4  503    0  0.25737858298E+02 -0.88191646540E+01  0.54500660814E+02  0.61095229308E+02  0.47000000000E+01 0. -1.
         -5    1    4    4    0  503 -0.29515537558E+02  0.58482274283E+02  0.28827491544E+02  0.71724874565E+02  0.47000000000E+01 0.  1.
<mgrwt>
<rscale>  0 0.12598600E+03</rscale>
<asrwt>0</asrwt>
<pdfrwt beam="1">  1        2 0.78294629E-02 0.13454947E+03</pdfrwt>
<pdfrwt beam="2">  1       -2 0.43258136E-01 0.13454947E+03</pdfrwt>
<totfact> 0.42600788E+03</totfact>
</mgrwt>
</event>
<event>
 8    1  0.3217375E-004  0.3249347E+03  0.7546771E-02  0.1074656E+00
         -2   -1    0    0    0  501 -0.00000000000E+00  0.00000000000E+00  0.37224455136E+03  0.37224455136E+03  0.00000000000E+00 0.  1.
          2   -1    0    0  501    0  0.00000000000E+00 -0.00000000000E+00 -0.31033345379E+03  0.31033345379E+03  0.00000000000E+00 0. -1.
         25    2    1    2    0    0  0.17669453865E+03  0.24236395518E+03 -0.85046426639E+02  0.33588008908E+03  0.12498517030E+03 0.  0.
         23    2    1    2    0    0 -0.17669453865E+03 -0.24236395518E+03  0.14695752422E+03  0.34669791607E+03  0.92960660102E+02 0.  0.
          5    1    4    4  502    0 -0.55591343405E+02 -0.40225787250E+02 -0.31907042587E+00  0.68780107789E+02  0.47000000000E+01 0. -1.
         -5    1    4    4    0  502 -0.12110319525E+03 -0.20213816793E+03  0.14727659464E+03  0.27791780828E+03  0.47000000000E+01 0.  1.
          5    1    3    3  503    0  0.41957390991E+02  0.99374112791E+02 -0.88065342319E+02  0.13933137288E+03  0.47000000000E+01 0. -1.
         -5    1    3    3    0  503  0.13473714766E+03  0.14298984239E+03  0.30189156803E+01  0.19654871620E+03  0.47000000000E+01 0. -1.
<mgrwt>
<rscale>  0 0.32216864E+03</rscale>
<asrwt>0</asrwt>
<pdfrwt beam="1">  1        2 0.47743609E-01 0.32493467E+03</pdfrwt>
<pdfrwt beam="2">  1       -2 0.57268392E-01 0.32493467E+03</pdfrwt>
<totfact> 0.30825394E+02</totfact>
</mgrwt>
</event>
<event>
 8    1  0.3217375E-004  0.1846507E+03  0.7546771E-02  0.1167998E+00
          2   -1    0    0  501    0  0.00000000000E+00  0.00000000000E+00  0.62851973964E+02  0.62851973964E+02  0.00000000000E+00 0.  1.
         -2   -1    0    0    0  501 -0.00000000000E+00 -0.00000000000E+00 -0.59579602739E+03  0.59579602739E+03  0.00000000000E+00 0. -1.
         25    2    1    2    0    0 -0.34026265487E+02  0.13158616744E+03 -0.41733936124E+03  0.45636392836E+03  0.12499274567E+03 0.  0.
         23    2    1    2    0    0  0.34026265487E+02 -0.13158616744E+03 -0.11560469218E+03  0.20228407298E+03  0.95297928218E+02 0.  0.
          5    1    3    3  502    0  0.22852998555E+02  0.32761316288E+02 -0.24073112913E+02  0.46873960289E+02  0.47000000000E+01 0. -1.
         -5    1    4    4    0  503 -0.27420076140E+02 -0.74675927450E+02 -0.39155652934E+02  0.88789694632E+02  0.47000000000E+01 0.  1.
          5    1    4    4  503    0  0.61446341627E+02 -0.56910239994E+02 -0.76449039250E+02  0.11349437835E+03  0.47000000000E+01 0. -1.
         -5    1    3    3    0  502 -0.56879264042E+02  0.98824851156E+02 -0.39326624832E+03  0.40948996808E+03  0.47000000000E+01 0. -1.
<mgrwt>
<rscale>  0 0.17979895E+03</rscale>
<asrwt>0</asrwt>
<pdfrwt beam="1">  1        2 0.96695340E-02 0.18465073E+03</pdfrwt>
<pdfrwt beam="2">  1       -2 0.91660932E-01 0.18465073E+03</pdfrwt>
<totfact> 0.69409918E+02</totfact>
</mgrwt>
</event>
<event>
 8    1  0.3217375E-004  0.1617125E+03  0.7546771E-02  0.1194530E+00
          2   -1    0    0  501    0  0.00000000000E+00  0.00000000000E+00  0.10072598288E+04  0.10072598288E+04  0.00000000000E+00 0. -1.
         -2   -1    0    0    0  501 -0.00000000000E+00 -0.00000000000E+00 -0.28584672475E+02  0.28584672475E+02  0.00000000000E+00 0.  1.
         25    2    1    2    0    0  0.44691362338E+02  0.92356361510E+02  0.27441176760E+03  0.31851645999E+03  0.12499560675E+03 0.  0.
         23    2    1    2    0    0 -0.44691362338E+02 -0.92356361510E+02  0.70426338877E+03  0.71732804133E+03  0.89697172435E+02 0.  0.
          5    1    3    3  502    0  0.28246568030E+02  0.11314891817E+03  0.14403075718E+03  0.18538472241E+03  0.47000000000E+01 0.  1.
         -5    1    4    4    0  503  0.81847122125E+01 -0.58721464260E+02  0.18622442845E+03  0.19549124694E+03  0.47000000000E+01 0.  1.
          5    1    4    4  503    0 -0.52876074550E+02 -0.33634897250E+02  0.51803896032E+03  0.52183679440E+03  0.47000000000E+01 0. -1.
         -5    1    3    3    0  502  0.16444794307E+02 -0.20792556662E+02  0.13038101042E+03  0.13313173758E+03  0.47000000000E+01 0.  1.
<mgrwt>
<rscale>  0 0.15494112E+03</rscale>
<asrwt>0</asrwt>
<pdfrwt beam="1">  1        2 0.15496302E+00 0.16171245E+03</pdfrwt>
<pdfrwt beam="2">  1       -2 0.43976427E-02 0.16171245E+03</pdfrwt>
<totfact> 0.60638362E+03</totfact>
</mgrwt>
</event>
<event>
 8    1  0.3217375E-004  0.1371486E+03  0.7546771E-02  0.1228797E+00
         -3   -1    0    0    0  501 -0.00000000000E+00  0.00000000000E+00  0.14096475487E+03  0.14096475487E+03  0.00000000000E+00 0.  1.
          3   -1    0    0  501    0  0.00000000000E+00 -0.00000000000E+00 -0.13458799068E+03  0.13458799068E+03  0.00000000000E+00 0. -1.
         25    2    1    2    0    0  0.53327013651E+02 -0.18423607254E+02  0.66288700734E+02  0.15232832092E+03  0.12500610314E+03 0.  0.
         23    2    1    2    0    0 -0.53327013651E+02  0.18423607254E+02 -0.59911936538E+02  0.12322442463E+03  0.91714878813E+02 0.  0.
          5    1    4    4  502    0  0.35068890615E-01  0.46570777158E+02 -0.31138526001E+02  0.56218647408E+02  0.47000000000E+01 0. -1.
         -5    1    4    4    0  502 -0.53362082542E+02 -0.28147169904E+02 -0.28773410537E+02  0.67005777219E+02  0.47000000000E+01 0.  1.
          5    1    3    3  503    0  0.77472831087E+02  0.29348961991E+02  0.34261916404E+02  0.89773994243E+02  0.47000000000E+01 0. -1.
         -5    1    3    3    0  503 -0.24145817436E+02 -0.47772569245E+02  0.32026784330E+02  0.62554326680E+02  0.47000000000E+01 0. -1.
<mgrwt>
<rscale>  0 0.12910005E+03</rscale>
<asrwt>0</asrwt>
<pdfrwt beam="1">  1        3 0.20705845E-01 0.13714855E+03</pdfrwt>
<pdfrwt beam="2">  1       -3 0.21686885E-01 0.13714855E+03</pdfrwt>
<totfact> 0.94692260E+02</totfact>
</mgrwt>
</event>
<event>
 8    1  0.3217375E-004  0.1424393E+03  0.7546771E-02  0.1221810E+00
         -2   -1    0    0    0  501 -0.00000000000E+00  0.00000000000E+00  0.51809800881E+02  0.51809800881E+02  0.00000000000E+00 0.  1.
          2   -1    0    0  501    0  0.00000000000E+00 -0.00000000000E+00 -0.38495396509E+03  0.38495396509E+03  0.00000000000E+00 0. -1.
         25    2    1    2    0    0 -0.18019656640E+02 -0.65875266409E+02 -0.87580034608E+02  0.16721006438E+03  0.12499873767E+03 0.  0.
         23    2    1    2    0    0  0.18019656640E+02  0.65875266409E+02 -0.24556412960E+03  0.26955370159E+03  0.87710874717E+02 0.  0.
          5    1    4    4  502    0  0.10157737898E+02  0.20164463133E+02 -0.20909866074E+03  0.21036664455E+03  0.47000000000E+01 0. -1.
         -5    1    3    3    0  503  0.53501529356E+02 -0.27290529648E+02 -0.28600995249E+02  0.66688031769E+02  0.47000000000E+01 0.  1.
          5    1    3    3  503    0 -0.71521185996E+02 -0.38584736761E+02 -0.58979039359E+02  0.10052203261E+03  0.47000000000E+01 0.  1.
         -5    1    4    4    0  502  0.78619187422E+01  0.45710803277E+02 -0.36465468859E+02  0.59187057045E+02  0.47000000000E+01 0.  1.
<mgrwt>
<rscale>  0 0.13387930E+03</rscale>
<asrwt>0</asrwt>
<pdfrwt beam="1">  1        2 0.59223686E-01 0.14243926E+03</pdfrwt>
<pdfrwt beam="2">  1       -2 0.79707387E-02 0.14243926E+03</pdfrwt>
<totfact> 0.75755309E+03</totfact>
</mgrwt>
</event>
<event>
 8    1  0.3217375E-004  0.1386567E+03  0.7546771E-02  0.1226393E+00
          1   -1    0    0  501    0  0.00000000000E+00  0.00000000000E+00  0.46437908245E+03  0.46437908245E+03  0.00000000000E+00 0. -1.
         -1   -1    0    0    0  501 -0.00000000000E+00 -0.00000000000E+00 -0.36574775591E+02  0.36574775591E+02  0.00000000000E+00 0.  1.
         25    2    1    2    0    0 -0.46333706265E+02 -0.38086146314E+02  0.31271029361E+03  0.34207222189E+03  0.12501324084E+03 0.  0.
         23    2    1    2    0    0  0.46333706265E+02  0.38086146314E+02  0.11509401325E+03  0.15888163615E+03  0.91648107141E+02 0.  0.
          5    1    4    4  502    0  0.11770914721E+02  0.48860392300E+02  0.11125839022E+03  0.12217369505E+03  0.47000000000E+01 0. -1.
         -5    1    4    4    0  502  0.34562791544E+02 -0.10774245986E+02  0.38356230384E+01  0.36707941102E+02  0.47000000000E+01 0.  1.
          5    1    3    3  503    0 -0.32861143644E+02  0.13196655539E+02  0.13538848729E+02  0.38202053661E+02  0.47000000000E+01 0.  1.
         -5    1    3    3    0  503 -0.13472562621E+02 -0.51282801853E+02  0.29917144488E+03  0.30387016823E+03  0.47000000000E+01 0.  1.
<mgrwt>
<rscale>  0 0.13071895E+03</rscale>
<asrwt>0</asrwt>
<pdfrwt beam="1">  1        1 0.71442932E-01 0.13865669E+03</pdfrwt>
<pdfrwt beam="2">  1       -1 0.56268889E-02 0.13865669E+03</pdfrwt>
<totfact> 0.70334609E+03</totfact>
</mgrwt>
</event>
<event>
 8    1  0.3217375E-004  0.1404662E+03  0.7546771E-02  0.1223747E+00
         -2   -1    0    0    0  501 -0.00000000000E+00  0.00000000000E+00  0.60994712380E+03  0.60994712380E+03  0.00000000000E+00 0.  1.
          2   -1    0    0  501    0  0.00000000000E+00 -0.00000000000E+00 -0.26177361695E+02  0.26177361695E+02  0.00000000000E+00 0. -1.
         25    2    1    2    0    0  0.16520582769E+02 -0.61927670232E+02  0.35258895773E+03  0.37953883817E+03  0.12499116197E+03 0.  0.
         23    2    1    2    0    0 -0.16520582769E+02  0.61927670232E+02  0.23118080437E+03  0.25658564732E+03  0.91014636770E+02 0.  0.
          5    1    3    3  502    0  0.66482988548E+02 -0.55417153776E+02  0.18171412501E+03  0.20132849259E+03  0.47000000000E+01 0.  1.
         -5    1    4    4    0  503 -0.34523536455E+02  0.21944295891E+02  0.19569692076E+03  0.19998200290E+03  0.47000000000E+01 0.  1.
          5    1    4    4  503    0  0.18002953686E+02  0.39983374341E+02  0.35483883615E+02  0.56603644419E+02  0.47000000000E+01 0. -1.
         -5    1    3    3    0  502 -0.49962405780E+02 -0.65105164553E+01  0.17087483272E+03  0.17821034558E+03  0.47000000000E+01 0.  1.
<mgrwt>
<rscale>  0 0.13253176E+03</rscale>
<asrwt>0</asrwt>
<pdfrwt beam="1">  1        2 0.40272869E-02 0.14046621E+03</pdfrwt>
<pdfrwt beam="2">  1       -2 0.93838008E-01 0.14046621E+03</pdfrwt>
<totfact> 0.20079356E+03</totfact>
</mgrwt>
</event>
<event>
 8    1  0.3217375E-004  0.1607540E+03  0.7546771E-02  0.1195662E+00
         -2   -1    0    0    0  501 -0.00000000000E+00  0.00000000000E+00  0.54021914132E+02  0.54021914132E+02  0.00000000000E+00 0.  1.
          2   -1    0    0  501    0  0.00000000000E+00 -0.00000000000E+00 -0.47479790319E+03  0.47479790319E+03  0.00000000000E+00 0. -1.
         25    2    1    2    0    0 -0.59392139280E+02  0.81802536576E+02 -0.32636870200E+03  0.36381091003E+03  0.12499106933E+03 0.  0.
         23    2    1    2    0    0  0.59392139280E+02 -0.81802536576E+02 -0.94407287058E+02  0.16500890729E+03  0.89978455407E+02 0.  0.
          5    1    4    4  502    0 -0.41039659623E+01 -0.69430218445E+02 -0.57627789175E+02  0.90445839347E+02  0.47000000000E+01 0. -1.
         -5    1    3    3    0  503  0.92662819906E+01  0.30009546285E+02 -0.63265717073E+01  0.32381358213E+02  0.47000000000E+01 0.  1.
          5    1    3    3  503    0 -0.68658421271E+02  0.51792990291E+02 -0.32004213029E+03  0.33142955181E+03  0.47000000000E+01 0.  1.
         -5    1    4    4    0  502  0.63496105242E+02 -0.12372318131E+02 -0.36779497883E+02  0.74563067945E+02  0.47000000000E+01 0.  1.
<mgrwt>
<rscale>  0 0.15398301E+03</rscale>
<asrwt>0</asrwt>
<pdfrwt beam="1">  1        2 0.73045832E-01 0.16075400E+03</pdfrwt>
<pdfrwt beam="2">  1       -2 0.83110636E-02 0.16075400E+03</pdfrwt>
<totfact> 0.57004063E+03</totfact>
</mgrwt>
</event>
<event>
 8    1  0.3217375E-004  0.1256814E+03  0.7546771E-02  0.1250029E+00
         -2   -1    0    0    0  501 -0.00000000000E+00  0.00000000000E+00  0.30427903356E+02  0.30427903356E+02  0.00000000000E+00 0.  1.
          2   -1    0    0  501    0  0.00000000000E+00 -0.00000000000E+00 -0.45054793394E+03  0.45054793394E+03  0.00000000000E+00 0. -1.
         25    2    1    2    0    0 -0.33956032335E+01  0.12608802551E+02 -0.32944068803E+03  0.35260030855E+03  0.12500119454E+03 0.  0.
         23    2    1    2    0    0  0.33956032335E+01 -0.12608802551E+02 -0.90679342550E+02  0.12837552874E+03  0.89927866601E+02 0.  0.
          5    1    3    3  502    0 -0.23711886324E+01  0.57413767394E+02 -0.27928816716E+03  0.28517702140E+03  0.47000000000E+01 0. -1.
         -5    1    4    4    0  503  0.39412781558E+02 -0.20535815150E+02 -0.20955026134E+02  0.49358790244E+02  0.47000000000E+01 0.  1.
          5    1    4    4  503    0 -0.36017178325E+02  0.79270125989E+01 -0.69724316416E+02  0.79016738498E+02  0.47000000000E+01 0. -1.
         -5    1    3    3    0  502 -0.10244146011E+01 -0.44804964843E+02 -0.50152520874E+02  0.67423287148E+02  0.47000000000E+01 0. -1.
<mgrwt>
<rscale>  0 0.11589362E+03</rscale>
<asrwt>0</asrwt>
<pdfrwt beam="1">  1        2 0.69315061E-01 0.12568139E+03</pdfrwt>
<pdfrwt beam="2">  1       -2 0.46812163E-02 0.12568139E+03</pdfrwt>
<totfact> 0.14225843E+04</totfact>
</mgrwt>
</event>
<event>
 8    1  0.3217375E-004  0.1285555E+03  0.7546771E-02  0.1242332E+00
         -1   -1    0    0    0  501 -0.00000000000E+00  0.00000000000E+00  0.13893034706E+02  0.13893034706E+02  0.00000000000E+00 0.  1.
          1   -1    0    0  501    0  0.00000000000E+00 -0.00000000000E+00 -0.99114873659E+03  0.99114873659E+03  0.00000000000E+00 0. -1.
         25    2    1    2    0    0 -0.13244413606E+02  0.26937654337E+02 -0.66905578375E+03  0.68129446773E+03  0.12500183312E+03 0.  0.
         23    2    1    2    0    0  0.13244413606E+02 -0.26937654337E+02 -0.30819991813E+03  0.32374730356E+03  0.94467324047E+02 0.  0.
          5    1    4    4  502    0 -0.32024854569E+02  0.15295052596E+02 -0.13828379127E+03  0.14284266474E+03  0.47000000000E+01 0. -1.
         -5    1    4    4    0  502  0.45269268175E+02 -0.42232706933E+02 -0.16991612687E+03  0.18090463882E+03  0.47000000000E+01 0.  1.
          5    1    3    3  503    0  0.14193740332E+02 -0.45180268054E+02 -0.18087426679E+03  0.18703023625E+03  0.47000000000E+01 0.  1.
         -5    1    3    3    0  503 -0.27438153938E+02  0.72117922391E+02 -0.48818151696E+03  0.49426423148E+03  0.47000000000E+01 0.  1.
<mgrwt>
<rscale>  0 0.12046481E+03</rscale>
<asrwt>0</asrwt>
<pdfrwt beam="1">  1        1 0.15248442E+00 0.12855547E+03</pdfrwt>
<pdfrwt beam="2">  1       -1 0.21373900E-02 0.12855547E+03</pdfrwt>
<totfact> 0.97137356E+03</totfact>
</mgrwt>
</event>
<event>
 8    1  0.3217375E-004  0.1542458E+03  0.7546771E-02  0.1203764E+00
         -1   -1    0    0    0  501 -0.00000000000E+00  0.00000000000E+00  0.10568605040E+03  0.10568605040E+03  0.00000000000E+00 0.  1.
          1   -1    0    0  501    0  0.00000000000E+00 -0.00000000000E+00 -0.19035364058E+03  0.19035364058E+03  0.00000000000E+00 0. -1.
         25    2    1    2    0    0  0.78894348257E+02 -0.44134332163E+02 -0.34052170025E+02  0.15795987793E+03  0.12497845930E+03 0.  0.
         23    2    1    2    0    0 -0.78894348257E+02  0.44134332163E+02 -0.50615420158E+02  0.13807981305E+03  0.91279551662E+02 0.  0.
          5    1    3    3  502    0  0.96651899125E+02 -0.31209533583E+02  0.16162288591E+02  0.10295112512E+03  0.47000000000E+01 0.  1.
         -5    1    3    3    0  502 -0.17757550867E+02 -0.12924798580E+02 -0.50214458616E+02  0.55008752806E+02  0.47000000000E+01 0.  1.
          5    1    4    4  503    0 -0.81192216911E+02  0.66756370671E+02 -0.42642026418E+02  0.11352982661E+03  0.47000000000E+01 0. -1.
         -5    1    4    4    0  503  0.22978686540E+01 -0.22622038509E+02 -0.79733937394E+01  0.24549986443E+02  0.47000000000E+01 0.  1.
<mgrwt>
<rscale>  0 0.14735303E+03</rscale>
<asrwt>0</asrwt>
<pdfrwt beam="1">  1        1 0.29285175E-01 0.15424582E+03</pdfrwt>
<pdfrwt beam="2">  1       -1 0.16259393E-01 0.15424582E+03</pdfrwt>
<totfact> 0.42628231E+03</totfact>
</mgrwt>
</event>
<event>
 8    1  0.3217375E-004  0.1422345E+03  0.7546771E-02  0.1221085E+00
          1   -1    0    0  501    0  0.00000000000E+00  0.00000000000E+00  0.36160647133E+03  0.36160647133E+03  0.00000000000E+00 0. -1.
         -1   -1    0    0    0  501 -0.00000000000E+00 -0.00000000000E+00 -0.46568062075E+02  0.46568062075E+02  0.00000000000E+00 0.  1.
         25    2    1    2    0    0  0.43107674284E+02  0.52405406286E+02  0.13955924146E+03  0.19926722236E+03  0.12500418329E+03 0.  0.
         23    2    1    2    0    0 -0.43107674284E+02 -0.52405406286E+02  0.17547916780E+03  0.20890731105E+03  0.90800485064E+02 0.  0.
          5    1    4    4  502    0 -0.13736159815E+02  0.20285890850E+02  0.87425009737E+02  0.90914365101E+02  0.47000000000E+01 0. -1.
         -5    1    4    4    0  502 -0.29371514470E+02 -0.72691297136E+02  0.88054158061E+02  0.11799294595E+03  0.47000000000E+01 0.  1.
          5    1    3    3  503    0  0.39227876754E+02 -0.30157072610E+01  0.13790821102E+03  0.14348757950E+03  0.47000000000E+01 0. -1.
         -5    1    3    3    0  503  0.38797975300E+01  0.55421113547E+02  0.16510304394E+01  0.55779642857E+02  0.47000000000E+01 0. -1.
<mgrwt>
<rscale>  0 0.13438899E+03</rscale>
<asrwt>0</asrwt>
<pdfrwt beam="1">  1        1 0.55631763E-01 0.14223447E+03</pdfrwt>
<pdfrwt beam="2">  1       -1 0.71643175E-02 0.14223447E+03</pdfrwt>
<totfact> 0.67409226E+03</totfact>
</mgrwt>
</event>
<event>
 8    1  0.3217375E-004  0.2168557E+03  0.7546771E-02  0.1139413E+00
          2   -1    0    0  501    0  0.00000000000E+00  0.00000000000E+00  0.41916658170E+03  0.41916658170E+03  0.00000000000E+00 0.  1.
         -2   -1    0    0    0  501 -0.00000000000E+00 -0.00000000000E+00 -0.11064415622E+03  0.11064415622E+03  0.00000000000E+00 0. -1.
         25    2    1    2    0    0  0.32018416401E+02  0.17428275087E+03  0.95286761096E+02  0.23686695221E+03  0.12500691969E+03 0.  0.
         23    2    1    2    0    0 -0.32018416401E+02 -0.17428275087E+03  0.21323566439E+03  0.29294378571E+03  0.94588354366E+02 0.  0.
          5    1    3    3  502    0 -0.47342949443E+02  0.47651945036E+02  0.29192472546E+02  0.73391778701E+02  0.47000000000E+01 0.  1.
         -5    1    4    4    0  503 -0.41396573721E+02 -0.11329572543E+03  0.19336140963E+03  0.22794806963E+03  0.47000000000E+01 0.  1.
          5    1    4    4  503    0  0.93781573191E+01 -0.60987025438E+02  0.19874254762E+02  0.64995716081E+02  0.47000000000E+01 0. -1.
         -5    1    3    3    0  502  0.79361365844E+02  0.12663080583E+03  0.66094288550E+02  0.16347517351E+03  0.47000000000E+01 0.  1.
<mgrwt>
<rscale>  0 0.21274237E+03</rscale>
<asrwt>0</asrwt>
<pdfrwt beam="1">  1        2 0.64487166E-01 0.21685568E+03</pdfrwt>
<pdfrwt beam="2">  1       -2 0.17022178E-01 0.21685568E+03</pdfrwt>
<totfact> 0.20831724E+03</totfact>
</mgrwt>
</event>
<event>
 8    1  0.3217375E-004  0.1707424E+03  0.7546771E-02  0.1183743E+00
         -1   -1    0    0    0  501 -0.00000000000E+00  0.00000000000E+00  0.30308244482E+03  0.30308244482E+03  0.00000000000E+00 0.  1.
          1   -1    0    0  501    0  0.00000000000E+00 -0.00000000000E+00 -0.85735931022E+02  0.85735931022E+02  0.00000000000E+00 0. -1.
         25    2    1    2    0    0  0.80307063309E+02 -0.84136736237E+02  0.14941376196E+03  0.22688643532E+03  0.12499906986E+03 0.  0.
         23    2    1    2    0    0 -0.80307063309E+02  0.84136736237E+02  0.67932751839E+02  0.16193194053E+03  0.89882588910E+02 0.  0.
          5    1    3    3  502    0  0.15509079031E+02 -0.10018129782E+03  0.10794757739E+03  0.14816070137E+03  0.47000000000E+01 0. -1.
         -5    1    4    4    0  503 -0.74702620495E+02  0.30811793258E+02  0.71484536921E+02  0.10799063446E+03  0.47000000000E+01 0.  1.
          5    1    4    4  503    0 -0.56044428134E+01  0.53324942979E+02 -0.35517850814E+01  0.53941306068E+02  0.47000000000E+01 0. -1.
         -5    1    3    3    0  502  0.64797984278E+02  0.16044561581E+02  0.41466184567E+02  0.78725733946E+02  0.47000000000E+01 0. -1.
<mgrwt>
<rscale>  0 0.16446772E+03</rscale>
<asrwt>0</asrwt>
<pdfrwt beam="1">  1        1 0.13190143E-01 0.17074244E+03</pdfrwt>
<pdfrwt beam="2">  1       -1 0.46628068E-01 0.17074244E+03</pdfrwt>
<totfact> 0.20290302E+03</totfact>
</mgrwt>
</event>
<event>
 8    1  0.3217375E-004  0.1535182E+03  0.7546771E-02  0.1204625E+00
          1   -1    0    0  501    0  0.00000000000E+00  0.00000000000E+00  0.16220276174E+02  0.16220276174E+02  0.00000000000E+00 0. -1.
         -1   -1    0    0    0  501 -0.00000000000E+00 -0.00000000000E+00 -0.12651847247E+04  0.12651847247E+04  0.00000000000E+00 0.  1.
         25    2    1    2    0    0 -0.30239304343E+02 -0.83864383821E+02 -0.79897355902E+03  0.81358871055E+03  0.12498076459E+03 0.  0.
         23    2    1    2    0    0  0.30239304343E+02  0.83864383821E+02 -0.44999088951E+03  0.46781629032E+03  0.91720392794E+02 0.  0.
          5    1    3    3  502    0  0.40993161882E+02 -0.60487936461E+02 -0.49948970088E+03  0.50482797175E+03  0.47000000000E+01 0.  1.
         -5    1    3    3    0  502 -0.71232466225E+02 -0.23376447360E+02 -0.29948385814E+03  0.30876073879E+03  0.47000000000E+01 0.  1.
          5    1    4    4  503    0  0.66138459252E+01  0.49022862696E+02 -0.72131142286E+02  0.87589815117E+02  0.47000000000E+01 0. -1.
         -5    1    4    4    0  503  0.23625458417E+02  0.34841521125E+02 -0.37785974722E+03  0.38022647521E+03  0.47000000000E+01 0.  1.
<mgrwt>
<rscale>  0 0.14667084E+03</rscale>
<asrwt>0</asrwt>
<pdfrwt beam="1">  1        1 0.24954267E-02 0.15351821E+03</pdfrwt>
<pdfrwt beam="2">  1       -1 0.19464384E+00 0.15351821E+03</pdfrwt>
<totfact> 0.79274988E+02</totfact>
</mgrwt>
</event>
<event>
 8    1  0.3217375E-004  0.1398738E+03  0.7546771E-02  0.1224591E+00
          2   -1    0    0  501    0  0.00000000000E+00  0.00000000000E+00  0.76958563932E+02  0.76958563932E+02  0.00000000000E+00 0.  1.
         -2   -1    0    0    0  501 -0.00000000000E+00 -0.00000000000E+00 -0.21512817815E+03  0.21512817815E+03  0.00000000000E+00 0. -1.
         25    2    1    2    0    0  0.59351496452E+02  0.20409131066E+02 -0.43810249546E+02  0.14657426410E+03  0.12500217666E+03 0.  0.
         23    2    1    2    0    0 -0.59351496452E+02 -0.20409131066E+02 -0.94359364669E+02  0.14551247798E+03  0.91274633852E+02 0.  0.
          5    1    3    3  502    0  0.17711879448E+02  0.10151344694E+02  0.44003443641E+02  0.48735546831E+02  0.47000000000E+01 0.  1.
         -5    1    3    3    0  502  0.41639617004E+02  0.10257786373E+02 -0.87813693187E+02  0.97838717268E+02  0.47000000000E+01 0.  1.
          5    1    4    4  503    0 -0.19554304700E+02 -0.29629060935E+02 -0.97895994273E+02  0.10423995289E+03  0.47000000000E+01 0. -1.
         -5    1    4    4    0  503 -0.39797191752E+02  0.92199298688E+01  0.35366296036E+01  0.41272525087E+02  0.47000000000E+01 0.  1.
<mgrwt>
<rscale>  0 0.13194978E+03</rscale>
<asrwt>0</asrwt>
<pdfrwt beam="1">  1        2 0.11839779E-01 0.13987379E+03</pdfrwt>
<pdfrwt beam="2">  1       -2 0.33096643E-01 0.13987379E+03</pdfrwt>
<totfact> 0.42379997E+03</totfact>
</mgrwt>
</event>
<event>
 8    1  0.3217375E-004  0.1480374E+03  0.7546771E-02  0.1212059E+00
          2   -1    0    0  501    0  0.00000000000E+00  0.00000000000E+00  0.59496668405E+03  0.59496668405E+03  0.00000000000E+00 0. -1.
         -2   -1    0    0    0  501 -0.00000000000E+00 -0.00000000000E+00 -0.30941451073E+02  0.30941451073E+02  0.00000000000E+00 0.  1.
         25    2    1    2    0    0  0.13412895957E+02 -0.78167340962E+02  0.34377526407E+03  0.37429469381E+03  0.12500018663E+03 0.  0.
         23    2    1    2    0    0 -0.13412895957E+02  0.78167340962E+02  0.22024996891E+03  0.25161344131E+03  0.92245520613E+02 0.  0.
          5    1    4    4  502    0  0.28047710569E+02  0.17654026978E+01  0.94268622486E+02  0.98480728573E+02  0.47000000000E+01 0. -1.
         -5    1    3    3    0  503  0.36797639682E+02 -0.98559643097E+02  0.18889423178E+03  0.21626647991E+03  0.47000000000E+01 0.  1.
          5    1    3    3  503    0 -0.23384743725E+02  0.20392302134E+02  0.15488103229E+03  0.15802821390E+03  0.47000000000E+01 0.  1.
         -5    1    4    4    0  502 -0.41460606526E+02  0.76401938265E+02  0.12598134642E+03  0.15313271274E+03  0.47000000000E+01 0.  1.
<mgrwt>
<rscale>  0 0.14094794E+03</rscale>
<asrwt>0</asrwt>
<pdfrwt beam="1">  1        2 0.91533327E-01 0.14803745E+03</pdfrwt>
<pdfrwt beam="2">  1       -2 0.47602237E-02 0.14803745E+03</pdfrwt>
<totfact> 0.10323615E+04</totfact>
</mgrwt>
</event>
<event>
 8    1  0.3217375E-004  0.1407493E+03  0.7546771E-02  0.1223466E+00
          2   -1    0    0  501    0  0.00000000000E+00  0.00000000000E+00  0.17160351588E+03  0.17160351588E+03  0.00000000000E+00 0. -1.
         -2   -1    0    0    0  501 -0.00000000000E+00 -0.00000000000E+00 -0.16205574777E+03  0.16205574777E+03  0.00000000000E+00 0.  1.
         25    2    1    2    0    0 -0.35056972330E+02  0.54367408199E+02  0.11392340075E+03  0.18107710935E+03  0.12500228761E+03 0.  0.
         23    2    1    2    0    0  0.35056972330E+02 -0.54367408199E+02 -0.10437563263E+03  0.15258215430E+03  0.90566189834E+02 0.  0.
          5    1    3    3  502    0  0.46217946595E+02  0.31536241355E+02  0.47803173363E+02  0.73741891011E+02  0.47000000000E+01 0. -1.
         -5    1    4    4    0  503  0.30594220456E+02 -0.27769352781E+02 -0.11570760674E+03  0.12295317620E+03  0.47000000000E+01 0.  1.
          5    1    4    4  503    0  0.44627518731E+01 -0.26598055419E+02  0.11331974109E+02  0.29628978105E+02  0.47000000000E+01 0. -1.
         -5    1    3    3    0  502 -0.81274918924E+02  0.22831166844E+02  0.66120227388E+02  0.10733521834E+03  0.47000000000E+01 0. -1.
<mgrwt>
<rscale>  0 0.13272592E+03</rscale>
<asrwt>0</asrwt>
<pdfrwt beam="1">  1        2 0.26400541E-01 0.14074935E+03</pdfrwt>
<pdfrwt beam="2">  1       -2 0.24931653E-01 0.14074935E+03</pdfrwt>
<totfact> 0.27977106E+03</totfact>
</mgrwt>
</event>
<event>
 8    1  0.3217375E-004  0.1672948E+03  0.7546771E-02  0.1187423E+00
         -2   -1    0    0    0  501 -0.00000000000E+00  0.00000000000E+00  0.24184419700E+03  0.24184419700E+03  0.00000000000E+00 0.  1.
          2   -1    0    0  501    0  0.00000000000E+00 -0.00000000000E+00 -0.11865706123E+03  0.11865706123E+03  0.00000000000E+00 0. -1.
         25    2    1    2    0    0  0.16019283858E+02 -0.11004069540E+03 -0.55155640780E+01  0.16738571442E+03  0.12498793480E+03 0.  0.
         23    2    1    2    0    0 -0.16019283858E+02  0.11004069540E+03  0.12870269985E+03  0.19311554380E+03  0.91453027340E+02 0.  0.
          5    1    4    4  502    0 -0.37230653387E+02  0.20542547131E+02  0.11965229644E+02  0.44422680183E+02  0.47000000000E+01 0. -1.
         -5    1    3    3    0  503 -0.40188726176E+02 -0.74035656353E+02  0.32512305525E+02  0.90418759856E+02  0.47000000000E+01 0.  1.
          5    1    3    3  503    0  0.56208010034E+02 -0.36005039045E+02 -0.38027869603E+02  0.76966954566E+02  0.47000000000E+01 0.  1.
         -5    1    4    4    0  502  0.21211369529E+02  0.89498148267E+02  0.11673747020E+03  0.14869286362E+03  0.47000000000E+01 0.  1.
<mgrwt>
<rscale>  0 0.16113310E+03</rscale>
<asrwt>0</asrwt>
<pdfrwt beam="1">  1        2 0.18254933E-01 0.16729482E+03</pdfrwt>
<pdfrwt beam="2">  1       -2 0.37206799E-01 0.16729482E+03</pdfrwt>
<totfact> 0.20687380E+03</totfact>
</mgrwt>
</event>
<event>
 8    1  0.3217375E-004  0.1408924E+03  0.7546771E-02  0.1222254E+00
         -1   -1    0    0    0  501 -0.00000000000E+00  0.00000000000E+00  0.20481552375E+03  0.20481552375E+03  0.00000000000E+00 0.  1.
          1   -1    0    0  501    0  0.00000000000E+00 -0.00000000000E+00 -0.86114110244E+02  0.86114110244E+02  0.00000000000E+00 0. -1.
         25    2    1    2    0    0  0.19888966152E+02 -0.61890649349E+02  0.24099369529E+02  0.14293858447E+03  0.12499854346E+03 0.  0.
         23    2    1    2    0    0 -0.19888966152E+02  0.61890649349E+02  0.94602043977E+02  0.14799104952E+03  0.93411886625E+02 0.  0.
          5    1    4    4  502    0  0.31517126917E+02  0.62356222551E+01  0.92391588984E+01  0.33758914839E+02  0.47000000000E+01 0. -1.
         -5    1    3    3    0  503 -0.12205909817E+02  0.30442530908E+02 -0.16465927654E+02  0.36999306697E+02  0.47000000000E+01 0.  1.
          5    1    3    3  503    0  0.32094875970E+02 -0.92333180256E+02  0.40565297184E+02  0.10593927777E+03  0.47000000000E+01 0.  1.
         -5    1    4    4    0  502 -0.51406093069E+02  0.55655027094E+02  0.85362885079E+02  0.11423213468E+03  0.47000000000E+01 0.  1.
<mgrwt>
<rscale>  0 0.13356937E+03</rscale>
<asrwt>0</asrwt>
<pdfrwt beam="1">  1        1 0.13248325E-01 0.14089237E+03</pdfrwt>
<pdfrwt beam="2">  1       -1 0.31510080E-01 0.14089237E+03</pdfrwt>
<totfact> 0.39660092E+03</totfact>
</mgrwt>
</event>
<event>
 8    1  0.3217375E-004  0.1917073E+03  0.7546771E-02  0.1161634E+00
          2   -1    0    0  501    0  0.00000000000E+00  0.00000000000E+00  0.11452168062E+04  0.11452168062E+04  0.00000000000E+00 0.  1.
         -2   -1    0    0    0  501 -0.00000000000E+00 -0.00000000000E+00 -0.32587179826E+02  0.32587179826E+02  0.00000000000E+00 0. -1.
         25    2    1    2    0    0  0.18237574576E+01  0.14533002773E+03  0.78255961052E+03  0.80569921857E+03  0.12501017449E+03 0.  0.
         23    2    1    2    0    0 -0.18237574576E+01 -0.14533002773E+03  0.33007001589E+03  0.37210476750E+03  0.91605674248E+02 0.  0.
          5    1    3    3  502    0  0.27648060787E+02 -0.89021453800E+01  0.66038929336E+02  0.72297258907E+02  0.47000000000E+01 0. -1.
         -5    1    3    3    0  502 -0.25824303329E+02  0.15423217311E+03  0.71652068119E+03  0.73340195966E+03  0.47000000000E+01 0. -1.
          5    1    4    4  503    0  0.37914465530E+02 -0.46313442556E+02  0.78678185400E+02  0.98968623895E+02  0.47000000000E+01 0. -1.
         -5    1    4    4    0  503 -0.39738222988E+02 -0.99016585172E+02  0.25139183049E+03  0.27313614360E+03  0.47000000000E+01 0.  1.
<mgrwt>
<rscale>  0 0.18652442E+03</rscale>
<asrwt>0</asrwt>
<pdfrwt beam="1">  1        2 0.17618717E+00 0.19170729E+03</pdfrwt>
<pdfrwt beam="2">  1       -2 0.50134132E-02 0.19170729E+03</pdfrwt>
<totfact> 0.41552060E+03</totfact>
</mgrwt>
</event>
<event>
 8    1  0.3217375E-004  0.2248195E+03  0.7546771E-02  0.1133361E+00
          1   -1    0    0  501    0  0.00000000000E+00  0.00000000000E+00  0.39010713160E+03  0.39010713160E+03  0.00000000000E+00 0. -1.
         -1   -1    0    0    0  501 -0.00000000000E+00 -0.00000000000E+00 -0.15360864914E+03  0.15360864914E+03  0.00000000000E+00 0.  1.
         25    2    1    2    0    0 -0.18686514131E+03 -0.13628624473E+01  0.24783288177E+03  0.33461160805E+03  0.12499340992E+03 0.  0.
         23    2    1    2    0    0  0.18686514131E+03  0.13628624473E+01 -0.11334399315E+02  0.20910417269E+03  0.93143158615E+02 0.  0.
          5    1    3    3  502    0 -0.15733296025E+03 -0.50525927430E+02  0.16344146234E+03  0.23246877497E+03  0.47000000000E+01 0.  1.
         -5    1    4    4    0  503  0.67326320308E+02  0.43564721384E+02 -0.17049676133E+02  0.82118815212E+02  0.47000000000E+01 0.  1.
          5    1    4    4  503    0  0.11953882100E+03 -0.42201858937E+02  0.57152768180E+01  0.12698535748E+03  0.47000000000E+01 0. -1.
         -5    1    3    3    0  502 -0.29532181060E+02  0.49163064982E+02  0.84391419428E+02  0.10214283308E+03  0.47000000000E+01 0.  1.
<mgrwt>
<rscale>  0 0.22070205E+03</rscale>
<asrwt>0</asrwt>
<pdfrwt beam="1">  1        1 0.60016481E-01 0.22481946E+03</pdfrwt>
<pdfrwt beam="2">  1       -1 0.23632100E-01 0.22481946E+03</pdfrwt>
<totfact> 0.95832087E+02</totfact>
</mgrwt>
</event>
<event>
 8    1  0.3217375E-004  0.1318184E+03  0.7546771E-02  0.1239129E+00
          4   -1    0    0  501    0  0.00000000000E+00  0.00000000000E+00  0.11508882227E+04  0.11508882227E+04  0.00000000000E+00 0. -1.
         -4   -1    0    0    0  501 -0.00000000000E+00 -0.00000000000E+00 -0.13039059501E+02  0.13039059501E+02  0.00000000000E+00 0.  1.
         25    2    1    2    0    0 -0.20577176276E+02  0.36431375245E+02  0.44333826958E+03  0.46252016443E+03  0.12500166375E+03 0.  0.
         23    2    1    2    0    0  0.20577176276E+02 -0.36431375245E+02  0.69451089358E+03  0.70140711774E+03  0.88746257530E+02 0.  0.
          5    1    3    3  502    0  0.41436918430E+02  0.27223380324E+02  0.83443479357E+02  0.97175279225E+02  0.47000000000E+01 0. -1.
         -5    1    3    3    0  502 -0.62014094705E+02  0.92079949204E+01  0.35989479022E+03  0.36534488520E+03  0.47000000000E+01 0. -1.
          5    1    4    4  503    0 -0.19492991991E+02 -0.50262016303E+02  0.44487885989E+03  0.44815793756E+03  0.47000000000E+01 0. -1.
         -5    1    4    4    0  503  0.40070168267E+02  0.13830641059E+02  0.24963203369E+03  0.25324918018E+03  0.47000000000E+01 0.  1.
<mgrwt>
<rscale>  0 0.12243789E+03</rscale>
<asrwt>0</asrwt>
<pdfrwt beam="1">  1        4 0.17705965E+00 0.13181836E+03</pdfrwt>
<pdfrwt beam="2">  1       -4 0.20060101E-02 0.13181836E+03</pdfrwt>
<totfact> 0.34532545E+02</totfact>
</mgrwt>
</event>
<event>
 8    1  0.3217375E-004  0.1318520E+03  0.7546771E-02  0.1238809E+00
          1   -1    0    0  501    0  0.00000000000E+00  0.00000000000E+00  0.87081284179E+03  0.87081284179E+03  0.00000000000E+00 0. -1.
         -1   -1    0    0    0  501 -0.00000000000E+00 -0.00000000000E+00 -0.21227975509E+02  0.21227975509E+02  0.00000000000E+00 0.  1.
         25    2    1    2    0    0  0.23960689987E+02 -0.34400604268E+02  0.70350701850E+03  0.71575629273E+03  0.12500971669E+03 0.  0.
         23    2    1    2    0    0 -0.23960689987E+02  0.34400604268E+02  0.14607784779E+03  0.17628452457E+03  0.89330732400E+02 0.  0.
          5    1    4    4  502    0  0.15378104188E+01 -0.21489222799E+02  0.91033229459E+02  0.93665844485E+02  0.47000000000E+01 0. -1.
         -5    1    4    4    0  502 -0.25498500406E+02  0.55889827067E+02  0.55044618329E+02  0.82618680088E+02  0.47000000000E+01 0.  1.
          5    1    3    3  503    0 -0.50201234737E+02 -0.24629721450E+02  0.26316638161E+03  0.26908255528E+03  0.47000000000E+01 0. -1.
         -5    1    3    3    0  503  0.74161924724E+02 -0.97708828184E+01  0.44034063689E+03  0.44667373745E+03  0.47000000000E+01 0. -1.
<mgrwt>
<rscale>  0 0.12263683E+03</rscale>
<asrwt>0</asrwt>
<pdfrwt beam="1">  1        1 0.13397118E+00 0.13185198E+03</pdfrwt>
<pdfrwt beam="2">  1       -1 0.32658431E-02 0.13185198E+03</pdfrwt>
<totfact> 0.64850234E+03</totfact>
</mgrwt>
</event>
<event>
 8    1  0.3217375E-004  0.1331878E+03  0.7546771E-02  0.1235719E+00
          2   -1    0    0  501    0  0.00000000000E+00  0.00000000000E+00  0.75146874149E+03  0.75146874149E+03  0.00000000000E+00 0. -1.
         -2   -1    0    0    0  501 -0.00000000000E+00 -0.00000000000E+00 -0.18713247244E+02  0.18713247244E+02  0.00000000000E+00 0.  1.
         25    2    1    2    0    0 -0.45455788700E+02  0.68896192369E+01  0.46381662801E+03  0.48256073135E+03  0.12500119778E+03 0.  0.
         23    2    1    2    0    0  0.45455788700E+02 -0.68896192369E+01  0.26893886624E+03  0.28762125738E+03  0.91017461758E+02 0.  0.
          5    1    4    4  502    0 -0.58316323310E+01  0.19452785158E+02  0.18203412514E+03  0.18322371981E+03  0.47000000000E+01 0. -1.
         -5    1    3    3    0  503  0.32757946353E+02 -0.24611790622E+02  0.23639341514E+03  0.23996408067E+03  0.47000000000E+01 0.  1.
          5    1    3    3  503    0 -0.78213735053E+02  0.31501409859E+02  0.22742321287E+03  0.24259665069E+03  0.47000000000E+01 0.  1.
         -5    1    4    4    0  502  0.51287421031E+02 -0.26342404395E+02  0.86904741093E+02  0.10439753757E+03  0.47000000000E+01 0.  1.
<mgrwt>
<rscale>  0 0.12458520E+03</rscale>
<asrwt>0</asrwt>
<pdfrwt beam="1">  1        2 0.11561055E+00 0.13318782E+03</pdfrwt>
<pdfrwt beam="2">  1       -2 0.28789617E-02 0.13318782E+03</pdfrwt>
<totfact> 0.16423382E+04</totfact>
</mgrwt>
</event>
<event>
 8    1  0.3217375E-004  0.2266104E+03  0.7546771E-02  0.1132168E+00
         -1   -1    0    0    0  501 -0.00000000000E+00  0.00000000000E+00  0.25882486485E+02  0.25882486485E+02  0.00000000000E+00 0.  1.
          1   -1    0    0  501    0  0.00000000000E+00 -0.00000000000E+00 -0.20021937692E+04  0.20021937692E+04  0.00000000000E+00 0. -1.
         25    2    1    2    0    0 -0.90851781915E+02 -0.16576800973E+03 -0.13108279841E+04  0.13302715053E+04  0.12497677643E+03 0.  0.
         23    2    1    2    0    0  0.90851781915E+02  0.16576800973E+03 -0.66548329860E+03  0.69780475034E+03  0.91270858231E+02 0.  0.
          5    1    4    4  502    0 -0.35047522710E+01  0.81327420403E+02 -0.21888433717E+03  0.23357841436E+03  0.47000000000E+01 0. -1.
         -5    1    3    3    0  503  0.29699731344E+02 -0.35104076087E+02 -0.19807210210E+03  0.20339375072E+03  0.47000000000E+01 0. -1.
          5    1    3    3  503    0 -0.12055151326E+03 -0.13066393364E+03 -0.11127558820E+04  0.11268777546E+04  0.47000000000E+01 0. -1.
         -5    1    4    4    0  502  0.94356534186E+02  0.84440589327E+02 -0.44659896143E+03  0.46422633598E+03  0.47000000000E+01 0.  1.
<mgrwt>
<rscale>  0 0.22231547E+03</rscale>
<asrwt>0</asrwt>
<pdfrwt beam="1">  1        1 0.30802983E+00 0.22661040E+03</pdfrwt>
<pdfrwt beam="2">  1       -1 0.39819208E-02 0.22661040E+03</pdfrwt>
<totfact> 0.83645113E+02</totfact>
</mgrwt>
</event>
<event>
 8    1  0.3217375E-004  0.1857812E+03  0.7546771E-02  0.1167504E+00
          2   -1    0    0  501    0  0.00000000000E+00  0.00000000000E+00  0.48360340786E+02  0.48360340786E+02  0.00000000000E+00 0.  1.
         -2   -1    0    0    0  501 -0.00000000000E+00 -0.00000000000E+00 -0.64648242099E+03  0.64648242099E+03  0.00000000000E+00 0. -1.
         25    2    1    2    0    0 -0.83826270219E+02 -0.10890893030E+03 -0.27147059032E+03  0.32895431050E+03  0.12500663305E+03 0.  0.
         23    2    1    2    0    0  0.83826270219E+02  0.10890893030E+03 -0.32665148988E+03  0.36588845128E+03  0.91022877681E+02 0.  0.
          5    1    3    3  502    0 -0.44572849052E+02 -0.11385281539E+03 -0.11651498070E+03  0.16895867297E+03  0.47000000000E+01 0. -1.
         -5    1    4    4    0  503  0.56858777912E+02  0.12185243645E+03 -0.26856670244E+03  0.30038492065E+03  0.47000000000E+01 0.  1.
          5    1    4    4  503    0  0.26967492307E+02 -0.12943506154E+02 -0.58084787445E+02  0.65503530633E+02  0.47000000000E+01 0. -1.
         -5    1    3    3    0  502 -0.39253421167E+02  0.49438850930E+01 -0.15495560962E+03  0.15999563752E+03  0.47000000000E+01 0. -1.
<mgrwt>
<rscale>  0 0.18030960E+03</rscale>
<asrwt>0</asrwt>
<pdfrwt beam="1">  1        2 0.74400526E-02 0.18578121E+03</pdfrwt>
<pdfrwt beam="2">  1       -2 0.99458831E-01 0.18578121E+03</pdfrwt>
<totfact> 0.80104780E+02</totfact>
</mgrwt>
</event>
<event>
 8    1  0.3217375E-004  0.1341819E+03  0.7546771E-02  0.1234326E+00
          1   -1    0    0  501    0  0.00000000000E+00  0.00000000000E+00  0.68080485168E+02  0.68080485168E+02  0.00000000000E+00 0. -1.
         -1   -1    0    0    0  501 -0.00000000000E+00 -0.00000000000E+00 -0.25936370824E+03  0.25936370824E+03  0.00000000000E+00 0.  1.
         25    2    1    2    0    0 -0.86748283583E+01 -0.48038429009E+02 -0.31952803126E+02  0.13793389429E+03  0.12498733639E+03 0.  0.
         23    2    1    2    0    0  0.86748283583E+01  0.48038429009E+02 -0.15933041995E+03  0.18951029912E+03  0.90249805772E+02 0.  0.
          5    1    3    3  502    0 -0.55801093767E+02 -0.62198078346E+02 -0.11667265777E+02  0.84501941435E+02  0.47000000000E+01 0.  1.
         -5    1    4    4    0  503  0.11796598116E+02 -0.20711187724E+02 -0.83665149905E+02  0.87120952317E+02  0.47000000000E+01 0.  1.
          5    1    4    4  503    0 -0.31217697574E+01  0.68749616733E+02 -0.75665270041E+02  0.10238934680E+03  0.47000000000E+01 0. -1.
         -5    1    3    3    0  502  0.47126265408E+02  0.14159649337E+02 -0.20285537349E+02  0.53431952858E+02  0.47000000000E+01 0.  1.
<mgrwt>
<rscale>  0 0.12547682E+03</rscale>
<asrwt>0</asrwt>
<pdfrwt beam="1">  1        1 0.10473921E-01 0.13418188E+03</pdfrwt>
<pdfrwt beam="2">  1       -1 0.39902108E-01 0.13418188E+03</pdfrwt>
<totfact> 0.35877814E+03</totfact>
</mgrwt>
</event>
<event>
 8    1  0.3217375E-004  0.1352857E+03  0.7546771E-02  0.1232264E+00
          1   -1    0    0  501    0  0.00000000000E+00  0.00000000000E+00  0.79191030882E+03  0.79191030882E+03  0.00000000000E+00 0. -1.
         -1   -1    0    0    0  501 -0.00000000000E+00 -0.00000000000E+00 -0.19711100704E+02  0.19711100704E+02  0.00000000000E+00 0.  1.
         25    2    1    2    0    0 -0.15807197140E+02  0.49274212033E+02  0.31823646158E+03  0.34579859425E+03  0.12499762737E+03 0.  0.
         23    2    1    2    0    0  0.15807197140E+02 -0.49274212033E+02  0.45396274653E+03  0.46582281527E+03  0.90724332686E+02 0.  0.
          5    1    4    4  502    0  0.35965402833E+02 -0.26911780761E+02  0.40912734307E+03  0.41161271481E+03  0.47000000000E+01 0. -1.
         -5    1    3    3    0  503 -0.38878135383E+02 -0.31362043209E+02  0.14106218687E+03  0.14971879551E+03  0.47000000000E+01 0. -1.
          5    1    3    3  503    0  0.23070938244E+02  0.80636255243E+02  0.17717427472E+03  0.19607979874E+03  0.47000000000E+01 0. -1.
         -5    1    4    4    0  502 -0.20158205694E+02 -0.22362431272E+02  0.44835403459E+02  0.54210100466E+02  0.47000000000E+01 0.  1.
<mgrwt>
<rscale>  0 0.12681209E+03</rscale>
<asrwt>0</asrwt>
<pdfrwt beam="1">  1        1 0.12183233E+00 0.13528571E+03</pdfrwt>
<pdfrwt beam="2">  1       -1 0.30324776E-02 0.13528571E+03</pdfrwt>
<totfact> 0.83677533E+03</totfact>
</mgrwt>
</event>
<event>
 8    1  0.3217375E-004  0.1843733E+03  0.7546771E-02  0.1168286E+00
          2   -1    0    0  501    0  0.00000000000E+00  0.00000000000E+00  0.19725942584E+04  0.19725942584E+04  0.00000000000E+00 0. -1.
         -2   -1    0    0    0  501 -0.00000000000E+00 -0.00000000000E+00 -0.17324037407E+02  0.17324037407E+02  0.00000000000E+00 0.  1.
         25    2    1    2    0    0  0.11691012211E+03 -0.68572973426E+02  0.70448559449E+03  0.72821250833E+03  0.12499310028E+03 0.  0.
         23    2    1    2    0    0 -0.11691012211E+03  0.68572973426E+02  0.12507846265E+04  0.12617057875E+04  0.95231732660E+02 0.  0.
          5    1    4    4  502    0 -0.11932538681E+03  0.29441233978E+02  0.10406746342E+04  0.10479175151E+04  0.47000000000E+01 0. -1.
         -5    1    4    4    0  502  0.24152647044E+01  0.39131739448E+02  0.21010999232E+03  0.21378827238E+03  0.47000000000E+01 0.  1.
          5    1    3    3  503    0  0.11827675564E+03 -0.72158961529E+01  0.53246622292E+03  0.54551244591E+03  0.47000000000E+01 0.  1.
         -5    1    3    3    0  503 -0.13666335337E+01 -0.61357077273E+02  0.17201937156E+03  0.18270006243E+03  0.47000000000E+01 0.  1.
<mgrwt>
<rscale>  0 0.17950235E+03</rscale>
<asrwt>0</asrwt>
<pdfrwt beam="1">  1        2 0.30347586E+00 0.18437327E+03</pdfrwt>
<pdfrwt beam="2">  1       -2 0.26652381E-02 0.18437327E+03</pdfrwt>
<totfact> 0.38767258E+03</totfact>
</mgrwt>
</event>
<event>
 8    1  0.3217375E-004  0.1708196E+03  0.7546771E-02  0.1183469E+00
          1   -1    0    0  501    0  0.00000000000E+00  0.00000000000E+00  0.18978113161E+03  0.18978113161E+03  0.00000000000E+00 0. -1.
         -1   -1    0    0    0  501 -0.00000000000E+00 -0.00000000000E+00 -0.13380589313E+03  0.13380589313E+03  0.00000000000E+00 0.  1.
         25    2    1    2    0    0  0.55759998150E+02  0.10219944226E+03  0.35629493983E+02  0.17449582532E+03  0.12500171527E+03 0.  0.
         23    2    1    2    0    0 -0.55759998150E+02 -0.10219944226E+03  0.20345744495E+02  0.14909119943E+03  0.90886374313E+02 0.  0.
          5    1    4    4  502    0 -0.64159818164E+02 -0.47556933658E+02  0.40990134719E+02  0.89891186165E+02  0.47000000000E+01 0. -1.
         -5    1    3    3    0  503 -0.35256706746E+02  0.76967972275E+01 -0.57426442654E+01  0.36842150064E+02  0.47000000000E+01 0. -1.
          5    1    3    3  503    0  0.91016704896E+02  0.94502645031E+02  0.41372138249E+02  0.13765367526E+03  0.47000000000E+01 0. -1.
         -5    1    4    4    0  502  0.83998200145E+01 -0.54642508600E+02 -0.20644390224E+02  0.59200013262E+02  0.47000000000E+01 0.  1.
<mgrwt>
<rscale>  0 0.16471978E+03</rscale>
<asrwt>0</asrwt>
<pdfrwt beam="1">  1        1 0.29197097E-01 0.17081959E+03</pdfrwt>
<pdfrwt beam="2">  1       -1 0.20585522E-01 0.17081959E+03</pdfrwt>
<totfact> 0.29479697E+03</totfact>
</mgrwt>
</event>
<event>
 8    1  0.3217375E-004  0.1748086E+03  0.7546771E-02  0.1179633E+00
         -2   -1    0    0    0  501 -0.00000000000E+00  0.00000000000E+00  0.55813708647E+02  0.55813708647E+02  0.00000000000E+00 0. -1.
          2   -1    0    0  501    0  0.00000000000E+00 -0.00000000000E+00 -0.48135555441E+03  0.48135555441E+03  0.00000000000E+00 0.  1.
         25    2    1    2    0    0 -0.95193914532E+02 -0.76620172356E+02 -0.19355306301E+03  0.26080803906E+03  0.12500205143E+03 0.  0.
         23    2    1    2    0    0  0.95193914532E+02  0.76620172356E+02 -0.23198878275E+03  0.27636122399E+03  0.87316657229E+02 0.  0.
          5    1    3    3  502    0 -0.70918651709E+02  0.80709740716E+00 -0.28030686545E+02  0.76406255992E+02  0.47000000000E+01 0. -1.
         -5    1    4    4    0  503  0.77025364225E+02  0.20341522806E+02 -0.18220308793E+03  0.19891389980E+03  0.47000000000E+01 0.  1.
          5    1    4    4  503    0  0.18168550307E+02  0.56278649550E+02 -0.49785694821E+02  0.77447324190E+02  0.47000000000E+01 0. -1.
         -5    1    3    3    0  502 -0.24275262822E+02 -0.77427269764E+02 -0.16552237646E+03  0.18440178307E+03  0.47000000000E+01 0. -1.
<mgrwt>
<rscale>  0 0.16829903E+03</rscale>
<asrwt>0</asrwt>
<pdfrwt beam="1">  1        2 0.74054698E-01 0.17480860E+03</pdfrwt>
<pdfrwt beam="2">  1       -2 0.85867247E-02 0.17480860E+03</pdfrwt>
<totfact> 0.53588756E+03</totfact>
</mgrwt>
</event>
<event>
 8    1  0.3217375E-004  0.1826885E+03  0.7546771E-02  0.1170572E+00
         -2   -1    0    0    0  501 -0.00000000000E+00  0.00000000000E+00  0.64004468069E+02  0.64004468069E+02  0.00000000000E+00 0. -1.
          2   -1    0    0  501    0  0.00000000000E+00 -0.00000000000E+00 -0.47543616989E+03  0.47543616989E+03  0.00000000000E+00 0.  1.
         25    2    1    2    0    0 -0.74420703277E+01 -0.13304685747E+03 -0.26160089659E+03  0.31907696519E+03  0.12497291675E+03 0.  0.
         23    2    1    2    0    0  0.74420703277E+01  0.13304685747E+03 -0.14983080523E+03  0.22036367277E+03  0.91400368634E+02 0.  0.
          5    1    3    3  502    0  0.25679814311E+02 -0.13320279676E+03 -0.24848853342E+03  0.28314497906E+03  0.47000000000E+01 0.  1.
         -5    1    4    4    0  503 -0.28964955598E+02  0.86732028244E+02 -0.12796799430E+03  0.15735091656E+03  0.47000000000E+01 0.  1.
          5    1    4    4  503    0  0.36407025926E+02  0.46314829230E+02 -0.21862810921E+02  0.63012756207E+02  0.47000000000E+01 0. -1.
         -5    1    3    3    0  502 -0.33121884639E+02  0.15593928555E+00 -0.13112363176E+02  0.35931986129E+02  0.47000000000E+01 0.  1.
<mgrwt>
<rscale>  0 0.17716832E+03</rscale>
<asrwt>0</asrwt>
<pdfrwt beam="1">  1        2 0.73144025E-01 0.18268848E+03</pdfrwt>
<pdfrwt beam="2">  1       -2 0.98468413E-02 0.18268848E+03</pdfrwt>
<totfact> 0.43898316E+03</totfact>
</mgrwt>
</event>
<event>
 8    1  0.3217375E-004  0.1601006E+03  0.7546771E-02  0.1195634E+00
          3   -1    0    0  501    0  0.00000000000E+00  0.00000000000E+00  0.23090927917E+03  0.23090927917E+03  0.00000000000E+00 0. -1.
         -3   -1    0    0    0  501 -0.00000000000E+00 -0.00000000000E+00 -0.10043205468E+03  0.10043205468E+03  0.00000000000E+00 0.  1.
         25    2    1    2    0    0  0.95855954228E+02 -0.28614110488E+02  0.33889818477E+02  0.16364817311E+03  0.12500029394E+03 0.  0.
         23    2    1    2    0    0 -0.95855954228E+02  0.28614110488E+02  0.96587406012E+02  0.16769316074E+03  0.93726932516E+02 0.  0.
          5    1    4    4  502    0 -0.96085899252E+02  0.53134532904E+02  0.89517582608E+02  0.14174366377E+03  0.47000000000E+01 0. -1.
         -5    1    4    4    0  502  0.22994502463E+00 -0.24520422416E+02  0.70698234039E+01  0.25949496973E+02  0.47000000000E+01 0.  1.
          5    1    3    3  503    0  0.10441701833E+03  0.98411737925E+01 -0.88178145353E+01  0.10535466896E+03  0.47000000000E+01 0. -1.
         -5    1    3    3    0  503 -0.85610641069E+01 -0.38455284281E+02  0.42707633012E+02  0.58293504143E+02  0.47000000000E+01 0. -1.
<mgrwt>
<rscale>  0 0.15400719E+03</rscale>
<asrwt>0</asrwt>
<pdfrwt beam="1">  1        3 0.35524504E-01 0.16010061E+03</pdfrwt>
<pdfrwt beam="2">  1       -3 0.15451085E-01 0.16010061E+03</pdfrwt>
<totfact> 0.65258636E+02</totfact>
</mgrwt>
</event>
<event>
 8    1  0.3217375E-004  0.1367059E+03  0.7546771E-02  0.1229731E+00
         -2   -1    0    0    0  501 -0.00000000000E+00  0.00000000000E+00  0.12293750811E+02  0.12293750811E+02  0.00000000000E+00 0.  1.
          2   -1    0    0  501    0  0.00000000000E+00 -0.00000000000E+00 -0.12466847594E+04  0.12466847594E+04  0.00000000000E+00 0. -1.
         25    2    1    2    0    0  0.51177316004E+02 -0.21095148045E+02 -0.57564360755E+03  0.59165366050E+03  0.12499747250E+03 0.  0.
         23    2    1    2    0    0 -0.51177316004E+02  0.21095148045E+02 -0.65874740107E+03  0.66732484974E+03  0.91160263913E+02 0.  0.
          5    1    4    4  502    0 -0.11849985963E+02  0.48352943082E+02 -0.46582946372E+03  0.46850571879E+03  0.47000000000E+01 0. -1.
         -5    1    3    3    0  503 -0.53510780667E+01  0.47259364603E+02 -0.19137591555E+03  0.19725342236E+03  0.47000000000E+01 0. -1.
          5    1    3    3  503    0  0.56528394071E+02 -0.68354512648E+02 -0.38426769200E+03  0.39440023815E+03  0.47000000000E+01 0. -1.
         -5    1    4    4    0  502 -0.39327330041E+02 -0.27257795036E+02 -0.19291793736E+03  0.19881913095E+03  0.47000000000E+01 0.  1.
<mgrwt>
<rscale>  0 0.12847866E+03</rscale>
<asrwt>0</asrwt>
<pdfrwt beam="1">  1        2 0.19179769E+00 0.13670586E+03</pdfrwt>
<pdfrwt beam="2">  1       -2 0.18913459E-02 0.13670586E+03</pdfrwt>
<totfact> 0.15208859E+04</totfact>
</mgrwt>
</event>
<event>
 8    1  0.3217375E-004  0.1558253E+03  0.7546771E-02  0.1200872E+00
          1   -1    0    0  501    0  0.00000000000E+00  0.00000000000E+00  0.14197495751E+03  0.14197495751E+03  0.00000000000E+00 0. -1.
         -1   -1    0    0    0  501 -0.00000000000E+00 -0.00000000000E+00 -0.14653850756E+03  0.14653850756E+03  0.00000000000E+00 0.  1.
         25    2    1    2    0    0 -0.45672466745E+02  0.81055590533E+02 -0.14925449828E+01  0.15583249384E+03  0.12500222186E+03 0.  0.
         23    2    1    2    0    0  0.45672466745E+02 -0.81055590533E+02 -0.30710050707E+01  0.13268097123E+03  0.94545365193E+02 0.  0.
          5    1    3    3  502    0  0.39444271806E+02  0.11442644842E+02 -0.16978993087E+02  0.44689606236E+02  0.47000000000E+01 0.  1.
         -5    1    3    3    0  502 -0.85116738551E+02  0.69612945691E+02  0.15486448104E+02  0.11114288760E+03  0.47000000000E+01 0.  1.
          5    1    4    4  503    0  0.18628539057E+02 -0.41738700647E+02  0.45333058936E+02  0.64547020315E+02  0.47000000000E+01 0. -1.
         -5    1    4    4    0  503  0.27043927688E+02 -0.39316889886E+02 -0.48404064006E+02  0.68133950916E+02  0.47000000000E+01 0.  1.
<mgrwt>
<rscale>  0 0.14967582E+03</rscale>
<asrwt>0</asrwt>
<pdfrwt beam="1">  1        1 0.21842301E-01 0.15582535E+03</pdfrwt>
<pdfrwt beam="2">  1       -1 0.22544386E-01 0.15582535E+03</pdfrwt>
<totfact> 0.36518192E+03</totfact>
</mgrwt>
</event>
<event>
 8    1  0.3217375E-004  0.1678559E+03  0.7546771E-02  0.1186351E+00
          1   -1    0    0  501    0  0.00000000000E+00  0.00000000000E+00  0.35716553276E+03  0.35716553276E+03  0.00000000000E+00 0. -1.
         -1   -1    0    0    0  501 -0.00000000000E+00 -0.00000000000E+00 -0.70294792770E+02  0.70294792770E+02  0.00000000000E+00 0.  1.
         25    2    1    2    0    0  0.17018913237E+02  0.11072984992E+03  0.18286171206E+03  0.24822168594E+03  0.12499942625E+03 0.  0.
         23    2    1    2    0    0 -0.17018913237E+02 -0.11072984992E+03  0.10400902794E+03  0.17923863960E+03  0.93583486575E+02 0.  0.
          5    1    4    4  502    0 -0.24035572537E+01 -0.26518000938E+02  0.88122267294E+02  0.92177033225E+02  0.47000000000E+01 0. -1.
         -5    1    4    4    0  502 -0.14615355983E+02 -0.84211848986E+02  0.15886760646E+02  0.87061606371E+02  0.47000000000E+01 0.  1.
          5    1    3    3  503    0  0.18567213157E+02 -0.21959067351E+02  0.62707370194E+02  0.69146556820E+02  0.47000000000E+01 0. -1.
         -5    1    3    3    0  503 -0.15482999204E+01  0.13268891728E+03  0.12015434186E+03  0.17907512912E+03  0.47000000000E+01 0. -1.
<mgrwt>
<rscale>  0 0.16209583E+03</rscale>
<asrwt>0</asrwt>
<pdfrwt beam="1">  1        1 0.54948542E-01 0.16785589E+03</pdfrwt>
<pdfrwt beam="2">  1       -1 0.10814584E-01 0.16785589E+03</pdfrwt>
<totfact> 0.36917856E+03</totfact>
</mgrwt>
</event>
<event>
 8    1  0.3217375E-004  0.1400912E+03  0.7546771E-02  0.1223132E+00
         -2   -1    0    0    0  501 -0.00000000000E+00  0.00000000000E+00  0.55842675124E+02  0.55842675124E+02  0.00000000000E+00 0. -1.
          2   -1    0    0  501    0  0.00000000000E+00 -0.00000000000E+00 -0.28878500939E+03  0.28878500939E+03  0.00000000000E+00 0.  1.
         25    2    1    2    0    0 -0.63003060320E+02 -0.56285717448E+01 -0.12133460320E+03  0.18533112749E+03  0.12499789780E+03 0.  0.
         23    2    1    2    0    0  0.63003060320E+02  0.56285717448E+01 -0.11160773107E+03  0.15929655703E+03  0.94435380112E+02 0.  0.
          5    1    4    4  502    0  0.38136458908E+02  0.26054139982E+02 -0.36746592737E+01  0.46570385751E+02  0.47000000000E+01 0. -1.
         -5    1    3    3    0  503  0.45491775983E+01 -0.43583627037E+02 -0.34809792576E+01  0.44208989799E+02  0.47000000000E+01 0. -1.
          5    1    3    3  503    0 -0.67552237918E+02  0.37955055292E+02 -0.11785362394E+03  0.14112213769E+03  0.47000000000E+01 0. -1.
         -5    1    4    4    0  502  0.24866601412E+02 -0.20425568237E+02 -0.10793307179E+03  0.11272617127E+03  0.47000000000E+01 0.  1.
<mgrwt>
<rscale>  0 0.13295730E+03</rscale>
<asrwt>0</asrwt>
<pdfrwt beam="1">  1        2 0.44428461E-01 0.14009119E+03</pdfrwt>
<pdfrwt beam="2">  1       -2 0.85911811E-02 0.14009119E+03</pdfrwt>
<totfact> 0.91447531E+03</totfact>
</mgrwt>
</event>
<event>
 8    1  0.3217375E-004  0.1587151E+03  0.7546771E-02  0.1197669E+00
          1   -1    0    0  501    0  0.00000000000E+00  0.00000000000E+00  0.26115985043E+03  0.26115985043E+03  0.00000000000E+00 0. -1.
         -1   -1    0    0    0  501 -0.00000000000E+00 -0.00000000000E+00 -0.91706161754E+02  0.91706161754E+02  0.00000000000E+00 0.  1.
         25    2    1    2    0    0  0.97760079903E+02  0.29389200137E+01  0.14716951768E+03  0.21644707516E+03  0.12499919574E+03 0.  0.
         23    2    1    2    0    0 -0.97760079903E+02 -0.29389200137E+01  0.22284170989E+02  0.13641893702E+03  0.92454700408E+02 0.  0.
          5    1    4    4  502    0  0.94962797593E+01  0.21940953888E+02  0.32102468522E+01  0.24576014153E+02  0.47000000000E+01 0. -1.
         -5    1    4    4    0  502 -0.10725635966E+03 -0.24879873902E+02  0.19073924137E+02  0.11184292287E+03  0.47000000000E+01 0.  1.
          5    1    3    3  503    0 -0.19196514432E+02  0.21635194906E+02  0.24874183977E+01  0.29408588460E+02  0.47000000000E+01 0.  1.
         -5    1    3    3    0  503  0.11695659433E+03 -0.18696274892E+02  0.14468209928E+03  0.18703848670E+03  0.47000000000E+01 0.  1.
<mgrwt>
<rscale>  0 0.15230495E+03</rscale>
<asrwt>0</asrwt>
<pdfrwt beam="1">  1        1 0.40178438E-01 0.15871506E+03</pdfrwt>
<pdfrwt beam="2">  1       -1 0.14108640E-01 0.15871506E+03</pdfrwt>
<totfact> 0.36004215E+03</totfact>
</mgrwt>
</event>
<event>
 8    1  0.3217375E-004  0.1584890E+03  0.7546771E-02  0.1198630E+00
         -3   -1    0    0    0  501 -0.00000000000E+00  0.00000000000E+00  0.15272666101E+02  0.15272666101E+02  0.00000000000E+00 0.  1.
          3   -1    0    0  501    0  0.00000000000E+00 -0.00000000000E+00 -0.15790266846E+04  0.15790266846E+04  0.00000000000E+00 0. -1.
         25    2    1    2    0    0  0.79118698801E+02 -0.56868057393E+02 -0.11221050346E+04  0.11332424600E+04  0.12500008034E+03 0.  0.
         23    2    1    2    0    0 -0.79118698801E+02  0.56868057393E+02 -0.44164898394E+03  0.46105689071E+03  0.89587314998E+02 0.  0.
          5    1    4    4  502    0 -0.81691488884E+02  0.10019863345E+02 -0.32367895532E+03  0.33401205537E+03  0.47000000000E+01 0. -1.
         -5    1    3    3    0  503  0.10534329973E+03 -0.33881094610E+02 -0.10015903712E+04  0.10076956391E+04  0.47000000000E+01 0.  1.
          5    1    3    3  503    0 -0.26224600927E+02 -0.22986962783E+02 -0.12051466336E+03  0.12554682089E+03  0.47000000000E+01 0.  1.
         -5    1    4    4    0  502  0.25727900833E+01  0.46848194047E+02 -0.11797002862E+03  0.12704483534E+03  0.47000000000E+01 0.  1.
<mgrwt>
<rscale>  0 0.15150954E+03</rscale>
<asrwt>0</asrwt>
<pdfrwt beam="1">  1        3 0.24292717E+00 0.15848900E+03</pdfrwt>
<pdfrwt beam="2">  1       -3 0.23496411E-02 0.15848900E+03</pdfrwt>
<totfact> 0.16279269E+02</totfact>
</mgrwt>
</event>
<event>
 8    1  0.3217375E-004  0.1578783E+03  0.7546771E-02  0.1199186E+00
         -3   -1    0    0    0  501 -0.00000000000E+00  0.00000000000E+00  0.18471776113E+03  0.18471776113E+03  0.00000000000E+00 0.  1.
          3   -1    0    0  501    0  0.00000000000E+00 -0.00000000000E+00 -0.11415522879E+03  0.11415522879E+03  0.00000000000E+00 0. -1.
         25    2    1    2    0    0  0.96161267969E+02  0.70569966692E+01  0.32210358988E+02  0.16113053483E+03  0.12501500458E+03 0.  0.
         23    2    1    2    0    0 -0.96161267969E+02 -0.70569966692E+01  0.38352173343E+02  0.13774245509E+03  0.90583133497E+02 0.  0.
          5    1    4    4  502    0  0.57778284235E+01  0.24361821472E+02  0.59635783047E+01  0.26163637227E+02  0.47000000000E+01 0.  1.
         -5    1    4    4    0  502 -0.10193909639E+03 -0.31418818141E+02  0.32388595038E+02  0.11157881786E+03  0.47000000000E+01 0. -1.
          5    1    3    3  503    0  0.10354206362E+03 -0.36401888393E+02  0.68737887004E+01  0.11006995680E+03  0.47000000000E+01 0. -1.
         -5    1    3    3    0  503 -0.73807956545E+01  0.43458885063E+02  0.25336570287E+02  0.51060578035E+02  0.47000000000E+01 0. -1.
<mgrwt>
<rscale>  0 0.15105252E+03</rscale>
<asrwt>0</asrwt>
<pdfrwt beam="1">  1        3 0.17562343E-01 0.15787825E+03</pdfrwt>
<pdfrwt beam="2">  1       -3 0.28418117E-01 0.15787825E+03</pdfrwt>
<totfact> 0.79185756E+02</totfact>
</mgrwt>
</event>
<event>
 8    1  0.3217375E-004  0.1577164E+03  0.7546771E-02  0.1198949E+00
          3   -1    0    0  501    0  0.00000000000E+00  0.00000000000E+00  0.20631760186E+03  0.20631760186E+03  0.00000000000E+00 0. -1.
         -3   -1    0    0    0  501 -0.00000000000E+00 -0.00000000000E+00 -0.11516799711E+03  0.11516799711E+03  0.00000000000E+00 0.  1.
         25    2    1    2    0    0  0.89616399758E+02 -0.34898544322E+02  0.10172956765E+03  0.18767890439E+03  0.12500183485E+03 0.  0.
         23    2    1    2    0    0 -0.89616399758E+02  0.34898544322E+02 -0.10579962890E+02  0.13380669458E+03  0.92429910737E+02 0.  0.
          5    1    4    4  502    0 -0.17932401269E+02 -0.30813814854E+02 -0.95701398436E+00  0.35973157728E+02  0.47000000000E+01 0. -1.
         -5    1    3    3    0  503  0.94073165613E+02 -0.72243201258E+02  0.67201175956E+02  0.13640721633E+03  0.47000000000E+01 0.  1.
          5    1    3    3  503    0 -0.44567658550E+01  0.37344656936E+02  0.34528391690E+02  0.51271688057E+02  0.47000000000E+01 0.  1.
         -5    1    4    4    0  502 -0.71683998489E+02  0.65712359176E+02 -0.96229489056E+01  0.97833536855E+02  0.47000000000E+01 0.  1.
<mgrwt>
<rscale>  0 0.15124696E+03</rscale>
<asrwt>0</asrwt>
<pdfrwt beam="1">  1        3 0.31741170E-01 0.15771641E+03</pdfrwt>
<pdfrwt beam="2">  1       -3 0.17718153E-01 0.15771641E+03</pdfrwt>
<totfact> 0.63508924E+02</totfact>
</mgrwt>
</event>
<event>
 8    1  0.3217375E-004  0.1343120E+03  0.7546771E-02  0.1233720E+00
         -2   -1    0    0    0  501 -0.00000000000E+00  0.00000000000E+00  0.18145393100E+02  0.18145393100E+02  0.00000000000E+00 0.  1.
          2   -1    0    0  501    0  0.00000000000E+00 -0.00000000000E+00 -0.80638047218E+03  0.80638047218E+03  0.00000000000E+00 0. -1.
         25    2    1    2    0    0  0.16508342247E+02  0.46282803908E+02 -0.36903035667E+03  0.39271251260E+03  0.12500036042E+03 0.  0.
         23    2    1    2    0    0 -0.16508342247E+02 -0.46282803908E+02 -0.41920472240E+03  0.43181335267E+03  0.91189631882E+02 0.  0.
          5    1    4    4  502    0 -0.21796266851E+02 -0.69999416443E+02 -0.36362926052E+03  0.37097617802E+03  0.47000000000E+01 0. -1.
         -5    1    4    4    0  502  0.52879246034E+01  0.23716612535E+02 -0.55575461880E+02  0.60837174654E+02  0.47000000000E+01 0.  1.
          5    1    3    3  503    0 -0.29448396958E+02  0.28149576079E+02 -0.31915720755E+02  0.51964506618E+02  0.47000000000E+01 0.  1.
         -5    1    3    3    0  503  0.45956739205E+02  0.18133227830E+02 -0.33711463592E+03  0.34074800598E+03  0.47000000000E+01 0.  1.
<mgrwt>
<rscale>  0 0.12586702E+03</rscale>
<asrwt>0</asrwt>
<pdfrwt beam="1">  1        2 0.12405855E+00 0.13431200E+03</pdfrwt>
<pdfrwt beam="2">  1       -2 0.27915986E-02 0.13431200E+03</pdfrwt>
<totfact> 0.15763965E+04</totfact>
</mgrwt>
</event>
<event>
 8    1  0.3217375E-004  0.1452390E+03  0.7546771E-02  0.1216773E+00
          1   -1    0    0  501    0  0.00000000000E+00  0.00000000000E+00  0.24539940885E+03  0.24539940885E+03  0.00000000000E+00 0. -1.
         -1   -1    0    0    0  501 -0.00000000000E+00 -0.00000000000E+00 -0.80244581757E+02  0.80244581757E+02  0.00000000000E+00 0.  1.
         25    2    1    2    0    0 -0.37288451152E+02 -0.63862454511E+02  0.14879754763E+03  0.20793046190E+03  0.12500210046E+03 0.  0.
         23    2    1    2    0    0  0.37288451152E+02  0.63862454511E+02  0.16357279463E+02  0.11771352871E+03  0.90111445244E+02 0.  0.
          5    1    4    4  502    0  0.13594447108E+02  0.63332534337E+02  0.45915292806E+02  0.79536928600E+02  0.47000000000E+01 0. -1.
         -5    1    3    3    0  503 -0.63876730500E+02 -0.77296161244E+01  0.24706101276E+02  0.69083030515E+02  0.47000000000E+01 0.  1.
          5    1    3    3  503    0  0.26588279349E+02 -0.56132838387E+02  0.12409144635E+03  0.13884743138E+03  0.47000000000E+01 0.  1.
         -5    1    4    4    0  502  0.23694004043E+02  0.52992017423E+00 -0.29558013343E+02  0.38176600108E+02  0.47000000000E+01 0.  1.
<mgrwt>
<rscale>  0 0.13747082E+03</rscale>
<asrwt>0</asrwt>
<pdfrwt beam="1">  1        1 0.37753755E-01 0.14523900E+03</pdfrwt>
<pdfrwt beam="2">  1       -1 0.12345320E-01 0.14523900E+03</pdfrwt>
<totfact> 0.47661762E+03</totfact>
</mgrwt>
</event>
<event>
 8    1  0.3217375E-004  0.1451708E+03  0.7546771E-02  0.1216682E+00
         -2   -1    0    0    0  501 -0.00000000000E+00  0.00000000000E+00  0.74673837103E+02  0.74673837103E+02  0.00000000000E+00 0.  1.
          2   -1    0    0  501    0  0.00000000000E+00 -0.00000000000E+00 -0.23026615138E+03  0.23026615138E+03  0.00000000000E+00 0. -1.
         25    2    1    2    0    0 -0.56838713024E+02 -0.47110772172E+02 -0.90873799191E+02  0.17126761881E+03  0.12499794287E+03 0.  0.
         23    2    1    2    0    0  0.56838713024E+02  0.47110772172E+02 -0.64718515087E+02  0.13367236967E+03  0.90717980940E+02 0.  0.
          5    1    4    4  502    0 -0.22853111621E+02 -0.50463787756E+00 -0.18957384860E+02  0.30066456574E+02  0.47000000000E+01 0. -1.
         -5    1    3    3    0  503 -0.21546586828E+02  0.40628604330E+02 -0.11314214683E+02  0.47592440026E+02  0.47000000000E+01 0.  1.
          5    1    3    3  503    0 -0.35292126196E+02 -0.87739376502E+02 -0.79559584508E+02  0.12367517878E+03  0.47000000000E+01 0.  1.
         -5    1    4    4    0  502  0.79691824645E+02  0.47615410050E+02 -0.45761130227E+02  0.10360591310E+03  0.47000000000E+01 0.  1.
<mgrwt>
<rscale>  0 0.13753695E+03</rscale>
<asrwt>0</asrwt>
<pdfrwt beam="1">  1        2 0.35425562E-01 0.14517076E+03</pdfrwt>
<pdfrwt beam="2">  1       -2 0.11488283E-01 0.14517076E+03</pdfrwt>
<totfact> 0.73889093E+03</totfact>
</mgrwt>
</event>
<event>
 8    1  0.3217375E-004  0.1535554E+03  0.7546771E-02  0.1204429E+00
          2   -1    0    0  501    0  0.00000000000E+00  0.00000000000E+00  0.59956095714E+03  0.59956095714E+03  0.00000000000E+00 0. -1.
         -2   -1    0    0    0  501 -0.00000000000E+00 -0.00000000000E+00 -0.36709213193E+02  0.36709213193E+02  0.00000000000E+00 0.  1.
         25    2    1    2    0    0 -0.12275976771E+02  0.88339916737E+02  0.20526626086E+03  0.25634642054E+03  0.12499843590E+03 0.  0.
         23    2    1    2    0    0  0.12275976771E+02 -0.88339916737E+02  0.35758548308E+03  0.37992374980E+03  0.92304048957E+02 0.  0.
          5    1    4    4  502    0  0.20917971209E+02 -0.49344023775E+02  0.32124721678E+03  0.32572113608E+03  0.47000000000E+01 0. -1.
         -5    1    4    4    0  502 -0.86419944378E+01 -0.38995892961E+02  0.36338266305E+02  0.54202613717E+02  0.47000000000E+01 0.  1.
          5    1    3    3  503    0 -0.31419249353E+01 -0.25169050811E+02  0.55328576596E+01  0.26382860438E+02  0.47000000000E+01 0.  1.
         -5    1    3    3    0  503 -0.91340518356E+01  0.11350896755E+03  0.19973340321E+03  0.22996356010E+03  0.47000000000E+01 0.  1.
<mgrwt>
<rscale>  0 0.14682529E+03</rscale>
<asrwt>0</asrwt>
<pdfrwt beam="1">  1        2 0.92240140E-01 0.15355536E+03</pdfrwt>
<pdfrwt beam="2">  1       -2 0.56475717E-02 0.15355536E+03</pdfrwt>
<totfact> 0.79256063E+03</totfact>
</mgrwt>
</event>
<event>
 8    1  0.3217375E-004  0.1327754E+03  0.7546771E-02  0.1237478E+00
         -1   -1    0    0    0  501 -0.00000000000E+00  0.00000000000E+00  0.35239319972E+03  0.35239319972E+03  0.00000000000E+00 0.  1.
          1   -1    0    0  501    0  0.00000000000E+00 -0.00000000000E+00 -0.39257687999E+02  0.39257687999E+02  0.00000000000E+00 0. -1.
         25    2    1    2    0    0 -0.75371557500E+01  0.44126274822E+02  0.14683926591E+03  0.19796734230E+03  0.12500144702E+03 0.  0.
         23    2    1    2    0    0  0.75371557500E+01 -0.44126274822E+02  0.16629624581E+03  0.19368354542E+03  0.88628085562E+02 0.  0.
          5    1    4    4  502    0 -0.32887346263E+02 -0.10527166035E+01  0.28870400573E+02  0.44025853606E+02  0.47000000000E+01 0. -1.
         -5    1    4    4    0  502  0.40424502013E+02 -0.43073558218E+02  0.13742584524E+03  0.14965769182E+03  0.47000000000E+01 0.  1.
          5    1    3    3  503    0  0.36205749814E+02 -0.27136386582E+02  0.31096760438E+02  0.55102979103E+02  0.47000000000E+01 0. -1.
         -5    1    3    3    0  503 -0.43742905564E+02  0.71262661404E+02  0.11574250547E+03  0.14286436319E+03  0.47000000000E+01 0. -1.
<mgrwt>
<rscale>  0 0.12347145E+03</rscale>
<asrwt>0</asrwt>
<pdfrwt beam="1">  1        1 0.60396445E-02 0.13277537E+03</pdfrwt>
<pdfrwt beam="2">  1       -1 0.54214336E-01 0.13277537E+03</pdfrwt>
<totfact> 0.43180855E+03</totfact>
</mgrwt>
</event>
<event>
 8    1  0.3217375E-004  0.3939057E+03  0.7546771E-02  0.1046769E+00
          1   -1    0    0  501    0  0.00000000000E+00  0.00000000000E+00  0.22285121076E+04  0.22285121076E+04  0.00000000000E+00 0. -1.
         -1   -1    0    0    0  501 -0.00000000000E+00 -0.00000000000E+00 -0.96904651826E+02  0.96904651826E+02  0.00000000000E+00 0.  1.
         25    2    1    2    0    0 -0.36663108357E+03  0.71542441478E+02  0.43937244756E+03  0.59009308160E+03  0.12500009960E+03 0.  0.
         23    2    1    2    0    0  0.36663108357E+03 -0.71542441478E+02  0.16922350082E+04  0.17353236778E+04  0.90289929899E+02 0.  0.
          5    1    4    4  502    0  0.70050901465E+02 -0.30077304559E+02  0.51272178389E+03  0.51837967815E+03  0.47000000000E+01 0. -1.
         -5    1    4    4    0  502  0.29658018210E+03 -0.41465136920E+02  0.11795132243E+04  0.12169439996E+04  0.47000000000E+01 0.  1.
          5    1    3    3  503    0 -0.19914696830E+02  0.12582143673E+02 -0.37880776517E+01  0.24317586671E+02  0.47000000000E+01 0. -1.
         -5    1    3    3    0  503 -0.34671638674E+03  0.58960297805E+02  0.44316052522E+03  0.56577549493E+03  0.47000000000E+01 0. -1.
<mgrwt>
<rscale>  0 0.39148281E+03</rscale>
<asrwt>0</asrwt>
<pdfrwt beam="1">  1        1 0.34284798E+00 0.39390570E+03</pdfrwt>
<pdfrwt beam="2">  1       -1 0.14908410E-01 0.39390570E+03</pdfrwt>
<totfact> 0.75678640E+01</totfact>
</mgrwt>
</event>
<event>
 8    1  0.3217375E-004  0.1484916E+03  0.7546771E-02  0.1211670E+00
         -1   -1    0    0    0  501 -0.00000000000E+00  0.00000000000E+00  0.26371297132E+02  0.26371297132E+02  0.00000000000E+00 0.  1.
          1   -1    0    0  501    0  0.00000000000E+00 -0.00000000000E+00 -0.70719367958E+03  0.70719367958E+03  0.00000000000E+00 0. -1.
         25    2    1    2    0    0  0.35395083226E+02 -0.71911710653E+02 -0.31884958394E+03  0.35173118109E+03  0.12500264209E+03 0.  0.
         23    2    1    2    0    0 -0.35395083226E+02  0.71911710653E+02 -0.36197279851E+03  0.38183379562E+03  0.91370862810E+02 0.  0.
          5    1    4    4  502    0  0.52380818396E+01  0.63502641139E+02 -0.30244071073E+03  0.30911566838E+03  0.47000000000E+01 0. -1.
         -5    1    4    4    0  502 -0.40633165066E+02  0.84090695141E+01 -0.59532087779E+02  0.72718127236E+02  0.47000000000E+01 0.  1.
          5    1    3    3  503    0 -0.28261492563E+02  0.12940933958E+02 -0.14213831834E+03  0.14557325054E+03  0.47000000000E+01 0. -1.
         -5    1    3    3    0  503  0.63656575789E+02 -0.84852644611E+02 -0.17671126560E+03  0.20615793055E+03  0.47000000000E+01 0. -1.
<mgrwt>
<rscale>  0 0.14124046E+03</rscale>
<asrwt>0</asrwt>
<pdfrwt beam="1">  1        1 0.10879902E+00 0.14849164E+03</pdfrwt>
<pdfrwt beam="2">  1       -1 0.40571229E-02 0.14849164E+03</pdfrwt>
<totfact> 0.64841492E+03</totfact>
</mgrwt>
</event>
<event>
 8    1  0.3217375E-004  0.1393431E+03  0.7546771E-02  0.1225693E+00
          1   -1    0    0  501    0  0.00000000000E+00  0.00000000000E+00  0.64940910391E+03  0.64940910391E+03  0.00000000000E+00 0. -1.
         -1   -1    0    0    0  501 -0.00000000000E+00 -0.00000000000E+00 -0.26093812931E+02  0.26093812931E+02  0.00000000000E+00 0.  1.
         25    2    1    2    0    0 -0.37536230383E+02 -0.48807587565E+02  0.44445072879E+03  0.46578207182E+03  0.12500135566E+03 0.  0.
         23    2    1    2    0    0  0.37536230383E+02  0.48807587565E+02  0.17886456220E+03  0.20972084502E+03  0.90549169140E+02 0.  0.
          5    1    3    3  502    0  0.33828045204E+02 -0.56444203125E+02  0.17940688670E+03  0.19115231022E+03  0.47000000000E+01 0. -1.
         -5    1    3    3    0  502 -0.71364275586E+02  0.76366155597E+01  0.26504384209E+03  0.27462976160E+03  0.47000000000E+01 0. -1.
          5    1    4    4  503    0  0.49535590530E+01  0.46676283267E+02  0.16874517561E+03  0.17521483230E+03  0.47000000000E+01 0. -1.
         -5    1    4    4    0  503  0.32582671330E+02  0.21313042984E+01  0.10119386586E+02  0.34506012720E+02  0.47000000000E+01 0.  1.
<mgrwt>
<rscale>  0 0.13119515E+03</rscale>
<asrwt>0</asrwt>
<pdfrwt beam="1">  1        1 0.99909081E-01 0.13934306E+03</pdfrwt>
<pdfrwt beam="2">  1       -1 0.40144333E-02 0.13934306E+03</pdfrwt>
<totfact> 0.74056062E+03</totfact>
</mgrwt>
</event>
<event>
 8    1  0.3217375E-004  0.1933071E+03  0.7546771E-02  0.1159781E+00
          2   -1    0    0  501    0  0.00000000000E+00  0.00000000000E+00  0.67510951040E+03  0.67510951040E+03  0.00000000000E+00 0. -1.
         -2   -1    0    0    0  501 -0.00000000000E+00 -0.00000000000E+00 -0.54240838777E+02  0.54240838777E+02  0.00000000000E+00 0.  1.
         25    2    1    2    0    0  0.12605764089E+03 -0.76528047637E+02  0.42396337492E+03  0.46595341899E+03  0.12498229672E+03 0.  0.
         23    2    1    2    0    0 -0.12605764089E+03  0.76528047637E+02  0.19690529671E+03  0.26339693019E+03  0.94123196176E+02 0.  0.
          5    1    3    3  502    0  0.85460421966E+02 -0.41520394678E+02  0.39197073092E+03  0.40334919213E+03  0.47000000000E+01 0.  1.
         -5    1    3    3    0  502  0.40597218928E+02 -0.35007652960E+02  0.31992643998E+02  0.62604226858E+02  0.47000000000E+01 0.  1.
          5    1    4    4  503    0 -0.22270461390E+02  0.36611506302E+02  0.12160247755E+03  0.12901793825E+03  0.47000000000E+01 0. -1.
         -5    1    4    4    0  503 -0.10378717950E+03  0.39916541335E+02  0.75302819162E+02  0.13437899194E+03  0.47000000000E+01 0.  1.
<mgrwt>
<rscale>  0 0.18854376E+03</rscale>
<asrwt>0</asrwt>
<pdfrwt beam="1">  1        2 0.10386300E+00 0.19330713E+03</pdfrwt>
<pdfrwt beam="2">  1       -2 0.83447449E-02 0.19330713E+03</pdfrwt>
<totfact> 0.38253931E+03</totfact>
</mgrwt>
</event>
<event>
 8    1  0.3217375E-004  0.1468719E+03  0.7546771E-02  0.1214067E+00
          2   -1    0    0  501    0  0.00000000000E+00  0.00000000000E+00  0.21951027310E+03  0.21951027310E+03  0.00000000000E+00 0. -1.
         -2   -1    0    0    0  501 -0.00000000000E+00 -0.00000000000E+00 -0.90391453400E+02  0.90391453400E+02  0.00000000000E+00 0.  1.
         25    2    1    2    0    0  0.76627263115E+02  0.88110264393E+01  0.20099365284E+02  0.14824081092E+03  0.12498792701E+03 0.  0.
         23    2    1    2    0    0 -0.76627263115E+02 -0.88110264393E+01  0.10901945441E+03  0.16166091558E+03  0.91102352032E+02 0.  0.
          5    1    3    3  502    0 -0.77163468438E+01  0.49697825545E+02 -0.59027051708E+01  0.50856148113E+02  0.47000000000E+01 0.  1.
         -5    1    3    3    0  502  0.84343609959E+02 -0.40886799106E+02  0.26002070455E+02  0.97384662806E+02  0.47000000000E+01 0.  1.
          5    1    4    4  503    0 -0.27760491517E+02 -0.32791955614E+02  0.96313219679E+02  0.10556648866E+03  0.47000000000E+01 0. -1.
         -5    1    4    4    0  503 -0.48866771598E+02  0.23980929175E+02  0.12706234732E+02  0.56094426921E+02  0.47000000000E+01 0.  1.
<mgrwt>
<rscale>  0 0.13945276E+03</rscale>
<asrwt>0</asrwt>
<pdfrwt beam="1">  1        2 0.33770811E-01 0.14687189E+03</pdfrwt>
<pdfrwt beam="2">  1       -2 0.13906378E-01 0.14687189E+03</pdfrwt>
<totfact> 0.57259013E+03</totfact>
</mgrwt>
</event>
<event>
 8    1  0.3217375E-004  0.1267080E+03  0.7546771E-02  0.1246984E+00
          2   -1    0    0  501    0  0.00000000000E+00  0.00000000000E+00  0.96651124079E+02  0.96651124079E+02  0.00000000000E+00 0.  1.
         -2   -1    0    0    0  501 -0.00000000000E+00 -0.00000000000E+00 -0.12822398604E+03  0.12822398604E+03  0.00000000000E+00 0. -1.
         25    2    1    2    0    0  0.12980029049E+02 -0.16087544096E+02 -0.44169001620E+01  0.12678491520E+03  0.12501046151E+03 0.  0.
         23    2    1    2    0    0 -0.12980029049E+02  0.16087544096E+02 -0.27155961798E+02  0.98090194915E+02  0.91961675975E+02 0.  0.
          5    1    3    3  502    0 -0.29801774426E+02  0.57523910458E+01  0.47076251398E+02  0.56209422763E+02  0.47000000000E+01 0. -1.
         -5    1    4    4    0  503 -0.32294262621E+01  0.54244625774E+02 -0.14142729753E+02  0.56347275215E+02  0.47000000000E+01 0.  1.
          5    1    4    4  503    0 -0.97506027864E+01 -0.38157081677E+02 -0.13013232045E+02  0.41742919700E+02  0.47000000000E+01 0. -1.
         -5    1    3    3    0  502  0.42781803475E+02 -0.21839935142E+02 -0.51493151560E+02  0.70575492440E+02  0.47000000000E+01 0. -1.
<mgrwt>
<rscale>  0 0.11767398E+03</rscale>
<asrwt>0</asrwt>
<pdfrwt beam="1">  1        2 0.14869404E-01 0.12670795E+03</pdfrwt>
<pdfrwt beam="2">  1       -2 0.19726767E-01 0.12670795E+03</pdfrwt>
<totfact> 0.79564281E+03</totfact>
</mgrwt>
</event>
<event>
 8    1  0.3217375E-004  0.1709144E+03  0.7546771E-02  0.1183485E+00
          1   -1    0    0  501    0  0.00000000000E+00  0.00000000000E+00  0.13150817704E+03  0.13150817704E+03  0.00000000000E+00 0. -1.
         -1   -1    0    0    0  501 -0.00000000000E+00 -0.00000000000E+00 -0.19377459057E+03  0.19377459057E+03  0.00000000000E+00 0.  1.
         25    2    1    2    0    0 -0.11623618387E+03 -0.88143810482E+01 -0.45951269018E+02  0.17698378127E+03  0.12499278360E+03 0.  0.
         23    2    1    2    0    0  0.11623618387E+03  0.88143810482E+01 -0.16315144512E+02  0.14829898635E+03  0.90210097320E+02 0.  0.
          5    1    4    4  502    0  0.60078208108E+02 -0.98136799810E+01  0.34531336470E+02  0.70144155870E+02  0.47000000000E+01 0. -1.
         -5    1    3    3    0  503 -0.10492597647E+02 -0.24246658044E+02 -0.63175919337E+02  0.68638777784E+02  0.47000000000E+01 0. -1.
          5    1    3    3  503    0 -0.10574358622E+03  0.15432276996E+02  0.17224650319E+02  0.10834500348E+03  0.47000000000E+01 0. -1.
         -5    1    4    4    0  502  0.56157975763E+02  0.18628061029E+02 -0.50846480982E+02  0.78154830483E+02  0.47000000000E+01 0.  1.
<mgrwt>
<rscale>  0 0.16470528E+03</rscale>
<asrwt>0</asrwt>
<pdfrwt beam="1">  1        1 0.20232027E-01 0.17091442E+03</pdfrwt>
<pdfrwt beam="2">  1       -1 0.29811476E-01 0.17091442E+03</pdfrwt>
<totfact> 0.25441009E+03</totfact>
</mgrwt>
</event>
<event>
 8    1  0.3217375E-004  0.1717636E+03  0.7546771E-02  0.1182339E+00
         -1   -1    0    0    0  501 -0.00000000000E+00  0.00000000000E+00  0.87448913534E+02  0.87448913534E+02  0.00000000000E+00 0.  1.
          1   -1    0    0  501    0  0.00000000000E+00 -0.00000000000E+00 -0.31505840093E+03  0.31505840093E+03  0.00000000000E+00 0. -1.
         25    2    1    2    0    0  0.87470211393E+02  0.78913839427E+02 -0.17309736135E+03  0.24385536754E+03  0.12499724732E+03 0.  0.
         23    2    1    2    0    0 -0.87470211393E+02 -0.78913839427E+02 -0.54512126045E+02  0.15865194692E+03  0.91216426386E+02 0.  0.
          5    1    3    3  502    0  0.72483164742E+02 -0.16945957207E+02 -0.72591817010E+02  0.10407995260E+03  0.47000000000E+01 0. -1.
         -5    1    4    4    0  503 -0.81508618331E+02 -0.13926371224E+02 -0.22578604468E+02  0.85845687471E+02  0.47000000000E+01 0.  1.
          5    1    4    4  503    0 -0.59615930626E+01 -0.64987468203E+02 -0.31933521577E+02  0.72806259454E+02  0.47000000000E+01 0. -1.
         -5    1    3    3    0  502  0.14987046651E+02  0.95859796634E+02 -0.10050554434E+03  0.13977541494E+03  0.47000000000E+01 0. -1.
<mgrwt>
<rscale>  0 0.16576382E+03</rscale>
<asrwt>0</asrwt>
<pdfrwt beam="1">  1        1 0.48470524E-01 0.17176363E+03</pdfrwt>
<pdfrwt beam="2">  1       -1 0.13453679E-01 0.17176363E+03</pdfrwt>
<totfact> 0.30812274E+03</totfact>
</mgrwt>
</event>
<event>
 8    1  0.3217375E-004  0.1432912E+03  0.7546771E-02  0.1219506E+00
         -3   -1    0    0    0  501 -0.00000000000E+00  0.00000000000E+00  0.50462604299E+02  0.50462604299E+02  0.00000000000E+00 0.  1.
          3   -1    0    0  501    0  0.00000000000E+00 -0.00000000000E+00 -0.33003290568E+03  0.33003290568E+03  0.00000000000E+00 0. -1.
         25    2    1    2    0    0  0.65088785322E+02  0.25910337179E+02 -0.14766861755E+03  0.20576291582E+03  0.12499784546E+03 0.  0.
         23    2    1    2    0    0 -0.65088785322E+02 -0.25910337179E+02 -0.13190168383E+03  0.17473259416E+03  0.90694706110E+02 0.  0.
          5    1    3    3  502    0  0.56183561452E+01  0.31175600503E+02  0.12796462729E+02  0.34486569138E+02  0.47000000000E+01 0. -1.
         -5    1    4    4    0  503 -0.92714173800E+01  0.25303746587E+02 -0.64458313536E+01  0.28104759622E+02  0.47000000000E+01 0.  1.
          5    1    4    4  503    0 -0.55817367942E+02 -0.51214083765E+02 -0.12545585248E+03  0.14662783454E+03  0.47000000000E+01 0. -1.
         -5    1    3    3    0  502  0.59470429177E+02 -0.52652633246E+01 -0.16046508028E+03  0.17127634668E+03  0.47000000000E+01 0. -1.
<mgrwt>
<rscale>  0 0.13550702E+03</rscale>
<asrwt>0</asrwt>
<pdfrwt beam="1">  1        3 0.50774292E-01 0.14329116E+03</pdfrwt>
<pdfrwt beam="2">  1       -3 0.77634777E-02 0.14329116E+03</pdfrwt>
<totfact> 0.10100250E+03</totfact>
</mgrwt>
</event>
<event>
 8    1  0.3217375E-004  0.1399402E+03  0.7546771E-02  0.1224796E+00
         -1   -1    0    0    0  501 -0.00000000000E+00  0.00000000000E+00  0.17052718155E+03  0.17052718155E+03  0.00000000000E+00 0.  1.
          1   -1    0    0  501    0  0.00000000000E+00 -0.00000000000E+00 -0.11273543329E+03  0.11273543329E+03  0.00000000000E+00 0. -1.
         25    2    1    2    0    0  0.66063138601E+01 -0.62596677893E+02  0.92538136418E+02  0.16776941366E+03  0.12498512713E+03 0.  0.
         23    2    1    2    0    0 -0.66063138601E+01  0.62596677893E+02 -0.34746388159E+02  0.11549320117E+03  0.90384625684E+02 0.  0.
          5    1    4    4  502    0 -0.24661427164E+02  0.15312742161E+02 -0.53715016896E+02  0.61237726137E+02  0.47000000000E+01 0. -1.
         -5    1    3    3    0  503  0.60190950088E+02 -0.90427293730E+01  0.24315868981E+02  0.65712045405E+02  0.47000000000E+01 0.  1.
          5    1    3    3  503    0 -0.53584636228E+02 -0.53553948520E+02  0.68222267436E+02  0.10205736826E+03  0.47000000000E+01 0.  1.
         -5    1    4    4    0  502  0.18055113304E+02  0.47283935733E+02  0.18968628737E+02  0.54255475032E+02  0.47000000000E+01 0.  1.
<mgrwt>
<rscale>  0 0.13180918E+03</rscale>
<asrwt>0</asrwt>
<pdfrwt beam="1">  1        1 0.17343913E-01 0.13994024E+03</pdfrwt>
<pdfrwt beam="2">  1       -1 0.26234951E-01 0.13994024E+03</pdfrwt>
<totfact> 0.38000136E+03</totfact>
</mgrwt>
</event>
<event>
 8    1  0.3217375E-004  0.1275547E+03  0.7546771E-02  0.1243647E+00
         -2   -1    0    0    0  501 -0.00000000000E+00  0.00000000000E+00  0.12427126406E+02  0.12427126406E+02  0.00000000000E+00 0.  1.
          2   -1    0    0  501    0  0.00000000000E+00 -0.00000000000E+00 -0.10316811050E+04  0.10316811050E+04  0.00000000000E+00 0. -1.
         25    2    1    2    0    0  0.75939492991E+01 -0.24249833876E+02 -0.58888402338E+03  0.60254011377E+03  0.12499789280E+03 0.  0.
         23    2    1    2    0    0 -0.75939492991E+01  0.24249833876E+02 -0.43036995522E+03  0.44156811764E+03  0.95490217559E+02 0.  0.
          5    1    4    4  502    0  0.13226897097E+02 -0.29121048400E+02 -0.25445258661E+03  0.25649794365E+03  0.47000000000E+01 0. -1.
         -5    1    3    3    0  503  0.31428664402E+00 -0.75298336363E+02 -0.32763651120E+03  0.33621081438E+03  0.47000000000E+01 0.  1.
          5    1    3    3  503    0  0.72796626551E+01  0.51048502487E+02 -0.26124751218E+03  0.26632929939E+03  0.47000000000E+01 0.  1.
         -5    1    4    4    0  502 -0.20820846396E+02  0.53370882276E+02 -0.17591736862E+03  0.18507017399E+03  0.47000000000E+01 0.  1.
<mgrwt>
<rscale>  0 0.11966753E+03</rscale>
<asrwt>0</asrwt>
<pdfrwt beam="1">  1        2 0.15872022E+00 0.12755468E+03</pdfrwt>
<pdfrwt beam="2">  1       -2 0.19118650E-02 0.12755468E+03</pdfrwt>
<totfact> 0.19711024E+04</totfact>
</mgrwt>
</event>
<event>
 8    1  0.3217375E-004  0.1597813E+03  0.7546771E-02  0.1196214E+00
          2   -1    0    0  501    0  0.00000000000E+00  0.00000000000E+00  0.72508381568E+03  0.72508381568E+03  0.00000000000E+00 0. -1.
         -2   -1    0    0    0  501 -0.00000000000E+00 -0.00000000000E+00 -0.30246962833E+02  0.30246962833E+02  0.00000000000E+00 0.  1.
         25    2    1    2    0    0  0.96927211981E+02  0.22602940759E+02  0.39012364940E+03  0.42157625298E+03  0.12499719157E+03 0.  0.
         23    2    1    2    0    0 -0.96927211981E+02 -0.22602940759E+02  0.30471320344E+03  0.33375452553E+03  0.92930993783E+02 0.  0.
          5    1    4    4  502    0  0.82726116572E+00  0.25458677441E+02  0.42428214179E+02  0.49709878058E+02  0.47000000000E+01 0. -1.
         -5    1    3    3    0  503  0.96009057257E+02 -0.31699116775E+02  0.20551819531E+03  0.22909035703E+03  0.47000000000E+01 0. -1.
          5    1    3    3  503    0  0.91815472356E+00  0.54302057533E+02  0.18460545409E+03  0.19248589595E+03  0.47000000000E+01 0. -1.
         -5    1    4    4    0  502 -0.97754473146E+02 -0.48061618200E+02  0.26228498926E+03  0.28404464747E+03  0.47000000000E+01 0.  1.
<mgrwt>
<rscale>  0 0.15351964E+03</rscale>
<asrwt>0</asrwt>
<pdfrwt beam="1">  1        2 0.11155134E+00 0.15978134E+03</pdfrwt>
<pdfrwt beam="2">  1       -2 0.46533795E-02 0.15978134E+03</pdfrwt>
<totfact> 0.85108740E+03</totfact>
</mgrwt>
</event>
<event>
 8    1  0.3217375E-004  0.1614881E+03  0.7546771E-02  0.1194411E+00
          1   -1    0    0  501    0  0.00000000000E+00  0.00000000000E+00  0.22406966207E+04  0.22406966207E+04  0.00000000000E+00 0. -1.
         -1   -1    0    0    0  501 -0.00000000000E+00 -0.00000000000E+00 -0.10297672893E+02  0.10297672893E+02  0.00000000000E+00 0.  1.
         25    2    1    2    0    0 -0.41159964938E+02 -0.93605989513E+02  0.99799276839E+03  0.10109737741E+04  0.12498872850E+03 0.  0.
         23    2    1    2    0    0  0.41159964938E+02  0.93605989513E+02  0.12324061794E+04  0.12400205195E+04  0.91485920321E+02 0.  0.
          5    1    4    4  502    0 -0.20885074554E+02  0.65376309924E+02  0.59603560739E+03  0.59999231955E+03  0.47000000000E+01 0. -1.
         -5    1    4    4    0  502  0.62045039492E+02  0.28229679589E+02  0.63637057205E+03  0.64002819993E+03  0.47000000000E+01 0.  1.
          5    1    3    3  503    0 -0.97020458464E+01 -0.11833225795E+03  0.66256970682E+03  0.67313992554E+03  0.47000000000E+01 0.  1.
         -5    1    3    3    0  503 -0.31457919091E+02  0.24726268434E+02  0.33542306157E+03  0.33783384859E+03  0.47000000000E+01 0.  1.
<mgrwt>
<rscale>  0 0.15504218E+03</rscale>
<asrwt>0</asrwt>
<pdfrwt beam="1">  1        1 0.34472217E+00 0.16148810E+03</pdfrwt>
<pdfrwt beam="2">  1       -1 0.15842591E-02 0.16148810E+03</pdfrwt>
<totfact> 0.22722273E+03</totfact>
</mgrwt>
</event>
<event>
 8    1  0.3217375E-004  0.2054686E+03  0.7546771E-02  0.1149143E+00
         -1   -1    0    0    0  501 -0.00000000000E+00  0.00000000000E+00  0.35513232165E+02  0.35513232165E+02  0.00000000000E+00 0.  1.
          1   -1    0    0  501    0  0.00000000000E+00 -0.00000000000E+00 -0.11123345570E+04  0.11123345570E+04  0.00000000000E+00 0. -1.
         25    2    1    2    0    0 -0.14705701708E+03 -0.70473701258E+02 -0.65327495427E+03  0.68482516404E+03  0.12500012236E+03 0.  0.
         23    2    1    2    0    0  0.14705701708E+03  0.70473701258E+02 -0.42354637056E+03  0.46302262512E+03  0.91684865234E+02 0.  0.
          5    1    4    4  502    0  0.92987629857E+02  0.61834720856E+02 -0.36914214422E+03  0.38569190379E+03  0.47000000000E+01 0. -1.
         -5    1    3    3    0  503 -0.73845103722E+02 -0.35597983641E+02 -0.53547121824E+03  0.54173040467E+03  0.47000000000E+01 0. -1.
          5    1    3    3  503    0 -0.73211913360E+02 -0.34875717617E+02 -0.11780373603E+03  0.14309475937E+03  0.47000000000E+01 0. -1.
         -5    1    4    4    0  502  0.54069387225E+02  0.86389804025E+01 -0.54404226342E+02  0.77330721328E+02  0.47000000000E+01 0.  1.
<mgrwt>
<rscale>  0 0.20070821E+03</rscale>
<asrwt>0</asrwt>
<pdfrwt beam="1">  1        1 0.17112841E+00 0.20546859E+03</pdfrwt>
<pdfrwt beam="2">  1       -1 0.54635736E-02 0.20546859E+03</pdfrwt>
<totfact> 0.20310980E+03</totfact>
</mgrwt>
</event>
<event>
 8    1  0.3217375E-004  0.1459617E+03  0.7546771E-02  0.1215847E+00
         -1   -1    0    0    0  501 -0.00000000000E+00  0.00000000000E+00  0.27881756082E+02  0.27881756082E+02  0.00000000000E+00 0. -1.
          1   -1    0    0  501    0  0.00000000000E+00 -0.00000000000E+00 -0.62286759201E+03  0.62286759201E+03  0.00000000000E+00 0.  1.
         25    2    1    2    0    0  0.37077009372E+02  0.65614076214E+02 -0.31037149482E+03  0.34298000552E+03  0.12499963108E+03 0.  0.
         23    2    1    2    0    0 -0.37077009372E+02 -0.65614076214E+02 -0.28461434111E+03  0.30776934257E+03  0.89647830095E+02 0.  0.
          5    1    3    3  502    0  0.48143937735E+02  0.27215775764E+02 -0.29456726697E+03  0.29975073305E+03  0.47000000000E+01 0. -1.
         -5    1    3    3    0  502 -0.11066928363E+02  0.38398300450E+02 -0.15804227850E+02  0.43229272475E+02  0.47000000000E+01 0. -1.
          5    1    4    4  503    0 -0.53057967267E+02 -0.51923941377E+01 -0.15050099077E+03  0.15973336242E+03  0.47000000000E+01 0. -1.
         -5    1    4    4    0  503  0.15980957895E+02 -0.60421682076E+02 -0.13411335034E+03  0.14803598015E+03  0.47000000000E+01 0.  1.
<mgrwt>
<rscale>  0 0.13814500E+03</rscale>
<asrwt>0</asrwt>
<pdfrwt beam="1">  1        1 0.95825783E-01 0.14596171E+03</pdfrwt>
<pdfrwt beam="2">  1       -1 0.42895010E-02 0.14596171E+03</pdfrwt>
<totfact> 0.71364072E+03</totfact>
</mgrwt>
</event>
<event>
 8    1  0.3217375E-004  0.1784831E+03  0.7546771E-02  0.1175101E+00
         -1   -1    0    0    0  501 -0.00000000000E+00  0.00000000000E+00  0.15883287145E+03  0.15883287145E+03  0.00000000000E+00 0.  1.
          1   -1    0    0  501    0  0.00000000000E+00 -0.00000000000E+00 -0.19696949092E+03  0.19696949092E+03  0.00000000000E+00 0. -1.
         25    2    1    2    0    0 -0.10228975618E+03 -0.75950120758E+02  0.37147009767E+02  0.18230777761E+03  0.12499844151E+03 0.  0.
         23    2    1    2    0    0  0.10228975618E+03  0.75950120758E+02 -0.75283629233E+02  0.17349458476E+03  0.90560096330E+02 0.  0.
          5    1    4    4  502    0  0.28210051737E+02  0.75631153220E+02 -0.50044920405E+02  0.95091863031E+02  0.47000000000E+01 0. -1.
         -5    1    4    4    0  502  0.74079704448E+02  0.31896753886E+00 -0.25238708828E+02  0.78402721730E+02  0.47000000000E+01 0.  1.
          5    1    3    3  503    0 -0.63862386106E+02 -0.22772544128E+02 -0.41614386905E+02  0.79692159732E+02  0.47000000000E+01 0. -1.
         -5    1    3    3    0  503 -0.38427370079E+02 -0.53177576631E+02  0.78761396672E+02  0.10261561788E+03  0.47000000000E+01 0. -1.
<mgrwt>
<rscale>  0 0.17266106E+03</rscale>
<asrwt>0</asrwt>
<pdfrwt beam="1">  1        1 0.30302998E-01 0.17848312E+03</pdfrwt>
<pdfrwt beam="2">  1       -1 0.24435827E-01 0.17848312E+03</pdfrwt>
<totfact> 0.21297133E+03</totfact>
</mgrwt>
</event>
<event>
 8    1  0.3217375E-004  0.1974349E+03  0.7546771E-02  0.1156339E+00
         -1   -1    0    0    0  501 -0.00000000000E+00  0.00000000000E+00  0.52938549124E+03  0.52938549124E+03  0.00000000000E+00 0.  1.
          1   -1    0    0  501    0  0.00000000000E+00 -0.00000000000E+00 -0.66569711223E+02  0.66569711223E+02  0.00000000000E+00 0. -1.
         25    2    1    2    0    0  0.10407295076E+03  0.11190757742E+03  0.23772169871E+03  0.30901806264E+03  0.12500428807E+03 0.  0.
         23    2    1    2    0    0 -0.10407295076E+03 -0.11190757742E+03  0.22509408131E+03  0.28693713982E+03  0.91165189658E+02 0.  0.
          5    1    3    3  502    0  0.51492589662E+02  0.24929548760E+02  0.18644738977E+03  0.19508379826E+03  0.47000000000E+01 0.  1.
         -5    1    4    4    0  503 -0.66774853268E+02 -0.98921933857E+02  0.21492556897E+03  0.24588517691E+03  0.47000000000E+01 0.  1.
          5    1    4    4  503    0 -0.37298097497E+02 -0.12985643561E+02  0.10168512333E+02  0.41051962909E+02  0.47000000000E+01 0. -1.
         -5    1    3    3    0  502  0.52580361103E+02  0.86978028658E+02  0.51274308940E+02  0.11393426438E+03  0.47000000000E+01 0.  1.
<mgrwt>
<rscale>  0 0.19237181E+03</rscale>
<asrwt>0</asrwt>
<pdfrwt beam="1">  1        1 0.10241494E-01 0.19743494E+03</pdfrwt>
<pdfrwt beam="2">  1       -1 0.81443919E-01 0.19743494E+03</pdfrwt>
<totfact> 0.97053122E+02</totfact>
</mgrwt>
</event>
<event>
 8    1  0.3217375E-004  0.1252886E+03  0.7546771E-02  0.1250079E+00
          2   -1    0    0  501    0  0.00000000000E+00  0.00000000000E+00  0.23571729294E+02  0.23571729294E+02  0.00000000000E+00 0. -1.
         -2   -1    0    0    0  501 -0.00000000000E+00 -0.00000000000E+00 -0.50576584539E+03  0.50576584539E+03  0.00000000000E+00 0.  1.
         25    2    1    2    0    0 -0.64726661290E+00 -0.84751621407E+01 -0.30807199092E+03  0.33257419061E+03  0.12499997336E+03 0.  0.
         23    2    1    2    0    0  0.64726661290E+00  0.84751621407E+01 -0.17412212517E+03  0.19676338408E+03  0.91241807910E+02 0.  0.
          5    1    3    3  502    0 -0.45000126637E+02 -0.67803054052E+01 -0.39874530439E+02  0.60688154664E+02  0.47000000000E+01 0. -1.
         -5    1    3    3    0  502  0.44352860024E+02 -0.16948567355E+01 -0.26819746049E+03  0.27188603595E+03  0.47000000000E+01 0. -1.
          5    1    4    4  503    0 -0.64736984487E+01 -0.40006396541E+02 -0.60901279240E+02  0.73303999542E+02  0.47000000000E+01 0. -1.
         -5    1    4    4    0  503  0.71209650616E+01  0.48481558681E+02 -0.11322084593E+03  0.12345938453E+03  0.47000000000E+01 0.  1.
<mgrwt>
<rscale>  0 0.11586474E+03</rscale>
<asrwt>0</asrwt>
<pdfrwt beam="1">  1        2 0.36264204E-02 0.12528863E+03</pdfrwt>
<pdfrwt beam="2">  1       -2 0.77810120E-01 0.12528863E+03</pdfrwt>
<totfact> 0.34679504E+03</totfact>
</mgrwt>
</event>
<event>
 8    1  0.3217375E-004  0.1301436E+03  0.7546771E-02  0.1240116E+00
         -1   -1    0    0    0  501 -0.00000000000E+00  0.00000000000E+00  0.56693679296E+02  0.56693679296E+02  0.00000000000E+00 0.  1.
          1   -1    0    0  501    0  0.00000000000E+00 -0.00000000000E+00 -0.25924789559E+03  0.25924789559E+03  0.00000000000E+00 0. -1.
         25    2    1    2    0    0  0.64262986683E-01 -0.36236472109E+02 -0.16272996071E+03  0.20837080744E+03  0.12499706893E+03 0.  0.
         23    2    1    2    0    0 -0.64262986683E-01  0.36236472109E+02 -0.39824255587E+02  0.10757076745E+03  0.93125789315E+02 0.  0.
          5    1    4    4  502    0 -0.12169372643E+02  0.63122518763E+02 -0.43092811053E+02  0.77534678499E+02  0.47000000000E+01 0. -1.
         -5    1    4    4    0  502  0.12105109657E+02 -0.26886046654E+02  0.32685554664E+01  0.30036088948E+02  0.47000000000E+01 0.  1.
          5    1    3    3  503    0  0.28949677894E+02 -0.74740740223E+02 -0.85851985800E+02  0.11754537662E+03  0.47000000000E+01 0. -1.
         -5    1    3    3    0  503 -0.28885414907E+02  0.38504268114E+02 -0.76877974906E+02  0.90825430816E+02  0.47000000000E+01 0. -1.
<mgrwt>
<rscale>  0 0.12182553E+03</rscale>
<asrwt>0</asrwt>
<pdfrwt beam="1">  1        1 0.39884292E-01 0.13014359E+03</pdfrwt>
<pdfrwt beam="2">  1       -1 0.87221045E-02 0.13014359E+03</pdfrwt>
<totfact> 0.75261496E+03</totfact>
</mgrwt>
</event>
<event>
 8    1  0.3217375E-004  0.1308979E+03  0.7546771E-02  0.1242371E+00
          2   -1    0    0  501    0  0.00000000000E+00  0.00000000000E+00  0.63070043044E+03  0.63070043044E+03  0.00000000000E+00 0. -1.
         -2   -1    0    0    0  501 -0.00000000000E+00 -0.00000000000E+00 -0.20243751941E+02  0.20243751941E+02  0.00000000000E+00 0.  1.
         25    2    1    2    0    0  0.31301736590E+02 -0.23002688095E+02  0.32104562497E+03  0.34670528230E+03  0.12500134836E+03 0.  0.
         23    2    1    2    0    0 -0.31301736590E+02  0.23002688095E+02  0.28941105353E+03  0.30423890008E+03  0.85402740244E+02 0.  0.
          5    1    4    4  502    0 -0.42681519984E+02  0.28306613599E+01  0.27069118908E+03  0.27409037677E+03  0.47000000000E+01 0. -1.
         -5    1    4    4    0  502  0.11379783393E+02  0.20172026735E+02  0.18719864455E+02  0.30148523312E+02  0.47000000000E+01 0.  1.
          5    1    3    3  503    0 -0.31224489316E+02 -0.27136387317E+02  0.36705752869E+02  0.55504545250E+02  0.47000000000E+01 0. -1.
         -5    1    3    3    0  503  0.62526225906E+02  0.41336992220E+01  0.28433987210E+03  0.29120073705E+03  0.47000000000E+01 0. -1.
<mgrwt>
<rscale>  0 0.12044134E+03</rscale>
<asrwt>0</asrwt>
<pdfrwt beam="1">  1        2 0.97030820E-01 0.13089790E+03</pdfrwt>
<pdfrwt beam="2">  1       -2 0.31144239E-02 0.13089790E+03</pdfrwt>
<totfact> 0.17970597E+04</totfact>
</mgrwt>
</event>
<event>
 8    1  0.3217375E-004  0.1573529E+03  0.7546771E-02  0.1199756E+00
         -1   -1    0    0    0  501 -0.00000000000E+00  0.00000000000E+00  0.48978186926E+02  0.48978186926E+02  0.00000000000E+00 0.  1.
          1   -1    0    0  501    0  0.00000000000E+00 -0.00000000000E+00 -0.43104746075E+03  0.43104746075E+03  0.00000000000E+00 0. -1.
         25    2    1    2    0    0  0.95183525319E+02 -0.86184845125E+01 -0.22995261619E+03  0.27863618799E+03  0.12500295116E+03 0.  0.
         23    2    1    2    0    0 -0.95183525319E+02  0.86184845125E+01 -0.15211665763E+03  0.20138945968E+03  0.91016785128E+02 0.  0.
          5    1    4    4  502    0 -0.15537451214E+02 -0.19294540028E+02 -0.97606410342E+02  0.10081067902E+03  0.47000000000E+01 0. -1.
         -5    1    4    4    0  502 -0.79646074105E+02  0.27913024541E+02 -0.54510247286E+02  0.10057878066E+03  0.47000000000E+01 0.  1.
          5    1    3    3  503    0  0.30480983992E+02 -0.16300304126E+02 -0.20619348312E+03  0.20912348691E+03  0.47000000000E+01 0. -1.
         -5    1    3    3    0  503  0.64702541327E+02  0.76818196131E+01 -0.23759133078E+02  0.69512701079E+02  0.47000000000E+01 0. -1.
<mgrwt>
<rscale>  0 0.15058492E+03</rscale>
<asrwt>0</asrwt>
<pdfrwt beam="1">  1        1 0.66314993E-01 0.15735285E+03</pdfrwt>
<pdfrwt beam="2">  1       -1 0.75351058E-02 0.15735285E+03</pdfrwt>
<totfact> 0.50325166E+03</totfact>
</mgrwt>
</event>
<event>
 8    1  0.3217375E-004  0.1383826E+03  0.7546771E-02  0.1226594E+00
          2   -1    0    0  501    0  0.00000000000E+00  0.00000000000E+00  0.13786167733E+04  0.13786167733E+04  0.00000000000E+00 0.  1.
         -2   -1    0    0    0  501 -0.00000000000E+00 -0.00000000000E+00 -0.19709263939E+02  0.19709263939E+02  0.00000000000E+00 0. -1.
         25    2    1    2    0    0  0.44241077086E+02  0.39632383178E+02  0.11825713942E+04  0.11906405150E+04  0.12498693895E+03 0.  0.
         23    2    1    2    0    0 -0.44241077086E+02 -0.39632383178E+02  0.17633611512E+03  0.20768552219E+03  0.92254278668E+02 0.  0.
          5    1    4    4  502    0 -0.24222982219E+02 -0.61109364962E+02  0.65445855624E+02  0.92878185663E+02  0.47000000000E+01 0. -1.
         -5    1    4    4    0  502 -0.20018094867E+02  0.21476981784E+02  0.11089025950E+03  0.11480733653E+03  0.47000000000E+01 0.  1.
          5    1    3    3  503    0  0.84200599271E+02  0.38377004933E+01  0.69854318463E+03  0.70362570992E+03  0.47000000000E+01 0. -1.
         -5    1    3    3    0  503 -0.39959522185E+02  0.35794682684E+02  0.48402820957E+03  0.48701480509E+03  0.47000000000E+01 0. -1.
<mgrwt>
<rscale>  0 0.13058225E+03</rscale>
<asrwt>0</asrwt>
<pdfrwt beam="1">  1        2 0.21209481E+00 0.13838256E+03</pdfrwt>
<pdfrwt beam="2">  1       -2 0.30321955E-02 0.13838256E+03</pdfrwt>
<totfact> 0.64875686E+03</totfact>
</mgrwt>
</event>
<event>
 8    1  0.3217375E-004  0.1482838E+03  0.7546771E-02  0.1211610E+00
          3   -1    0    0  501    0  0.00000000000E+00  0.00000000000E+00  0.56079651394E+03  0.56079651394E+03  0.00000000000E+00 0. -1.
         -3   -1    0    0    0  501 -0.00000000000E+00 -0.00000000000E+00 -0.33040526346E+02  0.33040526346E+02  0.00000000000E+00 0.  1.
         25    2    1    2    0    0 -0.31146367646E+02 -0.73449464160E+02  0.25554126492E+03  0.29544783403E+03  0.12499265800E+03 0.  0.
         23    2    1    2    0    0  0.31146367646E+02  0.73449464160E+02  0.27221472267E+03  0.29838920625E+03  0.92576147934E+02 0.  0.
          5    1    4    4  502    0  0.32119829969E+02  0.51001702348E+02  0.26839346977E+03  0.27511815959E+03  0.47000000000E+01 0. -1.
         -5    1    4    4    0  502 -0.97346232333E+00  0.22447761812E+02  0.38212529040E+01  0.23271046668E+02  0.47000000000E+01 0.  1.
          5    1    3    3  503    0  0.38503529187E+02 -0.11342583617E+02  0.14589831075E+03  0.15139214987E+03  0.47000000000E+01 0.  1.
         -5    1    3    3    0  503 -0.69649896832E+02 -0.62106880543E+02  0.10964295417E+03  0.14405568416E+03  0.47000000000E+01 0.  1.
<mgrwt>
<rscale>  0 0.14128527E+03</rscale>
<asrwt>0</asrwt>
<pdfrwt beam="1">  1        3 0.86276380E-01 0.14828380E+03</pdfrwt>
<pdfrwt beam="2">  1       -3 0.50831583E-02 0.14828380E+03</pdfrwt>
<totfact> 0.65839517E+02</totfact>
</mgrwt>
</event>
<event>
 8    1  0.3217375E-004  0.1671742E+03  0.7546771E-02  0.1186954E+00
          1   -1    0    0  501    0  0.00000000000E+00  0.00000000000E+00  0.12080329162E+03  0.12080329162E+03  0.00000000000E+00 0.  1.
         -1   -1    0    0    0  501 -0.00000000000E+00 -0.00000000000E+00 -0.25282956921E+03  0.25282956921E+03  0.00000000000E+00 0. -1.
         25    2    1    2    0    0 -0.28872070512E+02  0.10718637483E+03  0.13393288600E+02  0.16770987702E+03  0.12499882906E+03 0.  0.
         23    2    1    2    0    0  0.28872070512E+02 -0.10718637483E+03 -0.14541956619E+03  0.20592298381E+03  0.94524650883E+02 0.  0.
          5    1    3    3  502    0 -0.53359898842E+02  0.11243591194E+03 -0.19542343822E+02  0.12606786387E+03  0.47000000000E+01 0.  1.
         -5    1    3    3    0  502  0.24487828330E+02 -0.52495371133E+01  0.32935632422E+02  0.41642013151E+02  0.47000000000E+01 0.  1.
          5    1    4    4  503    0  0.20467427988E+02 -0.25135096125E+02 -0.11219475390E+03  0.11687789127E+03  0.47000000000E+01 0. -1.
         -5    1    4    4    0  503  0.84046425236E+01 -0.82051278702E+02 -0.33224812289E+02  0.89045092533E+02  0.47000000000E+01 0.  1.
<mgrwt>
<rscale>  0 0.16155330E+03</rscale>
<asrwt>0</asrwt>
<pdfrwt beam="1">  1        1 0.18585122E-01 0.16717423E+03</pdfrwt>
<pdfrwt beam="2">  1       -1 0.38896856E-01 0.16717423E+03</pdfrwt>
<totfact> 0.17940019E+03</totfact>
</mgrwt>
</event>
<event>
 8    1  0.3217375E-004  0.1767048E+03  0.7546771E-02  0.1176815E+00
         -2   -1    0    0    0  501 -0.00000000000E+00  0.00000000000E+00  0.14403720674E+02  0.14403720674E+02  0.00000000000E+00 0.  1.
          2   -1    0    0  501    0  0.00000000000E+00 -0.00000000000E+00 -0.19091587531E+04  0.19091587531E+04  0.00000000000E+00 0. -1.
         25    2    1    2    0    0  0.30399115690E+02 -0.12114174674E+03 -0.10034823562E+04  0.10189217029E+04  0.12500067367E+03 0.  0.
         23    2    1    2    0    0 -0.30399115690E+02  0.12114174674E+03 -0.89127267622E+03  0.90464077085E+03  0.91697938278E+02 0.  0.
          5    1    4    4  502    0  0.27312417773E+02  0.28875661867E+02 -0.14354545246E+03  0.14902066614E+03  0.47000000000E+01 0. -1.
         -5    1    3    3    0  503  0.74535312904E+02 -0.92990085489E+02 -0.79599211983E+03  0.80487776321E+03  0.47000000000E+01 0.  1.
          5    1    3    3  503    0 -0.44136197214E+02 -0.28151661252E+02 -0.20749023633E+03  0.21404393966E+03  0.47000000000E+01 0.  1.
         -5    1    4    4    0  502 -0.57711533464E+02  0.92266084874E+02 -0.74772722375E+03  0.75562010472E+03  0.47000000000E+01 0.  1.
<mgrwt>
<rscale>  0 0.17099393E+03</rscale>
<asrwt>0</asrwt>
<pdfrwt beam="1">  1        2 0.29371672E+00 0.17670483E+03</pdfrwt>
<pdfrwt beam="2">  1       -2 0.22159571E-02 0.17670483E+03</pdfrwt>
<totfact> 0.54827381E+03</totfact>
</mgrwt>
</event>
<event>
 8    1  0.3217375E-004  0.1493087E+03  0.7546771E-02  0.1210700E+00
         -1   -1    0    0    0  501 -0.00000000000E+00  0.00000000000E+00  0.28180951110E+03  0.28180951110E+03  0.00000000000E+00 0.  1.
          1   -1    0    0  501    0  0.00000000000E+00 -0.00000000000E+00 -0.65328061187E+02  0.65328061187E+02  0.00000000000E+00 0. -1.
         25    2    1    2    0    0  0.53534388023E+02 -0.61719976140E+02  0.11822660394E+03  0.19044843826E+03  0.12497116308E+03 0.  0.
         23    2    1    2    0    0 -0.53534388023E+02  0.61719976140E+02  0.98254845970E+02  0.15668913403E+03  0.90676258245E+02 0.  0.
          5    1    3    3  502    0  0.47757949120E+02  0.22088756721E+02  0.10675896474E+02  0.53896193215E+02  0.47000000000E+01 0. -1.
         -5    1    3    3    0  502  0.57764389031E+01 -0.83808732861E+02  0.10755070747E+03  0.13655224505E+03  0.47000000000E+01 0. -1.
          5    1    4    4  503    0 -0.43391604957E+02  0.81140706618E+02  0.53253712791E+02  0.10641754356E+03  0.47000000000E+01 0. -1.
         -5    1    4    4    0  503 -0.10142783066E+02 -0.19420730477E+02  0.45001133179E+02  0.50271590466E+02  0.47000000000E+01 0.  1.
<mgrwt>
<rscale>  0 0.14197204E+03</rscale>
<asrwt>0</asrwt>
<pdfrwt beam="1">  1        1 0.10050471E-01 0.14930867E+03</pdfrwt>
<pdfrwt beam="2">  1       -1 0.43355309E-01 0.14930867E+03</pdfrwt>
<totfact> 0.32918181E+03</totfact>
</mgrwt>
</event>
<event>
 8    1  0.3217375E-004  0.1278583E+03  0.7546771E-02  0.1246521E+00
          1   -1    0    0  501    0  0.00000000000E+00  0.00000000000E+00  0.30038901454E+03  0.30038901454E+03  0.00000000000E+00 0. -1.
         -1   -1    0    0    0  501 -0.00000000000E+00 -0.00000000000E+00 -0.48032992869E+02  0.48032992869E+02  0.00000000000E+00 0.  1.
         25    2    1    2    0    0 -0.13983300795E+02 -0.22955420532E+02  0.74689581459E+02  0.14807528483E+03  0.12500108946E+03 0.  0.
         23    2    1    2    0    0  0.13983300795E+02  0.22955420532E+02  0.17766644021E+03  0.20034672258E+03  0.88605650144E+02 0.  0.
          5    1    3    3  502    0 -0.24024761333E+01  0.50172489656E+02  0.14359911447E+02  0.52453290332E+02  0.47000000000E+01 0. -1.
         -5    1    4    4    0  503 -0.13866440001E+02 -0.24364612402E+02  0.10712118868E+03  0.11082847811E+03  0.47000000000E+01 0.  1.
          5    1    4    4  503    0  0.27849740796E+02  0.47320032933E+02  0.70545251534E+02  0.89518244472E+02  0.47000000000E+01 0. -1.
         -5    1    3    3    0  502 -0.11580824662E+02 -0.73127910188E+02  0.60329670012E+02  0.95621994499E+02  0.47000000000E+01 0. -1.
<mgrwt>
<rscale>  0 0.11794818E+03</rscale>
<asrwt>0</asrwt>
<pdfrwt beam="1">  1        1 0.46213693E-01 0.12785835E+03</pdfrwt>
<pdfrwt beam="2">  1       -1 0.73896914E-02 0.12785835E+03</pdfrwt>
<totfact> 0.80457252E+03</totfact>
</mgrwt>
</event>
<event>
 8    1  0.3217375E-004  0.1830017E+03  0.7546771E-02  0.1170229E+00
          2   -1    0    0  501    0  0.00000000000E+00  0.00000000000E+00  0.25426141628E+03  0.25426141628E+03  0.00000000000E+00 0. -1.
         -2   -1    0    0    0  501 -0.00000000000E+00 -0.00000000000E+00 -0.12281401320E+03  0.12281401320E+03  0.00000000000E+00 0.  1.
         25    2    1    2    0    0 -0.83072562790E+02 -0.10471178140E+03  0.28752185447E+02  0.18524665657E+03  0.12499611094E+03 0.  0.
         23    2    1    2    0    0  0.83072562790E+02  0.10471178140E+03  0.10269521763E+03  0.19182877291E+03  0.91577085247E+02 0.  0.
          5    1    4    4  502    0  0.79200463980E+01  0.59001544709E+02  0.81832634743E+02  0.10130439044E+03  0.47000000000E+01 0. -1.
         -5    1    3    3    0  503 -0.11115296617E+03 -0.73285908309E+02 -0.13762204610E+01  0.13322833868E+03  0.47000000000E+01 0.  1.
          5    1    3    3  503    0  0.28080403380E+02 -0.31425873087E+02  0.30128405908E+02  0.52018317887E+02  0.47000000000E+01 0.  1.
         -5    1    4    4    0  502  0.75152516392E+02  0.45710236686E+02  0.20862582886E+02  0.90524382476E+02  0.47000000000E+01 0.  1.
<mgrwt>
<rscale>  0 0.17751565E+03</rscale>
<asrwt>0</asrwt>
<pdfrwt beam="1">  1        2 0.39117141E-01 0.18300174E+03</pdfrwt>
<pdfrwt beam="2">  1       -2 0.18894464E-01 0.18300174E+03</pdfrwt>
<totfact> 0.29763316E+03</totfact>
</mgrwt>
</event>
<event>
 8    1  0.3217375E-004  0.1817835E+03  0.7546771E-02  0.1171848E+00
          2   -1    0    0  501    0  0.00000000000E+00  0.00000000000E+00  0.16644022995E+03  0.16644022995E+03  0.00000000000E+00 0. -1.
         -2   -1    0    0    0  501 -0.00000000000E+00 -0.00000000000E+00 -0.17713729785E+03  0.17713729785E+03  0.00000000000E+00 0.  1.
         25    2    1    2    0    0 -0.23448187280E+02  0.12988599443E+03  0.14196428558E+02  0.18233698267E+03  0.12500019053E+03 0.  0.
         23    2    1    2    0    0  0.23448187280E+02 -0.12988599443E+03 -0.24893496459E+02  0.16124054513E+03  0.89211199929E+02 0.  0.
          5    1    3    3  502    0 -0.60706361430E+02  0.67383634625E+02 -0.31684939341E+02  0.96186495489E+02  0.47000000000E+01 0.  1.
         -5    1    3    3    0  502  0.37258174150E+02  0.62502359802E+02  0.45881367899E+02  0.86150487184E+02  0.47000000000E+01 0.  1.
          5    1    4    4  503    0 -0.23669992663E+02 -0.35904624127E+01 -0.27080940814E+01  0.24547581278E+02  0.47000000000E+01 0. -1.
         -5    1    4    4    0  503  0.47118179944E+02 -0.12629553201E+03 -0.22185402378E+02  0.13669296385E+03  0.47000000000E+01 0.  1.
<mgrwt>
<rscale>  0 0.17588337E+03</rscale>
<asrwt>0</asrwt>
<pdfrwt beam="1">  1        2 0.25606189E-01 0.18178349E+03</pdfrwt>
<pdfrwt beam="2">  1       -2 0.27251892E-01 0.18178349E+03</pdfrwt>
<totfact> 0.25018091E+03</totfact>
</mgrwt>
</event>
<event>
 8    1  0.3217375E-004  0.1261492E+03  0.7546771E-02  0.1248068E+00
          2   -1    0    0  501    0  0.00000000000E+00  0.00000000000E+00  0.12922910483E+03  0.12922910483E+03  0.00000000000E+00 0. -1.
         -2   -1    0    0    0  501 -0.00000000000E+00 -0.00000000000E+00 -0.10245351323E+03  0.10245351323E+03  0.00000000000E+00 0.  1.
         25    2    1    2    0    0  0.16482357290E+02 -0.36277466946E+01  0.49477081445E+02  0.13550497492E+03  0.12501515105E+03 0.  0.
         23    2    1    2    0    0 -0.16482357290E+02  0.36277466946E+01 -0.22701489851E+02  0.96177643136E+02  0.91923624546E+02 0.  0.
          5    1    4    4  502    0 -0.16990513298E+01 -0.33707463112E+02  0.18229741525E+02  0.38645741304E+02  0.47000000000E+01 0. -1.
         -5    1    4    4    0  502 -0.14783305960E+02  0.37335209807E+02 -0.40931231376E+02  0.57531901832E+02  0.47000000000E+01 0.  1.
          5    1    3    3  503    0  0.25967977745E+02 -0.23765169235E+02 -0.33890166929E+02  0.49089230503E+02  0.47000000000E+01 0.  1.
         -5    1    3    3    0  503 -0.94856204548E+01  0.20137422540E+02  0.83367248374E+02  0.86415744419E+02  0.47000000000E+01 0.  1.
<mgrwt>
<rscale>  0 0.11703610E+03</rscale>
<asrwt>0</asrwt>
<pdfrwt beam="1">  1        2 0.19881401E-01 0.12614918E+03</pdfrwt>
<pdfrwt beam="2">  1       -2 0.15762079E-01 0.12614918E+03</pdfrwt>
<totfact> 0.82712877E+03</totfact>
</mgrwt>
</event>
<event>
 8    1  0.3217375E-004  0.1359449E+03  0.7546771E-02  0.1230933E+00
          2   -1    0    0  501    0  0.00000000000E+00  0.00000000000E+00  0.59543820686E+03  0.59543820686E+03  0.00000000000E+00 0. -1.
         -2   -1    0    0    0  501 -0.00000000000E+00 -0.00000000000E+00 -0.25430499046E+02  0.25430499046E+02  0.00000000000E+00 0.  1.
         25    2    1    2    0    0 -0.48470001418E+02  0.22491890348E+02  0.26150049320E+03  0.29472619637E+03  0.12500318683E+03 0.  0.
         23    2    1    2    0    0  0.48470001418E+02 -0.22491890348E+02  0.30850721462E+03  0.32614250953E+03  0.91307222524E+02 0.  0.
          5    1    4    4  502    0  0.19548738211E+01 -0.41319331241E+02  0.22327846640E+03  0.22712655552E+03  0.47000000000E+01 0. -1.
         -5    1    4    4    0  502  0.46515127596E+02  0.18827440893E+02  0.85228748217E+02  0.99015954010E+02  0.47000000000E+01 0.  1.
          5    1    3    3  503    0 -0.15166386858E+01  0.58782809422E+02  0.20248027127E+03  0.21089824354E+03  0.47000000000E+01 0. -1.
         -5    1    3    3    0  503 -0.46953362732E+02 -0.36290919074E+02  0.59020221929E+02  0.83827952830E+02  0.47000000000E+01 0. -1.
<mgrwt>
<rscale>  0 0.12768411E+03</rscale>
<asrwt>0</asrwt>
<pdfrwt beam="1">  1        2 0.91605867E-01 0.13594493E+03</pdfrwt>
<pdfrwt beam="2">  1       -2 0.39123849E-02 0.13594493E+03</pdfrwt>
<totfact> 0.13741882E+04</totfact>
</mgrwt>
</event>
<event>
 8    1  0.3217375E-004  0.1340571E+03  0.7546771E-02  0.1236705E+00
         -2   -1    0    0    0  501 -0.00000000000E+00  0.00000000000E+00  0.32807852441E+02  0.32807852441E+02  0.00000000000E+00 0.  1.
          2   -1    0    0  501    0  0.00000000000E+00 -0.00000000000E+00 -0.59732735710E+03  0.59732735710E+03  0.00000000000E+00 0. -1.
         25    2    1    2    0    0  0.27869409953E+02  0.39625966324E+02 -0.48718607788E+03  0.50529356181E+03  0.12499755159E+03 0.  0.
         23    2    1    2    0    0 -0.27869409953E+02 -0.39625966324E+02 -0.77333426778E+02  0.12484164774E+03  0.85194230402E+02 0.  0.
          5    1    3    3  502    0 -0.19779333467E+02 -0.25715585876E+02 -0.29384995082E+03  0.29567278703E+03  0.47000000000E+01 0. -1.
         -5    1    4    4    0  503 -0.68011847893E+01 -0.64486623793E+02 -0.49150502656E+02  0.81502409008E+02  0.47000000000E+01 0.  1.
          5    1    4    4  503    0 -0.21068225164E+02  0.24860657470E+02 -0.28182924122E+02  0.43339238727E+02  0.47000000000E+01 0. -1.
         -5    1    3    3    0  502  0.47648743420E+02  0.65341552200E+02 -0.19333612706E+03  0.20962077478E+03  0.47000000000E+01 0. -1.
<mgrwt>
<rscale>  0 0.12395939E+03</rscale>
<asrwt>0</asrwt>
<pdfrwt beam="1">  1        2 0.91896511E-01 0.13405711E+03</pdfrwt>
<pdfrwt beam="2">  1       -2 0.50473622E-02 0.13405711E+03</pdfrwt>
<totfact> 0.93522305E+03</totfact>
</mgrwt>
</event>
<event>
 8    1  0.3217375E-004  0.2711124E+03  0.7546771E-02  0.1102710E+00
          2   -1    0    0  501    0  0.00000000000E+00  0.00000000000E+00  0.20347090515E+04  0.20347090515E+04  0.00000000000E+00 0. -1.
         -2   -1    0    0    0  501 -0.00000000000E+00 -0.00000000000E+00 -0.35216104455E+02  0.35216104455E+02  0.00000000000E+00 0.  1.
         25    2    1    2    0    0  0.24057571346E+03 -0.14759987681E-01  0.11954001073E+04  0.12257582675E+04  0.12500095877E+03 0.  0.
         23    2    1    2    0    0 -0.24057571346E+03  0.14759987681E-01  0.80409283975E+03  0.84416688845E+03  0.90419945267E+02 0.  0.
          5    1    4    4  502    0 -0.16010291535E+03 -0.38864123945E+02  0.46039675133E+03  0.48900983862E+03  0.47000000000E+01 0. -1.
         -5    1    3    3    0  503  0.81018751074E+02 -0.36964012025E+02  0.23246008248E+03  0.24897822427E+03  0.47000000000E+01 0. -1.
          5    1    3    3  503    0  0.15955696239E+03  0.36949252037E+02  0.96294002477E+03  0.97678004319E+03  0.47000000000E+01 0. -1.
         -5    1    4    4    0  502 -0.80472798115E+02  0.38878883933E+02  0.34369608841E+03  0.35515704983E+03  0.47000000000E+01 0.  1.
<mgrwt>
<rscale>  0 0.26751498E+03</rscale>
<asrwt>0</asrwt>
<pdfrwt beam="1">  1        2 0.31303207E+00 0.27111236E+03</pdfrwt>
<pdfrwt beam="2">  1       -2 0.54178638E-02 0.27111236E+03</pdfrwt>
<totfact> 0.12333903E+03</totfact>
</mgrwt>
</event>
<event>
 8    1  0.3217375E-004  0.1581004E+03  0.7546771E-02  0.1198642E+00
          2   -1    0    0  501    0  0.00000000000E+00  0.00000000000E+00  0.13220543471E+03  0.13220543471E+03  0.00000000000E+00 0. -1.
         -2   -1    0    0    0  501 -0.00000000000E+00 -0.00000000000E+00 -0.19114470114E+03  0.19114470114E+03  0.00000000000E+00 0.  1.
         25    2    1    2    0    0  0.53406525750E+02 -0.80749027522E+02 -0.96029678789E+02  0.18497953125E+03  0.12499226110E+03 0.  0.
         23    2    1    2    0    0 -0.53406525750E+02  0.80749027522E+02  0.37090412365E+02  0.13837060460E+03  0.91640946574E+02 0.  0.
          5    1    3    3  502    0 -0.27616063954E+02 -0.67734299241E+02 -0.62055015915E+02  0.96039040406E+02  0.47000000000E+01 0.  1.
         -5    1    4    4    0  503 -0.98137467203E+01  0.63679062513E+02 -0.16879333801E+02  0.66770761092E+02  0.47000000000E+01 0.  1.
          5    1    4    4  503    0 -0.43592779030E+02  0.17069965009E+02  0.53969746166E+02  0.71599843507E+02  0.47000000000E+01 0. -1.
         -5    1    3    3    0  502  0.81022589704E+02 -0.13014728282E+02 -0.33974662874E+02  0.88940490847E+02  0.47000000000E+01 0.  1.
<mgrwt>
<rscale>  0 0.15150006E+03</rscale>
<asrwt>0</asrwt>
<pdfrwt beam="1">  1        2 0.20339298E-01 0.15810037E+03</pdfrwt>
<pdfrwt beam="2">  1       -2 0.29406877E-01 0.15810037E+03</pdfrwt>
<totfact> 0.28089918E+03</totfact>
</mgrwt>
</event>
<event>
 8    1  0.3217375E-004  0.1352038E+03  0.7546771E-02  0.1231954E+00
          2   -1    0    0  501    0  0.00000000000E+00  0.00000000000E+00  0.74295939602E+03  0.74295939602E+03  0.00000000000E+00 0. -1.
         -2   -1    0    0    0  501 -0.00000000000E+00 -0.00000000000E+00 -0.20604546676E+02  0.20604546676E+02  0.00000000000E+00 0.  1.
         25    2    1    2    0    0  0.23813741207E+02 -0.45686915508E+02  0.49275421960E+03  0.51096652239E+03  0.12500271016E+03 0.  0.
         23    2    1    2    0    0 -0.23813741207E+02  0.45686915508E+02  0.22960062975E+03  0.25259742031E+03  0.91840182106E+02 0.  0.
          5    1    3    3  502    0  0.48566235860E+02 -0.53170580338E+02  0.47197960943E+03  0.47746479618E+03  0.47000000000E+01 0. -1.
         -5    1    4    4    0  503  0.64771247418E+01  0.66511217379E+02  0.12839991420E+03  0.14482514681E+03  0.47000000000E+01 0.  1.
          5    1    4    4  503    0 -0.30290865949E+02 -0.20824301871E+02  0.10120071555E+03  0.10777227351E+03  0.47000000000E+01 0. -1.
         -5    1    3    3    0  502 -0.24752494653E+02  0.74836648303E+01  0.20774610172E+02  0.33501726203E+02  0.47000000000E+01 0. -1.
<mgrwt>
<rscale>  0 0.12701448E+03</rscale>
<asrwt>0</asrwt>
<pdfrwt beam="1">  1        2 0.11430142E+00 0.13520379E+03</pdfrwt>
<pdfrwt beam="2">  1       -2 0.31699308E-02 0.13520379E+03</pdfrwt>
<totfact> 0.14470241E+04</totfact>
</mgrwt>
</event>
<event>
 8    1  0.3217375E-004  0.1258472E+03  0.7546771E-02  0.1247702E+00
          4   -1    0    0  501    0  0.00000000000E+00  0.00000000000E+00  0.23119470168E+02  0.23119470168E+02  0.00000000000E+00 0.  1.
         -4   -1    0    0    0  501 -0.00000000000E+00 -0.00000000000E+00 -0.75306381609E+03  0.75306381609E+03  0.00000000000E+00 0. -1.
         25    2    1    2    0    0  0.66231115629E-02 -0.14584820209E+02 -0.18949263661E+03  0.22747522782E+03  0.12499921166E+03 0.  0.
         23    2    1    2    0    0 -0.66231115629E-02  0.14584820209E+02 -0.54045170931E+03  0.54870805844E+03  0.93700407037E+02 0.  0.
          5    1    3    3  502    0  0.19737349378E+02 -0.55241559077E+02 -0.39813529673E+02  0.71052093247E+02  0.47000000000E+01 0. -1.
         -5    1    4    4    0  503 -0.24605842046E+02 -0.23161817851E+02 -0.94659522968E+02  0.10062023930E+03  0.47000000000E+01 0.  1.
          5    1    4    4  503    0  0.24599218934E+02  0.37746638060E+02 -0.44579218634E+03  0.44808781913E+03  0.47000000000E+01 0. -1.
         -5    1    3    3    0  502 -0.19730726266E+02  0.40656738868E+02 -0.14967910694E+03  0.15642313457E+03  0.47000000000E+01 0. -1.
<mgrwt>
<rscale>  0 0.11725129E+03</rscale>
<asrwt>0</asrwt>
<pdfrwt beam="1">  1        4 0.35568422E-02 0.12584721E+03</pdfrwt>
<pdfrwt beam="2">  1       -4 0.11585595E+00 0.12584721E+03</pdfrwt>
<totfact> 0.40854409E+02</totfact>
</mgrwt>
</event>
<event>
 8    1  0.3217375E-004  0.1311630E+03  0.7546771E-02  0.1239376E+00
         -1   -1    0    0    0  501 -0.00000000000E+00  0.00000000000E+00  0.34858457536E+02  0.34858457536E+02  0.00000000000E+00 0.  1.
          1   -1    0    0  501    0  0.00000000000E+00 -0.00000000000E+00 -0.45986131923E+03  0.45986131923E+03  0.00000000000E+00 0. -1.
         25    2    1    2    0    0 -0.24175215369E+02  0.31527896476E+02 -0.33907131157E+03  0.36355618184E+03  0.12500117491E+03 0.  0.
         23    2    1    2    0    0  0.24175215369E+02 -0.31527896476E+02 -0.85931550131E+02  0.13116359493E+03  0.90781099540E+02 0.  0.
          5    1    4    4  502    0  0.51273403924E+01 -0.59844028695E+02 -0.72310869605E+02  0.94119866410E+02  0.47000000000E+01 0. -1.
         -5    1    4    4    0  502  0.19047874977E+02  0.28316132219E+02 -0.13620680525E+02  0.37043728524E+02  0.47000000000E+01 0.  1.
          5    1    3    3  503    0 -0.74936548363E+02  0.15883297953E+02 -0.17651755312E+03  0.19247935472E+03  0.47000000000E+01 0.  1.
         -5    1    3    3    0  503  0.50761332994E+02  0.15644598524E+02 -0.16255375845E+03  0.17107682712E+03  0.47000000000E+01 0.  1.
<mgrwt>
<rscale>  0 0.12228428E+03</rscale>
<asrwt>0</asrwt>
<pdfrwt beam="1">  1        1 0.70747893E-01 0.13116304E+03</pdfrwt>
<pdfrwt beam="2">  1       -1 0.53628398E-02 0.13116304E+03</pdfrwt>
<totfact> 0.76225425E+03</totfact>
</mgrwt>
</event>
<event>
 8    1  0.3217375E-004  0.1566497E+03  0.7546771E-02  0.1200369E+00
         -2   -1    0    0    0  501 -0.00000000000E+00  0.00000000000E+00  0.24242143623E+02  0.24242143623E+02  0.00000000000E+00 0.  1.
          2   -1    0    0  501    0  0.00000000000E+00 -0.00000000000E+00 -0.89008219592E+03  0.89008219592E+03  0.00000000000E+00 0. -1.
         25    2    1    2    0    0 -0.86110210295E+02 -0.38713912702E+02 -0.55347590866E+03  0.57521710813E+03  0.12500161864E+03 0.  0.
         23    2    1    2    0    0  0.86110210295E+02  0.38713912702E+02 -0.31236414364E+03  0.33910723141E+03  0.92242185653E+02 0.  0.
          5    1    4    4  502    0  0.52653512364E+02  0.42369302129E+02 -0.29141569551E+03  0.29918681074E+03  0.47000000000E+01 0. -1.
         -5    1    3    3    0  503 -0.89186498246E+02  0.20904853636E+02 -0.26030261997E+03  0.27599055842E+03  0.47000000000E+01 0. -1.
          5    1    3    3  503    0  0.30762879512E+01 -0.59618766337E+02 -0.29317328869E+03  0.29922654971E+03  0.47000000000E+01 0. -1.
         -5    1    4    4    0  502  0.33456697931E+02 -0.36553894271E+01 -0.20948448123E+02  0.39920420678E+02  0.47000000000E+01 0.  1.
<mgrwt>
<rscale>  0 0.15008442E+03</rscale>
<asrwt>0</asrwt>
<pdfrwt beam="1">  1        2 0.13693571E+00 0.15664974E+03</pdfrwt>
<pdfrwt beam="2">  1       -2 0.37295608E-02 0.15664974E+03</pdfrwt>
<totfact> 0.91486829E+03</totfact>
</mgrwt>
</event>
<event>
 8    1  0.3217375E-004  0.1608662E+03  0.7546771E-02  0.1195300E+00
         -1   -1    0    0    0  501 -0.00000000000E+00  0.00000000000E+00  0.96234602205E+02  0.96234602205E+02  0.00000000000E+00 0.  1.
          1   -1    0    0  501    0  0.00000000000E+00 -0.00000000000E+00 -0.26592489101E+03  0.26592489101E+03  0.00000000000E+00 0. -1.
         25    2    1    2    0    0 -0.59532244738E+02 -0.81874975741E+02 -0.15808431168E+03  0.22554067973E+03  0.12502139336E+03 0.  0.
         23    2    1    2    0    0  0.59532244738E+02  0.81874975741E+02 -0.11605977123E+02  0.13661881348E+03  0.91007701196E+02 0.  0.
          5    1    4    4  502    0  0.23667796445E+02  0.84384853769E+02 -0.33864447306E+02  0.94073688806E+02  0.47000000000E+01 0. -1.
         -5    1    4    4    0  502  0.35864448293E+02 -0.25098780284E+01  0.22258470183E+02  0.42545124679E+02  0.47000000000E+01 0.  1.
          5    1    3    3  503    0  0.28644747588E+00  0.31605125587E+02 -0.39255884463E+02  0.50616997940E+02  0.47000000000E+01 0. -1.
         -5    1    3    3    0  503 -0.59818692214E+02 -0.11348010133E+03 -0.11882842722E+03  0.17492368179E+03  0.47000000000E+01 0. -1.
<mgrwt>
<rscale>  0 0.15428835E+03</rscale>
<asrwt>0</asrwt>
<pdfrwt beam="1">  1        1 0.40911521E-01 0.16086624E+03</pdfrwt>
<pdfrwt beam="2">  1       -1 0.14805324E-01 0.16086624E+03</pdfrwt>
<totfact> 0.32660557E+03</totfact>
</mgrwt>
</event>
<event>
 8    1  0.3217375E-004  0.1459167E+03  0.7546771E-02  0.1215345E+00
         -1   -1    0    0    0  501 -0.00000000000E+00  0.00000000000E+00  0.31029276451E+02  0.31029276451E+02  0.00000000000E+00 0.  1.
          1   -1    0    0  501    0  0.00000000000E+00 -0.00000000000E+00 -0.10231137462E+04  0.10231137462E+04  0.00000000000E+00 0. -1.
         25    2    1    2    0    0 -0.39965361636E+02 -0.63831131820E+02 -0.17205192262E+03  0.22559597197E+03  0.12498013832E+03 0.  0.
         23    2    1    2    0    0  0.39965361636E+02  0.63831131820E+02 -0.82003254716E+03  0.82854705070E+03  0.91461430727E+02 0.  0.
          5    1    3    3  502    0 -0.80568994566E+01 -0.33656247383E+02 -0.17767231452E+03  0.18107235561E+03  0.47000000000E+01 0. -1.
         -5    1    4    4    0  503 -0.22470524155E+02  0.32370653759E+02 -0.16181738006E+03  0.16661253905E+03  0.47000000000E+01 0.  1.
          5    1    4    4  503    0  0.62435885791E+02  0.31460478060E+02 -0.65821516710E+03  0.66193451165E+03  0.47000000000E+01 0. -1.
         -5    1    3    3    0  502 -0.31908462179E+02 -0.30174884437E+02  0.56203919039E+01  0.44523616369E+02  0.47000000000E+01 0. -1.
<mgrwt>
<rscale>  0 0.13851199E+03</rscale>
<asrwt>0</asrwt>
<pdfrwt beam="1">  1        1 0.15740209E+00 0.14591668E+03</pdfrwt>
<pdfrwt beam="2">  1       -1 0.47737356E-02 0.14591668E+03</pdfrwt>
<totfact> 0.28636610E+03</totfact>
</mgrwt>
</event>
<event>
 8    1  0.3217375E-004  0.1634727E+03  0.7546771E-02  0.1192103E+00
          3   -1    0    0  501    0  0.00000000000E+00  0.00000000000E+00  0.59520941948E+02  0.59520941948E+02  0.00000000000E+00 0. -1.
         -3   -1    0    0    0  501 -0.00000000000E+00 -0.00000000000E+00 -0.45783595947E+03  0.45783595947E+03  0.00000000000E+00 0.  1.
         25    2    1    2    0    0 -0.44948506215E+02  0.95279970661E+02 -0.31574731681E+03  0.35555547778E+03  0.12499875472E+03 0.  0.
         23    2    1    2    0    0  0.44948506215E+02 -0.95279970661E+02 -0.82567700711E+02  0.16180142364E+03  0.90904534936E+02 0.  0.
          5    1    4    4  502    0  0.65815943403E+02 -0.68530819586E+02 -0.31308081571E+02  0.10015237197E+03  0.47000000000E+01 0. -1.
         -5    1    4    4    0  502 -0.20867437188E+02 -0.26749151075E+02 -0.51259619140E+02  0.61649051674E+02  0.47000000000E+01 0.  1.
          5    1    3    3  503    0 -0.79712532177E+02  0.62074253959E+02 -0.27270757872E+03  0.29085875315E+03  0.47000000000E+01 0. -1.
         -5    1    3    3    0  503  0.34764025961E+02  0.33205716702E+02 -0.43039738092E+02  0.64696724630E+02  0.47000000000E+01 0. -1.
<mgrwt>
<rscale>  0 0.15701947E+03</rscale>
<asrwt>0</asrwt>
<pdfrwt beam="1">  1        3 0.91570683E-02 0.16347272E+03</pdfrwt>
<pdfrwt beam="2">  1       -3 0.70436299E-01 0.16347272E+03</pdfrwt>
<totfact> 0.39947482E+02</totfact>
</mgrwt>
</event>
<event>
 8    1  0.3217375E-004  0.1653100E+03  0.7546771E-02  0.1191848E+00
          1   -1    0    0  501    0  0.00000000000E+00  0.00000000000E+00  0.68377521577E+03  0.68377521577E+03  0.00000000000E+00 0. -1.
         -1   -1    0    0    0  501 -0.00000000000E+00 -0.00000000000E+00 -0.40551717214E+02  0.40551717214E+02  0.00000000000E+00 0.  1.
         25    2    1    2    0    0 -0.85810374891E+02 -0.65868893320E+02  0.19255301157E+03  0.25377951603E+03  0.12500099578E+03 0.  0.
         23    2    1    2    0    0  0.85810374891E+02  0.65868893320E+02  0.45067048698E+03  0.47054741695E+03  0.81294847416E+02 0.  0.
          5    1    3    3  502    0  0.14798052112E+00 -0.77666505242E+02  0.10187913630E+03  0.12819343332E+03  0.47000000000E+01 0. -1.
         -5    1    3    3    0  502 -0.85958355412E+02  0.11797611922E+02  0.90673875272E+02  0.12558608270E+03  0.47000000000E+01 0. -1.
          5    1    4    4  503    0 -0.15035639828E+01  0.43784170401E+02  0.17690156925E+03  0.18230625191E+03  0.47000000000E+01 0. -1.
         -5    1    4    4    0  503  0.87313938874E+02  0.22084722919E+02  0.27376891774E+03  0.28824116505E+03  0.47000000000E+01 0.  1.
<mgrwt>
<rscale>  0 0.15724006E+03</rscale>
<asrwt>0</asrwt>
<pdfrwt beam="1">  1        1 0.10519618E+00 0.16530995E+03</pdfrwt>
<pdfrwt beam="2">  1       -1 0.62387262E-02 0.16530995E+03</pdfrwt>
<totfact> 0.36079866E+03</totfact>
</mgrwt>
</event>
<event>
 8    1  0.3217375E-004  0.1326063E+03  0.7546771E-02  0.1236629E+00
          4   -1    0    0  501    0  0.00000000000E+00  0.00000000000E+00  0.91516470790E+02  0.91516470790E+02  0.00000000000E+00 0. -1.
         -4   -1    0    0    0  501 -0.00000000000E+00 -0.00000000000E+00 -0.15974592247E+03  0.15974592247E+03  0.00000000000E+00 0.  1.
         25    2    1    2    0    0 -0.10271187897E+02 -0.43061078269E+02 -0.69859550653E+01  0.13279014263E+03  0.12499865859E+03 0.  0.
         23    2    1    2    0    0  0.10271187897E+02  0.43061078269E+02 -0.61243496613E+02  0.11847225063E+03  0.91242284763E+02 0.  0.
          5    1    3    3  502    0 -0.32435527537E+02 -0.71440332226E+02  0.26945886333E+02  0.83090043359E+02  0.47000000000E+01 0.  1.
         -5    1    3    3    0  502  0.22164339640E+02  0.28379253957E+02 -0.33931841398E+02  0.49700099270E+02  0.47000000000E+01 0.  1.
          5    1    4    4  503    0 -0.23785458162E+02  0.51956557495E+02 -0.13383473087E+02  0.58876474407E+02  0.47000000000E+01 0. -1.
         -5    1    4    4    0  503  0.34056646059E+02 -0.88954792256E+01 -0.47860023526E+02  0.59595776221E+02  0.47000000000E+01 0.  1.
<mgrwt>
<rscale>  0 0.12400753E+03</rscale>
<asrwt>0</asrwt>
<pdfrwt beam="1">  1        4 0.14079457E-01 0.13260625E+03</pdfrwt>
<pdfrwt beam="2">  1       -4 0.24576296E-01 0.13260625E+03</pdfrwt>
<totfact> 0.10695637E+03</totfact>
</mgrwt>
</event>
<event>
 8    1  0.3217375E-004  0.2063548E+03  0.7546771E-02  0.1148438E+00
         -2   -1    0    0    0  501 -0.00000000000E+00  0.00000000000E+00  0.33712426073E+02  0.33712426073E+02  0.00000000000E+00 0.  1.
          2   -1    0    0  501    0  0.00000000000E+00 -0.00000000000E+00 -0.11666435973E+04  0.11666435973E+04  0.00000000000E+00 0. -1.
         25    2    1    2    0    0  0.75735919838E+02  0.14568111205E+03 -0.65982886863E+03  0.69134394430E+03  0.12499358978E+03 0.  0.
         23    2    1    2    0    0 -0.75735919838E+02 -0.14568111205E+03 -0.47310230263E+03  0.50901207910E+03  0.91151478078E+02 0.  0.
          5    1    3    3  502    0  0.49851665811E+01  0.23925524697E+02 -0.10683244600E+02  0.27083285123E+02  0.47000000000E+01 0.  1.
         -5    1    3    3    0  502  0.70750753256E+02  0.12175558735E+03 -0.64914562403E+03  0.66426065918E+03  0.47000000000E+01 0.  1.
          5    1    4    4  503    0 -0.88223904962E+02 -0.10190343001E+03 -0.40578306890E+03  0.42760934913E+03  0.47000000000E+01 0. -1.
         -5    1    4    4    0  503  0.12487985124E+02 -0.43777682043E+02 -0.67319233730E+02  0.81402729975E+02  0.47000000000E+01 0.  1.
<mgrwt>
<rscale>  0 0.20155001E+03</rscale>
<asrwt>0</asrwt>
<pdfrwt beam="1">  1        2 0.17948359E+00 0.20635482E+03</pdfrwt>
<pdfrwt beam="2">  1       -2 0.51865283E-02 0.20635482E+03</pdfrwt>
<totfact> 0.38429918E+03</totfact>
</mgrwt>
</event>
<event>
 8    1  0.3217375E-004  0.1358061E+03  0.7546771E-02  0.1232951E+00
          2   -1    0    0  501    0  0.00000000000E+00  0.00000000000E+00  0.28354328284E+03  0.28354328284E+03  0.00000000000E+00 0. -1.
         -2   -1    0    0    0  501 -0.00000000000E+00 -0.00000000000E+00 -0.49978962823E+02  0.49978962823E+02  0.00000000000E+00 0.  1.
         25    2    1    2    0    0 -0.42315211989E+02  0.32043864290E+02  0.12297576813E+03  0.18321120126E+03  0.12500367321E+03 0.  0.
         23    2    1    2    0    0  0.42315211989E+02 -0.32043864290E+02  0.11058855189E+03  0.15031104440E+03  0.86868842843E+02 0.  0.
          5    1    4    4  502    0  0.27757101331E+02  0.67228119706E+01  0.10420382038E+03  0.10814887450E+03  0.47000000000E+01 0. -1.
         -5    1    3    3    0  503  0.82746546009E+01 -0.38710769008E+02  0.71961821878E+02  0.82265347224E+02  0.47000000000E+01 0.  1.
          5    1    3    3  503    0 -0.50589866590E+02  0.70754633297E+02  0.51013946252E+02  0.10094585403E+03  0.47000000000E+01 0.  1.
         -5    1    4    4    0  502  0.14558110659E+02 -0.38766676260E+02  0.63847315090E+01  0.42162169900E+02  0.47000000000E+01 0.  1.
<mgrwt>
<rscale>  0 0.12636543E+03</rscale>
<asrwt>0</asrwt>
<pdfrwt beam="1">  1        2 0.43622042E-01 0.13580613E+03</pdfrwt>
<pdfrwt beam="2">  1       -2 0.76890714E-02 0.13580613E+03</pdfrwt>
<totfact> 0.11044062E+04</totfact>
</mgrwt>
</event>
<event>
 8    1  0.3217375E-004  0.1270281E+03  0.7546771E-02  0.1246715E+00
         -2   -1    0    0    0  501 -0.00000000000E+00  0.00000000000E+00  0.29671162278E+02  0.29671162278E+02  0.00000000000E+00 0.  1.
          2   -1    0    0  501    0  0.00000000000E+00 -0.00000000000E+00 -0.47613496771E+03  0.47613496771E+03  0.00000000000E+00 0. -1.
         25    2    1    2    0    0 -0.18245682173E+02  0.13362933494E+02 -0.34408037778E+03  0.36677981444E+03  0.12499861198E+03 0.  0.
         23    2    1    2    0    0  0.18245682173E+02 -0.13362933494E+02 -0.10238342765E+03  0.13902631555E+03  0.91293358182E+02 0.  0.
          5    1    4    4  502    0  0.42054311703E+02 -0.45976490385E+01 -0.10479667491E+03  0.11311116913E+03  0.47000000000E+01 0. -1.
         -5    1    4    4    0  502 -0.23808629530E+02 -0.87652844558E+01  0.24132472576E+01  0.25915146421E+02  0.47000000000E+01 0.  1.
          5    1    3    3  503    0  0.15342581997E+02  0.29037232068E+02 -0.16458039892E+02  0.37033940454E+02  0.47000000000E+01 0. -1.
         -5    1    3    3    0  503 -0.33588264170E+02 -0.15674298574E+02 -0.32762233789E+03  0.32974587399E+03  0.47000000000E+01 0. -1.
<mgrwt>
<rscale>  0 0.11783323E+03</rscale>
<asrwt>0</asrwt>
<pdfrwt beam="1">  1        2 0.73251535E-01 0.12702805E+03</pdfrwt>
<pdfrwt beam="2">  1       -2 0.45647941E-02 0.12702805E+03</pdfrwt>
<totfact> 0.13925394E+04</totfact>
</mgrwt>
</event>
<event>
 8    1  0.3217375E-004  0.1855782E+03  0.7546771E-02  0.1167300E+00
          2   -1    0    0  501    0  0.00000000000E+00  0.00000000000E+00  0.38880817037E+03  0.38880817037E+03  0.00000000000E+00 0. -1.
         -2   -1    0    0    0  501 -0.00000000000E+00 -0.00000000000E+00 -0.13455928951E+03  0.13455928951E+03  0.00000000000E+00 0.  1.
         25    2    1    2    0    0  0.12310202433E+03 -0.60487796530E+02 -0.35890750070E+02  0.18901698456E+03  0.12500557022E+03 0.  0.
         23    2    1    2    0    0 -0.12310202433E+03  0.60487796530E+02  0.29013963092E+03  0.33435047532E+03  0.93788874569E+02 0.  0.
          5    1    3    3  502    0  0.47681814456E+02  0.17460974690E+02 -0.59037052762E+02  0.78012208441E+02  0.47000000000E+01 0. -1.
         -5    1    4    4    0  503  0.20230173028E+01  0.35511890751E+02  0.41613735075E+02  0.54945244841E+02  0.47000000000E+01 0.  1.
          5    1    4    4  503    0 -0.12512504164E+03  0.24975905778E+02  0.24852589585E+03  0.27940523048E+03  0.47000000000E+01 0. -1.
         -5    1    3    3    0  502  0.75420209878E+02 -0.77948771220E+02  0.23146302692E+02  0.11100477612E+03  0.47000000000E+01 0. -1.
<mgrwt>
<rscale>  0 0.18052071E+03</rscale>
<asrwt>0</asrwt>
<pdfrwt beam="1">  1        2 0.59816641E-01 0.18557822E+03</pdfrwt>
<pdfrwt beam="2">  1       -2 0.20701429E-01 0.18557822E+03</pdfrwt>
<totfact> 0.16167035E+03</totfact>
</mgrwt>
</event>
<event>
 8    1  0.3217375E-004  0.1406438E+03  0.7546771E-02  0.1225096E+00
         -2   -1    0    0    0  501 -0.00000000000E+00  0.00000000000E+00  0.11462495985E+02  0.11462495985E+02  0.00000000000E+00 0.  1.
          2   -1    0    0  501    0  0.00000000000E+00 -0.00000000000E+00 -0.13614768414E+04  0.13614768414E+04  0.00000000000E+00 0. -1.
         25    2    1    2    0    0 -0.41618962729E+02 -0.49232049958E+02 -0.69171482862E+03  0.70586832780E+03  0.12499903702E+03 0.  0.
         23    2    1    2    0    0  0.41618962729E+02  0.49232049958E+02 -0.65829951678E+03  0.66707100957E+03  0.86426530739E+02 0.  0.
          5    1    4    4  502    0 -0.85533823734E+01  0.53200301875E+02 -0.42006790631E+03  0.42353579351E+03  0.47000000000E+01 0. -1.
         -5    1    3    3    0  503  0.41979446755E+02 -0.28651830328E+02 -0.18696712926E+03  0.19380918130E+03  0.47000000000E+01 0. -1.
          5    1    3    3  503    0 -0.83598409485E+02 -0.20580219629E+02 -0.50474769936E+03  0.51205914651E+03  0.47000000000E+01 0. -1.
         -5    1    4    4    0  502  0.50172345103E+02 -0.39682519176E+01 -0.23823161047E+03  0.24353521606E+03  0.47000000000E+01 0.  1.
<mgrwt>
<rscale>  0 0.13160334E+03</rscale>
<asrwt>0</asrwt>
<pdfrwt beam="1">  1        2 0.20945784E+00 0.14064385E+03</pdfrwt>
<pdfrwt beam="2">  1       -2 0.17634620E-02 0.14064385E+03</pdfrwt>
<totfact> 0.14620075E+04</totfact>
</mgrwt>
</event>
<event>
 8    1  0.3217375E-004  0.1280354E+03  0.7546771E-02  0.1244816E+00
         -1   -1    0    0    0  501 -0.00000000000E+00  0.00000000000E+00  0.58887065802E+02  0.58887065802E+02  0.00000000000E+00 0.  1.
          1   -1    0    0  501    0  0.00000000000E+00 -0.00000000000E+00 -0.35750237581E+03  0.35750237581E+03  0.00000000000E+00 0. -1.
         25    2    1    2    0    0 -0.13059734435E+02 -0.24451599588E+02 -0.29420779126E+03  0.32086024580E+03  0.12499854204E+03 0.  0.
         23    2    1    2    0    0  0.13059734435E+02  0.24451599588E+02 -0.44075187521E+01  0.95529195817E+02  0.91312450662E+02 0.  0.
          5    1    4    4  502    0  0.36426968967E+02 -0.16646365368E+02 -0.20669115798E+02  0.45313661251E+02  0.47000000000E+01 0. -1.
         -5    1    3    3    0  503 -0.24763160644E+02 -0.67328030825E+02 -0.24036211177E+03  0.25088306566E+03  0.47000000000E+01 0. -1.
          5    1    3    3  503    0  0.11703426209E+02  0.42876431237E+02 -0.53845679485E+02  0.69977180136E+02  0.47000000000E+01 0. -1.
         -5    1    4    4    0  502 -0.23367234533E+02  0.41097964956E+02  0.16261597046E+02  0.50215534565E+02  0.47000000000E+01 0.  1.
<mgrwt>
<rscale>  0 0.11896412E+03</rscale>
<asrwt>0</asrwt>
<pdfrwt beam="1">  1        1 0.55000364E-01 0.12803544E+03</pdfrwt>
<pdfrwt beam="2">  1       -1 0.90595488E-02 0.12803544E+03</pdfrwt>
<totfact> 0.47688826E+03</totfact>
</mgrwt>
</event>
<event>
 8    1  0.3217375E-004  0.1438937E+03  0.7546771E-02  0.1219627E+00
         -2   -1    0    0    0  501 -0.00000000000E+00  0.00000000000E+00  0.65609308279E+02  0.65609308279E+02  0.00000000000E+00 0.  1.
          2   -1    0    0  501    0  0.00000000000E+00 -0.00000000000E+00 -0.26212869871E+03  0.26212869871E+03  0.00000000000E+00 0. -1.
         25    2    1    2    0    0 -0.54980622497E+02  0.45333947003E+02 -0.14280953830E+03  0.20273127916E+03  0.12500948652E+03 0.  0.
         23    2    1    2    0    0  0.54980622497E+02 -0.45333947003E+02 -0.53709852137E+02  0.12500672783E+03  0.87543693011E+02 0.  0.
          5    1    4    4  502    0  0.58749544520E+02 -0.14506919594E+02 -0.67435849659E+02  0.90728405236E+02  0.47000000000E+01 0. -1.
         -5    1    4    4    0  502 -0.37689220231E+01 -0.30827027409E+02  0.13725997522E+02  0.34278322597E+02  0.47000000000E+01 0.  1.
          5    1    3    3  503    0  0.18515961450E+02  0.57556620221E+02 -0.30522198414E+02  0.67891825397E+02  0.47000000000E+01 0. -1.
         -5    1    3    3    0  503 -0.73496583947E+02 -0.12222673218E+02 -0.11228733988E+03  0.13483945376E+03  0.47000000000E+01 0. -1.
<mgrwt>
<rscale>  0 0.13542094E+03</rscale>
<asrwt>0</asrwt>
<pdfrwt beam="1">  1        2 0.40327491E-01 0.14389374E+03</pdfrwt>
<pdfrwt beam="2">  1       -2 0.10093740E-01 0.14389374E+03</pdfrwt>
<totfact> 0.78917999E+03</totfact>
</mgrwt>
</event>
<event>
 8    1  0.3217375E-004  0.1606284E+03  0.7546771E-02  0.1195390E+00
         -2   -1    0    0    0  501 -0.00000000000E+00  0.00000000000E+00  0.49509533879E+02  0.49509533879E+02  0.00000000000E+00 0.  1.
          2   -1    0    0  501    0  0.00000000000E+00 -0.00000000000E+00 -0.47752217236E+03  0.47752217236E+03  0.00000000000E+00 0. -1.
         25    2    1    2    0    0  0.19866494990E+02  0.98903526203E+02 -0.29808798806E+03  0.33861177540E+03  0.12499960278E+03 0.  0.
         23    2    1    2    0    0 -0.19866494990E+02 -0.98903526203E+02 -0.12992465042E+03  0.18841993084E+03  0.91897064324E+02 0.  0.
          5    1    4    4  502    0  0.25011245297E+02 -0.68305165271E+02 -0.39698948271E+02  0.83001533045E+02  0.47000000000E+01 0. -1.
         -5    1    4    4    0  502 -0.44877740287E+02 -0.30598360932E+02 -0.90225702147E+02  0.10541839779E+03  0.47000000000E+01 0.  1.
          5    1    3    3  503    0  0.42262499375E+02 -0.14127557857E+02 -0.95756587125E+02  0.10572190276E+03  0.47000000000E+01 0. -1.
         -5    1    3    3    0  503 -0.22396004385E+02  0.11303108406E+03 -0.20233140094E+03  0.23288987265E+03  0.47000000000E+01 0. -1.
<mgrwt>
<rscale>  0 0.15421231E+03</rscale>
<asrwt>0</asrwt>
<pdfrwt beam="1">  1        2 0.73464946E-01 0.16062841E+03</pdfrwt>
<pdfrwt beam="2">  1       -2 0.76168518E-02 0.16062841E+03</pdfrwt>
<totfact> 0.64845757E+03</totfact>
</mgrwt>
</event>
<event>
 8    1  0.3217375E-004  0.1508374E+03  0.7546771E-02  0.1208402E+00
         -2   -1    0    0    0  501 -0.00000000000E+00  0.00000000000E+00  0.18877344286E+02  0.18877344286E+02  0.00000000000E+00 0.  1.
          2   -1    0    0  501    0  0.00000000000E+00 -0.00000000000E+00 -0.10519913353E+04  0.10519913353E+04  0.00000000000E+00 0. -1.
         25    2    1    2    0    0  0.84031634376E+02 -0.81689565546E+01 -0.44872333336E+03  0.47339681678E+03  0.12499547515E+03 0.  0.
         23    2    1    2    0    0 -0.84031634376E+02  0.81689565546E+01 -0.58439065765E+03  0.59747186281E+03  0.91280549226E+02 0.  0.
          5    1    4    4  502    0 -0.35507836821E+02  0.43656344555E+02 -0.38634131811E+03  0.39044639449E+03  0.47000000000E+01 0. -1.
         -5    1    3    3    0  503 -0.17799303279E+02  0.33497656732E+02 -0.15681366226E+03  0.16140484155E+03  0.47000000000E+01 0.  1.
          5    1    3    3  503    0  0.10183093766E+03 -0.41666613286E+02 -0.29190967110E+03  0.31199197523E+03  0.47000000000E+01 0.  1.
         -5    1    4    4    0  502 -0.48523797555E+02 -0.35487388001E+02 -0.19804933955E+03  0.20702546832E+03  0.47000000000E+01 0.  1.
<mgrwt>
<rscale>  0 0.14372542E+03</rscale>
<asrwt>0</asrwt>
<pdfrwt beam="1">  1        2 0.16184481E+00 0.15083738E+03</pdfrwt>
<pdfrwt beam="2">  1       -2 0.29042070E-02 0.15083738E+03</pdfrwt>
<totfact> 0.10528837E+04</totfact>
</mgrwt>
</event>
<event>
 8    1  0.3217375E-004  0.1304779E+03  0.7546771E-02  0.1239650E+00
         -2   -1    0    0    0  501 -0.00000000000E+00  0.00000000000E+00  0.29991426306E+02  0.29991426306E+02  0.00000000000E+00 0.  1.
          2   -1    0    0  501    0  0.00000000000E+00 -0.00000000000E+00 -0.64592017983E+03  0.64592017983E+03  0.00000000000E+00 0. -1.
         25    2    1    2    0    0 -0.31699120203E+02 -0.19816413271E+02 -0.52400485207E+03  0.54000515706E+03  0.12500784052E+03 0.  0.
         23    2    1    2    0    0  0.31699120203E+02  0.19816413271E+02 -0.91923901452E+02  0.13590644908E+03  0.92860297155E+02 0.  0.
          5    1    3    3  502    0 -0.34209693683E+02 -0.66435533866E+02 -0.40898859395E+03  0.41578569394E+03  0.47000000000E+01 0. -1.
         -5    1    4    4    0  503  0.15080109726E+01  0.20083917576E+02  0.14450894743E+02  0.25230065421E+02  0.47000000000E+01 0.  1.
          5    1    4    4  503    0  0.30191109231E+02 -0.26750430517E+00 -0.10637479619E+03  0.11067638366E+03  0.47000000000E+01 0. -1.
         -5    1    3    3    0  502  0.25105734793E+01  0.46619120596E+02 -0.11501625813E+03  0.12421946312E+03  0.47000000000E+01 0. -1.
<mgrwt>
<rscale>  0 0.12211366E+03</rscale>
<asrwt>0</asrwt>
<pdfrwt beam="1">  1        2 0.99372339E-01 0.13047791E+03</pdfrwt>
<pdfrwt beam="2">  1       -2 0.46140654E-02 0.13047791E+03</pdfrwt>
<totfact> 0.97631809E+03</totfact>
</mgrwt>
</event>
<event>
 8    1  0.3217375E-004  0.1694982E+03  0.7546771E-02  0.1185293E+00
         -2   -1    0    0    0  501 -0.00000000000E+00  0.00000000000E+00  0.27506692214E+02  0.27506692214E+02  0.00000000000E+00 0.  1.
          2   -1    0    0  501    0  0.00000000000E+00 -0.00000000000E+00 -0.13145987313E+04  0.13145987313E+04  0.00000000000E+00 0. -1.
         25    2    1    2    0    0  0.11251050595E+03  0.21104403879E+02 -0.10538020185E+04  0.10673463934E+04  0.12500247738E+03 0.  0.
         23    2    1    2    0    0 -0.11251050595E+03 -0.21104403879E+02 -0.23329002053E+03  0.27475903013E+03  0.89242821253E+02 0.  0.
          5    1    4    4  502    0 -0.38157141003E+02 -0.57767442501E+01 -0.17407832559E+03  0.17836673352E+03  0.47000000000E+01 0. -1.
         -5    1    4    4    0  502 -0.74353364950E+02 -0.15327659629E+02 -0.59211694940E+02  0.96392296616E+02  0.47000000000E+01 0.  1.
          5    1    3    3  503    0  0.64313254886E+02  0.72472802584E+02 -0.52950119588E+03  0.53831413534E+03  0.47000000000E+01 0.  1.
         -5    1    3    3    0  503  0.48197251067E+02 -0.51368398704E+02 -0.52430082266E+03  0.52903225803E+03  0.47000000000E+01 0.  1.
<mgrwt>
<rscale>  0 0.16305248E+03</rscale>
<asrwt>0</asrwt>
<pdfrwt beam="1">  1        2 0.20224594E+00 0.16949817E+03</pdfrwt>
<pdfrwt beam="2">  1       -2 0.42317992E-02 0.16949817E+03</pdfrwt>
<totfact> 0.43057526E+03</totfact>
</mgrwt>
</event>
<event>
 8    1  0.3217375E-004  0.1301461E+03  0.7546771E-02  0.1245116E+00
         -2   -1    0    0    0  501 -0.00000000000E+00  0.00000000000E+00  0.26154101266E+03  0.26154101266E+03  0.00000000000E+00 0.  1.
          2   -1    0    0  501    0  0.00000000000E+00 -0.00000000000E+00 -0.46470040119E+02  0.46470040119E+02  0.00000000000E+00 0. -1.
         25    2    1    2    0    0  0.26155419499E+02  0.25202475772E+02  0.12443898694E+03  0.18006404920E+03  0.12497491585E+03 0.  0.
         23    2    1    2    0    0 -0.26155419499E+02 -0.25202475772E+02  0.90631985598E+02  0.12794700357E+03  0.82686202932E+02 0.  0.
          5    1    3    3  502    0  0.57660474486E+02  0.18530309812E+02  0.10600635895E+02  0.61664950994E+02  0.47000000000E+01 0.  1.
         -5    1    4    4    0  503 -0.55068117891E+02 -0.22267247152E+02  0.70374512146E+02  0.92211657959E+02  0.47000000000E+01 0.  1.
          5    1    4    4  503    0  0.28912698392E+02 -0.29352286200E+01  0.20257473452E+02  0.35735345612E+02  0.47000000000E+01 0. -1.
         -5    1    3    3    0  502 -0.31505054987E+02  0.66721659596E+01  0.11383835104E+03  0.11839909821E+03  0.47000000000E+01 0.  1.
<mgrwt>
<rscale>  0 0.11878451E+03</rscale>
<asrwt>0</asrwt>
<pdfrwt beam="1">  1        2 0.71492371E-02 0.13014607E+03</pdfrwt>
<pdfrwt beam="2">  1       -2 0.40237078E-01 0.13014607E+03</pdfrwt>
<totfact> 0.54718087E+03</totfact>
</mgrwt>
</event>
<event>
 8    1  0.3217375E-004  0.1369206E+03  0.7546771E-02  0.1229596E+00
         -1   -1    0    0    0  501 -0.00000000000E+00  0.00000000000E+00  0.32814239544E+02  0.32814239544E+02  0.00000000000E+00 0.  1.
          1   -1    0    0  501    0  0.00000000000E+00 -0.00000000000E+00 -0.49313776049E+03  0.49313776049E+03  0.00000000000E+00 0. -1.
         25    2    1    2    0    0 -0.55715296033E+02 -0.41770922711E+01 -0.18042569250E+03  0.22649650907E+03  0.12500238315E+03 0.  0.
         23    2    1    2    0    0  0.55715296033E+02  0.41770922711E+01 -0.27989782844E+03  0.29945549096E+03  0.90604383947E+02 0.  0.
          5    1    3    3  502    0 -0.71841469184E+02 -0.32156666531E+02 -0.53118820656E+02  0.95073376950E+02  0.47000000000E+01 0.  1.
         -5    1    4    4    0  503 -0.17656501196E+02 -0.14980574444E+02 -0.29562037159E+02  0.37844070687E+02  0.47000000000E+01 0.  1.
          5    1    4    4  503    0  0.73371797229E+02  0.19157666715E+02 -0.25033579128E+03  0.26161142028E+03  0.47000000000E+01 0. -1.
         -5    1    3    3    0  502  0.16126173151E+02  0.27979574260E+02 -0.12730687185E+03  0.13142313212E+03  0.47000000000E+01 0.  1.
<mgrwt>
<rscale>  0 0.12856834E+03</rscale>
<asrwt>0</asrwt>
<pdfrwt beam="1">  1        1 0.75867342E-01 0.13692055E+03</pdfrwt>
<pdfrwt beam="2">  1       -1 0.50483449E-02 0.13692055E+03</pdfrwt>
<totfact> 0.76375456E+03</totfact>
</mgrwt>
</event>
<event>
 8    1  0.3217375E-004  0.1299956E+03  0.7546771E-02  0.1239668E+00
         -2   -1    0    0    0  501 -0.00000000000E+00  0.00000000000E+00  0.12566482103E+03  0.12566482103E+03  0.00000000000E+00 0. -1.
          2   -1    0    0  501    0  0.00000000000E+00 -0.00000000000E+00 -0.16182586091E+03  0.16182586091E+03  0.00000000000E+00 0.  1.
         25    2    1    2    0    0  0.18834262620E+01  0.35642235646E+02 -0.10331374052E+03  0.16604996678E+03  0.12499978492E+03 0.  0.
         23    2    1    2    0    0 -0.18834262620E+01 -0.35642235646E+02  0.67152700639E+02  0.12144071517E+03  0.94680757499E+02 0.  0.
          5    1    3    3  502    0  0.15449810311E+02 -0.38240730723E+02 -0.74835423356E+02  0.85577337618E+02  0.47000000000E+01 0. -1.
         -5    1    3    3    0  502 -0.13566384049E+02  0.73882966369E+02 -0.28478317165E+02  0.80472629161E+02  0.47000000000E+01 0. -1.
          5    1    4    4  503    0  0.37290392046E+02 -0.39696721279E+02  0.59944463570E+02  0.81128489028E+02  0.47000000000E+01 0. -1.
         -5    1    4    4    0  503 -0.39173818308E+02  0.40544856330E+01  0.72082370683E+01  0.40312226138E+02  0.47000000000E+01 0.  1.
<mgrwt>
<rscale>  0 0.12210273E+03</rscale>
<asrwt>0</asrwt>
<pdfrwt beam="1">  1        2 0.24896286E-01 0.12999562E+03</pdfrwt>
<pdfrwt beam="2">  1       -2 0.19333049E-01 0.12999562E+03</pdfrwt>
<totfact> 0.45949341E+03</totfact>
</mgrwt>
</event>
<event>
 8    1  0.3217375E-004  0.1471212E+03  0.7546771E-02  0.1211952E+00
          2   -1    0    0  501    0  0.00000000000E+00  0.00000000000E+00  0.12714471335E+04  0.12714471335E+04  0.00000000000E+00 0. -1.
         -2   -1    0    0    0  501 -0.00000000000E+00 -0.00000000000E+00 -0.15890631335E+02  0.15890631335E+02  0.00000000000E+00 0.  1.
         25    2    1    2    0    0 -0.66132554273E+02 -0.40584167795E+02  0.86739051647E+03  0.87977891652E+03  0.12499617789E+03 0.  0.
         23    2    1    2    0    0  0.66132554273E+02  0.40584167795E+02  0.38816598573E+03  0.40755884835E+03  0.97009241709E+02 0.  0.
          5    1    3    3  502    0  0.25409578482E+02  0.20791135909E+02  0.29472743708E+03  0.29658771077E+03  0.47000000000E+01 0.  1.
         -5    1    4    4    0  503  0.37694716319E+02  0.59715366866E+02  0.13877653255E+03  0.15578136174E+03  0.47000000000E+01 0.  1.
          5    1    4    4  503    0  0.28437837954E+02 -0.19131199071E+02  0.24938945318E+03  0.25177748661E+03  0.47000000000E+01 0. -1.
         -5    1    3    3    0  502 -0.91542132756E+02 -0.61375303704E+02  0.57266307938E+03  0.58319120575E+03  0.47000000000E+01 0.  1.
<mgrwt>
<rscale>  0 0.14102852E+03</rscale>
<asrwt>0</asrwt>
<pdfrwt beam="1">  1        2 0.19560717E+00 0.14712115E+03</pdfrwt>
<pdfrwt beam="2">  1       -2 0.24447135E-02 0.14712115E+03</pdfrwt>
<totfact> 0.10184809E+04</totfact>
</mgrwt>
</event>
<event>
 8    1  0.3217375E-004  0.1601651E+03  0.7546771E-02  0.1195863E+00
         -1   -1    0    0    0  501 -0.00000000000E+00  0.00000000000E+00  0.24580853887E+02  0.24580853887E+02  0.00000000000E+00 0.  1.
          1   -1    0    0  501    0  0.00000000000E+00 -0.00000000000E+00 -0.89923061534E+03  0.89923061534E+03  0.00000000000E+00 0. -1.
         25    2    1    2    0    0  0.96713290985E+02  0.26004269614E+02 -0.43564662809E+03  0.46415606752E+03  0.12499275085E+03 0.  0.
         23    2    1    2    0    0 -0.96713290985E+02 -0.26004269614E+02 -0.43900313336E+03  0.45965540170E+03  0.92356128752E+02 0.  0.
          5    1    4    4  502    0 -0.72927417357E+02  0.25003561524E+02 -0.20886545794E+03  0.22268914615E+03  0.47000000000E+01 0. -1.
         -5    1    4    4    0  502 -0.23785873628E+02 -0.51007831138E+02 -0.23013767542E+03  0.23696625555E+03  0.47000000000E+01 0.  1.
          5    1    3    3  503    0  0.15140151461E+02  0.22834363859E+02 -0.82338025125E+01  0.28991686100E+02  0.47000000000E+01 0. -1.
         -5    1    3    3    0  503  0.81573139523E+02  0.31699057548E+01 -0.42741282557E+03  0.43516438142E+03  0.47000000000E+01 0. -1.
<mgrwt>
<rscale>  0 0.15381415E+03</rscale>
<asrwt>0</asrwt>
<pdfrwt beam="1">  1        1 0.13834320E+00 0.16016513E+03</pdfrwt>
<pdfrwt beam="2">  1       -1 0.37816691E-02 0.16016513E+03</pdfrwt>
<totfact> 0.50149285E+03</totfact>
</mgrwt>
</event>
<event>
 8    1  0.3217375E-004  0.1363858E+03  0.7546771E-02  0.1230325E+00
         -1   -1    0    0    0  501 -0.00000000000E+00  0.00000000000E+00  0.12776409612E+02  0.12776409612E+02  0.00000000000E+00 0.  1.
          1   -1    0    0  501    0  0.00000000000E+00 -0.00000000000E+00 -0.11546596465E+04  0.11546596465E+04  0.00000000000E+00 0. -1.
         25    2    1    2    0    0 -0.27177525314E+02  0.47301824420E+02 -0.60717613429E+03  0.62230534400E+03  0.12500001059E+03 0.  0.
         23    2    1    2    0    0  0.27177525314E+02 -0.47301824420E+02 -0.53470710261E+03  0.54513071212E+03  0.90993006556E+02 0.  0.
          5    1    4    4  502    0  0.38363876811E+02  0.38870552902E+01 -0.37445651743E+03  0.37646602727E+03  0.47000000000E+01 0. -1.
         -5    1    3    3    0  503 -0.15581326792E+02 -0.21230287416E+02 -0.27164008219E+02  0.38124482828E+02  0.47000000000E+01 0.  1.
          5    1    3    3  503    0 -0.11596198522E+02  0.68532111836E+02 -0.58001212607E+03  0.58418086117E+03  0.47000000000E+01 0.  1.
         -5    1    4    4    0  502 -0.11186351498E+02 -0.51188879710E+02 -0.16025058518E+03  0.16866468485E+03  0.47000000000E+01 0.  1.
<mgrwt>
<rscale>  0 0.12808519E+03</rscale>
<asrwt>0</asrwt>
<pdfrwt beam="1">  1        1 0.17764003E+00 0.13638579E+03</pdfrwt>
<pdfrwt beam="2">  1       -1 0.19656005E-02 0.13638579E+03</pdfrwt>
<totfact> 0.84129501E+03</totfact>
</mgrwt>
</event>
<event>
 8    1  0.3217375E-004  0.1557350E+03  0.7546771E-02  0.1199702E+00
         -2   -1    0    0    0  501 -0.00000000000E+00  0.00000000000E+00  0.17402195664E+03  0.17402195664E+03  0.00000000000E+00 0.  1.
          2   -1    0    0  501    0  0.00000000000E+00 -0.00000000000E+00 -0.13723562926E+03  0.13723562926E+03  0.00000000000E+00 0. -1.
         25    2    1    2    0    0  0.55906523286E+02  0.74158148593E+02 -0.31384098352E+02  0.15886584499E+03  0.12501369816E+03 0.  0.
         23    2    1    2    0    0 -0.55906523286E+02 -0.74158148593E+02  0.68170425728E+02  0.15239174091E+03  0.99755026970E+02 0.  0.
          5    1    3    3  502    0  0.93534553240E+02  0.46689743909E+02 -0.42151667346E+01  0.10473061857E+03  0.47000000000E+01 0. -1.
         -5    1    3    3    0  502 -0.37628029954E+02  0.27468404684E+02 -0.27168931617E+02  0.54135226418E+02  0.47000000000E+01 0. -1.
          5    1    4    4  503    0 -0.55665492001E+02 -0.26772321523E+02 -0.81017547335E+01  0.62475056056E+02  0.47000000000E+01 0. -1.
         -5    1    4    4    0  503 -0.24103128509E+00 -0.47385827070E+02  0.76272180462E+02  0.89916684857E+02  0.47000000000E+01 0.  1.
<mgrwt>
<rscale>  0 0.15062908E+03</rscale>
<asrwt>0</asrwt>
<pdfrwt beam="1">  1        2 0.21113174E-01 0.15573502E+03</pdfrwt>
<pdfrwt beam="2">  1       -2 0.26772609E-01 0.15573502E+03</pdfrwt>
<totfact> 0.31812562E+03</totfact>
</mgrwt>
</event>
<event>
 8    1  0.3217375E-004  0.1570577E+03  0.7546771E-02  0.1200581E+00
         -1   -1    0    0    0  501 -0.00000000000E+00  0.00000000000E+00  0.24943306811E+02  0.24943306811E+02  0.00000000000E+00 0.  1.
          1   -1    0    0  501    0  0.00000000000E+00 -0.00000000000E+00 -0.92452828766E+03  0.92452828766E+03  0.00000000000E+00 0. -1.
         25    2    1    2    0    0  0.94105579617E+02  0.13499104951E+02 -0.33440393110E+03  0.36944973614E+03  0.12501612877E+03 0.  0.
         23    2    1    2    0    0 -0.94105579617E+02 -0.13499104951E+02 -0.56518104975E+03  0.58002185833E+03  0.89205667937E+02 0.  0.
          5    1    3    3  502    0 -0.21115969885E+02  0.32499428354E+02 -0.65611506283E+02  0.76348259864E+02  0.47000000000E+01 0. -1.
         -5    1    3    3    0  502  0.11522154950E+03 -0.19000323403E+02 -0.26879242482E+03  0.29310147628E+03  0.47000000000E+01 0. -1.
          5    1    4    4  503    0 -0.40260190098E+02  0.26276005387E+02 -0.37996475782E+03  0.38302300003E+03  0.47000000000E+01 0. -1.
         -5    1    4    4    0  503 -0.53845389519E+02 -0.39775110338E+02 -0.18521629193E+03  0.19699885830E+03  0.47000000000E+01 0.  1.
<mgrwt>
<rscale>  0 0.14991218E+03</rscale>
<asrwt>0</asrwt>
<pdfrwt beam="1">  1        1 0.14223510E+00 0.15705769E+03</pdfrwt>
<pdfrwt beam="2">  1       -1 0.38374324E-02 0.15705769E+03</pdfrwt>
<totfact> 0.46897513E+03</totfact>
</mgrwt>
</event>
<event>
 8    1  0.3217375E-004  0.1578218E+03  0.7546771E-02  0.1199733E+00
          2   -1    0    0  501    0  0.00000000000E+00  0.00000000000E+00  0.68459573252E+03  0.68459573252E+03  0.00000000000E+00 0. -1.
         -2   -1    0    0    0  501 -0.00000000000E+00 -0.00000000000E+00 -0.31998458304E+02  0.31998458304E+02  0.00000000000E+00 0.  1.
         25    2    1    2    0    0  0.94324550461E+02  0.19634171403E+02  0.43412928387E+03  0.46192634382E+03  0.12500036196E+03 0.  0.
         23    2    1    2    0    0 -0.94324550461E+02 -0.19634171403E+02  0.21846799034E+03  0.25466784700E+03  0.88571033573E+02 0.  0.
          5    1    3    3  502    0  0.57295769838E+02  0.64146474504E+02  0.34459705950E+03  0.35519966054E+03  0.47000000000E+01 0. -1.
         -5    1    3    3    0  502  0.37028780623E+02 -0.44512303101E+02  0.89532224373E+02  0.10672668328E+03  0.47000000000E+01 0. -1.
          5    1    4    4  503    0 -0.47714560995E+02  0.32274614482E+02  0.12702130479E+03  0.13955225524E+03  0.47000000000E+01 0. -1.
         -5    1    4    4    0  503 -0.46609989465E+02 -0.51908785885E+02  0.91446685547E+02  0.11511559177E+03  0.47000000000E+01 0.  1.
<mgrwt>
<rscale>  0 0.15060409E+03</rscale>
<asrwt>0</asrwt>
<pdfrwt beam="1">  1        2 0.10532241E+00 0.15782177E+03</pdfrwt>
<pdfrwt beam="2">  1       -2 0.49228402E-02 0.15782177E+03</pdfrwt>
<totfact> 0.83710417E+03</totfact>
</mgrwt>
</event>
<event>
 8    1  0.3217375E-004  0.1325572E+03  0.7546771E-02  0.1236595E+00
         -2   -1    0    0    0  501 -0.00000000000E+00  0.00000000000E+00  0.14437876558E+03  0.14437876558E+03  0.00000000000E+00 0.  1.
          2   -1    0    0  501    0  0.00000000000E+00 -0.00000000000E+00 -0.95174865329E+02  0.95174865329E+02  0.00000000000E+00 0. -1.
         25    2    1    2    0    0 -0.27289201600E+02 -0.34655226731E+02  0.21913946458E+02  0.13435632581E+03  0.12500286386E+03 0.  0.
         23    2    1    2    0    0  0.27289201600E+02  0.34655226731E+02  0.27289953795E+02  0.10519730510E+03  0.91520741683E+02 0.  0.
          5    1    4    4  502    0  0.10919879464E+02  0.65186586073E+02  0.13543605625E+02  0.67631753080E+02  0.47000000000E+01 0. -1.
         -5    1    4    4    0  502  0.16369322137E+02 -0.30531359342E+02  0.13746348170E+02  0.37565552019E+02  0.47000000000E+01 0.  1.
          5    1    3    3  503    0 -0.26704378525E+01 -0.80084216817E+02  0.81604327126E+01  0.80680206269E+02  0.47000000000E+01 0. -1.
         -5    1    3    3    0  503 -0.24618763748E+02  0.45428990087E+02  0.13753513745E+02  0.53676119542E+02  0.47000000000E+01 0. -1.
<mgrwt>
<rscale>  0 0.12402849E+03</rscale>
<asrwt>0</asrwt>
<pdfrwt beam="1">  1        2 0.14642287E-01 0.13255716E+03</pdfrwt>
<pdfrwt beam="2">  1       -2 0.22212118E-01 0.13255716E+03</pdfrwt>
<totfact> 0.66438699E+03</totfact>
</mgrwt>
</event>
<event>
 8    1  0.3217375E-004  0.1343181E+03  0.7546771E-02  0.1232558E+00
         -2   -1    0    0    0  501 -0.00000000000E+00  0.00000000000E+00  0.23455028559E+02  0.23455028559E+02  0.00000000000E+00 0.  1.
          2   -1    0    0  501    0  0.00000000000E+00 -0.00000000000E+00 -0.61609074025E+03  0.61609074025E+03  0.00000000000E+00 0. -1.
         25    2    1    2    0    0  0.49109084162E+02 -0.24251946288E+01 -0.32636366328E+03  0.35292292072E+03  0.12499505409E+03 0.  0.
         23    2    1    2    0    0 -0.49109084162E+02  0.24251946288E+01 -0.26627204842E+03  0.28662284809E+03  0.93990795095E+02 0.  0.
          5    1    4    4  502    0 -0.59627622465E+02  0.25785925450E+02 -0.24338254811E+03  0.25194745888E+03  0.47000000000E+01 0. -1.
         -5    1    4    4    0  502  0.10518538303E+02 -0.23360730821E+02 -0.22889500312E+02  0.34675389213E+02  0.47000000000E+01 0.  1.
          5    1    3    3  503    0 -0.35784093350E+02 -0.24703066081E+02 -0.77431042014E+02  0.88929180127E+02  0.47000000000E+01 0. -1.
         -5    1    3    3    0  503  0.84893177511E+02  0.22277871452E+02 -0.24893262126E+03  0.26399374060E+03  0.47000000000E+01 0. -1.
<mgrwt>
<rscale>  0 0.12662046E+03</rscale>
<asrwt>0</asrwt>
<pdfrwt beam="1">  1        2 0.94783189E-01 0.13431808E+03</pdfrwt>
<pdfrwt beam="2">  1       -2 0.36084660E-02 0.13431808E+03</pdfrwt>
<totfact> 0.14887404E+04</totfact>
</mgrwt>
</event>
<event>
 8    1  0.3217375E-004  0.1624822E+03  0.7546771E-02  0.1194120E+00
         -2   -1    0    0    0  501 -0.00000000000E+00  0.00000000000E+00  0.64594453310E+02  0.64594453310E+02  0.00000000000E+00 0.  1.
          2   -1    0    0  501    0  0.00000000000E+00 -0.00000000000E+00 -0.34387263224E+03  0.34387263224E+03  0.00000000000E+00 0. -1.
         25    2    1    2    0    0  0.10205290312E+03 -0.19089847619E+02 -0.15495767360E+03  0.22452697289E+03  0.12498505364E+03 0.  0.
         23    2    1    2    0    0 -0.10205290312E+03  0.19089847619E+02 -0.12432050533E+03  0.18394011265E+03  0.87173159175E+02 0.  0.
          5    1    3    3  502    0  0.11975856332E+03  0.16430234753E+02 -0.12912658804E+03  0.17694019284E+03  0.47000000000E+01 0.  1.
         -5    1    3    3    0  502 -0.17705660202E+02 -0.35520082372E+02 -0.25831085560E+02  0.47586780056E+02  0.47000000000E+01 0.  1.
          5    1    4    4  503    0 -0.52972294627E+02  0.48160233673E+02 -0.40340831874E+02  0.82310052981E+02  0.47000000000E+01 0. -1.
         -5    1    4    4    0  503 -0.49080608492E+02 -0.29070386054E+02 -0.83979673456E+02  0.10163005967E+03  0.47000000000E+01 0.  1.
<mgrwt>
<rscale>  0 0.15528977E+03</rscale>
<asrwt>0</asrwt>
<pdfrwt beam="1">  1        2 0.52903481E-01 0.16248225E+03</pdfrwt>
<pdfrwt beam="2">  1       -2 0.99376083E-02 0.16248225E+03</pdfrwt>
<totfact> 0.61053156E+03</totfact>
</mgrwt>
</event>
<event>
 8    1  0.3217375E-004  0.1526097E+03  0.7546771E-02  0.1205428E+00
          1   -1    0    0  501    0  0.00000000000E+00  0.00000000000E+00  0.92377488425E+02  0.92377488425E+02  0.00000000000E+00 0. -1.
         -1   -1    0    0    0  501 -0.00000000000E+00 -0.00000000000E+00 -0.27079238278E+03  0.27079238278E+03  0.00000000000E+00 0.  1.
         25    2    1    2    0    0 -0.27507329129E+01 -0.87504316130E+02 -0.17896367453E+03  0.23519719913E+03  0.12500061522E+03 0.  0.
         23    2    1    2    0    0  0.27507329129E+01  0.87504316130E+02  0.54878017186E+00  0.12797267208E+03  0.93338800969E+02 0.  0.
          5    1    4    4  502    0  0.44256525125E+02  0.50181086854E+02  0.17735701372E+02  0.69378862755E+02  0.47000000000E+01 0. -1.
         -5    1    3    3    0  503 -0.61322152958E+02 -0.46064979598E+02 -0.11859554204E+03  0.14131306161E+03  0.47000000000E+01 0. -1.
          5    1    3    3  503    0  0.58571420045E+02 -0.41439336532E+02 -0.60368132493E+02  0.93884137526E+02  0.47000000000E+01 0. -1.
         -5    1    4    4    0  502 -0.41505792212E+02  0.37323229276E+02 -0.17186921200E+02  0.58593809324E+02  0.47000000000E+01 0.  1.
<mgrwt>
<rscale>  0 0.14603769E+03</rscale>
<asrwt>0</asrwt>
<pdfrwt beam="1">  1        1 0.14211921E-01 0.15260972E+03</pdfrwt>
<pdfrwt beam="2">  1       -1 0.41660366E-01 0.15260972E+03</pdfrwt>
<totfact> 0.22417675E+03</totfact>
</mgrwt>
</event>
<event>
 8    1  0.3217375E-004  0.1452592E+03  0.7546771E-02  0.1216432E+00
         -1   -1    0    0    0  501 -0.00000000000E+00  0.00000000000E+00  0.27624961600E+02  0.27624961600E+02  0.00000000000E+00 0.  1.
          1   -1    0    0  501    0  0.00000000000E+00 -0.00000000000E+00 -0.71658958006E+03  0.71658958006E+03  0.00000000000E+00 0. -1.
         25    2    1    2    0    0 -0.68321177436E+02  0.28409000930E+02 -0.50931695963E+03  0.52962628397E+03  0.12500152275E+03 0.  0.
         23    2    1    2    0    0  0.68321177436E+02 -0.28409000930E+02 -0.17964765883E+03  0.21458825769E+03  0.91104250138E+02 0.  0.
          5    1    3    3  502    0 -0.43172925578E+02 -0.25501528659E+02 -0.69771642951E+02  0.86048832804E+02  0.47000000000E+01 0. -1.
         -5    1    4    4    0  503  0.28027041718E+01 -0.44192898097E+02 -0.41794715985E+02  0.61071725677E+02  0.47000000000E+01 0.  1.
          5    1    4    4  503    0  0.65518473264E+02  0.15783897167E+02 -0.13785294285E+03  0.15351653201E+03  0.47000000000E+01 0. -1.
         -5    1    3    3    0  502 -0.25148251858E+02  0.53910529589E+02 -0.43954531668E+03  0.44357745117E+03  0.47000000000E+01 0. -1.
<mgrwt>
<rscale>  0 0.13771890E+03</rscale>
<asrwt>0</asrwt>
<pdfrwt beam="1">  1        1 0.11024457E+00 0.14525920E+03</pdfrwt>
<pdfrwt beam="2">  1       -1 0.42499934E-02 0.14525920E+03</pdfrwt>
<totfact> 0.59346704E+03</totfact>
</mgrwt>
</event>
<event>
 8    1  0.3217375E-004  0.1594781E+03  0.7546771E-02  0.1196441E+00
          3   -1    0    0  501    0  0.00000000000E+00  0.00000000000E+00  0.12552551109E+03  0.12552551109E+03  0.00000000000E+00 0. -1.
         -3   -1    0    0    0  501 -0.00000000000E+00 -0.00000000000E+00 -0.19079140668E+03  0.19079140668E+03  0.00000000000E+00 0.  1.
         25    2    1    2    0    0  0.39408956034E+02  0.90866081079E+02  0.11537845709E+02  0.15989495676E+03  0.12499425910E+03 0.  0.
         23    2    1    2    0    0 -0.39408956034E+02 -0.90866081079E+02 -0.76803741295E+02  0.15642196101E+03  0.93591157191E+02 0.  0.
          5    1    3    3  502    0 -0.24721645007E+02  0.25129379491E+02 -0.40770351432E+02  0.54101358590E+02  0.47000000000E+01 0.  1.
         -5    1    4    4    0  503 -0.25456127546E+02 -0.50950338090E+02  0.11598980849E+02  0.58314472800E+02  0.47000000000E+01 0.  1.
          5    1    4    4  503    0 -0.13952828488E+02 -0.39915742989E+02 -0.88402722145E+02  0.98107488215E+02  0.47000000000E+01 0. -1.
         -5    1    3    3    0  502  0.64130601041E+02  0.65736701588E+02  0.52308197141E+02  0.10579359817E+03  0.47000000000E+01 0.  1.
<mgrwt>
<rscale>  0 0.15332906E+03</rscale>
<asrwt>0</asrwt>
<pdfrwt beam="1">  1        3 0.19311617E-01 0.15947813E+03</pdfrwt>
<pdfrwt beam="2">  1       -3 0.29352524E-01 0.15947813E+03</pdfrwt>
<totfact> 0.63259861E+02</totfact>
</mgrwt>
</event>
<event>
 8    1  0.3217375E-004  0.1387803E+03  0.7546771E-02  0.1226448E+00
          2   -1    0    0  501    0  0.00000000000E+00  0.00000000000E+00  0.16984297554E+03  0.16984297554E+03  0.00000000000E+00 0. -1.
         -2   -1    0    0    0  501 -0.00000000000E+00 -0.00000000000E+00 -0.90603235863E+02  0.90603235863E+02  0.00000000000E+00 0.  1.
         25    2    1    2    0    0  0.60085873006E+02 -0.49874150544E+01  0.39067562628E+02  0.14417438301E+03  0.12499916729E+03 0.  0.
         23    2    1    2    0    0 -0.60085873006E+02  0.49874150544E+01  0.40172177053E+02  0.11627182840E+03  0.90940353119E+02 0.  0.
          5    1    3    3  502    0  0.35382139395E+02  0.25020514349E+02 -0.37938498105E+02  0.57787036305E+02  0.47000000000E+01 0.  1.
         -5    1    4    4    0  503  0.21700911440E+02  0.13647312999E+02  0.15295074486E+02  0.30219331775E+02  0.47000000000E+01 0.  1.
          5    1    4    4  503    0 -0.81786784446E+02 -0.86598979444E+01  0.24877102567E+02  0.86052496620E+02  0.47000000000E+01 0. -1.
         -5    1    3    3    0  502  0.24703733611E+02 -0.30007929403E+02  0.77006060733E+02  0.86387346707E+02  0.47000000000E+01 0.  1.
<mgrwt>
<rscale>  0 0.13068135E+03</rscale>
<asrwt>0</asrwt>
<pdfrwt beam="1">  1        2 0.26129689E-01 0.13878032E+03</pdfrwt>
<pdfrwt beam="2">  1       -2 0.13938959E-01 0.13878032E+03</pdfrwt>
<totfact> 0.75090145E+03</totfact>
</mgrwt>
</event>
<event>
 8    1  0.3217375E-004  0.1325530E+03  0.7546771E-02  0.1236697E+00
          4   -1    0    0  501    0  0.00000000000E+00  0.00000000000E+00  0.96929617804E+02  0.96929617804E+02  0.00000000000E+00 0. -1.
         -4   -1    0    0    0  501 -0.00000000000E+00 -0.00000000000E+00 -0.14583739906E+03  0.14583739906E+03  0.00000000000E+00 0.  1.
         25    2    1    2    0    0  0.39720025468E+02 -0.19139767591E+02 -0.49149970680E+02  0.14137188380E+03  0.12500511504E+03 0.  0.
         23    2    1    2    0    0 -0.39720025468E+02  0.19139767591E+02  0.24218941979E+00  0.10139513306E+03  0.91306643935E+02 0.  0.
          5    1    3    3  502    0  0.28856392881E+02 -0.71310833694E+02 -0.40871462516E+02  0.87238138795E+02  0.47000000000E+01 0.  1.
         -5    1    3    3    0  502  0.10863632587E+02  0.52171066103E+02 -0.82785081634E+01  0.54133745010E+02  0.47000000000E+01 0.  1.
          5    1    4    4  503    0 -0.37130328172E+02  0.54188825078E+02  0.20793644008E+01  0.65890088707E+02  0.47000000000E+01 0. -1.
         -5    1    4    4    0  503 -0.25896972964E+01 -0.35049057487E+02 -0.18371749810E+01  0.35505044356E+02  0.47000000000E+01 0.  1.
<mgrwt>
<rscale>  0 0.12396414E+03</rscale>
<asrwt>0</asrwt>
<pdfrwt beam="1">  1        4 0.14912249E-01 0.13255297E+03</pdfrwt>
<pdfrwt beam="2">  1       -4 0.22436523E-01 0.13255297E+03</pdfrwt>
<totfact> 0.11434344E+03</totfact>
</mgrwt>
</event>
<event>
 8    1  0.3217375E-004  0.1338560E+03  0.7546771E-02  0.1234790E+00
          2   -1    0    0  501    0  0.00000000000E+00  0.00000000000E+00  0.38644035114E+02  0.38644035114E+02  0.00000000000E+00 0. -1.
         -2   -1    0    0    0  501 -0.00000000000E+00 -0.00000000000E+00 -0.37216238016E+03  0.37216238016E+03  0.00000000000E+00 0.  1.
         25    2    1    2    0    0  0.43088627286E+02 -0.20919014413E+02 -0.15309805453E+03  0.20336284217E+03  0.12499278502E+03 0.  0.
         23    2    1    2    0    0 -0.43088627286E+02  0.20919014413E+02 -0.18042029051E+03  0.20744357311E+03  0.90482704587E+02 0.  0.
          5    1    4    4  502    0 -0.70417868542E+02  0.60519645933E+01 -0.12107510712E+03  0.14027321216E+03  0.47000000000E+01 0. -1.
         -5    1    4    4    0  502  0.27329241255E+02  0.14867049819E+02 -0.59345183394E+02  0.67170360948E+02  0.47000000000E+01 0.  1.
          5    1    3    3  503    0  0.37092082021E+02 -0.66335799421E+02 -0.51820918791E+02  0.92107320327E+02  0.47000000000E+01 0. -1.
         -5    1    3    3    0  503  0.59965452648E+01  0.45416785008E+02 -0.10127713574E+03  0.11125552184E+03  0.47000000000E+01 0. -1.
<mgrwt>
<rscale>  0 0.12517874E+03</rscale>
<asrwt>0</asrwt>
<pdfrwt beam="1">  1        2 0.59452364E-02 0.13385601E+03</pdfrwt>
<pdfrwt beam="2">  1       -2 0.57255748E-01 0.13385601E+03</pdfrwt>
<totfact> 0.34747021E+03</totfact>
</mgrwt>
</event>
<event>
 8    1  0.3217375E-004  0.1341377E+03  0.7546771E-02  0.1233348E+00
         -1   -1    0    0    0  501 -0.00000000000E+00  0.00000000000E+00  0.10924349191E+03  0.10924349191E+03  0.00000000000E+00 0.  1.
          1   -1    0    0  501    0  0.00000000000E+00 -0.00000000000E+00 -0.13836941049E+03  0.13836941049E+03  0.00000000000E+00 0. -1.
         25    2    1    2    0    0  0.48523158669E+02 -0.37555744816E+01  0.12801538546E+02  0.13474714386E+03  0.12499724846E+03 0.  0.
         23    2    1    2    0    0 -0.48523158669E+02  0.37555744816E+01 -0.41927457129E+02  0.11286575854E+03  0.92801759261E+02 0.  0.
          5    1    4    4  502    0 -0.56102920513E+02 -0.34114685251E+02 -0.28097713411E+02  0.71574583050E+02  0.47000000000E+01 0. -1.
         -5    1    4    4    0  502  0.75797618437E+01  0.37870259733E+02 -0.13829743717E+02  0.41291175487E+02  0.47000000000E+01 0.  1.
          5    1    3    3  503    0  0.16483083169E+02 -0.19983319068E+02 -0.53257438209E+02  0.59409340985E+02  0.47000000000E+01 0.  1.
         -5    1    3    3    0  503  0.32040075501E+02  0.16227744587E+02  0.66058976755E+02  0.75337802877E+02  0.47000000000E+01 0.  1.
<mgrwt>
<rscale>  0 0.12610786E+03</rscale>
<asrwt>0</asrwt>
<pdfrwt beam="1">  1        1 0.21287602E-01 0.13413767E+03</pdfrwt>
<pdfrwt beam="2">  1       -1 0.16806691E-01 0.13413767E+03</pdfrwt>
<totfact> 0.59910656E+03</totfact>
</mgrwt>
</event>
<event>
 8    1  0.3217375E-004  0.1952097E+03  0.7546771E-02  0.1158448E+00
         -1   -1    0    0    0  501 -0.00000000000E+00  0.00000000000E+00  0.77516283142E+02  0.77516283142E+02  0.00000000000E+00 0.  1.
          1   -1    0    0  501    0  0.00000000000E+00 -0.00000000000E+00 -0.52972570262E+03  0.52972570262E+03  0.00000000000E+00 0. -1.
         25    2    1    2    0    0 -0.38014709483E+02 -0.14504924477E+03 -0.35926790821E+03  0.40887681829E+03  0.12498968403E+03 0.  0.
         23    2    1    2    0    0  0.38014709483E+02  0.14504924477E+03 -0.92941511262E+02  0.19836516747E+03  0.90698476306E+02 0.  0.
          5    1    3    3  502    0 -0.17373297924E+02 -0.12915001224E+03 -0.35948100080E+03  0.38240062380E+03  0.47000000000E+01 0. -1.
         -5    1    4    4    0  503 -0.22766423384E+02  0.70875313996E+02 -0.18432301708E+02  0.76833976299E+02  0.47000000000E+01 0.  1.
          5    1    4    4  503    0  0.60781132866E+02  0.74173930776E+02 -0.74509209554E+02  0.12153119117E+03  0.47000000000E+01 0. -1.
         -5    1    3    3    0  502 -0.20641411558E+02 -0.15899232530E+02  0.21309258934E+00  0.26476194489E+02  0.47000000000E+01 0. -1.
<mgrwt>
<rscale>  0 0.19001465E+03</rscale>
<asrwt>0</asrwt>
<pdfrwt beam="1">  1        1 0.81496262E-01 0.19520969E+03</pdfrwt>
<pdfrwt beam="2">  1       -1 0.11925582E-01 0.19520969E+03</pdfrwt>
<totfact> 0.19176524E+03</totfact>
</mgrwt>
</event>
<event>
 8    1  0.3217375E-004  0.2565763E+03  0.7546771E-02  0.1111460E+00
         -2   -1    0    0    0  501 -0.00000000000E+00  0.00000000000E+00  0.15415283432E+03  0.15415283432E+03  0.00000000000E+00 0.  1.
          2   -1    0    0  501    0  0.00000000000E+00 -0.00000000000E+00 -0.44587043421E+03  0.44587043421E+03  0.00000000000E+00 0. -1.
         25    2    1    2    0    0  0.15822102428E+03 -0.15865445094E+03 -0.57379840528E+02  0.26291411620E+03  0.12500503618E+03 0.  0.
         23    2    1    2    0    0 -0.15822102428E+03  0.15865445094E+03 -0.23433775937E+03  0.33710915233E+03  0.92321545650E+02 0.  0.
          5    1    4    4  502    0 -0.18996676605E+02  0.52470038120E+02 -0.10628000222E+03  0.12013120949E+03  0.47000000000E+01 0. -1.
         -5    1    4    4    0  502 -0.13922434767E+03  0.10618441282E+03 -0.12805775715E+03  0.21697794284E+03  0.47000000000E+01 0.  1.
          5    1    3    3  503    0  0.84783083974E+02 -0.15440243858E+03 -0.12586375785E+02  0.17666010082E+03  0.47000000000E+01 0. -1.
         -5    1    3    3    0  503  0.73437940306E+02 -0.42520123650E+01 -0.44793464744E+02  0.86254015381E+02  0.47000000000E+01 0. -1.
<mgrwt>
<rscale>  0 0.25294051E+03</rscale>
<asrwt>0</asrwt>
<pdfrwt beam="1">  1        2 0.68595450E-01 0.25657628E+03</pdfrwt>
<pdfrwt beam="2">  1       -2 0.23715821E-01 0.25657628E+03</pdfrwt>
<totfact> 0.11056905E+03</totfact>
</mgrwt>
</event>
<event>
 8    1  0.3217375E-004  0.1447892E+03  0.7546771E-02  0.1217430E+00
          2   -1    0    0  501    0  0.00000000000E+00  0.00000000000E+00  0.18118177768E+03  0.18118177768E+03  0.00000000000E+00 0. -1.
         -2   -1    0    0    0  501 -0.00000000000E+00 -0.00000000000E+00 -0.10008061684E+03  0.10008061684E+03  0.00000000000E+00 0.  1.
         25    2    1    2    0    0  0.64666347868E+02 -0.33978276503E+02  0.79564677667E+02  0.16521033904E+03  0.12501063303E+03 0.  0.
         23    2    1    2    0    0 -0.64666347868E+02  0.33978276503E+02  0.15364831708E+01  0.11605205548E+03  0.90163512470E+02 0.  0.
          5    1    4    4  502    0 -0.46655029036E+02 -0.81419938961E+01  0.35042773685E+02  0.59102197815E+02  0.47000000000E+01 0. -1.
         -5    1    3    3    0  503  0.54568827393E+02 -0.59668950046E+01  0.10959252520E+03  0.12266202484E+03  0.47000000000E+01 0.  1.
          5    1    3    3  503    0  0.10097520475E+02 -0.28011381498E+02 -0.30027847533E+02  0.42548314193E+02  0.47000000000E+01 0.  1.
         -5    1    4    4    0  502 -0.18011318832E+02  0.42120270399E+02 -0.33506290514E+02  0.56949857669E+02  0.47000000000E+01 0.  1.
<mgrwt>
<rscale>  0 0.13699536E+03</rscale>
<asrwt>0</asrwt>
<pdfrwt beam="1">  1        2 0.27874120E-01 0.14478922E+03</pdfrwt>
<pdfrwt beam="2">  1       -2 0.15397018E-01 0.14478922E+03</pdfrwt>
<totfact> 0.59645834E+03</totfact>
</mgrwt>
</event>
<event>
 8    1  0.3217375E-004  0.1789919E+03  0.7546771E-02  0.1173946E+00
          2   -1    0    0  501    0  0.00000000000E+00  0.00000000000E+00  0.28631148271E+03  0.28631148271E+03  0.00000000000E+00 0. -1.
         -2   -1    0    0    0  501 -0.00000000000E+00 -0.00000000000E+00 -0.11545856660E+03  0.11545856660E+03  0.00000000000E+00 0.  1.
         25    2    1    2    0    0 -0.12811140279E+03  0.58602882891E+00  0.15921428116E+02  0.17969859374E+03  0.12500087105E+03 0.  0.
         23    2    1    2    0    0  0.12811140279E+03 -0.58602882891E+00  0.15493148800E+03  0.22207145556E+03  0.94334990576E+02 0.  0.
          5    1    3    3  502    0 -0.45448222140E+02  0.42201997871E+02  0.51182185518E+02  0.80549709089E+02  0.47000000000E+01 0. -1.
         -5    1    4    4    0  503  0.58931435678E+02 -0.45940284400E+02  0.59077423819E+02  0.95371147874E+02  0.47000000000E+01 0.  1.
          5    1    4    4  503    0  0.69179967117E+02  0.45354255572E+02  0.95854064181E+02  0.12670030769E+03  0.47000000000E+01 0. -1.
         -5    1    3    3    0  502 -0.82663180655E+02 -0.41615969042E+02 -0.35260757402E+02  0.99148884653E+02  0.47000000000E+01 0. -1.
<mgrwt>
<rscale>  0 0.17379638E+03</rscale>
<asrwt>0</asrwt>
<pdfrwt beam="1">  1        2 0.44047920E-01 0.17899188E+03</pdfrwt>
<pdfrwt beam="2">  1       -2 0.17762857E-01 0.17899188E+03</pdfrwt>
<totfact> 0.29055207E+03</totfact>
</mgrwt>
</event>
<event>
 8    1  0.3217375E-004  0.1370261E+03  0.7546771E-02  0.1229032E+00
          1   -1    0    0  501    0  0.00000000000E+00  0.00000000000E+00  0.26950965397E+03  0.26950965397E+03  0.00000000000E+00 0. -1.
         -1   -1    0    0    0  501 -0.00000000000E+00 -0.00000000000E+00 -0.56779871315E+02  0.56779871315E+02  0.00000000000E+00 0.  1.
         25    2    1    2    0    0 -0.44366439537E+02 -0.34373239609E+02  0.14381142538E+03  0.19864004609E+03  0.12500496503E+03 0.  0.
         23    2    1    2    0    0  0.44366439537E+02  0.34373239609E+02  0.68918357276E+02  0.12764947920E+03  0.91622862927E+02 0.  0.
          5    1    4    4  502    0  0.30943027493E+02  0.56756956703E+02  0.76308158462E+02  0.10011916966E+03  0.47000000000E+01 0. -1.
         -5    1    4    4    0  502  0.13423412044E+02 -0.22383717094E+02 -0.73898011859E+01  0.27530309541E+02  0.47000000000E+01 0.  1.
          5    1    3    3  503    0 -0.20474002561E+02 -0.29671424651E+02  0.16317505004E+03  0.16717585106E+03  0.47000000000E+01 0. -1.
         -5    1    3    3    0  503 -0.23892436975E+02 -0.47018149582E+01 -0.19363624664E+02  0.31464195026E+02  0.47000000000E+01 0. -1.
<mgrwt>
<rscale>  0 0.12894366E+03</rscale>
<asrwt>0</asrwt>
<pdfrwt beam="1">  1        1 0.41463023E-01 0.13702606E+03</pdfrwt>
<pdfrwt beam="2">  1       -1 0.87353650E-02 0.13702606E+03</pdfrwt>
<totfact> 0.71827588E+03</totfact>
</mgrwt>
</event>
<event>
 8    1  0.3217375E-004  0.1712820E+03  0.7546771E-02  0.1182880E+00
         -2   -1    0    0    0  501 -0.00000000000E+00  0.00000000000E+00  0.16679948058E+03  0.16679948058E+03  0.00000000000E+00 0. -1.
          2   -1    0    0  501    0  0.00000000000E+00 -0.00000000000E+00 -0.17908053142E+03  0.17908053142E+03  0.00000000000E+00 0.  1.
         25    2    1    2    0    0  0.11410678849E+03  0.26254470908E+02 -0.72095986312E+02  0.18583691690E+03  0.12501148754E+03 0.  0.
         23    2    1    2    0    0 -0.11410678849E+03 -0.26254470908E+02  0.59814935467E+02  0.16004309510E+03  0.91248612938E+02 0.  0.
          5    1    3    3  502    0  0.13179142009E+03 -0.21083227468E+01 -0.75398414162E+02  0.15192246145E+03  0.47000000000E+01 0. -1.
         -5    1    4    4    0  503 -0.11975806633E+03  0.10778296879E+01  0.52229720442E+02  0.13074092651E+03  0.47000000000E+01 0.  1.
          5    1    4    4  503    0  0.56512778415E+01 -0.27332300596E+02  0.75852150247E+01  0.29302168590E+02  0.47000000000E+01 0. -1.
         -5    1    3    3    0  502 -0.17684631601E+02  0.28362793655E+02  0.33024278501E+01  0.33914455450E+02  0.47000000000E+01 0. -1.
<mgrwt>
<rscale>  0 0.16526289E+03</rscale>
<asrwt>0</asrwt>
<pdfrwt beam="1">  1        2 0.27550851E-01 0.17128201E+03</pdfrwt>
<pdfrwt beam="2">  1       -2 0.25661459E-01 0.17128201E+03</pdfrwt>
<totfact> 0.25604350E+03</totfact>
</mgrwt>
</event>
<event>
 8    1  0.3217375E-004  0.1276418E+03  0.7546771E-02  0.1245069E+00
          1   -1    0    0  501    0  0.00000000000E+00  0.00000000000E+00  0.25100086714E+02  0.25100086714E+02  0.00000000000E+00 0. -1.
         -1   -1    0    0    0  501 -0.00000000000E+00 -0.00000000000E+00 -0.51621777661E+03  0.51621777661E+03  0.00000000000E+00 0.  1.
         25    2    1    2    0    0  0.38435852366E+01 -0.25536634157E+02 -0.33045070881E+03  0.35424583099E+03  0.12500217993E+03 0.  0.
         23    2    1    2    0    0 -0.38435852366E+01  0.25536634157E+02 -0.16066698108E+03  0.18707203233E+03  0.92277698493E+02 0.  0.
          5    1    3    3  502    0  0.20350755162E+02  0.45191914255E+02 -0.87999992096E+02  0.10110663163E+03  0.47000000000E+01 0.  1.
         -5    1    3    3    0  502 -0.16507169925E+02 -0.70728548412E+02 -0.24245071671E+03  0.25313919936E+03  0.47000000000E+01 0.  1.
          5    1    4    4  503    0 -0.32248552036E+02 -0.36644010572E+01 -0.13446904005E+03  0.13841029468E+03  0.47000000000E+01 0. -1.
         -5    1    4    4    0  503  0.28404966799E+02  0.29201035214E+02 -0.26197941038E+02  0.48661737650E+02  0.47000000000E+01 0.  1.
<mgrwt>
<rscale>  0 0.11881255E+03</rscale>
<asrwt>0</asrwt>
<pdfrwt beam="1">  1        1 0.38615517E-02 0.12764183E+03</pdfrwt>
<pdfrwt beam="2">  1       -1 0.79418122E-01 0.12764183E+03</pdfrwt>
<totfact> 0.37814733E+03</totfact>
</mgrwt>
</event>
<event>
 8    1  0.3217375E-004  0.1304605E+03  0.7546771E-02  0.1240446E+00
          2   -1    0    0  501    0  0.00000000000E+00  0.00000000000E+00  0.93128501478E+02  0.93128501478E+02  0.00000000000E+00 0. -1.
         -2   -1    0    0    0  501 -0.00000000000E+00 -0.00000000000E+00 -0.18520767016E+03  0.18520767016E+03  0.00000000000E+00 0.  1.
         25    2    1    2    0    0  0.83847293447E+01  0.36382452500E+02 -0.11857915575E+03  0.17629796042E+03  0.12500387248E+03 0.  0.
         23    2    1    2    0    0 -0.83847293447E+01 -0.36382452500E+02  0.26499987070E+02  0.10203821121E+03  0.91189696222E+02 0.  0.
          5    1    3    3  502    0  0.19547157529E+01  0.77583581033E+02 -0.10790365120E+03  0.13299744698E+03  0.47000000000E+01 0. -1.
         -5    1    3    3    0  502  0.64300135918E+01 -0.41201128533E+02 -0.10675504547E+02  0.43300513444E+02  0.47000000000E+01 0. -1.
          5    1    4    4  503    0 -0.42151627366E+02 -0.45885995089E+02  0.11201632833E+02  0.63481105954E+02  0.47000000000E+01 0. -1.
         -5    1    4    4    0  503  0.33766898022E+02  0.95035425889E+01  0.15298354237E+02  0.38557105261E+02  0.47000000000E+01 0.  1.
<mgrwt>
<rscale>  0 0.12162120E+03</rscale>
<asrwt>0</asrwt>
<pdfrwt beam="1">  1        2 0.14327462E-01 0.13046055E+03</pdfrwt>
<pdfrwt beam="2">  1       -2 0.28493487E-01 0.13046055E+03</pdfrwt>
<totfact> 0.44058835E+03</totfact>
</mgrwt>
</event>
<event>
 8    1  0.3217375E-004  0.1776701E+03  0.7546771E-02  0.1175392E+00
         -2   -1    0    0    0  501 -0.00000000000E+00  0.00000000000E+00  0.32783540153E+02  0.32783540153E+02  0.00000000000E+00 0.  1.
          2   -1    0    0  501    0  0.00000000000E+00 -0.00000000000E+00 -0.94536961226E+03  0.94536961226E+03  0.00000000000E+00 0. -1.
         25    2    1    2    0    0 -0.44981691316E+02 -0.11797460191E+03 -0.33137542441E+03  0.37600043867E+03  0.12500119491E+03 0.  0.
         23    2    1    2    0    0  0.44981691316E+02  0.11797460191E+03 -0.58121064770E+03  0.60215271375E+03  0.94025073362E+02 0.  0.
          5    1    3    3  502    0  0.29475493720E+02 -0.49524182491E+02 -0.21062712123E+03  0.21842006222E+03  0.47000000000E+01 0. -1.
         -5    1    4    4    0  503  0.23698825325E+02 -0.11015951230E+02 -0.10393101603E+03  0.10726943458E+03  0.47000000000E+01 0. -1.
          5    1    4    4  503    0  0.21282865990E+02  0.12899055314E+03 -0.47727963168E+03  0.49488327916E+03  0.47000000000E+01 0.  1.
         -5    1    3    3    0  502 -0.74457185036E+02 -0.68450419418E+02 -0.12074830318E+03  0.15758037645E+03  0.47000000000E+01 0. -1.
<mgrwt>
<rscale>  0 0.17237645E+03</rscale>
<asrwt>0</asrwt>
<pdfrwt beam="1">  1        2 0.14544148E+00 0.17767008E+03</pdfrwt>
<pdfrwt beam="2">  1       -2 0.50436214E-02 0.17767008E+03</pdfrwt>
<totfact> 0.54003420E+03</totfact>
</mgrwt>
</event>
<event>
 8    1  0.3217375E-004  0.1556819E+03  0.7546771E-02  0.1201895E+00
          1   -1    0    0  501    0  0.00000000000E+00  0.00000000000E+00  0.30353634933E+03  0.30353634933E+03  0.00000000000E+00 0. -1.
         -1   -1    0    0    0  501 -0.00000000000E+00 -0.00000000000E+00 -0.88285482750E+02  0.88285482750E+02  0.00000000000E+00 0.  1.
         25    2    1    2    0    0  0.16261149256E+02 -0.91323488629E+02  0.19662996710E+02  0.15691872938E+03  0.12502979501E+03 0.  0.
         23    2    1    2    0    0 -0.16261149256E+02  0.91323488629E+02  0.19558786987E+03  0.23490310270E+03  0.91216491194E+02 0.  0.
          5    1    3    3  502    0  0.24937349812E+02 -0.60207854316E+01 -0.43223639767E+02  0.50482613914E+02  0.47000000000E+01 0. -1.
         -5    1    4    4    0  503 -0.53588404866E+02  0.58840697178E+02  0.10869392618E+03  0.13479764230E+03  0.47000000000E+01 0.  1.
          5    1    4    4  503    0  0.37327255610E+02  0.32482791451E+02  0.86893943691E+02  0.10010546040E+03  0.47000000000E+01 0. -1.
         -5    1    3    3    0  502 -0.86762005563E+01 -0.85302703198E+02  0.62886636477E+02  0.10643611547E+03  0.47000000000E+01 0. -1.
<mgrwt>
<rscale>  0 0.14884841E+03</rscale>
<asrwt>0</asrwt>
<pdfrwt beam="1">  1        1 0.46697899E-01 0.15568190E+03</pdfrwt>
<pdfrwt beam="2">  1       -1 0.13582382E-01 0.15568190E+03</pdfrwt>
<totfact> 0.31672176E+03</totfact>
</mgrwt>
</event>
<event>
 8    1  0.3217375E-004  0.1320827E+03  0.7546771E-02  0.1237565E+00
         -1   -1    0    0    0  501 -0.00000000000E+00  0.00000000000E+00  0.75003956043E+02  0.75003956043E+02  0.00000000000E+00 0.  1.
          1   -1    0    0  501    0  0.00000000000E+00 -0.00000000000E+00 -0.29943335845E+03  0.29943335845E+03  0.00000000000E+00 0. -1.
         25    2    1    2    0    0 -0.38138675788E+02  0.19284629088E+02 -0.40461403637E+01  0.13214463650E+03  0.12497751075E+03 0.  0.
         23    2    1    2    0    0  0.38138675788E+02 -0.19284629088E+02 -0.22038326204E+03  0.24229267799E+03  0.91161966362E+02 0.  0.
          5    1    4    4  502    0  0.51524864666E+01 -0.41915010973E+02 -0.18114339901E+03  0.18606030546E+03  0.47000000000E+01 0. -1.
         -5    1    4    4    0  502  0.32986189322E+02  0.22630381885E+02 -0.39239863027E+02  0.56232372532E+02  0.47000000000E+01 0.  1.
          5    1    3    3  503    0 -0.15346710188E+02  0.13298220294E+02  0.60117914448E+02  0.63628749903E+02  0.47000000000E+01 0.  1.
         -5    1    3    3    0  503 -0.22791965600E+02  0.59864087942E+01 -0.64164054812E+02  0.68515886596E+02  0.47000000000E+01 0.  1.
<mgrwt>
<rscale>  0 0.12341640E+03</rscale>
<asrwt>0</asrwt>
<pdfrwt beam="1">  1        1 0.46066670E-01 0.13208268E+03</pdfrwt>
<pdfrwt beam="2">  1       -1 0.11539070E-01 0.13208268E+03</pdfrwt>
<totfact> 0.41144373E+03</totfact>
</mgrwt>
</event>
<event>
 8    1  0.3217375E-004  0.1263308E+03  0.7546771E-02  0.1245949E+00
         -2   -1    0    0    0  501 -0.00000000000E+00  0.00000000000E+00  0.11677129758E+02  0.11677129758E+02  0.00000000000E+00 0.  1.
          2   -1    0    0  501    0  0.00000000000E+00 -0.00000000000E+00 -0.10729004232E+04  0.10729004232E+04  0.00000000000E+00 0. -1.
         25    2    1    2    0    0 -0.63538637524E+01  0.17183073413E+02 -0.63300248807E+03  0.64548557379E+03  0.12499538583E+03 0.  0.
         23    2    1    2    0    0  0.63538637524E+01 -0.17183073413E+02 -0.42822080535E+03  0.43909197914E+03  0.95357634273E+02 0.  0.
          5    1    3    3  502    0  0.32184211593E+02  0.54166601339E+02 -0.21603207827E+03  0.22508174741E+03  0.47000000000E+01 0. -1.
         -5    1    4    4    0  503  0.37716300981E+02 -0.28621908371E+02 -0.12086687438E+03  0.12989466625E+03  0.47000000000E+01 0.  1.
          5    1    4    4  503    0 -0.31362437228E+02  0.11438834958E+02 -0.30735393097E+03  0.30919731289E+03  0.47000000000E+01 0. -1.
         -5    1    3    3    0  502 -0.38538075346E+02 -0.36983527927E+02 -0.41697040980E+03  0.42040382638E+03  0.47000000000E+01 0. -1.
<mgrwt>
<rscale>  0 0.11828741E+03</rscale>
<asrwt>0</asrwt>
<pdfrwt beam="1">  1        2 0.16506161E+00 0.12633082E+03</pdfrwt>
<pdfrwt beam="2">  1       -2 0.17964814E-02 0.12633082E+03</pdfrwt>
<totfact> 0.20395199E+04</totfact>
</mgrwt>
</event>
<event>
 8    1  0.3217375E-004  0.1465199E+03  0.7546771E-02  0.1214407E+00
          1   -1    0    0  501    0  0.00000000000E+00  0.00000000000E+00  0.55530380857E+03  0.55530380857E+03  0.00000000000E+00 0. -1.
         -1   -1    0    0    0  501 -0.00000000000E+00 -0.00000000000E+00 -0.31829197966E+02  0.31829197966E+02  0.00000000000E+00 0.  1.
         25    2    1    2    0    0  0.66606520121E+02  0.37529074307E+02  0.29041308567E+03  0.32528119432E+03  0.12499294024E+03 0.  0.
         23    2    1    2    0    0 -0.66606520121E+02 -0.37529074307E+02  0.23306152493E+03  0.26185181221E+03  0.91672445227E+02 0.  0.
          5    1    4    4  502    0 -0.81741327362E+02 -0.55317422745E+01  0.18085503490E+03  0.19860231222E+03  0.47000000000E+01 0. -1.
         -5    1    3    3    0  503 -0.65690339834E+01  0.47223217342E+02  0.21257034121E+03  0.21790232772E+03  0.47000000000E+01 0. -1.
          5    1    3    3  503    0  0.73175554105E+02 -0.96941430342E+01  0.77842744461E+02  0.10737886660E+03  0.47000000000E+01 0. -1.
         -5    1    4    4    0  502  0.15134807241E+02 -0.31997332033E+02  0.52206490035E+02  0.63249499992E+02  0.47000000000E+01 0.  1.
<mgrwt>
<rscale>  0 0.13920167E+03</rscale>
<asrwt>0</asrwt>
<pdfrwt beam="1">  1        1 0.85431348E-01 0.14651995E+03</pdfrwt>
<pdfrwt beam="2">  1       -1 0.48968001E-02 0.14651995E+03</pdfrwt>
<totfact> 0.68597829E+03</totfact>
</mgrwt>
</event>
<event>
 8    1  0.3217375E-004  0.1567421E+03  0.7546771E-02  0.1201145E+00
         -1   -1    0    0    0  501 -0.00000000000E+00  0.00000000000E+00  0.20679422477E+03  0.20679422477E+03  0.00000000000E+00 0.  1.
          1   -1    0    0  501    0  0.00000000000E+00 -0.00000000000E+00 -0.17516848438E+03  0.17516848438E+03  0.00000000000E+00 0. -1.
         25    2    1    2    0    0  0.85492807675E+02  0.40426297542E+02 -0.10887334827E+03  0.19084419057E+03  0.12499917366E+03 0.  0.
         23    2    1    2    0    0 -0.85492807675E+02 -0.40426297542E+02  0.14049908866E+03  0.19111851858E+03  0.88560648888E+02 0.  0.
          5    1    3    3  502    0  0.79176256484E+01 -0.24698545925E+02 -0.81732987705E+02  0.85878275750E+02  0.47000000000E+01 0.  1.
         -5    1    3    3    0  502  0.77575182026E+02  0.65124843467E+02 -0.27140360567E+02  0.10496591482E+03  0.47000000000E+01 0.  1.
          5    1    4    4  503    0 -0.37708304412E+02 -0.64742263236E+02  0.91288391584E+02  0.11819110503E+03  0.47000000000E+01 0. -1.
         -5    1    4    4    0  503 -0.47784503263E+02  0.24315965694E+02  0.49210697078E+02  0.72927413546E+02  0.47000000000E+01 0.  1.
<mgrwt>
<rscale>  0 0.14945439E+03</rscale>
<asrwt>0</asrwt>
<pdfrwt beam="1">  1        1 0.26948998E-01 0.15674214E+03</pdfrwt>
<pdfrwt beam="2">  1       -1 0.31814496E-01 0.15674214E+03</pdfrwt>
<totfact> 0.15801251E+03</totfact>
</mgrwt>
</event>
<event>
 8    1  0.3217375E-004  0.1282610E+03  0.7546771E-02  0.1244196E+00
         -2   -1    0    0    0  501 -0.00000000000E+00  0.00000000000E+00  0.16357376753E+02  0.16357376753E+02  0.00000000000E+00 0. -1.
          2   -1    0    0  501    0  0.00000000000E+00 -0.00000000000E+00 -0.77757291657E+03  0.77757291657E+03  0.00000000000E+00 0.  1.
         25    2    1    2    0    0 -0.20572209841E+02  0.20047057666E+02 -0.39444428615E+03  0.41477365315E+03  0.12500315249E+03 0.  0.
         23    2    1    2    0    0  0.20572209841E+02 -0.20047057666E+02 -0.36677125366E+03  0.37915664017E+03  0.91725159755E+02 0.  0.
          5    1    4    4  502    0 -0.17421969124E+02  0.14928632371E+02 -0.28288664713E+02  0.36725027215E+02  0.47000000000E+01 0. -1.
         -5    1    3    3    0  503  0.29458455268E+02  0.19160768958E+02 -0.33525704185E+03  0.33712654859E+03  0.47000000000E+01 0.  1.
          5    1    3    3  503    0 -0.50030665109E+02  0.88628870821E+00 -0.59187244308E+02  0.77647104567E+02  0.47000000000E+01 0.  1.
         -5    1    4    4    0  502  0.37994178965E+02 -0.34975690037E+02 -0.33848258895E+03  0.34243161295E+03  0.47000000000E+01 0.  1.
<mgrwt>
<rscale>  0 0.11933609E+03</rscale>
<asrwt>0</asrwt>
<pdfrwt beam="1">  1        2 0.11962659E+00 0.12826102E+03</pdfrwt>
<pdfrwt beam="2">  1       -2 0.25165198E-02 0.12826102E+03</pdfrwt>
<totfact> 0.19123634E+04</totfact>
</mgrwt>
</event>
<event>
 8    1  0.3217375E-004  0.1428545E+03  0.7546771E-02  0.1218518E+00
          2   -1    0    0  501    0  0.00000000000E+00  0.00000000000E+00  0.24813289190E+03  0.24813289190E+03  0.00000000000E+00 0. -1.
         -2   -1    0    0    0  501 -0.00000000000E+00 -0.00000000000E+00 -0.72868130353E+02  0.72868130353E+02  0.00000000000E+00 0.  1.
         25    2    1    2    0    0 -0.56867604164E+02 -0.39297432250E+02  0.56789733706E+02  0.15372857988E+03  0.12501675821E+03 0.  0.
         23    2    1    2    0    0  0.56867604164E+02  0.39297432250E+02  0.11847502784E+03  0.16727244237E+03  0.95736749315E+02 0.  0.
          5    1    3    3  502    0  0.12843686496E+02  0.33865112932E+02 -0.22562389550E+01  0.36592168163E+02  0.47000000000E+01 0. -1.
         -5    1    4    4    0  503  0.11957667938E+02 -0.30196887910E+02  0.19467393821E+02  0.38156353129E+02  0.47000000000E+01 0.  1.
          5    1    4    4  503    0  0.44909936225E+02  0.69494320160E+02  0.99007634017E+02  0.12911608924E+03  0.47000000000E+01 0. -1.
         -5    1    3    3    0  502 -0.69711290660E+02 -0.73162545182E+02  0.59045972661E+02  0.11713641172E+03  0.47000000000E+01 0. -1.
<mgrwt>
<rscale>  0 0.13621276E+03</rscale>
<asrwt>0</asrwt>
<pdfrwt beam="1">  1        2 0.38174291E-01 0.14285448E+03</pdfrwt>
<pdfrwt beam="2">  1       -2 0.11210482E-01 0.14285448E+03</pdfrwt>
<totfact> 0.70842296E+03</totfact>
</mgrwt>
</event>
<event>
 8    1  0.3217375E-004  0.1409184E+03  0.7546771E-02  0.1223881E+00
         -2   -1    0    0    0  501 -0.00000000000E+00  0.00000000000E+00  0.45606334509E+02  0.45606334509E+02  0.00000000000E+00 0.  1.
          2   -1    0    0  501    0  0.00000000000E+00 -0.00000000000E+00 -0.36498763212E+03  0.36498763212E+03  0.00000000000E+00 0. -1.
         25    2    1    2    0    0  0.62352073318E+02 -0.18583450994E+02 -0.22606530312E+03  0.26638980418E+03  0.12499952319E+03 0.  0.
         23    2    1    2    0    0 -0.62352073318E+02  0.18583450994E+02 -0.93315994489E+02  0.14420416245E+03  0.88621893128E+02 0.  0.
          5    1    3    3  502    0  0.50176459141E+02 -0.70682885213E+02 -0.12975967098E+03  0.15611985629E+03  0.47000000000E+01 0. -1.
         -5    1    4    4    0  503  0.14022411141E+02  0.28115650453E+02 -0.36709955938E+02  0.48547179934E+02  0.47000000000E+01 0.  1.
          5    1    4    4  503    0 -0.76374484460E+02 -0.95321994588E+01 -0.56606038552E+02  0.95656982513E+02  0.47000000000E+01 0. -1.
         -5    1    3    3    0  502  0.12175614178E+02  0.52099434219E+02 -0.96305632141E+02  0.11026994789E+03  0.47000000000E+01 0. -1.
<mgrwt>
<rscale>  0 0.13243889E+03</rscale>
<asrwt>0</asrwt>
<pdfrwt beam="1">  1        2 0.56151943E-01 0.14091844E+03</pdfrwt>
<pdfrwt beam="2">  1       -2 0.70163592E-02 0.14091844E+03</pdfrwt>
<totfact> 0.97498186E+03</totfact>
</mgrwt>
</event>
<event>
 8    1  0.3217375E-004  0.1605018E+03  0.7546771E-02  0.1195078E+00
          1   -1    0    0  501    0  0.00000000000E+00  0.00000000000E+00  0.15377463397E+03  0.15377463397E+03  0.00000000000E+00 0. -1.
         -1   -1    0    0    0  501 -0.00000000000E+00 -0.00000000000E+00 -0.17344293025E+03  0.17344293025E+03  0.00000000000E+00 0.  1.
         25    2    1    2    0    0 -0.95580638351E+02 -0.31645830215E+02 -0.77025755763E+02  0.17802755188E+03  0.12499490062E+03 0.  0.
         23    2    1    2    0    0  0.95580638351E+02  0.31645830215E+02  0.57357459477E+02  0.14919001234E+03  0.93971616072E+02 0.  0.
          5    1    3    3  502    0  0.55642907407E+00  0.37375977359E+02 -0.37521190406E+02  0.53171449354E+02  0.47000000000E+01 0. -1.
         -5    1    4    4    0  503  0.85562039432E+02  0.60354678889E+02  0.54910574913E+02  0.11832502311E+03  0.47000000000E+01 0. -1.
          5    1    4    4  503    0  0.10018598919E+02 -0.28708848674E+02  0.24468845645E+01  0.30864989237E+02  0.47000000000E+01 0.  1.
         -5    1    3    3    0  502 -0.96137067425E+02 -0.69021807574E+02 -0.39504565356E+02  0.12485610253E+03  0.47000000000E+01 0. -1.
<mgrwt>
<rscale>  0 0.15447638E+03</rscale>
<asrwt>0</asrwt>
<pdfrwt beam="1">  1        1 0.23657636E-01 0.16050184E+03</pdfrwt>
<pdfrwt beam="2">  1       -1 0.26683528E-01 0.16050184E+03</pdfrwt>
<totfact> 0.25043877E+03</totfact>
</mgrwt>
</event>
<event>
 8    1  0.3217375E-004  0.1380702E+03  0.7546771E-02  0.1227638E+00
         -1   -1    0    0    0  501 -0.00000000000E+00  0.00000000000E+00  0.73047191728E+02  0.73047191728E+02  0.00000000000E+00 0.  1.
          1   -1    0    0  501    0  0.00000000000E+00 -0.00000000000E+00 -0.21024144157E+03  0.21024144157E+03  0.00000000000E+00 0. -1.
         25    2    1    2    0    0  0.50416697759E+02  0.29913738695E+02 -0.60496502551E+02  0.15074214994E+03  0.12500677491E+03 0.  0.
         23    2    1    2    0    0 -0.50416697759E+02 -0.29913738695E+02 -0.76697747288E+02  0.13254648335E+03  0.90825935912E+02 0.  0.
          5    1    4    4  502    0 -0.47694927239E+02 -0.59428307096E+02 -0.65239943596E+02  0.10042345348E+03  0.47000000000E+01 0. -1.
         -5    1    3    3    0  503  0.41285164232E+02  0.72844549939E+02 -0.65372132256E+02  0.10633155184E+03  0.47000000000E+01 0. -1.
          5    1    3    3  503    0  0.91315335266E+01 -0.42930811244E+02  0.48756297050E+01  0.44410598100E+02  0.47000000000E+01 0. -1.
         -5    1    4    4    0  502 -0.27217705195E+01  0.29514568401E+02 -0.11457803692E+02  0.32123029871E+02  0.47000000000E+01 0.  1.
<mgrwt>
<rscale>  0 0.12987729E+03</rscale>
<asrwt>0</asrwt>
<pdfrwt beam="1">  1        1 0.32344837E-01 0.13807016E+03</pdfrwt>
<pdfrwt beam="2">  1       -1 0.11238030E-01 0.13807016E+03</pdfrwt>
<totfact> 0.66538657E+03</totfact>
</mgrwt>
</event>
<event>
 8    1  0.3217375E-004  0.1349848E+03  0.7546771E-02  0.1232365E+00
          1   -1    0    0  501    0  0.00000000000E+00  0.00000000000E+00  0.36053465333E+03  0.36053465333E+03  0.00000000000E+00 0. -1.
         -1   -1    0    0    0  501 -0.00000000000E+00 -0.00000000000E+00 -0.40045135370E+02  0.40045135370E+02  0.00000000000E+00 0.  1.
         25    2    1    2    0    0  0.38968188627E+02  0.32845060303E+02  0.19172808892E+03  0.23447931268E+03  0.12499428101E+03 0.  0.
         23    2    1    2    0    0 -0.38968188627E+02 -0.32845060303E+02  0.12876142904E+03  0.16610047601E+03  0.91719925933E+02 0.  0.
          5    1    3    3  502    0  0.25221262446E+02 -0.44704059374E+02  0.10662732619E+03  0.11843159078E+03  0.47000000000E+01 0.  1.
         -5    1    4    4    0  503 -0.28311237524E+02  0.10280497855E+02  0.72278403134E+00  0.30493068443E+02  0.47000000000E+01 0.  1.
          5    1    4    4  503    0 -0.10656951102E+02 -0.43125558158E+02  0.12803864501E+03  0.13560740757E+03  0.47000000000E+01 0. -1.
         -5    1    3    3    0  502  0.13746926180E+02  0.77549119677E+02  0.85100762727E+02  0.11604772190E+03  0.47000000000E+01 0.  1.
<mgrwt>
<rscale>  0 0.12674660E+03</rscale>
<asrwt>0</asrwt>
<pdfrwt beam="1">  1        1 0.55466867E-01 0.13498477E+03</pdfrwt>
<pdfrwt beam="2">  1       -1 0.61607903E-02 0.13498477E+03</pdfrwt>
<totfact> 0.84518390E+03</totfact>
</mgrwt>
</event>
<event>
 8    1  0.3217375E-004  0.1439775E+03  0.7546771E-02  0.1217473E+00
          1   -1    0    0  501    0  0.00000000000E+00  0.00000000000E+00  0.74027379623E+02  0.74027379623E+02  0.00000000000E+00 0. -1.
         -1   -1    0    0    0  501 -0.00000000000E+00 -0.00000000000E+00 -0.23770082867E+03  0.23770082867E+03  0.00000000000E+00 0.  1.
         25    2    1    2    0    0  0.71297569392E+02 -0.45967968134E+01 -0.11458611448E+03  0.18400946964E+03  0.12500013338E+03 0.  0.
         23    2    1    2    0    0 -0.71297569392E+02  0.45967968134E+01 -0.49087334574E+02  0.12771873865E+03  0.93797845632E+02 0.  0.
          5    1    3    3  502    0  0.85932975135E+02 -0.46982602833E+02 -0.87472690014E+02  0.13139787929E+03  0.47000000000E+01 0. -1.
         -5    1    4    4    0  503 -0.16093292161E+02 -0.39024053064E+02 -0.36682144891E+02  0.56120767314E+02  0.47000000000E+01 0.  1.
          5    1    4    4  503    0 -0.55204277232E+02  0.43620849878E+02 -0.12405189683E+02  0.71597971338E+02  0.47000000000E+01 0. -1.
         -5    1    3    3    0  502 -0.14635405742E+02  0.42385806019E+02 -0.27113424463E+02  0.52611590351E+02  0.47000000000E+01 0. -1.
<mgrwt>
<rscale>  0 0.13696434E+03</rscale>
<asrwt>0</asrwt>
<pdfrwt beam="1">  1        1 0.11388827E-01 0.14397745E+03</pdfrwt>
<pdfrwt beam="2">  1       -1 0.36569359E-01 0.14397745E+03</pdfrwt>
<totfact> 0.37535788E+03</totfact>
</mgrwt>
</event>
<event>
 8    1  0.3217375E-004  0.1301343E+03  0.7546771E-02  0.1241120E+00
          1   -1    0    0  501    0  0.00000000000E+00  0.00000000000E+00  0.24342970181E+03  0.24342970181E+03  0.00000000000E+00 0. -1.
         -1   -1    0    0    0  501 -0.00000000000E+00 -0.00000000000E+00 -0.53451958405E+02  0.53451958405E+02  0.00000000000E+00 0.  1.
         25    2    1    2    0    0  0.30508647117E+02 -0.19495497121E+02  0.10468734471E+03  0.16701612849E+03  0.12499638026E+03 0.  0.
         23    2    1    2    0    0 -0.30508647117E+02  0.19495497121E+02  0.85290398699E+02  0.12986553172E+03  0.90993144040E+02 0.  0.
          5    1    3    3  502    0 -0.31055581156E+02  0.25947077538E+02  0.73931297678E+02  0.84413427428E+02  0.47000000000E+01 0. -1.
         -5    1    4    4    0  503 -0.12759103897E+02  0.44263844663E+02  0.84494919140E+01  0.47069805504E+02  0.47000000000E+01 0.  1.
          5    1    4    4  503    0 -0.17749543221E+02 -0.24768347541E+02  0.76840906785E+02  0.82795726218E+02  0.47000000000E+01 0. -1.
         -5    1    3    3    0  502  0.61564228274E+02 -0.45442574659E+02  0.30756047030E+02  0.82602701067E+02  0.47000000000E+01 0. -1.
<mgrwt>
<rscale>  0 0.12120616E+03</rscale>
<asrwt>0</asrwt>
<pdfrwt beam="1">  1        1 0.37450723E-01 0.13013434E+03</pdfrwt>
<pdfrwt beam="2">  1       -1 0.82233783E-02 0.13013434E+03</pdfrwt>
<totfact> 0.88915044E+03</totfact>
</mgrwt>
</event>
<event>
 8    1  0.3217375E-004  0.1504587E+03  0.7546771E-02  0.1209242E+00
         -1   -1    0    0    0  501 -0.00000000000E+00  0.00000000000E+00  0.22290305290E+03  0.22290305290E+03  0.00000000000E+00 0.  1.
          1   -1    0    0  501    0  0.00000000000E+00 -0.00000000000E+00 -0.94598911994E+02  0.94598911994E+02  0.00000000000E+00 0. -1.
         25    2    1    2    0    0  0.76661585120E+02  0.33705321038E+02  0.12300059391E+03  0.19433723408E+03  0.12499906858E+03 0.  0.
         23    2    1    2    0    0 -0.76661585120E+02 -0.33705321038E+02  0.53035469901E+01  0.12316473081E+03  0.90157506656E+02 0.  0.
          5    1    3    3  502    0  0.28192802998E+02  0.65876362463E+02  0.11478768212E+03  0.13539878596E+03  0.47000000000E+01 0. -1.
         -5    1    3    3    0  502  0.48468782122E+02 -0.32171041425E+02  0.82129117957E+01  0.58938448122E+02  0.47000000000E+01 0. -1.
          5    1    4    4  503    0 -0.78700236554E+01 -0.40268729582E+02 -0.24213762946E+02  0.47873835971E+02  0.47000000000E+01 0. -1.
         -5    1    4    4    0  503 -0.68791561465E+02  0.65634085442E+01  0.29517309937E+02  0.75290894844E+02  0.47000000000E+01 0.  1.
<mgrwt>
<rscale>  0 0.14308160E+03</rscale>
<asrwt>0</asrwt>
<pdfrwt beam="1">  1        1 0.14553679E-01 0.15045868E+03</pdfrwt>
<pdfrwt beam="2">  1       -1 0.34292777E-01 0.15045868E+03</pdfrwt>
<totfact> 0.30484500E+03</totfact>
</mgrwt>
</event>
<event>
 8    1  0.3217375E-004  0.1753211E+03  0.7546771E-02  0.1178402E+00
         -1   -1    0    0    0  501 -0.00000000000E+00  0.00000000000E+00  0.47453046978E+02  0.47453046978E+02  0.00000000000E+00 0.  1.
          1   -1    0    0  501    0  0.00000000000E+00 -0.00000000000E+00 -0.78973429978E+03  0.78973429978E+03  0.00000000000E+00 0. -1.
         25    2    1    2    0    0  0.12288842026E+03 -0.33151438491E+01 -0.61062046460E+03  0.63529115763E+03  0.12499979665E+03 0.  0.
         23    2    1    2    0    0 -0.12288842026E+03  0.33151438491E+01 -0.13166078820E+03  0.20189618912E+03  0.91186369707E+02 0.  0.
          5    1    3    3  502    0  0.13640084721E+03  0.28284468983E+02 -0.45593164821E+03  0.47676090459E+03  0.47000000000E+01 0.  1.
         -5    1    3    3    0  502 -0.13512426948E+02 -0.31599612832E+02 -0.15468881639E+03  0.15853025304E+03  0.47000000000E+01 0.  1.
          5    1    4    4  503    0 -0.33378847441E+02 -0.35928504293E+02 -0.72173439517E+02  0.87384782708E+02  0.47000000000E+01 0. -1.
         -5    1    4    4    0  503 -0.89509572820E+02  0.39243648142E+02 -0.59487348680E+02  0.11451140641E+03  0.47000000000E+01 0.  1.
<mgrwt>
<rscale>  0 0.16946947E+03</rscale>
<asrwt>0</asrwt>
<pdfrwt beam="1">  1        1 0.12149758E+00 0.17532114E+03</pdfrwt>
<pdfrwt beam="2">  1       -1 0.73004690E-02 0.17532114E+03</pdfrwt>
<totfact> 0.23085023E+03</totfact>
</mgrwt>
</event>
<event>
 8    1  0.3217375E-004  0.1305416E+03  0.7546771E-02  0.1240108E+00
          1   -1    0    0  501    0  0.00000000000E+00  0.00000000000E+00  0.66599737261E+03  0.66599737261E+03  0.00000000000E+00 0. -1.
         -1   -1    0    0    0  501 -0.00000000000E+00 -0.00000000000E+00 -0.24013921064E+02  0.24013921064E+02  0.00000000000E+00 0.  1.
         25    2    1    2    0    0  0.37633910205E+02 -0.69889476615E+00  0.50096159247E+03  0.51769067095E+03  0.12499725602E+03 0.  0.
         23    2    1    2    0    0 -0.37633910205E+02  0.69889476615E+00  0.14102185908E+03  0.17232062272E+03  0.91599304724E+02 0.  0.
          5    1    3    3  502    0  0.30718257636E+02  0.60545080444E+02  0.23613726119E+03  0.24574827414E+03  0.47000000000E+01 0.  1.
         -5    1    4    4    0  503 -0.12179689275E+02 -0.30699646679E+02  0.95572222337E+01  0.34702213674E+02  0.47000000000E+01 0.  1.
          5    1    4    4  503    0 -0.25454220929E+02  0.31398541445E+02  0.13146463684E+03  0.13761840904E+03  0.47000000000E+01 0. -1.
         -5    1    3    3    0  502  0.69156525686E+01 -0.61243975210E+02  0.26482433127E+03  0.27194239681E+03  0.47000000000E+01 0.  1.
<mgrwt>
<rscale>  0 0.12183023E+03</rscale>
<asrwt>0</asrwt>
<pdfrwt beam="1">  1        1 0.10246112E+00 0.13054162E+03</pdfrwt>
<pdfrwt beam="2">  1       -1 0.36944499E-02 0.13054162E+03</pdfrwt>
<totfact> 0.80436808E+03</totfact>
</mgrwt>
</event>
<event>
 8    1  0.3217375E-004  0.1436372E+03  0.7546771E-02  0.1218742E+00
         -1   -1    0    0    0  501 -0.00000000000E+00  0.00000000000E+00  0.19953632271E+03  0.19953632271E+03  0.00000000000E+00 0.  1.
          1   -1    0    0  501    0  0.00000000000E+00 -0.00000000000E+00 -0.12819388397E+03  0.12819388397E+03  0.00000000000E+00 0. -1.
         25    2    1    2    0    0  0.43848503087E+02 -0.55535123503E+02 -0.57410225961E+02  0.15468537869E+03  0.12499916468E+03 0.  0.
         23    2    1    2    0    0 -0.43848503087E+02  0.55535123503E+02  0.12875266470E+03  0.17304482799E+03  0.91435346887E+02 0.  0.
          5    1    4    4  502    0 -0.22090182273E-01  0.54889452300E+02  0.25360511321E+02  0.60647324724E+02  0.47000000000E+01 0. -1.
         -5    1    4    4    0  502 -0.43826412905E+02  0.64567120318E+00  0.10339215338E+03  0.11239750326E+03  0.47000000000E+01 0.  1.
          5    1    3    3  503    0  0.80841864267E+02 -0.12433869595E+02 -0.14167305840E+02  0.83143314139E+02  0.47000000000E+01 0.  1.
         -5    1    3    3    0  503 -0.36993361180E+02 -0.43101253908E+02 -0.43242920121E+02  0.71542064553E+02  0.47000000000E+01 0.  1.
<mgrwt>
<rscale>  0 0.13605215E+03</rscale>
<asrwt>0</asrwt>
<pdfrwt beam="1">  1        1 0.19722136E-01 0.14363716E+03</pdfrwt>
<pdfrwt beam="2">  1       -1 0.30697896E-01 0.14363716E+03</pdfrwt>
<totfact> 0.24832808E+03</totfact>
</mgrwt>
</event>
<event>
 8    1  0.3217375E-004  0.1590998E+03  0.7546771E-02  0.1197608E+00
          2   -1    0    0  501    0  0.00000000000E+00  0.00000000000E+00  0.46009917436E+02  0.46009917436E+02  0.00000000000E+00 0. -1.
         -2   -1    0    0    0  501 -0.00000000000E+00 -0.00000000000E+00 -0.46618462547E+03  0.46618462547E+03  0.00000000000E+00 0.  1.
         25    2    1    2    0    0 -0.91369500983E+02  0.36595123883E+02 -0.22525405753E+03  0.27577553910E+03  0.12500067494E+03 0.  0.
         23    2    1    2    0    0  0.91369500983E+02 -0.36595123883E+02 -0.19492065050E+03  0.23641900380E+03  0.90621722354E+02 0.  0.
          5    1    3    3  502    0 -0.45497981472E+02 -0.24982278660E+01 -0.20789147173E+03  0.21287851343E+03  0.47000000000E+01 0.  1.
         -5    1    4    4    0  503 -0.35198124695E+01 -0.38159639154E+02 -0.61710562020E+02  0.72793067012E+02  0.47000000000E+01 0.  1.
          5    1    4    4  503    0  0.94889313453E+02  0.15645152710E+01 -0.13321008848E+03  0.16362593679E+03  0.47000000000E+01 0. -1.
         -5    1    3    3    0  502 -0.45871519511E+02  0.39093351749E+02 -0.17362585791E+02  0.62897025673E+02  0.47000000000E+01 0.  1.
<mgrwt>
<rscale>  0 0.15235565E+03</rscale>
<asrwt>0</asrwt>
<pdfrwt beam="1">  1        2 0.70784484E-02 0.15909984E+03</pdfrwt>
<pdfrwt beam="2">  1       -2 0.71720716E-01 0.15909984E+03</pdfrwt>
<totfact> 0.17547026E+03</totfact>
</mgrwt>
</event>
<event>
 8    1  0.3217375E-004  0.1339242E+03  0.7546771E-02  0.1234511E+00
          1   -1    0    0  501    0  0.00000000000E+00  0.00000000000E+00  0.18230484199E+02  0.18230484199E+02  0.00000000000E+00 0. -1.
         -1   -1    0    0    0  501 -0.00000000000E+00 -0.00000000000E+00 -0.81546575371E+03  0.81546575371E+03  0.00000000000E+00 0.  1.
         25    2    1    2    0    0 -0.29608546966E+02 -0.37874227457E+02 -0.34880635733E+03  0.37363294363E+03  0.12499831397E+03 0.  0.
         23    2    1    2    0    0  0.29608546966E+02  0.37874227457E+02 -0.44842891218E+03  0.46006329428E+03  0.90876962429E+02 0.  0.
          5    1    4    4  502    0 -0.27471557821E+02 -0.80248809551E+01 -0.10926609588E+03  0.11304978953E+03  0.47000000000E+01 0. -1.
         -5    1    3    3    0  503 -0.68292456575E+02 -0.57891270861E+02 -0.24849532193E+03  0.26417281065E+03  0.47000000000E+01 0. -1.
          5    1    3    3  503    0  0.38683909609E+02  0.20017043404E+02 -0.10031103540E+03  0.10946013298E+03  0.47000000000E+01 0. -1.
         -5    1    4    4    0  502  0.57080104787E+02  0.45899108412E+02 -0.33916281631E+03  0.34701350475E+03  0.47000000000E+01 0.  1.
<mgrwt>
<rscale>  0 0.12535812E+03</rscale>
<asrwt>0</asrwt>
<pdfrwt beam="1">  1        1 0.28046899E-02 0.13392424E+03</pdfrwt>
<pdfrwt beam="2">  1       -1 0.12545627E+00 0.13392424E+03</pdfrwt>
<totfact> 0.21554341E+03</totfact>
</mgrwt>
</event>
<event>
 8    1  0.3217375E-004  0.1720525E+03  0.7546771E-02  0.1181998E+00
          2   -1    0    0  501    0  0.00000000000E+00  0.00000000000E+00  0.10195814113E+04  0.10195814113E+04  0.00000000000E+00 0. -1.
         -2   -1    0    0    0  501 -0.00000000000E+00 -0.00000000000E+00 -0.25357224118E+02  0.25357224118E+02  0.00000000000E+00 0.  1.
         25    2    1    2    0    0  0.51745935019E+02 -0.10629414794E+03  0.51629849051E+03  0.54421153457E+03  0.12500390142E+03 0.  0.
         23    2    1    2    0    0 -0.51745935019E+02  0.10629414794E+03  0.47792569670E+03  0.50072710088E+03  0.91315772530E+02 0.  0.
          5    1    4    4  502    0 -0.19385440073E+00  0.74252383056E+02  0.36429554947E+03  0.37181553401E+03  0.47000000000E+01 0. -1.
         -5    1    4    4    0  502 -0.51552080618E+02  0.32041764889E+02  0.11363014723E+03  0.12891156687E+03  0.47000000000E+01 0.  1.
          5    1    3    3  503    0 -0.32462426104E+02 -0.75071220252E+02  0.25907876561E+03  0.27172300971E+03  0.47000000000E+01 0.  1.
         -5    1    3    3    0  503  0.84208361123E+02 -0.31222927693E+02  0.25721972490E+03  0.27248852485E+03  0.47000000000E+01 0.  1.
<mgrwt>
<rscale>  0 0.16608084E+03</rscale>
<asrwt>0</asrwt>
<pdfrwt beam="1">  1        2 0.15685865E+00 0.17205250E+03</pdfrwt>
<pdfrwt beam="2">  1       -2 0.39011122E-02 0.17205250E+03</pdfrwt>
<totfact> 0.71493309E+03</totfact>
</mgrwt>
</event>
<event>
 8    1  0.3217375E-004  0.1673599E+03  0.7546771E-02  0.1187584E+00
          1   -1    0    0  501    0  0.00000000000E+00  0.00000000000E+00  0.16399773445E+03  0.16399773445E+03  0.00000000000E+00 0. -1.
         -1   -1    0    0    0  501 -0.00000000000E+00 -0.00000000000E+00 -0.16490767615E+03  0.16490767615E+03  0.00000000000E+00 0.  1.
         25    2    1    2    0    0 -0.70672421412E+02  0.85960880700E+02 -0.54357471114E+02  0.17596606950E+03  0.12500183515E+03 0.  0.
         23    2    1    2    0    0  0.70672421412E+02 -0.85960880700E+02  0.53447529416E+02  0.15293934110E+03  0.90277015331E+02 0.  0.
          5    1    4    4  502    0  0.52449347289E+02 -0.97664943018E+02  0.64322320489E+02  0.12825297673E+03  0.47000000000E+01 0. -1.
         -5    1    3    3    0  503 -0.28108264125E+02  0.11056283442E+03 -0.20280957038E+02  0.11596388268E+03  0.47000000000E+01 0.  1.
          5    1    3    3  503    0 -0.42564157287E+02 -0.24601953721E+02 -0.34076514076E+02  0.60002186827E+02  0.47000000000E+01 0.  1.
         -5    1    4    4    0  502  0.18223074123E+02  0.11704062318E+02 -0.10874791074E+02  0.24686364376E+02  0.47000000000E+01 0.  1.
<mgrwt>
<rscale>  0 0.16098935E+03</rscale>
<asrwt>0</asrwt>
<pdfrwt beam="1">  1        1 0.25230421E-01 0.16735986E+03</pdfrwt>
<pdfrwt beam="2">  1       -1 0.25370412E-01 0.16735986E+03</pdfrwt>
<totfact> 0.25143385E+03</totfact>
</mgrwt>
</event>
<event>
 8    1  0.3217375E-004  0.2062374E+03  0.7546771E-02  0.1148582E+00
         -2   -1    0    0    0  501 -0.00000000000E+00  0.00000000000E+00  0.77187625971E+02  0.77187625971E+02  0.00000000000E+00 0.  1.
          2   -1    0    0  501    0  0.00000000000E+00 -0.00000000000E+00 -0.51380802325E+03  0.51380802325E+03  0.00000000000E+00 0. -1.
         25    2    1    2    0    0 -0.79138650123E+02  0.14368768112E+03 -0.18382654532E+03  0.27627173099E+03  0.12499917972E+03 0.  0.
         23    2    1    2    0    0  0.79138650123E+02 -0.14368768112E+03 -0.25279385196E+03  0.31472391823E+03  0.90759778902E+02 0.  0.
          5    1    3    3  502    0 -0.74993350880E+02  0.50343043717E+02 -0.28291227653E+02  0.94767654234E+02  0.47000000000E+01 0.  1.
         -5    1    4    4    0  503  0.79749856676E+02 -0.60014263882E+02 -0.10585367652E+03  0.14556387719E+03  0.47000000000E+01 0.  1.
          5    1    4    4  503    0 -0.61120655344E+00 -0.83673417242E+02 -0.14694017544E+03  0.16916004104E+03  0.47000000000E+01 0. -1.
         -5    1    3    3    0  502 -0.41452992428E+01  0.93344637408E+02 -0.15553531766E+03  0.18150407676E+03  0.47000000000E+01 0.  1.
<mgrwt>
<rscale>  0 0.20137739E+03</rscale>
<asrwt>0</asrwt>
<pdfrwt beam="1">  1        2 0.79047388E-01 0.20623741E+03</pdfrwt>
<pdfrwt beam="2">  1       -2 0.11875019E-01 0.20623741E+03</pdfrwt>
<totfact> 0.30006014E+03</totfact>
</mgrwt>
</event>
<event>
 8    1  0.3217375E-004  0.1472568E+03  0.7546771E-02  0.1214297E+00
          1   -1    0    0  501    0  0.00000000000E+00  0.00000000000E+00  0.13160683072E+03  0.13160683072E+03  0.00000000000E+00 0. -1.
         -1   -1    0    0    0  501 -0.00000000000E+00 -0.00000000000E+00 -0.14941890531E+03  0.14941890531E+03  0.00000000000E+00 0.  1.
         25    2    1    2    0    0 -0.73780367419E+02  0.24825887687E+02  0.35798971077E+02  0.15154585196E+03  0.12499884640E+03 0.  0.
         23    2    1    2    0    0  0.73780367419E+02 -0.24825887687E+02 -0.53611045662E+02  0.12947988407E+03  0.88493100549E+02 0.  0.
          5    1    4    4  502    0 -0.10355253011E+02 -0.23854751749E+02 -0.33809865693E+02  0.42912439503E+02  0.47000000000E+01 0. -1.
         -5    1    3    3    0  503  0.31544375526E+02 -0.66971994840E+01  0.24809144774E+02  0.40957096732E+02  0.47000000000E+01 0.  1.
          5    1    3    3  503    0 -0.10532474295E+03  0.31523087171E+02  0.10989826303E+02  0.11058875523E+03  0.47000000000E+01 0.  1.
         -5    1    4    4    0  502  0.84135620429E+02 -0.97113593847E+00 -0.19801179970E+02  0.86567444563E+02  0.47000000000E+01 0.  1.
<mgrwt>
<rscale>  0 0.13928293E+03</rscale>
<asrwt>0</asrwt>
<pdfrwt beam="1">  1        1 0.20247205E-01 0.14725685E+03</pdfrwt>
<pdfrwt beam="2">  1       -1 0.22987524E-01 0.14725685E+03</pdfrwt>
<totfact> 0.38840165E+03</totfact>
</mgrwt>
</event>
<event>
 8    1  0.3217375E-004  0.1840656E+03  0.7546771E-02  0.1169155E+00
          2   -1    0    0  501    0  0.00000000000E+00  0.00000000000E+00  0.23164652699E+02  0.23164652699E+02  0.00000000000E+00 0. -1.
         -2   -1    0    0    0  501 -0.00000000000E+00 -0.00000000000E+00 -0.14841530379E+04  0.14841530379E+04  0.00000000000E+00 0.  1.
         25    2    1    2    0    0  0.12210155323E+03  0.57873586354E+02 -0.10330161503E+04  0.10492866659E+04  0.12498799629E+03 0.  0.
         23    2    1    2    0    0 -0.12210155323E+03 -0.57873586354E+02 -0.42797223491E+03  0.45803102468E+03  0.91509805018E+02 0.  0.
          5    1    3    3  502    0  0.88420758182E+02  0.97435597901E+02 -0.76330911632E+03  0.77458041757E+03  0.47000000000E+01 0.  1.
         -5    1    3    3    0  502  0.33680795052E+02 -0.39562011548E+02 -0.26970703394E+03  0.27470624833E+03  0.47000000000E+01 0.  1.
          5    1    4    4  503    0 -0.12402675543E+03 -0.23208878120E+02 -0.30339769304E+03  0.32862370308E+03  0.47000000000E+01 0. -1.
         -5    1    4    4    0  503  0.19252021946E+01 -0.34664708234E+02 -0.12457454188E+03  0.12940732160E+03  0.47000000000E+01 0.  1.
<mgrwt>
<rscale>  0 0.17860981E+03</rscale>
<asrwt>0</asrwt>
<pdfrwt beam="1">  1        2 0.35637913E-02 0.18406559E+03</pdfrwt>
<pdfrwt beam="2">  1       -2 0.22833133E+00 0.18406559E+03</pdfrwt>
<totfact> 0.23813970E+02</totfact>
</mgrwt>
</event>
<event>
 8    1  0.3217375E-004  0.1263140E+03  0.7546771E-02  0.1248670E+00
         -2   -1    0    0    0  501 -0.00000000000E+00  0.00000000000E+00  0.21683836489E+02  0.21683836489E+02  0.00000000000E+00 0.  1.
          2   -1    0    0  501    0  0.00000000000E+00 -0.00000000000E+00 -0.69871413471E+03  0.69871413471E+03  0.00000000000E+00 0. -1.
         25    2    1    2    0    0 -0.13388494935E+02 -0.12302137160E+02 -0.21549264606E+03  0.24978449663E+03  0.12499847948E+03 0.  0.
         23    2    1    2    0    0  0.13388494935E+02  0.12302137160E+02 -0.46153765216E+03  0.47061347457E+03  0.90163427815E+02 0.  0.
          5    1    4    4  502    0 -0.35632332413E+01  0.49219724258E+02 -0.29448451595E+03  0.29862769132E+03  0.47000000000E+01 0. -1.
         -5    1    3    3    0  503 -0.40020934879E+02  0.46523117954E+02 -0.10734330749E+03  0.12373662108E+03  0.47000000000E+01 0.  1.
          5    1    3    3  503    0  0.26632439944E+02 -0.58825255113E+02 -0.10814933857E+03  0.12604787555E+03  0.47000000000E+01 0.  1.
         -5    1    4    4    0  502  0.16951728176E+02 -0.36917587099E+02 -0.16705313620E+03  0.17198578325E+03  0.47000000000E+01 0.  1.
<mgrwt>
<rscale>  0 0.11668366E+03</rscale>
<asrwt>0</asrwt>
<pdfrwt beam="1">  1        2 0.10749447E+00 0.12631395E+03</pdfrwt>
<pdfrwt beam="2">  1       -2 0.33359752E-02 0.12631395E+03</pdfrwt>
<totfact> 0.14373385E+04</totfact>
</mgrwt>
</event>
<event>
 8    1  0.3217375E-004  0.1482378E+03  0.7546771E-02  0.1212126E+00
         -1   -1    0    0    0  501 -0.00000000000E+00  0.00000000000E+00  0.30229687394E+02  0.30229687394E+02  0.00000000000E+00 0.  1.
          1   -1    0    0  501    0  0.00000000000E+00 -0.00000000000E+00 -0.65392943977E+03  0.65392943977E+03  0.00000000000E+00 0. -1.
         25    2    1    2    0    0  0.75516324894E+02 -0.25426813504E+02 -0.24249572677E+03  0.28421580592E+03  0.12500083464E+03 0.  0.
         23    2    1    2    0    0 -0.75516324894E+02  0.25426813504E+02 -0.38120402561E+03  0.39994332125E+03  0.91043467091E+02 0.  0.
          5    1    3    3  502    0  0.86725087195E+02  0.25299052166E+02 -0.18881160953E+03  0.20936379028E+03  0.47000000000E+01 0.  1.
         -5    1    3    3    0  502 -0.11208762301E+02 -0.50725865671E+02 -0.53684117239E+02  0.74852015631E+02  0.47000000000E+01 0.  1.
          5    1    4    4  503    0 -0.43010219764E+02  0.54925834399E+02 -0.29401859396E+03  0.30221805022E+03  0.47000000000E+01 0. -1.
         -5    1    4    4    0  503 -0.32506105130E+02 -0.29499020894E+02 -0.87185431651E+02  0.97725271023E+02  0.47000000000E+01 0.  1.
<mgrwt>
<rscale>  0 0.14089806E+03</rscale>
<asrwt>0</asrwt>
<pdfrwt beam="1">  1        1 0.10060453E+00 0.14823781E+03</pdfrwt>
<pdfrwt beam="2">  1       -1 0.46507212E-02 0.14823781E+03</pdfrwt>
<totfact> 0.59238551E+03</totfact>
</mgrwt>
</event>
<event>
 8    1  0.3217375E-004  0.2210558E+03  0.7546771E-02  0.1136348E+00
          1   -1    0    0  501    0  0.00000000000E+00  0.00000000000E+00  0.27646446307E+03  0.27646446307E+03  0.00000000000E+00 0. -1.
         -1   -1    0    0    0  501 -0.00000000000E+00 -0.00000000000E+00 -0.20427821503E+03  0.20427821503E+03  0.00000000000E+00 0.  1.
         25    2    1    2    0    0 -0.15116136312E+03  0.10193683170E+03 -0.70013555645E+02  0.23187833914E+03  0.12499916331E+03 0.  0.
         23    2    1    2    0    0  0.15116136312E+03 -0.10193683170E+03  0.14219980369E+03  0.24886433896E+03  0.92042379813E+02 0.  0.
          5    1    3    3  502    0 -0.12458721303E+03  0.92350529095E+02 -0.10449024639E+03  0.18705853486E+03  0.47000000000E+01 0. -1.
         -5    1    3    3    0  502 -0.26574150089E+02  0.95863026021E+01  0.34476690742E+02  0.44819804273E+02  0.47000000000E+01 0. -1.
          5    1    4    4  503    0  0.12340720338E+03 -0.99910214336E+02  0.15113577480E+03  0.21926126242E+03  0.47000000000E+01 0. -1.
         -5    1    4    4    0  503  0.27754159742E+02 -0.20266173616E+01 -0.89359711137E+01  0.29603076540E+02  0.47000000000E+01 0.  1.
<mgrwt>
<rscale>  0 0.21672546E+03</rscale>
<asrwt>0</asrwt>
<pdfrwt beam="1">  1        1 0.42532995E-01 0.22105580E+03</pdfrwt>
<pdfrwt beam="2">  1       -1 0.31427418E-01 0.22105580E+03</pdfrwt>
<totfact> 0.91699486E+02</totfact>
</mgrwt>
</event>
<event>
 8    1  0.3217375E-004  0.2227103E+03  0.7546771E-02  0.1135206E+00
          2   -1    0    0  501    0  0.00000000000E+00  0.00000000000E+00  0.79860706830E+03  0.79860706830E+03  0.00000000000E+00 0. -1.
         -2   -1    0    0    0  501 -0.00000000000E+00 -0.00000000000E+00 -0.60745228119E+02  0.60745228119E+02  0.00000000000E+00 0.  1.
         25    2    1    2    0    0  0.12455597126E+03 -0.13586436507E+03  0.48443980053E+03  0.53318081857E+03  0.12500619695E+03 0.  0.
         23    2    1    2    0    0 -0.12455597126E+03  0.13586436507E+03  0.25342203965E+03  0.32617147785E+03  0.90508491937E+02 0.  0.
          5    1    3    3  502    0  0.63032966412E+02 -0.10368302851E+03  0.15728115208E+03  0.19870273288E+03  0.47000000000E+01 0. -1.
         -5    1    4    4    0  503 -0.10056879144E+03  0.44354453009E+02  0.12362355719E+03  0.16548798507E+03  0.47000000000E+01 0.  1.
          5    1    4    4  503    0 -0.23987179818E+02  0.91509912062E+02  0.12979848247E+03  0.16068349278E+03  0.47000000000E+01 0. -1.
         -5    1    3    3    0  502  0.61523004844E+02 -0.32181336566E+02  0.32715864844E+03  0.33447808568E+03  0.47000000000E+01 0. -1.
<mgrwt>
<rscale>  0 0.21823496E+03</rscale>
<asrwt>0</asrwt>
<pdfrwt beam="1">  1        2 0.12286262E+00 0.22271027E+03</pdfrwt>
<pdfrwt beam="2">  1       -2 0.93454203E-02 0.22271027E+03</pdfrwt>
<totfact> 0.26146122E+03</totfact>
</mgrwt>
</event>
<event>
 8    1  0.3217375E-004  0.1379347E+03  0.7546771E-02  0.1225424E+00
         -1   -1    0    0    0  501 -0.00000000000E+00  0.00000000000E+00  0.25337238014E+02  0.25337238014E+02  0.00000000000E+00 0.  1.
          1   -1    0    0  501    0  0.00000000000E+00 -0.00000000000E+00 -0.62838168269E+03  0.62838168269E+03  0.00000000000E+00 0. -1.
         25    2    1    2    0    0  0.10453997609E+02  0.57381499558E+02 -0.35808518245E+03  0.38373296567E+03  0.12499627390E+03 0.  0.
         23    2    1    2    0    0 -0.10453997609E+02 -0.57381499558E+02 -0.24495926222E+03  0.26998595504E+03  0.97393291409E+02 0.  0.
          5    1    3    3  502    0  0.63347838742E+02  0.55047139901E+02 -0.19977824549E+03  0.21674079832E+03  0.47000000000E+01 0.  1.
         -5    1    3    3    0  502 -0.52893841133E+02  0.23343596578E+01 -0.15830693696E+03  0.16699216735E+03  0.47000000000E+01 0.  1.
          5    1    4    4  503    0 -0.44122246586E+02 -0.24099556037E+02 -0.19317672336E+03  0.19966696696E+03  0.47000000000E+01 0. -1.
         -5    1    4    4    0  503  0.33668248977E+02 -0.33281943521E+02 -0.51782538858E+02  0.70318988078E+02  0.47000000000E+01 0.  1.
<mgrwt>
<rscale>  0 0.13137895E+03</rscale>
<asrwt>0</asrwt>
<pdfrwt beam="1">  1        1 0.96674102E-01 0.13793473E+03</pdfrwt>
<pdfrwt beam="2">  1       -1 0.38980368E-02 0.13793473E+03</pdfrwt>
<totfact> 0.80890926E+03</totfact>
</mgrwt>
</event>
<event>
 8    1  0.3217375E-004  0.1726156E+03  0.7546771E-02  0.1181559E+00
          2   -1    0    0  501    0  0.00000000000E+00  0.00000000000E+00  0.13549479504E+03  0.13549479504E+03  0.00000000000E+00 0. -1.
         -2   -1    0    0    0  501 -0.00000000000E+00 -0.00000000000E+00 -0.43933628798E+03  0.43933628798E+03  0.00000000000E+00 0.  1.
         25    2    1    2    0    0 -0.73474171753E+02 -0.93661497466E+02 -0.37240438998E+03  0.41046458180E+03  0.12500085286E+03 0.  0.
         23    2    1    2    0    0  0.73474171753E+02  0.93661497466E+02  0.68562897032E+02  0.16436650122E+03  0.90247137638E+02 0.  0.
          5    1    4    4  502    0  0.68389680988E+02  0.17688050664E+02  0.18687052921E+02  0.73220977519E+02  0.47000000000E+01 0. -1.
         -5    1    4    4    0  502  0.50844907653E+01  0.75973446801E+02  0.49875844111E+02  0.91145523702E+02  0.47000000000E+01 0.  1.
          5    1    3    3  503    0  0.31898899978E+02 -0.32887450316E+02 -0.15016003803E+03  0.15706448112E+03  0.47000000000E+01 0. -1.
         -5    1    3    3    0  503 -0.10537307173E+03 -0.60774047149E+02 -0.22224435194E+03  0.25340010068E+03  0.47000000000E+01 0. -1.
<mgrwt>
<rscale>  0 0.16648909E+03</rscale>
<asrwt>0</asrwt>
<pdfrwt beam="1">  1        2 0.20845353E-01 0.17261559E+03</pdfrwt>
<pdfrwt beam="2">  1       -2 0.67590198E-01 0.17261559E+03</pdfrwt>
<totfact> 0.54251741E+02</totfact>
</mgrwt>
</event>
<event>
 8    1  0.3217375E-004  0.1321137E+03  0.7546771E-02  0.1233188E+00
          2   -1    0    0  501    0  0.00000000000E+00  0.00000000000E+00  0.43177722998E+03  0.43177722998E+03  0.00000000000E+00 0. -1.
         -2   -1    0    0    0  501 -0.00000000000E+00 -0.00000000000E+00 -0.75747156318E+02  0.75747156318E+02  0.00000000000E+00 0.  1.
         25    2    1    2    0    0  0.17643195831E+02  0.38946718184E+02 -0.28588158287E+01  0.13214461392E+03  0.12500358772E+03 0.  0.
         23    2    1    2    0    0 -0.17643195831E+02 -0.38946718184E+02  0.35888888949E+03  0.37537977238E+03  0.10139333951E+03 0.  0.
          5    1    3    3  502    0 -0.44804513223E+02  0.28854700236E+02  0.29331320087E+02  0.61011920711E+02  0.47000000000E+01 0.  1.
         -5    1    3    3    0  502  0.62447709054E+02  0.10092017948E+02 -0.32190135915E+02  0.71132693205E+02  0.47000000000E+01 0.  1.
          5    1    4    4  503    0 -0.36558113595E+02 -0.56780836374E+02  0.32717033587E+03  0.33410040067E+03  0.47000000000E+01 0. -1.
         -5    1    4    4    0  503  0.18914917764E+02  0.17834118189E+02  0.31718553614E+02  0.41279371713E+02  0.47000000000E+01 0.  1.
<mgrwt>
<rscale>  0 0.12621129E+03</rscale>
<asrwt>0</asrwt>
<pdfrwt beam="1">  1        2 0.66427265E-01 0.13211369E+03</pdfrwt>
<pdfrwt beam="2">  1       -2 0.11653409E-01 0.13211369E+03</pdfrwt>
<totfact> 0.36786728E+03</totfact>
</mgrwt>
</event>
<event>
 8    1  0.3217375E-004  0.1291176E+03  0.7546771E-02  0.1244723E+00
         -2   -1    0    0    0  501 -0.00000000000E+00  0.00000000000E+00  0.44478750685E+02  0.44478750685E+02  0.00000000000E+00 0.  1.
          2   -1    0    0  501    0  0.00000000000E+00 -0.00000000000E+00 -0.48339877111E+03  0.48339877111E+03  0.00000000000E+00 0. -1.
         25    2    1    2    0    0 -0.23758529649E+02 -0.21969291892E+02 -0.41063957352E+03  0.43046046790E+03  0.12499695023E+03 0.  0.
         23    2    1    2    0    0  0.23758529649E+02  0.21969291892E+02 -0.28280446896E+02  0.97417053886E+02  0.87425289212E+02 0.  0.
          5    1    4    4  502    0 -0.11304713791E+01  0.24047146614E+02 -0.55195189369E+02  0.60399852279E+02  0.47000000000E+01 0. -1.
         -5    1    3    3    0  503 -0.68954141560E+02 -0.25465839566E+02 -0.16593206305E+03  0.18154537221E+03  0.47000000000E+01 0.  1.
          5    1    3    3  503    0  0.45195611911E+02  0.34965476738E+01 -0.24470751047E+03  0.24891509569E+03  0.47000000000E+01 0.  1.
         -5    1    4    4    0  502  0.24889001028E+02 -0.20778547224E+01  0.26914742473E+02  0.37017201607E+02  0.47000000000E+01 0.  1.
<mgrwt>
<rscale>  0 0.11901958E+03</rscale>
<asrwt>0</asrwt>
<pdfrwt beam="1">  1        2 0.74369038E-01 0.12911760E+03</pdfrwt>
<pdfrwt beam="2">  1       -2 0.68428851E-02 0.12911760E+03</pdfrwt>
<totfact> 0.74464546E+03</totfact>
</mgrwt>
</event>
<event>
 8    1  0.3217375E-004  0.1377813E+03  0.7546771E-02  0.1226775E+00
          2   -1    0    0  501    0  0.00000000000E+00  0.00000000000E+00  0.27974877601E+02  0.27974877601E+02  0.00000000000E+00 0. -1.
         -2   -1    0    0    0  501 -0.00000000000E+00 -0.00000000000E+00 -0.57628720772E+03  0.57628720772E+03  0.00000000000E+00 0.  1.
         25    2    1    2    0    0 -0.33565738085E+02  0.47233504805E+02 -0.36441281572E+03  0.38959002221E+03  0.12500408950E+03 0.  0.
         23    2    1    2    0    0  0.33565738085E+02 -0.47233504805E+02 -0.18389951440E+03  0.21467206312E+03  0.94379025936E+02 0.  0.
          5    1    4    4  502    0  0.61184571558E+02 -0.10584307161E+02 -0.83325338580E+02  0.10402298498E+03  0.47000000000E+01 0. -1.
         -5    1    3    3    0  503 -0.81135202888E+01 -0.40639033914E+02 -0.72487832614E+02  0.83629756463E+02  0.47000000000E+01 0.  1.
          5    1    3    3  503    0 -0.25452217796E+02  0.87872538719E+02 -0.29192498311E+03  0.30596026574E+03  0.47000000000E+01 0.  1.
         -5    1    4    4    0  502 -0.27618833473E+02 -0.36649197644E+02 -0.10057417582E+03  0.11064907814E+03  0.47000000000E+01 0.  1.
<mgrwt>
<rscale>  0 0.13045971E+03</rscale>
<asrwt>0</asrwt>
<pdfrwt beam="1">  1        2 0.43038272E-02 0.13778129E+03</pdfrwt>
<pdfrwt beam="2">  1       -2 0.88659574E-01 0.13778129E+03</pdfrwt>
<totfact> 0.20874637E+03</totfact>
</mgrwt>
</event>
<event>
 8    1  0.3217375E-004  0.1258407E+03  0.7546771E-02  0.1248150E+00
         -1   -1    0    0    0  501 -0.00000000000E+00  0.00000000000E+00  0.27437568422E+03  0.27437568422E+03  0.00000000000E+00 0.  1.
          1   -1    0    0  501    0  0.00000000000E+00 -0.00000000000E+00 -0.10682919836E+03  0.10682919836E+03  0.00000000000E+00 0. -1.
         25    2    1    2    0    0  0.28052518701E+01 -0.14165361037E+02  0.23427409894E+03  0.26593278699E+03  0.12500946713E+03 0.  0.
         23    2    1    2    0    0 -0.28052518701E+01  0.14165361037E+02 -0.66727613081E+02  0.11527209559E+03  0.92879248397E+02 0.  0.
          5    1    4    4  502    0 -0.97072535929E+01 -0.28459930638E+02 -0.65034363034E+02  0.71803598792E+02  0.47000000000E+01 0. -1.
         -5    1    3    3    0  503 -0.52367902561E+02  0.21557266030E+01  0.49110778739E+02  0.71979184243E+02  0.47000000000E+01 0.  1.
          5    1    3    3  503    0  0.55173154431E+02 -0.16321087640E+02  0.18516332020E+03  0.19395360275E+03  0.47000000000E+01 0.  1.
         -5    1    4    4    0  502  0.69020017228E+01  0.42625291675E+02 -0.16932500478E+01  0.43468496798E+02  0.47000000000E+01 0.  1.
<mgrwt>
<rscale>  0 0.11698826E+03</rscale>
<asrwt>0</asrwt>
<pdfrwt beam="1">  1        1 0.16435261E-01 0.12584075E+03</pdfrwt>
<pdfrwt beam="2">  1       -1 0.42211644E-01 0.12584075E+03</pdfrwt>
<totfact> 0.18008233E+03</totfact>
</mgrwt>
</event>
<event>
 8    1  0.3217375E-004  0.1342444E+03  0.7546771E-02  0.1234982E+00
          2   -1    0    0  501    0  0.00000000000E+00  0.00000000000E+00  0.91253201758E+03  0.91253201758E+03  0.00000000000E+00 0. -1.
         -2   -1    0    0    0  501 -0.00000000000E+00 -0.00000000000E+00 -0.15258906754E+02  0.15258906754E+02  0.00000000000E+00 0.  1.
         25    2    1    2    0    0 -0.37201990097E+02  0.31808087347E+02  0.54585557224E+03  0.56212086193E+03  0.12500326067E+03 0.  0.
         23    2    1    2    0    0  0.37201990097E+02 -0.31808087347E+02  0.35141753858E+03  0.36567006241E+03  0.88456574820E+02 0.  0.
          5    1    3    3  502    0 -0.62540305461E+02  0.65861394424E+02  0.39520454504E+03  0.40553388947E+03  0.47000000000E+01 0. -1.
         -5    1    4    4    0  503 -0.23533154888E+02 -0.17942407252E+02  0.53947444490E+02  0.61710259472E+02  0.47000000000E+01 0.  1.
          5    1    4    4  503    0  0.60735144986E+02 -0.13865680094E+02  0.29747009409E+03  0.30395980293E+03  0.47000000000E+01 0. -1.
         -5    1    3    3    0  502  0.25338315364E+02 -0.34053307077E+02  0.15065102720E+03  0.15658697246E+03  0.47000000000E+01 0. -1.
<mgrwt>
<rscale>  0 0.12505617E+03</rscale>
<asrwt>0</asrwt>
<pdfrwt beam="1">  1        2 0.14038950E+00 0.13424440E+03</pdfrwt>
<pdfrwt beam="2">  1       -2 0.23475248E-02 0.13424440E+03</pdfrwt>
<totfact> 0.17334738E+04</totfact>
</mgrwt>
</event>
<event>
 8    1  0.3217375E-004  0.1583830E+03  0.7546771E-02  0.1196096E+00
         -3   -1    0    0    0  501 -0.00000000000E+00  0.00000000000E+00  0.44039236694E+03  0.44039236694E+03  0.00000000000E+00 0.  1.
          3   -1    0    0  501    0  0.00000000000E+00 -0.00000000000E+00 -0.51233844717E+02  0.51233844717E+02  0.00000000000E+00 0. -1.
         25    2    1    2    0    0  0.75800196274E+02 -0.60944051397E+02  0.17897150619E+03  0.23898948832E+03  0.12500131337E+03 0.  0.
         23    2    1    2    0    0 -0.75800196274E+02  0.60944051397E+02  0.21018701604E+03  0.25263672334E+03  0.10093010014E+03 0.  0.
          5    1    4    4  502    0 -0.69496398921E+02 -0.77818552414E+01  0.91451206313E+02  0.11522031015E+03  0.47000000000E+01 0. -1.
         -5    1    3    3    0  503 -0.63792883289E+01  0.22851453896E+02 -0.85267373312E+00  0.24201266852E+02  0.47000000000E+01 0. -1.
          5    1    3    3  503    0  0.82179484603E+02 -0.83795505293E+02  0.17982417992E+03  0.21478822147E+03  0.47000000000E+01 0. -1.
         -5    1    4    4    0  502 -0.63037973534E+01  0.68725906638E+02  0.11873580973E+03  0.13741641320E+03  0.47000000000E+01 0.  1.
<mgrwt>
<rscale>  0 0.15361822E+03</rscale>
<asrwt>0</asrwt>
<pdfrwt beam="1">  1        3 0.78821302E-02 0.15838300E+03</pdfrwt>
<pdfrwt beam="2">  1       -3 0.67752669E-01 0.15838300E+03</pdfrwt>
<totfact> 0.55231314E+02</totfact>
</mgrwt>
</event>
<event>
 8    1  0.3217375E-004  0.1914376E+03  0.7546771E-02  0.1161773E+00
         -2   -1    0    0    0  501 -0.00000000000E+00  0.00000000000E+00  0.94618166102E+02  0.94618166102E+02  0.00000000000E+00 0.  1.
          2   -1    0    0  501    0  0.00000000000E+00 -0.00000000000E+00 -0.45714517633E+03  0.45714517633E+03  0.00000000000E+00 0. -1.
         25    2    1    2    0    0  0.11341684626E+03 -0.90334871795E+02 -0.32274624711E+03  0.37525122849E+03  0.12499829751E+03 0.  0.
         23    2    1    2    0    0 -0.11341684626E+03  0.90334871795E+02 -0.39780763118E+02  0.17651211394E+03  0.92467546615E+02 0.  0.
          5    1    3    3  502    0  0.92720648841E+01 -0.85122739800E+02 -0.12404194949E+03  0.15079902934E+03  0.47000000000E+01 0. -1.
         -5    1    3    3    0  502  0.10414478137E+03 -0.52121319945E+01 -0.19870429762E+03  0.22445219914E+03  0.47000000000E+01 0. -1.
          5    1    4    4  503    0 -0.10196030586E+03  0.69692806165E+02 -0.66665554916E+02  0.14042570069E+03  0.47000000000E+01 0. -1.
         -5    1    4    4    0  503 -0.11456540399E+02  0.20642065630E+02  0.26884791799E+02  0.36086413252E+02  0.47000000000E+01 0.  1.
<mgrwt>
<rscale>  0 0.18637351E+03</rscale>
<asrwt>0</asrwt>
<pdfrwt beam="1">  1        2 0.70330025E-01 0.19143757E+03</pdfrwt>
<pdfrwt beam="2">  1       -2 0.14556641E-01 0.19143757E+03</pdfrwt>
<totfact> 0.24475485E+03</totfact>
</mgrwt>
</event>
<event>
 8    1  0.3217375E-004  0.1335913E+03  0.7546771E-02  0.1234397E+00
          1   -1    0    0  501    0  0.00000000000E+00  0.00000000000E+00  0.27622749237E+02  0.27622749237E+02  0.00000000000E+00 0. -1.
         -1   -1    0    0    0  501 -0.00000000000E+00 -0.00000000000E+00 -0.58514817683E+03  0.58514817683E+03  0.00000000000E+00 0.  1.
         25    2    1    2    0    0  0.43549807884E+02 -0.18050441034E+02 -0.41818643095E+03  0.43900630187E+03  0.12499695141E+03 0.  0.
         23    2    1    2    0    0 -0.43549807884E+02  0.18050441034E+02 -0.13933899664E+03  0.17376462419E+03  0.92500726746E+02 0.  0.
          5    1    4    4  502    0 -0.78641702360E+01 -0.25126059827E+02 -0.37760863915E+01  0.27009496189E+02  0.47000000000E+01 0. -1.
         -5    1    4    4    0  502 -0.35685637648E+02  0.43176500861E+02 -0.13556291024E+03  0.14675512800E+03  0.47000000000E+01 0.  1.
          5    1    3    3  503    0  0.55012372028E+02  0.38528879337E+02 -0.29907000338E+03  0.30655471378E+03  0.47000000000E+01 0. -1.
         -5    1    3    3    0  503 -0.11462564144E+02 -0.56579320371E+02 -0.11911642757E+03  0.13245158809E+03  0.47000000000E+01 0. -1.
<mgrwt>
<rscale>  0 0.12543102E+03</rscale>
<asrwt>0</asrwt>
<pdfrwt beam="1">  1        1 0.42496536E-02 0.13359132E+03</pdfrwt>
<pdfrwt beam="2">  1       -1 0.90022799E-01 0.13359132E+03</pdfrwt>
<totfact> 0.25617105E+03</totfact>
</mgrwt>
</event>
<event>
 8    1  0.3217375E-004  0.1264312E+03  0.7546771E-02  0.1247021E+00
          2   -1    0    0  501    0  0.00000000000E+00  0.00000000000E+00  0.16151976025E+03  0.16151976025E+03  0.00000000000E+00 0. -1.
         -2   -1    0    0    0  501 -0.00000000000E+00 -0.00000000000E+00 -0.75950826501E+02  0.75950826501E+02  0.00000000000E+00 0.  1.
         25    2    1    2    0    0  0.13971797226E+02 -0.12891468926E+02  0.42982160451E+02  0.13353771848E+03  0.12499382005E+03 0.  0.
         23    2    1    2    0    0 -0.13971797226E+02  0.12891468926E+02  0.42586773298E+02  0.10393286827E+03  0.92881681496E+02 0.  0.
          5    1    4    4  502    0 -0.36326662402E+02 -0.26845258058E+02  0.35306632347E+02  0.57523408879E+02  0.47000000000E+01 0. -1.
         -5    1    4    4    0  502  0.22354865175E+02  0.39736726984E+02  0.72801409514E+01  0.46409459388E+02  0.47000000000E+01 0.  1.
          5    1    3    3  503    0 -0.47553274194E+02 -0.34902224981E+02  0.93887610055E+01  0.59914255636E+02  0.47000000000E+01 0.  1.
         -5    1    3    3    0  503  0.61525071420E+02  0.22010756055E+02  0.33593399445E+02  0.73623462847E+02  0.47000000000E+01 0.  1.
<mgrwt>
<rscale>  0 0.11765249E+03</rscale>
<asrwt>0</asrwt>
<pdfrwt beam="1">  1        2 0.24849194E-01 0.12643123E+03</pdfrwt>
<pdfrwt beam="2">  1       -2 0.11684743E-01 0.12643123E+03</pdfrwt>
<totfact> 0.10459044E+04</totfact>
</mgrwt>
</event>
<event>
 8    1  0.3217375E-004  0.1316272E+03  0.7546771E-02  0.1236752E+00
         -2   -1    0    0    0  501 -0.00000000000E+00  0.00000000000E+00  0.13040013325E+03  0.13040013325E+03  0.00000000000E+00 0.  1.
          2   -1    0    0  501    0  0.00000000000E+00 -0.00000000000E+00 -0.10765043057E+03  0.10765043057E+03  0.00000000000E+00 0. -1.
         25    2    1    2    0    0  0.31859007495E+02 -0.26168556371E+02 -0.22232482470E+01  0.13164594916E+03  0.12500369353E+03 0.  0.
         23    2    1    2    0    0 -0.31859007495E+02  0.26168556371E+02  0.24972950937E+02  0.10640461466E+03  0.94860445082E+02 0.  0.
          5    1    4    4  502    0 -0.61316463181E+02  0.66981089443E+01 -0.17315790881E+01  0.61884260411E+02  0.47000000000E+01 0. -1.
         -5    1    4    4    0  502  0.29457455686E+02  0.19470447427E+02  0.26704530025E+02  0.44520354248E+02  0.47000000000E+01 0.  1.
          5    1    3    3  503    0  0.87613804695E+00  0.35205405797E+02  0.37864136749E+02  0.51922741328E+02  0.47000000000E+01 0. -1.
         -5    1    3    3    0  503  0.30982869448E+02 -0.61373962169E+02 -0.40087384996E+02  0.79723207834E+02  0.47000000000E+01 0. -1.
<mgrwt>
<rscale>  0 0.12392915E+03</rscale>
<asrwt>0</asrwt>
<pdfrwt beam="1">  1        2 0.16561605E-01 0.13162717E+03</pdfrwt>
<pdfrwt beam="2">  1       -2 0.20061559E-01 0.13162717E+03</pdfrwt>
<totfact> 0.68428667E+03</totfact>
</mgrwt>
</event>
<event>
 8    1  0.3217375E-004  0.1687592E+03  0.7546771E-02  0.1185622E+00
         -2   -1    0    0    0  501 -0.00000000000E+00  0.00000000000E+00  0.35019601643E+02  0.35019601643E+02  0.00000000000E+00 0.  1.
          2   -1    0    0  501    0  0.00000000000E+00 -0.00000000000E+00 -0.12460037305E+04  0.12460037305E+04  0.00000000000E+00 0. -1.
         25    2    1    2    0    0 -0.41363952698E+01 -0.11330820576E+03 -0.20979533437E+03  0.26924662425E+03  0.12499521225E+03 0.  0.
         23    2    1    2    0    0  0.41363952698E+01  0.11330820576E+03 -0.10011887945E+04  0.10117767079E+04  0.91963281709E+02 0.  0.
          5    1    4    4  502    0 -0.16653118306E+02  0.12025575452E+03 -0.89795315975E+03  0.90613505613E+03  0.47000000000E+01 0. -1.
         -5    1    4    4    0  502  0.20789513576E+02 -0.69475487664E+01 -0.10323563473E+03  0.10564165176E+03  0.47000000000E+01 0.  1.
          5    1    3    3  503    0 -0.60739279245E+02 -0.84879949959E+02 -0.11782555866E+03  0.15747640529E+03  0.47000000000E+01 0. -1.
         -5    1    3    3    0  503  0.56602883975E+02 -0.28428255799E+02 -0.91969775709E+02  0.11177021896E+03  0.47000000000E+01 0. -1.
<mgrwt>
<rscale>  0 0.16275390E+03</rscale>
<asrwt>0</asrwt>
<pdfrwt beam="1">  1        2 0.19169288E+00 0.16875918E+03</pdfrwt>
<pdfrwt beam="2">  1       -2 0.53876310E-02 0.16875918E+03</pdfrwt>
<totfact> 0.32625049E+03</totfact>
</mgrwt>
</event>
<event>
 8    1  0.3217375E-004  0.1349924E+03  0.7546771E-02  0.1232258E+00
          3   -1    0    0  501    0  0.00000000000E+00  0.00000000000E+00  0.55557497289E+02  0.55557497289E+02  0.00000000000E+00 0.  1.
         -3   -1    0    0    0  501 -0.00000000000E+00 -0.00000000000E+00 -0.25952381248E+03  0.25952381248E+03  0.00000000000E+00 0. -1.
         25    2    1    2    0    0  0.88654173341E+01 -0.50179502381E+02 -0.11671894465E+03  0.17845520132E+03  0.12500547490E+03 0.  0.
         23    2    1    2    0    0 -0.88654173341E+01  0.50179502381E+02 -0.87247370533E+02  0.13662610844E+03  0.91967449455E+02 0.  0.
          5    1    3    3  502    0 -0.51655797413E+00 -0.81451480309E+02 -0.32173863290E+02  0.87703237999E+02  0.47000000000E+01 0. -1.
         -5    1    3    3    0  502  0.93819753082E+01  0.31271977928E+02 -0.84545081364E+02  0.90751963323E+02  0.47000000000E+01 0. -1.
          5    1    4    4  503    0 -0.41654681256E+02  0.25042362569E+02 -0.80996101966E+02  0.94576376158E+02  0.47000000000E+01 0. -1.
         -5    1    4    4    0  503  0.32789263922E+02  0.25137139812E+02 -0.62512685675E+01  0.42049732284E+02  0.47000000000E+01 0.  1.
<mgrwt>
<rscale>  0 0.12681622E+03</rscale>
<asrwt>0</asrwt>
<pdfrwt beam="1">  1        3 0.85473073E-02 0.13499240E+03</pdfrwt>
<pdfrwt beam="2">  1       -3 0.39926740E-01 0.13499240E+03</pdfrwt>
<totfact> 0.13705488E+03</totfact>
</mgrwt>
</event>
<event>
 8    1  0.3217375E-004  0.2074856E+03  0.7546771E-02  0.1147395E+00
          3   -1    0    0  501    0  0.00000000000E+00  0.00000000000E+00  0.59353261425E+02  0.59353261425E+02  0.00000000000E+00 0. -1.
         -3   -1    0    0    0  501 -0.00000000000E+00 -0.00000000000E+00 -0.13149694694E+04  0.13149694694E+04  0.00000000000E+00 0.  1.
         25    2    1    2    0    0 -0.16070835804E+03 -0.39960911792E+02 -0.15881161544E+03  0.26128793920E+03  0.12500482854E+03 0.  0.
         23    2    1    2    0    0  0.16070835804E+03  0.39960911792E+02 -0.10968045926E+04  0.11130347916E+04  0.91880805136E+02 0.  0.
          5    1    4    4  502    0  0.57555306220E+02  0.60389243880E+02 -0.44301034099E+03  0.45082116884E+03  0.47000000000E+01 0. -1.
         -5    1    4    4    0  502  0.10315305182E+03 -0.20428332088E+02 -0.65379425156E+03  0.66221362281E+03  0.47000000000E+01 0.  1.
          5    1    3    3  503    0 -0.38107410055E+02 -0.50924315857E+02 -0.11320889422E+03  0.12993769422E+03  0.47000000000E+01 0. -1.
         -5    1    3    3    0  503 -0.12260094798E+03  0.10963404065E+02 -0.45602721214E+02  0.13135024498E+03  0.47000000000E+01 0. -1.
<mgrwt>
<rscale>  0 0.20280398E+03</rscale>
<asrwt>0</asrwt>
<pdfrwt beam="1">  1        3 0.91312709E-02 0.20748556E+03</pdfrwt>
<pdfrwt beam="2">  1       -3 0.20230300E+00 0.20748556E+03</pdfrwt>
<totfact> 0.32552761E+01</totfact>
</mgrwt>
</event>
<event>
 8    1  0.3217375E-004  0.2293994E+03  0.7546771E-02  0.1129983E+00
          2   -1    0    0  501    0  0.00000000000E+00  0.00000000000E+00  0.22075228417E+04  0.22075228417E+04  0.00000000000E+00 0. -1.
         -2   -1    0    0    0  501 -0.00000000000E+00 -0.00000000000E+00 -0.22887192753E+02  0.22887192753E+02  0.00000000000E+00 0.  1.
         25    2    1    2    0    0 -0.18371452801E+03 -0.56998589024E+02  0.13216827007E+04  0.13414429658E+04  0.12499680868E+03 0.  0.
         23    2    1    2    0    0  0.18371452801E+03  0.56998589024E+02  0.86295294829E+03  0.88896706871E+03  0.92600169158E+02 0.  0.
          5    1    3    3  502    0 -0.22235435440E+02 -0.29896126906E+01  0.26209242612E+02  0.34819057591E+02  0.47000000000E+01 0. -1.
         -5    1    3    3    0  502 -0.16147909257E+03 -0.54008976334E+02  0.12954734581E+04  0.13066239082E+04  0.47000000000E+01 0. -1.
          5    1    4    4  503    0  0.13249460276E+03 -0.32291069033E+01  0.48498408139E+03  0.50278911692E+03  0.47000000000E+01 0. -1.
         -5    1    4    4    0  503  0.51219925251E+02  0.60227695928E+02  0.37796886690E+03  0.38617795179E+03  0.47000000000E+01 0.  1.
<mgrwt>
<rscale>  0 0.22531214E+03</rscale>
<asrwt>0</asrwt>
<pdfrwt beam="1">  1        2 0.33961873E+00 0.22939937E+03</pdfrwt>
<pdfrwt beam="2">  1       -2 0.35211083E-02 0.22939937E+03</pdfrwt>
<totfact> 0.19275505E+03</totfact>
</mgrwt>
</event>
<event>
 8    1  0.3217375E-004  0.1281355E+03  0.7546771E-02  0.1244594E+00
         -4   -1    0    0    0  501 -0.00000000000E+00  0.00000000000E+00  0.20931302919E+03  0.20931302919E+03  0.00000000000E+00 0.  1.
          4   -1    0    0  501    0  0.00000000000E+00 -0.00000000000E+00 -0.61331048706E+02  0.61331048706E+02  0.00000000000E+00 0. -1.
         25    2    1    2    0    0 -0.18801865090E+02 -0.20987860282E+02  0.63340465984E+02  0.14293606870E+03  0.12499881877E+03 0.  0.
         23    2    1    2    0    0  0.18801865090E+02  0.20987860282E+02  0.84641514500E+02  0.12770800920E+03  0.91384622485E+02 0.  0.
          5    1    4    4  502    0  0.33320342909E+02  0.42940722611E+02  0.84963228020E+02  0.10097024822E+03  0.47000000000E+01 0. -1.
         -5    1    3    3    0  503  0.32063313042E+01 -0.55865853118E+02 -0.11532824492E+02  0.57326871062E+02  0.47000000000E+01 0. -1.
          5    1    3    3  503    0 -0.22008196395E+02  0.34877992836E+02  0.74873290476E+02  0.85609197634E+02  0.47000000000E+01 0. -1.
         -5    1    4    4    0  502 -0.14518477818E+02 -0.21952862329E+02 -0.32171352009E+00  0.26737760980E+02  0.47000000000E+01 0.  1.
<mgrwt>
<rscale>  0 0.11909703E+03</rscale>
<asrwt>0</asrwt>
<pdfrwt beam="1">  1        4 0.94355461E-02 0.12813550E+03</pdfrwt>
<pdfrwt beam="2">  1       -4 0.32202004E-01 0.12813550E+03</pdfrwt>
<totfact> 0.12655307E+03</totfact>
</mgrwt>
</event>
<event>
 8    1  0.3217375E-004  0.1640798E+03  0.7546771E-02  0.1191136E+00
          1   -1    0    0  501    0  0.00000000000E+00  0.00000000000E+00  0.41216037172E+03  0.41216037172E+03  0.00000000000E+00 0. -1.
         -1   -1    0    0    0  501 -0.00000000000E+00 -0.00000000000E+00 -0.71841708198E+02  0.71841708198E+02  0.00000000000E+00 0.  1.
         25    2    1    2    0    0  0.74893498353E+02 -0.75409357302E+02  0.29275223651E+03  0.33559804309E+03  0.12500626897E+03 0.  0.
         23    2    1    2    0    0 -0.74893498353E+02  0.75409357302E+02  0.47566427017E+02  0.14840403683E+03  0.92008618638E+02 0.  0.
          5    1    3    3  502    0  0.66546961166E+02 -0.10867546968E+03  0.24949713843E+03  0.28019594543E+03  0.47000000000E+01 0.  1.
         -5    1    4    4    0  503 -0.31496559505E+02  0.21342803975E+02 -0.26685135835E+02  0.46709046412E+02  0.47000000000E+01 0.  1.
          5    1    4    4  503    0 -0.43396938848E+02  0.54066553327E+02  0.74251562851E+02  0.10169499042E+03  0.47000000000E+01 0. -1.
         -5    1    3    3    0  502  0.83465371877E+01  0.33266112378E+02  0.43255098077E+02  0.55402097662E+02  0.47000000000E+01 0.  1.
<mgrwt>
<rscale>  0 0.15785849E+03</rscale>
<asrwt>0</asrwt>
<pdfrwt beam="1">  1        1 0.63409287E-01 0.16407978E+03</pdfrwt>
<pdfrwt beam="2">  1       -1 0.11052571E-01 0.16407978E+03</pdfrwt>
<totfact> 0.29758840E+03</totfact>
</mgrwt>
</event>
<event>
 8    1  0.3217375E-004  0.1293871E+03  0.7546771E-02  0.1242310E+00
          4   -1    0    0  501    0  0.00000000000E+00  0.00000000000E+00  0.44308891490E+03  0.44308891490E+03  0.00000000000E+00 0. -1.
         -4   -1    0    0    0  501 -0.00000000000E+00 -0.00000000000E+00 -0.32321165238E+02  0.32321165238E+02  0.00000000000E+00 0.  1.
         25    2    1    2    0    0  0.30276630231E+02 -0.14077053936E+02  0.30716571172E+03  0.33330436553E+03  0.12500475126E+03 0.  0.
         23    2    1    2    0    0 -0.30276630231E+02  0.14077053936E+02  0.10360203794E+03  0.14210571461E+03  0.91355427174E+02 0.  0.
          5    1    3    3  502    0  0.91489351027E+01 -0.65880597521E+02  0.21769050554E+03  0.22767345551E+03  0.47000000000E+01 0. -1.
         -5    1    3    3    0  502  0.21127695129E+02  0.51803543585E+02  0.89475206188E+02  0.10563091002E+03  0.47000000000E+01 0. -1.
          5    1    4    4  503    0 -0.92807053994E+01  0.34131152999E+02  0.13492262840E+01  0.35706827209E+02  0.47000000000E+01 0. -1.
         -5    1    4    4    0  503 -0.20995924832E+02 -0.20054099063E+02  0.10225281166E+03  0.10639888740E+03  0.47000000000E+01 0.  1.
<mgrwt>
<rscale>  0 0.12047818E+03</rscale>
<asrwt>0</asrwt>
<pdfrwt beam="1">  1        4 0.68167521E-01 0.12938712E+03</pdfrwt>
<pdfrwt beam="2">  1       -4 0.49724873E-02 0.12938712E+03</pdfrwt>
<totfact> 0.79768825E+02</totfact>
</mgrwt>
</event>
<event>
 8    1  0.3217375E-004  0.1999849E+03  0.7546771E-02  0.1154132E+00
          2   -1    0    0  501    0  0.00000000000E+00  0.00000000000E+00  0.19260123856E+03  0.19260123856E+03  0.00000000000E+00 0. -1.
         -2   -1    0    0    0  501 -0.00000000000E+00 -0.00000000000E+00 -0.18853771008E+03  0.18853771008E+03  0.00000000000E+00 0.  1.
         25    2    1    2    0    0 -0.86001845046E+02  0.13028078397E+03  0.14438613118E+02  0.20050542432E+03  0.12499820643E+03 0.  0.
         23    2    1    2    0    0  0.86001845046E+02 -0.13028078397E+03 -0.10375084643E+02  0.18063352432E+03  0.90285257400E+02 0.  0.
          5    1    4    4  502    0  0.30561208818E+02 -0.41968748836E+02  0.39061278059E+02  0.65140132076E+02  0.47000000000E+01 0. -1.
         -5    1    3    3    0  503 -0.92910587337E+02  0.80827467083E+02  0.56003944108E+02  0.13536612734E+03  0.47000000000E+01 0.  1.
          5    1    3    3  503    0  0.69087422910E+01  0.49453316889E+02 -0.41565330990E+02  0.65139296985E+02  0.47000000000E+01 0.  1.
         -5    1    4    4    0  502  0.55440636227E+02 -0.88312035137E+02 -0.49436362702E+02  0.11549339225E+03  0.47000000000E+01 0.  1.
<mgrwt>
<rscale>  0 0.19488036E+03</rscale>
<asrwt>0</asrwt>
<pdfrwt beam="1">  1        2 0.29630960E-01 0.19998488E+03</pdfrwt>
<pdfrwt beam="2">  1       -2 0.29005802E-01 0.19998488E+03</pdfrwt>
<totfact> 0.19112876E+03</totfact>
</mgrwt>
</event>
<event>
 8    1  0.3217375E-004  0.1373744E+03  0.7546771E-02  0.1228605E+00
          1   -1    0    0  501    0  0.00000000000E+00  0.00000000000E+00  0.31760247650E+03  0.31760247650E+03  0.00000000000E+00 0. -1.
         -1   -1    0    0    0  501 -0.00000000000E+00 -0.00000000000E+00 -0.80865359945E+02  0.80865359945E+02  0.00000000000E+00 0.  1.
         25    2    1    2    0    0  0.56674036007E+02 -0.58346249288E+01  0.25471709999E+03  0.28940029595E+03  0.12500296421E+03 0.  0.
         23    2    1    2    0    0 -0.56674036007E+02  0.58346249288E+01 -0.17979983444E+02  0.10906754049E+03  0.91249434951E+02 0.  0.
          5    1    3    3  502    0  0.34006417158E+02 -0.15205160512E+02  0.26096835678E+03  0.26365546942E+03  0.47000000000E+01 0.  1.
         -5    1    4    4    0  503 -0.49036002921E+02  0.36799658548E+02 -0.36877619363E+02  0.71699325391E+02  0.47000000000E+01 0.  1.
          5    1    4    4  503    0 -0.76380330864E+01 -0.30965033619E+02  0.18897635919E+02  0.37368215100E+02  0.47000000000E+01 0. -1.
         -5    1    3    3    0  502  0.22667618849E+02  0.93705355827E+01 -0.62512567898E+01  0.25744826526E+02  0.47000000000E+01 0.  1.
<mgrwt>
<rscale>  0 0.12922828E+03</rscale>
<asrwt>0</asrwt>
<pdfrwt beam="1">  1        1 0.48861919E-01 0.13737442E+03</pdfrwt>
<pdfrwt beam="2">  1       -1 0.12440825E-01 0.13737442E+03</pdfrwt>
<totfact> 0.34123205E+03</totfact>
</mgrwt>
</event>
<event>
 8    1  0.3217375E-004  0.1414011E+03  0.7546771E-02  0.1221964E+00
         -2   -1    0    0    0  501 -0.00000000000E+00  0.00000000000E+00  0.34295149922E+03  0.34295149922E+03  0.00000000000E+00 0.  1.
          2   -1    0    0  501    0  0.00000000000E+00 -0.00000000000E+00 -0.64277374801E+02  0.64277374801E+02  0.00000000000E+00 0. -1.
         25    2    1    2    0    0  0.31497275310E+02 -0.58108045362E+02  0.25490121396E+03  0.29149424511E+03  0.12500257105E+03 0.  0.
         23    2    1    2    0    0 -0.31497275310E+02  0.58108045362E+02  0.23772910464E+02  0.11573462891E+03  0.91982225287E+02 0.  0.
          5    1    4    4  502    0 -0.32679791837E+02  0.50685383103E-01 -0.23651317952E+02  0.40613374699E+02  0.47000000000E+01 0. -1.
         -5    1    3    3    0  503  0.49367687304E+02  0.22942657343E+02  0.70292289482E+02  0.89031623799E+02  0.47000000000E+01 0. -1.
          5    1    3    3  503    0 -0.17870411993E+02 -0.81050702706E+02  0.18460892448E+03  0.20246262132E+03  0.47000000000E+01 0. -1.
         -5    1    4    4    0  502  0.11825165269E+01  0.58057359979E+02  0.47424228416E+02  0.75121254209E+02  0.47000000000E+01 0.  1.
<mgrwt>
<rscale>  0 0.13377198E+03</rscale>
<asrwt>0</asrwt>
<pdfrwt beam="1">  1        2 0.98888271E-02 0.14140108E+03</pdfrwt>
<pdfrwt beam="2">  1       -2 0.52761768E-01 0.14140108E+03</pdfrwt>
<totfact> 0.21651953E+03</totfact>
</mgrwt>
</event>
<event>
 8    1  0.3217375E-004  0.1546943E+03  0.7546771E-02  0.1203155E+00
         -1   -1    0    0    0  501 -0.00000000000E+00  0.00000000000E+00  0.10206057391E+03  0.10206057391E+03  0.00000000000E+00 0.  1.
          1   -1    0    0  501    0  0.00000000000E+00 -0.00000000000E+00 -0.20400121384E+03  0.20400121384E+03  0.00000000000E+00 0. -1.
         25    2    1    2    0    0  0.91085735718E+02  0.30611230450E+01 -0.83257745507E+02  0.17567634969E+03  0.12499738368E+03 0.  0.
         23    2    1    2    0    0 -0.91085735718E+02 -0.30611230450E+01 -0.18682894425E+02  0.13038543807E+03  0.91352778775E+02 0.  0.
          5    1    3    3  502    0  0.33782342652E+02 -0.21316034919E+02  0.27362226604E+02  0.48645672618E+02  0.47000000000E+01 0.  1.
         -5    1    3    3    0  502  0.57303393065E+02  0.24377157964E+02 -0.11061997211E+03  0.12703067707E+03  0.47000000000E+01 0.  1.
          5    1    4    4  503    0 -0.94287076815E+02 -0.31397927539E+02 -0.19894845409E+02  0.10145825537E+03  0.47000000000E+01 0. -1.
         -5    1    4    4    0  503  0.32013410971E+01  0.28336804494E+02  0.12119509840E+01  0.28927182700E+02  0.47000000000E+01 0.  1.
<mgrwt>
<rscale>  0 0.14783825E+03</rscale>
<asrwt>0</asrwt>
<pdfrwt beam="1">  1        1 0.31384802E-01 0.15469430E+03</pdfrwt>
<pdfrwt beam="2">  1       -1 0.15701627E-01 0.15469430E+03</pdfrwt>
<totfact> 0.41321945E+03</totfact>
</mgrwt>
</event>
<event>
 8    1  0.3217375E-004  0.1336159E+03  0.7546771E-02  0.1234184E+00
          2   -1    0    0  501    0  0.00000000000E+00  0.00000000000E+00  0.14489600328E+04  0.14489600328E+04  0.00000000000E+00 0. -1.
         -2   -1    0    0    0  501 -0.00000000000E+00 -0.00000000000E+00 -0.11731048513E+02  0.11731048513E+02  0.00000000000E+00 0.  1.
         25    2    1    2    0    0 -0.46445707705E+02 -0.83689479380E+01  0.10899965803E+04  0.10981556154E+04  0.12500387002E+03 0.  0.
         23    2    1    2    0    0  0.46445707705E+02  0.83689479380E+01  0.34723240403E+03  0.36253546595E+03  0.92921357132E+02 0.  0.
          5    1    4    4  502    0  0.43668172993E+02 -0.18355329744E+02  0.32160518363E+03  0.32510892267E+03  0.47000000000E+01 0. -1.
         -5    1    4    4    0  502  0.27775347124E+01  0.26724277682E+02  0.25627220406E+02  0.37426543287E+02  0.47000000000E+01 0.  1.
          5    1    3    3  503    0  0.12702371619E+02  0.49033234811E+02  0.38750902988E+03  0.39083365592E+03  0.47000000000E+01 0. -1.
         -5    1    3    3    0  503 -0.59148079324E+02 -0.57402182749E+02  0.70248755043E+03  0.70732195949E+03  0.47000000000E+01 0. -1.
<mgrwt>
<rscale>  0 0.12556843E+03</rscale>
<asrwt>0</asrwt>
<pdfrwt beam="1">  1        2 0.22291679E+00 0.13361591E+03</pdfrwt>
<pdfrwt beam="2">  1       -2 0.18047778E-02 0.13361591E+03</pdfrwt>
<totfact> 0.12676489E+04</totfact>
</mgrwt>
</event>
<event>
 8    1  0.3217375E-004  0.1944566E+03  0.7546771E-02  0.1159133E+00
          2   -1    0    0  501    0  0.00000000000E+00  0.00000000000E+00  0.20035077860E+03  0.20035077860E+03  0.00000000000E+00 0. -1.
         -2   -1    0    0    0  501 -0.00000000000E+00 -0.00000000000E+00 -0.28462979998E+03  0.28462979998E+03  0.00000000000E+00 0.  1.
         25    2    1    2    0    0 -0.39415112340E+02  0.14365119022E+03 -0.19735792498E+03  0.27706228201E+03  0.12499656808E+03 0.  0.
         23    2    1    2    0    0  0.39415112340E+02 -0.14365119022E+03  0.11307890360E+03  0.20791829656E+03  0.90851329517E+02 0.  0.
          5    1    3    3  502    0 -0.40196428064E+02  0.16561146702E+03 -0.16206931284E+03  0.23522640796E+03  0.47000000000E+01 0.  1.
         -5    1    4    4    0  503  0.24065056944E+02 -0.11082131793E+03  0.30368182686E+02  0.11749386364E+03  0.47000000000E+01 0.  1.
          5    1    4    4  503    0  0.15350055395E+02 -0.32829872282E+02  0.82710720912E+02  0.90424432918E+02  0.47000000000E+01 0. -1.
         -5    1    3    3    0  502  0.78131572414E+00 -0.21960276800E+02 -0.35288612134E+02  0.41835874053E+02  0.47000000000E+01 0.  1.
<mgrwt>
<rscale>  0 0.18925755E+03</rscale>
<asrwt>0</asrwt>
<pdfrwt beam="1">  1        2 0.30823196E-01 0.19445657E+03</pdfrwt>
<pdfrwt beam="2">  1       -2 0.43789200E-01 0.19445657E+03</pdfrwt>
<totfact> 0.84754596E+02</totfact>
</mgrwt>
</event>
<event>
 8    1  0.3217375E-004  0.1329530E+03  0.7546771E-02  0.1235205E+00
         -1   -1    0    0    0  501 -0.00000000000E+00  0.00000000000E+00  0.20946761619E+03  0.20946761619E+03  0.00000000000E+00 0.  1.
          1   -1    0    0  501    0  0.00000000000E+00 -0.00000000000E+00 -0.10258654021E+03  0.10258654021E+03  0.00000000000E+00 0. -1.
         25    2    1    2    0    0  0.23667362470E+02 -0.38605856035E+02  0.14947196232E+03  0.20004593295E+03  0.12500380635E+03 0.  0.
         23    2    1    2    0    0 -0.23667362470E+02  0.38605856035E+02 -0.42590886334E+02  0.11200822345E+03  0.93173506722E+02 0.  0.
          5    1    4    4  502    0 -0.34521591165E+02  0.65257712087E+02 -0.35222281645E+02  0.81932950439E+02  0.47000000000E+01 0. -1.
         -5    1    3    3    0  503 -0.37457155915E+02 -0.56345117488E+02  0.90966965852E+02  0.11346757101E+03  0.47000000000E+01 0.  1.
          5    1    3    3  503    0  0.61124518385E+02  0.17739261453E+02  0.58504996465E+02  0.86578361939E+02  0.47000000000E+01 0.  1.
         -5    1    4    4    0  502  0.10854228695E+02 -0.26651856052E+02 -0.73686046887E+01  0.30075273010E+02  0.47000000000E+01 0.  1.
<mgrwt>
<rscale>  0 0.12491312E+03</rscale>
<asrwt>0</asrwt>
<pdfrwt beam="1">  1        1 0.15782545E-01 0.13295303E+03</pdfrwt>
<pdfrwt beam="2">  1       -1 0.32225787E-01 0.13295303E+03</pdfrwt>
<totfact> 0.30328734E+03</totfact>
</mgrwt>
</event>
<event>
 8    1  0.3217375E-004  0.1472645E+03  0.7546771E-02  0.1213438E+00
          1   -1    0    0  501    0  0.00000000000E+00  0.00000000000E+00  0.96596475959E+03  0.96596475959E+03  0.00000000000E+00 0. -1.
         -1   -1    0    0    0  501 -0.00000000000E+00 -0.00000000000E+00 -0.24274418706E+02  0.24274418706E+02  0.00000000000E+00 0.  1.
         25    2    1    2    0    0 -0.62278537307E+02 -0.46686754823E+02  0.74818663664E+03  0.76254184611E+03  0.12501421733E+03 0.  0.
         23    2    1    2    0    0  0.62278537307E+02  0.46686754823E+02  0.19350370425E+03  0.22769733219E+03  0.91346167107E+02 0.  0.
          5    1    3    3  502    0 -0.87470660061E+02 -0.18184965373E+02  0.66450004741E+03  0.67049549763E+03  0.47000000000E+01 0. -1.
         -5    1    4    4    0  503  0.91103717275E+01  0.32549422671E+02  0.92627928733E+01  0.35360332592E+02  0.47000000000E+01 0.  1.
          5    1    4    4  503    0  0.53168165579E+02  0.14137332152E+02  0.18424091137E+03  0.19233699960E+03  0.47000000000E+01 0. -1.
         -5    1    3    3    0  502  0.25192122755E+02 -0.28501789450E+02  0.83686589232E+02  0.92046348477E+02  0.47000000000E+01 0. -1.
<mgrwt>
<rscale>  0 0.13991936E+03</rscale>
<asrwt>0</asrwt>
<pdfrwt beam="1">  1        1 0.14860993E+00 0.14726447E+03</pdfrwt>
<pdfrwt beam="2">  1       -1 0.37345267E-02 0.14726447E+03</pdfrwt>
<totfact> 0.45314221E+03</totfact>
</mgrwt>
</event>
<event>
 8    1  0.3217375E-004  0.1821596E+03  0.7546771E-02  0.1171339E+00
          2   -1    0    0  501    0  0.00000000000E+00  0.00000000000E+00  0.95055374168E+03  0.95055374168E+03  0.00000000000E+00 0. -1.
         -2   -1    0    0    0  501 -0.00000000000E+00 -0.00000000000E+00 -0.30834469866E+02  0.30834469866E+02  0.00000000000E+00 0.  1.
         25    2    1    2    0    0 -0.11726815196E+01 -0.13248961902E+03  0.49941863885E+03  0.53160238788E+03  0.12500899022E+03 0.  0.
         23    2    1    2    0    0  0.11726815196E+01  0.13248961902E+03  0.42030063296E+03  0.44978582367E+03  0.89998837610E+02 0.  0.
          5    1    3    3  502    0 -0.23935417018E+02 -0.44222990068E+01  0.12844535490E+02  0.27920118343E+02  0.47000000000E+01 0. -1.
         -5    1    4    4    0  503  0.25925734548E+02  0.28663676432E+02  0.44665674708E+02  0.59252532061E+02  0.47000000000E+01 0.  1.
          5    1    4    4  503    0 -0.24753053029E+02  0.10382594259E+03  0.37563495825E+03  0.39053329161E+03  0.47000000000E+01 0. -1.
         -5    1    3    3    0  502  0.22762735498E+02 -0.12806732002E+03  0.48657410336E+03  0.50368226954E+03  0.47000000000E+01 0. -1.
<mgrwt>
<rscale>  0 0.17639442E+03</rscale>
<asrwt>0</asrwt>
<pdfrwt beam="1">  1        2 0.14623901E+00 0.18215961E+03</pdfrwt>
<pdfrwt beam="2">  1       -2 0.47437653E-02 0.18215961E+03</pdfrwt>
<totfact> 0.58857607E+03</totfact>
</mgrwt>
</event>
<event>
 8    1  0.3217375E-004  0.1316322E+03  0.7546771E-02  0.1238029E+00
         -2   -1    0    0    0  501 -0.00000000000E+00  0.00000000000E+00  0.17516030936E+03  0.17516030936E+03  0.00000000000E+00 0.  1.
          2   -1    0    0  501    0  0.00000000000E+00 -0.00000000000E+00 -0.84864200601E+02  0.84864200601E+02  0.00000000000E+00 0. -1.
         25    2    1    2    0    0  0.37856571063E+02  0.16490625975E+02  0.11544453118E+02  0.13213747660E+03  0.12498790985E+03 0.  0.
         23    2    1    2    0    0 -0.37856571063E+02 -0.16490625975E+02  0.78751655640E+02  0.12788703335E+03  0.91914141005E+02 0.  0.
          5    1    3    3  502    0 -0.40443339529E+02 -0.19304536267E+02 -0.60054392729E+00  0.45064170754E+02  0.47000000000E+01 0. -1.
         -5    1    4    4    0  503 -0.78122473942E+01 -0.28509251723E+02  0.88776244163E+02  0.93686285927E+02  0.47000000000E+01 0.  1.
          5    1    4    4  503    0 -0.30044323668E+02  0.12018625748E+02 -0.10024588523E+02  0.34200747428E+02  0.47000000000E+01 0. -1.
         -5    1    3    3    0  502  0.78299910591E+02  0.35795162242E+02  0.12144997045E+02  0.87073305851E+02  0.47000000000E+01 0. -1.
<mgrwt>
<rscale>  0 0.12312532E+03</rscale>
<asrwt>0</asrwt>
<pdfrwt beam="1">  1        2 0.13056031E-01 0.13163221E+03</pdfrwt>
<pdfrwt beam="2">  1       -2 0.26947740E-01 0.13163221E+03</pdfrwt>
<totfact> 0.54322840E+03</totfact>
</mgrwt>
</event>
<event>
 8    1  0.3217375E-004  0.1276306E+03  0.7546771E-02  0.1250373E+00
          2   -1    0    0  501    0  0.00000000000E+00  0.00000000000E+00  0.28818475237E+03  0.28818475237E+03  0.00000000000E+00 0.  1.
         -2   -1    0    0    0  501 -0.00000000000E+00 -0.00000000000E+00 -0.41033695203E+02  0.41033695203E+02  0.00000000000E+00 0. -1.
         25    2    1    2    0    0 -0.12745258829E+02  0.22415788703E+02  0.17633567422E+03  0.21767828451E+03  0.12499862534E+03 0.  0.
         23    2    1    2    0    0  0.12745258829E+02 -0.22415788703E+02  0.70815382942E+02  0.11154016306E+03  0.82228220877E+02 0.  0.
          5    1    4    4  502    0  0.38369194993E+02 -0.14239980176E+02  0.65472838942E+01  0.41712457207E+02  0.47000000000E+01 0. -1.
         -5    1    3    3    0  503 -0.11220035660E+02 -0.30227114381E+02  0.15859445383E+03  0.16190694373E+03  0.47000000000E+01 0. -1.
          5    1    3    3  503    0 -0.15252231683E+01  0.52642903084E+02  0.17741220395E+02  0.55771340776E+02  0.47000000000E+01 0. -1.
         -5    1    4    4    0  502 -0.25623936165E+02 -0.81758085271E+01  0.64268099047E+02  0.69827705854E+02  0.47000000000E+01 0.  1.
<mgrwt>
<rscale>  0 0.11569465E+03</rscale>
<asrwt>0</asrwt>
<pdfrwt beam="1">  1        2 0.44336114E-01 0.12763058E+03</pdfrwt>
<pdfrwt beam="2">  1       -2 0.63128764E-02 0.12763058E+03</pdfrwt>
<totfact> 0.14601843E+04</totfact>
</mgrwt>
</event>
<event>
 8    1  0.3217375E-004  0.1638836E+03  0.7546771E-02  0.1191486E+00
          2   -1    0    0  501    0  0.00000000000E+00  0.00000000000E+00  0.11843679899E+03  0.11843679899E+03  0.00000000000E+00 0. -1.
         -2   -1    0    0    0  501 -0.00000000000E+00 -0.00000000000E+00 -0.19988878219E+03  0.19988878219E+03  0.00000000000E+00 0.  1.
         25    2    1    2    0    0 -0.10544977477E+03  0.10622092377E+02 -0.18826173610E+02  0.16496142492E+03  0.12500145220E+03 0.  0.
         23    2    1    2    0    0  0.10544977477E+03 -0.10622092377E+02 -0.62625809591E+02  0.15336415625E+03  0.91466324675E+02 0.  0.
          5    1    3    3  502    0 -0.27722784661E+02 -0.10591220944E+02 -0.65263870508E+02  0.71848378855E+02  0.47000000000E+01 0.  1.
         -5    1    3    3    0  502 -0.77726990113E+02  0.21213313321E+02  0.46437696898E+02  0.93113046064E+02  0.47000000000E+01 0.  1.
          5    1    4    4  503    0  0.76859919577E+02 -0.49340101356E+02 -0.37226014534E+02  0.98740867918E+02  0.47000000000E+01 0. -1.
         -5    1    4    4    0  503  0.28589855197E+02  0.38718008978E+02 -0.25399795057E+02  0.54623288334E+02  0.47000000000E+01 0.  1.
<mgrwt>
<rscale>  0 0.15755412E+03</rscale>
<asrwt>0</asrwt>
<pdfrwt beam="1">  1        2 0.18221046E-01 0.16388364E+03</pdfrwt>
<pdfrwt beam="2">  1       -2 0.30752120E-01 0.16388364E+03</pdfrwt>
<totfact> 0.29427195E+03</totfact>
</mgrwt>
</event>
<event>
 8    1  0.3217375E-004  0.1557472E+03  0.7546771E-02  0.1201780E+00
         -2   -1    0    0    0  501 -0.00000000000E+00  0.00000000000E+00  0.67670780516E+02  0.67670780516E+02  0.00000000000E+00 0. -1.
          2   -1    0    0  501    0  0.00000000000E+00 -0.00000000000E+00 -0.32091002731E+03  0.32091002731E+03  0.00000000000E+00 0.  1.
         25    2    1    2    0    0  0.59377012301E+02 -0.71461931972E+02 -0.18399319637E+03  0.24106155263E+03  0.12499895412E+03 0.  0.
         23    2    1    2    0    0 -0.59377012301E+02  0.71461931972E+02 -0.69246050417E+02  0.14751925520E+03  0.91293361448E+02 0.  0.
          5    1    4    4  502    0  0.23575875503E+02  0.24133204389E+02 -0.24423780696E+02  0.41914729193E+02  0.47000000000E+01 0. -1.
         -5    1    4    4    0  502 -0.82952887804E+02  0.47328727583E+02 -0.44822269721E+02  0.10560452600E+03  0.47000000000E+01 0.  1.
          5    1    3    3  503    0 -0.42970306335E+01 -0.50732456975E+02 -0.68021345046E+01  0.51581059478E+02  0.47000000000E+01 0. -1.
         -5    1    3    3    0  503  0.63674042935E+02 -0.20729474996E+02 -0.17719106187E+03  0.18948049315E+03  0.47000000000E+01 0. -1.
<mgrwt>
<rscale>  0 0.14894141E+03</rscale>
<asrwt>0</asrwt>
<pdfrwt beam="1">  1        2 0.49370772E-01 0.15574715E+03</pdfrwt>
<pdfrwt beam="2">  1       -2 0.10410890E-01 0.15574715E+03</pdfrwt>
<totfact> 0.60915947E+03</totfact>
</mgrwt>
</event>
<event>
 8    1  0.3217375E-004  0.1358733E+03  0.7546771E-02  0.1230887E+00
          1   -1    0    0  501    0  0.00000000000E+00  0.00000000000E+00  0.75141852166E+03  0.75141852166E+03  0.00000000000E+00 0. -1.
         -1   -1    0    0    0  501 -0.00000000000E+00 -0.00000000000E+00 -0.19622742591E+02  0.19622742591E+02  0.00000000000E+00 0.  1.
         25    2    1    2    0    0  0.53203615611E+02  0.23862864769E+01  0.37734723749E+03  0.40106420630E+03  0.12500096343E+03 0.  0.
         23    2    1    2    0    0 -0.53203615611E+02 -0.23862864769E+01  0.35444854158E+03  0.36997705795E+03  0.91722056803E+02 0.  0.
          5    1    4    4  502    0 -0.32701287180E+02  0.22358781617E+02  0.32058324736E+03  0.32305571932E+03  0.47000000000E+01 0. -1.
         -5    1    3    3    0  503  0.46867582821E+02 -0.32772526144E+02  0.65243688545E+02  0.86887500161E+02  0.47000000000E+01 0. -1.
          5    1    3    3  503    0  0.63360327899E+01  0.35158812621E+02  0.31210354895E+03  0.31417670614E+03  0.47000000000E+01 0. -1.
         -5    1    4    4    0  502 -0.20502328430E+02 -0.24745068094E+02  0.33865294218E+02  0.46921338627E+02  0.47000000000E+01 0.  1.
<mgrwt>
<rscale>  0 0.12771477E+03</rscale>
<asrwt>0</asrwt>
<pdfrwt beam="1">  1        1 0.11560283E+00 0.13587332E+03</pdfrwt>
<pdfrwt beam="2">  1       -1 0.30188840E-02 0.13587332E+03</pdfrwt>
<totfact> 0.91070462E+03</totfact>
</mgrwt>
</event>
<event>
 8    1  0.3217375E-004  0.2227643E+03  0.7546771E-02  0.1134714E+00
         -2   -1    0    0    0  501 -0.00000000000E+00  0.00000000000E+00  0.26045012047E+02  0.26045012047E+02  0.00000000000E+00 0.  1.
          2   -1    0    0  501    0  0.00000000000E+00 -0.00000000000E+00 -0.18209010717E+04  0.18209010717E+04  0.00000000000E+00 0. -1.
         25    2    1    2    0    0 -0.81747966033E+02  0.16527535553E+03 -0.10692607709E+04  0.10922190858E+04  0.12500104854E+03 0.  0.
         23    2    1    2    0    0  0.81747966033E+02 -0.16527535553E+03 -0.72559528878E+03  0.75472699796E+03  0.95528243227E+02 0.  0.
          5    1    4    4  502    0  0.82642116464E+01 -0.83077918334E+02 -0.45278488596E+03  0.46044161482E+03  0.47000000000E+01 0. -1.
         -5    1    3    3    0  503 -0.38342693689E+02  0.10526084745E+03 -0.90563046536E+03  0.91254514297E+03  0.47000000000E+01 0.  1.
          5    1    3    3  503    0 -0.43405272345E+02  0.60014508078E+02 -0.16363030555E+03  0.17967394286E+03  0.47000000000E+01 0.  1.
         -5    1    4    4    0  502  0.73483754387E+02 -0.82197437193E+02 -0.27281040282E+03  0.29428538314E+03  0.47000000000E+01 0.  1.
<mgrwt>
<rscale>  0 0.21888927E+03</rscale>
<asrwt>0</asrwt>
<pdfrwt beam="1">  1        2 0.28013857E+00 0.22276430E+03</pdfrwt>
<pdfrwt beam="2">  1       -2 0.40069257E-02 0.22276430E+03</pdfrwt>
<totfact> 0.25320567E+03</totfact>
</mgrwt>
</event>
<event>
 8    1  0.3217375E-004  0.1659187E+03  0.7546771E-02  0.1188608E+00
         -1   -1    0    0    0  501 -0.00000000000E+00  0.00000000000E+00  0.62407734192E+03  0.62407734192E+03  0.00000000000E+00 0.  1.
          1   -1    0    0  501    0  0.00000000000E+00 -0.00000000000E+00 -0.67607920209E+02  0.67607920209E+02  0.00000000000E+00 0. -1.
         25    2    1    2    0    0  0.76232275883E+02 -0.78065076520E+02  0.62630267538E+02  0.17734590772E+03  0.12499401792E+03 0.  0.
         23    2    1    2    0    0 -0.76232275883E+02  0.78065076520E+02  0.49383915417E+03  0.51433935440E+03  0.93607399485E+02 0.  0.
          5    1    3    3  502    0  0.56725241255E+02 -0.11122935292E+03  0.35040172629E+02  0.12976758318E+03  0.47000000000E+01 0.  1.
         -5    1    3    3    0  502  0.19507034629E+02  0.33164276401E+02  0.27590094909E+02  0.47578324543E+02  0.47000000000E+01 0.  1.
          5    1    4    4  503    0 -0.45501661104E+02  0.22609883720E+02  0.75058260172E+02  0.90760346105E+02  0.47000000000E+01 0. -1.
         -5    1    4    4    0  503 -0.30730614779E+02  0.55455192799E+02  0.41878089400E+03  0.42357900830E+03  0.47000000000E+01 0.  1.
<mgrwt>
<rscale>  0 0.16007867E+03</rscale>
<asrwt>0</asrwt>
<pdfrwt beam="1">  1        1 0.10401219E-01 0.16591872E+03</pdfrwt>
<pdfrwt beam="2">  1       -1 0.96011895E-01 0.16591872E+03</pdfrwt>
<totfact> 0.66834285E+02</totfact>
</mgrwt>
</event>
<event>
 8    1  0.3217375E-004  0.1381053E+03  0.7546771E-02  0.1227954E+00
          4   -1    0    0  501    0  0.00000000000E+00  0.00000000000E+00  0.67697784322E+02  0.67697784322E+02  0.00000000000E+00 0. -1.
         -4   -1    0    0    0  501 -0.00000000000E+00 -0.00000000000E+00 -0.29583720789E+03  0.29583720789E+03  0.00000000000E+00 0.  1.
         25    2    1    2    0    0  0.52316963108E+02  0.26664624153E+02 -0.34819882413E+02  0.14242713293E+03  0.12499998869E+03 0.  0.
         23    2    1    2    0    0 -0.52316963108E+02 -0.26664624153E+02 -0.19331954115E+03  0.22110785929E+03  0.89823012838E+02 0.  0.
          5    1    4    4  502    0 -0.57522295341E+02  0.11737390886E+01 -0.54628453198E+02  0.79476726301E+02  0.47000000000E+01 0. -1.
         -5    1    4    4    0  502  0.52053322335E+01 -0.27838363242E+02 -0.13869108796E+03  0.14163113298E+03  0.47000000000E+01 0.  1.
          5    1    3    3  503    0 -0.19717248357E+02  0.46479683066E+02 -0.43836119129E+02  0.67028547359E+02  0.47000000000E+01 0. -1.
         -5    1    3    3    0  503  0.72034211465E+02 -0.19815058913E+02  0.90162367159E+01  0.75398585568E+02  0.47000000000E+01 0. -1.
<mgrwt>
<rscale>  0 0.12966463E+03</rscale>
<asrwt>0</asrwt>
<pdfrwt beam="1">  1        4 0.10415044E-01 0.13810526E+03</pdfrwt>
<pdfrwt beam="2">  1       -4 0.45513418E-01 0.13810526E+03</pdfrwt>
<totfact> 0.55343843E+02</totfact>
</mgrwt>
</event>
<event>
 8    1  0.3217375E-004  0.1297915E+03  0.7546771E-02  0.1242313E+00
          1   -1    0    0  501    0  0.00000000000E+00  0.00000000000E+00  0.38473629408E+03  0.38473629408E+03  0.00000000000E+00 0. -1.
         -1   -1    0    0    0  501 -0.00000000000E+00 -0.00000000000E+00 -0.33377107717E+02  0.33377107717E+02  0.00000000000E+00 0.  1.
         25    2    1    2    0    0 -0.45713622133E+01  0.34700504008E+02  0.18789432298E+03  0.22836400165E+03  0.12498327212E+03 0.  0.
         23    2    1    2    0    0  0.45713622133E+01 -0.34700504008E+02  0.16346486338E+03  0.18974940015E+03  0.89772217116E+02 0.  0.
          5    1    3    3  502    0  0.35919946432E+02 -0.58796030967E+01  0.16052303654E+03  0.16466495543E+03  0.47000000000E+01 0.  1.
         -5    1    4    4    0  503 -0.34451002053E+02  0.19722948921E+01  0.30368278187E+02  0.46206967112E+02  0.47000000000E+01 0.  1.
          5    1    4    4  503    0  0.39022364266E+02 -0.36672798900E+02  0.13309658519E+03  0.14354243304E+03  0.47000000000E+01 0. -1.
         -5    1    3    3    0  502 -0.40491308645E+02  0.40580107105E+02  0.27371286441E+02  0.63699046224E+02  0.47000000000E+01 0.  1.
<mgrwt>
<rscale>  0 0.12047643E+03</rscale>
<asrwt>0</asrwt>
<pdfrwt beam="1">  1        1 0.59190196E-01 0.12979153E+03</pdfrwt>
<pdfrwt beam="2">  1       -1 0.51349399E-02 0.12979153E+03</pdfrwt>
<totfact> 0.10182485E+04</totfact>
</mgrwt>
</event>
<event>
 8    1  0.3217375E-004  0.1261848E+03  0.7546771E-02  0.1248466E+00
          2   -1    0    0  501    0  0.00000000000E+00  0.00000000000E+00  0.15965613075E+03  0.15965613075E+03  0.00000000000E+00 0. -1.
         -2   -1    0    0    0  501 -0.00000000000E+00 -0.00000000000E+00 -0.78240505813E+02  0.78240505813E+02  0.00000000000E+00 0.  1.
         25    2    1    2    0    0 -0.11225563500E+02  0.13124421726E+02  0.22683406053E+02  0.12820739195E+03  0.12499733884E+03 0.  0.
         23    2    1    2    0    0  0.11225563500E+02 -0.13124421726E+02  0.58732218882E+02  0.10968924461E+03  0.91016444271E+02 0.  0.
          5    1    4    4  502    0  0.20273934931E+02 -0.40045552932E+02  0.66040958208E+02  0.79988604865E+02  0.47000000000E+01 0. -1.
         -5    1    3    3    0  503  0.36114711696E+02  0.52591161171E+02  0.16645743857E+02  0.66100479747E+02  0.47000000000E+01 0.  1.
          5    1    3    3  503    0 -0.47340275196E+02 -0.39466739445E+02  0.60376621961E+01  0.62106912198E+02  0.47000000000E+01 0.  1.
         -5    1    4    4    0  502 -0.90483714316E+01  0.26921131206E+02 -0.73087393259E+01  0.29700639749E+02  0.47000000000E+01 0.  1.
<mgrwt>
<rscale>  0 0.11680338E+03</rscale>
<asrwt>0</asrwt>
<pdfrwt beam="1">  1        2 0.24562482E-01 0.12618478E+03</pdfrwt>
<pdfrwt beam="2">  1       -2 0.12037001E-01 0.12618478E+03</pdfrwt>
<totfact> 0.10102760E+04</totfact>
</mgrwt>
</event>
<event>
 8    1  0.3217375E-004  0.1308767E+03  0.7546771E-02  0.1240781E+00
          2   -1    0    0  501    0  0.00000000000E+00  0.00000000000E+00  0.44019400538E+03  0.44019400538E+03  0.00000000000E+00 0. -1.
         -2   -1    0    0    0  501 -0.00000000000E+00 -0.00000000000E+00 -0.29592620589E+02  0.29592620589E+02  0.00000000000E+00 0.  1.
         25    2    1    2    0    0  0.36583805174E+02 -0.12873675424E+02  0.22118047684E+03  0.25700097607E+03  0.12499836817E+03 0.  0.
         23    2    1    2    0    0 -0.36583805174E+02  0.12873675424E+02  0.18942090795E+03  0.21278564990E+03  0.88844505258E+02 0.  0.
          5    1    4    4  502    0  0.14842790805E+02 -0.22061208487E+02  0.10131227095E+03  0.10484880354E+03  0.47000000000E+01 0. -1.
         -5    1    3    3    0  503 -0.15611131028E+02 -0.58364626679E+02  0.11806274346E+03  0.13270658783E+03  0.47000000000E+01 0.  1.
          5    1    3    3  503    0  0.52194936202E+02  0.45490951255E+02  0.10311773339E+03  0.12429438825E+03  0.47000000000E+01 0.  1.
         -5    1    4    4    0  502 -0.51426595979E+02  0.34934883911E+02  0.88108636998E+02  0.10793684636E+03  0.47000000000E+01 0.  1.
<mgrwt>
<rscale>  0 0.12141516E+03</rscale>
<asrwt>0</asrwt>
<pdfrwt beam="1">  1        2 0.67722150E-01 0.13087665E+03</pdfrwt>
<pdfrwt beam="2">  1       -2 0.45527112E-02 0.13087665E+03</pdfrwt>
<totfact> 0.15257240E+04</totfact>
</mgrwt>
</event>
<event>
 8    1  0.3217375E-004  0.1515755E+03  0.7546771E-02  0.1206843E+00
         -3   -1    0    0    0  501 -0.00000000000E+00  0.00000000000E+00  0.50935794071E+03  0.50935794071E+03  0.00000000000E+00 0.  1.
          3   -1    0    0  501    0  0.00000000000E+00 -0.00000000000E+00 -0.38312106325E+02  0.38312106325E+02  0.00000000000E+00 0. -1.
         25    2    1    2    0    0  0.85597276053E+02  0.48394074203E+01  0.28078246759E+03  0.31908296619E+03  0.12499932668E+03 0.  0.
         23    2    1    2    0    0 -0.85597276053E+02 -0.48394074203E+01  0.19026336679E+03  0.22858708085E+03  0.93282320170E+02 0.  0.
          5    1    3    3  502    0  0.61529406522E+02  0.13312619482E+02  0.28577272765E+03  0.29266232346E+03  0.47000000000E+01 0.  1.
         -5    1    4    4    0  503 -0.96464350074E+01 -0.40876596302E+02  0.70289612679E+02  0.82016275727E+02  0.47000000000E+01 0.  1.
          5    1    4    4  503    0 -0.75950841046E+02  0.36037188882E+02  0.11997375411E+03  0.14657080512E+03  0.47000000000E+01 0. -1.
         -5    1    3    3    0  502  0.24067869531E+02 -0.84732120618E+01 -0.49902600597E+01  0.26420642723E+02  0.47000000000E+01 0.  1.
<mgrwt>
<rscale>  0 0.14493146E+03</rscale>
<asrwt>0</asrwt>
<pdfrwt beam="1">  1        3 0.58941706E-02 0.15157554E+03</pdfrwt>
<pdfrwt beam="2">  1       -3 0.78362755E-01 0.15157554E+03</pdfrwt>
<totfact> 0.64287761E+02</totfact>
</mgrwt>
</event>
<event>
 8    1  0.3217375E-004  0.1306137E+03  0.7546771E-02  0.1241521E+00
          2   -1    0    0  501    0  0.00000000000E+00  0.00000000000E+00  0.21123966728E+03  0.21123966728E+03  0.00000000000E+00 0. -1.
         -2   -1    0    0    0  501 -0.00000000000E+00 -0.00000000000E+00 -0.62430796663E+02  0.62430796663E+02  0.00000000000E+00 0.  1.
         25    2    1    2    0    0  0.31282062304E+02  0.21390994528E+02  0.63693073814E+02  0.14531603842E+03  0.12499520511E+03 0.  0.
         23    2    1    2    0    0 -0.31282062304E+02 -0.21390994528E+02  0.85115796799E+02  0.12835442552E+03  0.88283733591E+02 0.  0.
          5    1    3    3  502    0  0.36872959290E+02 -0.23407542410E+02  0.84613695177E+02  0.95336748318E+02  0.47000000000E+01 0.  1.
         -5    1    3    3    0  502 -0.55908969855E+01  0.44798536937E+02 -0.20920621363E+02  0.49979290101E+02  0.47000000000E+01 0.  1.
          5    1    4    4  503    0 -0.40102968544E+02 -0.48868060992E+02  0.73061656905E+02  0.96728647158E+02  0.47000000000E+01 0. -1.
         -5    1    4    4    0  503  0.88209062403E+01  0.27477066464E+02  0.12054139894E+02  0.31625778361E+02  0.47000000000E+01 0.  1.
<mgrwt>
<rscale>  0 0.12096027E+03</rscale>
<asrwt>0</asrwt>
<pdfrwt beam="1">  1        2 0.32498410E-01 0.13061372E+03</pdfrwt>
<pdfrwt beam="2">  1       -2 0.96047381E-02 0.13061372E+03</pdfrwt>
<totfact> 0.10670732E+04</totfact>
</mgrwt>
</event>
<event>
 8    1  0.3217375E-004  0.1336011E+03  0.7546771E-02  0.1233252E+00
          2   -1    0    0  501    0  0.00000000000E+00  0.00000000000E+00  0.24560004336E+03  0.24560004336E+03  0.00000000000E+00 0. -1.
         -2   -1    0    0    0  501 -0.00000000000E+00 -0.00000000000E+00 -0.67425036031E+02  0.67425036031E+02  0.00000000000E+00 0.  1.
         25    2    1    2    0    0 -0.30344288782E+01  0.47046443210E+02  0.15431540424E+03  0.20411396474E+03  0.12500676397E+03 0.  0.
         23    2    1    2    0    0  0.30344288782E+01 -0.47046443210E+02  0.23859603084E+02  0.10891111465E+03  0.95235364527E+02 0.  0.
          5    1    4    4  502    0 -0.56904264961E+01 -0.73430576204E+02  0.30253070638E+01  0.73862527429E+02  0.47000000000E+01 0. -1.
         -5    1    3    3    0  503 -0.56102563766E+02  0.56017270944E+01  0.10902020857E+03  0.12282659681E+03  0.47000000000E+01 0. -1.
          5    1    3    3  503    0  0.53068134888E+02  0.41444716116E+02  0.45295195673E+02  0.81287367933E+02  0.47000000000E+01 0. -1.
         -5    1    4    4    0  502  0.87248553744E+01  0.26384132994E+02  0.20834296020E+02  0.35048587216E+02  0.47000000000E+01 0.  1.
<mgrwt>
<rscale>  0 0.12616988E+03</rscale>
<asrwt>0</asrwt>
<pdfrwt beam="1">  1        2 0.37784622E-01 0.13360115E+03</pdfrwt>
<pdfrwt beam="2">  1       -2 0.10373083E-01 0.13360115E+03</pdfrwt>
<totfact> 0.80614920E+03</totfact>
</mgrwt>
</event>
<event>
 8    1  0.3217375E-004  0.1792719E+03  0.7546771E-02  0.1174414E+00
          2   -1    0    0  501    0  0.00000000000E+00  0.00000000000E+00  0.95938931548E+03  0.95938931548E+03  0.00000000000E+00 0. -1.
         -2   -1    0    0    0  501 -0.00000000000E+00 -0.00000000000E+00 -0.48021117954E+02  0.48021117954E+02  0.00000000000E+00 0.  1.
         25    2    1    2    0    0 -0.47253887221E+02  0.11950694060E+03  0.16130818753E+03  0.24116124949E+03  0.12499431259E+03 0.  0.
         23    2    1    2    0    0  0.47253887221E+02 -0.11950694060E+03  0.75006000999E+03  0.76624918395E+03  0.89626751583E+02 0.  0.
          5    1    4    4  502    0  0.72017481663E+02 -0.95565697935E+02  0.52243214628E+03  0.53598204985E+03  0.47000000000E+01 0. -1.
         -5    1    4    4    0  502 -0.24763594441E+02 -0.23941242666E+02  0.22762786371E+03  0.23026713410E+03  0.47000000000E+01 0.  1.
          5    1    3    3  503    0 -0.68059804915E+02  0.45908593565E+02  0.27032585886E+02  0.86559729135E+02  0.47000000000E+01 0. -1.
         -5    1    3    3    0  503  0.20805917694E+02  0.73598347035E+02  0.13427560165E+03  0.15460152035E+03  0.47000000000E+01 0. -1.
<mgrwt>
<rscale>  0 0.17333479E+03</rscale>
<asrwt>0</asrwt>
<pdfrwt beam="1">  1        2 0.14759834E+00 0.17927191E+03</pdfrwt>
<pdfrwt beam="2">  1       -2 0.73878650E-02 0.17927191E+03</pdfrwt>
<totfact> 0.29544976E+03</totfact>
</mgrwt>
</event>
<event>
 8    1  0.3217375E-004  0.1428407E+03  0.7546771E-02  0.1220173E+00
         -2   -1    0    0    0  501 -0.00000000000E+00  0.00000000000E+00  0.36244321299E+02  0.36244321299E+02  0.00000000000E+00 0.  1.
          2   -1    0    0  501    0  0.00000000000E+00 -0.00000000000E+00 -0.47172527079E+03  0.47172527079E+03  0.00000000000E+00 0. -1.
         25    2    1    2    0    0  0.45171804487E+02  0.52321880407E+02 -0.28837704145E+03  0.32181485032E+03  0.12500163503E+03 0.  0.
         23    2    1    2    0    0 -0.45171804487E+02 -0.52321880407E+02 -0.14710390805E+03  0.18615474177E+03  0.90752173705E+02 0.  0.
          5    1    3    3  502    0  0.52053117463E+02  0.72814680299E+02 -0.10918325058E+03  0.14126067008E+03  0.47000000000E+01 0. -1.
         -5    1    3    3    0  502 -0.68813129761E+01 -0.20492799892E+02 -0.17919379086E+03  0.18055418023E+03  0.47000000000E+01 0. -1.
          5    1    4    4  503    0  0.15063001431E+02 -0.51275193287E+02 -0.68414908193E+02  0.86940951926E+02  0.47000000000E+01 0. -1.
         -5    1    4    4    0  503 -0.60234805917E+02 -0.10466871194E+01 -0.78688999852E+02  0.99213789846E+02  0.47000000000E+01 0.  1.
<mgrwt>
<rscale>  0 0.13503320E+03</rscale>
<asrwt>0</asrwt>
<pdfrwt beam="1">  1        2 0.72573115E-01 0.14284075E+03</pdfrwt>
<pdfrwt beam="2">  1       -2 0.55760497E-02 0.14284075E+03</pdfrwt>
<totfact> 0.10506871E+04</totfact>
</mgrwt>
</event>
<event>
 8    1  0.3217375E-004  0.2059718E+03  0.7546771E-02  0.1148561E+00
         -1   -1    0    0    0  501 -0.00000000000E+00  0.00000000000E+00  0.63061519503E+02  0.63061519503E+02  0.00000000000E+00 0.  1.
          1   -1    0    0  501    0  0.00000000000E+00 -0.00000000000E+00 -0.73643637983E+03  0.73643637983E+03  0.00000000000E+00 0. -1.
         25    2    1    2    0    0  0.16006166002E+03  0.34343828849E+02 -0.51067745381E+03  0.55065037820E+03  0.12500057440E+03 0.  0.
         23    2    1    2    0    0 -0.16006166002E+03 -0.34343828849E+02 -0.16269740652E+03  0.24884752113E+03  0.93034451129E+02 0.  0.
          5    1    3    3  502    0  0.11606409753E+03 -0.19387101325E+02 -0.19848329418E+03  0.23079090645E+03  0.47000000000E+01 0. -1.
         -5    1    4    4    0  503 -0.10276910542E+03 -0.66291929711E+02 -0.10117938225E+03  0.15879378566E+03  0.47000000000E+01 0.  1.
          5    1    4    4  503    0 -0.57292554600E+02  0.31948100862E+02 -0.61518024269E+02  0.90053735465E+02  0.47000000000E+01 0. -1.
         -5    1    3    3    0  502  0.43997562489E+02  0.53730930175E+02 -0.31219415963E+03  0.31985947175E+03  0.47000000000E+01 0. -1.
<mgrwt>
<rscale>  0 0.20140254E+03</rscale>
<asrwt>0</asrwt>
<pdfrwt beam="1">  1        1 0.11329790E+00 0.20597179E+03</pdfrwt>
<pdfrwt beam="2">  1       -1 0.97017725E-02 0.20597179E+03</pdfrwt>
<totfact> 0.16651695E+03</totfact>
</mgrwt>
</event>
<event>
 8    1  0.3217375E-004  0.1713369E+03  0.7546771E-02  0.1182958E+00
          1   -1    0    0  501    0  0.00000000000E+00  0.00000000000E+00  0.10008744340E+04  0.10008744340E+04  0.00000000000E+00 0. -1.
         -1   -1    0    0    0  501 -0.00000000000E+00 -0.00000000000E+00 -0.26564987144E+02  0.26564987144E+02  0.00000000000E+00 0.  1.
         25    2    1    2    0    0  0.30683470724E+02 -0.11309601328E+03  0.41761856093E+03  0.45139958913E+03  0.12499657208E+03 0.  0.
         23    2    1    2    0    0 -0.30683470724E+02  0.11309601328E+03  0.55669088590E+03  0.57603983199E+03  0.90470779825E+02 0.  0.
          5    1    4    4  502    0 -0.31385508939E+02  0.37478012283E+02  0.38824004649E+03  0.39133371344E+03  0.47000000000E+01 0. -1.
         -5    1    4    4    0  502  0.70203821471E+00  0.75618001001E+02  0.16845083941E+03  0.18470611855E+03  0.47000000000E+01 0.  1.
          5    1    3    3  503    0 -0.32236460503E+02 -0.95043920187E+02  0.30420035605E+03  0.32036304838E+03  0.47000000000E+01 0.  1.
         -5    1    3    3    0  503  0.62919931227E+02 -0.18052093097E+02  0.11341820489E+03  0.13103654075E+03  0.47000000000E+01 0.  1.
<mgrwt>
<rscale>  0 0.16519091E+03</rscale>
<asrwt>0</asrwt>
<pdfrwt beam="1">  1        1 0.15398065E+00 0.17133688E+03</pdfrwt>
<pdfrwt beam="2">  1       -1 0.40869219E-02 0.17133688E+03</pdfrwt>
<totfact> 0.37563807E+03</totfact>
</mgrwt>
</event>
<event>
 8    1  0.3217375E-004  0.1709578E+03  0.7546771E-02  0.1183116E+00
          2   -1    0    0  501    0  0.00000000000E+00  0.00000000000E+00  0.95887007211E+03  0.95887007211E+03  0.00000000000E+00 0. -1.
         -2   -1    0    0    0  501 -0.00000000000E+00 -0.00000000000E+00 -0.29734300554E+02  0.29734300554E+02  0.00000000000E+00 0.  1.
         25    2    1    2    0    0  0.74773938977E+02  0.89504502161E+02  0.33387321865E+03  0.37509716800E+03  0.12499744578E+03 0.  0.
         23    2    1    2    0    0 -0.74773938977E+02 -0.89504502161E+02  0.59526255290E+03  0.61350720466E+03  0.91931416959E+02 0.  0.
          5    1    4    4  502    0 -0.81664249594E+02 -0.33195881071E+02  0.42196195395E+03  0.43109743303E+03  0.47000000000E+01 0. -1.
         -5    1    4    4    0  502  0.68903106177E+01 -0.56308621090E+02  0.17330059895E+03  0.18240977163E+03  0.47000000000E+01 0.  1.
          5    1    3    3  503    0  0.92397076677E+02  0.21489661846E+02  0.14318954981E+03  0.17182654777E+03  0.47000000000E+01 0. -1.
         -5    1    3    3    0  503 -0.17623137700E+02  0.68014840315E+02  0.19068366884E+03  0.20327062022E+03  0.47000000000E+01 0. -1.
<mgrwt>
<rscale>  0 0.16504468E+03</rscale>
<asrwt>0</asrwt>
<pdfrwt beam="1">  1        2 0.14751845E+00 0.17095777E+03</pdfrwt>
<pdfrwt beam="2">  1       -2 0.45745085E-02 0.17095777E+03</pdfrwt>
<totfact> 0.61287937E+03</totfact>
</mgrwt>
</event>
<event>
 8    1  0.3217375E-004  0.1537689E+03  0.7546771E-02  0.1204253E+00
          2   -1    0    0  501    0  0.00000000000E+00  0.00000000000E+00  0.93359002236E+03  0.93359002236E+03  0.00000000000E+00 0. -1.
         -2   -1    0    0    0  501 -0.00000000000E+00 -0.00000000000E+00 -0.31643367331E+02  0.31643367331E+02  0.00000000000E+00 0.  1.
         25    2    1    2    0    0 -0.17716178795E+02  0.87782378145E+02  0.75346011191E+03  0.76899090402E+03  0.12500104524E+03 0.  0.
         23    2    1    2    0    0  0.17716178795E+02 -0.87782378145E+02  0.14848654311E+03  0.19624248567E+03  0.91887163375E+02 0.  0.
          5    1    3    3  502    0 -0.30149928659E+02 -0.13110877166E+02  0.64427339051E+02  0.72483689996E+02  0.47000000000E+01 0. -1.
         -5    1    3    3    0  502  0.12433749864E+02  0.10089325531E+03  0.68903277286E+03  0.69650721402E+03  0.47000000000E+01 0. -1.
          5    1    4    4  503    0  0.36572193494E+02 -0.39644398828E+02  0.13052851260E+03  0.14131166370E+03  0.47000000000E+01 0. -1.
         -5    1    4    4    0  503 -0.18856014699E+02 -0.48137979317E+02  0.17958030516E+02  0.54930821977E+02  0.47000000000E+01 0.  1.
<mgrwt>
<rscale>  0 0.14696520E+03</rscale>
<asrwt>0</asrwt>
<pdfrwt beam="1">  1        2 0.14362921E+00 0.15376889E+03</pdfrwt>
<pdfrwt beam="2">  1       -2 0.48682111E-02 0.15376889E+03</pdfrwt>
<totfact> 0.57617138E+03</totfact>
</mgrwt>
</event>
<event>
 8    1  0.3217375E-004  0.1755132E+03  0.7546771E-02  0.1178560E+00
         -3   -1    0    0    0  501 -0.00000000000E+00  0.00000000000E+00  0.37729167641E+03  0.37729167641E+03  0.00000000000E+00 0.  1.
          3   -1    0    0  501    0  0.00000000000E+00 -0.00000000000E+00 -0.71420363380E+02  0.71420363380E+02  0.00000000000E+00 0. -1.
         25    2    1    2    0    0  0.10718365528E+03  0.60758897212E+02  0.14846452312E+03  0.22988384772E+03  0.12499955707E+03 0.  0.
         23    2    1    2    0    0 -0.10718365528E+03 -0.60758897212E+02  0.15740678991E+03  0.21882819208E+03  0.89044374257E+02 0.  0.
          5    1    4    4  502    0 -0.84499245885E+02 -0.97935600564E+01  0.52931881654E+02  0.10029910503E+03  0.47000000000E+01 0. -1.
         -5    1    4    4    0  502 -0.22684409395E+02 -0.50965337156E+02  0.10447490826E+03  0.11852908705E+03  0.47000000000E+01 0.  1.
          5    1    3    3  503    0  0.10073226803E+02  0.60306730532E+02  0.10877467306E+03  0.12486949645E+03  0.47000000000E+01 0.  1.
         -5    1    3    3    0  503  0.97110428477E+02  0.45216667983E+00  0.39689850064E+02  0.10501435127E+03  0.47000000000E+01 0.  1.
<mgrwt>
<rscale>  0 0.16931858E+03</rscale>
<asrwt>0</asrwt>
<pdfrwt beam="1">  1        3 0.10987748E-01 0.17551316E+03</pdfrwt>
<pdfrwt beam="2">  1       -3 0.58044872E-01 0.17551316E+03</pdfrwt>
<totfact> 0.44641733E+02</totfact>
</mgrwt>
</event>
<event>
 8    1  0.3217375E-004  0.1496703E+03  0.7546771E-02  0.1209006E+00
          1   -1    0    0  501    0  0.00000000000E+00  0.00000000000E+00  0.14480029835E+03  0.14480029835E+03  0.00000000000E+00 0. -1.
         -1   -1    0    0    0  501 -0.00000000000E+00 -0.00000000000E+00 -0.13814460108E+03  0.13814460108E+03  0.00000000000E+00 0.  1.
         25    2    1    2    0    0 -0.74947823138E+02 -0.34040528534E+02 -0.28769924080E+02  0.15241034080E+03  0.12500107870E+03 0.  0.
         23    2    1    2    0    0  0.74947823138E+02  0.34040528534E+02  0.35425621344E+02  0.13053455862E+03  0.94912394193E+02 0.  0.
          5    1    4    4  502    0  0.72997048787E+02 -0.11449533741E+02  0.40649226065E+02  0.84463663987E+02  0.47000000000E+01 0. -1.
         -5    1    4    4    0  502  0.19507743516E+01  0.45490062275E+02 -0.52236047210E+01  0.46070894636E+02  0.47000000000E+01 0.  1.
          5    1    3    3  503    0 -0.19679693276E+02 -0.32123441693E+02 -0.72442246399E+02  0.81787376146E+02  0.47000000000E+01 0.  1.
         -5    1    3    3    0  503 -0.55268129862E+02 -0.19170868415E+01  0.43672322319E+02  0.70622964658E+02  0.47000000000E+01 0.  1.
<mgrwt>
<rscale>  0 0.14326164E+03</rscale>
<asrwt>0</asrwt>
<pdfrwt beam="1">  1        1 0.22276969E-01 0.14967032E+03</pdfrwt>
<pdfrwt beam="2">  1       -1 0.21253015E-01 0.14967032E+03</pdfrwt>
<totfact> 0.39115189E+03</totfact>
</mgrwt>
</event>
<event>
 8    1  0.3217375E-004  0.1270799E+03  0.7546771E-02  0.1246965E+00
          2   -1    0    0  501    0  0.00000000000E+00  0.00000000000E+00  0.13099396003E+03  0.13099396003E+03  0.00000000000E+00 0. -1.
         -2   -1    0    0    0  501 -0.00000000000E+00 -0.00000000000E+00 -0.12029622246E+03  0.12029622246E+03  0.00000000000E+00 0.  1.
         25    2    1    2    0    0 -0.64081763691E+01  0.21978354122E+02  0.65473988897E+02  0.14295501981E+03  0.12500072677E+03 0.  0.
         23    2    1    2    0    0  0.64081763691E+01 -0.21978354122E+02 -0.54776251326E+02  0.10833516268E+03  0.90619848758E+02 0.  0.
          5    1    3    3  502    0 -0.42714219819E+02 -0.26764593281E+02 -0.36914053121E+01  0.50759870976E+02  0.47000000000E+01 0.  1.
         -5    1    4    4    0  503  0.32432387217E+02  0.20057318992E+02 -0.42269338028E+02  0.57122173655E+02  0.47000000000E+01 0.  1.
          5    1    4    4  503    0 -0.26024210848E+02 -0.42035673114E+02 -0.12506913298E+02  0.51212989023E+02  0.47000000000E+01 0. -1.
         -5    1    3    3    0  502  0.36306043450E+02  0.48742947403E+02  0.69165394209E+02  0.92195148834E+02  0.47000000000E+01 0.  1.
<mgrwt>
<rscale>  0 0.11768527E+03</rscale>
<asrwt>0</asrwt>
<pdfrwt beam="1">  1        2 0.20152917E-01 0.12707987E+03</pdfrwt>
<pdfrwt beam="2">  1       -2 0.18507111E-01 0.12707987E+03</pdfrwt>
<totfact> 0.62477964E+03</totfact>
</mgrwt>
</event>
<event>
 8    1  0.3217375E-004  0.1608203E+03  0.7546771E-02  0.1194104E+00
          2   -1    0    0  501    0  0.00000000000E+00  0.00000000000E+00  0.48581941016E+03  0.48581941016E+03  0.00000000000E+00 0.  1.
         -2   -1    0    0    0  501 -0.00000000000E+00 -0.00000000000E+00 -0.68627628794E+02  0.68627628794E+02  0.00000000000E+00 0. -1.
         25    2    1    2    0    0 -0.78899342411E+02  0.63349554328E+02  0.61382146409E+02  0.17213639072E+03  0.12499958738E+03 0.  0.
         23    2    1    2    0    0  0.78899342411E+02 -0.63349554328E+02  0.35580963496E+03  0.38231064824E+03  0.96553939122E+02 0.  0.
          5    1    3    3  502    0 -0.43068261344E+02  0.63534897805E+02 -0.23062342424E+02  0.80283995992E+02  0.47000000000E+01 0. -1.
         -5    1    3    3    0  502 -0.35831081067E+02 -0.18534347759E+00  0.84444488833E+02  0.91852394726E+02  0.47000000000E+01 0. -1.
          5    1    4    4  503    0  0.38528816475E+02 -0.84950133997E+02  0.22377808633E+03  0.24248652929E+03  0.47000000000E+01 0. -1.
         -5    1    4    4    0  503  0.40370525937E+02  0.21600579669E+02  0.13203154863E+03  0.13982411895E+03  0.47000000000E+01 0.  1.
<mgrwt>
<rscale>  0 0.15530282E+03</rscale>
<asrwt>0</asrwt>
<pdfrwt beam="1">  1        2 0.74741446E-01 0.16082030E+03</pdfrwt>
<pdfrwt beam="2">  1       -2 0.10558097E-01 0.16082030E+03</pdfrwt>
<totfact> 0.38181423E+03</totfact>
</mgrwt>
</event>
<event>
 8    1  0.3217375E-004  0.1369873E+03  0.7546771E-02  0.1230205E+00
          2   -1    0    0  501    0  0.00000000000E+00  0.00000000000E+00  0.10475589524E+03  0.10475589524E+03  0.00000000000E+00 0. -1.
         -2   -1    0    0    0  501 -0.00000000000E+00 -0.00000000000E+00 -0.17478530637E+03  0.17478530637E+03  0.00000000000E+00 0.  1.
         25    2    1    2    0    0 -0.52173119723E+02 -0.20448938338E+02 -0.10089711361E+03  0.17013451461E+03  0.12500132810E+03 0.  0.
         23    2    1    2    0    0  0.52173119723E+02  0.20448938338E+02  0.30867702490E+02  0.10940668700E+03  0.88751420281E+02 0.  0.
          5    1    4    4  502    0 -0.15706062805E+02  0.13334969262E+02 -0.15977219031E+02  0.26492703562E+02  0.47000000000E+01 0. -1.
         -5    1    4    4    0  502  0.67879182529E+02  0.71139690755E+01  0.46844921521E+02  0.82913983435E+02  0.47000000000E+01 0.  1.
          5    1    3    3  503    0  0.21872565464E+02  0.35336199894E+02 -0.17462639304E+02  0.45322068734E+02  0.47000000000E+01 0.  1.
         -5    1    3    3    0  503 -0.74045685187E+02 -0.55785138232E+02 -0.83434474309E+02  0.12481244588E+03  0.47000000000E+01 0.  1.
<mgrwt>
<rscale>  0 0.12816464E+03</rscale>
<asrwt>0</asrwt>
<pdfrwt beam="1">  1        2 0.16116292E-01 0.13698732E+03</pdfrwt>
<pdfrwt beam="2">  1       -2 0.26890047E-01 0.13698732E+03</pdfrwt>
<totfact> 0.42687762E+03</totfact>
</mgrwt>
</event>
<event>
 8    1  0.3217375E-004  0.1255200E+03  0.7546771E-02  0.1249873E+00
          1   -1    0    0  501    0  0.00000000000E+00  0.00000000000E+00  0.85999340209E+02  0.85999340209E+02  0.00000000000E+00 0. -1.
         -1   -1    0    0    0  501 -0.00000000000E+00 -0.00000000000E+00 -0.14934716729E+03  0.14934716729E+03  0.00000000000E+00 0.  1.
         25    2    1    2    0    0  0.82962402330E+01  0.79196503942E+01 -0.69781517519E+02  0.14361313629E+03  0.12499489695E+03 0.  0.
         23    2    1    2    0    0 -0.82962402330E+01 -0.79196503942E+01  0.64336904355E+01  0.91733371207E+02  0.90785849977E+02 0.  0.
          5    1    4    4  502    0  0.22707984841E+02  0.25773548673E+02  0.24322835664E+02  0.42351136012E+02  0.47000000000E+01 0. -1.
         -5    1    4    4    0  502 -0.31004225074E+02 -0.33693199068E+02 -0.17889145228E+02  0.49382235195E+02  0.47000000000E+01 0.  1.
          5    1    3    3  503    0 -0.29788343982E+02  0.20627336718E+02  0.22470551201E+02  0.42893450881E+02  0.47000000000E+01 0.  1.
         -5    1    3    3    0  503  0.38084584215E+02 -0.12707686323E+02 -0.92252068720E+02  0.10071968541E+03  0.47000000000E+01 0.  1.
<mgrwt>
<rscale>  0 0.11598421E+03</rscale>
<asrwt>0</asrwt>
<pdfrwt beam="1">  1        1 0.13230668E-01 0.12552001E+03</pdfrwt>
<pdfrwt beam="2">  1       -1 0.22976487E-01 0.12552001E+03</pdfrwt>
<totfact> 0.66538229E+03</totfact>
</mgrwt>
</event>
<event>
 8    1  0.3217375E-004  0.1369238E+03  0.7546771E-02  0.1229545E+00
          2   -1    0    0  501    0  0.00000000000E+00  0.00000000000E+00  0.39453929753E+03  0.39453929753E+03  0.00000000000E+00 0. -1.
         -2   -1    0    0    0  501 -0.00000000000E+00 -0.00000000000E+00 -0.37573458976E+02  0.37573458976E+02  0.00000000000E+00 0.  1.
         25    2    1    2    0    0  0.22162428295E+02  0.51338880641E+02  0.20439094622E+03  0.24601583292E+03  0.12498510815E+03 0.  0.
         23    2    1    2    0    0 -0.22162428295E+02 -0.51338880641E+02  0.15257489234E+03  0.18609692359E+03  0.90697923367E+02 0.  0.
          5    1    3    3  502    0 -0.23315802013E+02  0.30768229951E+02  0.35947364415E+01  0.39055380268E+02  0.47000000000E+01 0.  1.
         -5    1    4    4    0  503  0.32114856242E+02 -0.10831518194E+02  0.27953598003E+02  0.44183474503E+02  0.47000000000E+01 0.  1.
          5    1    4    4  503    0 -0.54277284537E+02 -0.40507362448E+02  0.12462129434E+03  0.14191344908E+03  0.47000000000E+01 0. -1.
         -5    1    3    3    0  502  0.45478230308E+02  0.20570650690E+02  0.20079620977E+03  0.20696045265E+03  0.47000000000E+01 0.  1.
<mgrwt>
<rscale>  0 0.12860206E+03</rscale>
<asrwt>0</asrwt>
<pdfrwt beam="1">  1        2 0.60698351E-01 0.13692382E+03</pdfrwt>
<pdfrwt beam="2">  1       -2 0.57805324E-02 0.13692382E+03</pdfrwt>
<totfact> 0.12026871E+04</totfact>
</mgrwt>
</event>
<event>
 8    1  0.3217375E-004  0.1504824E+03  0.7546771E-02  0.1208862E+00
          4   -1    0    0  501    0  0.00000000000E+00  0.00000000000E+00  0.12661179588E+04  0.12661179588E+04  0.00000000000E+00 0.  1.
         -4   -1    0    0    0  501 -0.00000000000E+00 -0.00000000000E+00 -0.14988607625E+02  0.14988607625E+02  0.00000000000E+00 0. -1.
         25    2    1    2    0    0 -0.80004642723E+02 -0.24877260122E+02  0.74081812223E+03  0.75594738554E+03  0.12500135422E+03 0.  0.
         23    2    1    2    0    0  0.80004642723E+02  0.24877260122E+02  0.51031122893E+03  0.52515918087E+03  0.91405655997E+02 0.  0.
          5    1    3    3  502    0 -0.23784213575E+02  0.50683140340E+02  0.27548352738E+03  0.28115428751E+03  0.47000000000E+01 0.  1.
         -5    1    3    3    0  502 -0.56220429148E+02 -0.75560400462E+02  0.46533459485E+03  0.47479309803E+03  0.47000000000E+01 0.  1.
          5    1    4    4  503    0  0.30027678517E+02  0.22645816386E+02  0.53347017586E+02  0.65440727092E+02  0.47000000000E+01 0. -1.
         -5    1    4    4    0  503  0.49976964206E+02  0.22314437351E+01  0.45696421135E+03  0.45971845378E+03  0.47000000000E+01 0.  1.
<mgrwt>
<rscale>  0 0.14337217E+03</rscale>
<asrwt>0</asrwt>
<pdfrwt beam="1">  1        4 0.19478729E+00 0.15048242E+03</pdfrwt>
<pdfrwt beam="2">  1       -4 0.23059406E-02 0.15048242E+03</pdfrwt>
<totfact> 0.21850029E+02</totfact>
</mgrwt>
</event>
<event>
 8    1  0.3217375E-004  0.1450369E+03  0.7546771E-02  0.1217723E+00
          2   -1    0    0  501    0  0.00000000000E+00  0.00000000000E+00  0.93518608469E+03  0.93518608469E+03  0.00000000000E+00 0. -1.
         -2   -1    0    0    0  501 -0.00000000000E+00 -0.00000000000E+00 -0.22854530588E+02  0.22854530588E+02  0.00000000000E+00 0.  1.
         25    2    1    2    0    0  0.56543823114E+02 -0.47046628212E+02  0.27948442624E+03  0.31487656220E+03  0.12500046300E+03 0.  0.
         23    2    1    2    0    0 -0.56543823114E+02  0.47046628212E+02  0.63284712786E+03  0.64316405309E+03  0.88056361384E+02 0.  0.
          5    1    4    4  502    0 -0.40893144499E+02  0.65069898388E+02  0.57873615446E+03  0.58383556540E+03  0.47000000000E+01 0. -1.
         -5    1    4    4    0  502 -0.15650678615E+02 -0.18023270176E+02  0.54110973404E+02  0.59328487690E+02  0.47000000000E+01 0.  1.
          5    1    3    3  503    0  0.72966387831E+02  0.10560001550E+02  0.91948545820E+02  0.11795012702E+03  0.47000000000E+01 0. -1.
         -5    1    3    3    0  503 -0.16422564717E+02 -0.57606629762E+02  0.18753588042E+03  0.19692643518E+03  0.47000000000E+01 0. -1.
<mgrwt>
<rscale>  0 0.13678375E+03</rscale>
<asrwt>0</asrwt>
<pdfrwt beam="1">  1        2 0.14387475E+00 0.14503691E+03</pdfrwt>
<pdfrwt beam="2">  1       -2 0.35160823E-02 0.14503691E+03</pdfrwt>
<totfact> 0.93154188E+03</totfact>
</mgrwt>
</event>
<event>
 8    1  0.3217375E-004  0.1369088E+03  0.7546771E-02  0.1229317E+00
          2   -1    0    0  501    0  0.00000000000E+00  0.00000000000E+00  0.36449938403E+03  0.36449938403E+03  0.00000000000E+00 0. -1.
         -2   -1    0    0    0  501 -0.00000000000E+00 -0.00000000000E+00 -0.47696345401E+02  0.47696345401E+02  0.00000000000E+00 0.  1.
         25    2    1    2    0    0 -0.45114318187E+02 -0.32922606596E+02  0.97295989080E+02  0.16795991227E+03  0.12499929163E+03 0.  0.
         23    2    1    2    0    0  0.45114318187E+02  0.32922606596E+02  0.21950704955E+03  0.24423581716E+03  0.91370618106E+02 0.  0.
          5    1    3    3  502    0 -0.13394999346E+02  0.34119353784E+02  0.84931073410E+02  0.92622532576E+02  0.47000000000E+01 0.  1.
         -5    1    4    4    0  503 -0.25379263496E+02  0.19893509139E+02  0.45360805531E+02  0.55852944415E+02  0.47000000000E+01 0.  1.
          5    1    4    4  503    0  0.70493581683E+02  0.13029097457E+02  0.17414624402E+03  0.18838287275E+03  0.47000000000E+01 0. -1.
         -5    1    3    3    0  502 -0.31719318841E+02 -0.67041960380E+02  0.12364915669E+02  0.75337379692E+02  0.47000000000E+01 0.  1.
<mgrwt>
<rscale>  0 0.12875334E+03</rscale>
<asrwt>0</asrwt>
<pdfrwt beam="1">  1        2 0.56076827E-01 0.13690881E+03</pdfrwt>
<pdfrwt beam="2">  1       -2 0.73378995E-02 0.13690881E+03</pdfrwt>
<totfact> 0.90968872E+03</totfact>
</mgrwt>
</event>
<event>
 8    1  0.3217375E-004  0.1347028E+03  0.7546771E-02  0.1233487E+00
          1   -1    0    0  501    0  0.00000000000E+00  0.00000000000E+00  0.21104499874E+03  0.21104499874E+03  0.00000000000E+00 0. -1.
         -1   -1    0    0    0  501 -0.00000000000E+00 -0.00000000000E+00 -0.10778773135E+03  0.10778773135E+03  0.00000000000E+00 0.  1.
         25    2    1    2    0    0  0.48868006892E+02 -0.11469106823E+02  0.15336998645E+03  0.20412547615E+03  0.12500093905E+03 0.  0.
         23    2    1    2    0    0 -0.48868006892E+02  0.11469106823E+02 -0.50112719063E+02  0.11470725394E+03  0.90149026535E+02 0.  0.
          5    1    3    3  502    0  0.60345149603E+02 -0.57666761547E+02  0.11809815426E+03  0.14469366436E+03  0.47000000000E+01 0. -1.
         -5    1    4    4    0  503 -0.16175757454E+02 -0.30741810177E+02 -0.50056565626E+02  0.61110259241E+02  0.47000000000E+01 0.  1.
          5    1    4    4  503    0 -0.32692249439E+02  0.42210917001E+02 -0.56153436815E-01  0.53596994698E+02  0.47000000000E+01 0. -1.
         -5    1    3    3    0  502 -0.11477142710E+02  0.46197654723E+02  0.35271832188E+02  0.59431811790E+02  0.47000000000E+01 0. -1.
<mgrwt>
<rscale>  0 0.12601820E+03</rscale>
<asrwt>0</asrwt>
<pdfrwt beam="1">  1        1 0.32468461E-01 0.13470285E+03</pdfrwt>
<pdfrwt beam="2">  1       -1 0.16582728E-01 0.13470285E+03</pdfrwt>
<totfact> 0.36083578E+03</totfact>
</mgrwt>
</event>
<event>
 8    1  0.3217375E-004  0.1425376E+03  0.7546771E-02  0.1220417E+00
         -2   -1    0    0    0  501 -0.00000000000E+00  0.00000000000E+00  0.36750417559E+02  0.36750417559E+02  0.00000000000E+00 0.  1.
          2   -1    0    0  501    0  0.00000000000E+00 -0.00000000000E+00 -0.48643978656E+03  0.48643978656E+03  0.00000000000E+00 0. -1.
         25    2    1    2    0    0 -0.66966373832E+02 -0.14519144484E+02 -0.17502449685E+03  0.22572229096E+03  0.12498670873E+03 0.  0.
         23    2    1    2    0    0  0.66966373832E+02  0.14519144484E+02 -0.27466487216E+03  0.29746791316E+03  0.91384170302E+02 0.  0.
          5    1    3    3  502    0 -0.22715139650E+02  0.47637610066E+02 -0.12106584128E+03  0.13215274264E+03  0.47000000000E+01 0. -1.
         -5    1    3    3    0  502 -0.44251234182E+02 -0.62156754550E+02 -0.53958655569E+02  0.93569548324E+02  0.47000000000E+01 0. -1.
          5    1    4    4  503    0  0.39459049555E+02 -0.37186813391E+02 -0.15219105731E+03  0.16162946392E+03  0.47000000000E+01 0. -1.
         -5    1    4    4    0  503  0.27507324277E+02  0.51705957875E+02 -0.12247381485E+03  0.13583844924E+03  0.47000000000E+01 0.  1.
<mgrwt>
<rscale>  0 0.13486007E+03</rscale>
<asrwt>0</asrwt>
<pdfrwt beam="1">  1        2 0.74836887E-01 0.14253764E+03</pdfrwt>
<pdfrwt beam="2">  1       -2 0.56539106E-02 0.14253764E+03</pdfrwt>
<totfact> 0.99477001E+03</totfact>
</mgrwt>
</event>
<event>
 8    1  0.3217375E-004  0.1748796E+03  0.7546771E-02  0.1179011E+00
         -2   -1    0    0    0  501 -0.00000000000E+00  0.00000000000E+00  0.76695502709E+02  0.76695502709E+02  0.00000000000E+00 0.  1.
          2   -1    0    0  501    0  0.00000000000E+00 -0.00000000000E+00 -0.35429896366E+03  0.35429896366E+03  0.00000000000E+00 0. -1.
         25    2    1    2    0    0  0.92647672591E+02  0.79862592719E+02 -0.12092765509E+03  0.21261789663E+03  0.12498498810E+03 0.  0.
         23    2    1    2    0    0 -0.92647672591E+02 -0.79862592719E+02 -0.15667580586E+03  0.21837656974E+03  0.90439997325E+02 0.  0.
          5    1    3    3  502    0  0.19892729931E+02 -0.30470658399E+02 -0.51563050394E+02  0.63285226501E+02  0.47000000000E+01 0.  1.
         -5    1    4    4    0  503 -0.38805866926E+02 -0.29844685847E+02 -0.45818447907E+01  0.49393156235E+02  0.47000000000E+01 0.  1.
          5    1    4    4  503    0 -0.53841805665E+02 -0.50017906873E+02 -0.15209396107E+03  0.16898341350E+03  0.47000000000E+01 0. -1.
         -5    1    3    3    0  502  0.72754942660E+02  0.11033325112E+03 -0.69364604699E+02  0.14933267013E+03  0.47000000000E+01 0.  1.
<mgrwt>
<rscale>  0 0.16888931E+03</rscale>
<asrwt>0</asrwt>
<pdfrwt beam="1">  1        2 0.54507532E-01 0.17487959E+03</pdfrwt>
<pdfrwt beam="2">  1       -2 0.11799308E-01 0.17487959E+03</pdfrwt>
<totfact> 0.45174248E+03</totfact>
</mgrwt>
</event>
<event>
 8    1  0.3217375E-004  0.1298103E+03  0.7546771E-02  0.1241351E+00
          2   -1    0    0  501    0  0.00000000000E+00  0.00000000000E+00  0.11848435808E+04  0.11848435808E+04  0.00000000000E+00 0. -1.
         -2   -1    0    0    0  501 -0.00000000000E+00 -0.00000000000E+00 -0.11052954213E+02  0.11052954213E+02  0.00000000000E+00 0.  1.
         25    2    1    2    0    0  0.10919469901E+02 -0.33225485350E+02  0.61640294792E+03  0.62992326561E+03  0.12501023421E+03 0.  0.
         23    2    1    2    0    0 -0.10919469901E+02  0.33225485350E+02  0.55738767862E+03  0.56597326935E+03  0.91769001546E+02 0.  0.
          5    1    3    3  502    0  0.48301972258E+02 -0.61655595399E+02  0.45670677628E+03  0.46339795259E+03  0.47000000000E+01 0. -1.
         -5    1    4    4    0  503  0.15451288488E+02  0.58913251855E+02  0.35017096369E+03  0.35545929074E+03  0.47000000000E+01 0.  1.
          5    1    4    4  503    0 -0.26370758389E+02 -0.25687766505E+02  0.20721671493E+03  0.21051397862E+03  0.47000000000E+01 0. -1.
         -5    1    3    3    0  502 -0.37382502357E+02  0.28430110049E+02  0.15969617164E+03  0.16652531302E+03  0.47000000000E+01 0. -1.
<mgrwt>
<rscale>  0 0.12106488E+03</rscale>
<asrwt>0</asrwt>
<pdfrwt beam="1">  1        2 0.18228353E+00 0.12981035E+03</pdfrwt>
<pdfrwt beam="2">  1       -2 0.17004554E-02 0.12981035E+03</pdfrwt>
<totfact> 0.19123800E+04</totfact>
</mgrwt>
</event>
<event>
 8    1  0.3217375E-004  0.1265152E+03  0.7546771E-02  0.1247435E+00
          2   -1    0    0  501    0  0.00000000000E+00  0.00000000000E+00  0.82747908764E+03  0.82747908764E+03  0.00000000000E+00 0. -1.
         -2   -1    0    0    0  501 -0.00000000000E+00 -0.00000000000E+00 -0.16432418770E+02  0.16432418770E+02  0.00000000000E+00 0.  1.
         25    2    1    2    0    0 -0.84284038263E+01 -0.17477258638E+02  0.32236162412E+03  0.34629915650E+03  0.12501838474E+03 0.  0.
         23    2    1    2    0    0  0.84284038263E+01  0.17477258638E+02  0.48868504474E+03  0.49761234991E+03  0.91806782245E+02 0.  0.
          5    1    4    4  502    0  0.30950996546E+01  0.54898642185E+02  0.26195651126E+03  0.26770645182E+03  0.47000000000E+01 0. -1.
         -5    1    4    4    0  502  0.53333041718E+01 -0.37421383547E+02  0.22672853348E+03  0.22990589809E+03  0.47000000000E+01 0.  1.
          5    1    3    3  503    0  0.35458495276E+01 -0.53927821481E+02  0.59130670349E+02  0.80245306121E+02  0.47000000000E+01 0. -1.
         -5    1    3    3    0  503 -0.11974253354E+02  0.36450562843E+02  0.26323095377E+03  0.26605385038E+03  0.47000000000E+01 0. -1.
<mgrwt>
<rscale>  0 0.11740808E+03</rscale>
<asrwt>0</asrwt>
<pdfrwt beam="1">  1        2 0.12730444E+00 0.12651517E+03</pdfrwt>
<pdfrwt beam="2">  1       -2 0.25280651E-02 0.12651517E+03</pdfrwt>
<totfact> 0.17565390E+04</totfact>
</mgrwt>
</event>
<event>
 8    1  0.3217375E-004  0.1280475E+03  0.7546771E-02  0.1243907E+00
         -1   -1    0    0    0  501 -0.00000000000E+00  0.00000000000E+00  0.69635532668E+02  0.69635532668E+02  0.00000000000E+00 0.  1.
          1   -1    0    0  501    0  0.00000000000E+00 -0.00000000000E+00 -0.18270071955E+03  0.18270071955E+03  0.00000000000E+00 0. -1.
         25    2    1    2    0    0  0.19168677372E+01 -0.27704108112E+02 -0.71466138764E+02  0.14664094403E+03  0.12499986195E+03 0.  0.
         23    2    1    2    0    0 -0.19168677372E+01  0.27704108112E+02 -0.41599048120E+02  0.10569530820E+03  0.93111897102E+02 0.  0.
          5    1    4    4  502    0 -0.11506396316E+01 -0.27023642963E+02 -0.42683460573E+02  0.50750064601E+02  0.47000000000E+01 0. -1.
         -5    1    3    3    0  503 -0.24341550586E+02 -0.64933033819E+02 -0.10354124420E+02  0.70271671806E+02  0.47000000000E+01 0.  1.
          5    1    3    3  503    0  0.26258418323E+02  0.37228925706E+02 -0.61112014344E+02  0.76369272219E+02  0.47000000000E+01 0.  1.
         -5    1    4    4    0  502 -0.76622810560E+00  0.54727751075E+02  0.10844124529E+01  0.54945243594E+02  0.47000000000E+01 0.  1.
<mgrwt>
<rscale>  0 0.11951038E+03</rscale>
<asrwt>0</asrwt>
<pdfrwt beam="1">  1        1 0.28107803E-01 0.12804748E+03</pdfrwt>
<pdfrwt beam="2">  1       -1 0.10713159E-01 0.12804748E+03</pdfrwt>
<totfact> 0.84797805E+03</totfact>
</mgrwt>
</event>
<event>
 8    1  0.3217375E-004  0.1938265E+03  0.7546771E-02  0.1159561E+00
          2   -1    0    0  501    0  0.00000000000E+00  0.00000000000E+00  0.33988498472E+03  0.33988498472E+03  0.00000000000E+00 0.  1.
         -2   -1    0    0    0  501 -0.00000000000E+00 -0.00000000000E+00 -0.15849253230E+03  0.15849253230E+03  0.00000000000E+00 0. -1.
         25    2    1    2    0    0 -0.43282208475E+02  0.14167093494E+03  0.24526942620E+03  0.31261124591E+03  0.12499878505E+03 0.  0.
         23    2    1    2    0    0  0.43282208475E+02 -0.14167093494E+03 -0.63876973778E+02  0.18576627110E+03  0.92113171270E+02 0.  0.
          5    1    4    4  502    0  0.65708028631E+01 -0.97983382746E+02 -0.79476286800E+02  0.12642186879E+03  0.47000000000E+01 0. -1.
         -5    1    4    4    0  502  0.36711405612E+02 -0.43687552197E+02  0.15599313022E+02  0.59344402312E+02  0.47000000000E+01 0.  1.
          5    1    3    3  503    0 -0.16268284024E+02  0.66950343636E+02  0.17365328534E+02  0.71208498181E+02  0.47000000000E+01 0. -1.
         -5    1    3    3    0  503 -0.27013924451E+02  0.74720591307E+02  0.22790409767E+03  0.24140274773E+03  0.47000000000E+01 0. -1.
<mgrwt>
<rscale>  0 0.18878630E+03</rscale>
<asrwt>0</asrwt>
<pdfrwt beam="1">  1        2 0.52289997E-01 0.19382647E+03</pdfrwt>
<pdfrwt beam="2">  1       -2 0.24383467E-01 0.19382647E+03</pdfrwt>
<totfact> 0.14084868E+03</totfact>
</mgrwt>
</event>
<event>
 8    1  0.3217375E-004  0.1295770E+03  0.7546771E-02  0.1239508E+00
         -3   -1    0    0    0  501 -0.00000000000E+00  0.00000000000E+00  0.15471087725E+03  0.15471087725E+03  0.00000000000E+00 0.  1.
          3   -1    0    0  501    0  0.00000000000E+00 -0.00000000000E+00 -0.95714923180E+02  0.95714923180E+02  0.00000000000E+00 0. -1.
         25    2    1    2    0    0  0.23871369385E+02 -0.24397411119E+02  0.70101399900E+02  0.14732413549E+03  0.12500047473E+03 0.  0.
         23    2    1    2    0    0 -0.23871369385E+02  0.24397411119E+02 -0.11105445829E+02  0.10310166494E+03  0.96651675834E+02 0.  0.
          5    1    4    4  502    0 -0.89347139383E+01  0.42649053916E+02 -0.44165063426E+02  0.62220685793E+02  0.47000000000E+01 0. -1.
         -5    1    4    4    0  502 -0.14936655447E+02 -0.18251642797E+02  0.33059617597E+02  0.40880979151E+02  0.47000000000E+01 0.  1.
          5    1    3    3  503    0  0.95144039645E+01  0.39112447811E+02  0.71320943442E+02  0.82030935811E+02  0.47000000000E+01 0. -1.
         -5    1    3    3    0  503  0.14356965421E+02 -0.63509858930E+02 -0.12195435427E+01  0.65293199676E+02  0.47000000000E+01 0. -1.
<mgrwt>
<rscale>  0 0.12220213E+03</rscale>
<asrwt>0</asrwt>
<pdfrwt beam="1">  1        3 0.14725373E-01 0.12957698E+03</pdfrwt>
<pdfrwt beam="2">  1       -3 0.23801673E-01 0.12957698E+03</pdfrwt>
<totfact> 0.14357006E+03</totfact>
</mgrwt>
</event>
<event>
 8    1  0.3217375E-004  0.1326541E+03  0.7546771E-02  0.1238763E+00
          1   -1    0    0  501    0  0.00000000000E+00  0.00000000000E+00  0.63459982775E+03  0.63459982775E+03  0.00000000000E+00 0. -1.
         -1   -1    0    0    0  501 -0.00000000000E+00 -0.00000000000E+00 -0.21034112691E+02  0.21034112691E+02  0.00000000000E+00 0.  1.
         25    2    1    2    0    0  0.79545253524E+01  0.43694626267E+02  0.31794721046E+03  0.34451059191E+03  0.12499849783E+03 0.  0.
         23    2    1    2    0    0 -0.79545253524E+01 -0.43694626267E+02  0.29561850460E+03  0.31112334853E+03  0.86226114968E+02 0.  0.
          5    1    4    4  502    0 -0.44572455654E+02 -0.21377946359E+02  0.20246886487E+03  0.20846930622E+03  0.47000000000E+01 0. -1.
         -5    1    3    3    0  503  0.11090671509E+02 -0.32982708398E+02  0.20432182490E+03  0.20731705231E+03  0.47000000000E+01 0.  1.
          5    1    3    3  503    0 -0.31361461571E+01  0.76677334665E+02  0.11362538556E+03  0.13719353960E+03  0.47000000000E+01 0.  1.
         -5    1    4    4    0  502  0.36617930301E+02 -0.22316679908E+02  0.93149639724E+02  0.10265404231E+03  0.47000000000E+01 0.  1.
<mgrwt>
<rscale>  0 0.12266609E+03</rscale>
<asrwt>0</asrwt>
<pdfrwt beam="1">  1        1 0.97630728E-01 0.13265413E+03</pdfrwt>
<pdfrwt beam="2">  1       -1 0.32360178E-02 0.13265413E+03</pdfrwt>
<totfact> 0.10451222E+04</totfact>
</mgrwt>
</event>
<event>
 8    1  0.3217375E-004  0.1585057E+03  0.7546771E-02  0.1197949E+00
         -1   -1    0    0    0  501 -0.00000000000E+00  0.00000000000E+00  0.57334832903E+03  0.57334832903E+03  0.00000000000E+00 0.  1.
          1   -1    0    0  501    0  0.00000000000E+00 -0.00000000000E+00 -0.55386879293E+02  0.55386879293E+02  0.00000000000E+00 0. -1.
         25    2    1    2    0    0 -0.55006203592E+02 -0.80436756442E+02  0.94614573384E+02  0.18459677748E+03  0.12501319346E+03 0.  0.
         23    2    1    2    0    0  0.55006203592E+02  0.80436756442E+02  0.42334687635E+03  0.44413843084E+03  0.92415441422E+02 0.  0.
          5    1    3    3  502    0  0.39045870370E+02 -0.35365220176E+02  0.42841899733E+02  0.68064654291E+02  0.47000000000E+01 0.  1.
         -5    1    3    3    0  502 -0.94052073962E+02 -0.45071536266E+02  0.51772673651E+02  0.11653212319E+03  0.47000000000E+01 0.  1.
          5    1    4    4  503    0  0.21683787596E+02 -0.16455665633E+02  0.51942893707E+02  0.58831367335E+02  0.47000000000E+01 0. -1.
         -5    1    4    4    0  503  0.33322415996E+02  0.96892422075E+02  0.37140398264E+03  0.38530706350E+03  0.47000000000E+01 0.  1.
<mgrwt>
<rscale>  0 0.15207306E+03</rscale>
<asrwt>0</asrwt>
<pdfrwt beam="1">  1        1 0.85210587E-02 0.15850569E+03</pdfrwt>
<pdfrwt beam="2">  1       -1 0.88207431E-01 0.15850569E+03</pdfrwt>
<totfact> 0.10456854E+03</totfact>
</mgrwt>
</event>
<event>
 8    1  0.3217375E-004  0.1359007E+03  0.7546771E-02  0.1232018E+00
         -2   -1    0    0    0  501 -0.00000000000E+00  0.00000000000E+00  0.10271885991E+02  0.10271885991E+02  0.00000000000E+00 0.  1.
          2   -1    0    0  501    0  0.00000000000E+00 -0.00000000000E+00 -0.14522102806E+04  0.14522102806E+04  0.00000000000E+00 0. -1.
         25    2    1    2    0    0 -0.48622503099E+02  0.21912205051E+02 -0.95773394349E+03  0.96732792007E+03  0.12499882360E+03 0.  0.
         23    2    1    2    0    0  0.48622503099E+02 -0.21912205051E+02 -0.48420445116E+03  0.49515424656E+03  0.88766462271E+02 0.  0.
          5    1    3    3  502    0 -0.18860544993E+02  0.73210859905E+02 -0.48857784057E+03  0.49441475146E+03  0.47000000000E+01 0. -1.
         -5    1    3    3    0  502 -0.29761958106E+02 -0.51298654854E+02 -0.46915610292E+03  0.47291316861E+03  0.47000000000E+01 0. -1.
          5    1    4    4  503    0  0.79643557765E+01  0.30066191788E+02 -0.24349934812E+03  0.24552276755E+03  0.47000000000E+01 0. -1.
         -5    1    4    4    0  503  0.40658147322E+02 -0.51978396839E+02 -0.24070510304E+03  0.24963147901E+03  0.47000000000E+01 0.  1.
<mgrwt>
<rscale>  0 0.12697252E+03</rscale>
<asrwt>0</asrwt>
<pdfrwt beam="1">  1        2 0.22341695E+00 0.13590069E+03</pdfrwt>
<pdfrwt beam="2">  1       -2 0.15802903E-02 0.13590069E+03</pdfrwt>
<totfact> 0.15313181E+04</totfact>
</mgrwt>
</event>
<event>
 8    1  0.3217375E-004  0.1254668E+03  0.7546771E-02  0.1250381E+00
         -1   -1    0    0    0  501 -0.00000000000E+00  0.00000000000E+00  0.24871926066E+02  0.24871926066E+02  0.00000000000E+00 0.  1.
          1   -1    0    0  501    0  0.00000000000E+00 -0.00000000000E+00 -0.48086820956E+03  0.48086820956E+03  0.00000000000E+00 0. -1.
         25    2    1    2    0    0  0.63162091528E+01  0.87929410895E+01 -0.22574195072E+03  0.25826605817E+03  0.12499887271E+03 0.  0.
         23    2    1    2    0    0 -0.63162091528E+01 -0.87929410895E+01 -0.23025433278E+03  0.24747407745E+03  0.90050824191E+02 0.  0.
          5    1    4    4  502    0  0.37658135465E+02 -0.16082835241E+02 -0.71665554567E+02  0.82673057688E+02  0.47000000000E+01 0. -1.
         -5    1    4    4    0  502 -0.43974344618E+02  0.72898941518E+01 -0.15858877821E+03  0.16480101976E+03  0.47000000000E+01 0.  1.
          5    1    3    3  503    0 -0.36495211765E+02  0.45355140118E+02 -0.62578747543E+02  0.85598941939E+02  0.47000000000E+01 0.  1.
         -5    1    3    3    0  503  0.42811420917E+02 -0.36562199029E+02 -0.16316320317E+03  0.17266711624E+03  0.47000000000E+01 0.  1.
<mgrwt>
<rscale>  0 0.11569050E+03</rscale>
<asrwt>0</asrwt>
<pdfrwt beam="1">  1        1 0.73979725E-01 0.12546684E+03</pdfrwt>
<pdfrwt beam="2">  1       -1 0.38264502E-02 0.12546684E+03</pdfrwt>
<totfact> 0.11791545E+04</totfact>
</mgrwt>
</event>
<event>
 8    1  0.3217375E-004  0.1525050E+03  0.7546771E-02  0.1206819E+00
          1   -1    0    0  501    0  0.00000000000E+00  0.00000000000E+00  0.27616263244E+03  0.27616263244E+03  0.00000000000E+00 0. -1.
         -1   -1    0    0    0  501 -0.00000000000E+00 -0.00000000000E+00 -0.72392699824E+02  0.72392699824E+02  0.00000000000E+00 0.  1.
         25    2    1    2    0    0 -0.11992255700E+02 -0.86558383038E+02  0.14679686598E+03  0.21167685391E+03  0.12498641025E+03 0.  0.
         23    2    1    2    0    0  0.11992255700E+02  0.86558383038E+02  0.56973066635E+02  0.13687847835E+03  0.88620650210E+02 0.  0.
          5    1    4    4  502    0  0.25686592009E+02  0.53118431828E+02  0.75551093458E+02  0.95976176896E+02  0.47000000000E+01 0. -1.
         -5    1    3    3    0  503  0.47560879891E+02 -0.35134194958E+02  0.10936841583E+03  0.12441860525E+03  0.47000000000E+01 0. -1.
          5    1    3    3  503    0 -0.59553135591E+02 -0.51424188080E+02  0.37428450151E+02  0.87258248660E+02  0.47000000000E+01 0. -1.
         -5    1    4    4    0  502 -0.13694336309E+02  0.33439951210E+02 -0.18578026823E+02  0.40902301457E+02  0.47000000000E+01 0.  1.
<mgrwt>
<rscale>  0 0.14495016E+03</rscale>
<asrwt>0</asrwt>
<pdfrwt beam="1">  1        1 0.42486558E-01 0.15250499E+03</pdfrwt>
<pdfrwt beam="2">  1       -1 0.11137339E-01 0.15250499E+03</pdfrwt>
<totfact> 0.48399433E+03</totfact>
</mgrwt>
</event>
<event>
 8    1  0.3217375E-004  0.1525288E+03  0.7546771E-02  0.1206881E+00
          2   -1    0    0  501    0  0.00000000000E+00  0.00000000000E+00  0.41904157236E+03  0.41904157236E+03  0.00000000000E+00 0. -1.
         -2   -1    0    0    0  501 -0.00000000000E+00 -0.00000000000E+00 -0.47461642029E+02  0.47461642029E+02  0.00000000000E+00 0.  1.
         25    2    1    2    0    0 -0.10439363037E+01  0.87407060474E+02  0.15934893149E+03  0.22058356645E+03  0.12499577511E+03 0.  0.
         23    2    1    2    0    0  0.10439363037E+01 -0.87407060474E+02  0.21223099884E+03  0.24591964794E+03  0.88280192288E+02 0.  0.
          5    1    4    4  502    0  0.19763613466E+02 -0.45233264695E+02  0.18629264408E+03  0.19277885747E+03  0.47000000000E+01 0. -1.
         -5    1    4    4    0  502 -0.18719677163E+02 -0.42173795779E+02  0.25938354766E+02  0.53140790467E+02  0.47000000000E+01 0.  1.
          5    1    3    3  503    0 -0.10400962789E+02  0.59497265925E+02  0.21891158603E+01  0.60621670282E+02  0.47000000000E+01 0.  1.
         -5    1    3    3    0  503  0.93570264857E+01  0.27909794549E+02  0.15715981563E+03  0.15996189617E+03  0.47000000000E+01 0.  1.
<mgrwt>
<rscale>  0 0.14490232E+03</rscale>
<asrwt>0</asrwt>
<pdfrwt beam="1">  1        2 0.64467932E-01 0.15252878E+03</pdfrwt>
<pdfrwt beam="2">  1       -2 0.73017914E-02 0.15252878E+03</pdfrwt>
<totfact> 0.79524554E+03</totfact>
</mgrwt>
</event>
<event>
 8    1  0.3217375E-004  0.1483907E+03  0.7546771E-02  0.1210698E+00
         -1   -1    0    0    0  501 -0.00000000000E+00  0.00000000000E+00  0.24598960427E+03  0.24598960427E+03  0.00000000000E+00 0.  1.
          1   -1    0    0  501    0  0.00000000000E+00 -0.00000000000E+00 -0.75620878969E+02  0.75620878969E+02  0.00000000000E+00 0. -1.
         25    2    1    2    0    0  0.37718944355E+02 -0.70526525533E+02  0.89706514373E+02  0.17339852975E+03  0.12499232709E+03 0.  0.
         23    2    1    2    0    0 -0.37718944355E+02  0.70526525533E+02  0.80662210927E+02  0.14821195349E+03  0.95203368206E+02 0.  0.
          5    1    3    3  502    0 -0.38060204376E+02 -0.52209640717E+02  0.17669876240E+02  0.67147153829E+02  0.47000000000E+01 0.  1.
         -5    1    4    4    0  503 -0.15355750142E+02  0.14223070865E+02  0.84641520263E+02  0.87317648615E+02  0.47000000000E+01 0.  1.
          5    1    4    4  503    0 -0.22363194213E+02  0.56303454668E+02 -0.39793093365E+01  0.60894304871E+02  0.47000000000E+01 0. -1.
         -5    1    3    3    0  502  0.75779148732E+02 -0.18316884816E+02  0.72036638133E+02  0.10625137592E+03  0.47000000000E+01 0.  1.
<mgrwt>
<rscale>  0 0.14197357E+03</rscale>
<asrwt>0</asrwt>
<pdfrwt beam="1">  1        1 0.11633981E-01 0.14839067E+03</pdfrwt>
<pdfrwt beam="2">  1       -1 0.37844554E-01 0.14839067E+03</pdfrwt>
<totfact> 0.34446729E+03</totfact>
</mgrwt>
</event>
<event>
 8    1  0.3217375E-004  0.1317231E+03  0.7546771E-02  0.1238393E+00
         -3   -1    0    0    0  501 -0.00000000000E+00  0.00000000000E+00  0.26167369276E+02  0.26167369276E+02  0.00000000000E+00 0.  1.
          3   -1    0    0  501    0  0.00000000000E+00 -0.00000000000E+00 -0.51931884140E+03  0.51931884140E+03  0.00000000000E+00 0. -1.
         25    2    1    2    0    0 -0.40639136740E+02 -0.86508188002E+01 -0.24837576990E+03  0.28114321082E+03  0.12499842326E+03 0.  0.
         23    2    1    2    0    0  0.40639136740E+02  0.86508188002E+01 -0.24477570223E+03  0.26434299986E+03  0.90750763476E+02 0.  0.
          5    1    3    3  502    0 -0.15595971665E+02 -0.35350674713E+02 -0.10353271201E+02  0.40276354842E+02  0.47000000000E+01 0.  1.
         -5    1    3    3    0  502 -0.25043165076E+02  0.26699855912E+02 -0.23802249870E+03  0.24086685598E+03  0.47000000000E+01 0.  1.
          5    1    4    4  503    0  0.27275104831E+02 -0.35721039418E+02 -0.68844717250E+02  0.82350525765E+02  0.47000000000E+01 0. -1.
         -5    1    4    4    0  503  0.13364031910E+02  0.44371858219E+02 -0.17593098498E+03  0.18199247409E+03  0.47000000000E+01 0.  1.
<mgrwt>
<rscale>  0 0.12289671E+03</rscale>
<asrwt>0</asrwt>
<pdfrwt beam="1">  1        3 0.79895203E-01 0.13172313E+03</pdfrwt>
<pdfrwt beam="2">  1       -3 0.40257493E-02 0.13172313E+03</pdfrwt>
<totfact> 0.11042941E+03</totfact>
</mgrwt>
</event>
<event>
 8    1  0.3217375E-004  0.2081164E+03  0.7546771E-02  0.1146599E+00
         -2   -1    0    0    0  501 -0.00000000000E+00  0.00000000000E+00  0.16499156584E+03  0.16499156584E+03  0.00000000000E+00 0.  1.
          2   -1    0    0  501    0  0.00000000000E+00 -0.00000000000E+00 -0.24787666137E+03  0.24787666137E+03  0.00000000000E+00 0. -1.
         25    2    1    2    0    0  0.16522010994E+03 -0.19758332946E+02 -0.75760859943E+02  0.22147719337E+03  0.12499745131E+03 0.  0.
         23    2    1    2    0    0 -0.16522010994E+03  0.19758332946E+02 -0.71242355893E+01  0.19139103384E+03  0.94295793390E+02 0.  0.
          5    1    3    3  502    0  0.91320381952E+02  0.40093188909E+02 -0.77270474588E+02  0.12625249384E+03  0.47000000000E+01 0. -1.
         -5    1    3    3    0  502  0.73899727986E+02 -0.59851521854E+02  0.15096146450E+01  0.95224699533E+02  0.47000000000E+01 0. -1.
          5    1    4    4  503    0 -0.15267707673E+03  0.47419891259E+02 -0.45310628581E+00  0.15994133659E+03  0.47000000000E+01 0. -1.
         -5    1    4    4    0  503 -0.12543033206E+02 -0.27661558313E+02 -0.66711293034E+01  0.31449697240E+02  0.47000000000E+01 0.  1.
<mgrwt>
<rscale>  0 0.20376748E+03</rscale>
<asrwt>0</asrwt>
<pdfrwt beam="1">  1        2 0.38134871E-01 0.20811641E+03</pdfrwt>
<pdfrwt beam="2">  1       -2 0.25383318E-01 0.20811641E+03</pdfrwt>
<totfact> 0.18452428E+03</totfact>
</mgrwt>
</event>
<event>
 8    1  0.3217375E-004  0.1258963E+03  0.7546771E-02  0.1247454E+00
         -1   -1    0    0    0  501 -0.00000000000E+00  0.00000000000E+00  0.36740900468E+02  0.36740900468E+02  0.00000000000E+00 0.  1.
          1   -1    0    0  501    0  0.00000000000E+00 -0.00000000000E+00 -0.42317605643E+03  0.42317605643E+03  0.00000000000E+00 0. -1.
         25    2    1    2    0    0 -0.18279436309E+01  0.14890528464E+02 -0.31989373066E+03  0.34377591716E+03  0.12499925235E+03 0.  0.
         23    2    1    2    0    0  0.18279436309E+01 -0.14890528464E+02 -0.66541425305E+02  0.11614103974E+03  0.93999524543E+02 0.  0.
          5    1    3    3  502    0 -0.41159634940E+02  0.24901432128E+02 -0.45581321867E+02  0.66437517816E+02  0.47000000000E+01 0.  1.
         -5    1    4    4    0  503  0.90042283393E+01  0.25883562074E+02 -0.69010287243E+02  0.74401240977E+02  0.47000000000E+01 0. -1.
          5    1    4    4  503    0 -0.71762847084E+01 -0.40774090538E+02  0.24688619380E+01  0.41739798762E+02  0.47000000000E+01 0.  1.
         -5    1    3    3    0  502  0.39331691309E+02 -0.10010903663E+02 -0.27431240879E+03  0.27733839934E+03  0.47000000000E+01 0.  1.
<mgrwt>
<rscale>  0 0.11739691E+03</rscale>
<asrwt>0</asrwt>
<pdfrwt beam="1">  1        1 0.65104009E-01 0.12589632E+03</pdfrwt>
<pdfrwt beam="2">  1       -1 0.56524462E-02 0.12589632E+03</pdfrwt>
<totfact> 0.78171826E+03</totfact>
</mgrwt>
</event>
<event>
 8    1  0.3217375E-004  0.1592838E+03  0.7546771E-02  0.1196892E+00
         -2   -1    0    0    0  501 -0.00000000000E+00  0.00000000000E+00  0.39432083059E+02  0.39432083059E+02  0.00000000000E+00 0.  1.
          2   -1    0    0  501    0  0.00000000000E+00 -0.00000000000E+00 -0.88689308223E+03  0.88689308223E+03  0.00000000000E+00 0. -1.
         25    2    1    2    0    0 -0.63980507666E+02  0.75156497257E+02 -0.16042892831E+03  0.22607246567E+03  0.12501725582E+03 0.  0.
         23    2    1    2    0    0  0.63980507666E+02 -0.75156497257E+02 -0.68703207086E+03  0.70025269962E+03  0.92729566458E+02 0.  0.
          5    1    4    4  502    0 -0.21778405018E+02 -0.32795607477E+02 -0.19653620500E+03  0.20049543803E+03  0.47000000000E+01 0. -1.
         -5    1    3    3    0  503 -0.23874545329E+02  0.11138493341E+02 -0.14673371100E+03  0.14915405423E+03  0.47000000000E+01 0.  1.
          5    1    3    3  503    0 -0.40105962337E+02  0.64018003916E+02 -0.13695217303E+02  0.76918411433E+02  0.47000000000E+01 0.  1.
         -5    1    4    4    0  502  0.85758912684E+02 -0.42360889780E+02 -0.49049586587E+03  0.49975726160E+03  0.47000000000E+01 0.  1.
<mgrwt>
<rscale>  0 0.15295225E+03</rscale>
<asrwt>0</asrwt>
<pdfrwt beam="1">  1        2 0.13644509E+00 0.15928377E+03</pdfrwt>
<pdfrwt beam="2">  1       -2 0.60664744E-02 0.15928377E+03</pdfrwt>
<totfact> 0.44254325E+03</totfact>
</mgrwt>
</event>
<event>
 8    1  0.3217375E-004  0.1361514E+03  0.7546771E-02  0.1230540E+00
          2   -1    0    0  501    0  0.00000000000E+00  0.00000000000E+00  0.53666290613E+03  0.53666290613E+03  0.00000000000E+00 0. -1.
         -2   -1    0    0    0  501 -0.00000000000E+00 -0.00000000000E+00 -0.27720606070E+02  0.27720606070E+02  0.00000000000E+00 0.  1.
         25    2    1    2    0    0  0.51461039276E+02 -0.16234282374E+02  0.31775067421E+03  0.34569161853E+03  0.12500165469E+03 0.  0.
         23    2    1    2    0    0 -0.51461039276E+02  0.16234282374E+02  0.19119162585E+03  0.21869189367E+03  0.91433670350E+02 0.  0.
          5    1    4    4  502    0 -0.37841565396E+02 -0.50958285015E+01  0.18898091665E+03  0.19285701542E+03  0.47000000000E+01 0. -1.
         -5    1    4    4    0  502 -0.13619473880E+02  0.21330110876E+02  0.22107091974E+01  0.25834878244E+02  0.47000000000E+01 0.  1.
          5    1    3    3  503    0 -0.28749292468E+02 -0.18123648333E+02  0.20127784439E+03  0.20418092244E+03  0.47000000000E+01 0.  1.
         -5    1    3    3    0  503  0.80210331744E+02  0.18893659588E+01  0.11647282983E+03  0.14151069610E+03  0.47000000000E+01 0.  1.
<mgrwt>
<rscale>  0 0.12794292E+03</rscale>
<asrwt>0</asrwt>
<pdfrwt beam="1">  1        2 0.82563516E-01 0.13615140E+03</pdfrwt>
<pdfrwt beam="2">  1       -2 0.42647090E-02 0.13615140E+03</pdfrwt>
<totfact> 0.13585660E+04</totfact>
</mgrwt>
</event>
<event>
 8    1  0.3217375E-004  0.2681063E+03  0.7546771E-02  0.1104566E+00
         -3   -1    0    0    0  501 -0.00000000000E+00  0.00000000000E+00  0.42749276015E+02  0.42749276015E+02  0.00000000000E+00 0.  1.
          3   -1    0    0  501    0  0.00000000000E+00 -0.00000000000E+00 -0.15912526961E+04  0.15912526961E+04  0.00000000000E+00 0. -1.
         25    2    1    2    0    0 -0.29150676617E+02 -0.23538369643E+03 -0.77425706340E+03  0.81936253929E+03  0.12500289631E+03 0.  0.
         23    2    1    2    0    0  0.29150676617E+02  0.23538369643E+03 -0.77424635668E+03  0.81463943281E+03  0.89020998469E+02 0.  0.
          5    1    4    4  502    0  0.11558316579E+02  0.85838527778E+02 -0.43324448565E+03  0.44184241748E+03  0.47000000000E+01 0. -1.
         -5    1    3    3    0  503 -0.10899173371E+02 -0.24499845565E+03 -0.68374836987E+03  0.72641376539E+03  0.47000000000E+01 0. -1.
          5    1    3    3  503    0 -0.18251503247E+02  0.96147592221E+01 -0.90508693526E+02  0.92948773900E+02  0.47000000000E+01 0. -1.
         -5    1    4    4    0  502  0.17592360038E+02  0.14954516865E+03 -0.34100187103E+03  0.37279701534E+03  0.47000000000E+01 0.  1.
<mgrwt>
<rscale>  0 0.26433531E+03</rscale>
<asrwt>0</asrwt>
<pdfrwt beam="1">  1        3 0.24480813E+00 0.26810627E+03</pdfrwt>
<pdfrwt beam="2">  1       -3 0.65768111E-02 0.26810627E+03</pdfrwt>
<totfact> 0.32363978E+01</totfact>
</mgrwt>
</event>
<event>
 8    1  0.3217375E-004  0.1655274E+03  0.7546771E-02  0.1190734E+00
          1   -1    0    0  501    0  0.00000000000E+00  0.00000000000E+00  0.20523804400E+03  0.20523804400E+03  0.00000000000E+00 0. -1.
         -1   -1    0    0    0  501 -0.00000000000E+00 -0.00000000000E+00 -0.11985183158E+03  0.11985183158E+03  0.00000000000E+00 0.  1.
         25    2    1    2    0    0  0.92424129851E+02  0.56853345168E+02  0.86886099942E+02  0.18694518023E+03  0.12499913365E+03 0.  0.
         23    2    1    2    0    0 -0.92424129851E+02 -0.56853345168E+02 -0.14998875263E+01  0.13814469535E+03  0.85482071544E+02 0.  0.
          5    1    4    4  502    0 -0.10326516218E+03 -0.32180451128E+02  0.94530152999E+01  0.10867715792E+03  0.47000000000E+01 0. -1.
         -5    1    4    4    0  502  0.10841032326E+02 -0.24672894039E+02 -0.10952902826E+02  0.29467537435E+02  0.47000000000E+01 0.  1.
          5    1    3    3  503    0  0.79582502060E+02  0.46188059520E+01  0.10324805063E+03  0.13052569847E+03  0.47000000000E+01 0.  1.
         -5    1    3    3    0  503  0.12841627791E+02  0.52234539216E+02 -0.16361950693E+02  0.56419481758E+02  0.47000000000E+01 0.  1.
<mgrwt>
<rscale>  0 0.15820838E+03</rscale>
<asrwt>0</asrwt>
<pdfrwt beam="1">  1        1 0.31575084E-01 0.16552736E+03</pdfrwt>
<pdfrwt beam="2">  1       -1 0.18438743E-01 0.16552736E+03</pdfrwt>
<totfact> 0.31872562E+03</totfact>
</mgrwt>
</event>
<event>
 8    1  0.3217375E-004  0.1752316E+03  0.7546771E-02  0.1178634E+00
         -2   -1    0    0    0  501 -0.00000000000E+00  0.00000000000E+00  0.64344776542E+02  0.64344776542E+02  0.00000000000E+00 0.  1.
          2   -1    0    0  501    0  0.00000000000E+00 -0.00000000000E+00 -0.42471760673E+03  0.42471760673E+03  0.00000000000E+00 0. -1.
         25    2    1    2    0    0  0.11431083920E+03  0.44850929345E+02 -0.16024996871E+03  0.23745769282E+03  0.12501011794E+03 0.  0.
         23    2    1    2    0    0 -0.11431083920E+03 -0.44850929345E+02 -0.20012286148E+03  0.25160469045E+03  0.90427798543E+02 0.  0.
          5    1    4    4  502    0 -0.37281843233E+02 -0.62841976401E+02 -0.98879061905E+02  0.12303742811E+03  0.47000000000E+01 0. -1.
         -5    1    4    4    0  502 -0.77028995967E+02  0.17991047057E+02 -0.10124379958E+03  0.12856726234E+03  0.47000000000E+01 0.  1.
          5    1    3    3  503    0 -0.36763751741E+00 -0.35033895233E+02 -0.34478347357E+02  0.49379706449E+02  0.47000000000E+01 0. -1.
         -5    1    3    3    0  503  0.11467847672E+03  0.79884824577E+02 -0.12577162135E+03  0.18807798637E+03  0.47000000000E+01 0. -1.
<mgrwt>
<rscale>  0 0.16924879E+03</rscale>
<asrwt>0</asrwt>
<pdfrwt beam="1">  1        2 0.65341171E-01 0.17523157E+03</pdfrwt>
<pdfrwt beam="2">  1       -2 0.98991963E-02 0.17523157E+03</pdfrwt>
<totfact> 0.49148141E+03</totfact>
</mgrwt>
</event>
<event>
 8    1  0.3217375E-004  0.1363824E+03  0.7546771E-02  0.1230480E+00
          2   -1    0    0  501    0  0.00000000000E+00  0.00000000000E+00  0.98790617930E+03  0.98790617930E+03  0.00000000000E+00 0. -1.
         -2   -1    0    0    0  501 -0.00000000000E+00 -0.00000000000E+00 -0.17695812900E+02  0.17695812900E+02  0.00000000000E+00 0.  1.
         25    2    1    2    0    0 -0.53039679509E+02  0.12645094411E+02  0.33583784515E+03  0.36247376122E+03  0.12500825302E+03 0.  0.
         23    2    1    2    0    0  0.53039679509E+02 -0.12645094411E+02  0.63437252125E+03  0.64312823098E+03  0.90621850294E+02 0.  0.
          5    1    4    4  502    0  0.32740976345E+02 -0.51438449322E+02  0.33532097600E+03  0.34085206842E+03  0.47000000000E+01 0. -1.
         -5    1    3    3    0  503 -0.84829825126E+02  0.25790097409E+02  0.29877404654E+03  0.31168774317E+03  0.47000000000E+01 0.  1.
          5    1    3    3  503    0  0.31790145617E+02 -0.13145002997E+02  0.37063798608E+02  0.50786018051E+02  0.47000000000E+01 0.  1.
         -5    1    4    4    0  502  0.20298703164E+02  0.38793354910E+02  0.29905154525E+03  0.30227616256E+03  0.47000000000E+01 0.  1.
<mgrwt>
<rscale>  0 0.12798244E+03</rscale>
<asrwt>0</asrwt>
<pdfrwt beam="1">  1        2 0.15198552E+00 0.13638244E+03</pdfrwt>
<pdfrwt beam="2">  1       -2 0.27224335E-02 0.13638244E+03</pdfrwt>
<totfact> 0.12564435E+04</totfact>
</mgrwt>
</event>
<event>
 8    1  0.3217375E-004  0.3792584E+03  0.7546771E-02  0.1052065E+00
         -1   -1    0    0    0  501 -0.00000000000E+00  0.00000000000E+00  0.75513426643E+02  0.75513426643E+02  0.00000000000E+00 0.  1.
          1   -1    0    0  501    0  0.00000000000E+00 -0.00000000000E+00 -0.18969973127E+04  0.18969973127E+04  0.00000000000E+00 0. -1.
         25    2    1    2    0    0  0.32716219823E+03  0.14552098040E+03 -0.78238926151E+03  0.86946528261E+03  0.12500184582E+03 0.  0.
         23    2    1    2    0    0 -0.32716219823E+03 -0.14552098040E+03 -0.10390946245E+04  0.11030454567E+04  0.93702620845E+02 0.  0.
          5    1    4    4  502    0 -0.83300303890E+02 -0.27340751987E+02 -0.38767328347E+03  0.39749103394E+03  0.47000000000E+01 0. -1.
         -5    1    4    4    0  502 -0.24386189434E+03 -0.11818022841E+03 -0.65142134104E+03  0.70555442275E+03  0.47000000000E+01 0.  1.
          5    1    3    3  503    0  0.70958918624E+02  0.18756277574E+02 -0.29855508784E+03  0.30748040028E+03  0.47000000000E+01 0. -1.
         -5    1    3    3    0  503  0.25620327961E+03  0.12676470282E+03 -0.48383417367E+03  0.56198488234E+03  0.47000000000E+01 0. -1.
<mgrwt>
<rscale>  0 0.37695382E+03</rscale>
<asrwt>0</asrwt>
<pdfrwt beam="1">  1        1 0.29184575E+00 0.37925838E+03</pdfrwt>
<pdfrwt beam="2">  1       -1 0.11617450E-01 0.37925838E+03</pdfrwt>
<totfact> 0.18643610E+02</totfact>
</mgrwt>
</event>
<event>
 8    1  0.3217375E-004  0.1458157E+03  0.7546771E-02  0.1215044E+00
          2   -1    0    0  501    0  0.00000000000E+00  0.00000000000E+00  0.34764353288E+03  0.34764353288E+03  0.00000000000E+00 0. -1.
         -2   -1    0    0    0  501 -0.00000000000E+00 -0.00000000000E+00 -0.66020939493E+02  0.66020939493E+02  0.00000000000E+00 0.  1.
         25    2    1    2    0    0 -0.21744612442E+02 -0.71884089969E+02  0.51990517576E+02  0.15480710384E+03  0.12498829913E+03 0.  0.
         23    2    1    2    0    0  0.21744612442E+02  0.71884089969E+02  0.22963207581E+03  0.25885736854E+03  0.92930600147E+02 0.  0.
          5    1    3    3  502    0 -0.65179586343E+02 -0.60607425778E+02  0.44130346262E+01  0.89236782830E+02  0.47000000000E+01 0. -1.
         -5    1    3    3    0  502  0.43434973900E+02 -0.11276664192E+02  0.47577482950E+02  0.65570321007E+02  0.47000000000E+01 0. -1.
          5    1    4    4  503    0  0.42150986643E+02  0.84498543022E+02  0.17240267740E+03  0.19662523394E+03  0.47000000000E+01 0.  1.
         -5    1    4    4    0  503 -0.20406374200E+02 -0.12614453053E+02  0.57229398414E+02  0.62232134599E+02  0.47000000000E+01 0. -1.
<mgrwt>
<rscale>  0 0.13873308E+03</rscale>
<asrwt>0</asrwt>
<pdfrwt beam="1">  1        2 0.53483619E-01 0.14581572E+03</pdfrwt>
<pdfrwt beam="2">  1       -2 0.10157068E-01 0.14581572E+03</pdfrwt>
<totfact> 0.57939550E+03</totfact>
</mgrwt>
</event>
<event>
 8    1  0.3217375E-004  0.1357310E+03  0.7546771E-02  0.1235491E+00
         -1   -1    0    0    0  501 -0.00000000000E+00  0.00000000000E+00  0.30489510506E+02  0.30489510506E+02  0.00000000000E+00 0.  1.
          1   -1    0    0  501    0  0.00000000000E+00 -0.00000000000E+00 -0.44421912056E+03  0.44421912056E+03  0.00000000000E+00 0. -1.
         25    2    1    2    0    0  0.13581098832E+01  0.52860149968E+02 -0.25186749744E+03  0.28611211450E+03  0.12500746330E+03 0.  0.
         23    2    1    2    0    0 -0.13581098832E+01 -0.52860149968E+02 -0.16186211261E+03  0.18859651656E+03  0.81075659996E+02 0.  0.
          5    1    3    3  502    0 -0.33519370364E+02  0.38260455115E+02 -0.26502281372E+02  0.57548862136E+02  0.47000000000E+01 0.  1.
         -5    1    4    4    0  503  0.29653431340E+02 -0.17635339103E+02 -0.12190700178E+03  0.12678224741E+03  0.47000000000E+01 0.  1.
          5    1    4    4  503    0 -0.31011541223E+02 -0.35224810865E+02 -0.39955110835E+02  0.61814269156E+02  0.47000000000E+01 0. -1.
         -5    1    3    3    0  502  0.34877480247E+02  0.14599694853E+02 -0.22536521607E+03  0.22856325237E+03  0.47000000000E+01 0.  1.
<mgrwt>
<rscale>  0 0.12473051E+03</rscale>
<asrwt>0</asrwt>
<pdfrwt beam="1">  1        1 0.68341397E-01 0.13573101E+03</pdfrwt>
<pdfrwt beam="2">  1       -1 0.46906944E-02 0.13573101E+03</pdfrwt>
<totfact> 0.97353841E+03</totfact>
</mgrwt>
</event>
<event>
 8    1  0.3217375E-004  0.1722669E+03  0.7546771E-02  0.1181946E+00
         -2   -1    0    0    0  501 -0.00000000000E+00  0.00000000000E+00  0.31558630055E+02  0.31558630055E+02  0.00000000000E+00 0.  1.
          2   -1    0    0  501    0  0.00000000000E+00 -0.00000000000E+00 -0.84134397526E+03  0.84134397526E+03  0.00000000000E+00 0. -1.
         25    2    1    2    0    0 -0.59737061590E+02  0.10238087343E+03 -0.36027656428E+03  0.39934333583E+03  0.12500214929E+03 0.  0.
         23    2    1    2    0    0  0.59737061590E+02 -0.10238087343E+03 -0.44950878092E+03  0.47355926949E+03  0.90276673733E+02 0.  0.
          5    1    3    3  502    0 -0.75110684589E+02  0.47800098766E+02 -0.10472948196E+03  0.13753842653E+03  0.47000000000E+01 0. -1.
         -5    1    4    4    0  503  0.29999361067E+01 -0.61565066952E+02 -0.32382050348E+03  0.32966811426E+03  0.47000000000E+01 0.  1.
          5    1    4    4  503    0  0.56737125483E+02 -0.40815806478E+02 -0.12568827744E+03  0.14389115523E+03  0.47000000000E+01 0. -1.
         -5    1    3    3    0  502  0.15373622999E+02  0.54580774664E+02 -0.25554708233E+03  0.26180490930E+03  0.47000000000E+01 0. -1.
<mgrwt>
<rscale>  0 0.16612927E+03</rscale>
<asrwt>0</asrwt>
<pdfrwt beam="1">  1        2 0.12943753E+00 0.17226694E+03</pdfrwt>
<pdfrwt beam="2">  1       -2 0.48551742E-02 0.17226694E+03</pdfrwt>
<totfact> 0.66602730E+03</totfact>
</mgrwt>
</event>
<event>
 8    1  0.3217375E-004  0.1651214E+03  0.7546771E-02  0.1189978E+00
         -2   -1    0    0    0  501 -0.00000000000E+00  0.00000000000E+00  0.40930762587E+02  0.40930762587E+02  0.00000000000E+00 0.  1.
          2   -1    0    0  501    0  0.00000000000E+00 -0.00000000000E+00 -0.59964655469E+03  0.59964655469E+03  0.00000000000E+00 0. -1.
         25    2    1    2    0    0  0.26732414859E+02 -0.10452128193E+03 -0.36570066994E+03  0.40125063630E+03  0.12500309098E+03 0.  0.
         23    2    1    2    0    0 -0.26732414859E+02  0.10452128193E+03 -0.19301512216E+03  0.23932668098E+03  0.91559283873E+02 0.  0.
          5    1    3    3  502    0 -0.53486654708E+01 -0.81076713400E+02 -0.34818879581E+03  0.35757456454E+03  0.47000000000E+01 0. -1.
         -5    1    4    4    0  503 -0.59398074433E+02  0.50357577052E+02 -0.10995351142E+03  0.13481795684E+03  0.47000000000E+01 0.  1.
          5    1    4    4  503    0  0.32665659574E+02  0.54163704880E+02 -0.83061610744E+02  0.10450872414E+03  0.47000000000E+01 0. -1.
         -5    1    3    3    0  502  0.32081080330E+02 -0.23444568532E+02 -0.17511874129E+02  0.43676071759E+02  0.47000000000E+01 0. -1.
<mgrwt>
<rscale>  0 0.15887011E+03</rscale>
<asrwt>0</asrwt>
<pdfrwt beam="1">  1        2 0.92253310E-01 0.16512145E+03</pdfrwt>
<pdfrwt beam="2">  1       -2 0.62970408E-02 0.16512145E+03</pdfrwt>
<totfact> 0.67413574E+03</totfact>
</mgrwt>
</event>
<event>
 8    1  0.3217375E-004  0.1547821E+03  0.7546771E-02  0.1203212E+00
         -3   -1    0    0    0  501 -0.00000000000E+00  0.00000000000E+00  0.26347355614E+02  0.26347355614E+02  0.00000000000E+00 0. -1.
          3   -1    0    0  501    0  0.00000000000E+00 -0.00000000000E+00 -0.78072824694E+03  0.78072824694E+03  0.00000000000E+00 0.  1.
         25    2    1    2    0    0 -0.63023229868E+02  0.66041017618E+02 -0.47284754782E+03  0.49753624062E+03  0.12499665490E+03 0.  0.
         23    2    1    2    0    0  0.63023229868E+02 -0.66041017618E+02 -0.28153334351E+03  0.30953936194E+03  0.90665591999E+02 0.  0.
          5    1    4    4  502    0  0.41882523494E+02 -0.83366807886E+02 -0.25323916527E+03  0.26991912725E+03  0.47000000000E+01 0. -1.
         -5    1    3    3    0  503  0.64734793791E+01  0.82095687834E+02 -0.27858589305E+03  0.29054052678E+03  0.47000000000E+01 0. -1.
          5    1    3    3  503    0 -0.69496709247E+02 -0.16054670216E+02 -0.19426165477E+03  0.20699571384E+03  0.47000000000E+01 0. -1.
         -5    1    4    4    0  502  0.21140706374E+02  0.17325790268E+02 -0.28294178240E+02  0.39620234687E+02  0.47000000000E+01 0.  1.
<mgrwt>
<rscale>  0 0.14779241E+03</rscale>
<asrwt>0</asrwt>
<pdfrwt beam="1">  1        3 0.12011205E+00 0.15478213E+03</pdfrwt>
<pdfrwt beam="2">  1       -3 0.40534388E-02 0.15478213E+03</pdfrwt>
<totfact> 0.44519859E+02</totfact>
</mgrwt>
</event>
<event>
 8    1  0.3217375E-004  0.1361555E+03  0.7546771E-02  0.1226014E+00
         -2   -1    0    0    0  501 -0.00000000000E+00  0.00000000000E+00  0.21363293859E+02  0.21363293859E+02  0.00000000000E+00 0.  1.
          2   -1    0    0  501    0  0.00000000000E+00 -0.00000000000E+00 -0.74981007935E+03  0.74981007935E+03  0.00000000000E+00 0. -1.
         25    2    1    2    0    0  0.26386693305E+02 -0.47076966089E+02 -0.41339511385E+03  0.43523996501E+03  0.12500323465E+03 0.  0.
         23    2    1    2    0    0 -0.26386693305E+02  0.47076966089E+02 -0.31505167165E+03  0.33593340820E+03  0.10334989413E+03 0.  0.
          5    1    4    4  502    0  0.35686976502E+02  0.21972686053E+02 -0.18306112760E+03  0.18785586407E+03  0.47000000000E+01 0. -1.
         -5    1    4    4    0  502 -0.62073669807E+02  0.25104280036E+02 -0.13199054404E+03  0.14807754413E+03  0.47000000000E+01 0.  1.
          5    1    3    3  503    0  0.21159164264E+02  0.10018964461E+02 -0.71272347839E+01  0.24919417266E+02  0.47000000000E+01 0.  1.
         -5    1    3    3    0  503  0.52275290419E+01 -0.57095930551E+02 -0.40626787906E+03  0.41032054775E+03  0.47000000000E+01 0.  1.
<mgrwt>
<rscale>  0 0.13097653E+03</rscale>
<asrwt>0</asrwt>
<pdfrwt beam="1">  1        2 0.11535540E+00 0.13615545E+03</pdfrwt>
<pdfrwt beam="2">  1       -2 0.32866604E-02 0.13615545E+03</pdfrwt>
<totfact> 0.13574140E+04</totfact>
</mgrwt>
</event>
<event>
 8    1  0.3217375E-004  0.1464399E+03  0.7546771E-02  0.1215776E+00
          2   -1    0    0  501    0  0.00000000000E+00  0.00000000000E+00  0.12387351109E+04  0.12387351109E+04  0.00000000000E+00 0. -1.
         -2   -1    0    0    0  501 -0.00000000000E+00 -0.00000000000E+00 -0.15329248598E+02  0.15329248598E+02  0.00000000000E+00 0.  1.
         25    2    1    2    0    0  0.63022389348E+02 -0.42989519434E+02  0.86499284727E+03  0.87730112332E+03  0.12499885921E+03 0.  0.
         23    2    1    2    0    0 -0.63022389348E+02  0.42989519434E+02  0.35841301504E+03  0.37676323619E+03  0.87582683526E+02 0.  0.
          5    1    4    4  502    0 -0.72061264041E+02  0.31778382913E+01  0.26557823380E+03  0.27523955511E+03  0.47000000000E+01 0. -1.
         -5    1    3    3    0  503  0.70270354729E+02  0.26956524841E+02  0.40896566260E+03  0.41586004878E+03  0.47000000000E+01 0.  1.
          5    1    3    3  503    0 -0.72479653806E+01 -0.69946044274E+02  0.45602718467E+03  0.46144107453E+03  0.47000000000E+01 0.  1.
         -5    1    4    4    0  502  0.90388746929E+01  0.39811681143E+02  0.92834781242E+02  0.10152368108E+03  0.47000000000E+01 0.  1.
<mgrwt>
<rscale>  0 0.13819699E+03</rscale>
<asrwt>0</asrwt>
<pdfrwt beam="1">  1        2 0.19057455E+00 0.14643987E+03</pdfrwt>
<pdfrwt beam="2">  1       -2 0.23583469E-02 0.14643987E+03</pdfrwt>
<totfact> 0.11183730E+04</totfact>
</mgrwt>
</event>
<event>
 8    1  0.3217375E-004  0.1295168E+03  0.7546771E-02  0.1242276E+00
          2   -1    0    0  501    0  0.00000000000E+00  0.00000000000E+00  0.53493760659E+02  0.53493760659E+02  0.00000000000E+00 0. -1.
         -2   -1    0    0    0  501 -0.00000000000E+00 -0.00000000000E+00 -0.25116021885E+03  0.25116021885E+03  0.00000000000E+00 0.  1.
         25    2    1    2    0    0 -0.19880340780E+02  0.27465333206E+02 -0.14432852323E+03  0.19392090762E+03  0.12500009327E+03 0.  0.
         23    2    1    2    0    0  0.19880340780E+02 -0.27465333206E+02 -0.53337934967E+02  0.11073307189E+03  0.90924723953E+02 0.  0.
          5    1    4    4  502    0  0.20467247811E+02  0.17287807919E+02  0.13334931277E+02  0.30293347912E+02  0.47000000000E+01 0. -1.
         -5    1    3    3    0  503  0.22884062166E+02  0.66251765978E+02 -0.92819354684E+02  0.11640661236E+03  0.47000000000E+01 0.  1.
          5    1    3    3  503    0 -0.42764402947E+02 -0.38786432772E+02 -0.51509168544E+02  0.77514295266E+02  0.47000000000E+01 0.  1.
         -5    1    4    4    0  502 -0.58690703038E+00 -0.44753141125E+02 -0.66672866243E+02  0.80439723977E+02  0.47000000000E+01 0.  1.
<mgrwt>
<rscale>  0 0.12049885E+03</rscale>
<asrwt>0</asrwt>
<pdfrwt beam="1">  1        2 0.82298093E-02 0.12951678E+03</pdfrwt>
<pdfrwt beam="2">  1       -2 0.38640034E-01 0.12951678E+03</pdfrwt>
<totfact> 0.49453272E+03</totfact>
</mgrwt>
</event>
<event>
 8    1  0.3217375E-004  0.1452589E+03  0.7546771E-02  0.1216543E+00
          2   -1    0    0  501    0  0.00000000000E+00  0.00000000000E+00  0.60914676674E+03  0.60914676674E+03  0.00000000000E+00 0.  1.
         -2   -1    0    0    0  501 -0.00000000000E+00 -0.00000000000E+00 -0.36409009562E+02  0.36409009562E+02  0.00000000000E+00 0. -1.
         25    2    1    2    0    0 -0.69314914057E+02  0.25917500194E+02  0.46235835818E+03  0.48463945500E+03  0.12499550327E+03 0.  0.
         23    2    1    2    0    0  0.69314914057E+02 -0.25917500194E+02  0.11037939899E+03  0.16091632130E+03  0.90742363925E+02 0.  0.
          5    1    3    3  502    0 -0.60653433530E+02  0.72666129552E+02  0.34868187979E+03  0.36133135579E+03  0.47000000000E+01 0.  1.
         -5    1    3    3    0  502 -0.86614805269E+01 -0.46748629358E+02  0.11367647839E+03  0.12330809921E+03  0.47000000000E+01 0.  1.
          5    1    4    4  503    0  0.46588126036E+02 -0.57354757326E+02  0.51273693218E+02  0.90061663829E+02  0.47000000000E+01 0. -1.
         -5    1    4    4    0  503  0.22726788021E+02  0.31437257132E+02  0.59105705775E+02  0.70854657468E+02  0.47000000000E+01 0.  1.
<mgrwt>
<rscale>  0 0.13763806E+03</rscale>
<asrwt>0</asrwt>
<pdfrwt beam="1">  1        2 0.93714880E-01 0.14525891E+03</pdfrwt>
<pdfrwt beam="2">  1       -2 0.56013865E-02 0.14525891E+03</pdfrwt>
<totfact> 0.78550902E+03</totfact>
</mgrwt>
</event>
<event>
 8    1  0.3217375E-004  0.1528154E+03  0.7546771E-02  0.1205838E+00
          2   -1    0    0  501    0  0.00000000000E+00  0.00000000000E+00  0.54345605673E+03  0.54345605673E+03  0.00000000000E+00 0.  1.
         -2   -1    0    0    0  501 -0.00000000000E+00 -0.00000000000E+00 -0.35847872241E+02  0.35847872241E+02  0.00000000000E+00 0. -1.
         25    2    1    2    0    0 -0.67241054535E+02 -0.56622640128E+02  0.27705836826E+03  0.31640778797E+03  0.12500026430E+03 0.  0.
         23    2    1    2    0    0  0.67241054535E+02  0.56622640128E+02  0.23054981623E+03  0.26289614100E+03  0.90739629718E+02 0.  0.
          5    1    4    4  502    0  0.50013344966E+02  0.68032341398E+02  0.10148106107E+03  0.13209931834E+03  0.47000000000E+01 0. -1.
         -5    1    3    3    0  503 -0.34507138594E+02  0.16664853217E+02  0.20447789603E+03  0.20809074922E+03  0.47000000000E+01 0.  1.
          5    1    3    3  503    0 -0.32733915941E+02 -0.73287493344E+02  0.72580472227E+02  0.10831703874E+03  0.47000000000E+01 0.  1.
         -5    1    4    4    0  502  0.17227709569E+02 -0.11409701270E+02  0.12906875515E+03  0.13079682266E+03  0.47000000000E+01 0.  1.
<mgrwt>
<rscale>  0 0.14571640E+03</rscale>
<asrwt>0</asrwt>
<pdfrwt beam="1">  1        2 0.83608618E-01 0.15281541E+03</pdfrwt>
<pdfrwt beam="2">  1       -2 0.55150577E-02 0.15281541E+03</pdfrwt>
<totfact> 0.91782716E+03</totfact>
</mgrwt>
</event>
<event>
 8    1  0.3217375E-004  0.1389063E+03  0.7546771E-02  0.1224880E+00
         -1   -1    0    0    0  501 -0.00000000000E+00  0.00000000000E+00  0.19011850044E+02  0.19011850044E+02  0.00000000000E+00 0.  1.
          1   -1    0    0  501    0  0.00000000000E+00 -0.00000000000E+00 -0.95180880576E+03  0.95180880576E+03  0.00000000000E+00 0. -1.
         25    2    1    2    0    0  0.34129312795E+01 -0.60483665792E+02 -0.68165944452E+03  0.69566843223E+03  0.12500018948E+03 0.  0.
         23    2    1    2    0    0 -0.34129312795E+01  0.60483665792E+02 -0.25113751119E+03  0.27515222357E+03  0.94703614930E+02 0.  0.
          5    1    4    4  502    0 -0.11692063863E+01  0.26082304099E+02 -0.23552890816E+03  0.23701816430E+03  0.47000000000E+01 0. -1.
         -5    1    3    3    0  503  0.48542162514E+02 -0.75270467143E+02 -0.49121966725E+03  0.49934040119E+03  0.47000000000E+01 0.  1.
          5    1    3    3  503    0 -0.45129231234E+02  0.14786801351E+02 -0.19043977727E+03  0.19632803104E+03  0.47000000000E+01 0.  1.
         -5    1    4    4    0  502 -0.22437248931E+01  0.34401361692E+02 -0.15608603034E+02  0.38134059269E+02  0.47000000000E+01 0.  1.
<mgrwt>
<rscale>  0 0.13175112E+03</rscale>
<asrwt>0</asrwt>
<pdfrwt beam="1">  1        1 0.14643209E+00 0.13890633E+03</pdfrwt>
<pdfrwt beam="2">  1       -1 0.29249007E-02 0.13890633E+03</pdfrwt>
<totfact> 0.66208109E+03</totfact>
</mgrwt>
</event>
<event>
 8    1  0.3217375E-004  0.2064567E+03  0.7546771E-02  0.1148602E+00
         -2   -1    0    0    0  501 -0.00000000000E+00  0.00000000000E+00  0.28809393800E+02  0.28809393800E+02  0.00000000000E+00 0. -1.
          2   -1    0    0  501    0  0.00000000000E+00 -0.00000000000E+00 -0.16436220411E+04  0.16436220411E+04  0.00000000000E+00 0.  1.
         25    2    1    2    0    0  0.58533313158E+02 -0.15353396376E+03 -0.48248474724E+03  0.52480080190E+03  0.12500209426E+03 0.  0.
         23    2    1    2    0    0 -0.58533313158E+02  0.15353396376E+03 -0.11323279000E+04  0.11476306330E+04  0.88830004992E+02 0.  0.
          5    1    3    3  502    0 -0.22240312142E+02 -0.20161678089E+02 -0.19162529058E+02  0.35922378366E+02  0.47000000000E+01 0.  1.
         -5    1    4    4    0  503 -0.69239565222E+02  0.81389701631E+02 -0.81537272636E+03  0.82235830014E+03  0.47000000000E+01 0.  1.
          5    1    4    4  503    0  0.10706252064E+02  0.72144262130E+02 -0.31695517367E+03  0.32527233283E+03  0.47000000000E+01 0. -1.
         -5    1    3    3    0  502  0.80773625299E+02 -0.13337228567E+03 -0.46332221819E+03  0.48887842353E+03  0.47000000000E+01 0.  1.
<mgrwt>
<rscale>  0 0.20135326E+03</rscale>
<asrwt>0</asrwt>
<pdfrwt beam="1">  1        2 0.25286494E+00 0.20645665E+03</pdfrwt>
<pdfrwt beam="2">  1       -2 0.44322142E-02 0.20645665E+03</pdfrwt>
<totfact> 0.26923220E+03</totfact>
</mgrwt>
</event>
<event>
 8    1  0.3217375E-004  0.1277577E+03  0.7546771E-02  0.1244951E+00
         -3   -1    0    0    0  501 -0.00000000000E+00  0.00000000000E+00  0.33883724625E+02  0.33883724625E+02  0.00000000000E+00 0.  1.
          3   -1    0    0  501    0  0.00000000000E+00 -0.00000000000E+00 -0.49266636539E+03  0.49266636539E+03  0.00000000000E+00 0. -1.
         25    2    1    2    0    0  0.42325091820E+01  0.26055057039E+02 -0.12289940382E+03  0.17727463068E+03  0.12500100437E+03 0.  0.
         23    2    1    2    0    0 -0.42325091820E+01 -0.26055057039E+02 -0.33588323695E+03  0.34927545933E+03  0.92081580668E+02 0.  0.
          5    1    4    4  502    0 -0.40687643407E+02  0.11869885955E+02 -0.13571749495E+03  0.14225929479E+03  0.47000000000E+01 0. -1.
         -5    1    4    4    0  502  0.36455134225E+02 -0.37924942994E+02 -0.20016574200E+03  0.20701616454E+03  0.47000000000E+01 0.  1.
          5    1    3    3  503    0 -0.48534456980E+02 -0.93030504457E+01 -0.14788307070E+02  0.51796952497E+02  0.47000000000E+01 0.  1.
         -5    1    3    3    0  503  0.52766966163E+02  0.35358107484E+02 -0.10811109675E+03  0.12547767819E+03  0.47000000000E+01 0.  1.
<mgrwt>
<rscale>  0 0.11888329E+03</rscale>
<asrwt>0</asrwt>
<pdfrwt beam="1">  1        3 0.75794828E-01 0.12775771E+03</pdfrwt>
<pdfrwt beam="2">  1       -3 0.52128805E-02 0.12775771E+03</pdfrwt>
<totfact> 0.81966277E+02</totfact>
</mgrwt>
</event>
<event>
 8    1  0.3217375E-004  0.1522145E+03  0.7546771E-02  0.1206134E+00
         -2   -1    0    0    0  501 -0.00000000000E+00  0.00000000000E+00  0.14189390010E+02  0.14189390010E+02  0.00000000000E+00 0.  1.
          2   -1    0    0  501    0  0.00000000000E+00 -0.00000000000E+00 -0.15634641842E+04  0.15634641842E+04  0.00000000000E+00 0. -1.
         25    2    1    2    0    0  0.31213966139E+01  0.86797557032E+02 -0.11097645463E+04  0.11201547287E+04  0.12500283579E+03 0.  0.
         23    2    1    2    0    0 -0.31213966139E+01 -0.86797557032E+02 -0.43951024789E+03  0.45749884552E+03  0.92695073386E+02 0.  0.
          5    1    3    3  502    0  0.59455895483E+02  0.49662802684E+02 -0.75672897370E+03  0.76069851262E+03  0.47000000000E+01 0.  1.
         -5    1    4    4    0  503  0.40842138400E+02 -0.63174564596E+02 -0.22827550872E+03  0.24039738718E+03  0.47000000000E+01 0. -1.
          5    1    4    4  503    0 -0.43963535014E+02 -0.23622992436E+02 -0.21123473917E+03  0.21710145834E+03  0.47000000000E+01 0.  1.
         -5    1    3    3    0  502 -0.56334498869E+02  0.37134754348E+02 -0.35303557262E+03  0.35945621608E+03  0.47000000000E+01 0.  1.
<mgrwt>
<rscale>  0 0.14548439E+03</rscale>
<asrwt>0</asrwt>
<pdfrwt beam="1">  1        2 0.24053312E+00 0.15221455E+03</pdfrwt>
<pdfrwt beam="2">  1       -2 0.21829816E-02 0.15221455E+03</pdfrwt>
<totfact> 0.84248299E+03</totfact>
</mgrwt>
</event>
<event>
 8    1  0.3217375E-004  0.2406385E+03  0.7546771E-02  0.1121452E+00
          2   -1    0    0  501    0  0.00000000000E+00  0.00000000000E+00  0.15335158388E+04  0.15335158388E+04  0.00000000000E+00 0. -1.
         -2   -1    0    0    0  501 -0.00000000000E+00 -0.00000000000E+00 -0.35869260734E+02  0.35869260734E+02  0.00000000000E+00 0.  1.
         25    2    1    2    0    0  0.57303649960E+02  0.19748439457E+03  0.76530148129E+03  0.80224263539E+03  0.12499237728E+03 0.  0.
         23    2    1    2    0    0 -0.57303649960E+02 -0.19748439457E+03  0.73234509681E+03  0.76714246418E+03  0.99470724956E+02 0.  0.
          5    1    4    4  502    0 -0.72798989551E+02 -0.13668411767E+03  0.61241862787E+03  0.63171267730E+03  0.47000000000E+01 0. -1.
         -5    1    3    3    0  503  0.47165394136E+02  0.12656239788E+03  0.27179792643E+03  0.30354376583E+03  0.47000000000E+01 0.  1.
          5    1    3    3  503    0  0.10138255825E+02  0.70921996692E+02  0.49350355486E+03  0.49869886956E+03  0.47000000000E+01 0.  1.
         -5    1    4    4    0  502  0.15495339590E+02 -0.60800276902E+02  0.11992646894E+03  0.13542978688E+03  0.47000000000E+01 0.  1.
<mgrwt>
<rscale>  0 0.23752536E+03</rscale>
<asrwt>0</asrwt>
<pdfrwt beam="1">  1        2 0.23592546E+00 0.24063850E+03</pdfrwt>
<pdfrwt beam="2">  1       -2 0.55183490E-02 0.24063850E+03</pdfrwt>
<totfact> 0.22053361E+03</totfact>
</mgrwt>
</event>
<event>
 8    1  0.3217375E-004  0.3323864E+03  0.7546771E-02  0.1071360E+00
         -1   -1    0    0    0  501 -0.00000000000E+00  0.00000000000E+00  0.11769434374E+04  0.11769434374E+04  0.00000000000E+00 0.  1.
          1   -1    0    0  501    0  0.00000000000E+00 -0.00000000000E+00 -0.96530545510E+02  0.96530545510E+02  0.00000000000E+00 0. -1.
         25    2    1    2    0    0  0.12814219412E+03  0.28006320247E+03  0.39229073326E+03  0.51417187690E+03  0.12499952122E+03 0.  0.
         23    2    1    2    0    0 -0.12814219412E+03 -0.28006320247E+03  0.68812215859E+03  0.75930210597E+03  0.90397808011E+02 0.  0.
          5    1    4    4  502    0 -0.34592219715E+02 -0.16232546112E+03  0.42373704459E+03  0.45510586675E+03  0.47000000000E+01 0. -1.
         -5    1    4    4    0  502 -0.93549974406E+02 -0.11773774135E+03  0.26438511400E+03  0.30419623922E+03  0.47000000000E+01 0.  1.
          5    1    3    3  503    0  0.32978118254E+02 -0.30315428169E+01  0.33860857850E+02  0.47596157720E+02  0.47000000000E+01 0. -1.
         -5    1    3    3    0  503  0.95164075867E+02  0.28309474528E+03  0.35842987541E+03  0.46657571918E+03  0.47000000000E+01 0. -1.
<mgrwt>
<rscale>  0 0.32949710E+03</rscale>
<asrwt>0</asrwt>
<pdfrwt beam="1">  1        1 0.14850854E-01 0.33238637E+03</pdfrwt>
<pdfrwt beam="2">  1       -1 0.18106821E+00 0.33238637E+03</pdfrwt>
<totfact> 0.84489162E+01</totfact>
</mgrwt>
</event>
<event>
 8    1  0.3217375E-004  0.2742199E+03  0.7546771E-02  0.1100830E+00
          2   -1    0    0  501    0  0.00000000000E+00  0.00000000000E+00  0.26203091265E+04  0.26203091265E+04  0.00000000000E+00 0. -1.
         -2   -1    0    0    0  501 -0.00000000000E+00 -0.00000000000E+00 -0.28657652635E+02  0.28657652635E+02  0.00000000000E+00 0.  1.
         25    2    1    2    0    0 -0.24375849086E+03 -0.12354056873E+02  0.10392462451E+04  0.10748159340E+04  0.12500283799E+03 0.  0.
         23    2    1    2    0    0  0.24375849086E+03  0.12354056873E+02  0.15524052288E+04  0.15741508452E+04  0.91750009584E+02 0.  0.
          5    1    4    4  502    0  0.20807467505E+03  0.10632277750E+02  0.14628259470E+04  0.14775960060E+04  0.47000000000E+01 0. -1.
         -5    1    3    3    0  503 -0.15286019616E+03 -0.58642822431E+02  0.76092593367E+03  0.77835440946E+03  0.47000000000E+01 0. -1.
          5    1    3    3  503    0 -0.90898294699E+02  0.46288765558E+02  0.27832031138E+03  0.29646152452E+03  0.47000000000E+01 0. -1.
         -5    1    4    4    0  502  0.35683815803E+02  0.17217791226E+01  0.89579281822E+02  0.96554839161E+02  0.47000000000E+01 0.  1.
<mgrwt>
<rscale>  0 0.27078770E+03</rscale>
<asrwt>0</asrwt>
<pdfrwt beam="1">  1        2 0.40312429E+00 0.27421986E+03</pdfrwt>
<pdfrwt beam="2">  1       -2 0.44088717E-02 0.27421986E+03</pdfrwt>
<totfact> 0.81562682E+02</totfact>
</mgrwt>
</event>
<event>
 8    1  0.3217375E-004  0.1434535E+03  0.7546771E-02  0.1219281E+00
          2   -1    0    0  501    0  0.00000000000E+00  0.00000000000E+00  0.35149797334E+03  0.35149797334E+03  0.00000000000E+00 0. -1.
         -2   -1    0    0    0  501 -0.00000000000E+00 -0.00000000000E+00 -0.49030888189E+02  0.49030888189E+02  0.00000000000E+00 0.  1.
         25    2    1    2    0    0 -0.16546904663E+02  0.68395969971E+02  0.13140207977E+03  0.19453894302E+03  0.12500833981E+03 0.  0.
         23    2    1    2    0    0  0.16546904663E+02 -0.68395969971E+02  0.17106500538E+03  0.20598991850E+03  0.90646575760E+02 0.  0.
          5    1    4    4  502    0 -0.31379263915E+02 -0.25989012610E+02  0.11005287021E+03  0.11744705710E+03  0.47000000000E+01 0. -1.
         -5    1    4    4    0  502  0.47926168579E+02 -0.42406957361E+02  0.61012135171E+02  0.88542861403E+02  0.47000000000E+01 0.  1.
          5    1    3    3  503    0 -0.73916879650E+01  0.99664988145E+02  0.12645967558E+03  0.16125100452E+03  0.47000000000E+01 0.  1.
         -5    1    3    3    0  503 -0.91552166982E+01 -0.31269018174E+02  0.49424041913E+01  0.33287938499E+02  0.47000000000E+01 0.  1.
<mgrwt>
<rscale>  0 0.13566748E+03</rscale>
<asrwt>0</asrwt>
<pdfrwt beam="1">  1        2 0.54076610E-01 0.14345346E+03</pdfrwt>
<pdfrwt beam="2">  1       -2 0.75432138E-02 0.14345346E+03</pdfrwt>
<totfact> 0.90919042E+03</totfact>
</mgrwt>
</event>
<event>
 8    1  0.3217375E-004  0.1406177E+03  0.7546771E-02  0.1223255E+00
          1   -1    0    0  501    0  0.00000000000E+00  0.00000000000E+00  0.10514043359E+03  0.10514043359E+03  0.00000000000E+00 0. -1.
         -1   -1    0    0    0  501 -0.00000000000E+00 -0.00000000000E+00 -0.15201665047E+03  0.15201665047E+03  0.00000000000E+00 0.  1.
         25    2    1    2    0    0 -0.48830143875E+02 -0.41999131443E+02 -0.22001436981E+02  0.14232850850E+03  0.12500012444E+03 0.  0.
         23    2    1    2    0    0  0.48830143875E+02  0.41999131443E+02 -0.24874779894E+02  0.11482857556E+03  0.91752586324E+02 0.  0.
          5    1    3    3  502    0 -0.43724611873E+02  0.11767922245E+02 -0.60588558354E+02  0.75785150794E+02  0.47000000000E+01 0.  1.
         -5    1    4    4    0  503  0.21064907385E+02 -0.27718581276E+02 -0.17585295148E+02  0.39285909389E+02  0.47000000000E+01 0.  1.
          5    1    4    4  503    0  0.27765236489E+02  0.69717712719E+02 -0.72894847461E+01  0.75542666169E+02  0.47000000000E+01 0. -1.
         -5    1    3    3    0  502 -0.51055320016E+01 -0.53767053688E+02  0.38587121374E+02  0.66543357710E+02  0.47000000000E+01 0.  1.
<mgrwt>
<rscale>  0 0.13287195E+03</rscale>
<asrwt>0</asrwt>
<pdfrwt beam="1">  1        1 0.16175451E-01 0.14061771E+03</pdfrwt>
<pdfrwt beam="2">  1       -1 0.23387177E-01 0.14061771E+03</pdfrwt>
<totfact> 0.50216318E+03</totfact>
</mgrwt>
</event>
<event>
 8    1  0.3217375E-004  0.1285912E+03  0.7546771E-02  0.1243759E+00
         -1   -1    0    0    0  501 -0.00000000000E+00  0.00000000000E+00  0.66176784746E+02  0.66176784746E+02  0.00000000000E+00 0.  1.
          1   -1    0    0  501    0  0.00000000000E+00 -0.00000000000E+00 -0.19620511484E+03  0.19620511484E+03  0.00000000000E+00 0. -1.
         25    2    1    2    0    0 -0.82200528396E+01  0.29027307148E+02 -0.52843803996E+02  0.13902581001E+03  0.12500221757E+03 0.  0.
         23    2    1    2    0    0  0.82200528396E+01 -0.29027307148E+02 -0.77184526102E+02  0.12335608958E+03  0.91373518804E+02 0.  0.
          5    1    4    4  502    0  0.43049812514E+02 -0.36273174024E+02 -0.29653105006E+02  0.63799891440E+02  0.47000000000E+01 0. -1.
         -5    1    4    4    0  502 -0.34829759675E+02  0.72458668759E+01 -0.47531421096E+02  0.59556198142E+02  0.47000000000E+01 0.  1.
          5    1    3    3  503    0 -0.41516991366E+00 -0.37825519880E+02  0.17157356892E+02  0.41802000141E+02  0.47000000000E+01 0. -1.
         -5    1    3    3    0  503 -0.78048829259E+01  0.66852827029E+02 -0.70001160888E+02  0.97223809866E+02  0.47000000000E+01 0. -1.
<mgrwt>
<rscale>  0 0.11959986E+03</rscale>
<asrwt>0</asrwt>
<pdfrwt beam="1">  1        1 0.30185401E-01 0.12859124E+03</pdfrwt>
<pdfrwt beam="2">  1       -1 0.10181044E-01 0.12859124E+03</pdfrwt>
<totfact> 0.83912977E+03</totfact>
</mgrwt>
</event>
<event>
 8    1  0.3217375E-004  0.1583912E+03  0.7546771E-02  0.1198392E+00
         -4   -1    0    0    0  501 -0.00000000000E+00  0.00000000000E+00  0.54437514548E+03  0.54437514548E+03  0.00000000000E+00 0. -1.
          4   -1    0    0  501    0  0.00000000000E+00 -0.00000000000E+00 -0.47881391103E+02  0.47881391103E+02  0.00000000000E+00 0.  1.
         25    2    1    2    0    0  0.96784610241E+02  0.97286388015E+01  0.13905004994E+03  0.21076692587E+03  0.12500349380E+03 0.  0.
         23    2    1    2    0    0 -0.96784610241E+02 -0.97286388015E+01  0.35744370444E+03  0.38148961070E+03  0.91139530616E+02 0.  0.
          5    1    4    4  502    0 -0.33520089160E+02 -0.44071950045E+02  0.10320648491E+03  0.11721604705E+03  0.47000000000E+01 0. -1.
         -5    1    4    4    0  502 -0.63264521081E+02  0.34343311243E+02  0.25423721953E+03  0.26427356366E+03  0.47000000000E+01 0.  1.
          5    1    3    3  503    0  0.10994066097E+03 -0.31494713351E+02  0.93842625181E+02  0.14801146646E+03  0.47000000000E+01 0. -1.
         -5    1    3    3    0  503 -0.13156050725E+02  0.41223352152E+02  0.45207424755E+02  0.62755459414E+02  0.47000000000E+01 0. -1.
<mgrwt>
<rscale>  0 0.15170648E+03</rscale>
<asrwt>0</asrwt>
<pdfrwt beam="1">  1        4 0.73663683E-02 0.15839123E+03</pdfrwt>
<pdfrwt beam="2">  1       -4 0.83750018E-01 0.15839123E+03</pdfrwt>
<totfact> 0.27841359E+02</totfact>
</mgrwt>
</event>
<event>
 8    1  0.3217375E-004  0.1691635E+03  0.7546771E-02  0.1183390E+00
          2   -1    0    0  501    0  0.00000000000E+00  0.00000000000E+00  0.52517577549E+03  0.52517577549E+03  0.00000000000E+00 0. -1.
         -2   -1    0    0    0  501 -0.00000000000E+00 -0.00000000000E+00 -0.93914134799E+02  0.93914134799E+02  0.00000000000E+00 0.  1.
         25    2    1    2    0    0 -0.27593298088E+02 -0.11058902570E+03  0.43496375853E+03  0.46670092560E+03  0.12499984007E+03 0.  0.
         23    2    1    2    0    0  0.27593298088E+02  0.11058902570E+03 -0.37021178370E+01  0.15238898469E+03  0.10108102825E+03 0.  0.
          5    1    4    4  502    0 -0.32853142229E+02  0.70669223152E+02 -0.13190591471E+02  0.79180488497E+02  0.47000000000E+01 0. -1.
         -5    1    3    3    0  503 -0.52449182374E+02 -0.17895756253E+02  0.70567650546E+02  0.89850198259E+02  0.47000000000E+01 0.  1.
          5    1    3    3  503    0  0.24855884286E+02 -0.92693269451E+02  0.36439610798E+03  0.37685072734E+03  0.47000000000E+01 0.  1.
         -5    1    4    4    0  502  0.60446440317E+02  0.39919802552E+02  0.94884736345E+01  0.73208496192E+02  0.47000000000E+01 0.  1.
<mgrwt>
<rscale>  0 0.16479207E+03</rscale>
<asrwt>0</asrwt>
<pdfrwt beam="1">  1        2 0.80796271E-01 0.16916348E+03</pdfrwt>
<pdfrwt beam="2">  1       -2 0.14448329E-01 0.16916348E+03</pdfrwt>
<totfact> 0.21177550E+03</totfact>
</mgrwt>
</event>
<event>
 8    1  0.3217375E-004  0.1925088E+03  0.7546771E-02  0.1160800E+00
         -1   -1    0    0    0  501 -0.00000000000E+00  0.00000000000E+00  0.39061234103E+02  0.39061234103E+02  0.00000000000E+00 0.  1.
          1   -1    0    0  501    0  0.00000000000E+00 -0.00000000000E+00 -0.87841076704E+03  0.87841076704E+03  0.00000000000E+00 0. -1.
         25    2    1    2    0    0  0.40571235159E+02 -0.14067462490E+03 -0.36667208821E+03  0.41413531260E+03  0.12499704662E+03 0.  0.
         23    2    1    2    0    0 -0.40571235159E+02  0.14067462490E+03 -0.47267744473E+03  0.50333668853E+03  0.92132947739E+02 0.  0.
          5    1    3    3  502    0 -0.32865706469E+02 -0.14923994013E+02 -0.29581102717E+02  0.46904284420E+02  0.47000000000E+01 0. -1.
         -5    1    3    3    0  502  0.73436941628E+02 -0.12575063088E+03 -0.33709098549E+03  0.36723102818E+03  0.47000000000E+01 0. -1.
          5    1    4    4  503    0  0.58990267997E+01  0.94227979866E+02 -0.36558209701E+03  0.37760570753E+03  0.47000000000E+01 0. -1.
         -5    1    4    4    0  503 -0.46470261959E+02  0.46446645031E+02 -0.10709534772E+03  0.12573098100E+03  0.47000000000E+01 0.  1.
<mgrwt>
<rscale>  0 0.18743044E+03</rscale>
<asrwt>0</asrwt>
<pdfrwt beam="1">  1        1 0.13514013E+00 0.19250880E+03</pdfrwt>
<pdfrwt beam="2">  1       -1 0.60094203E-02 0.19250880E+03</pdfrwt>
<totfact> 0.26291198E+03</totfact>
</mgrwt>
</event>
<event>
 8    1  0.3217375E-004  0.1340593E+03  0.7546771E-02  0.1234445E+00
         -1   -1    0    0    0  501 -0.00000000000E+00  0.00000000000E+00  0.35945532354E+03  0.35945532354E+03  0.00000000000E+00 0.  1.
          1   -1    0    0  501    0  0.00000000000E+00 -0.00000000000E+00 -0.71336174330E+02  0.71336174330E+02  0.00000000000E+00 0. -1.
         25    2    1    2    0    0 -0.45216750459E+02  0.17382460467E+02  0.29890411571E+03  0.32759055618E+03  0.12500079063E+03 0.  0.
         23    2    1    2    0    0  0.45216750459E+02 -0.17382460467E+02 -0.10784966500E+02  0.10320094168E+03  0.90484332391E+02 0.  0.
          5    1    3    3  502    0  0.13007190173E+02  0.26352976571E+02  0.24744505618E+03  0.24922843377E+03  0.47000000000E+01 0. -1.
         -5    1    4    4    0  503  0.46017280112E+02  0.79020450929E+01  0.29479026393E+02  0.55417825495E+02  0.47000000000E+01 0.  1.
          5    1    4    4  503    0 -0.80052965307E+00 -0.25284505560E+02 -0.40263992892E+02  0.47783116189E+02  0.47000000000E+01 0. -1.
         -5    1    3    3    0  502 -0.58223940632E+02 -0.89705161043E+01  0.51459059526E+02  0.78362122414E+02  0.47000000000E+01 0. -1.
<mgrwt>
<rscale>  0 0.12540000E+03</rscale>
<asrwt>0</asrwt>
<pdfrwt beam="1">  1        1 0.10974796E-01 0.13405932E+03</pdfrwt>
<pdfrwt beam="2">  1       -1 0.55300818E-01 0.13405932E+03</pdfrwt>
<totfact> 0.18718051E+03</totfact>
</mgrwt>
</event>
<event>
 8    1  0.3217375E-004  0.2023175E+03  0.7546771E-02  0.1150822E+00
         -1   -1    0    0    0  501 -0.00000000000E+00  0.00000000000E+00  0.23373528428E+02  0.23373528428E+02  0.00000000000E+00 0.  1.
          1   -1    0    0  501    0  0.00000000000E+00 -0.00000000000E+00 -0.16874531340E+04  0.16874531340E+04  0.00000000000E+00 0. -1.
         25    2    1    2    0    0  0.15112108040E+03  0.49708299067E+02 -0.70605566232E+03  0.73447052287E+03  0.12499541886E+03 0.  0.
         23    2    1    2    0    0 -0.15112108040E+03 -0.49708299067E+02 -0.95802394322E+03  0.97635613953E+03  0.10076179568E+03 0.  0.
          5    1    4    4  502    0 -0.42991057436E+01 -0.36843614498E+02 -0.12856657625E+03  0.13389319911E+03  0.47000000000E+01 0. -1.
         -5    1    4    4    0  502 -0.14682197466E+03 -0.12864684569E+02 -0.82945736697E+03  0.84246294041E+03  0.47000000000E+01 0.  1.
          5    1    3    3  503    0  0.48139493659E+02 -0.18660132436E+02 -0.41490935957E+03  0.41813571726E+03  0.47000000000E+01 0.  1.
         -5    1    3    3    0  503  0.10298158674E+03  0.68368431504E+02 -0.29114630275E+03  0.31633480561E+03  0.47000000000E+01 0.  1.
<mgrwt>
<rscale>  0 0.19872136E+03</rscale>
<asrwt>0</asrwt>
<pdfrwt beam="1">  1        1 0.25960815E+00 0.20231745E+03</pdfrwt>
<pdfrwt beam="2">  1       -1 0.35959277E-02 0.20231745E+03</pdfrwt>
<totfact> 0.15568449E+03</totfact>
</mgrwt>
</event>
<event>
 8    1  0.3217375E-004  0.1356481E+03  0.7546771E-02  0.1231691E+00
         -1   -1    0    0    0  501 -0.00000000000E+00  0.00000000000E+00  0.19903818573E+02  0.19903818573E+02  0.00000000000E+00 0.  1.
          1   -1    0    0  501    0  0.00000000000E+00 -0.00000000000E+00 -0.73115697685E+03  0.73115697685E+03  0.00000000000E+00 0. -1.
         25    2    1    2    0    0 -0.52431079365E+02  0.49415387828E+01 -0.43085498034E+03  0.45170390489E+03  0.12500786661E+03 0.  0.
         23    2    1    2    0    0  0.52431079365E+02 -0.49415387828E+01 -0.28039817794E+03  0.29935689054E+03  0.90653035438E+02 0.  0.
          5    1    3    3  502    0 -0.10984040942E+02  0.54950840560E+02 -0.10211058530E+03  0.11657146162E+03  0.47000000000E+01 0. -1.
         -5    1    3    3    0  502 -0.41447038423E+02 -0.50009301777E+02 -0.32874439504E+03  0.33513244327E+03  0.47000000000E+01 0. -1.
          5    1    4    4  503    0  0.21200023660E+02  0.29946523462E+02 -0.21845578909E+03  0.22156546901E+03  0.47000000000E+01 0. -1.
         -5    1    4    4    0  503  0.31231055706E+02 -0.34888062244E+02 -0.61942388852E+02  0.77791421534E+02  0.47000000000E+01 0.  1.
<mgrwt>
<rscale>  0 0.12718677E+03</rscale>
<asrwt>0</asrwt>
<pdfrwt beam="1">  1        1 0.11248570E+00 0.13564809E+03</pdfrwt>
<pdfrwt beam="2">  1       -1 0.30621257E-02 0.13564809E+03</pdfrwt>
<totfact> 0.92824422E+03</totfact>
</mgrwt>
</event>
<event>
 8    1  0.3217375E-004  0.1503026E+03  0.7546771E-02  0.1208894E+00
          1   -1    0    0  501    0  0.00000000000E+00  0.00000000000E+00  0.30740057790E+03  0.30740057790E+03  0.00000000000E+00 0. -1.
         -1   -1    0    0    0  501 -0.00000000000E+00 -0.00000000000E+00 -0.77787409690E+02  0.77787409690E+02  0.00000000000E+00 0.  1.
         25    2    1    2    0    0  0.82600942793E+02  0.11957819283E+02  0.35141316981E+02  0.15435598886E+03  0.12499981578E+03 0.  0.
         23    2    1    2    0    0 -0.82600942793E+02 -0.11957819283E+02  0.19447185123E+03  0.23083199873E+03  0.92185712149E+02 0.  0.
          5    1    3    3  502    0  0.10797287209E+03 -0.13987219147E+02  0.42608230262E+02  0.11700997690E+03  0.47000000000E+01 0.  1.
         -5    1    4    4    0  503 -0.66841942169E+02  0.33968899360E+02  0.10820236679E+03  0.13172537164E+03  0.47000000000E+01 0.  1.
          5    1    4    4  503    0 -0.15759000624E+02 -0.45926718644E+02  0.86269484443E+02  0.99106627084E+02  0.47000000000E+01 0. -1.
         -5    1    3    3    0  502 -0.25371929301E+02  0.25945038430E+02 -0.74669132815E+01  0.37346011963E+02  0.47000000000E+01 0.  1.
<mgrwt>
<rscale>  0 0.14334759E+03</rscale>
<asrwt>0</asrwt>
<pdfrwt beam="1">  1        1 0.47292396E-01 0.15030256E+03</pdfrwt>
<pdfrwt beam="2">  1       -1 0.11967294E-01 0.15030256E+03</pdfrwt>
<totfact> 0.37893773E+03</totfact>
</mgrwt>
</event>
<event>
 8    1  0.3217375E-004  0.1276524E+03  0.7546771E-02  0.1245866E+00
         -1   -1    0    0    0  501 -0.00000000000E+00  0.00000000000E+00  0.61012176137E+02  0.61012176137E+02  0.00000000000E+00 0.  1.
          1   -1    0    0  501    0  0.00000000000E+00 -0.00000000000E+00 -0.20209959076E+03  0.20209959076E+03  0.00000000000E+00 0. -1.
         25    2    1    2    0    0  0.19402400524E+01  0.25805875661E+02 -0.86056490190E+02  0.15395078617E+03  0.12500166923E+03 0.  0.
         23    2    1    2    0    0 -0.19402400524E+01 -0.25805875661E+02 -0.55030924435E+02  0.10916098073E+03  0.90653236670E+02 0.  0.
          5    1    3    3  502    0  0.20736604008E+02 -0.29770996341E+01  0.27685225574E+02  0.35034719681E+02  0.47000000000E+01 0. -1.
         -5    1    4    4    0  503  0.42638400447E+02 -0.24233589943E+02 -0.25698626585E+02  0.55568061713E+02  0.47000000000E+01 0.  1.
          5    1    4    4  503    0 -0.44578640499E+02 -0.15722857181E+01 -0.29332297850E+02  0.53592919013E+02  0.47000000000E+01 0. -1.
         -5    1    3    3    0  502 -0.18796363956E+02  0.28782975295E+02 -0.11374171576E+03  0.11891606649E+03  0.47000000000E+01 0. -1.
<mgrwt>
<rscale>  0 0.11833696E+03</rscale>
<asrwt>0</asrwt>
<pdfrwt beam="1">  1        1 0.31092244E-01 0.12765236E+03</pdfrwt>
<pdfrwt beam="2">  1       -1 0.93864887E-02 0.12765236E+03</pdfrwt>
<totfact> 0.91484021E+03</totfact>
</mgrwt>
</event>
<event>
 8    1  0.3217375E-004  0.1536777E+03  0.7546771E-02  0.1204139E+00
         -1   -1    0    0    0  501 -0.00000000000E+00  0.00000000000E+00  0.90787964114E+03  0.90787964114E+03  0.00000000000E+00 0.  1.
          1   -1    0    0  501    0  0.00000000000E+00 -0.00000000000E+00 -0.22387130652E+02  0.22387130652E+02  0.00000000000E+00 0. -1.
         25    2    1    2    0    0 -0.88858142919E+02  0.96202271031E+01  0.41849586510E+03  0.44582015442E+03  0.12501400980E+03 0.  0.
         23    2    1    2    0    0  0.88858142919E+02 -0.96202271031E+01  0.46699664539E+03  0.48444661738E+03  0.92813468586E+02 0.  0.
          5    1    3    3  502    0  0.57188872365E+00 -0.44448822458E+02  0.81403559154E+02  0.92869016995E+02  0.47000000000E+01 0. -1.
         -5    1    3    3    0  502 -0.89430031642E+02  0.54069049561E+02  0.33709230595E+03  0.35295113742E+03  0.47000000000E+01 0. -1.
          5    1    4    4  503    0  0.77785818177E+02 -0.40830430146E+02  0.40004955657E+03  0.40960895407E+03  0.47000000000E+01 0. -1.
         -5    1    4    4    0  503  0.11072324741E+02  0.31210203043E+02  0.66947088813E+02  0.74837663310E+02  0.47000000000E+01 0.  1.
<mgrwt>
<rscale>  0 0.14705515E+03</rscale>
<asrwt>0</asrwt>
<pdfrwt beam="1">  1        1 0.34441747E-02 0.15367765E+03</pdfrwt>
<pdfrwt beam="2">  1       -1 0.13967376E+00 0.15367765E+03</pdfrwt>
<totfact> 0.12537834E+03</totfact>
</mgrwt>
</event>
<event>
 8    1  0.3217375E-004  0.1452649E+03  0.7546771E-02  0.1216875E+00
          3   -1    0    0  501    0  0.00000000000E+00  0.00000000000E+00  0.42322838410E+02  0.42322838410E+02  0.00000000000E+00 0. -1.
         -3   -1    0    0    0  501 -0.00000000000E+00 -0.00000000000E+00 -0.40849611064E+03  0.40849611064E+03  0.00000000000E+00 0.  1.
         25    2    1    2    0    0  0.49252657491E+02  0.55184950452E+02 -0.17968887795E+03  0.23106271068E+03  0.12502271946E+03 0.  0.
         23    2    1    2    0    0 -0.49252657491E+02 -0.55184950452E+02 -0.18648439428E+03  0.21975623837E+03  0.89694882613E+02 0.  0.
          5    1    3    3  502    0  0.22637041889E+02  0.71516039150E+02 -0.34895666696E+02  0.82866018822E+02  0.47000000000E+01 0.  1.
         -5    1    4    4    0  503 -0.44342642490E+02 -0.98273318285E+01 -0.16086911144E+03  0.16722382429E+03  0.47000000000E+01 0.  1.
          5    1    4    4  503    0 -0.49100150012E+01 -0.45357618623E+02 -0.25615282839E+02  0.52532414083E+02  0.47000000000E+01 0. -1.
         -5    1    3    3    0  502  0.26615615602E+02 -0.16331088698E+02 -0.14479321125E+03  0.14819669186E+03  0.47000000000E+01 0.  1.
<mgrwt>
<rscale>  0 0.13739723E+03</rscale>
<asrwt>0</asrwt>
<pdfrwt beam="1">  1        3 0.65112062E-02 0.14526487E+03</pdfrwt>
<pdfrwt beam="2">  1       -3 0.62845553E-01 0.14526487E+03</pdfrwt>
<totfact> 0.86992306E+02</totfact>
</mgrwt>
</event>
<event>
 8    1  0.3217375E-004  0.2771685E+03  0.7546771E-02  0.1099157E+00
         -2   -1    0    0    0  501 -0.00000000000E+00  0.00000000000E+00  0.22102366222E+02  0.22102366222E+02  0.00000000000E+00 0.  1.
          2   -1    0    0  501    0  0.00000000000E+00 -0.00000000000E+00 -0.33229235935E+04  0.33229235935E+04  0.00000000000E+00 0. -1.
         25    2    1    2    0    0  0.24637598805E+03 -0.22203366058E+02 -0.15833281633E+04  0.16074048804E+04  0.12501303928E+03 0.  0.
         23    2    1    2    0    0 -0.24637598805E+03  0.22203366058E+02 -0.17174930640E+04  0.17376210793E+04  0.91380924867E+02 0.  0.
          5    1    3    3  502    0  0.99080881002E+02  0.26783505150E+02 -0.36386496595E+03  0.37809282005E+03  0.47000000000E+01 0.  1.
         -5    1    3    3    0  502  0.14729510704E+03 -0.48986871209E+02 -0.12194631973E+04  0.12293120604E+04  0.47000000000E+01 0.  1.
          5    1    4    4  503    0 -0.19411671677E+03  0.79518133702E+01 -0.15334329216E+04  0.15456982714E+04  0.47000000000E+01 0. -1.
         -5    1    4    4    0  503 -0.52259271275E+02  0.14251552688E+02 -0.18406014239E+03  0.19192280794E+03  0.47000000000E+01 0.  1.
<mgrwt>
<rscale>  0 0.27374161E+03</rscale>
<asrwt>0</asrwt>
<pdfrwt beam="1">  1        2 0.51121885E+00 0.27716850E+03</pdfrwt>
<pdfrwt beam="2">  1       -2 0.34003651E-02 0.27716850E+03</pdfrwt>
<totfact> 0.46293067E+02</totfact>
</mgrwt>
</event>
<event>
 8    1  0.3217375E-004  0.1480621E+03  0.7546771E-02  0.1213277E+00
          3   -1    0    0  501    0  0.00000000000E+00  0.00000000000E+00  0.84857888585E+03  0.84857888585E+03  0.00000000000E+00 0. -1.
         -3   -1    0    0    0  501 -0.00000000000E+00 -0.00000000000E+00 -0.27506685552E+02  0.27506685552E+02  0.00000000000E+00 0.  1.
         25    2    1    2    0    0 -0.79349448253E+02 -0.17867519045E+01  0.23203512714E+03  0.27525023538E+03  0.12499145742E+03 0.  0.
         23    2    1    2    0    0  0.79349448253E+02  0.17867519045E+01  0.58903707316E+03  0.60083533602E+03  0.87971018167E+02 0.  0.
          5    1    3    3  502    0  0.31780832257E+02 -0.68065149729E+01  0.82653457741E+02  0.88938372043E+02  0.47000000000E+01 0. -1.
         -5    1    4    4    0  503  0.15479245434E+02 -0.34085349562E+02  0.11201432543E+03  0.11819778845E+03  0.47000000000E+01 0.  1.
          5    1    4    4  503    0  0.63870202819E+02  0.35872101467E+02  0.47702274773E+03  0.48263754757E+03  0.47000000000E+01 0. -1.
         -5    1    3    3    0  502 -0.11113028051E+03  0.50197630684E+01  0.14938166940E+03  0.18631186333E+03  0.47000000000E+01 0. -1.
<mgrwt>
<rscale>  0 0.14003861E+03</rscale>
<asrwt>0</asrwt>
<pdfrwt beam="1">  1        3 0.13055058E+00 0.14806212E+03</pdfrwt>
<pdfrwt beam="2">  1       -3 0.42317984E-02 0.14806212E+03</pdfrwt>
<totfact> 0.33909116E+02</totfact>
</mgrwt>
</event>
<event>
 8    1  0.3217375E-004  0.1559548E+03  0.7546771E-02  0.1201874E+00
          1   -1    0    0  501    0  0.00000000000E+00  0.00000000000E+00  0.78637033046E+03  0.78637033046E+03  0.00000000000E+00 0. -1.
         -1   -1    0    0    0  501 -0.00000000000E+00 -0.00000000000E+00 -0.27989172948E+02  0.27989172948E+02  0.00000000000E+00 0.  1.
         25    2    1    2    0    0  0.92939882885E+02 -0.77490659974E+01  0.52254146086E+03  0.54531776462E+03  0.12499606489E+03 0.  0.
         23    2    1    2    0    0 -0.92939882885E+02  0.77490659974E+01  0.23583969666E+03  0.26904173880E+03  0.89806596859E+02 0.  0.
          5    1    3    3  502    0  0.42869728431E+02  0.43023126911E+02  0.10246092442E+03  0.11920207254E+03  0.47000000000E+01 0.  1.
         -5    1    3    3    0  502  0.50070154454E+02 -0.50772192909E+02  0.42008053644E+03  0.42611569208E+03  0.47000000000E+01 0.  1.
          5    1    4    4  503    0 -0.58875827052E+02 -0.14724498017E+01  0.22378777250E+03  0.23145536986E+03  0.47000000000E+01 0. -1.
         -5    1    4    4    0  503 -0.34064055833E+02  0.92215157991E+01  0.12051924161E+02  0.37586368931E+02  0.47000000000E+01 0.  1.
<mgrwt>
<rscale>  0 0.14886522E+03</rscale>
<asrwt>0</asrwt>
<pdfrwt beam="1">  1        1 0.12098003E+00 0.15595476E+03</pdfrwt>
<pdfrwt beam="2">  1       -1 0.43060272E-02 0.15595476E+03</pdfrwt>
<totfact> 0.50929906E+03</totfact>
</mgrwt>
</event>
<event>
 8    1  0.3217375E-004  0.1256015E+03  0.7546771E-02  0.1251803E+00
          4   -1    0    0  501    0  0.00000000000E+00  0.00000000000E+00  0.35698655420E+02  0.35698655420E+02  0.00000000000E+00 0. -1.
         -4   -1    0    0    0  501 -0.00000000000E+00 -0.00000000000E+00 -0.39815324671E+03  0.39815324671E+03  0.00000000000E+00 0.  1.
         25    2    1    2    0    0 -0.68528155860E+01  0.10194506290E+02 -0.30230493436E+03  0.32735913630E+03  0.12499936698E+03 0.  0.
         23    2    1    2    0    0  0.68528155860E+01 -0.10194506290E+02 -0.60149656932E+02  0.10649276583E+03  0.87016314013E+02 0.  0.
          5    1    4    4  502    0 -0.19397171710E+02 -0.40348974508E+02 -0.44514835963E+02  0.63308377289E+02  0.47000000000E+01 0. -1.
         -5    1    3    3    0  503  0.49533198561E+01 -0.50408728234E+02 -0.67470121874E+02  0.84497826040E+02  0.47000000000E+01 0.  1.
          5    1    3    3  503    0 -0.11806135442E+02  0.60603234524E+02 -0.23483481248E+03  0.24286131026E+03  0.47000000000E+01 0.  1.
         -5    1    4    4    0  502  0.26249987296E+02  0.30154468219E+02 -0.15634820969E+02  0.43184388537E+02  0.47000000000E+01 0.  1.
<mgrwt>
<rscale>  0 0.11487285E+03</rscale>
<asrwt>0</asrwt>
<pdfrwt beam="1">  1        4 0.54921006E-02 0.12560148E+03</pdfrwt>
<pdfrwt beam="2">  1       -4 0.61254348E-01 0.12560148E+03</pdfrwt>
<totfact> 0.84772436E+02</totfact>
</mgrwt>
</event>
<event>
 8    1  0.3217375E-004  0.2065778E+03  0.7546771E-02  0.1148215E+00
         -2   -1    0    0    0  501 -0.00000000000E+00  0.00000000000E+00  0.47715857505E+02  0.47715857505E+02  0.00000000000E+00 0.  1.
          2   -1    0    0  501    0  0.00000000000E+00 -0.00000000000E+00 -0.11120779274E+04  0.11120779274E+04  0.00000000000E+00 0. -1.
         25    2    1    2    0    0  0.15191134033E+03 -0.63021323128E+02 -0.84912322668E+03  0.87389051905E+03  0.12500257079E+03 0.  0.
         23    2    1    2    0    0 -0.15191134033E+03  0.63021323128E+02 -0.21523884324E+03  0.28590326588E+03  0.91455865371E+02 0.  0.
          5    1    3    3  502    0  0.24425871802E+02 -0.73611482084E+02 -0.36037020059E+03  0.36865165805E+03  0.47000000000E+01 0.  1.
         -5    1    4    4    0  503 -0.86163318610E+02  0.67267384073E+01 -0.51718308843E+02  0.10082777372E+03  0.47000000000E+01 0.  1.
          5    1    4    4  503    0 -0.65748021724E+02  0.56294584720E+02 -0.16352053439E+03  0.18507549216E+03  0.47000000000E+01 0. -1.
         -5    1    3    3    0  502  0.12748546853E+03  0.10590158957E+02 -0.48875302609E+03  0.50523886100E+03  0.47000000000E+01 0.  1.
<mgrwt>
<rscale>  0 0.20181709E+03</rscale>
<asrwt>0</asrwt>
<pdfrwt beam="1">  1        2 0.17108891E+00 0.20657779E+03</pdfrwt>
<pdfrwt beam="2">  1       -2 0.73409012E-02 0.20657779E+03</pdfrwt>
<totfact> 0.24239553E+03</totfact>
</mgrwt>
</event>
<event>
 8    1  0.3217375E-004  0.1532306E+03  0.7546771E-02  0.1204564E+00
         -1   -1    0    0    0  501 -0.00000000000E+00  0.00000000000E+00  0.13990319736E+03  0.13990319736E+03  0.00000000000E+00 0.  1.
          1   -1    0    0  501    0  0.00000000000E+00 -0.00000000000E+00 -0.14884663414E+03  0.14884663414E+03  0.00000000000E+00 0. -1.
         25    2    1    2    0    0  0.78569780383E+02  0.41010143119E+02  0.25713038561E+02  0.15537300180E+03  0.12499826842E+03 0.  0.
         23    2    1    2    0    0 -0.78569780383E+02 -0.41010143119E+02 -0.34656475337E+02  0.13337682971E+03  0.93451940549E+02 0.  0.
          5    1    4    4  502    0 -0.17673908655E+02 -0.29138473266E+02 -0.57574998729E+02  0.67070024228E+02  0.47000000000E+01 0. -1.
         -5    1    3    3    0  503  0.11769230472E+02  0.65913178994E+02 -0.20622379770E+02  0.70217052760E+02  0.47000000000E+01 0.  1.
          5    1    3    3  503    0  0.66800549911E+02 -0.24903035875E+02  0.46335418331E+02  0.85155949035E+02  0.47000000000E+01 0.  1.
         -5    1    4    4    0  502 -0.60895871728E+02 -0.11871669853E+02  0.22918523392E+02  0.66306805480E+02  0.47000000000E+01 0.  1.
<mgrwt>
<rscale>  0 0.14671832E+03</rscale>
<asrwt>0</asrwt>
<pdfrwt beam="1">  1        1 0.22899482E-01 0.15323058E+03</pdfrwt>
<pdfrwt beam="2">  1       -1 0.21523569E-01 0.15323058E+03</pdfrwt>
<totfact> 0.37053751E+03</totfact>
</mgrwt>
</event>
<event>
 8    1  0.3217375E-004  0.1917389E+03  0.7546771E-02  0.1160037E+00
          1   -1    0    0  501    0  0.00000000000E+00  0.00000000000E+00  0.20451043371E+04  0.20451043371E+04  0.00000000000E+00 0. -1.
         -1   -1    0    0    0  501 -0.00000000000E+00 -0.00000000000E+00 -0.17133222736E+02  0.17133222736E+02  0.00000000000E+00 0.  1.
         25    2    1    2    0    0  0.10861525660E+03  0.96650750014E+02  0.12081759333E+04  0.12232959166E+04  0.12500068962E+03 0.  0.
         23    2    1    2    0    0 -0.10861525660E+03 -0.96650750014E+02  0.81979518107E+03  0.83894164321E+03  0.10305484151E+03 0.  0.
          5    1    4    4  502    0 -0.84297971848E+02 -0.10536893837E+03  0.77766226454E+03  0.78929680661E+03  0.47000000000E+01 0. -1.
         -5    1    4    4    0  502 -0.24317284748E+02  0.87181883555E+01  0.42132916529E+02  0.49644836599E+02  0.47000000000E+01 0.  1.
          5    1    3    3  503    0  0.12890671789E+03  0.10551396038E+03  0.11163944760E+04  0.11287643039E+04  0.47000000000E+01 0.  1.
         -5    1    3    3    0  503 -0.20291461289E+02 -0.88632103638E+01  0.91781457351E+02  0.94531612769E+02  0.47000000000E+01 0.  1.
<mgrwt>
<rscale>  0 0.18826343E+03</rscale>
<asrwt>0</asrwt>
<pdfrwt beam="1">  1        1 0.31463124E+00 0.19173892E+03</pdfrwt>
<pdfrwt beam="2">  1       -1 0.26358820E-02 0.19173892E+03</pdfrwt>
<totfact> 0.14472314E+03</totfact>
</mgrwt>
</event>
<event>
 8    1  0.3217375E-004  0.1683375E+03  0.7546771E-02  0.1187450E+00
         -3   -1    0    0    0  501 -0.00000000000E+00  0.00000000000E+00  0.17195025298E+03  0.17195025298E+03  0.00000000000E+00 0.  1.
          3   -1    0    0  501    0  0.00000000000E+00 -0.00000000000E+00 -0.16445905383E+03  0.16445905383E+03  0.00000000000E+00 0. -1.
         25    2    1    2    0    0  0.82444160832E+02 -0.76910076641E+02  0.69554754436E+02  0.18214106373E+03  0.12500121474E+03 0.  0.
         23    2    1    2    0    0 -0.82444160832E+02  0.76910076641E+02 -0.62063555291E+02  0.15426824308E+03  0.85056489375E+02 0.  0.
          5    1    3    3  502    0  0.73593469072E+02 -0.43387092632E+02 -0.18370354752E+02  0.87509990463E+02  0.47000000000E+01 0. -1.
         -5    1    3    3    0  502  0.88506917592E+01 -0.33522984009E+02  0.87925109188E+02  0.94631073265E+02  0.47000000000E+01 0. -1.
          5    1    4    4  503    0 -0.16058911886E+02  0.67183260287E+02 -0.11639828914E+02  0.70207227056E+02  0.47000000000E+01 0. -1.
         -5    1    4    4    0  503 -0.66385248945E+02  0.97268163535E+01 -0.50423726376E+02  0.84061016027E+02  0.47000000000E+01 0.  1.
<mgrwt>
<rscale>  0 0.16110899E+03</rscale>
<asrwt>0</asrwt>
<pdfrwt beam="1">  1        3 0.25301393E-01 0.16833747E+03</pdfrwt>
<pdfrwt beam="2">  1       -3 0.26453885E-01 0.16833747E+03</pdfrwt>
<totfact> 0.47584714E+02</totfact>
</mgrwt>
</event>
<event>
 8    1  0.3217375E-004  0.1273194E+03  0.7546771E-02  0.1245290E+00
          1   -1    0    0  501    0  0.00000000000E+00  0.00000000000E+00  0.48736673143E+03  0.48736673143E+03  0.00000000000E+00 0. -1.
         -1   -1    0    0    0  501 -0.00000000000E+00 -0.00000000000E+00 -0.33260516912E+02  0.33260516912E+02  0.00000000000E+00 0.  1.
         25    2    1    2    0    0  0.23678404472E+02 -0.49570668935E+01  0.12756001688E+03  0.18022702174E+03  0.12499992843E+03 0.  0.
         23    2    1    2    0    0 -0.23678404472E+02  0.49570668935E+01  0.32654619764E+03  0.34040022660E+03  0.93030402177E+02 0.  0.
          5    1    3    3  502    0  0.10002137096E+02  0.34097474934E+02 -0.94160742606E+01  0.37059856959E+02  0.47000000000E+01 0. -1.
         -5    1    4    4    0  503 -0.52828611987E+02  0.28661410216E+01  0.11356812578E+03  0.12537498236E+03  0.47000000000E+01 0.  1.
          5    1    4    4  503    0  0.29150207515E+02  0.20909258720E+01  0.21297807186E+03  0.21502524424E+03  0.47000000000E+01 0. -1.
         -5    1    3    3    0  502  0.13676267376E+02 -0.39054541827E+02  0.13697609114E+03  0.14316716478E+03  0.47000000000E+01 0. -1.
<mgrwt>
<rscale>  0 0.11868046E+03</rscale>
<asrwt>0</asrwt>
<pdfrwt beam="1">  1        1 0.74979492E-01 0.12731937E+03</pdfrwt>
<pdfrwt beam="2">  1       -1 0.51170030E-02 0.12731937E+03</pdfrwt>
<totfact> 0.75664640E+03</totfact>
</mgrwt>
</event>
<event>
 8    1  0.3217375E-004  0.1924448E+03  0.7546771E-02  0.1160808E+00
          1   -1    0    0  501    0  0.00000000000E+00  0.00000000000E+00  0.46772327229E+03  0.46772327229E+03  0.00000000000E+00 0. -1.
         -1   -1    0    0    0  501 -0.00000000000E+00 -0.00000000000E+00 -0.75008015470E+02  0.75008015470E+02  0.00000000000E+00 0.  1.
         25    2    1    2    0    0 -0.14462274498E+03 -0.22233192242E+02  0.14705863368E+03  0.24220080934E+03  0.12499974841E+03 0.  0.
         23    2    1    2    0    0  0.14462274498E+03  0.22233192242E+02  0.24565662313E+03  0.30053047842E+03  0.92527502763E+02 0.  0.
          5    1    4    4  502    0  0.89437315225E+02  0.29981057521E+01  0.21801076990E+03  0.23570915932E+03  0.47000000000E+01 0. -1.
         -5    1    3    3    0  503  0.22102643075E+02 -0.86280097068E+01  0.26956905608E+02  0.36217870483E+02  0.47000000000E+01 0. -1.
          5    1    3    3  503    0 -0.16672538805E+03 -0.13605182535E+02  0.12010172807E+03  0.20598293885E+03  0.47000000000E+01 0. -1.
         -5    1    4    4    0  502  0.55185429751E+02  0.19235086490E+02  0.27645853230E+02  0.64821319101E+02  0.47000000000E+01 0.  1.
<mgrwt>
<rscale>  0 0.18742087E+03</rscale>
<asrwt>0</asrwt>
<pdfrwt beam="1">  1        1 0.71957425E-01 0.19244477E+03</pdfrwt>
<pdfrwt beam="2">  1       -1 0.11539695E-01 0.19244477E+03</pdfrwt>
<totfact> 0.23777308E+03</totfact>
</mgrwt>
</event>
<event>
 8    1  0.3217375E-004  0.1997421E+03  0.7546771E-02  0.1154229E+00
         -1   -1    0    0    0  501 -0.00000000000E+00  0.00000000000E+00  0.13770710770E+03  0.13770710770E+03  0.00000000000E+00 0.  1.
          1   -1    0    0  501    0  0.00000000000E+00 -0.00000000000E+00 -0.32381280555E+03  0.32381280555E+03  0.00000000000E+00 0. -1.
         25    2    1    2    0    0  0.14901803623E+02  0.15507423024E+03 -0.19708721373E+03  0.28060695628E+03  0.12500725362E+03 0.  0.
         23    2    1    2    0    0 -0.14901803623E+02 -0.15507423024E+03  0.10981515886E+02  0.18091295697E+03  0.91317159792E+02 0.  0.
          5    1    3    3  502    0  0.41467448398E+01  0.59260553139E+02  0.17071098137E+01  0.59615542227E+02  0.47000000000E+01 0. -1.
         -5    1    4    4    0  503  0.95931903235E+01 -0.42804170771E+02  0.42923081065E+02  0.61552475369E+02  0.47000000000E+01 0.  1.
          5    1    4    4  503    0 -0.24494993947E+02 -0.11227005947E+03 -0.31941565179E+02  0.11936048160E+03  0.47000000000E+01 0. -1.
         -5    1    3    3    0  502  0.10755058784E+02  0.95813677104E+02 -0.19879432355E+03  0.22099141405E+03  0.47000000000E+01 0. -1.
<mgrwt>
<rscale>  0 0.19476871E+03</rscale>
<asrwt>0</asrwt>
<pdfrwt beam="1">  1        1 0.49817354E-01 0.19974207E+03</pdfrwt>
<pdfrwt beam="2">  1       -1 0.21185709E-01 0.19974207E+03</pdfrwt>
<totfact> 0.14495321E+03</totfact>
</mgrwt>
</event>
<event>
 8    1  0.3217375E-004  0.1271645E+03  0.7546771E-02  0.1246829E+00
         -1   -1    0    0    0  501 -0.00000000000E+00  0.00000000000E+00  0.37445471523E+02  0.37445471523E+02  0.00000000000E+00 0.  1.
          1   -1    0    0  501    0  0.00000000000E+00 -0.00000000000E+00 -0.87901083383E+03  0.87901083383E+03  0.00000000000E+00 0. -1.
         25    2    1    2    0    0 -0.20896890975E+02  0.10474221894E+02 -0.80665796252E+03  0.81661978963E+03  0.12499769173E+03 0.  0.
         23    2    1    2    0    0  0.20896890975E+02 -0.10474221894E+02 -0.34907399785E+02  0.99836515722E+02  0.90567179127E+02 0.  0.
          5    1    3    3  502    0 -0.57958246145E+02 -0.25880389023E+02 -0.60479584329E+03  0.60813572078E+03  0.47000000000E+01 0.  1.
         -5    1    3    3    0  502  0.37061355170E+02  0.36354610917E+02 -0.20186211924E+03  0.20848406885E+03  0.47000000000E+01 0.  1.
          5    1    4    4  503    0  0.26060538317E+02  0.36039441703E+02 -0.26714016249E+02  0.52093393821E+02  0.47000000000E+01 0. -1.
         -5    1    4    4    0  503 -0.51636473423E+01 -0.46513663597E+02 -0.81933835356E+01  0.47743121901E+02  0.47000000000E+01 0.  1.
<mgrwt>
<rscale>  0 0.11776548E+03</rscale>
<asrwt>0</asrwt>
<pdfrwt beam="1">  1        1 0.13523244E+00 0.12716451E+03</pdfrwt>
<pdfrwt beam="2">  1       -1 0.57608416E-02 0.12716451E+03</pdfrwt>
<totfact> 0.27695016E+03</totfact>
</mgrwt>
</event>
<event>
 8    1  0.3217375E-004  0.1411757E+03  0.7546771E-02  0.1222685E+00
         -2   -1    0    0    0  501 -0.00000000000E+00  0.00000000000E+00  0.33974598118E+02  0.33974598118E+02  0.00000000000E+00 0.  1.
          2   -1    0    0  501    0  0.00000000000E+00 -0.00000000000E+00 -0.49851619961E+03  0.49851619961E+03  0.00000000000E+00 0. -1.
         25    2    1    2    0    0  0.58463179006E+02 -0.29859132150E+02 -0.19655601369E+03  0.24200176909E+03  0.12498431362E+03 0.  0.
         23    2    1    2    0    0 -0.58463179006E+02  0.29859132150E+02 -0.26798558780E+03  0.29048902864E+03  0.90874030506E+02 0.  0.
          5    1    3    3  502    0 -0.26578485974E+02 -0.79016972946E+00 -0.12253771320E+03  0.12547757346E+03  0.47000000000E+01 0. -1.
         -5    1    3    3    0  502  0.85041664980E+02 -0.29068962420E+02 -0.74018300491E+02  0.11652419563E+03  0.47000000000E+01 0. -1.
          5    1    4    4  503    0 -0.79849136381E+02  0.22666275175E+02 -0.24134301003E+03  0.25526100976E+03  0.47000000000E+01 0. -1.
         -5    1    4    4    0  503  0.21385957376E+02  0.71928569743E+01 -0.26642577765E+02  0.35228018881E+02  0.47000000000E+01 0.  1.
<mgrwt>
<rscale>  0 0.13326822E+03</rscale>
<asrwt>0</asrwt>
<pdfrwt beam="1">  1        2 0.76694806E-01 0.14117574E+03</pdfrwt>
<pdfrwt beam="2">  1       -2 0.52268608E-02 0.14117574E+03</pdfrwt>
<totfact> 0.10895324E+04</totfact>
</mgrwt>
</event>
<event>
 8    1  0.3217375E-004  0.1300234E+03  0.7546771E-02  0.1241207E+00
         -2   -1    0    0    0  501 -0.00000000000E+00  0.00000000000E+00  0.84836245063E+03  0.84836245063E+03  0.00000000000E+00 0.  1.
          2   -1    0    0  501    0  0.00000000000E+00 -0.00000000000E+00 -0.15734416988E+02  0.15734416988E+02  0.00000000000E+00 0. -1.
         25    2    1    2    0    0 -0.24475454153E+02 -0.26185431305E+02  0.40407624020E+03  0.42448049817E+03  0.12498544221E+03 0.  0.
         23    2    1    2    0    0  0.24475454153E+02  0.26185431305E+02  0.42855179344E+03  0.43961636945E+03  0.91220545681E+02 0.  0.
          5    1    4    4  502    0  0.38595714263E+02 -0.82456554496E+01  0.82901332766E+02  0.91936613858E+02  0.47000000000E+01 0. -1.
         -5    1    3    3    0  503 -0.16743081106E+01 -0.72851715641E+02  0.17657710991E+03  0.19108045825E+03  0.47000000000E+01 0. -1.
          5    1    3    3  503    0 -0.22801146043E+02  0.46666284336E+02  0.22749913029E+03  0.23340003992E+03  0.47000000000E+01 0. -1.
         -5    1    4    4    0  502 -0.14120260110E+02  0.34431086754E+02  0.34565046068E+03  0.34767975559E+03  0.47000000000E+01 0.  1.
<mgrwt>
<rscale>  0 0.12115281E+03</rscale>
<asrwt>0</asrwt>
<pdfrwt beam="1">  1        2 0.24206802E-02 0.13002340E+03</pdfrwt>
<pdfrwt beam="2">  1       -2 0.13051726E+00 0.13002340E+03</pdfrwt>
<totfact> 0.18155089E+03</totfact>
</mgrwt>
</event>
<event>
 8    1  0.3217375E-004  0.1494787E+03  0.7546771E-02  0.1210976E+00
         -1   -1    0    0    0  501 -0.00000000000E+00  0.00000000000E+00  0.15989379435E+02  0.15989379435E+02  0.00000000000E+00 0.  1.
          1   -1    0    0  501    0  0.00000000000E+00 -0.00000000000E+00 -0.11751517757E+04  0.11751517757E+04  0.00000000000E+00 0. -1.
         25    2    1    2    0    0  0.43487277632E+02  0.69475788123E+02 -0.54149636891E+03  0.56174922617E+03  0.12500338840E+03 0.  0.
         23    2    1    2    0    0 -0.43487277632E+02 -0.69475788123E+02 -0.61766602741E+03  0.62939192901E+03  0.88909225862E+02 0.  0.
          5    1    4    4  502    0 -0.57471115226E+00 -0.62234050277E+02 -0.20187365821E+03  0.21130184852E+03  0.47000000000E+01 0. -1.
         -5    1    4    4    0  502 -0.42912566480E+02 -0.72417378463E+01 -0.41579236919E+03  0.41809008049E+03  0.47000000000E+01 0.  1.
          5    1    3    3  503    0 -0.38729839929E+02 -0.28814336128E+00 -0.19374214394E+03  0.19763145465E+03  0.47000000000E+01 0.  1.
         -5    1    3    3    0  503  0.82217117562E+02  0.69763931484E+02 -0.34775422497E+03  0.36411777152E+03  0.47000000000E+01 0.  1.
<mgrwt>
<rscale>  0 0.14176321E+03</rscale>
<asrwt>0</asrwt>
<pdfrwt beam="1">  1        1 0.18079254E+00 0.14947868E+03</pdfrwt>
<pdfrwt beam="2">  1       -1 0.24599051E-02 0.14947868E+03</pdfrwt>
<totfact> 0.59090594E+03</totfact>
</mgrwt>
</event>
<event>
 8    1  0.3217375E-004  0.1272567E+03  0.7546771E-02  0.1245996E+00
          1   -1    0    0  501    0  0.00000000000E+00  0.00000000000E+00  0.51041577520E+03  0.51041577520E+03  0.00000000000E+00 0. -1.
         -1   -1    0    0    0  501 -0.00000000000E+00 -0.00000000000E+00 -0.28465666227E+02  0.28465666227E+02  0.00000000000E+00 0.  1.
         25    2    1    2    0    0 -0.10144013419E+02 -0.21636101074E+02  0.16711365501E+03  0.21005056782E+03  0.12499298170E+03 0.  0.
         23    2    1    2    0    0  0.10144013419E+02  0.21636101074E+02  0.31483645396E+03  0.32883087360E+03  0.91851667451E+02 0.  0.
          5    1    4    4  502    0 -0.40859601662E+02  0.85924265578E+01  0.14405390903E+03  0.15005650785E+03  0.47000000000E+01 0. -1.
         -5    1    4    4    0  502  0.51003615081E+02  0.13043674516E+02  0.17078254493E+03  0.17877436575E+03  0.47000000000E+01 0.  1.
          5    1    3    3  503    0 -0.37438037165E+02  0.24011372453E+02  0.12441607527E+02  0.46422367795E+02  0.47000000000E+01 0.  1.
         -5    1    3    3    0  503  0.27294023745E+02 -0.45647473527E+02  0.15467204748E+03  0.16362820002E+03  0.47000000000E+01 0.  1.
<mgrwt>
<rscale>  0 0.11825991E+03</rscale>
<asrwt>0</asrwt>
<pdfrwt beam="1">  1        1 0.78525497E-01 0.12725670E+03</pdfrwt>
<pdfrwt beam="2">  1       -1 0.43793336E-02 0.12725670E+03</pdfrwt>
<totfact> 0.89626953E+03</totfact>
</mgrwt>
</event>
<event>
 8    1  0.3217375E-004  0.2656358E+03  0.7546771E-02  0.1105868E+00
         -1   -1    0    0    0  501 -0.00000000000E+00  0.00000000000E+00  0.78440798853E+02  0.78440798853E+02  0.00000000000E+00 0.  1.
          1   -1    0    0  501    0  0.00000000000E+00 -0.00000000000E+00 -0.89526774132E+03  0.89526774132E+03  0.00000000000E+00 0. -1.
         25    2    1    2    0    0 -0.20845177225E+03 -0.10715335906E+03 -0.31383061548E+03  0.41115936563E+03  0.12501353933E+03 0.  0.
         23    2    1    2    0    0  0.20845177225E+03  0.10715335906E+03 -0.50299632699E+03  0.56254917455E+03  0.92316223433E+02 0.  0.
          5    1    4    4  502    0  0.62874780121E+02  0.25523987730E+02 -0.25253940594E+03  0.26153958300E+03  0.47000000000E+01 0. -1.
         -5    1    3    3    0  503 -0.82054599748E+02 -0.10628150095E+03 -0.12261045773E+03  0.18189043165E+03  0.47000000000E+01 0.  1.
          5    1    3    3  503    0 -0.12639717250E+03 -0.87185811561E+00 -0.19122015775E+03  0.22926893397E+03  0.47000000000E+01 0.  1.
         -5    1    4    4    0  502  0.14557699213E+03  0.81629371334E+02 -0.25045692105E+03  0.30100959155E+03  0.47000000000E+01 0.  1.
<mgrwt>
<rscale>  0 0.26213454E+03</rscale>
<asrwt>0</asrwt>
<pdfrwt beam="1">  1        1 0.13773350E+00 0.26563578E+03</pdfrwt>
<pdfrwt beam="2">  1       -1 0.12067815E-01 0.26563578E+03</pdfrwt>
<totfact> 0.87676366E+02</totfact>
</mgrwt>
</event>
<event>
 8    1  0.3217375E-004  0.1479358E+03  0.7546771E-02  0.1212367E+00
         -1   -1    0    0    0  501 -0.00000000000E+00  0.00000000000E+00  0.24372513733E+03  0.24372513733E+03  0.00000000000E+00 0.  1.
          1   -1    0    0  501    0  0.00000000000E+00 -0.00000000000E+00 -0.93281161703E+02  0.93281161703E+02  0.00000000000E+00 0. -1.
         25    2    1    2    0    0  0.69779408915E+02 -0.37357737156E+02  0.15700614514E+03  0.21572185855E+03  0.12498089539E+03 0.  0.
         23    2    1    2    0    0 -0.69779408915E+02  0.37357737156E+02 -0.65621695097E+01  0.12128444048E+03  0.91662898713E+02 0.  0.
          5    1    3    3  502    0  0.66555763531E+02 -0.75705912096E+02  0.14187925459E+03  0.17410590934E+03  0.47000000000E+01 0.  1.
         -5    1    3    3    0  502  0.32236453833E+01  0.38348174940E+02  0.15126890547E+02  0.41615949207E+02  0.47000000000E+01 0.  1.
          5    1    4    4  503    0 -0.81458209951E+02  0.30034216093E+01  0.77075976253E+01  0.82011935540E+02  0.47000000000E+01 0. -1.
         -5    1    4    4    0  503  0.11678801037E+02  0.34354315547E+02 -0.14269767135E+02  0.39272504942E+02  0.47000000000E+01 0.  1.
<mgrwt>
<rscale>  0 0.14071714E+03</rscale>
<asrwt>0</asrwt>
<pdfrwt beam="1">  1        1 0.14350948E-01 0.14793577E+03</pdfrwt>
<pdfrwt beam="2">  1       -1 0.37496175E-01 0.14793577E+03</pdfrwt>
<totfact> 0.26588706E+03</totfact>
</mgrwt>
</event>
<event>
 8    1  0.3217375E-004  0.1287487E+03  0.7546771E-02  0.1243347E+00
          4   -1    0    0  501    0  0.00000000000E+00  0.00000000000E+00  0.15056831108E+03  0.15056831108E+03  0.00000000000E+00 0. -1.
         -4   -1    0    0    0  501 -0.00000000000E+00 -0.00000000000E+00 -0.95842344562E+02  0.95842344562E+02  0.00000000000E+00 0.  1.
         25    2    1    2    0    0 -0.20737545593E+02 -0.22817319026E+02  0.73031017855E+02  0.14801947200E+03  0.12500223468E+03 0.  0.
         23    2    1    2    0    0  0.20737545593E+02  0.22817319026E+02 -0.18305051341E+02  0.98391183643E+02  0.91624637895E+02 0.  0.
          5    1    4    4  502    0 -0.35670774432E+02  0.15599262729E+02 -0.30975508605E+01  0.39337335543E+02  0.47000000000E+01 0. -1.
         -5    1    3    3    0  503  0.57083462274E+01 -0.71367769976E+02  0.29849750470E+02  0.77711269525E+02  0.47000000000E+01 0. -1.
          5    1    3    3  503    0 -0.26445891820E+02  0.48550450951E+02  0.43181267385E+02  0.70308202471E+02  0.47000000000E+01 0. -1.
         -5    1    4    4    0  502  0.56408320024E+02  0.72180562964E+01 -0.15207500480E+02  0.59053848101E+02  0.47000000000E+01 0.  1.
<mgrwt>
<rscale>  0 0.11984888E+03</rscale>
<asrwt>0</asrwt>
<pdfrwt beam="1">  1        4 0.23164356E-01 0.12874873E+03</pdfrwt>
<pdfrwt beam="2">  1       -4 0.14744976E-01 0.12874873E+03</pdfrwt>
<totfact> 0.10931422E+03</totfact>
</mgrwt>
</event>
<event>
 8    1  0.3217375E-004  0.2165911E+03  0.7546771E-02  0.1140215E+00
          2   -1    0    0  501    0  0.00000000000E+00  0.00000000000E+00  0.97343290809E+03  0.97343290809E+03  0.00000000000E+00 0. -1.
         -2   -1    0    0    0  501 -0.00000000000E+00 -0.00000000000E+00 -0.45141613115E+02  0.45141613115E+02  0.00000000000E+00 0.  1.
         25    2    1    2    0    0  0.23668285768E+01  0.17686301121E+03  0.40705387245E+03  0.46109061547E+03  0.12500229593E+03 0.  0.
         23    2    1    2    0    0 -0.23668285768E+01 -0.17686301121E+03  0.52123742253E+03  0.55748390574E+03  0.88395293428E+02 0.  0.
          5    1    3    3  502    0 -0.56672278528E+02  0.91341058661E+02  0.25588754798E+03  0.27758865856E+03  0.47000000000E+01 0. -1.
         -5    1    3    3    0  502  0.59039107105E+02  0.85521952550E+02  0.15116632447E+03  0.18350195691E+03  0.47000000000E+01 0. -1.
          5    1    4    4  503    0 -0.32907540037E+02 -0.93207938256E+02  0.18719299723E+03  0.21174025162E+03  0.47000000000E+01 0. -1.
         -5    1    4    4    0  503  0.30540711460E+02 -0.83655072955E+02  0.33404442531E+03  0.34574365412E+03  0.47000000000E+01 0.  1.
<mgrwt>
<rscale>  0 0.21171534E+03</rscale>
<asrwt>0</asrwt>
<pdfrwt beam="1">  1        2 0.14975889E+00 0.21659109E+03</pdfrwt>
<pdfrwt beam="2">  1       -2 0.69448643E-02 0.21659109E+03</pdfrwt>
<totfact> 0.31988662E+03</totfact>
</mgrwt>
</event>
<event>
 8    1  0.3217375E-004  0.1361484E+03  0.7546771E-02  0.1230644E+00
          1   -1    0    0  501    0  0.00000000000E+00  0.00000000000E+00  0.18909599983E+03  0.18909599983E+03  0.00000000000E+00 0. -1.
         -1   -1    0    0    0  501 -0.00000000000E+00 -0.00000000000E+00 -0.99907928084E+02  0.99907928084E+02  0.00000000000E+00 0.  1.
         25    2    1    2    0    0  0.31688639454E+02 -0.43679815038E+02  0.11694537951E+03  0.17947870369E+03  0.12499714868E+03 0.  0.
         23    2    1    2    0    0 -0.31688639454E+02  0.43679815038E+02 -0.27757307766E+02  0.10952522422E+03  0.91176808971E+02 0.  0.
          5    1    4    4  502    0 -0.31104288312E+02 -0.18383351995E+02 -0.30066405463E+02  0.47238788293E+02  0.47000000000E+01 0. -1.
         -5    1    3    3    0  503 -0.30216056364E+02  0.20095943688E+02  0.69679832278E+02  0.78703405524E+02  0.47000000000E+01 0.  1.
          5    1    3    3  503    0  0.61904695817E+02 -0.63775758726E+02  0.47265547232E+02  0.10077529817E+03  0.47000000000E+01 0.  1.
         -5    1    4    4    0  502 -0.58435114196E+00  0.62063167033E+02  0.23090976963E+01  0.62286435928E+02  0.47000000000E+01 0.  1.
<mgrwt>
<rscale>  0 0.12787456E+03</rscale>
<asrwt>0</asrwt>
<pdfrwt beam="1">  1        1 0.29091692E-01 0.13614839E+03</pdfrwt>
<pdfrwt beam="2">  1       -1 0.15370451E-01 0.13614839E+03</pdfrwt>
<totfact> 0.46637414E+03</totfact>
</mgrwt>
</event>
<event>
 8    1  0.3217375E-004  0.1649617E+03  0.7546771E-02  0.1190566E+00
         -2   -1    0    0    0  501 -0.00000000000E+00  0.00000000000E+00  0.86589038019E+02  0.86589038019E+02  0.00000000000E+00 0.  1.
          2   -1    0    0  501    0  0.00000000000E+00 -0.00000000000E+00 -0.46917925378E+03  0.46917925378E+03  0.00000000000E+00 0. -1.
         25    2    1    2    0    0  0.56267629828E+02  0.91765222573E+02 -0.38154873674E+03  0.41568234484E+03  0.12500188422E+03 0.  0.
         23    2    1    2    0    0 -0.56267629828E+02 -0.91765222573E+02 -0.10414790208E+01  0.14008594696E+03  0.89644216868E+02 0.  0.
          5    1    4    4  502    0 -0.46487443811E+02 -0.10946662322E+03 -0.41402355320E+01  0.11909347414E+03  0.47000000000E+01 0. -1.
         -5    1    4    4    0  502 -0.97801860179E+01  0.17701400649E+02  0.30987565113E+01  0.20992472827E+02  0.47000000000E+01 0.  1.
          5    1    3    3  503    0  0.24694929270E+02 -0.16714559754E+02 -0.19659925515E+03  0.19890342673E+03  0.47000000000E+01 0.  1.
         -5    1    3    3    0  503  0.31572700558E+02  0.10847978233E+03 -0.18494948159E+03  0.21677891811E+03  0.47000000000E+01 0.  1.
<mgrwt>
<rscale>  0 0.15835546E+03</rscale>
<asrwt>0</asrwt>
<pdfrwt beam="1">  1        2 0.72181423E-01 0.16496173E+03</pdfrwt>
<pdfrwt beam="2">  1       -2 0.13321391E-01 0.16496173E+03</pdfrwt>
<totfact> 0.27359872E+03</totfact>
</mgrwt>
</event>
<event>
 8    1  0.3217375E-004  0.1471381E+03  0.7546771E-02  0.1215869E+00
         -3   -1    0    0    0  501 -0.00000000000E+00  0.00000000000E+00  0.10434514280E+03  0.10434514280E+03  0.00000000000E+00 0.  1.
          3   -1    0    0  501    0  0.00000000000E+00 -0.00000000000E+00 -0.16445985927E+03  0.16445985927E+03  0.00000000000E+00 0. -1.
         25    2    1    2    0    0  0.74095796766E+02 -0.23004825591E+02 -0.42688267460E+02  0.15320547770E+03  0.12502088274E+03 0.  0.
         23    2    1    2    0    0 -0.74095796766E+02  0.23004825591E+02 -0.17426449015E+02  0.11559952436E+03  0.83905660169E+02 0.  0.
          5    1    4    4  502    0  0.17712986991E+02  0.93447958971E+01  0.19486007197E+01  0.20663062775E+02  0.47000000000E+01 0. -1.
         -5    1    3    3    0  503 -0.23434472045E+02  0.20432840925E+02 -0.33493787260E+02  0.45941258726E+02  0.47000000000E+01 0.  1.
          5    1    3    3  503    0  0.97530268811E+02 -0.43437666516E+02 -0.91944802000E+01  0.10726421898E+03  0.47000000000E+01 0.  1.
         -5    1    4    4    0  502 -0.91808783757E+02  0.13660029694E+02 -0.19375049735E+02  0.94936461586E+02  0.47000000000E+01 0.  1.
<mgrwt>
<rscale>  0 0.13812905E+03</rscale>
<asrwt>0</asrwt>
<pdfrwt beam="1">  1        3 0.25301517E-01 0.14713813E+03</pdfrwt>
<pdfrwt beam="2">  1       -3 0.16053099E-01 0.14713813E+03</pdfrwt>
<totfact> 0.11320122E+03</totfact>
</mgrwt>
</event>
<event>
 8    1  0.3217375E-004  0.1318139E+03  0.7546771E-02  0.1239343E+00
          2   -1    0    0  501    0  0.00000000000E+00  0.00000000000E+00  0.51622632401E+03  0.51622632401E+03  0.00000000000E+00 0. -1.
         -2   -1    0    0    0  501 -0.00000000000E+00 -0.00000000000E+00 -0.27176719553E+02  0.27176719553E+02  0.00000000000E+00 0.  1.
         25    2    1    2    0    0  0.39504378846E+02  0.13760274928E+02  0.34522513415E+03  0.36953390762E+03  0.12499989807E+03 0.  0.
         23    2    1    2    0    0 -0.39504378846E+02 -0.13760274928E+02  0.14382447031E+03  0.17386913595E+03  0.88289620346E+02 0.  0.
          5    1    4    4  502    0 -0.99955342627E+01 -0.19024577543E+02  0.14176138842E+03  0.14345810016E+03  0.47000000000E+01 0. -1.
         -5    1    4    4    0  502 -0.29508844584E+02  0.52643026152E+01  0.20630818930E+01  0.30411035786E+02  0.47000000000E+01 0.  1.
          5    1    3    3  503    0  0.25391213051E+02  0.53582958571E+02  0.73732966232E+02  0.94733771480E+02  0.47000000000E+01 0.  1.
         -5    1    3    3    0  503  0.14113165796E+02 -0.39822683643E+02  0.27149216792E+03  0.27480013614E+03  0.47000000000E+01 0.  1.
<mgrwt>
<rscale>  0 0.12230466E+03</rscale>
<asrwt>0</asrwt>
<pdfrwt beam="1">  1        2 0.79419427E-01 0.13181394E+03</pdfrwt>
<pdfrwt beam="2">  1       -2 0.41810342E-02 0.13181394E+03</pdfrwt>
<totfact> 0.14571079E+04</totfact>
</mgrwt>
</event>
<event>
 8    1  0.3217375E-004  0.1343033E+03  0.7546771E-02  0.1233610E+00
         -2   -1    0    0    0  501 -0.00000000000E+00  0.00000000000E+00  0.22868914595E+02  0.22868914595E+02  0.00000000000E+00 0.  1.
          2   -1    0    0  501    0  0.00000000000E+00 -0.00000000000E+00 -0.68338459986E+03  0.68338459986E+03  0.00000000000E+00 0. -1.
         25    2    1    2    0    0 -0.80738370633E+01 -0.48438425202E+02 -0.47533879163E+03  0.49394771850E+03  0.12500365558E+03 0.  0.
         23    2    1    2    0    0  0.80738370633E+01  0.48438425202E+02 -0.18517689364E+03  0.21230579595E+03  0.91497547374E+02 0.  0.
          5    1    3    3  502    0 -0.31858222531E+02 -0.82016401824E+01 -0.26089040022E+02  0.42248565109E+02  0.47000000000E+01 0. -1.
         -5    1    3    3    0  502  0.23784385468E+02 -0.40236785019E+02 -0.44924975160E+03  0.45169915339E+03  0.47000000000E+01 0. -1.
          5    1    4    4  503    0 -0.31213530858E+02  0.49082547951E+02 -0.14311071555E+03  0.15455144104E+03  0.47000000000E+01 0. -1.
         -5    1    4    4    0  503  0.39287367921E+02 -0.64412274875E+00 -0.42066178089E+02  0.57754354912E+02  0.47000000000E+01 0.  1.
<mgrwt>
<rscale>  0 0.12593860E+03</rscale>
<asrwt>0</asrwt>
<pdfrwt beam="1">  1        2 0.10513608E+00 0.13430332E+03</pdfrwt>
<pdfrwt beam="2">  1       -2 0.35182949E-02 0.13430332E+03</pdfrwt>
<totfact> 0.13702598E+04</totfact>
</mgrwt>
</event>
<event>
 8    1  0.3217375E-004  0.1460376E+03  0.7546771E-02  0.1214974E+00
         -2   -1    0    0    0  501 -0.00000000000E+00  0.00000000000E+00  0.17087779838E+02  0.17087779838E+02  0.00000000000E+00 0.  1.
          2   -1    0    0  501    0  0.00000000000E+00 -0.00000000000E+00 -0.12091207435E+04  0.12091207435E+04  0.00000000000E+00 0. -1.
         25    2    1    2    0    0 -0.60298958558E+02  0.45462127790E+02 -0.88334467761E+03  0.89533502250E+03  0.12499685432E+03 0.  0.
         23    2    1    2    0    0  0.60298958558E+02 -0.45462127790E+02 -0.30868828601E+03  0.33087350080E+03  0.92119738072E+02 0.  0.
          5    1    3    3  502    0 -0.53923987845E+02 -0.35181124279E+02 -0.35713152313E+03  0.36291944393E+03  0.47000000000E+01 0. -1.
         -5    1    4    4    0  503  0.70319520612E+02  0.41108659219E+00 -0.15891706667E+03  0.17384397617E+03  0.47000000000E+01 0.  1.
          5    1    4    4  503    0 -0.10020562055E+02 -0.45873214382E+02 -0.14977121935E+03  0.15702952463E+03  0.47000000000E+01 0. -1.
         -5    1    3    3    0  502 -0.63749707133E+01  0.80643252069E+02 -0.52621315448E+03  0.53241557857E+03  0.47000000000E+01 0. -1.
<mgrwt>
<rscale>  0 0.13878477E+03</rscale>
<asrwt>0</asrwt>
<pdfrwt beam="1">  1        2 0.18601858E+00 0.14603761E+03</pdfrwt>
<pdfrwt beam="2">  1       -2 0.26288892E-02 0.14603761E+03</pdfrwt>
<totfact> 0.99044437E+03</totfact>
</mgrwt>
</event>
<event>
 8    1  0.3217375E-004  0.1621546E+03  0.7546771E-02  0.1194783E+00
          3   -1    0    0  501    0  0.00000000000E+00  0.00000000000E+00  0.56138643151E+02  0.56138643151E+02  0.00000000000E+00 0. -1.
         -3   -1    0    0    0  501 -0.00000000000E+00 -0.00000000000E+00 -0.40225935421E+03  0.40225935421E+03  0.00000000000E+00 0.  1.
         25    2    1    2    0    0  0.79235106719E+02  0.66258279708E+02 -0.22581154343E+03  0.27800176886E+03  0.12500307427E+03 0.  0.
         23    2    1    2    0    0 -0.79235106719E+02 -0.66258279708E+02 -0.12030916763E+03  0.18039622850E+03  0.86024076135E+02 0.  0.
          5    1    3    3  502    0  0.94270261272E+02  0.83563049633E+02 -0.13706482472E+03  0.18622170013E+03  0.47000000000E+01 0. -1.
         -5    1    3    3    0  502 -0.15035154552E+02 -0.17304769925E+02 -0.88746718700E+02  0.91780068722E+02  0.47000000000E+01 0. -1.
          5    1    4    4  503    0 -0.46320091775E+02  0.25700455908E+01 -0.12565864920E+02  0.48292307851E+02  0.47000000000E+01 0. -1.
         -5    1    4    4    0  503 -0.32915014944E+02 -0.68828325298E+02 -0.10774330271E+03  0.13210392065E+03  0.47000000000E+01 0.  1.
<mgrwt>
<rscale>  0 0.15472565E+03</rscale>
<asrwt>0</asrwt>
<pdfrwt beam="1">  1        3 0.86367142E-02 0.16215465E+03</pdfrwt>
<pdfrwt beam="2">  1       -3 0.61886056E-01 0.16215465E+03</pdfrwt>
<totfact> 0.57680255E+02</totfact>
</mgrwt>
</event>
<event>
 8    1  0.3217375E-004  0.1943974E+03  0.7546771E-02  0.1159108E+00
         -3   -1    0    0    0  501 -0.00000000000E+00  0.00000000000E+00  0.34682872831E+03  0.34682872831E+03  0.00000000000E+00 0.  1.
          3   -1    0    0  501    0  0.00000000000E+00 -0.00000000000E+00 -0.10971890288E+03  0.10971890288E+03  0.00000000000E+00 0. -1.
         25    2    1    2    0    0 -0.14719256131E+03 -0.22353323457E+02  0.50402805913E+02  0.20082531040E+03  0.12500016511E+03 0.  0.
         23    2    1    2    0    0  0.14719256131E+03  0.22353323457E+02  0.18670701951E+03  0.25572232079E+03  0.91482637911E+02 0.  0.
          5    1    4    4  502    0  0.25793668813E+02 -0.38947887861E+01 -0.52670119373E+01  0.27024325066E+02  0.47000000000E+01 0. -1.
         -5    1    4    4    0  502  0.12139889250E+03  0.26248112244E+02  0.19197403145E+03  0.22869799573E+03  0.47000000000E+01 0.  1.
          5    1    3    3  503    0 -0.15876600263E+03  0.59437458639E+01  0.25212195433E+02  0.16093388861E+03  0.47000000000E+01 0. -1.
         -5    1    3    3    0  503  0.11573441313E+02 -0.28297069321E+02  0.25190610481E+02  0.39891421790E+02  0.47000000000E+01 0. -1.
<mgrwt>
<rscale>  0 0.18928516E+03</rscale>
<asrwt>0</asrwt>
<pdfrwt beam="1">  1        3 0.16879831E-01 0.19439743E+03</pdfrwt>
<pdfrwt beam="2">  1       -3 0.53358265E-01 0.19439743E+03</pdfrwt>
<totfact> 0.25793940E+02</totfact>
</mgrwt>
</event>
<event>
 8    1  0.3217375E-004  0.1263184E+03  0.7546771E-02  0.1248730E+00
         -1   -1    0    0    0  501 -0.00000000000E+00  0.00000000000E+00  0.40995977599E+02  0.40995977599E+02  0.00000000000E+00 0.  1.
          1   -1    0    0  501    0  0.00000000000E+00 -0.00000000000E+00 -0.42097588814E+03  0.42097588814E+03  0.00000000000E+00 0. -1.
         25    2    1    2    0    0 -0.31600826492E+01  0.17821588583E+02 -0.33827161985E+03  0.36108727955E+03  0.12501495717E+03 0.  0.
         23    2    1    2    0    0  0.31600826492E+01 -0.17821588583E+02 -0.41708290699E+02  0.10088458620E+03  0.90058442564E+02 0.  0.
          5    1    4    4  502    0 -0.50504622090E+01 -0.49650930970E+02 -0.34801427596E+01  0.50248616980E+02  0.47000000000E+01 0. -1.
         -5    1    3    3    0  503 -0.30325249055E+01  0.71265100629E+02 -0.21720786021E+03  0.22866843970E+03  0.47000000000E+01 0.  1.
          5    1    3    3  503    0 -0.12755774367E+00 -0.53443512046E+02 -0.12106375963E+03  0.13241883985E+03  0.47000000000E+01 0.  1.
         -5    1    4    4    0  502  0.82105448581E+01  0.31829342387E+02 -0.38228147939E+02  0.50635969217E+02  0.47000000000E+01 0.  1.
<mgrwt>
<rscale>  0 0.11664889E+03</rscale>
<asrwt>0</asrwt>
<pdfrwt beam="1">  1        1 0.64765521E-01 0.12631839E+03</pdfrwt>
<pdfrwt beam="2">  1       -1 0.63070735E-02 0.12631839E+03</pdfrwt>
<totfact> 0.66876265E+03</totfact>
</mgrwt>
</event>
<event>
 8    1  0.3217375E-004  0.1350085E+03  0.7546771E-02  0.1231773E+00
         -2   -1    0    0    0  501 -0.00000000000E+00  0.00000000000E+00  0.45798997061E+02  0.45798997061E+02  0.00000000000E+00 0.  1.
          2   -1    0    0  501    0  0.00000000000E+00 -0.00000000000E+00 -0.32024571398E+03  0.32024571398E+03  0.00000000000E+00 0. -1.
         25    2    1    2    0    0 -0.19325062210E+02  0.47250149665E+02 -0.13660921904E+03  0.19206609430E+03  0.12498508384E+03 0.  0.
         23    2    1    2    0    0  0.19325062210E+02 -0.47250149665E+02 -0.13783749788E+03  0.17397861674E+03  0.93077110975E+02 0.  0.
          5    1    4    4  502    0  0.24252466723E+02  0.66558700572E+01 -0.10998464205E+03  0.11292118594E+03  0.47000000000E+01 0. -1.
         -5    1    4    4    0  502 -0.49274045131E+01 -0.53906019722E+02 -0.27852855837E+02  0.61057430799E+02  0.47000000000E+01 0.  1.
          5    1    3    3  503    0  0.23683553724E+02  0.37431881594E+01  0.14890204570E+02  0.28613464780E+02  0.47000000000E+01 0. -1.
         -5    1    3    3    0  503 -0.43008615933E+02  0.43506961506E+02 -0.15149942361E+03  0.16345262952E+03  0.47000000000E+01 0. -1.
<mgrwt>
<rscale>  0 0.12713305E+03</rscale>
<asrwt>0</asrwt>
<pdfrwt beam="1">  1        2 0.49268570E-01 0.13500854E+03</pdfrwt>
<pdfrwt beam="2">  1       -2 0.70459997E-02 0.13500854E+03</pdfrwt>
<totfact> 0.11096158E+04</totfact>
</mgrwt>
</event>
<event>
 8    1  0.3217375E-004  0.1311710E+03  0.7546771E-02  0.1240549E+00
         -1   -1    0    0    0  501 -0.00000000000E+00  0.00000000000E+00  0.14909121773E+02  0.14909121773E+02  0.00000000000E+00 0.  1.
          1   -1    0    0  501    0  0.00000000000E+00 -0.00000000000E+00 -0.90389549404E+03  0.90389549404E+03  0.00000000000E+00 0. -1.
         25    2    1    2    0    0  0.23453488032E+02  0.32105294894E+02 -0.59583902442E+03  0.61010653745E+03  0.12500011185E+03 0.  0.
         23    2    1    2    0    0 -0.23453488032E+02 -0.32105294894E+02 -0.29314734785E+03  0.30869807836E+03  0.88194784262E+02 0.  0.
          5    1    3    3  502    0 -0.50790352050E+02  0.11146679812E+02 -0.28933804401E+03  0.29401105768E+03  0.47000000000E+01 0.  1.
         -5    1    3    3    0  502  0.74243840082E+02  0.20958615083E+02 -0.30650098041E+03  0.31609547977E+03  0.47000000000E+01 0.  1.
          5    1    4    4  503    0  0.20971195402E+02 -0.93679429692E+01 -0.21217269445E+03  0.21346402897E+03  0.47000000000E+01 0. -1.
         -5    1    4    4    0  503 -0.44424683434E+02 -0.22737351925E+02 -0.80974653394E+02  0.95234049389E+02  0.47000000000E+01 0.  1.
<mgrwt>
<rscale>  0 0.12155784E+03</rscale>
<asrwt>0</asrwt>
<pdfrwt beam="1">  1        1 0.13906085E+00 0.13117105E+03</pdfrwt>
<pdfrwt beam="2">  1       -1 0.22937109E-02 0.13117105E+03</pdfrwt>
<totfact> 0.10208913E+04</totfact>
</mgrwt>
</event>
<event>
 8    1  0.3217375E-004  0.1544322E+03  0.7546771E-02  0.1203611E+00
          2   -1    0    0  501    0  0.00000000000E+00  0.00000000000E+00  0.34304614648E+03  0.34304614648E+03  0.00000000000E+00 0. -1.
         -2   -1    0    0    0  501 -0.00000000000E+00 -0.00000000000E+00 -0.59214953824E+02  0.59214953824E+02  0.00000000000E+00 0.  1.
         25    2    1    2    0    0  0.64529325979E+01  0.90466111204E+02  0.17955686700E+03  0.23683320877E+03  0.12499417056E+03 0.  0.
         23    2    1    2    0    0 -0.64529325979E+01 -0.90466111204E+02  0.10427432566E+03  0.16542789154E+03  0.90925764734E+02 0.  0.
          5    1    3    3  502    0  0.29196465559E+02  0.34187878844E+02  0.16912801752E+03  0.17506461942E+03  0.47000000000E+01 0.  1.
         -5    1    3    3    0  502 -0.22743532961E+02  0.56278232360E+02  0.10428849480E+02  0.61768589352E+02  0.47000000000E+01 0.  1.
          5    1    4    4  503    0 -0.27110803219E+02 -0.56444224343E+01  0.62523584596E+02  0.68543006839E+02  0.47000000000E+01 0. -1.
         -5    1    4    4    0  503  0.20657870621E+02 -0.84821688770E+02  0.41750741064E+02  0.96884884702E+02  0.47000000000E+01 0.  1.
<mgrwt>
<rscale>  0 0.14747441E+03</rscale>
<asrwt>0</asrwt>
<pdfrwt beam="1">  1        2 0.52776329E-01 0.15443219E+03</pdfrwt>
<pdfrwt beam="2">  1       -2 0.91099931E-02 0.15443219E+03</pdfrwt>
<totfact> 0.69956479E+03</totfact>
</mgrwt>
</event>
<event>
 8    1  0.3217375E-004  0.1261071E+03  0.7546771E-02  0.1249221E+00
         -2   -1    0    0    0  501 -0.00000000000E+00  0.00000000000E+00  0.63768757838E+02  0.63768757838E+02  0.00000000000E+00 0. -1.
          2   -1    0    0  501    0  0.00000000000E+00 -0.00000000000E+00 -0.29429871928E+03  0.29429871928E+03  0.00000000000E+00 0.  1.
         25    2    1    2    0    0 -0.22438415232E+01  0.16526619356E+02 -0.23482854238E+03  0.26654725469E+03  0.12499932279E+03 0.  0.
         23    2    1    2    0    0  0.22438415232E+01 -0.16526619356E+02  0.42985809340E+01  0.91520222423E+02  0.89884978402E+02 0.  0.
          5    1    4    4  502    0  0.39926641403E+02 -0.25842579371E+02  0.16499864166E+02  0.50559975472E+02  0.47000000000E+01 0. -1.
         -5    1    4    4    0  502 -0.37682799880E+02  0.93159600151E+01 -0.12201283232E+02  0.40960246951E+02  0.47000000000E+01 0.  1.
          5    1    3    3  503    0 -0.29103376768E+02 -0.47516856000E+02 -0.11743475062E+03  0.13006870799E+03  0.47000000000E+01 0.  1.
         -5    1    3    3    0  503  0.26859535244E+02  0.64043475356E+02 -0.11739379175E+03  0.13647854671E+03  0.47000000000E+01 0.  1.
<mgrwt>
<rscale>  0 0.11636275E+03</rscale>
<asrwt>0</asrwt>
<pdfrwt beam="1">  1        2 0.45276726E-01 0.12610708E+03</pdfrwt>
<pdfrwt beam="2">  1       -2 0.98105781E-02 0.12610708E+03</pdfrwt>
<totfact> 0.72338491E+03</totfact>
</mgrwt>
</event>
<event>
 8    1  0.3217375E-004  0.1609362E+03  0.7546771E-02  0.1195267E+00
          1   -1    0    0  501    0  0.00000000000E+00  0.00000000000E+00  0.85687249422E+03  0.85687249422E+03  0.00000000000E+00 0. -1.
         -1   -1    0    0    0  501 -0.00000000000E+00 -0.00000000000E+00 -0.27914803330E+02  0.27914803330E+02  0.00000000000E+00 0.  1.
         25    2    1    2    0    0 -0.36610179615E+02  0.94527809504E+02  0.32321632400E+03  0.36106680880E+03  0.12499854517E+03 0.  0.
         23    2    1    2    0    0  0.36610179615E+02 -0.94527809504E+02  0.50574136689E+03  0.52372048875E+03  0.90735925263E+02 0.  0.
          5    1    4    4  502    0 -0.61526959949E+01 -0.92636965630E+02  0.35029241695E+03  0.36241734291E+03  0.47000000000E+01 0. -1.
         -5    1    4    4    0  502  0.42762875610E+02 -0.18908438743E+01  0.15544894994E+03  0.16130314584E+03  0.47000000000E+01 0.  1.
          5    1    3    3  503    0 -0.12979466351E+02  0.95609376706E+02  0.10960862525E+03  0.14610188291E+03  0.47000000000E+01 0.  1.
         -5    1    3    3    0  503 -0.23630713265E+02 -0.10815672021E+01  0.21360769874E+03  0.21496492588E+03  0.47000000000E+01 0.  1.
<mgrwt>
<rscale>  0 0.15431657E+03</rscale>
<asrwt>0</asrwt>
<pdfrwt beam="1">  1        1 0.13182652E+00 0.16093616E+03</pdfrwt>
<pdfrwt beam="2">  1       -1 0.42945858E-02 0.16093616E+03</pdfrwt>
<totfact> 0.44879066E+03</totfact>
</mgrwt>
</event>
<event>
 8    1  0.3217375E-004  0.1454621E+03  0.7546771E-02  0.1216150E+00
         -2   -1    0    0    0  501 -0.00000000000E+00  0.00000000000E+00  0.12696567733E+02  0.12696567733E+02  0.00000000000E+00 0.  1.
          2   -1    0    0  501    0  0.00000000000E+00 -0.00000000000E+00 -0.14398146652E+04  0.14398146652E+04  0.00000000000E+00 0. -1.
         25    2    1    2    0    0  0.66912855567E+02 -0.32521897802E+02 -0.61757224858E+03  0.63447197777E+03  0.12499681711E+03 0.  0.
         23    2    1    2    0    0 -0.66912855567E+02  0.32521897802E+02 -0.80954584893E+03  0.81803925520E+03  0.91042503567E+02 0.  0.
          5    1    3    3  502    0  0.47917729266E+02 -0.71104430718E+02 -0.52871550675E+03  0.53564365573E+03  0.47000000000E+01 0. -1.
         -5    1    3    3    0  502  0.18995126300E+02  0.38582532916E+02 -0.88856741828E+02  0.98828322042E+02  0.47000000000E+01 0. -1.
          5    1    4    4  503    0 -0.40001151960E+02  0.56553766450E+02 -0.67827431781E+03  0.68181856888E+03  0.47000000000E+01 0. -1.
         -5    1    4    4    0  503 -0.26911703607E+02 -0.24031868648E+02 -0.13127153111E+03  0.13622068632E+03  0.47000000000E+01 0.  1.
<mgrwt>
<rscale>  0 0.13792420E+03</rscale>
<asrwt>0</asrwt>
<pdfrwt beam="1">  1        2 0.22150984E+00 0.14546205E+03</pdfrwt>
<pdfrwt beam="2">  1       -2 0.19533190E-02 0.14546205E+03</pdfrwt>
<totfact> 0.11475071E+04</totfact>
</mgrwt>
</event>
<event>
 8    1  0.3217375E-004  0.1423379E+03  0.7546771E-02  0.1221227E+00
          1   -1    0    0  501    0  0.00000000000E+00  0.00000000000E+00  0.18386882705E+04  0.18386882705E+04  0.00000000000E+00 0. -1.
         -1   -1    0    0    0  501 -0.00000000000E+00 -0.00000000000E+00 -0.95376333172E+01  0.95376333172E+01  0.00000000000E+00 0.  1.
         25    2    1    2    0    0  0.23978218146E+02 -0.63709716274E+02  0.76612424922E+03  0.77923452770E+03  0.12500480399E+03 0.  0.
         23    2    1    2    0    0 -0.23978218146E+02  0.63709716274E+02  0.10630263880E+04  0.10689913761E+04  0.89908719375E+02 0.  0.
          5    1    4    4  502    0  0.28369023060E+02  0.51224039324E+02  0.56003255783E+03  0.56310501641E+03  0.47000000000E+01 0. -1.
         -5    1    3    3    0  503 -0.43091228219E+02 -0.49896201337E+02  0.25095826622E+03  0.25951613869E+03  0.47000000000E+01 0.  1.
          5    1    3    3  503    0  0.67069446365E+02 -0.13813514937E+02  0.51516598300E+03  0.51971838901E+03  0.47000000000E+01 0.  1.
         -5    1    4    4    0  502 -0.52347241206E+02  0.12485676950E+02  0.50299383015E+03  0.50588635972E+03  0.47000000000E+01 0.  1.
<mgrwt>
<rscale>  0 0.13428902E+03</rscale>
<asrwt>0</asrwt>
<pdfrwt beam="1">  1        1 0.28287484E+00 0.14233792E+03</pdfrwt>
<pdfrwt beam="2">  1       -1 0.14673297E-02 0.14233792E+03</pdfrwt>
<totfact> 0.45798005E+03</totfact>
</mgrwt>
</event>
<event>
 8    1  0.3217375E-004  0.1297203E+03  0.7546771E-02  0.1241928E+00
          1   -1    0    0  501    0  0.00000000000E+00  0.00000000000E+00  0.16870729229E+03  0.16870729229E+03  0.00000000000E+00 0. -1.
         -1   -1    0    0    0  501 -0.00000000000E+00 -0.00000000000E+00 -0.76377959107E+02  0.76377959107E+02  0.00000000000E+00 0.  1.
         25    2    1    2    0    0  0.28196916104E+02 -0.20341453237E+02  0.55028260608E+02  0.14090943068E+03  0.12497406688E+03 0.  0.
         23    2    1    2    0    0 -0.28196916104E+02  0.20341453237E+02  0.37301072571E+02  0.10417582071E+03  0.90842670635E+02 0.  0.
          5    1    4    4  502    0 -0.52520234534E+02  0.70203285209E+01  0.50280830366E+02  0.73197759190E+02  0.47000000000E+01 0. -1.
         -5    1    3    3    0  503  0.64835628806E+02  0.22546776156E+02  0.47951960031E+02  0.83865942721E+02  0.47000000000E+01 0. -1.
          5    1    3    3  503    0 -0.36638712702E+02 -0.42888229393E+02  0.70763005770E+01  0.57043487961E+02  0.47000000000E+01 0. -1.
         -5    1    4    4    0  502  0.24323318430E+02  0.13321124716E+02 -0.12979757795E+02  0.30978061521E+02  0.47000000000E+01 0.  1.
<mgrwt>
<rscale>  0 0.12071172E+03</rscale>
<asrwt>0</asrwt>
<pdfrwt beam="1">  1        1 0.25954968E-01 0.12972031E+03</pdfrwt>
<pdfrwt beam="2">  1       -1 0.11750455E-01 0.12972031E+03</pdfrwt>
<totfact> 0.81361912E+03</totfact>
</mgrwt>
</event>
<event>
 8    1  0.3217375E-004  0.1775546E+03  0.7546771E-02  0.1175906E+00
          1   -1    0    0  501    0  0.00000000000E+00  0.00000000000E+00  0.38824887279E+03  0.38824887279E+03  0.00000000000E+00 0. -1.
         -1   -1    0    0    0  501 -0.00000000000E+00 -0.00000000000E+00 -0.71605501328E+02  0.71605501328E+02  0.00000000000E+00 0.  1.
         25    2    1    2    0    0  0.12579692755E+03 -0.88273396192E+01  0.16676600864E+03  0.24359089568E+03  0.12499133536E+03 0.  0.
         23    2    1    2    0    0 -0.12579692755E+03  0.88273396192E+01  0.14987736283E+03  0.21626347844E+03  0.91672674847E+02 0.  0.
          5    1    4    4  502    0 -0.96813668411E+02 -0.56260688556E+01  0.15523927968E+03  0.18310069087E+03  0.47000000000E+01 0. -1.
         -5    1    4    4    0  502 -0.28983259140E+02  0.14453408475E+02 -0.53619168556E+01  0.33162787568E+02  0.47000000000E+01 0.  1.
          5    1    3    3  503    0  0.53284452643E+02  0.25933329796E+02  0.11869585672E+01  0.59458131137E+02  0.47000000000E+01 0. -1.
         -5    1    3    3    0  503  0.72512474908E+02 -0.34760669415E+02  0.16557905007E+03  0.18413276454E+03  0.47000000000E+01 0. -1.
<mgrwt>
<rscale>  0 0.17187573E+03</rscale>
<asrwt>0</asrwt>
<pdfrwt beam="1">  1        1 0.59730594E-01 0.17755456E+03</pdfrwt>
<pdfrwt beam="2">  1       -1 0.11016231E-01 0.17755456E+03</pdfrwt>
<totfact> 0.32366161E+03</totfact>
</mgrwt>
</event>
<event>
 8    1  0.3217375E-004  0.1300412E+03  0.7546771E-02  0.1241293E+00
          2   -1    0    0  501    0  0.00000000000E+00  0.00000000000E+00  0.43960900466E+02  0.43960900466E+02  0.00000000000E+00 0. -1.
         -2   -1    0    0    0  501 -0.00000000000E+00 -0.00000000000E+00 -0.31975748119E+03  0.31975748119E+03  0.00000000000E+00 0.  1.
         25    2    1    2    0    0  0.12929050597E+02 -0.33429419842E+02 -0.20582808542E+03  0.24346642841E+03  0.12500405816E+03 0.  0.
         23    2    1    2    0    0 -0.12929050597E+02  0.33429419842E+02 -0.69968495302E+02  0.12025195324E+03  0.90995909045E+02 0.  0.
          5    1    4    4  502    0  0.24510856634E+02  0.19593892737E+02  0.78333567235E+01  0.32682628460E+02  0.47000000000E+01 0. -1.
         -5    1    3    3    0  503  0.18347101099E+02 -0.72913127083E+02 -0.18156246416E+03  0.19657049273E+03  0.47000000000E+01 0.  1.
          5    1    3    3  503    0 -0.54180505022E+01  0.39483707240E+02 -0.24265621260E+02  0.46895935685E+02  0.47000000000E+01 0.  1.
         -5    1    4    4    0  502 -0.37439907231E+02  0.13835527105E+02 -0.77801852026E+02  0.87569324780E+02  0.47000000000E+01 0.  1.
<mgrwt>
<rscale>  0 0.12110049E+03</rscale>
<asrwt>0</asrwt>
<pdfrwt beam="1">  1        2 0.67632156E-02 0.13004115E+03</pdfrwt>
<pdfrwt beam="2">  1       -2 0.49193457E-01 0.13004115E+03</pdfrwt>
<totfact> 0.39831881E+03</totfact>
</mgrwt>
</event>
<event>
 8    1  0.3217375E-004  0.1381265E+03  0.7546771E-02  0.1227950E+00
         -3   -1    0    0    0  501 -0.00000000000E+00  0.00000000000E+00  0.59582963142E+02  0.59582963142E+02  0.00000000000E+00 0.  1.
          3   -1    0    0  501    0  0.00000000000E+00 -0.00000000000E+00 -0.30819332537E+03  0.30819332537E+03  0.00000000000E+00 0. -1.
         25    2    1    2    0    0 -0.19409654395E+02  0.55496255490E+02 -0.59579480241E+02  0.15042819934E+03  0.12498943809E+03 0.  0.
         23    2    1    2    0    0  0.19409654395E+02 -0.55496255490E+02 -0.18903088199E+03  0.21734808917E+03  0.89727077657E+02 0.  0.
          5    1    4    4  502    0 -0.23198795509E+01 -0.27728984617E+02 -0.17783029994E+03  0.18005550257E+03  0.47000000000E+01 0. -1.
         -5    1    3    3    0  503 -0.62291979841E+02 -0.34308581226E+01 -0.13276092591E+02  0.63956283308E+02  0.47000000000E+01 0.  1.
          5    1    3    3  503    0  0.42882325447E+02  0.58927113612E+02 -0.46303387649E+02  0.86471916032E+02  0.47000000000E+01 0.  1.
         -5    1    4    4    0  502  0.21729533946E+02 -0.27767270872E+02 -0.11200582045E+02  0.37292586600E+02  0.47000000000E+01 0.  1.
<mgrwt>
<rscale>  0 0.12966729E+03</rscale>
<asrwt>0</asrwt>
<pdfrwt beam="1">  1        3 0.47414358E-01 0.13812650E+03</pdfrwt>
<pdfrwt beam="2">  1       -3 0.91666098E-02 0.13812650E+03</pdfrwt>
<totfact> 0.87738064E+02</totfact>
</mgrwt>
</event>
<event>
 8    1  0.3217375E-004  0.1286278E+03  0.7546771E-02  0.1243751E+00
         -2   -1    0    0    0  501 -0.00000000000E+00  0.00000000000E+00  0.10365166734E+02  0.10365166734E+02  0.00000000000E+00 0.  1.
          2   -1    0    0  501    0  0.00000000000E+00 -0.00000000000E+00 -0.12298424673E+04  0.12298424673E+04  0.00000000000E+00 0. -1.
         25    2    1    2    0    0  0.10448192086E+02 -0.28460105371E+02 -0.63862349401E+03  0.65144845437E+03  0.12500391706E+03 0.  0.
         23    2    1    2    0    0 -0.10448192086E+02  0.28460105371E+02 -0.58085380650E+03  0.58875917961E+03  0.91252861506E+02 0.  0.
          5    1    4    4  502    0  0.17578014526E+02  0.54289295477E+02 -0.31773927113E+03  0.32285700955E+03  0.47000000000E+01 0. -1.
         -5    1    3    3    0  503  0.49488698707E+02  0.18804284631E+02 -0.44832023892E+03  0.45145969814E+03  0.47000000000E+01 0.  1.
          5    1    3    3  503    0 -0.39040506621E+02 -0.47264390002E+02 -0.19030325509E+03  0.19998875623E+03  0.47000000000E+01 0.  1.
         -5    1    4    4    0  502 -0.28026206612E+02 -0.25829190106E+02 -0.26311453538E+03  0.26590217006E+03  0.47000000000E+01 0.  1.
<mgrwt>
<rscale>  0 0.11960430E+03</rscale>
<asrwt>0</asrwt>
<pdfrwt beam="1">  1        2 0.18920639E+00 0.12862784E+03</pdfrwt>
<pdfrwt beam="2">  1       -2 0.15946422E-02 0.12862784E+03</pdfrwt>
<totfact> 0.19804838E+04</totfact>
</mgrwt>
</event>
<event>
 8    1  0.3217375E-004  0.1375645E+03  0.7546771E-02  0.1227874E+00
          1   -1    0    0  501    0  0.00000000000E+00  0.00000000000E+00  0.58193603702E+02  0.58193603702E+02  0.00000000000E+00 0. -1.
         -1   -1    0    0    0  501 -0.00000000000E+00 -0.00000000000E+00 -0.27816055045E+03  0.27816055045E+03  0.00000000000E+00 0.  1.
         25    2    1    2    0    0  0.30567436220E+02 -0.48629353522E+02 -0.16393097945E+03  0.21400318650E+03  0.12499926251E+03 0.  0.
         23    2    1    2    0    0 -0.30567436220E+02  0.48629353522E+02 -0.56035967297E+02  0.12235096765E+03  0.92360962930E+02 0.  0.
          5    1    3    3  502    0 -0.23232251773E+02 -0.66633879361E+02 -0.49911030532E+02  0.86562187876E+02  0.47000000000E+01 0.  1.
         -5    1    4    4    0  503 -0.52750248197E+02  0.14352114274E+02 -0.59705456547E+02  0.81088861199E+02  0.47000000000E+01 0.  1.
          5    1    4    4  503    0  0.22182811977E+02  0.34277239247E+02  0.36694892498E+01  0.41262106453E+02  0.47000000000E+01 0. -1.
         -5    1    3    3    0  502  0.53799687993E+02  0.18004525839E+02 -0.11401994892E+03  0.12744099863E+03  0.47000000000E+01 0.  1.
<mgrwt>
<rscale>  0 0.12971843E+03</rscale>
<asrwt>0</asrwt>
<pdfrwt beam="1">  1        1 0.89528620E-02 0.13756452E+03</pdfrwt>
<pdfrwt beam="2">  1       -1 0.42793931E-01 0.13756452E+03</pdfrwt>
<totfact> 0.39118499E+03</totfact>
</mgrwt>
</event>
<event>
 8    1  0.3217375E-004  0.1436095E+03  0.7546771E-02  0.1219171E+00
         -2   -1    0    0    0  501 -0.00000000000E+00  0.00000000000E+00  0.29028612278E+02  0.29028612278E+02  0.00000000000E+00 0.  1.
          2   -1    0    0  501    0  0.00000000000E+00 -0.00000000000E+00 -0.57607805903E+03  0.57607805903E+03  0.00000000000E+00 0. -1.
         25    2    1    2    0    0 -0.50018005575E+01  0.70526395406E+02 -0.28783958995E+03  0.32167580709E+03  0.12499881947E+03 0.  0.
         23    2    1    2    0    0  0.50018005575E+01 -0.70526395406E+02 -0.25920985681E+03  0.28343086422E+03  0.90245855685E+02 0.  0.
          5    1    3    3  502    0 -0.21726209233E+02  0.90032975342E+02 -0.27914445419E+03  0.29414568010E+03  0.47000000000E+01 0.  1.
         -5    1    3    3    0  502  0.16724408675E+02 -0.19506579936E+02 -0.86951357588E+01  0.27530126992E+02  0.47000000000E+01 0.  1.
          5    1    4    4  503    0  0.41685086384E+02 -0.90719092435E+01 -0.96533442116E+02  0.10564441022E+03  0.47000000000E+01 0. -1.
         -5    1    4    4    0  503 -0.36683285827E+02 -0.61454486163E+02 -0.16267641469E+03  0.17778645400E+03  0.47000000000E+01 0.  1.
<mgrwt>
<rscale>  0 0.13574552E+03</rscale>
<asrwt>0</asrwt>
<pdfrwt beam="1">  1        2 0.88627394E-01 0.14360952E+03</pdfrwt>
<pdfrwt beam="2">  1       -2 0.44659403E-02 0.14360952E+03</pdfrwt>
<totfact> 0.11758980E+04</totfact>
</mgrwt>
</event>
<event>
 8    1  0.3217375E-004  0.1487928E+03  0.7546771E-02  0.1210595E+00
         -1   -1    0    0    0  501 -0.00000000000E+00  0.00000000000E+00  0.30494619728E+02  0.30494619728E+02  0.00000000000E+00 0.  1.
          1   -1    0    0  501    0  0.00000000000E+00 -0.00000000000E+00 -0.70618501333E+03  0.70618501333E+03  0.00000000000E+00 0. -1.
         25    2    1    2    0    0 -0.44061461358E+02  0.67617513535E+02 -0.22812990935E+03  0.27236473582E+03  0.12500301301E+03 0.  0.
         23    2    1    2    0    0  0.44061461358E+02 -0.67617513535E+02 -0.44756048425E+03  0.46431489724E+03  0.93618354104E+02 0.  0.
          5    1    3    3  502    0 -0.85398070132E+02  0.50756998893E+02 -0.12389519139E+03  0.15887483051E+03  0.47000000000E+01 0.  1.
         -5    1    3    3    0  502  0.41336608774E+02  0.16860514642E+02 -0.10423471796E+03  0.11348990531E+03  0.47000000000E+01 0.  1.
          5    1    4    4  503    0  0.14648870453E+02  0.23168924854E+02 -0.89174731342E+02  0.93410980052E+02  0.47000000000E+01 0. -1.
         -5    1    4    4    0  503  0.29412590905E+02 -0.90786438389E+02 -0.35838575291E+03  0.37090391719E+03  0.47000000000E+01 0.  1.
<mgrwt>
<rscale>  0 0.14205107E+03</rscale>
<asrwt>0</asrwt>
<pdfrwt beam="1">  1        1 0.10864384E+00 0.14879279E+03</pdfrwt>
<pdfrwt beam="2">  1       -1 0.46914802E-02 0.14879279E+03</pdfrwt>
<totfact> 0.52441214E+03</totfact>
</mgrwt>
</event>
<event>
 8    1  0.3217375E-004  0.1303684E+03  0.7546771E-02  0.1240170E+00
         -1   -1    0    0    0  501 -0.00000000000E+00  0.00000000000E+00  0.15305507328E+02  0.15305507328E+02  0.00000000000E+00 0.  1.
          1   -1    0    0  501    0  0.00000000000E+00 -0.00000000000E+00 -0.10134502031E+04  0.10134502031E+04  0.00000000000E+00 0. -1.
         25    2    1    2    0    0  0.12361903169E+02 -0.34898369573E+02 -0.35890618168E+03  0.38185019342E+03  0.12500084045E+03 0.  0.
         23    2    1    2    0    0 -0.12361903169E+02  0.34898369573E+02 -0.63923851412E+03  0.64690551704E+03  0.92142049006E+02 0.  0.
          5    1    3    3  502    0 -0.49196552160E+02 -0.19531406235E+02 -0.81881532998E+02  0.97613790112E+02  0.47000000000E+01 0.  1.
         -5    1    4    4    0  503 -0.15436432378E+02  0.60288506219E+02 -0.56095303497E+03  0.56441419620E+03  0.47000000000E+01 0.  1.
          5    1    4    4  503    0  0.30745292094E+01 -0.25390136647E+02 -0.78285479142E+02  0.82491320836E+02  0.47000000000E+01 0. -1.
         -5    1    3    3    0  502  0.61558455329E+02 -0.15366963338E+02 -0.27702464869E+03  0.28423640331E+03  0.47000000000E+01 0.  1.
<mgrwt>
<rscale>  0 0.12179198E+03</rscale>
<asrwt>0</asrwt>
<pdfrwt beam="1">  1        1 0.15591544E+00 0.13036841E+03</pdfrwt>
<pdfrwt beam="2">  1       -1 0.23546931E-02 0.13036841E+03</pdfrwt>
<totfact> 0.81417912E+03</totfact>
</mgrwt>
</event>
<event>
 8    1  0.3217375E-004  0.1447306E+03  0.7546771E-02  0.1217247E+00
         -1   -1    0    0    0  501 -0.00000000000E+00  0.00000000000E+00  0.25815528902E+02  0.25815528902E+02  0.00000000000E+00 0.  1.
          1   -1    0    0  501    0  0.00000000000E+00 -0.00000000000E+00 -0.66211685656E+03  0.66211685656E+03  0.00000000000E+00 0. -1.
         25    2    1    2    0    0 -0.19209945170E+02 -0.70376684080E+02 -0.36256710784E+03  0.39038679935E+03  0.12500018304E+03 0.  0.
         23    2    1    2    0    0  0.19209945170E+02  0.70376684080E+02 -0.27373421982E+03  0.29754558611E+03  0.91000291546E+02 0.  0.
          5    1    3    3  502    0  0.32166639979E+02  0.82538309892E+01 -0.19819278217E+03  0.20101066479E+03  0.47000000000E+01 0.  1.
         -5    1    4    4    0  503  0.12991599408E+02 -0.19367983269E+02 -0.34448951605E+02  0.41865507255E+02  0.47000000000E+01 0.  1.
          5    1    4    4  503    0  0.62183457624E+01  0.89744667349E+02 -0.23928526821E+03  0.25568007886E+03  0.47000000000E+01 0. -1.
         -5    1    3    3    0  502 -0.51376585149E+02 -0.78630515069E+02 -0.16437432567E+03  0.18937613456E+03  0.47000000000E+01 0.  1.
<mgrwt>
<rscale>  0 0.13712745E+03</rscale>
<asrwt>0</asrwt>
<pdfrwt beam="1">  1        1 0.10186412E+00 0.14473060E+03</pdfrwt>
<pdfrwt beam="2">  1       -1 0.39716204E-02 0.14473060E+03</pdfrwt>
<totfact> 0.73375053E+03</totfact>
</mgrwt>
</event>
<event>
 8    1  0.3217375E-004  0.1376937E+03  0.7546771E-02  0.1228879E+00
         -2   -1    0    0    0  501 -0.00000000000E+00  0.00000000000E+00  0.34369582312E+02  0.34369582312E+02  0.00000000000E+00 0.  1.
          2   -1    0    0  501    0  0.00000000000E+00 -0.00000000000E+00 -0.71566421908E+03  0.71566421908E+03  0.00000000000E+00 0. -1.
         25    2    1    2    0    0  0.56593640013E+02  0.11462016605E+02 -0.13263238889E+03  0.19118288871E+03  0.12500131374E+03 0.  0.
         23    2    1    2    0    0 -0.56593640013E+02 -0.11462016605E+02 -0.54866224787E+03  0.55885091268E+03  0.89162001138E+02 0.  0.
          5    1    3    3  502    0  0.37775987548E+02  0.65770147756E+02 -0.97646796201E+02  0.12373247100E+03  0.47000000000E+01 0.  1.
         -5    1    4    4    0  503  0.56316670669E+01 -0.28254903339E+02 -0.69952654818E+02  0.75799202850E+02  0.47000000000E+01 0.  1.
          5    1    4    4  503    0 -0.62225307080E+02  0.16792886734E+02 -0.47870959305E+03  0.48305170983E+03  0.47000000000E+01 0. -1.
         -5    1    3    3    0  502  0.18817652465E+02 -0.54308131152E+02 -0.34985592691E+02  0.67450417711E+02  0.47000000000E+01 0.  1.
<mgrwt>
<rscale>  0 0.12904576E+03</rscale>
<asrwt>0</asrwt>
<pdfrwt beam="1">  1        2 0.11010219E+00 0.13769367E+03</pdfrwt>
<pdfrwt beam="2">  1       -2 0.52876282E-02 0.13769367E+03</pdfrwt>
<totfact> 0.70763895E+03</totfact>
</mgrwt>
</event>
<event>
 8    1  0.3217375E-004  0.1679617E+03  0.7546771E-02  0.1186234E+00
          1   -1    0    0  501    0  0.00000000000E+00  0.00000000000E+00  0.27943742082E+03  0.27943742082E+03  0.00000000000E+00 0. -1.
         -1   -1    0    0    0  501 -0.00000000000E+00 -0.00000000000E+00 -0.90315893988E+02  0.90315893988E+02  0.00000000000E+00 0.  1.
         25    2    1    2    0    0 -0.10206429448E+03 -0.46559136098E+02  0.12902064501E+03  0.21179578556E+03  0.12500501822E+03 0.  0.
         23    2    1    2    0    0  0.10206429448E+03  0.46559136098E+02  0.60100881817E+02  0.15795752924E+03  0.93560631073E+02 0.  0.
          5    1    3    3  502    0 -0.10338069830E+03  0.82428151229E+01  0.11518267151E+03  0.15506337607E+03  0.47000000000E+01 0. -1.
         -5    1    3    3    0  502  0.13164038155E+01 -0.54801951221E+02  0.13837973502E+02  0.56732409496E+02  0.47000000000E+01 0. -1.
          5    1    4    4  503    0  0.56438960513E+02  0.17602394858E+02  0.80515824643E+02  0.10000044293E+03  0.47000000000E+01 0. -1.
         -5    1    4    4    0  503  0.45625333967E+02  0.28956741240E+02 -0.20414942826E+02  0.57957086309E+02  0.47000000000E+01 0.  1.
<mgrwt>
<rscale>  0 0.16220083E+03</rscale>
<asrwt>0</asrwt>
<pdfrwt beam="1">  1        1 0.42990372E-01 0.16796169E+03</pdfrwt>
<pdfrwt beam="2">  1       -1 0.13894753E-01 0.16796169E+03</pdfrwt>
<totfact> 0.33988873E+03</totfact>
</mgrwt>
</event>
<event>
 8    1  0.3217375E-004  0.1422647E+03  0.7546771E-02  0.1221081E+00
         -1   -1    0    0    0  501 -0.00000000000E+00  0.00000000000E+00  0.54634185818E+02  0.54634185818E+02  0.00000000000E+00 0.  1.
          1   -1    0    0  501    0  0.00000000000E+00 -0.00000000000E+00 -0.31630523706E+03  0.31630523706E+03  0.00000000000E+00 0. -1.
         25    2    1    2    0    0  0.51808127074E+02 -0.43924285028E+02 -0.10153978067E+03  0.17478431907E+03  0.12500322511E+03 0.  0.
         23    2    1    2    0    0 -0.51808127074E+02  0.43924285028E+02 -0.16013127057E+03  0.19615510381E+03  0.90671804269E+02 0.  0.
          5    1    4    4  502    0 -0.49754184153E+02 -0.15344734982E+02 -0.91026295520E+02  0.10497054924E+03  0.47000000000E+01 0. -1.
         -5    1    4    4    0  502 -0.20539429210E+01  0.59269020010E+02 -0.69104975051E+02  0.91184554565E+02  0.47000000000E+01 0.  1.
          5    1    3    3  503    0  0.35639070037E+02 -0.16135060267E+02 -0.12733839309E+03  0.13329531063E+03  0.47000000000E+01 0. -1.
         -5    1    3    3    0  503  0.16169057037E+02 -0.27789224761E+02  0.25798612417E+02  0.41489008435E+02  0.47000000000E+01 0. -1.
<mgrwt>
<rscale>  0 0.13439137E+03</rscale>
<asrwt>0</asrwt>
<pdfrwt beam="1">  1        1 0.48662344E-01 0.14226465E+03</pdfrwt>
<pdfrwt beam="2">  1       -1 0.84052593E-02 0.14226465E+03</pdfrwt>
<totfact> 0.62599026E+03</totfact>
</mgrwt>
</event>
<event>
 8    1  0.3217375E-004  0.1416571E+03  0.7546771E-02  0.1221524E+00
         -1   -1    0    0    0  501 -0.00000000000E+00  0.00000000000E+00  0.94574695405E+03  0.94574695405E+03  0.00000000000E+00 0.  1.
          1   -1    0    0  501    0  0.00000000000E+00 -0.00000000000E+00 -0.18348201456E+02  0.18348201456E+02  0.00000000000E+00 0. -1.
         25    2    1    2    0    0  0.64190284149E+02  0.17823198646E+02  0.62939229226E+03  0.64513671301E+03  0.12501464684E+03 0.  0.
         23    2    1    2    0    0 -0.64190284149E+02 -0.17823198646E+02  0.29800646034E+03  0.31895844250E+03  0.92133482791E+02 0.  0.
          5    1    3    3  502    0  0.20420030115E+02 -0.46459155856E+02  0.12878748478E+03  0.13850536823E+03  0.47000000000E+01 0.  1.
         -5    1    3    3    0  502  0.43770254033E+02  0.64282354502E+02  0.50060480748E+03  0.50663134478E+03  0.47000000000E+01 0.  1.
          5    1    4    4  503    0 -0.78047924536E+01 -0.46498830839E+02  0.93193179512E+02  0.10454718916E+03  0.47000000000E+01 0. -1.
         -5    1    4    4    0  503 -0.56385491695E+02  0.28675632192E+02  0.20481328082E+03  0.21441125334E+03  0.47000000000E+01 0.  1.
<mgrwt>
<rscale>  0 0.13408011E+03</rscale>
<asrwt>0</asrwt>
<pdfrwt beam="1">  1        1 0.28228010E-02 0.14165705E+03</pdfrwt>
<pdfrwt beam="2">  1       -1 0.14549949E+00 0.14165705E+03</pdfrwt>
<totfact> 0.14850980E+03</totfact>
</mgrwt>
</event>
<event>
 8    1  0.3217375E-004  0.1262447E+03  0.7546771E-02  0.1247914E+00
          2   -1    0    0  501    0  0.00000000000E+00  0.00000000000E+00  0.25344273226E+03  0.25344273226E+03  0.00000000000E+00 0.  1.
         -2   -1    0    0    0  501 -0.00000000000E+00 -0.00000000000E+00 -0.59511925898E+02  0.59511925898E+02  0.00000000000E+00 0. -1.
         25    2    1    2    0    0 -0.55448354931E+00  0.17583981399E+02  0.17776355762E+03  0.21803118845E+03  0.12501285080E+03 0.  0.
         23    2    1    2    0    0  0.55448354931E+00 -0.17583981399E+02  0.16167248738E+02  0.94923469707E+02  0.91867193903E+02 0.  0.
          5    1    3    3  502    0 -0.47349943629E+02 -0.18388797884E+02  0.13688081972E+03  0.14607742418E+03  0.47000000000E+01 0. -1.
         -5    1    3    3    0  502  0.46795460080E+02  0.35972779283E+02  0.40882737906E+02  0.71953764267E+02  0.47000000000E+01 0. -1.
          5    1    4    4  503    0 -0.92084096033E+01 -0.41326428160E+02 -0.22574169392E+02  0.48211529696E+02  0.47000000000E+01 0. -1.
         -5    1    4    4    0  503  0.97628931526E+01  0.23742446761E+02  0.38741418130E+02  0.46711940012E+02  0.47000000000E+01 0.  1.
<mgrwt>
<rscale>  0 0.11712649E+03</rscale>
<asrwt>0</asrwt>
<pdfrwt beam="1">  1        2 0.38991189E-01 0.12624467E+03</pdfrwt>
<pdfrwt beam="2">  1       -2 0.91556810E-02 0.12624467E+03</pdfrwt>
<totfact> 0.94397886E+03</totfact>
</mgrwt>
</event>
<event>
 8    1  0.3217375E-004  0.1453863E+03  0.7546771E-02  0.1219262E+00
          2   -1    0    0  501    0  0.00000000000E+00  0.00000000000E+00  0.96922483297E+02  0.96922483297E+02  0.00000000000E+00 0. -1.
         -2   -1    0    0    0  501 -0.00000000000E+00 -0.00000000000E+00 -0.18509846261E+03  0.18509846261E+03  0.00000000000E+00 0.  1.
         25    2    1    2    0    0  0.40812757881E+02 -0.62052193675E+02 -0.78703644402E+01  0.14559920549E+03  0.12498411922E+03 0.  0.
         23    2    1    2    0    0 -0.40812757881E+02  0.62052193675E+02 -0.80305614875E+02  0.13642174042E+03  0.81521429896E+02 0.  0.
          5    1    3    3  502    0  0.61381099781E+02 -0.90805738426E+02 -0.49974558446E+01  0.10981978923E+03  0.47000000000E+01 0. -1.
         -5    1    4    4    0  503 -0.31187532393E+02  0.26847962597E+02 -0.89389579317E+02  0.98519349180E+02  0.47000000000E+01 0.  1.
          5    1    4    4  503    0 -0.96252254885E+01  0.35204231077E+02  0.90839644425E+01  0.37902391236E+02  0.47000000000E+01 0. -1.
         -5    1    3    3    0  502 -0.20568341900E+02  0.28753544751E+02 -0.28729085956E+01  0.35779416262E+02  0.47000000000E+01 0. -1.
<mgrwt>
<rscale>  0 0.13568063E+03</rscale>
<asrwt>0</asrwt>
<pdfrwt beam="1">  1        2 0.14911151E-01 0.14538633E+03</pdfrwt>
<pdfrwt beam="2">  1       -2 0.28476686E-01 0.14538633E+03</pdfrwt>
<totfact> 0.42370797E+03</totfact>
</mgrwt>
</event>
<event>
 8    1  0.3217375E-004  0.2458439E+03  0.7546771E-02  0.1117914E+00
          2   -1    0    0  501    0  0.00000000000E+00  0.00000000000E+00  0.25228197131E+03  0.25228197131E+03  0.00000000000E+00 0. -1.
         -2   -1    0    0    0  501 -0.00000000000E+00 -0.00000000000E+00 -0.22834478442E+03  0.22834478442E+03  0.00000000000E+00 0.  1.
         25    2    1    2    0    0  0.16263213849E+03 -0.13551488607E+03  0.17842407270E+02  0.24649046682E+03  0.12500280766E+03 0.  0.
         23    2    1    2    0    0 -0.16263213849E+03  0.13551488607E+03  0.60947796194E+01  0.23413628891E+03  0.99845674060E+02 0.  0.
          5    1    3    3  502    0  0.16752117410E+03 -0.92570146672E+02  0.43049984676E+02  0.19623446947E+03  0.47000000000E+01 0. -1.
         -5    1    3    3    0  502 -0.48890356156E+01 -0.42944739397E+02 -0.25207577406E+02  0.50255997351E+02  0.47000000000E+01 0. -1.
          5    1    4    4  503    0 -0.34147921721E+02  0.18822642017E+02  0.41278990806E+02  0.56977341921E+02  0.47000000000E+01 0. -1.
         -5    1    4    4    0  503 -0.12848421677E+03  0.11669224405E+03 -0.35184211186E+02  0.17715894698E+03  0.47000000000E+01 0.  1.
<mgrwt>
<rscale>  0 0.24284261E+03</rscale>
<asrwt>0</asrwt>
<pdfrwt beam="1">  1        2 0.38812611E-01 0.24584385E+03</pdfrwt>
<pdfrwt beam="2">  1       -2 0.35129967E-01 0.24584385E+03</pdfrwt>
<totfact> 0.10069525E+03</totfact>
</mgrwt>
</event>
<event>
 8    1  0.3217375E-004  0.1810659E+03  0.7546771E-02  0.1172176E+00
          1   -1    0    0  501    0  0.00000000000E+00  0.00000000000E+00  0.76396420816E+03  0.76396420816E+03  0.00000000000E+00 0. -1.
         -1   -1    0    0    0  501 -0.00000000000E+00 -0.00000000000E+00 -0.40463211697E+02  0.40463211697E+02  0.00000000000E+00 0.  1.
         25    2    1    2    0    0 -0.43700524595E+02  0.12349252029E+03  0.48044506358E+03  0.51343191038E+03  0.12499891624E+03 0.  0.
         23    2    1    2    0    0  0.43700524595E+02 -0.12349252029E+03  0.24305593288E+03  0.29099550947E+03  0.91880692239E+02 0.  0.
          5    1    3    3  502    0 -0.30313749321E+02  0.61911144197E+02  0.42113198319E+03  0.42676240513E+03  0.47000000000E+01 0. -1.
         -5    1    4    4    0  503  0.18618984048E+02 -0.84271420042E+02  0.68522361718E+02  0.11029842636E+03  0.47000000000E+01 0.  1.
          5    1    4    4  503    0  0.25081540547E+02 -0.39221100252E+02  0.17453357117E+03  0.18069708311E+03  0.47000000000E+01 0. -1.
         -5    1    3    3    0  502 -0.13386775273E+02  0.61581376097E+02  0.59313080394E+02  0.86669505249E+02  0.47000000000E+01 0. -1.
<mgrwt>
<rscale>  0 0.17555459E+03</rscale>
<asrwt>0</asrwt>
<pdfrwt beam="1">  1        1 0.11753294E+00 0.18106592E+03</pdfrwt>
<pdfrwt beam="2">  1       -1 0.62251101E-02 0.18106592E+03</pdfrwt>
<totfact> 0.30876837E+03</totfact>
</mgrwt>
</event>
<event>
 8    1  0.3217375E-004  0.1424719E+03  0.7546771E-02  0.1220882E+00
         -2   -1    0    0    0  501 -0.00000000000E+00  0.00000000000E+00  0.33326304462E+02  0.33326304462E+02  0.00000000000E+00 0.  1.
          2   -1    0    0  501    0  0.00000000000E+00 -0.00000000000E+00 -0.51386451454E+03  0.51386451454E+03  0.00000000000E+00 0. -1.
         25    2    1    2    0    0  0.61435046116E+02 -0.30068696056E+02 -0.32428130094E+03  0.35419854110E+03  0.12497941032E+03 0.  0.
         23    2    1    2    0    0 -0.61435046116E+02  0.30068696056E+02 -0.15625690913E+03  0.19299227790E+03  0.90285138877E+02 0.  0.
          5    1    4    4  502    0 -0.54237671944E+02 -0.11625262913E+02 -0.13367422317E+03  0.14480248526E+03  0.47000000000E+01 0. -1.
         -5    1    3    3    0  503  0.56078778925E+02 -0.56530906386E+02 -0.31549074402E+03  0.32541830370E+03  0.47000000000E+01 0. -1.
          5    1    3    3  503    0  0.53562671919E+01  0.26462210330E+02 -0.87905569225E+01  0.28780237400E+02  0.47000000000E+01 0. -1.
         -5    1    4    4    0  502 -0.71973741723E+01  0.41693958969E+02 -0.22582685960E+02  0.48189792639E+02  0.47000000000E+01 0.  1.
<mgrwt>
<rscale>  0 0.13453163E+03</rscale>
<asrwt>0</asrwt>
<pdfrwt beam="1">  1        2 0.79056081E-01 0.14247191E+03</pdfrwt>
<pdfrwt beam="2">  1       -2 0.51271236E-02 0.14247191E+03</pdfrwt>
<totfact> 0.10854243E+04</totfact>
</mgrwt>
</event>
<event>
 8    1  0.3217375E-004  0.1578203E+03  0.7546771E-02  0.1198943E+00
         -1   -1    0    0    0  501 -0.00000000000E+00  0.00000000000E+00  0.25026455332E+02  0.25026455332E+02  0.00000000000E+00 0.  1.
          1   -1    0    0  501    0  0.00000000000E+00 -0.00000000000E+00 -0.85381676647E+03  0.85381676647E+03  0.00000000000E+00 0. -1.
         25    2    1    2    0    0  0.76487137348E+02 -0.58592428989E+02 -0.49191272723E+03  0.51660951362E+03  0.12499561370E+03 0.  0.
         23    2    1    2    0    0 -0.76487137348E+02  0.58592428989E+02 -0.33687758391E+03  0.36223370818E+03  0.91887963760E+02 0.  0.
          5    1    4    4  502    0 -0.29472309319E+02  0.21292850789E+02 -0.26908823022E+03  0.27157424060E+03  0.47000000000E+01 0. -1.
         -5    1    4    4    0  502 -0.47014828029E+02  0.37299578200E+02 -0.67789353687E+02  0.90659467580E+02  0.47000000000E+01 0.  1.
          5    1    3    3  503    0  0.20535386757E+02 -0.13066329608E+02 -0.62078708506E+01  0.25555013974E+02  0.47000000000E+01 0. -1.
         -5    1    3    3    0  503  0.55951750591E+02 -0.45526099381E+02 -0.48570485637E+03  0.49105449965E+03  0.47000000000E+01 0. -1.
<mgrwt>
<rscale>  0 0.15125191E+03</rscale>
<asrwt>0</asrwt>
<pdfrwt beam="1">  1        1 0.13135642E+00 0.15782034E+03</pdfrwt>
<pdfrwt beam="2">  1       -1 0.38502241E-02 0.15782034E+03</pdfrwt>
<totfact> 0.52978604E+03</totfact>
</mgrwt>
</event>
<event>
 8    1  0.3217375E-004  0.1441507E+03  0.7546771E-02  0.1218035E+00
          1   -1    0    0  501    0  0.00000000000E+00  0.00000000000E+00  0.41426271857E+02  0.41426271857E+02  0.00000000000E+00 0. -1.
         -1   -1    0    0    0  501 -0.00000000000E+00 -0.00000000000E+00 -0.50825864040E+03  0.50825864040E+03  0.00000000000E+00 0.  1.
         25    2    1    2    0    0 -0.54939104388E+02  0.46221162416E+02 -0.37469355295E+03  0.40146566173E+03  0.12499887150E+03 0.  0.
         23    2    1    2    0    0  0.54939104388E+02 -0.46221162416E+02 -0.92138815586E+02  0.14821925053E+03  0.91239705407E+02 0.  0.
          5    1    4    4  502    0  0.22580265241E+02 -0.41300638429E+02  0.30976487219E+01  0.47405659373E+02  0.47000000000E+01 0. -1.
         -5    1    3    3    0  503  0.28072525460E+02  0.51114836016E+02 -0.12005245922E+03  0.13354952681E+03  0.47000000000E+01 0. -1.
          5    1    3    3  503    0 -0.83011629848E+02 -0.48936736002E+01 -0.25464109374E+03  0.26791613492E+03  0.47000000000E+01 0. -1.
         -5    1    4    4    0  502  0.32358839147E+02 -0.49205239876E+01 -0.95236464308E+02  0.10081359115E+03  0.47000000000E+01 0.  1.
<mgrwt>
<rscale>  0 0.13655930E+03</rscale>
<asrwt>0</asrwt>
<pdfrwt beam="1">  1        1 0.63732726E-02 0.14415068E+03</pdfrwt>
<pdfrwt beam="2">  1       -1 0.78193637E-01 0.14415068E+03</pdfrwt>
<totfact> 0.19809338E+03</totfact>
</mgrwt>
</event>
<event>
 8    1  0.3217375E-004  0.1681608E+03  0.7546771E-02  0.1186336E+00
         -2   -1    0    0    0  501 -0.00000000000E+00  0.00000000000E+00  0.42069623624E+02  0.42069623624E+02  0.00000000000E+00 0.  1.
          2   -1    0    0  501    0  0.00000000000E+00 -0.00000000000E+00 -0.58368375680E+03  0.58368375680E+03  0.00000000000E+00 0. -1.
         25    2    1    2    0    0 -0.98567840401E+02 -0.54199962209E+02 -0.28777032353E+03  0.33330139079E+03  0.12499921172E+03 0.  0.
         23    2    1    2    0    0  0.98567840401E+02  0.54199962209E+02 -0.25384380964E+03  0.29245198963E+03  0.91859846956E+02 0.  0.
          5    1    4    4  502    0  0.50963082072E+02  0.45435691573E+02 -0.22659823845E+03  0.23670760332E+03  0.47000000000E+01 0. -1.
         -5    1    4    4    0  502  0.47604758328E+02  0.87642706357E+01 -0.27245571188E+02  0.55744386306E+02  0.47000000000E+01 0.  1.
          5    1    3    3  503    0 -0.34921129869E+02 -0.38311637699E+02 -0.17150001153E+02  0.54804009288E+02  0.47000000000E+01 0.  1.
         -5    1    3    3    0  503 -0.63646710532E+02 -0.15888324509E+02 -0.27062032238E+03  0.27849738150E+03  0.47000000000E+01 0.  1.
<mgrwt>
<rscale>  0 0.16210895E+03</rscale>
<asrwt>0</asrwt>
<pdfrwt beam="1">  1        2 0.89797495E-01 0.16816081E+03</pdfrwt>
<pdfrwt beam="2">  1       -2 0.64722502E-02 0.16816081E+03</pdfrwt>
<totfact> 0.66729217E+03</totfact>
</mgrwt>
</event>
<event>
 8    1  0.3217375E-004  0.2266877E+03  0.7546771E-02  0.1131928E+00
          1   -1    0    0  501    0  0.00000000000E+00  0.00000000000E+00  0.73963294895E+03  0.73963294895E+03  0.00000000000E+00 0. -1.
         -1   -1    0    0    0  501 -0.00000000000E+00 -0.00000000000E+00 -0.95987082889E+02  0.95987082889E+02  0.00000000000E+00 0.  1.
         25    2    1    2    0    0 -0.16736192769E+03 -0.88051119617E+02  0.56794515451E+03  0.61151370114E+03  0.12499717455E+03 0.  0.
         23    2    1    2    0    0  0.16736192769E+03  0.88051119617E+02  0.75700711556E+02  0.22410633070E+03  0.93434657508E+02 0.  0.
          5    1    4    4  502    0  0.50737426287E+02  0.61220008246E+02  0.66902410673E+02  0.10402018261E+03  0.47000000000E+01 0. -1.
         -5    1    4    4    0  502  0.11662450141E+03  0.26831111371E+02  0.87983008823E+01  0.12008614809E+03  0.47000000000E+01 0.  1.
          5    1    3    3  503    0 -0.55038030629E+02  0.21473776083E+02  0.25012727404E+03  0.25705262320E+03  0.47000000000E+01 0.  1.
         -5    1    3    3    0  503 -0.11232389706E+03 -0.10952489570E+03  0.31781788047E+03  0.35446107794E+03  0.47000000000E+01 0.  1.
<mgrwt>
<rscale>  0 0.22264219E+03</rscale>
<asrwt>0</asrwt>
<pdfrwt beam="1">  1        1 0.11378968E+00 0.22668769E+03</pdfrwt>
<pdfrwt beam="2">  1       -1 0.14767244E-01 0.22668769E+03</pdfrwt>
<totfact> 0.85903682E+02</totfact>
</mgrwt>
</event>
<event>
 8    1  0.3217375E-004  0.1530689E+03  0.7546771E-02  0.1205917E+00
         -1   -1    0    0    0  501 -0.00000000000E+00  0.00000000000E+00  0.10158903310E+03  0.10158903310E+03  0.00000000000E+00 0.  1.
          1   -1    0    0  501    0  0.00000000000E+00 -0.00000000000E+00 -0.19705060156E+03  0.19705060156E+03  0.00000000000E+00 0. -1.
         25    2    1    2    0    0 -0.82590607283E+02  0.31380393589E+02 -0.26190314267E+02  0.15529333943E+03  0.12499660474E+03 0.  0.
         23    2    1    2    0    0  0.82590607283E+02 -0.31380393589E+02 -0.69271254195E+02  0.14334629523E+03  0.89127527656E+02 0.  0.
          5    1    3    3  502    0 -0.11374857795E+03  0.11251140275E+02 -0.10976686984E+02  0.11492564900E+03  0.47000000000E+01 0. -1.
         -5    1    4    4    0  503  0.37939280085E+02  0.27193496826E+02 -0.46637769110E+02  0.66151694994E+02  0.47000000000E+01 0.  1.
          5    1    4    4  503    0  0.44651327197E+02 -0.58573890416E+02 -0.22633485085E+02  0.77194600239E+02  0.47000000000E+01 0. -1.
         -5    1    3    3    0  502  0.31157970663E+02  0.20129253314E+02 -0.15213627283E+02  0.40367690420E+02  0.47000000000E+01 0. -1.
<mgrwt>
<rscale>  0 0.14565457E+03</rscale>
<asrwt>0</asrwt>
<pdfrwt beam="1">  1        1 0.30315477E-01 0.15306890E+03</pdfrwt>
<pdfrwt beam="2">  1       -1 0.15629082E-01 0.15306890E+03</pdfrwt>
<totfact> 0.43439147E+03</totfact>
</mgrwt>
</event>
<event>
 8    1  0.3217375E-004  0.1270539E+03  0.7546771E-02  0.1246016E+00
          1   -1    0    0  501    0  0.00000000000E+00  0.00000000000E+00  0.55529567411E+03  0.55529567411E+03  0.00000000000E+00 0. -1.
         -1   -1    0    0    0  501 -0.00000000000E+00 -0.00000000000E+00 -0.23406967829E+02  0.23406967829E+02  0.00000000000E+00 0.  1.
         25    2    1    2    0    0 -0.22697805035E+02  0.19338916409E+01  0.36535431107E+03  0.38681581630E+03  0.12499509124E+03 0.  0.
         23    2    1    2    0    0  0.22697805035E+02 -0.19338916409E+01  0.16653439521E+03  0.19188682563E+03  0.92563052966E+02 0.  0.
          5    1    3    3  502    0 -0.65984340147E+02 -0.22347467769E+02  0.27385548527E+03  0.28261680643E+03  0.47000000000E+01 0.  1.
         -5    1    3    3    0  502  0.43286535112E+02  0.24281359410E+02  0.91498825797E+02  0.10419900988E+03  0.47000000000E+01 0.  1.
          5    1    4    4  503    0 -0.43841450886E+01  0.26037388154E+02  0.14437116397E+03  0.14684103410E+03  0.47000000000E+01 0. -1.
         -5    1    4    4    0  503  0.27081950123E+02 -0.27971279795E+02  0.22163231238E+02  0.45045791533E+02  0.47000000000E+01 0.  1.
<mgrwt>
<rscale>  0 0.11824772E+03</rscale>
<asrwt>0</asrwt>
<pdfrwt beam="1">  1        1 0.85430094E-01 0.12705394E+03</pdfrwt>
<pdfrwt beam="2">  1       -1 0.36010724E-02 0.12705394E+03</pdfrwt>
<totfact> 0.10682306E+04</totfact>
</mgrwt>
</event>
<event>
 8    1  0.3217375E-004  0.1817003E+03  0.7546771E-02  0.1170645E+00
         -1   -1    0    0    0  501 -0.00000000000E+00  0.00000000000E+00  0.25275989135E+03  0.25275989135E+03  0.00000000000E+00 0.  1.
          1   -1    0    0  501    0  0.00000000000E+00 -0.00000000000E+00 -0.14512519575E+03  0.14512519575E+03  0.00000000000E+00 0. -1.
         25    2    1    2    0    0  0.13089467928E+03  0.16043195946E+02 -0.29565448061E+02  0.18408994266E+03  0.12499676023E+03 0.  0.
         23    2    1    2    0    0 -0.13089467928E+03 -0.16043195946E+02  0.13720014366E+03  0.21379514443E+03  0.97435533360E+02 0.  0.
          5    1    3    3  502    0  0.11628359858E+03 -0.16291928594E+02  0.23735201622E+02  0.11988641305E+03  0.47000000000E+01 0. -1.
         -5    1    3    3    0  502  0.14611080701E+02  0.32335124540E+02 -0.53300649684E+02  0.64203529614E+02  0.47000000000E+01 0. -1.
          5    1    4    4  503    0 -0.75073814881E+02 -0.23671480398E+02  0.16578041170E+02  0.80581251628E+02  0.47000000000E+01 0. -1.
         -5    1    4    4    0  503 -0.55820864404E+02  0.76282844519E+01  0.12062210249E+03  0.13321389280E+03  0.47000000000E+01 0.  1.
<mgrwt>
<rscale>  0 0.17709423E+03</rscale>
<asrwt>0</asrwt>
<pdfrwt beam="1">  1        1 0.22326953E-01 0.18170028E+03</pdfrwt>
<pdfrwt beam="2">  1       -1 0.38886137E-01 0.18170028E+03</pdfrwt>
<totfact> 0.14229936E+03</totfact>
</mgrwt>
</event>
<event>
 8    1  0.3217375E-004  0.1544603E+03  0.7546771E-02  0.1203556E+00
          2   -1    0    0  501    0  0.00000000000E+00  0.00000000000E+00  0.12787853080E+03  0.12787853080E+03  0.00000000000E+00 0. -1.
         -2   -1    0    0    0  501 -0.00000000000E+00 -0.00000000000E+00 -0.17024666538E+03  0.17024666538E+03  0.00000000000E+00 0.  1.
         25    2    1    2    0    0 -0.56852300096E+02  0.70720136354E+02  0.19164329249E+02  0.15564460362E+03  0.12499779761E+03 0.  0.
         23    2    1    2    0    0  0.56852300096E+02 -0.70720136354E+02 -0.61532463829E+02  0.14248059256E+03  0.90999744169E+02 0.  0.
          5    1    4    4  502    0  0.36368621288E+02  0.11629310209E+02 -0.16350729513E+01  0.38505596138E+02  0.47000000000E+01 0. -1.
         -5    1    3    3    0  503 -0.80645065617E+02  0.76030777482E+02  0.45090773652E+02  0.11974795865E+03  0.47000000000E+01 0.  1.
          5    1    3    3  503    0  0.23792765521E+02 -0.53106411284E+01 -0.25926444402E+02  0.35896644964E+02  0.47000000000E+01 0.  1.
         -5    1    4    4    0  502  0.20483678807E+02 -0.82349446563E+02 -0.59897390878E+02  0.10397499642E+03  0.47000000000E+01 0.  1.
<mgrwt>
<rscale>  0 0.14751822E+03</rscale>
<asrwt>0</asrwt>
<pdfrwt beam="1">  1        2 0.19673620E-01 0.15446026E+03</pdfrwt>
<pdfrwt beam="2">  1       -2 0.26191795E-01 0.15446026E+03</pdfrwt>
<totfact> 0.35806896E+03</totfact>
</mgrwt>
</event>
<event>
 8    1  0.3217375E-004  0.1342801E+03  0.7546771E-02  0.1234149E+00
          2   -1    0    0  501    0  0.00000000000E+00  0.00000000000E+00  0.33843088543E+03  0.33843088543E+03  0.00000000000E+00 0.  1.
         -2   -1    0    0    0  501 -0.00000000000E+00 -0.00000000000E+00 -0.45271701542E+02  0.45271701542E+02  0.00000000000E+00 0. -1.
         25    2    1    2    0    0  0.35210676139E+01  0.48923723865E+02  0.21934789505E+03  0.25718599413E+03  0.12500083136E+03 0.  0.
         23    2    1    2    0    0 -0.35210676139E+01 -0.48923723865E+02  0.73811288834E+02  0.12651659284E+03  0.90290715079E+02 0.  0.
          5    1    4    4  502    0 -0.66493688779E+01 -0.22034943478E+02 -0.18691161616E+02  0.30020032697E+02  0.47000000000E+01 0. -1.
         -5    1    3    3    0  503 -0.42134311535E+02 -0.11831054310E+02  0.14193161884E+03  0.14859996125E+03  0.47000000000E+01 0.  1.
          5    1    3    3  503    0  0.45655379149E+02  0.60754778175E+02  0.77416276209E+02  0.10858603289E+03  0.47000000000E+01 0.  1.
         -5    1    4    4    0  502  0.31283012640E+01 -0.26888780387E+02  0.92502450450E+02  0.96496560139E+02  0.47000000000E+01 0.  1.
<mgrwt>
<rscale>  0 0.12559089E+03</rscale>
<asrwt>0</asrwt>
<pdfrwt beam="1">  1        2 0.52066288E-01 0.13428007E+03</pdfrwt>
<pdfrwt beam="2">  1       -2 0.69648774E-02 0.13428007E+03</pdfrwt>
<totfact> 0.10647893E+04</totfact>
</mgrwt>
</event>
<event>
 8    1  0.3217375E-004  0.1562288E+03  0.7546771E-02  0.1201116E+00
          1   -1    0    0  501    0  0.00000000000E+00  0.00000000000E+00  0.51208340713E+03  0.51208340713E+03  0.00000000000E+00 0. -1.
         -1   -1    0    0    0  501 -0.00000000000E+00 -0.00000000000E+00 -0.47146464337E+02  0.47146464337E+02  0.00000000000E+00 0.  1.
         25    2    1    2    0    0 -0.32161117181E+02 -0.88028293229E+02  0.14341885659E+03  0.21207639725E+03  0.12499644786E+03 0.  0.
         23    2    1    2    0    0  0.32161117181E+02  0.88028293229E+02  0.32151808620E+03  0.34715347421E+03  0.91423941265E+02 0.  0.
          5    1    3    3  502    0  0.46100277250E+02 -0.29559292860E+02  0.73826354012E+02  0.92040251540E+02  0.47000000000E+01 0. -1.
         -5    1    3    3    0  502 -0.78261394431E+02 -0.58469000369E+02  0.69592502578E+02  0.12003614571E+03  0.47000000000E+01 0. -1.
          5    1    4    4  503    0 -0.14197358667E+02  0.23451791575E+02  0.19962786208E+03  0.20155625726E+03  0.47000000000E+01 0. -1.
         -5    1    4    4    0  503  0.46358475848E+02  0.64576501654E+02  0.12189022412E+03  0.14559721696E+03  0.47000000000E+01 0.  1.
<mgrwt>
<rscale>  0 0.14947803E+03</rscale>
<asrwt>0</asrwt>
<pdfrwt beam="1">  1        1 0.78782059E-01 0.15622877E+03</pdfrwt>
<pdfrwt beam="2">  1       -1 0.72533026E-02 0.15622877E+03</pdfrwt>
<totfact> 0.42619029E+03</totfact>
</mgrwt>
</event>
<event>
 8    1  0.3217375E-004  0.1404804E+03  0.7546771E-02  0.1222912E+00
          2   -1    0    0  501    0  0.00000000000E+00  0.00000000000E+00  0.17044847894E+03  0.17044847894E+03  0.00000000000E+00 0. -1.
         -2   -1    0    0    0  501 -0.00000000000E+00 -0.00000000000E+00 -0.98826676281E+02  0.98826676281E+02  0.00000000000E+00 0.  1.
         25    2    1    2    0    0 -0.60654590181E+02  0.20697074818E+02  0.11209062644E+02  0.14092688022E+03  0.12500957670E+03 0.  0.
         23    2    1    2    0    0  0.60654590181E+02 -0.20697074818E+02  0.60412740014E+02  0.12834827500E+03  0.93360764365E+02 0.  0.
          5    1    3    3  502    0  0.34487884516E+02 -0.71608189380E+01  0.20867506119E+02  0.41209638653E+02  0.47000000000E+01 0.  1.
         -5    1    4    4    0  503  0.93199336907E+01  0.23656584510E+02 -0.12435228906E+02  0.28691811943E+02  0.47000000000E+01 0.  1.
          5    1    4    4  503    0  0.51334656490E+02 -0.44353659328E+02  0.72847968920E+02  0.99656463054E+02  0.47000000000E+01 0. -1.
         -5    1    3    3    0  502 -0.95142474697E+02  0.27857893756E+02 -0.96584434745E+01  0.99717241570E+02  0.47000000000E+01 0.  1.
<mgrwt>
<rscale>  0 0.13311070E+03</rscale>
<asrwt>0</asrwt>
<pdfrwt beam="1">  1        2 0.26222843E-01 0.14048040E+03</pdfrwt>
<pdfrwt beam="2">  1       -2 0.15204104E-01 0.14048040E+03</pdfrwt>
<totfact> 0.64976426E+03</totfact>
</mgrwt>
</event>
<event>
 8    1  0.3217375E-004  0.4305438E+03  0.7546771E-02  0.1034370E+00
          1   -1    0    0  501    0  0.00000000000E+00  0.00000000000E+00  0.13152845742E+04  0.13152845742E+04  0.00000000000E+00 0. -1.
         -1   -1    0    0    0  501 -0.00000000000E+00 -0.00000000000E+00 -0.13827659500E+03  0.13827659500E+03  0.00000000000E+00 0.  1.
         25    2    1    2    0    0 -0.40633067730E+03  0.68112422913E+02  0.57221963961E+03  0.71610285810E+03  0.12499626375E+03 0.  0.
         23    2    1    2    0    0  0.40633067730E+03 -0.68112422913E+02  0.60478833959E+03  0.73745831110E+03  0.91279260660E+02 0.  0.
          5    1    4    4  502    0  0.17263988433E+03 -0.41218401226E+02  0.18625197229E+03  0.25732348016E+03  0.47000000000E+01 0. -1.
         -5    1    4    4    0  502  0.23369079298E+03 -0.26894021686E+02  0.41853636730E+03  0.48013483094E+03  0.47000000000E+01 0.  1.
          5    1    3    3  503    0 -0.39048220649E+03  0.51404515072E+02  0.56950554748E+03  0.69244309251E+03  0.47000000000E+01 0. -1.
         -5    1    3    3    0  503 -0.15848470817E+02  0.16707907841E+02  0.27140921258E+01  0.23659765589E+02  0.47000000000E+01 0. -1.
<mgrwt>
<rscale>  0 0.42838933E+03</rscale>
<asrwt>0</asrwt>
<pdfrwt beam="1">  1        1 0.20235146E+00 0.43054383E+03</pdfrwt>
<pdfrwt beam="2">  1       -1 0.21273323E-01 0.43054383E+03</pdfrwt>
<totfact> 0.17062422E+02</totfact>
</mgrwt>
</event>
<event>
 8    1  0.3217375E-004  0.1256459E+03  0.7546771E-02  0.1249317E+00
         -2   -1    0    0    0  501 -0.00000000000E+00  0.00000000000E+00  0.45775848073E+02  0.45775848073E+02  0.00000000000E+00 0.  1.
          2   -1    0    0  501    0  0.00000000000E+00 -0.00000000000E+00 -0.70433743769E+03  0.70433743769E+03  0.00000000000E+00 0. -1.
         25    2    1    2    0    0  0.11179585672E+02  0.60657036262E+01 -0.51022901012E+02  0.13561060737E+03  0.12500049803E+03 0.  0.
         23    2    1    2    0    0 -0.11179585672E+02 -0.60657036262E+01 -0.60753868861E+03  0.61450267839E+03  0.91370168535E+02 0.  0.
          5    1    3    3  502    0  0.97528839195E+01 -0.56288798721E+02 -0.44806502984E+02  0.72754795827E+02  0.47000000000E+01 0.  1.
         -5    1    4    4    0  503 -0.39777829874E+02 -0.30574736320E+02 -0.25533875470E+03  0.26026344326E+03  0.47000000000E+01 0.  1.
          5    1    4    4  503    0  0.28598244202E+02  0.24509032694E+02 -0.35219993391E+03  0.35423923513E+03  0.47000000000E+01 0. -1.
         -5    1    3    3    0  502  0.14267017526E+01  0.62354502347E+02 -0.62163980273E+01  0.62855811547E+02  0.47000000000E+01 0.  1.
<mgrwt>
<rscale>  0 0.11630659E+03</rscale>
<asrwt>0</asrwt>
<pdfrwt beam="1">  1        2 0.10835960E+00 0.12564593E+03</pdfrwt>
<pdfrwt beam="2">  1       -2 0.70424384E-02 0.12564593E+03</pdfrwt>
<totfact> 0.46484806E+03</totfact>
</mgrwt>
</event>
<event>
 8    1  0.3217375E-004  0.1259740E+03  0.7546771E-02  0.1249260E+00
         -2   -1    0    0    0  501 -0.00000000000E+00  0.00000000000E+00  0.35847343436E+02  0.35847343436E+02  0.00000000000E+00 0.  1.
          2   -1    0    0  501    0  0.00000000000E+00 -0.00000000000E+00 -0.33159189764E+03  0.33159189764E+03  0.00000000000E+00 0. -1.
         25    2    1    2    0    0 -0.53982290211E+01 -0.14643290504E+02 -0.18264493766E+03  0.22187525847E+03  0.12500356090E+03 0.  0.
         23    2    1    2    0    0  0.53982290211E+01  0.14643290504E+02 -0.11309961654E+03  0.14556398260E+03  0.90298299735E+02 0.  0.
          5    1    3    3  502    0 -0.44100749817E+02 -0.52739608094E+02 -0.12363533336E+03  0.14154196569E+03  0.47000000000E+01 0. -1.
         -5    1    4    4    0  503  0.44745750088E+02 -0.28084503227E+01 -0.38378872802E+02  0.59203863233E+02  0.47000000000E+01 0.  1.
          5    1    4    4  503    0 -0.39347521067E+02  0.17451740827E+02 -0.74720743740E+02  0.86360119367E+02  0.47000000000E+01 0. -1.
         -5    1    3    3    0  502  0.38702520796E+02  0.38096317590E+02 -0.59009604300E+02  0.80333292784E+02  0.47000000000E+01 0. -1.
<mgrwt>
<rscale>  0 0.11633987E+03</rscale>
<asrwt>0</asrwt>
<pdfrwt beam="1">  1        2 0.51014140E-01 0.12597403E+03</pdfrwt>
<pdfrwt beam="2">  1       -2 0.55149757E-02 0.12597403E+03</pdfrwt>
<totfact> 0.15425198E+04</totfact>
</mgrwt>
</event>
<event>
 8    1  0.3217375E-004  0.1307799E+03  0.7546771E-02  0.1241511E+00
         -3   -1    0    0    0  501 -0.00000000000E+00  0.00000000000E+00  0.76519322880E+03  0.76519322880E+03  0.00000000000E+00 0.  1.
          3   -1    0    0  501    0  0.00000000000E+00 -0.00000000000E+00 -0.16796252662E+02  0.16796252662E+02  0.00000000000E+00 0. -1.
         25    2    1    2    0    0  0.26047512369E+02  0.28291804657E+02  0.44936648285E+03  0.46801028298E+03  0.12499795982E+03 0.  0.
         23    2    1    2    0    0 -0.26047512369E+02 -0.28291804657E+02  0.29903049329E+03  0.31397919848E+03  0.87663002734E+02 0.  0.
          5    1    3    3  502    0  0.27178484460E+02 -0.44003837546E+02  0.26249859620E+03  0.26758664156E+03  0.47000000000E+01 0. -1.
         -5    1    3    3    0  502 -0.11309720917E+01  0.72295642203E+02  0.18686788665E+03  0.20042364142E+03  0.47000000000E+01 0. -1.
          5    1    4    4  503    0 -0.15599283076E+02  0.28859407378E+02  0.67119513545E+02  0.74855341327E+02  0.47000000000E+01 0. -1.
         -5    1    4    4    0  503 -0.10448229293E+02 -0.57151212036E+02  0.23191097975E+03  0.23912385715E+03  0.47000000000E+01 0.  1.
<mgrwt>
<rscale>  0 0.12096638E+03</rscale>
<asrwt>0</asrwt>
<pdfrwt beam="1">  1        3 0.25840395E-02 0.13077993E+03</pdfrwt>
<pdfrwt beam="2">  1       -3 0.11772201E+00 0.13077993E+03</pdfrwt>
<totfact> 0.91374039E+02</totfact>
</mgrwt>
</event>
<event>
 8    1  0.3217375E-004  0.1707273E+03  0.7546771E-02  0.1183494E+00
         -2   -1    0    0    0  501 -0.00000000000E+00  0.00000000000E+00  0.59858457197E+02  0.59858457197E+02  0.00000000000E+00 0.  1.
          2   -1    0    0  501    0  0.00000000000E+00 -0.00000000000E+00 -0.45457626285E+03  0.45457626285E+03  0.00000000000E+00 0. -1.
         25    2    1    2    0    0  0.85051653347E+02 -0.79261409653E+02 -0.27724299367E+03  0.32559404086E+03  0.12502658560E+03 0.  0.
         23    2    1    2    0    0 -0.85051653347E+02  0.79261409653E+02 -0.11747481198E+03  0.18884067919E+03  0.91347226928E+02 0.  0.
          5    1    3    3  502    0 -0.27157821534E+02 -0.42200585971E+02 -0.10731580602E+03  0.11856310112E+03  0.47000000000E+01 0.  1.
         -5    1    4    4    0  503 -0.18466558285E+02  0.66543950872E+02 -0.94441868123E+02  0.11709170606E+03  0.47000000000E+01 0.  1.
          5    1    4    4  503    0 -0.66585095063E+02  0.12717458782E+02 -0.23032943862E+02  0.71748973131E+02  0.47000000000E+01 0. -1.
         -5    1    3    3    0  502  0.11220947488E+03 -0.37060823683E+02 -0.16992718765E+03  0.20703093973E+03  0.47000000000E+01 0.  1.
<mgrwt>
<rscale>  0 0.16469659E+03</rscale>
<asrwt>0</asrwt>
<pdfrwt beam="1">  1        2 0.69934810E-01 0.17072727E+03</pdfrwt>
<pdfrwt beam="2">  1       -2 0.92089934E-02 0.17072727E+03</pdfrwt>
<totfact> 0.51083170E+03</totfact>
</mgrwt>
</event>
<event>
 8    1  0.3217375E-004  0.1370610E+03  0.7546771E-02  0.1228938E+00
         -3   -1    0    0    0  501 -0.00000000000E+00  0.00000000000E+00  0.11410817501E+03  0.11410817501E+03  0.00000000000E+00 0.  1.
          3   -1    0    0  501    0  0.00000000000E+00 -0.00000000000E+00 -0.13717676888E+03  0.13717676888E+03  0.00000000000E+00 0. -1.
         25    2    1    2    0    0 -0.21550199954E+02  0.51921626562E+02  0.13361743282E+02  0.13771076694E+03  0.12500181089E+03 0.  0.
         23    2    1    2    0    0  0.21550199954E+02 -0.51921626562E+02 -0.36430337156E+02  0.11357417695E+03  0.91715090260E+02 0.  0.
          5    1    3    3  502    0  0.47939180382E+02 -0.27223759580E+01  0.89950446850E+01  0.49077257212E+02  0.47000000000E+01 0. -1.
         -5    1    3    3    0  502 -0.69489380336E+02  0.54644002520E+02  0.43666985970E+01  0.88633509733E+02  0.47000000000E+01 0. -1.
          5    1    4    4  503    0  0.53962066246E+02 -0.20496395426E+02 -0.35983570322E+02  0.68182946197E+02  0.47000000000E+01 0. -1.
         -5    1    4    4    0  503 -0.32411866293E+02 -0.31425231136E+02 -0.44676683382E+00  0.45391230751E+02  0.47000000000E+01 0.  1.
<mgrwt>
<rscale>  0 0.12900636E+03</rscale>
<asrwt>0</asrwt>
<pdfrwt beam="1">  1        3 0.21104118E-01 0.13706101E+03</pdfrwt>
<pdfrwt beam="2">  1       -3 0.17555104E-01 0.13706101E+03</pdfrwt>
<totfact> 0.13270330E+03</totfact>
</mgrwt>
</event>
<event>
 8    1  0.3217375E-004  0.1745325E+03  0.7546771E-02  0.1179076E+00
         -2   -1    0    0    0  501 -0.00000000000E+00  0.00000000000E+00  0.19327843938E+03  0.19327843938E+03  0.00000000000E+00 0.  1.
          2   -1    0    0  501    0  0.00000000000E+00 -0.00000000000E+00 -0.26880373420E+03  0.26880373420E+03  0.00000000000E+00 0. -1.
         25    2    1    2    0    0  0.10197489949E+03  0.66584504485E+02 -0.19967183496E+03  0.26519883251E+03  0.12501680977E+03 0.  0.
         23    2    1    2    0    0 -0.10197489949E+03 -0.66584504485E+02  0.12414654014E+03  0.19688334107E+03  0.92294692153E+02 0.  0.
          5    1    4    4  502    0 -0.97488352199E+01 -0.34042400136E+02 -0.36312320251E+01  0.35905440273E+02  0.47000000000E+01 0. -1.
         -5    1    4    4    0  502 -0.92226064272E+02 -0.32542104349E+02  0.12777777217E+03  0.16097790080E+03  0.47000000000E+01 0.  1.
          5    1    3    3  503    0  0.10586115596E+02 -0.25488849262E+02 -0.93176569799E+02  0.97291882701E+02  0.47000000000E+01 0. -1.
         -5    1    3    3    0  503  0.91388783895E+02  0.92073353747E+02 -0.10649526516E+03  0.16790694981E+03  0.47000000000E+01 0. -1.
<mgrwt>
<rscale>  0 0.16882805E+03</rscale>
<asrwt>0</asrwt>
<pdfrwt beam="1">  1        2 0.41354420E-01 0.17453246E+03</pdfrwt>
<pdfrwt beam="2">  1       -2 0.29735145E-01 0.17453246E+03</pdfrwt>
<totfact> 0.12692314E+03</totfact>
</mgrwt>
</event>
<event>
 8    1  0.3217375E-004  0.1476352E+03  0.7546771E-02  0.1212481E+00
         -1   -1    0    0    0  501 -0.00000000000E+00  0.00000000000E+00  0.92671877495E+02  0.92671877495E+02  0.00000000000E+00 0.  1.
          1   -1    0    0  501    0  0.00000000000E+00 -0.00000000000E+00 -0.19706876639E+03  0.19706876639E+03  0.00000000000E+00 0. -1.
         25    2    1    2    0    0 -0.26079575701E+02  0.74100918720E+02 -0.70157818912E+02  0.16345722610E+03  0.12500021914E+03 0.  0.
         23    2    1    2    0    0  0.26079575701E+02 -0.74100918720E+02 -0.34239069984E+02  0.12628341778E+03  0.92758273325E+02 0.  0.
          5    1    4    4  502    0 -0.54894325140E+01 -0.34190656005E+02 -0.59709901843E+02  0.69184515648E+02  0.47000000000E+01 0. -1.
         -5    1    3    3    0  503 -0.43631351005E+02 -0.80533961722E+01  0.11640015013E+02  0.46109998155E+02  0.47000000000E+01 0.  1.
          5    1    3    3  503    0  0.17551775304E+02  0.82154314892E+02 -0.81797833924E+02  0.11734722794E+03  0.47000000000E+01 0.  1.
         -5    1    4    4    0  502  0.31569008215E+02 -0.39910262714E+02  0.25470831859E+02  0.57098902137E+02  0.47000000000E+01 0.  1.
<mgrwt>
<rscale>  0 0.14063195E+03</rscale>
<asrwt>0</asrwt>
<pdfrwt beam="1">  1        1 0.30318272E-01 0.14763518E+03</pdfrwt>
<pdfrwt beam="2">  1       -1 0.14257212E-01 0.14763518E+03</pdfrwt>
<totfact> 0.50072993E+03</totfact>
</mgrwt>
</event>
<event>
 8    1  0.3217375E-004  0.1425308E+03  0.7546771E-02  0.1218424E+00
         -1   -1    0    0    0  501 -0.00000000000E+00  0.00000000000E+00  0.12608281926E+03  0.12608281926E+03  0.00000000000E+00 0.  1.
          1   -1    0    0  501    0  0.00000000000E+00 -0.00000000000E+00 -0.13606940948E+03  0.13606940948E+03  0.00000000000E+00 0. -1.
         25    2    1    2    0    0 -0.68464121270E+02 -0.21965315643E+01  0.86422265550E+00  0.14253346624E+03  0.12499152557E+03 0.  0.
         23    2    1    2    0    0  0.68464121270E+02  0.21965315643E+01 -0.10850812881E+02  0.11961876250E+03  0.97461518307E+02 0.  0.
          5    1    3    3  502    0  0.26344272044E+02  0.16661114365E+02  0.27848281693E+02  0.42062218138E+02  0.47000000000E+01 0.  1.
         -5    1    3    3    0  502 -0.94808393314E+02 -0.18857645929E+02 -0.26984059037E+02  0.10047124810E+03  0.47000000000E+01 0.  1.
          5    1    4    4  503    0  0.46280290756E+02  0.37163120270E+02 -0.37299439121E+02  0.70258814247E+02  0.47000000000E+01 0. -1.
         -5    1    4    4    0  503  0.22183830514E+02 -0.34966588706E+02  0.26448626240E+02  0.49359948257E+02  0.47000000000E+01 0.  1.
<mgrwt>
<rscale>  0 0.13628025E+03</rscale>
<asrwt>0</asrwt>
<pdfrwt beam="1">  1        1 0.20933755E-01 0.14253085E+03</pdfrwt>
<pdfrwt beam="2">  1       -1 0.19397357E-01 0.14253085E+03</pdfrwt>
<totfact> 0.48898982E+03</totfact>
</mgrwt>
</event>
<event>
 8    1  0.3217375E-004  0.1296392E+03  0.7546771E-02  0.1241552E+00
          2   -1    0    0  501    0  0.00000000000E+00  0.00000000000E+00  0.54326749268E+03  0.54326749268E+03  0.00000000000E+00 0. -1.
         -2   -1    0    0    0  501 -0.00000000000E+00 -0.00000000000E+00 -0.24436024856E+02  0.24436024856E+02  0.00000000000E+00 0.  1.
         25    2    1    2    0    0  0.18776926965E+02  0.28838594586E+02  0.25228055973E+03  0.28364028206E+03  0.12498836452E+03 0.  0.
         23    2    1    2    0    0 -0.18776926965E+02 -0.28838594586E+02  0.26655090810E+03  0.28406323548E+03  0.91969003584E+02 0.  0.
          5    1    3    3  502    0  0.13609343488E+02 -0.19845987422E+02  0.22703716918E+03  0.22835727191E+03  0.47000000000E+01 0.  1.
         -5    1    3    3    0  502  0.51675834773E+01  0.48684582008E+02  0.25243390552E+02  0.55283010146E+02  0.47000000000E+01 0.  1.
          5    1    4    4  503    0 -0.27502231195E+02  0.27517392313E+02  0.13576757754E+03  0.14130995971E+03  0.47000000000E+01 0. -1.
         -5    1    4    4    0  503  0.87253042294E+01 -0.56355986899E+02  0.13078333055E+03  0.14275327577E+03  0.47000000000E+01 0.  1.
<mgrwt>
<rscale>  0 0.12094174E+03</rscale>
<asrwt>0</asrwt>
<pdfrwt beam="1">  1        2 0.83579605E-01 0.12963923E+03</pdfrwt>
<pdfrwt beam="2">  1       -2 0.37593889E-02 0.12963923E+03</pdfrwt>
<totfact> 0.16101345E+04</totfact>
</mgrwt>
</event>
<event>
 8    1  0.3217375E-004  0.1426449E+03  0.7546771E-02  0.1220862E+00
          1   -1    0    0  501    0  0.00000000000E+00  0.00000000000E+00  0.16412929691E+03  0.16412929691E+03  0.00000000000E+00 0. -1.
         -1   -1    0    0    0  501 -0.00000000000E+00 -0.00000000000E+00 -0.15017579418E+03  0.15017579418E+03  0.00000000000E+00 0.  1.
         25    2    1    2    0    0 -0.66884908743E+02 -0.15860884073E+02  0.98418510030E+02  0.17330255951E+03  0.12498966099E+03 0.  0.
         23    2    1    2    0    0  0.66884908743E+02  0.15860884073E+02 -0.84465007299E+02  0.14100253159E+03  0.89566834237E+02 0.  0.
          5    1    4    4  502    0  0.63298751361E+02 -0.16848629679E+02 -0.20296703746E+02  0.68736121718E+02  0.47000000000E+01 0. -1.
         -5    1    3    3    0  503  0.16617017213E+02  0.22418479947E+02  0.72371654919E+02  0.77707528206E+02  0.47000000000E+01 0. -1.
          5    1    3    3  503    0 -0.83501925956E+02 -0.38279364020E+02  0.26046855111E+02  0.95595031301E+02  0.47000000000E+01 0. -1.
         -5    1    4    4    0  502  0.35861573821E+01  0.32709513753E+02 -0.64168303553E+02  0.72266409871E+02  0.47000000000E+01 0.  1.
<mgrwt>
<rscale>  0 0.13454571E+03</rscale>
<asrwt>0</asrwt>
<pdfrwt beam="1">  1        1 0.25250661E-01 0.14264492E+03</pdfrwt>
<pdfrwt beam="2">  1       -1 0.23103968E-01 0.14264492E+03</pdfrwt>
<totfact> 0.29089365E+03</totfact>
</mgrwt>
</event>
<event>
 8    1  0.3217375E-004  0.1301965E+03  0.7546771E-02  0.1241758E+00
          1   -1    0    0  501    0  0.00000000000E+00  0.00000000000E+00  0.98284096965E+02  0.98284096965E+02  0.00000000000E+00 0. -1.
         -1   -1    0    0    0  501 -0.00000000000E+00 -0.00000000000E+00 -0.13146578818E+03  0.13146578818E+03  0.00000000000E+00 0.  1.
         25    2    1    2    0    0 -0.36205182355E+02 -0.37732526900E+01 -0.10735650102E+02  0.13063833880E+03  0.12500427480E+03 0.  0.
         23    2    1    2    0    0  0.36205182355E+02  0.37732526900E+01 -0.22446041109E+02  0.99111546336E+02  0.89410408737E+02 0.  0.
          5    1    4    4  502    0 -0.18678918827E+02 -0.22066868527E+02  0.89722826286E+01  0.30633977063E+02  0.47000000000E+01 0. -1.
         -5    1    4    4    0  502  0.54884101182E+02  0.25840121217E+02 -0.31418323737E+02  0.68477569273E+02  0.47000000000E+01 0.  1.
          5    1    3    3  503    0 -0.57916205821E+02  0.23663615986E+02 -0.48233221582E+02  0.79137774055E+02  0.47000000000E+01 0. -1.
         -5    1    3    3    0  503  0.21711023466E+02 -0.27436868676E+02  0.37497571480E+02  0.51500564750E+02  0.47000000000E+01 0. -1.
<mgrwt>
<rscale>  0 0.12081537E+03</rscale>
<asrwt>0</asrwt>
<pdfrwt beam="1">  1        1 0.15120630E-01 0.13019647E+03</pdfrwt>
<pdfrwt beam="2">  1       -1 0.20225506E-01 0.13019647E+03</pdfrwt>
<totfact> 0.68944928E+03</totfact>
</mgrwt>
</event>
<event>
 8    1  0.3217375E-004  0.1739358E+03  0.7546771E-02  0.1180409E+00
         -2   -1    0    0    0  501 -0.00000000000E+00  0.00000000000E+00  0.29237108607E+02  0.29237108607E+02  0.00000000000E+00 0.  1.
          2   -1    0    0  501    0  0.00000000000E+00 -0.00000000000E+00 -0.89646565794E+03  0.89646565794E+03  0.00000000000E+00 0. -1.
         25    2    1    2    0    0  0.35968471380E+02  0.11548943580E+03 -0.47214081587E+03  0.50316063480E+03  0.12498853420E+03 0.  0.
         23    2    1    2    0    0 -0.35968471380E+02 -0.11548943580E+03 -0.39508773346E+03  0.42254213175E+03  0.88408117613E+02 0.  0.
          5    1    3    3  502    0  0.26649307963E+02  0.24263846729E+02 -0.19393361835E+02  0.41196023550E+02  0.47000000000E+01 0. -1.
         -5    1    3    3    0  502  0.93191634171E+01  0.91225589066E+02 -0.45274745404E+03  0.46196461125E+03  0.47000000000E+01 0. -1.
          5    1    4    4  503    0 -0.62859094642E+02 -0.75578048528E+02 -0.30221897271E+03  0.31783911758E+03  0.47000000000E+01 0. -1.
         -5    1    4    4    0  503  0.26890623261E+02 -0.39911387268E+02 -0.92868760748E+02  0.10470301417E+03  0.47000000000E+01 0.  1.
<mgrwt>
<rscale>  0 0.16756676E+03</rscale>
<asrwt>0</asrwt>
<pdfrwt beam="1">  1        2 0.13791779E+00 0.17393583E+03</pdfrwt>
<pdfrwt beam="2">  1       -2 0.44980169E-02 0.17393583E+03</pdfrwt>
<totfact> 0.68836219E+03</totfact>
</mgrwt>
</event>
<event>
 8    1  0.3217375E-004  0.3578493E+03  0.7546771E-02  0.1060474E+00
         -2   -1    0    0    0  501 -0.00000000000E+00  0.00000000000E+00  0.32328526698E+03  0.32328526698E+03  0.00000000000E+00 0.  1.
          2   -1    0    0  501    0  0.00000000000E+00 -0.00000000000E+00 -0.39110144958E+03  0.39110144958E+03  0.00000000000E+00 0. -1.
         25    2    1    2    0    0 -0.22409651492E+03 -0.24940982398E+03  0.10648865979E+02  0.35800773514E+03  0.12502652430E+03 0.  0.
         23    2    1    2    0    0  0.22409651492E+03  0.24940982398E+03 -0.78465048583E+02  0.35637898142E+03  0.91786198591E+02 0.  0.
          5    1    3    3  502    0 -0.57455797022E+02 -0.11487222131E+03  0.54056503956E+02  0.13943095589E+03  0.47000000000E+01 0. -1.
         -5    1    4    4    0  503  0.89869532736E+02  0.14976152026E+03 -0.80050495190E+01  0.17490344960E+03  0.47000000000E+01 0.  1.
          5    1    4    4  503    0  0.13422698218E+03  0.99648303719E+02 -0.70459999064E+02  0.18147553182E+03  0.47000000000E+01 0. -1.
         -5    1    3    3    0  502 -0.16664071790E+03 -0.13453760267E+03 -0.43407637977E+02  0.21857677925E+03  0.47000000000E+01 0. -1.
<mgrwt>
<rscale>  0 0.35526762E+03</rscale>
<asrwt>0</asrwt>
<pdfrwt beam="1">  1        2 0.60169454E-01 0.35784933E+03</pdfrwt>
<pdfrwt beam="2">  1       -2 0.49736195E-01 0.35784933E+03</pdfrwt>
<totfact> 0.31859580E+02</totfact>
</mgrwt>
</event>
<event>
 8    1  0.3217375E-004  0.1368866E+03  0.7546771E-02  0.1233373E+00
         -1   -1    0    0    0  501 -0.00000000000E+00  0.00000000000E+00  0.56434207781E+02  0.56434207781E+02  0.00000000000E+00 0.  1.
          1   -1    0    0  501    0  0.00000000000E+00 -0.00000000000E+00 -0.34749875584E+03  0.34749875584E+03  0.00000000000E+00 0. -1.
         25    2    1    2    0    0  0.32418651588E+02 -0.45381321543E+02 -0.53915489573E+02  0.14712175291E+03  0.12500998699E+03 0.  0.
         23    2    1    2    0    0 -0.32418651588E+02  0.45381321543E+02 -0.23714905849E+03  0.25681121072E+03  0.81252007311E+02 0.  0.
          5    1    3    3  502    0 -0.36114982223E+02 -0.20008171779E+02  0.17264652278E+02  0.44997523234E+02  0.47000000000E+01 0.  1.
         -5    1    3    3    0  502  0.68533633811E+02 -0.25373149764E+02 -0.71180141851E+02  0.10212422967E+03  0.47000000000E+01 0.  1.
          5    1    4    4  503    0 -0.43909040552E+02 -0.68737192126E+01 -0.10068874533E+03  0.11016154181E+03  0.47000000000E+01 0. -1.
         -5    1    4    4    0  503  0.11490388964E+02  0.52255040755E+02 -0.13646031316E+03  0.14664966891E+03  0.47000000000E+01 0.  1.
<mgrwt>
<rscale>  0 0.12609155E+03</rscale>
<asrwt>0</asrwt>
<pdfrwt beam="1">  1        1 0.53461347E-01 0.13688656E+03</pdfrwt>
<pdfrwt beam="2">  1       -1 0.86821858E-02 0.13688656E+03</pdfrwt>
<totfact> 0.52897279E+03</totfact>
</mgrwt>
</event>
<event>
 8    1  0.3217375E-004  0.1326145E+03  0.7546771E-02  0.1239816E+00
         -1   -1    0    0    0  501 -0.00000000000E+00  0.00000000000E+00  0.18900203807E+02  0.18900203807E+02  0.00000000000E+00 0.  1.
          1   -1    0    0  501    0  0.00000000000E+00 -0.00000000000E+00 -0.71707089422E+03  0.71707089422E+03  0.00000000000E+00 0. -1.
         25    2    1    2    0    0 -0.40579130252E+02  0.17755778825E+02 -0.48049299579E+03  0.49845774265E+03  0.12499867483E+03 0.  0.
         23    2    1    2    0    0  0.40579130252E+02 -0.17755778825E+02 -0.21767769462E+03  0.23751335538E+03  0.84065936936E+02 0.  0.
          5    1    4    4  502    0  0.19617268907E+02  0.29963141444E+02 -0.13430615817E+03  0.13907861520E+03  0.47000000000E+01 0. -1.
         -5    1    4    4    0  502  0.20961861346E+02 -0.47718920269E+02 -0.83371536451E+02  0.98434740173E+02  0.47000000000E+01 0.  1.
          5    1    3    3  503    0 -0.44788130948E+02 -0.46154268637E+02 -0.30077649218E+03  0.30761141305E+03  0.47000000000E+01 0. -1.
         -5    1    3    3    0  503  0.42090006959E+01  0.63910047463E+02 -0.17971650361E+03  0.19084632960E+03  0.47000000000E+01 0. -1.
<mgrwt>
<rscale>  0 0.12201080E+03</rscale>
<asrwt>0</asrwt>
<pdfrwt beam="1">  1        1 0.11031860E+00 0.13261449E+03</pdfrwt>
<pdfrwt beam="2">  1       -1 0.29077235E-02 0.13261449E+03</pdfrwt>
<totfact> 0.10279385E+04</totfact>
</mgrwt>
</event>
<event>
 8    1  0.3217375E-004  0.1363753E+03  0.7546771E-02  0.1229962E+00
         -1   -1    0    0    0  501 -0.00000000000E+00  0.00000000000E+00  0.36697849738E+03  0.36697849738E+03  0.00000000000E+00 0.  1.
          1   -1    0    0  501    0  0.00000000000E+00 -0.00000000000E+00 -0.41199396260E+02  0.41199396260E+02  0.00000000000E+00 0. -1.
         25    2    1    2    0    0 -0.54358872871E+02 -0.42514117777E+01  0.21175022674E+03  0.25186578917E+03  0.12500102266E+03 0.  0.
         23    2    1    2    0    0  0.54358872871E+02  0.42514117777E+01  0.11402887437E+03  0.15631210447E+03  0.91966995440E+02 0.  0.
          5    1    4    4  502    0 -0.14332822579E+02  0.24163405810E+02  0.10425583061E+02  0.30332866096E+02  0.47000000000E+01 0. -1.
         -5    1    3    3    0  503 -0.30264364954E+02  0.59804334488E+01  0.22138897538E+03  0.22357742683E+03  0.47000000000E+01 0.  1.
          5    1    3    3  503    0 -0.24094507917E+02 -0.10231845227E+02 -0.96387486334E+01  0.28288362337E+02  0.47000000000E+01 0.  1.
         -5    1    4    4    0  502  0.68691695450E+02 -0.19911994032E+02  0.10360329131E+03  0.12597923837E+03  0.47000000000E+01 0.  1.
<mgrwt>
<rscale>  0 0.12832514E+03</rscale>
<asrwt>0</asrwt>
<pdfrwt beam="1">  1        1 0.63383689E-02 0.13637528E+03</pdfrwt>
<pdfrwt beam="2">  1       -1 0.56458228E-01 0.13637528E+03</pdfrwt>
<totfact> 0.37562684E+03</totfact>
</mgrwt>
</event>
<event>
 8    1  0.3217375E-004  0.2741249E+03  0.7546771E-02  0.1100952E+00
         -1   -1    0    0    0  501 -0.00000000000E+00  0.00000000000E+00  0.14770191018E+03  0.14770191018E+03  0.00000000000E+00 0.  1.
          1   -1    0    0  501    0  0.00000000000E+00 -0.00000000000E+00 -0.51008544090E+03  0.51008544090E+03  0.00000000000E+00 0. -1.
         25    2    1    2    0    0 -0.90224521443E+02  0.22666961127E+03 -0.26110782343E+03  0.37857858030E+03  0.12499947624E+03 0.  0.
         23    2    1    2    0    0  0.90224521443E+02 -0.22666961127E+03 -0.10127570729E+03  0.27920877077E+03  0.90449941104E+02 0.  0.
          5    1    3    3  502    0  0.17844241512E+02  0.68509535750E+02 -0.12435022507E+03  0.14316788019E+03  0.47000000000E+01 0.  1.
         -5    1    3    3    0  502 -0.10806876295E+03  0.15816007552E+03 -0.13675759836E+03  0.23541070011E+03  0.47000000000E+01 0.  1.
          5    1    4    4  503    0  0.22211325998E+02 -0.33261783414E+02 -0.56370759865E+02  0.69278003769E+02  0.47000000000E+01 0. -1.
         -5    1    4    4    0  503  0.68013195445E+02 -0.19340782786E+03 -0.44904947421E+02  0.20993076700E+03  0.47000000000E+01 0.  1.
<mgrwt>
<rscale>  0 0.27057367E+03</rscale>
<asrwt>0</asrwt>
<pdfrwt beam="1">  1        1 0.78474682E-01 0.27412487E+03</pdfrwt>
<pdfrwt beam="2">  1       -1 0.22723371E-01 0.27412487E+03</pdfrwt>
<totfact> 0.72040325E+02</totfact>
</mgrwt>
</event>
<event>
 8    1  0.3217375E-004  0.1257574E+03  0.7546771E-02  0.1251474E+00
         -1   -1    0    0    0  501 -0.00000000000E+00  0.00000000000E+00  0.15056564815E+03  0.15056564815E+03  0.00000000000E+00 0.  1.
          1   -1    0    0  501    0  0.00000000000E+00 -0.00000000000E+00 -0.82970420211E+02  0.82970420211E+02  0.00000000000E+00 0. -1.
         25    2    1    2    0    0  0.35088811954E+00 -0.13736030942E+02  0.57812523661E+01  0.12589026070E+03  0.12500453269E+03 0.  0.
         23    2    1    2    0    0 -0.35088811954E+00  0.13736030942E+02  0.61813975570E+02  0.10764580766E+03  0.87050851010E+02 0.  0.
          5    1    3    3  502    0  0.38599916188E+02 -0.50442978021E+02 -0.19994890518E+02  0.66755772846E+02  0.47000000000E+01 0. -1.
         -5    1    4    4    0  503 -0.39570371099E+02 -0.51359001420E+01  0.46058459216E+02  0.61120073663E+02  0.47000000000E+01 0.  1.
          5    1    4    4  503    0  0.39219482979E+02  0.18871931084E+02  0.15755516353E+02  0.46525733993E+02  0.47000000000E+01 0. -1.
         -5    1    3    3    0  502 -0.38249028069E+02  0.36706947079E+02  0.25776142884E+02  0.59134487857E+02  0.47000000000E+01 0. -1.
<mgrwt>
<rscale>  0 0.11506136E+03</rscale>
<asrwt>0</asrwt>
<pdfrwt beam="1">  1        1 0.12764680E-01 0.12575744E+03</pdfrwt>
<pdfrwt beam="2">  1       -1 0.23163946E-01 0.12575744E+03</pdfrwt>
<totfact> 0.68815372E+03</totfact>
</mgrwt>
</event>
<event>
 8    1  0.3217375E-004  0.2348196E+03  0.7546771E-02  0.1126235E+00
         -2   -1    0    0    0  501 -0.00000000000E+00  0.00000000000E+00  0.75221773115E+02  0.75221773115E+02  0.00000000000E+00 0.  1.
          2   -1    0    0  501    0  0.00000000000E+00 -0.00000000000E+00 -0.69032593338E+03  0.69032593338E+03  0.00000000000E+00 0. -1.
         25    2    1    2    0    0 -0.18384861305E+03  0.75601311383E+02 -0.27756472345E+03  0.36356900280E+03  0.12499749313E+03 0.  0.
         23    2    1    2    0    0  0.18384861305E+03 -0.75601311383E+02 -0.33753943681E+03  0.40197870369E+03  0.90211617969E+02 0.  0.
          5    1    3    3  502    0 -0.63404557793E+02 -0.28307735958E+02 -0.49229100801E+02  0.85247054082E+02  0.47000000000E+01 0.  1.
         -5    1    4    4    0  503  0.14724363447E+03 -0.69146769028E+02 -0.19198101411E+03  0.25167590933E+03  0.47000000000E+01 0.  1.
          5    1    4    4  503    0  0.36604978585E+02 -0.64545423557E+01 -0.14555842271E+03  0.15030279437E+03  0.47000000000E+01 0. -1.
         -5    1    3    3    0  502 -0.12044405526E+03  0.10390904734E+03 -0.22833562265E+03  0.27832194872E+03  0.47000000000E+01 0.  1.
<mgrwt>
<rscale>  0 0.23057551E+03</rscale>
<asrwt>0</asrwt>
<pdfrwt beam="1">  1        2 0.10620399E+00 0.23481960E+03</pdfrwt>
<pdfrwt beam="2">  1       -2 0.11572580E-01 0.23481960E+03</pdfrwt>
<totfact> 0.22281935E+03</totfact>
</mgrwt>
</event>
<event>
 8    1  0.3217375E-004  0.4288577E+03  0.7546771E-02  0.1034861E+00
          1   -1    0    0  501    0  0.00000000000E+00  0.00000000000E+00  0.38174443649E+03  0.38174443649E+03  0.00000000000E+00 0. -1.
         -1   -1    0    0    0  501 -0.00000000000E+00 -0.00000000000E+00 -0.85064585924E+03  0.85064585924E+03  0.00000000000E+00 0.  1.
         25    2    1    2    0    0  0.38791741566E+03  0.13346875616E+03  0.17496631367E+03  0.46317609731E+03  0.12500022382E+03 0.  0.
         23    2    1    2    0    0 -0.38791741566E+03 -0.13346875616E+03 -0.64386773643E+03  0.76921419842E+03  0.93973351538E+02 0.  0.
          5    1    4    4  502    0 -0.30704586083E+03 -0.98634876769E+02 -0.56660858564E+03  0.65197651713E+03  0.47000000000E+01 0. -1.
         -5    1    4    4    0  502 -0.80871554835E+02 -0.34833879388E+02 -0.77259150782E+02  0.11723768129E+03  0.47000000000E+01 0.  1.
          5    1    3    3  503    0  0.31926492880E+03  0.69663895521E+02  0.96245409640E+02  0.34068815944E+03  0.47000000000E+01 0. -1.
         -5    1    3    3    0  503  0.68652486860E+02  0.63804860636E+02  0.78720904034E+02  0.12248793787E+03  0.47000000000E+01 0. -1.
<mgrwt>
<rscale>  0 0.42684461E+03</rscale>
<asrwt>0</asrwt>
<pdfrwt beam="1">  1        1 0.58729913E-01 0.42885765E+03</pdfrwt>
<pdfrwt beam="2">  1       -1 0.13086859E+00 0.42885765E+03</pdfrwt>
<totfact> 0.33838078E+01</totfact>
</mgrwt>
</event>
<event>
 8    1  0.3217375E-004  0.1402520E+03  0.7546771E-02  0.1222939E+00
         -1   -1    0    0    0  501 -0.00000000000E+00  0.00000000000E+00  0.28621273399E+02  0.28621273399E+02  0.00000000000E+00 0.  1.
          1   -1    0    0  501    0  0.00000000000E+00 -0.00000000000E+00 -0.67044924954E+03  0.67044924954E+03  0.00000000000E+00 0. -1.
         25    2    1    2    0    0  0.43724136089E+02 -0.46163774115E+02 -0.48807055686E+03  0.50782230303E+03  0.12501091498E+03 0.  0.
         23    2    1    2    0    0 -0.43724136089E+02  0.46163774115E+02 -0.15375741928E+03  0.19124821991E+03  0.94295511647E+02 0.  0.
          5    1    3    3  502    0  0.28926651152E+02  0.40753975269E+02 -0.21718871882E+03  0.22291403551E+03  0.47000000000E+01 0. -1.
         -5    1    4    4    0  503 -0.72285351780E+02  0.43885649834E+02 -0.11473351585E+03  0.14260782588E+03  0.47000000000E+01 0.  1.
          5    1    4    4  503    0  0.28561215692E+02  0.22781242811E+01 -0.39023903427E+02  0.48640394023E+02  0.47000000000E+01 0. -1.
         -5    1    3    3    0  502  0.14797484936E+02 -0.86917749384E+02 -0.27088183805E+03  0.28490826752E+03  0.47000000000E+01 0. -1.
<mgrwt>
<rscale>  0 0.13309160E+03</rscale>
<asrwt>0</asrwt>
<pdfrwt beam="1">  1        1 0.10314602E+00 0.14025200E+03</pdfrwt>
<pdfrwt beam="2">  1       -1 0.44032736E-02 0.14025200E+03</pdfrwt>
<totfact> 0.61829928E+03</totfact>
</mgrwt>
</event>
<event>
 8    1  0.3217375E-004  0.2458119E+03  0.7546771E-02  0.1118586E+00
         -2   -1    0    0    0  501 -0.00000000000E+00  0.00000000000E+00  0.35234762980E+03  0.35234762980E+03  0.00000000000E+00 0.  1.
          2   -1    0    0  501    0  0.00000000000E+00 -0.00000000000E+00 -0.16354505476E+03  0.16354505476E+03  0.00000000000E+00 0. -1.
         25    2    1    2    0    0  0.12462656876E+03 -0.17106867307E+03  0.13088841363E+03  0.27848742237E+03  0.12500877989E+03 0.  0.
         23    2    1    2    0    0 -0.12462656876E+03  0.17106867307E+03  0.57914161414E+02  0.23740526220E+03  0.90614214564E+02 0.  0.
          5    1    4    4  502    0 -0.67251746404E+02  0.59271527401E+02  0.65968636249E+02  0.11139956159E+03  0.47000000000E+01 0. -1.
         -5    1    3    3    0  503  0.14970172985E+03 -0.14302918539E+03  0.11850516405E+03  0.23860745944E+03  0.47000000000E+01 0.  1.
          5    1    3    3  503    0 -0.25075161091E+02 -0.28039487682E+02  0.12383249576E+02  0.39879962930E+02  0.47000000000E+01 0.  1.
         -5    1    4    4    0  502 -0.57374822353E+02  0.11179714567E+03 -0.80544748353E+01  0.12600570060E+03  0.47000000000E+01 0.  1.
<mgrwt>
<rscale>  0 0.24182098E+03</rscale>
<asrwt>0</asrwt>
<pdfrwt beam="1">  1        2 0.25160778E-01 0.24581185E+03</pdfrwt>
<pdfrwt beam="2">  1       -2 0.54207327E-01 0.24581185E+03</pdfrwt>
<totfact> 0.69685639E+02</totfact>
</mgrwt>
</event>
<event>
 8    1  0.3217375E-004  0.1378368E+03  0.7546771E-02  0.1228325E+00
         -1   -1    0    0    0  501 -0.00000000000E+00  0.00000000000E+00  0.54439005613E+02  0.54439005613E+02  0.00000000000E+00 0.  1.
          1   -1    0    0  501    0  0.00000000000E+00 -0.00000000000E+00 -0.29153929554E+03  0.29153929554E+03  0.00000000000E+00 0. -1.
         25    2    1    2    0    0  0.43598950031E+02 -0.38377044320E+02 -0.92390413714E+02  0.16593662939E+03  0.12500124181E+03 0.  0.
         23    2    1    2    0    0 -0.43598950031E+02  0.38377044320E+02 -0.14470987621E+03  0.18004167176E+03  0.90002162873E+02 0.  0.
          5    1    3    3  502    0  0.77825987957E+02 -0.59353898633E+01 -0.22270423140E+02  0.81302982733E+02  0.47000000000E+01 0.  1.
         -5    1    3    3    0  502 -0.34227037926E+02 -0.32441654457E+02 -0.70119990574E+02  0.84633646661E+02  0.47000000000E+01 0.  1.
          5    1    4    4  503    0 -0.22305970779E+02  0.20547572349E+02 -0.14848464661E+03  0.15162301719E+03  0.47000000000E+01 0. -1.
         -5    1    4    4    0  503 -0.21292979253E+02  0.17829471972E+02  0.37747703965E+01  0.28418654574E+02  0.47000000000E+01 0.  1.
<mgrwt>
<rscale>  0 0.12941614E+03</rscale>
<asrwt>0</asrwt>
<pdfrwt beam="1">  1        1 0.44852199E-01 0.13783677E+03</pdfrwt>
<pdfrwt beam="2">  1       -1 0.83752318E-02 0.13783677E+03</pdfrwt>
<totfact> 0.69494407E+03</totfact>
</mgrwt>
</event>
<event>
 8    1  0.3217375E-004  0.1559213E+03  0.7546771E-02  0.1203531E+00
         -1   -1    0    0    0  501 -0.00000000000E+00  0.00000000000E+00  0.17708414835E+03  0.17708414835E+03  0.00000000000E+00 0.  1.
          1   -1    0    0  501    0  0.00000000000E+00 -0.00000000000E+00 -0.16264431978E+03  0.16264431978E+03  0.00000000000E+00 0. -1.
         25    2    1    2    0    0 -0.59859791200E+02 -0.71406590119E+02  0.10270500129E+03  0.18670770390E+03  0.12501741356E+03 0.  0.
         23    2    1    2    0    0  0.59859791200E+02  0.71406590119E+02 -0.88265172720E+02  0.15302076422E+03  0.83321772980E+02 0.  0.
          5    1    4    4  502    0  0.19391520902E+02  0.28675648975E+02 -0.87237122808E+02  0.93971961366E+02  0.47000000000E+01 0. -1.
         -5    1    3    3    0  503 -0.21613335746E+02 -0.10235587934E+03  0.82502882092E+02  0.13331420731E+03  0.47000000000E+01 0. -1.
          5    1    3    3  503    0 -0.38246455455E+02  0.30949289222E+02  0.20202119195E+02  0.53393496591E+02  0.47000000000E+01 0. -1.
         -5    1    4    4    0  502  0.40468270299E+02  0.42730941144E+02 -0.10280499116E+01  0.59048802855E+02  0.47000000000E+01 0.  1.
<mgrwt>
<rscale>  0 0.14753845E+03</rscale>
<asrwt>0</asrwt>
<pdfrwt beam="1">  1        1 0.25022203E-01 0.15592129E+03</pdfrwt>
<pdfrwt beam="2">  1       -1 0.27243715E-01 0.15592129E+03</pdfrwt>
<totfact> 0.22512949E+03</totfact>
</mgrwt>
</event>
<event>
 8    1  0.3217375E-004  0.1406009E+03  0.7546771E-02  0.1223666E+00
          2   -1    0    0  501    0  0.00000000000E+00  0.00000000000E+00  0.23555059634E+03  0.23555059634E+03  0.00000000000E+00 0. -1.
         -2   -1    0    0    0  501 -0.00000000000E+00 -0.00000000000E+00 -0.10009014441E+03  0.10009014441E+03  0.00000000000E+00 0.  1.
         25    2    1    2    0    0 -0.60855717465E+02 -0.21004945489E+02 -0.22585718140E+02  0.14240341988E+03  0.12499597293E+03 0.  0.
         23    2    1    2    0    0  0.60855717465E+02  0.21004945489E+02  0.15804617007E+03  0.19323732087E+03  0.90650119810E+02 0.  0.
          5    1    3    3  502    0 -0.98442169570E+02 -0.93543261136E+01 -0.52186874912E+01  0.99134700614E+02  0.47000000000E+01 0.  1.
         -5    1    3    3    0  502  0.37586452105E+02 -0.11650619376E+02 -0.17367030649E+02  0.43268719270E+02  0.47000000000E+01 0.  1.
          5    1    4    4  503    0  0.10856331593E+02  0.24133374445E+02  0.13542991675E+03  0.13807111229E+03  0.47000000000E+01 0. -1.
         -5    1    4    4    0  503  0.49999385872E+02 -0.31284289559E+01  0.22616253317E+02  0.55166208583E+02  0.47000000000E+01 0.  1.
<mgrwt>
<rscale>  0 0.13258748E+03</rscale>
<asrwt>0</asrwt>
<pdfrwt beam="1">  1        2 0.36238553E-01 0.14060092E+03</pdfrwt>
<pdfrwt beam="2">  1       -2 0.15398484E-01 0.14060092E+03</pdfrwt>
<totfact> 0.44836793E+03</totfact>
</mgrwt>
</event>
<event>
 8    1  0.3217375E-004  0.1471940E+03  0.7546771E-02  0.1213012E+00
          3   -1    0    0  501    0  0.00000000000E+00  0.00000000000E+00  0.58995616473E+02  0.58995616473E+02  0.00000000000E+00 0. -1.
         -3   -1    0    0    0  501 -0.00000000000E+00 -0.00000000000E+00 -0.31747624007E+03  0.31747624007E+03  0.00000000000E+00 0.  1.
         25    2    1    2    0    0  0.58441136106E+02 -0.51226956131E+02 -0.17775539309E+03  0.23078788688E+03  0.12500600599E+03 0.  0.
         23    2    1    2    0    0 -0.58441136106E+02  0.51226956131E+02 -0.80725230503E+02  0.14568396966E+03  0.93100422948E+02 0.  0.
          5    1    4    4  502    0 -0.80776134190E+02  0.23072695404E+02 -0.64286001437E+02  0.10588632163E+03  0.47000000000E+01 0.  1.
         -5    1    3    3    0  503  0.86053555424E+02 -0.53944219238E+02 -0.80911700223E+02  0.12993839472E+03  0.47000000000E+01 0. -1.
          5    1    3    3  503    0 -0.27612419319E+02  0.27172631063E+01 -0.96843692868E+02  0.10084949215E+03  0.47000000000E+01 0. -1.
         -5    1    4    4    0  502  0.22334998084E+02  0.28154260728E+02 -0.16439229066E+02  0.39797648031E+02  0.47000000000E+01 0. -1.
<mgrwt>
<rscale>  0 0.14023583E+03</rscale>
<asrwt>0</asrwt>
<pdfrwt beam="1">  1        3 0.90762486E-02 0.14719398E+03</pdfrwt>
<pdfrwt beam="2">  1       -3 0.48842499E-01 0.14719398E+03</pdfrwt>
<totfact> 0.84846792E+02</totfact>
</mgrwt>
</event>
<event>
 8    1  0.3217375E-004  0.1817285E+03  0.7546771E-02  0.1171902E+00
          2   -1    0    0  501    0  0.00000000000E+00  0.00000000000E+00  0.13139933889E+04  0.13139933889E+04  0.00000000000E+00 0. -1.
         -2   -1    0    0    0  501 -0.00000000000E+00 -0.00000000000E+00 -0.25906386634E+02  0.25906386634E+02  0.00000000000E+00 0.  1.
         25    2    1    2    0    0 -0.10449382900E+03  0.80508458536E+02  0.93588566542E+03  0.95336625500E+03  0.12499866089E+03 0.  0.
         23    2    1    2    0    0  0.10449382900E+03 -0.80508458536E+02  0.35220133685E+03  0.38653352055E+03  0.89228967451E+02 0.  0.
          5    1    4    4  502    0  0.60663963225E+02 -0.57521811958E+02  0.31066438924E+03  0.32175041263E+03  0.47000000000E+01 0. -1.
         -5    1    4    4    0  502  0.43829865775E+02 -0.22986646579E+02  0.41536947612E+02  0.64783107919E+02  0.47000000000E+01 0.  1.
          5    1    3    3  503    0 -0.33509788960E+02  0.98242053222E+02  0.44077234495E+03  0.45285401296E+03  0.47000000000E+01 0.  1.
         -5    1    3    3    0  503 -0.70984040040E+02 -0.17733594686E+02  0.49511332047E+03  0.50051224204E+03  0.47000000000E+01 0.  1.
<mgrwt>
<rscale>  0 0.17582919E+03</rscale>
<asrwt>0</asrwt>
<pdfrwt beam="1">  1        2 0.20215278E+00 0.18172847E+03</pdfrwt>
<pdfrwt beam="2">  1       -2 0.39855990E-02 0.18172847E+03</pdfrwt>
<totfact> 0.47208938E+03</totfact>
</mgrwt>
</event>
<event>
 8    1  0.3217375E-004  0.1270976E+03  0.7546771E-02  0.1246174E+00
          1   -1    0    0  501    0  0.00000000000E+00  0.00000000000E+00  0.13180028488E+03  0.13180028488E+03  0.00000000000E+00 0. -1.
         -1   -1    0    0    0  501 -0.00000000000E+00 -0.00000000000E+00 -0.10324623096E+03  0.10324623096E+03  0.00000000000E+00 0.  1.
         25    2    1    2    0    0 -0.13560894626E+02 -0.18595157050E+02 -0.19610956619E+02  0.12860169745E+03  0.12499651691E+03 0.  0.
         23    2    1    2    0    0  0.13560894626E+02  0.18595157050E+02  0.48165010541E+02  0.10644481839E+03  0.92092091909E+02 0.  0.
          5    1    4    4  502    0 -0.21754611250E+02  0.34941149300E+02  0.52646451365E+02  0.66991685054E+02  0.47000000000E+01 0. -1.
         -5    1    3    3    0  503 -0.57137192231E+02  0.56716030493E+01 -0.44372927389E+02  0.72717759194E+02  0.47000000000E+01 0. -1.
          5    1    3    3  503    0  0.43576297605E+02 -0.24266760099E+02  0.24761970770E+02  0.55883938257E+02  0.47000000000E+01 0. -1.
         -5    1    4    4    0  502  0.35315505876E+02 -0.16345992250E+02 -0.44814408235E+01  0.39453133333E+02  0.47000000000E+01 0.  1.
<mgrwt>
<rscale>  0 0.11815374E+03</rscale>
<asrwt>0</asrwt>
<pdfrwt beam="1">  1        1 0.20276967E-01 0.12709763E+03</pdfrwt>
<pdfrwt beam="2">  1       -1 0.15884036E-01 0.12709763E+03</pdfrwt>
<totfact> 0.69382099E+03</totfact>
</mgrwt>
</event>
<event>
 8    1  0.3217375E-004  0.1355539E+03  0.7546771E-02  0.1232960E+00
          2   -1    0    0  501    0  0.00000000000E+00  0.00000000000E+00  0.45108617766E+03  0.45108617766E+03  0.00000000000E+00 0. -1.
         -2   -1    0    0    0  501 -0.00000000000E+00 -0.00000000000E+00 -0.31582289317E+02  0.31582289317E+02  0.00000000000E+00 0.  1.
         25    2    1    2    0    0  0.83751034821E+01 -0.51772893982E+02  0.25851913986E+03  0.29190239857E+03  0.12499715878E+03 0.  0.
         23    2    1    2    0    0 -0.83751034821E+01  0.51772893982E+02  0.16098474848E+03  0.19076606842E+03  0.87892142455E+02 0.  0.
          5    1    3    3  502    0 -0.10837089072E+02 -0.67512304289E+02  0.25765033108E+03  0.26661045897E+03  0.47000000000E+01 0.  1.
         -5    1    3    3    0  502  0.19212192554E+02  0.15739410307E+02  0.86880878610E+00  0.25291939591E+02  0.47000000000E+01 0.  1.
          5    1    4    4  503    0 -0.39535048509E+02  0.18001088205E+02  0.12437509198E+03  0.13182682861E+03  0.47000000000E+01 0. -1.
         -5    1    4    4    0  503  0.31159945027E+02  0.33771805776E+02  0.36609656508E+02  0.58939239808E+02  0.47000000000E+01 0.  1.
<mgrwt>
<rscale>  0 0.12635907E+03</rscale>
<asrwt>0</asrwt>
<pdfrwt beam="1">  1        2 0.69397869E-01 0.13555392E+03</pdfrwt>
<pdfrwt beam="2">  1       -2 0.48588141E-02 0.13555392E+03</pdfrwt>
<totfact> 0.13518961E+04</totfact>
</mgrwt>
</event>
<event>
 8    1  0.3217375E-004  0.1375912E+03  0.7546771E-02  0.1232472E+00
         -4   -1    0    0    0  501 -0.00000000000E+00  0.00000000000E+00  0.20429139150E+02  0.20429139150E+02  0.00000000000E+00 0.  1.
          4   -1    0    0  501    0  0.00000000000E+00 -0.00000000000E+00 -0.69614542481E+03  0.69614542481E+03  0.00000000000E+00 0. -1.
         25    2    1    2    0    0  0.56351635625E+02 -0.11456292356E+02 -0.34589552199E+03  0.37225670317E+03  0.12499834979E+03 0.  0.
         23    2    1    2    0    0 -0.56351635625E+02  0.11456292356E+02 -0.32982076368E+03  0.34431786080E+03  0.80413305107E+02 0.  0.
          5    1    4    4  502    0 -0.96114668482E+00 -0.23453137040E+02 -0.16789275690E+03  0.16959080535E+03  0.47000000000E+01 0. -1.
         -5    1    4    4    0  502 -0.55390488940E+02  0.34909429396E+02 -0.16192800678E+03  0.17472705545E+03  0.47000000000E+01 0.  1.
          5    1    3    3  503    0  0.40834404122E+01  0.44948669756E+02 -0.54853774947E+02  0.71190477062E+02  0.47000000000E+01 0.  1.
         -5    1    3    3    0  503  0.52268195213E+02 -0.56404962112E+02 -0.29104174704E+03  0.30106622610E+03  0.47000000000E+01 0.  1.
<mgrwt>
<rscale>  0 0.12667672E+03</rscale>
<asrwt>0</asrwt>
<pdfrwt beam="1">  1        4 0.10709928E+00 0.13759121E+03</pdfrwt>
<pdfrwt beam="2">  1       -4 0.31429449E-02 0.13759121E+03</pdfrwt>
<totfact> 0.60790588E+02</totfact>
</mgrwt>
</event>
<event>
 8    1  0.3217375E-004  0.1457596E+03  0.7546771E-02  0.1215846E+00
         -2   -1    0    0    0  501 -0.00000000000E+00  0.00000000000E+00  0.65635355845E+02  0.65635355845E+02  0.00000000000E+00 0.  1.
          2   -1    0    0  501    0  0.00000000000E+00 -0.00000000000E+00 -0.29697791636E+03  0.29697791636E+03  0.00000000000E+00 0. -1.
         25    2    1    2    0    0  0.14451652937E+02  0.73568921093E+02 -0.66739108986E+02  0.16031210861E+03  0.12499850830E+03 0.  0.
         23    2    1    2    0    0 -0.14451652937E+02 -0.73568921093E+02 -0.16460345153E+03  0.20230116359E+03  0.90610309084E+02 0.  0.
          5    1    4    4  502    0  0.28759797283E+02 -0.33977965711E+02 -0.26054378272E+02  0.51793326991E+02  0.47000000000E+01 0.  1.
         -5    1    3    3    0  503 -0.33255468977E+02  0.68695941413E+02 -0.79663451300E+02  0.11042379298E+03  0.47000000000E+01 0. -1.
          5    1    3    3  503    0  0.47707121914E+02  0.48729796807E+01  0.12924342314E+02  0.49888315631E+02  0.47000000000E+01 0. -1.
         -5    1    4    4    0  502 -0.43211450220E+02 -0.39590955382E+02 -0.13854907326E+03  0.15050783660E+03  0.47000000000E+01 0. -1.
<mgrwt>
<rscale>  0 0.13814540E+03</rscale>
<asrwt>0</asrwt>
<pdfrwt beam="1">  1        2 0.45688910E-01 0.14575961E+03</pdfrwt>
<pdfrwt beam="2">  1       -2 0.10097747E-01 0.14575961E+03</pdfrwt>
<totfact> 0.69131274E+03</totfact>
</mgrwt>
</event>
<event>
 8    1  0.3217375E-004  0.1280036E+03  0.7546771E-02  0.1245780E+00
         -2   -1    0    0    0  501 -0.00000000000E+00  0.00000000000E+00  0.14853462858E+03  0.14853462858E+03  0.00000000000E+00 0.  1.
          2   -1    0    0  501    0  0.00000000000E+00 -0.00000000000E+00 -0.40801806088E+03  0.40801806088E+03  0.00000000000E+00 0. -1.
         25    2    1    2    0    0 -0.23477724459E+02  0.14439507586E+02  0.11405823090E+03  0.17144738117E+03  0.12500088619E+03 0.  0.
         23    2    1    2    0    0  0.23477724459E+02 -0.14439507586E+02 -0.37354166320E+03  0.38510530829E+03  0.89515481347E+02 0.  0.
          5    1    3    3  502    0 -0.27740482575E+02  0.46254185301E+02  0.12579320435E+03  0.13694891125E+03  0.47000000000E+01 0. -1.
         -5    1    3    3    0  502  0.42627581156E+01 -0.31814677714E+02 -0.11734973454E+02  0.34498469919E+02  0.47000000000E+01 0. -1.
          5    1    4    4  503    0  0.62577256406E+01 -0.45947944332E+02 -0.29446573278E+03  0.29813173347E+03  0.47000000000E+01 0. -1.
         -5    1    4    4    0  503  0.17219998819E+02  0.31508436746E+02 -0.79075930422E+02  0.86973574824E+02  0.47000000000E+01 0.  1.
<mgrwt>
<rscale>  0 0.11838822E+03</rscale>
<asrwt>0</asrwt>
<pdfrwt beam="1">  1        2 0.62772009E-01 0.12800361E+03</pdfrwt>
<pdfrwt beam="2">  1       -2 0.22851481E-01 0.12800361E+03</pdfrwt>
<totfact> 0.12846299E+03</totfact>
</mgrwt>
</event>
<event>
 8    1  0.3217375E-004  0.1274195E+03  0.7546771E-02  0.1249748E+00
          3   -1    0    0  501    0  0.00000000000E+00  0.00000000000E+00  0.86444628007E+03  0.86444628007E+03  0.00000000000E+00 0. -1.
         -3   -1    0    0    0  501 -0.00000000000E+00 -0.00000000000E+00 -0.14682090138E+02  0.14682090138E+02  0.00000000000E+00 0.  1.
         25    2    1    2    0    0 -0.39592064387E+01  0.24446611405E+02  0.62512966924E+03  0.63798340632E+03  0.12498964455E+03 0.  0.
         23    2    1    2    0    0  0.39592064387E+01 -0.24446611405E+02  0.22463452069E+03  0.24114496389E+03  0.84124393607E+02 0.  0.
          5    1    4    4  502    0 -0.31544084415E+02 -0.27753145516E+01  0.16625560071E+03  0.16930961697E+03  0.47000000000E+01 0. -1.
         -5    1    4    4    0  502  0.35503290854E+02 -0.21671296853E+02  0.58378919983E+02  0.71835346920E+02  0.47000000000E+01 0.  1.
          5    1    3    3  503    0  0.47332953625E+02 -0.70287308531E+01  0.45362478162E+03  0.45616591724E+03  0.47000000000E+01 0. -1.
         -5    1    3    3    0  503 -0.51292160064E+02  0.31475342258E+02  0.17150488762E+03  0.18181748907E+03  0.47000000000E+01 0. -1.
<mgrwt>
<rscale>  0 0.11605644E+03</rscale>
<asrwt>0</asrwt>
<pdfrwt beam="1">  1        3 0.13299170E+00 0.12741948E+03</pdfrwt>
<pdfrwt beam="2">  1       -3 0.22587838E-02 0.12741948E+03</pdfrwt>
<totfact> 0.83922014E+02</totfact>
</mgrwt>
</event>
<event>
 8    1  0.3217375E-004  0.2128066E+03  0.7546771E-02  0.1143086E+00
         -1   -1    0    0    0  501 -0.00000000000E+00  0.00000000000E+00  0.62053372637E+02  0.62053372637E+02  0.00000000000E+00 0.  1.
          1   -1    0    0  501    0  0.00000000000E+00 -0.00000000000E+00 -0.71328032964E+03  0.71328032964E+03  0.00000000000E+00 0. -1.
         25    2    1    2    0    0  0.14531046324E+03 -0.92440580157E+02 -0.24233329144E+03  0.32250901068E+03  0.12500498487E+03 0.  0.
         23    2    1    2    0    0 -0.14531046324E+03  0.92440580157E+02 -0.40889366556E+03  0.45282469159E+03  0.90530547302E+02 0.  0.
          5    1    4    4  502    0 -0.55247085902E+00  0.39671736425E+02 -0.97419148645E+02  0.10529355354E+03  0.47000000000E+01 0. -1.
         -5    1    3    3    0  503  0.88329114864E+02  0.16222523758E+02 -0.97826789007E+02  0.13288105003E+03  0.47000000000E+01 0.  1.
          5    1    3    3  503    0  0.56981348377E+02 -0.10866310392E+03 -0.14450650244E+03  0.18962796065E+03  0.47000000000E+01 0.  1.
         -5    1    4    4    0  502 -0.14475799238E+03  0.52768843733E+02 -0.31147451691E+03  0.34753113805E+03  0.47000000000E+01 0.  1.
<mgrwt>
<rscale>  0 0.20809223E+03</rscale>
<asrwt>0</asrwt>
<pdfrwt beam="1">  1        1 0.10973544E+00 0.21280657E+03</pdfrwt>
<pdfrwt beam="2">  1       -1 0.95466725E-02 0.21280657E+03</pdfrwt>
<totfact> 0.17898234E+03</totfact>
</mgrwt>
</event>
<event>
 8    1  0.3217375E-004  0.1576240E+03  0.7546771E-02  0.1198847E+00
         -2   -1    0    0    0  501 -0.00000000000E+00  0.00000000000E+00  0.16303086283E+03  0.16303086283E+03  0.00000000000E+00 0.  1.
          2   -1    0    0  501    0  0.00000000000E+00 -0.00000000000E+00 -0.13033998529E+03  0.13033998529E+03  0.00000000000E+00 0. -1.
         25    2    1    2    0    0 -0.53659674575E+02  0.79632775186E+02  0.17358397389E+02  0.15857696408E+03  0.12499840007E+03 0.  0.
         23    2    1    2    0    0  0.53659674575E+02 -0.79632775186E+02  0.15332480148E+02  0.13479388404E+03  0.93346487170E+02 0.  0.
          5    1    4    4  502    0  0.74755372727E+02 -0.82532639439E+02  0.78157995285E+01  0.11172814796E+03  0.47000000000E+01 0. -1.
         -5    1    4    4    0  502 -0.21095698152E+02  0.28998642531E+01  0.75166806192E+01  0.23065736077E+02  0.47000000000E+01 0.  1.
          5    1    3    3  503    0 -0.11750854101E+02 -0.34007286379E+02  0.13418106255E+01  0.36310722310E+02  0.47000000000E+01 0. -1.
         -5    1    3    3    0  503 -0.41908820474E+02  0.11364006156E+03  0.16016586764E+02  0.12226624177E+03  0.47000000000E+01 0. -1.
<mgrwt>
<rscale>  0 0.15133083E+03</rscale>
<asrwt>0</asrwt>
<pdfrwt beam="1">  1        2 0.20052306E-01 0.15762405E+03</pdfrwt>
<pdfrwt beam="2">  1       -2 0.25081671E-01 0.15762405E+03</pdfrwt>
<totfact> 0.37854620E+03</totfact>
</mgrwt>
</event>
<event>
 8    1  0.3217375E-004  0.1378422E+03  0.7546771E-02  0.1226606E+00
          2   -1    0    0  501    0  0.00000000000E+00  0.00000000000E+00  0.12175225779E+03  0.12175225779E+03  0.00000000000E+00 0. -1.
         -2   -1    0    0    0  501 -0.00000000000E+00 -0.00000000000E+00 -0.12748295756E+03  0.12748295756E+03  0.00000000000E+00 0.  1.
         25    2    1    2    0    0  0.19847278801E+02  0.54611139764E+02  0.32672110791E+01  0.13788086932E+03  0.12499667354E+03 0.  0.
         23    2    1    2    0    0 -0.19847278801E+02 -0.54611139764E+02 -0.89979108570E+01  0.11135434603E+03  0.94564987796E+02 0.  0.
          5    1    4    4  502    0  0.16947797745E+02 -0.50585848695E+02  0.26588641324E+02  0.59792991094E+02  0.47000000000E+01 0. -1.
         -5    1    4    4    0  502 -0.36795076546E+02 -0.40252910694E+01 -0.35586552181E+02  0.51561354931E+02  0.47000000000E+01 0.  1.
          5    1    3    3  503    0  0.24094308140E+02 -0.36772041436E+02 -0.99796736170E+01  0.45325518217E+02  0.47000000000E+01 0.  1.
         -5    1    3    3    0  503 -0.42470293387E+01  0.91383181201E+02  0.13246884696E+02  0.92555351108E+02  0.47000000000E+01 0.  1.
<mgrwt>
<rscale>  0 0.13057430E+03</rscale>
<asrwt>0</asrwt>
<pdfrwt beam="1">  1        2 0.18731117E-01 0.13784215E+03</pdfrwt>
<pdfrwt beam="2">  1       -2 0.19612763E-01 0.13784215E+03</pdfrwt>
<totfact> 0.61926137E+03</totfact>
</mgrwt>
</event>
<event>
 8    1  0.3217375E-004  0.1687977E+03  0.7546771E-02  0.1185488E+00
         -1   -1    0    0    0  501 -0.00000000000E+00  0.00000000000E+00  0.10181741538E+03  0.10181741538E+03  0.00000000000E+00 0.  1.
          1   -1    0    0  501    0  0.00000000000E+00 -0.00000000000E+00 -0.28872878387E+03  0.28872878387E+03  0.00000000000E+00 0. -1.
         25    2    1    2    0    0  0.72493578393E+02  0.87249480623E+02 -0.22243817714E+02  0.17025702578E+03  0.12499950650E+03 0.  0.
         23    2    1    2    0    0 -0.72493578393E+02 -0.87249480623E+02 -0.16466755077E+03  0.22028917347E+03  0.92434446453E+02 0.  0.
          5    1    4    4  502    0  0.18688418728E+02 -0.37711151181E+02 -0.44002576911E+02  0.61071308262E+02  0.47000000000E+01 0. -1.
         -5    1    4    4    0  502 -0.91181997121E+02 -0.49538329442E+02 -0.12066497386E+03  0.15921786520E+03  0.47000000000E+01 0.  1.
          5    1    3    3  503    0  0.54137925776E+02  0.46460863251E+02 -0.73179209271E+02  0.10230744592E+03  0.47000000000E+01 0. -1.
         -5    1    3    3    0  503  0.18355652618E+02  0.40788617372E+02  0.50935391557E+02  0.67949579861E+02  0.47000000000E+01 0. -1.
<mgrwt>
<rscale>  0 0.16287591E+03</rscale>
<asrwt>0</asrwt>
<pdfrwt beam="1">  1        1 0.44419811E-01 0.16879771E+03</pdfrwt>
<pdfrwt beam="2">  1       -1 0.15664218E-01 0.16879771E+03</pdfrwt>
<totfact> 0.27028559E+03</totfact>
</mgrwt>
</event>
<event>
 8    1  0.3217375E-004  0.1412026E+03  0.7546771E-02  0.1222279E+00
         -1   -1    0    0    0  501 -0.00000000000E+00  0.00000000000E+00  0.41931952189E+03  0.41931952189E+03  0.00000000000E+00 0.  1.
          1   -1    0    0  501    0  0.00000000000E+00 -0.00000000000E+00 -0.74414178457E+02  0.74414178457E+02  0.00000000000E+00 0. -1.
         25    2    1    2    0    0  0.63731904765E+02  0.15979337255E+02  0.11464823084E+02  0.14166731120E+03  0.12498435898E+03 0.  0.
         23    2    1    2    0    0 -0.63731904765E+02 -0.15979337255E+02  0.33344052034E+03  0.35206638915E+03  0.91929684295E+02 0.  0.
          5    1    4    4  502    0  0.22353744858E+02 -0.49142166390E+01  0.43509982666E+02  0.49386719125E+02  0.47000000000E+01 0. -1.
         -5    1    3    3    0  503  0.61040621084E+02 -0.38217211563E+02 -0.24708375659E+02  0.76283068302E+02  0.47000000000E+01 0. -1.
          5    1    3    3  503    0  0.26912836813E+01  0.54196548818E+02  0.36173198743E+02  0.65384242895E+02  0.47000000000E+01 0. -1.
         -5    1    4    4    0  502 -0.86085649623E+02 -0.11065120616E+02  0.28993053768E+03  0.30267967002E+03  0.47000000000E+01 0.  1.
<mgrwt>
<rscale>  0 0.13355131E+03</rscale>
<asrwt>0</asrwt>
<pdfrwt beam="1">  1        1 0.11448335E-01 0.14120264E+03</pdfrwt>
<pdfrwt beam="2">  1       -1 0.64510694E-01 0.14120264E+03</pdfrwt>
<totfact> 0.13239306E+03</totfact>
</mgrwt>
</event>
<event>
 8    1  0.3217375E-004  0.1601350E+03  0.7546771E-02  0.1195619E+00
          2   -1    0    0  501    0  0.00000000000E+00  0.00000000000E+00  0.25346552948E+03  0.25346552948E+03  0.00000000000E+00 0. -1.
         -2   -1    0    0    0  501 -0.00000000000E+00 -0.00000000000E+00 -0.24635925663E+03  0.24635925663E+03  0.00000000000E+00 0.  1.
         25    2    1    2    0    0 -0.74062878335E+02  0.67326977562E+02  0.20436818736E+03  0.25963355773E+03  0.12499998575E+03 0.  0.
         23    2    1    2    0    0  0.74062878335E+02 -0.67326977562E+02 -0.19726191451E+03  0.24019122838E+03  0.93601984074E+02 0.  0.
          5    1    4    4  502    0  0.22523638848E+02 -0.43211707559E+02 -0.18170949815E+02  0.52219147775E+02  0.47000000000E+01 0. -1.
         -5    1    3    3    0  503 -0.27283693828E+02  0.98965005807E+02  0.11984391154E+03  0.15787059719E+03  0.47000000000E+01 0.  1.
          5    1    3    3  503    0 -0.46779184507E+02 -0.31638028245E+02  0.84524275821E+02  0.10176296054E+03  0.47000000000E+01 0.  1.
         -5    1    4    4    0  502  0.51539239487E+02 -0.24115270003E+02 -0.17909096469E+03  0.18797208061E+03  0.47000000000E+01 0.  1.
<mgrwt>
<rscale>  0 0.15401941E+03</rscale>
<asrwt>0</asrwt>
<pdfrwt beam="1">  1        2 0.38994697E-01 0.16013503E+03</pdfrwt>
<pdfrwt beam="2">  1       -2 0.37901424E-01 0.16013503E+03</pdfrwt>
<totfact> 0.86308905E+02</totfact>
</mgrwt>
</event>
<event>
 8    1  0.3217375E-004  0.1994504E+03  0.7546771E-02  0.1154512E+00
          1   -1    0    0  501    0  0.00000000000E+00  0.00000000000E+00  0.17077270166E+04  0.17077270166E+04  0.00000000000E+00 0. -1.
         -1   -1    0    0    0  501 -0.00000000000E+00 -0.00000000000E+00 -0.30009859571E+02  0.30009859571E+02  0.00000000000E+00 0.  1.
         25    2    1    2    0    0 -0.13147001461E+03 -0.82883376345E+02  0.13418916383E+04  0.13566331997E+04  0.12500580327E+03 0.  0.
         23    2    1    2    0    0  0.13147001461E+03  0.82883376345E+02  0.33582551872E+03  0.38110367643E+03  0.91143921090E+02 0.  0.
          5    1    3    3  502    0 -0.11500105768E+03 -0.10988897969E+03  0.12303430579E+04  0.12405913757E+04  0.47000000000E+01 0. -1.
         -5    1    3    3    0  502 -0.16468956926E+02  0.27005603341E+02  0.11154858033E+03  0.11604182404E+03  0.47000000000E+01 0. -1.
          5    1    4    4  503    0  0.80916611082E+02  0.89457182474E+02  0.28234964399E+03  0.30707246198E+03  0.47000000000E+01 0. -1.
         -5    1    4    4    0  503  0.50553403528E+02 -0.65738061285E+01  0.53475874728E+02  0.74031214452E+02  0.47000000000E+01 0.  1.
<mgrwt>
<rscale>  0 0.19444503E+03</rscale>
<asrwt>0</asrwt>
<pdfrwt beam="1">  1        1 0.26272716E+00 0.19945042E+03</pdfrwt>
<pdfrwt beam="2">  1       -1 0.46169028E-02 0.19945042E+03</pdfrwt>
<totfact> 0.10427360E+03</totfact>
</mgrwt>
</event>
<event>
 8    1  0.3217375E-004  0.1363143E+03  0.7546771E-02  0.1231106E+00
         -2   -1    0    0    0  501 -0.00000000000E+00  0.00000000000E+00  0.91292537244E+02  0.91292537244E+02  0.00000000000E+00 0.  1.
          2   -1    0    0  501    0  0.00000000000E+00 -0.00000000000E+00 -0.16185768532E+03  0.16185768532E+03  0.00000000000E+00 0. -1.
         25    2    1    2    0    0  0.38426781886E+02  0.38470326636E+02 -0.56843551496E+02  0.14769154090E+03  0.12500007324E+03 0.  0.
         23    2    1    2    0    0 -0.38426781886E+02 -0.38470326636E+02 -0.13721596576E+02  0.10545868166E+03  0.89312192485E+02 0.  0.
          5    1    3    3  502    0 -0.29221742365E+02 -0.14805154800E+02  0.14150175866E+02  0.35991947885E+02  0.47000000000E+01 0. -1.
         -5    1    3    3    0  502  0.67648524252E+02  0.53275481437E+02 -0.70993727363E+02  0.11169959302E+03  0.47000000000E+01 0. -1.
          5    1    4    4  503    0 -0.54439720379E+02 -0.24579899638E+02 -0.39492098470E+02  0.71760507682E+02  0.47000000000E+01 0. -1.
         -5    1    4    4    0  503  0.16012938492E+02 -0.13890426998E+02  0.25770501894E+02  0.33698173975E+02  0.47000000000E+01 0.  1.
<mgrwt>
<rscale>  0 0.12757038E+03</rscale>
<asrwt>0</asrwt>
<pdfrwt beam="1">  1        2 0.24901182E-01 0.13631435E+03</pdfrwt>
<pdfrwt beam="2">  1       -2 0.14045006E-01 0.13631435E+03</pdfrwt>
<totfact> 0.78113141E+03</totfact>
</mgrwt>
</event>
<event>
 8    1  0.3217375E-004  0.1583227E+03  0.7546771E-02  0.1197634E+00
          2   -1    0    0  501    0  0.00000000000E+00  0.00000000000E+00  0.76477137657E+02  0.76477137657E+02  0.00000000000E+00 0. -1.
         -2   -1    0    0    0  501 -0.00000000000E+00 -0.00000000000E+00 -0.29035325319E+03  0.29035325319E+03  0.00000000000E+00 0.  1.
         25    2    1    2    0    0 -0.37949860607E+02 -0.89441850850E+02 -0.85034032391E+02  0.17971332502E+03  0.12500422362E+03 0.  0.
         23    2    1    2    0    0  0.37949860607E+02  0.89441850850E+02 -0.12884208314E+03  0.18711706582E+03  0.94723161529E+02 0.  0.
          5    1    4    4  502    0 -0.27686376611E+02  0.19668938654E+02 -0.12862504463E+02  0.36618801437E+02  0.47000000000E+01 0. -1.
         -5    1    4    4    0  502  0.65636237219E+02  0.69772912196E+02 -0.11597957868E+03  0.15049826438E+03  0.47000000000E+01 0.  1.
          5    1    3    3  503    0 -0.84907253780E+01 -0.89923424309E+02 -0.10886077963E+03  0.14153117677E+03  0.47000000000E+01 0. -1.
         -5    1    3    3    0  503 -0.29459135229E+02  0.48157345974E+00  0.23826747235E+02  0.38182148254E+02  0.47000000000E+01 0. -1.
<mgrwt>
<rscale>  0 0.15233392E+03</rscale>
<asrwt>0</asrwt>
<pdfrwt beam="1">  1        2 0.11765713E-01 0.15832275E+03</pdfrwt>
<pdfrwt beam="2">  1       -2 0.44669731E-01 0.15832275E+03</pdfrwt>
<totfact> 0.24456296E+03</totfact>
</mgrwt>
</event>
<event>
 8    1  0.3217375E-004  0.1431251E+03  0.7546771E-02  0.1219783E+00
         -1   -1    0    0    0  501 -0.00000000000E+00  0.00000000000E+00  0.25624223748E+02  0.25624223748E+02  0.00000000000E+00 0.  1.
          1   -1    0    0  501    0  0.00000000000E+00 -0.00000000000E+00 -0.65379527534E+03  0.65379527534E+03  0.00000000000E+00 0. -1.
         25    2    1    2    0    0  0.47589925200E+02 -0.50929488195E+02 -0.31364619900E+03  0.34475896234E+03  0.12500476079E+03 0.  0.
         23    2    1    2    0    0 -0.47589925200E+02  0.50929488195E+02 -0.31452485259E+03  0.33466053675E+03  0.90626586657E+02 0.  0.
          5    1    4    4  502    0 -0.48735503705E+02 -0.56474586363E+01 -0.21001566848E+03  0.21572138076E+03  0.47000000000E+01 0. -1.
         -5    1    3    3    0  503 -0.15269523113E+02 -0.36813777280E+02 -0.25297435609E+03  0.25613771174E+03  0.47000000000E+01 0.  1.
          5    1    3    3  503    0  0.62859448313E+02 -0.14115710914E+02 -0.60671842905E+02  0.88621250602E+02  0.47000000000E+01 0.  1.
         -5    1    4    4    0  502  0.11455785051E+01  0.56576946831E+02 -0.10450918412E+03  0.11893915599E+03  0.47000000000E+01 0.  1.
<mgrwt>
<rscale>  0 0.13530967E+03</rscale>
<asrwt>0</asrwt>
<pdfrwt beam="1">  1        1 0.10058390E+00 0.14312513E+03</pdfrwt>
<pdfrwt beam="2">  1       -1 0.39421880E-02 0.14312513E+03</pdfrwt>
<totfact> 0.75462057E+03</totfact>
</mgrwt>
</event>
<event>
 8    1  0.3217375E-004  0.1385816E+03  0.7546771E-02  0.1226996E+00
          2   -1    0    0  501    0  0.00000000000E+00  0.00000000000E+00  0.43589305654E+02  0.43589305654E+02  0.00000000000E+00 0. -1.
         -2   -1    0    0    0  501 -0.00000000000E+00 -0.00000000000E+00 -0.42070747262E+03  0.42070747262E+03  0.00000000000E+00 0.  1.
         25    2    1    2    0    0 -0.16013503140E+01  0.59802844113E+02 -0.11297167972E+03  0.17879445031E+03  0.12500364217E+03 0.  0.
         23    2    1    2    0    0  0.16013503140E+01 -0.59802844113E+02 -0.26414648724E+03  0.28550232796E+03  0.90328666893E+02 0.  0.
          5    1    4    4  502    0 -0.23157174919E+02 -0.75190298179E+02 -0.19192341140E+03  0.20747655659E+03  0.47000000000E+01 0. -1.
         -5    1    4    4    0  502  0.24758525233E+02  0.15387454066E+02 -0.72223075838E+02  0.78025771370E+02  0.47000000000E+01 0.  1.
          5    1    3    3  503    0  0.18003695173E+02  0.83611067052E+02 -0.11939479028E+03  0.14694267426E+03  0.47000000000E+01 0. -1.
         -5    1    3    3    0  503 -0.19605045487E+02 -0.23808222939E+02  0.64231105578E+01  0.31851776046E+02  0.47000000000E+01 0. -1.
<mgrwt>
<rscale>  0 0.13031049E+03</rscale>
<asrwt>0</asrwt>
<pdfrwt beam="1">  1        2 0.67060471E-02 0.13858158E+03</pdfrwt>
<pdfrwt beam="2">  1       -2 0.64724225E-01 0.13858158E+03</pdfrwt>
<totfact> 0.23179486E+03</totfact>
</mgrwt>
</event>
<event>
 8    1  0.3217375E-004  0.1341378E+03  0.7546771E-02  0.1234364E+00
          2   -1    0    0  501    0  0.00000000000E+00  0.00000000000E+00  0.66387490343E+03  0.66387490343E+03  0.00000000000E+00 0. -1.
         -2   -1    0    0    0  501 -0.00000000000E+00 -0.00000000000E+00 -0.23690507594E+02  0.23690507594E+02  0.00000000000E+00 0.  1.
         25    2    1    2    0    0  0.39575105835E+02  0.28352839100E+02  0.47061366634E+03  0.48935690807E+03  0.12499155191E+03 0.  0.
         23    2    1    2    0    0 -0.39575105835E+02 -0.28352839100E+02  0.16957072950E+03  0.19820850295E+03  0.90345480531E+02 0.  0.
          5    1    4    4  502    0 -0.60807881425E+02  0.67212659656E+01  0.10125175706E+03  0.11839249203E+03  0.47000000000E+01 0. -1.
         -5    1    3    3    0  503  0.23401059034E+02 -0.44659129659E+02  0.28005251286E+03  0.28459365310E+03  0.47000000000E+01 0.  1.
          5    1    3    3  503    0  0.16174046801E+02  0.73011968760E+02  0.19056115347E+03  0.20476325497E+03  0.47000000000E+01 0.  1.
         -5    1    4    4    0  502  0.21232775590E+02 -0.35074105066E+02  0.68318972434E+02  0.79816010924E+02  0.47000000000E+01 0.  1.
<mgrwt>
<rscale>  0 0.12545249E+03</rscale>
<asrwt>0</asrwt>
<pdfrwt beam="1">  1        2 0.10213459E+00 0.13413784E+03</pdfrwt>
<pdfrwt beam="2">  1       -2 0.36446940E-02 0.13413784E+03</pdfrwt>
<totfact> 0.13453945E+04</totfact>
</mgrwt>
</event>
<event>
 8    1  0.3217375E-004  0.2191567E+03  0.7546771E-02  0.1137717E+00
         -1   -1    0    0    0  501 -0.00000000000E+00  0.00000000000E+00  0.76714565891E+02  0.76714565891E+02  0.00000000000E+00 0.  1.
          1   -1    0    0  501    0  0.00000000000E+00 -0.00000000000E+00 -0.61448956199E+03  0.61448956199E+03  0.00000000000E+00 0. -1.
         25    2    1    2    0    0  0.14580152252E+03 -0.10557371069E+03 -0.36048125710E+03  0.42187250396E+03  0.12500312205E+03 0.  0.
         23    2    1    2    0    0 -0.14580152252E+03  0.10557371069E+03 -0.17729373900E+03  0.26933162392E+03  0.93287520052E+02 0.  0.
          5    1    4    4  502    0 -0.11715340856E+03  0.31546728165E+02 -0.12438803249E+03  0.17382344439E+03  0.47000000000E+01 0.  1.
         -5    1    3    3    0  503  0.10959283183E+02 -0.81172614661E+02 -0.13509939853E+03  0.15806023137E+03  0.47000000000E+01 0.  1.
          5    1    3    3  503    0  0.13484223933E+03 -0.24401096029E+02 -0.22538185857E+03  0.26381227259E+03  0.47000000000E+01 0.  1.
         -5    1    4    4    0  502 -0.28648113962E+02  0.74026982524E+02 -0.52905706516E+02  0.95508179530E+02  0.47000000000E+01 0.  1.
<mgrwt>
<rscale>  0 0.21493387E+03</rscale>
<asrwt>0</asrwt>
<pdfrwt beam="1">  1        1 0.94536859E-01 0.21915673E+03</pdfrwt>
<pdfrwt beam="2">  1       -1 0.11802241E-01 0.21915673E+03</pdfrwt>
<totfact> 0.15947242E+03</totfact>
</mgrwt>
</event>
<event>
 8    1  0.3217375E-004  0.1310345E+03  0.7546771E-02  0.1238867E+00
          2   -1    0    0  501    0  0.00000000000E+00  0.00000000000E+00  0.17846857960E+03  0.17846857960E+03  0.00000000000E+00 0. -1.
         -2   -1    0    0    0  501 -0.00000000000E+00 -0.00000000000E+00 -0.75378739068E+02  0.75378739068E+02  0.00000000000E+00 0.  1.
         25    2    1    2    0    0  0.26605460317E+02  0.28958271298E+02  0.49935735843E+02  0.14022706505E+03  0.12499448014E+03 0.  0.
         23    2    1    2    0    0 -0.26605460317E+02 -0.28958271298E+02  0.53154104691E+02  0.11362025361E+03  0.92400060556E+02 0.  0.
          5    1    4    4  502    0 -0.52548672813E+02 -0.40120662240E+02  0.53198043679E+02  0.84989131095E+02  0.47000000000E+01 0. -1.
         -5    1    4    4    0  502  0.25943212496E+02  0.11162390941E+02 -0.43938988052E-01  0.28631122520E+02  0.47000000000E+01 0.  1.
          5    1    3    3  503    0  0.50132502963E+02  0.19496072373E+02  0.82554475425E+02  0.98644290783E+02  0.47000000000E+01 0. -1.
         -5    1    3    3    0  503 -0.23527042646E+02  0.94621989256E+01 -0.32618739582E+02  0.41582774271E+02  0.47000000000E+01 0. -1.
<mgrwt>
<rscale>  0 0.12260115E+03</rscale>
<asrwt>0</asrwt>
<pdfrwt beam="1">  1        2 0.27456704E-01 0.13103455E+03</pdfrwt>
<pdfrwt beam="2">  1       -2 0.11596729E-01 0.13103455E+03</pdfrwt>
<totfact> 0.95162577E+03</totfact>
</mgrwt>
</event>
<event>
 8    1  0.3217375E-004  0.1703666E+03  0.7546771E-02  0.1183886E+00
         -1   -1    0    0    0  501 -0.00000000000E+00  0.00000000000E+00  0.31423386967E+03  0.31423386967E+03  0.00000000000E+00 0.  1.
          1   -1    0    0  501    0  0.00000000000E+00 -0.00000000000E+00 -0.80827499115E+02  0.80827499115E+02  0.00000000000E+00 0. -1.
         25    2    1    2    0    0 -0.79510913618E+02  0.84130531931E+02  0.11046308552E+03  0.20304398733E+03  0.12499934296E+03 0.  0.
         23    2    1    2    0    0  0.79510913618E+02 -0.84130531931E+02  0.12294328503E+03  0.19201738145E+03  0.91409472484E+02 0.  0.
          5    1    4    4  502    0  0.36303070569E+02  0.55060735082E+01  0.45606542145E+01  0.37297712330E+02  0.47000000000E+01 0. -1.
         -5    1    4    4    0  502  0.43207843049E+02 -0.89636605439E+02  0.11838263081E+03  0.15471966912E+03  0.47000000000E+01 0.  1.
          5    1    3    3  503    0 -0.94630380890E+02  0.36020925329E+02  0.26140337797E+02  0.10467962222E+03  0.47000000000E+01 0. -1.
         -5    1    3    3    0  503  0.15119467272E+02  0.48109606602E+02  0.84322747726E+02  0.98364365103E+02  0.47000000000E+01 0. -1.
<mgrwt>
<rscale>  0 0.16433676E+03</rscale>
<asrwt>0</asrwt>
<pdfrwt beam="1">  1        1 0.12435000E-01 0.17036657E+03</pdfrwt>
<pdfrwt beam="2">  1       -1 0.48343672E-01 0.17036657E+03</pdfrwt>
<totfact> 0.20531281E+03</totfact>
</mgrwt>
</event>
<event>
 8    1  0.3217375E-004  0.1612898E+03  0.7546771E-02  0.1194073E+00
         -1   -1    0    0    0  501 -0.00000000000E+00  0.00000000000E+00  0.21202423637E+02  0.21202423637E+02  0.00000000000E+00 0.  1.
          1   -1    0    0  501    0  0.00000000000E+00 -0.00000000000E+00 -0.12928108016E+04  0.12928108016E+04  0.00000000000E+00 0. -1.
         25    2    1    2    0    0 -0.27052631032E+02 -0.98272017749E+02 -0.39771220111E+03  0.42917290910E+03  0.12500062670E+03 0.  0.
         23    2    1    2    0    0  0.27052631032E+02  0.98272017749E+02 -0.87389617687E+03  0.88484031615E+03  0.94120257249E+02 0.  0.
          5    1    3    3  502    0 -0.73758582716E+02 -0.49021006801E+02 -0.17332488159E+03  0.19469718079E+03  0.47000000000E+01 0.  1.
         -5    1    4    4    0  503  0.47853689290E+02  0.11790808286E+02 -0.29235276441E+03  0.29651513890E+03  0.47000000000E+01 0.  1.
          5    1    4    4  503    0 -0.20801058258E+02  0.86481209463E+02 -0.58154341245E+03  0.58832517725E+03  0.47000000000E+01 0. -1.
         -5    1    3    3    0  502  0.46705951683E+02 -0.49251010948E+02 -0.22438731952E+03  0.23447572831E+03  0.47000000000E+01 0.  1.
<mgrwt>
<rscale>  0 0.15532913E+03</rscale>
<asrwt>0</asrwt>
<pdfrwt beam="1">  1        1 0.19889402E+00 0.16128977E+03</pdfrwt>
<pdfrwt beam="2">  1       -1 0.32619105E-02 0.16128977E+03</pdfrwt>
<totfact> 0.32615927E+03</totfact>
</mgrwt>
</event>
<event>
 8    1  0.3217375E-004  0.3300160E+03  0.7546771E-02  0.1072493E+00
          1   -1    0    0  501    0  0.00000000000E+00  0.00000000000E+00  0.76118415440E+03  0.76118415440E+03  0.00000000000E+00 0. -1.
         -1   -1    0    0    0  501 -0.00000000000E+00 -0.00000000000E+00 -0.14416014831E+03  0.14416014831E+03  0.00000000000E+00 0.  1.
         25    2    1    2    0    0 -0.25818270029E+03  0.16317887544E+03  0.21962970718E+03  0.39641870752E+03  0.12499972511E+03 0.  0.
         23    2    1    2    0    0  0.25818270029E+03 -0.16317887544E+03  0.39739429891E+03  0.50892559519E+03  0.88302777514E+02 0.  0.
          5    1    4    4  502    0  0.12925293880E+03 -0.10596432026E+03  0.27634676466E+03  0.32299285394E+03  0.47000000000E+01 0. -1.
         -5    1    4    4    0  502  0.12892976149E+03 -0.57214555181E+02  0.12104753424E+03  0.18593274125E+03  0.47000000000E+01 0.  1.
          5    1    3    3  503    0 -0.50352430980E+02  0.92449441761E+02  0.10480851924E+03  0.14862429913E+03  0.47000000000E+01 0. -1.
         -5    1    3    3    0  503 -0.20783026931E+03  0.70729433682E+02  0.11482118795E+03  0.24779440839E+03  0.47000000000E+01 0. -1.
<mgrwt>
<rscale>  0 0.32695356E+03</rscale>
<asrwt>0</asrwt>
<pdfrwt beam="1">  1        1 0.11710525E+00 0.33001604E+03</pdfrwt>
<pdfrwt beam="2">  1       -1 0.22178485E-01 0.33001604E+03</pdfrwt>
<totfact> 0.42351052E+02</totfact>
</mgrwt>
</event>
<event>
 8    1  0.3217375E-004  0.2167601E+03  0.7546771E-02  0.1139789E+00
          1   -1    0    0  501    0  0.00000000000E+00  0.00000000000E+00  0.92685735544E+03  0.92685735544E+03  0.00000000000E+00 0. -1.
         -1   -1    0    0    0  501 -0.00000000000E+00 -0.00000000000E+00 -0.49397413941E+02  0.49397413941E+02  0.00000000000E+00 0.  1.
         25    2    1    2    0    0 -0.91769110811E+02 -0.15145504026E+03  0.57021874190E+03  0.61002814337E+03  0.12499889267E+03 0.  0.
         23    2    1    2    0    0  0.91769110811E+02  0.15145504026E+03  0.30724119960E+03  0.36622662602E+03  0.91458121308E+02 0.  0.
          5    1    3    3  502    0 -0.18617604798E+02 -0.22505224152E+02  0.11146431709E+02  0.31613814424E+02  0.47000000000E+01 0.  1.
         -5    1    4    4    0  503  0.71719884611E+02  0.63958139071E+02  0.92643120938E+02  0.13356355513E+03  0.47000000000E+01 0.  1.
          5    1    4    4  503    0  0.20049226200E+02  0.87496901186E+02  0.21459807866E+03  0.23266307088E+03  0.47000000000E+01 0. -1.
         -5    1    3    3    0  502 -0.73151506012E+02 -0.12894981610E+03  0.55907231019E+03  0.57841432894E+03  0.47000000000E+01 0.  1.
<mgrwt>
<rscale>  0 0.21225950E+03</rscale>
<asrwt>0</asrwt>
<pdfrwt beam="1">  1        1 0.14259343E+00 0.21676006E+03</pdfrwt>
<pdfrwt beam="2">  1       -1 0.75996028E-02 0.21676006E+03</pdfrwt>
<totfact> 0.16925243E+03</totfact>
</mgrwt>
</event>
<event>
 8    1  0.3217375E-004  0.1258386E+03  0.7546771E-02  0.1247419E+00
          1   -1    0    0  501    0  0.00000000000E+00  0.00000000000E+00  0.30600638990E+03  0.30600638990E+03  0.00000000000E+00 0. -1.
         -1   -1    0    0    0  501 -0.00000000000E+00 -0.00000000000E+00 -0.40992917249E+02  0.40992917249E+02  0.00000000000E+00 0.  1.
         25    2    1    2    0    0 -0.20614589380E+01  0.14419233555E+02  0.12332596058E+03  0.17619494411E+03  0.12499280727E+03 0.  0.
         23    2    1    2    0    0  0.20614589380E+01 -0.14419233555E+02  0.14168751207E+03  0.17080436304E+03  0.94268846634E+02 0.  0.
          5    1    4    4  502    0 -0.40161827205E+02  0.13758390026E+02  0.48841239059E+02  0.64883143368E+02  0.47000000000E+01 0. -1.
         -5    1    4    4    0  502  0.42223286143E+02 -0.28177623582E+02  0.92846273016E+02  0.10592121967E+03  0.47000000000E+01 0.  1.
          5    1    3    3  503    0 -0.43248481112E+02 -0.18895021165E+02  0.65503489563E+01  0.47879536492E+02  0.47000000000E+01 0. -1.
         -5    1    3    3    0  503  0.41187022174E+02  0.33314254720E+02  0.11677561162E+03  0.12831540762E+03  0.47000000000E+01 0. -1.
<mgrwt>
<rscale>  0 0.11741766E+03</rscale>
<asrwt>0</asrwt>
<pdfrwt beam="1">  1        1 0.47077905E-01 0.12583865E+03</pdfrwt>
<pdfrwt beam="2">  1       -1 0.63066028E-02 0.12583865E+03</pdfrwt>
<totfact> 0.99543298E+03</totfact>
</mgrwt>
</event>
<event>
 8    1  0.3217375E-004  0.1569596E+03  0.7546771E-02  0.1199897E+00
         -1   -1    0    0    0  501 -0.00000000000E+00  0.00000000000E+00  0.10788364848E+04  0.10788364848E+04  0.00000000000E+00 0.  1.
          1   -1    0    0  501    0  0.00000000000E+00 -0.00000000000E+00 -0.19635349604E+02  0.19635349604E+02  0.00000000000E+00 0. -1.
         25    2    1    2    0    0 -0.42560788307E+02  0.84850778135E+02  0.51707641726E+03  0.54037424272E+03  0.12500090261E+03 0.  0.
         23    2    1    2    0    0  0.42560788307E+02 -0.84850778135E+02  0.54212471790E+03  0.55809759165E+03  0.92534516796E+02 0.  0.
          5    1    4    4  502    0 -0.27831323995E+02 -0.39995449914E+02  0.20394887536E+03  0.20974139403E+03  0.47000000000E+01 0. -1.
         -5    1    3    3    0  503 -0.82594000225E+02  0.32918311069E+02  0.34078881453E+03  0.35222789524E+03  0.47000000000E+01 0. -1.
          5    1    3    3  503    0  0.40033211918E+02  0.51932467066E+02  0.17628760273E+03  0.18814634747E+03  0.47000000000E+01 0. -1.
         -5    1    4    4    0  502  0.70392112302E+02 -0.44855328221E+02  0.33817584254E+03  0.34835619762E+03  0.47000000000E+01 0.  1.
<mgrwt>
<rscale>  0 0.15046959E+03</rscale>
<asrwt>0</asrwt>
<pdfrwt beam="1">  1        1 0.30208239E-02 0.15695955E+03</pdfrwt>
<pdfrwt beam="2">  1       -1 0.16597480E+00 0.15695955E+03</pdfrwt>
<totfact> 0.95808959E+02</totfact>
</mgrwt>
</event>
<event>
 8    1  0.3217375E-004  0.1547547E+03  0.7546771E-02  0.1205454E+00
         -2   -1    0    0    0  501 -0.00000000000E+00  0.00000000000E+00  0.19621233179E+02  0.19621233179E+02  0.00000000000E+00 0.  1.
          2   -1    0    0  501    0  0.00000000000E+00 -0.00000000000E+00 -0.11027551855E+04  0.11027551855E+04  0.00000000000E+00 0. -1.
         25    2    1    2    0    0 -0.76285477026E+02  0.50050275013E+02 -0.41156632978E+03  0.43969974329E+03  0.12499806561E+03 0.  0.
         23    2    1    2    0    0  0.76285477026E+02 -0.50050275013E+02 -0.67156762258E+03  0.68267667542E+03  0.81974797599E+02 0.  0.
          5    1    3    3  502    0 -0.48352611119E+02 -0.17458926630E+02 -0.31129308742E+03  0.31554439529E+03  0.47000000000E+01 0.  1.
         -5    1    3    3    0  502 -0.27932865907E+02  0.67509201644E+02 -0.10027324236E+03  0.12415534800E+03  0.47000000000E+01 0.  1.
          5    1    4    4  503    0  0.54757101806E+02 -0.37004187995E+02 -0.63252322755E+03  0.63598378400E+03  0.47000000000E+01 0. -1.
         -5    1    4    4    0  503  0.21528375220E+02 -0.13046087018E+02 -0.39044395028E+02  0.46692891421E+02  0.47000000000E+01 0.  1.
<mgrwt>
<rscale>  0 0.14601742E+03</rscale>
<asrwt>0</asrwt>
<pdfrwt beam="1">  1        2 0.16965467E+00 0.15475471E+03</pdfrwt>
<pdfrwt beam="2">  1       -2 0.30186508E-02 0.15475471E+03</pdfrwt>
<totfact> 0.93054832E+03</totfact>
</mgrwt>
</event>
<event>
 8    1  0.3217375E-004  0.1299518E+03  0.7546771E-02  0.1242157E+00
         -2   -1    0    0    0  501 -0.00000000000E+00  0.00000000000E+00  0.10570655543E+03  0.10570655543E+03  0.00000000000E+00 0.  1.
          2   -1    0    0  501    0  0.00000000000E+00 -0.00000000000E+00 -0.12690607491E+03  0.12690607491E+03  0.00000000000E+00 0. -1.
         25    2    1    2    0    0  0.33752223694E+02 -0.11183494318E+02 -0.36783364928E+02  0.13505736568E+03  0.12499277155E+03 0.  0.
         23    2    1    2    0    0 -0.33752223694E+02  0.11183494318E+02  0.15583845448E+02  0.97555264661E+02  0.89497990339E+02 0.  0.
          5    1    4    4  502    0  0.24854910135E+02 -0.10798018357E+01 -0.15744906753E+02  0.29814838898E+02  0.47000000000E+01 0. -1.
         -5    1    3    3    0  503  0.36865187246E+02 -0.37427599897E+02  0.31675011448E+02  0.61524496056E+02  0.47000000000E+01 0.  1.
          5    1    3    3  503    0 -0.31129635524E+01  0.26244105579E+02 -0.68458376376E+02  0.73532869629E+02  0.47000000000E+01 0.  1.
         -5    1    4    4    0  502 -0.58607133829E+02  0.12263296153E+02  0.31328752200E+02  0.67740425764E+02  0.47000000000E+01 0.  1.
<mgrwt>
<rscale>  0 0.12057192E+03</rscale>
<asrwt>0</asrwt>
<pdfrwt beam="1">  1        2 0.19524011E-01 0.12995182E+03</pdfrwt>
<pdfrwt beam="2">  1       -2 0.16262547E-01 0.12995182E+03</pdfrwt>
<totfact> 0.80386343E+03</totfact>
</mgrwt>
</event>
<event>
 8    1  0.3217375E-004  0.1988276E+03  0.7546771E-02  0.1155153E+00
          2   -1    0    0  501    0  0.00000000000E+00  0.00000000000E+00  0.95503514493E+03  0.95503514493E+03  0.00000000000E+00 0.  1.
         -2   -1    0    0    0  501 -0.00000000000E+00 -0.00000000000E+00 -0.39688827600E+02  0.39688827600E+02  0.00000000000E+00 0. -1.
         25    2    1    2    0    0  0.15454043115E+03 -0.50667258849E+01  0.59943305157E+03  0.63154760868E+03  0.12499592851E+03 0.  0.
         23    2    1    2    0    0 -0.15454043115E+03  0.50667258849E+01  0.31591326576E+03  0.36317636385E+03  0.90484602024E+02 0.  0.
          5    1    4    4  502    0 -0.48911522808E+02  0.41581092980E+02  0.14826677130E+03  0.16163678365E+03  0.47000000000E+01 0. -1.
         -5    1    4    4    0  502 -0.10562890834E+03 -0.36514367095E+02  0.16764649446E+03  0.20153958020E+03  0.47000000000E+01 0.  1.
          5    1    3    3  503    0  0.39277008754E+02 -0.31305294256E+02  0.36985828799E+03  0.37328266510E+03  0.47000000000E+01 0. -1.
         -5    1    3    3    0  503  0.11526342240E+03  0.26238568371E+02  0.22957476358E+03  0.25826494359E+03  0.47000000000E+01 0. -1.
<mgrwt>
<rscale>  0 0.19371515E+03</rscale>
<asrwt>0</asrwt>
<pdfrwt beam="1">  1        2 0.14692847E+00 0.19882756E+03</pdfrwt>
<pdfrwt beam="2">  1       -2 0.61059742E-02 0.19882756E+03</pdfrwt>
<totfact> 0.39959147E+03</totfact>
</mgrwt>
</event>
<event>
 8    1  0.3217375E-004  0.1513852E+03  0.7546771E-02  0.1207759E+00
          1   -1    0    0  501    0  0.00000000000E+00  0.00000000000E+00  0.55791699901E+03  0.55791699901E+03  0.00000000000E+00 0. -1.
         -1   -1    0    0    0  501 -0.00000000000E+00 -0.00000000000E+00 -0.34162570505E+02  0.34162570505E+02  0.00000000000E+00 0.  1.
         25    2    1    2    0    0  0.66682050019E+02  0.53346201989E+02  0.28289824443E+03  0.32085648833E+03  0.12500062536E+03 0.  0.
         23    2    1    2    0    0 -0.66682050019E+02 -0.53346201989E+02  0.24085618407E+03  0.27122308118E+03  0.90873237525E+02 0.  0.
          5    1    3    3  502    0  0.79154775271E+02 -0.12309396156E+02  0.19063637844E+03  0.20683645343E+03  0.47000000000E+01 0. -1.
         -5    1    3    3    0  502 -0.12472725253E+02  0.65655598145E+02  0.92261865991E+02  0.11402003490E+03  0.47000000000E+01 0. -1.
          5    1    4    4  503    0 -0.33139294468E+02  0.11879358150E+02  0.15108754456E+03  0.15520588942E+03  0.47000000000E+01 0. -1.
         -5    1    4    4    0  503 -0.33542755550E+02 -0.65225560139E+02  0.89768639509E+02  0.11601719176E+03  0.47000000000E+01 0.  1.
<mgrwt>
<rscale>  0 0.14422140E+03</rscale>
<asrwt>0</asrwt>
<pdfrwt beam="1">  1        1 0.85833378E-01 0.15138517E+03</pdfrwt>
<pdfrwt beam="2">  1       -1 0.52557805E-02 0.15138517E+03</pdfrwt>
<totfact> 0.61486778E+03</totfact>
</mgrwt>
</event>
<event>
 8    1  0.3217375E-004  0.1287781E+03  0.7546771E-02  0.1244052E+00
          1   -1    0    0  501    0  0.00000000000E+00  0.00000000000E+00  0.28704001296E+02  0.28704001296E+02  0.00000000000E+00 0. -1.
         -1   -1    0    0    0  501 -0.00000000000E+00 -0.00000000000E+00 -0.43816294657E+03  0.43816294657E+03  0.00000000000E+00 0.  1.
         25    2    1    2    0    0  0.30881482673E+02  0.24640351679E+01 -0.22385209653E+03  0.25825098014E+03  0.12499628065E+03 0.  0.
         23    2    1    2    0    0 -0.30881482673E+02 -0.24640351679E+01 -0.18560684874E+03  0.20861596773E+03  0.90060991837E+02 0.  0.
          5    1    4    4  502    0 -0.24490089759E+02  0.33820194734E+02 -0.38833848216E+02  0.57216499679E+02  0.47000000000E+01 0. -1.
         -5    1    3    3    0  503 -0.31524777835E+02  0.61871557913E+01 -0.17708152702E+03  0.18003346835E+03  0.47000000000E+01 0.  1.
          5    1    3    3  503    0  0.62406260508E+02 -0.37231206234E+01 -0.46770569518E+02  0.78217511791E+02  0.47000000000E+01 0.  1.
         -5    1    4    4    0  502 -0.63913929137E+01 -0.36284229902E+02 -0.14677300052E+03  0.15139946805E+03  0.47000000000E+01 0.  1.
<mgrwt>
<rscale>  0 0.11942268E+03</rscale>
<asrwt>0</asrwt>
<pdfrwt beam="1">  1        1 0.44160003E-02 0.12877813E+03</pdfrwt>
<pdfrwt beam="2">  1       -1 0.67409683E-01 0.12877813E+03</pdfrwt>
<totfact> 0.43642545E+03</totfact>
</mgrwt>
</event>
<event>
 8    1  0.3217375E-004  0.3236776E+03  0.7546771E-02  0.1075325E+00
         -1   -1    0    0    0  501 -0.00000000000E+00  0.00000000000E+00  0.14174669632E+03  0.14174669632E+03  0.00000000000E+00 0.  1.
          1   -1    0    0  501    0  0.00000000000E+00 -0.00000000000E+00 -0.72488849518E+03  0.72488849518E+03  0.00000000000E+00 0. -1.
         25    2    1    2    0    0  0.17138195511E+03 -0.24448431968E+03 -0.35328352677E+03  0.47914134430E+03  0.12499128136E+03 0.  0.
         23    2    1    2    0    0 -0.17138195511E+03  0.24448431968E+03 -0.22985827208E+03  0.38749384721E+03  0.90400770308E+02 0.  0.
          5    1    3    3  502    0  0.12397412340E+03 -0.24638183657E+03 -0.29602213004E+03  0.40462919338E+03  0.47000000000E+01 0.  1.
         -5    1    4    4    0  503 -0.75231617096E+02  0.65518346813E+02 -0.34656895910E+02  0.10571490157E+03  0.47000000000E+01 0.  1.
          5    1    4    4  503    0 -0.96150338012E+02  0.17896597287E+03 -0.19520137617E+03  0.28177894564E+03  0.47000000000E+01 0. -1.
         -5    1    3    3    0  502  0.47407831706E+02  0.18975168903E+01 -0.57261396737E+02  0.74512150913E+02  0.47000000000E+01 0.  1.
<mgrwt>
<rscale>  0 0.32070658E+03</rscale>
<asrwt>0</asrwt>
<pdfrwt beam="1">  1        1 0.11152131E+00 0.32367758E+03</pdfrwt>
<pdfrwt beam="2">  1       -1 0.21807184E-01 0.32367758E+03</pdfrwt>
<totfact> 0.46899126E+02</totfact>
</mgrwt>
</event>
<event>
 8    1  0.3217375E-004  0.1337731E+03  0.7546771E-02  0.1234842E+00
          2   -1    0    0  501    0  0.00000000000E+00  0.00000000000E+00  0.37432929181E+03  0.37432929181E+03  0.00000000000E+00 0. -1.
         -2   -1    0    0    0  501 -0.00000000000E+00 -0.00000000000E+00 -0.39545683062E+02  0.39545683062E+02  0.00000000000E+00 0.  1.
         25    2    1    2    0    0  0.45917138405E+02  0.12690609082E+02  0.13908554583E+03  0.19297677087E+03  0.12500323946E+03 0.  0.
         23    2    1    2    0    0 -0.45917138405E+02 -0.12690609082E+02  0.19569806292E+03  0.22089820401E+03  0.90713006489E+02 0.  0.
          5    1    4    4  502    0 -0.45172539150E+02  0.25029758929E+02  0.16198938200E+03  0.17008732170E+03  0.47000000000E+01 0. -1.
         -5    1    3    3    0  503  0.87692329528E+02  0.18599331738E+02  0.10757420559E+03  0.14010774250E+03  0.47000000000E+01 0. -1.
          5    1    3    3  503    0 -0.41775191123E+02 -0.59087226554E+01  0.31511340241E+02  0.52869028368E+02  0.47000000000E+01 0. -1.
         -5    1    4    4    0  502 -0.74459925487E+00 -0.37720368011E+02  0.33708680920E+02  0.50810882302E+02  0.47000000000E+01 0.  1.
<mgrwt>
<rscale>  0 0.12514584E+03</rscale>
<asrwt>0</asrwt>
<pdfrwt beam="1">  1        2 0.57589119E-01 0.13377311E+03</pdfrwt>
<pdfrwt beam="2">  1       -2 0.60839515E-02 0.13377311E+03</pdfrwt>
<totfact> 0.11750767E+04</totfact>
</mgrwt>
</event>
<event>
 8    1  0.3217375E-004  0.1398446E+03  0.7546771E-02  0.1225003E+00
          2   -1    0    0  501    0  0.00000000000E+00  0.00000000000E+00  0.10530600491E+03  0.10530600491E+03  0.00000000000E+00 0. -1.
         -2   -1    0    0    0  501 -0.00000000000E+00 -0.00000000000E+00 -0.14870780556E+03  0.14870780556E+03  0.00000000000E+00 0.  1.
         25    2    1    2    0    0  0.43998043856E+02  0.44683919988E+02 -0.16015525140E+02  0.14075871573E+03  0.12499615370E+03 0.  0.
         23    2    1    2    0    0 -0.43998043856E+02 -0.44683919988E+02 -0.27386275507E+02  0.11325509474E+03  0.90245375675E+02 0.  0.
          5    1    4    4  502    0 -0.51283279333E+02 -0.25345565489E+02  0.20452277557E+02  0.60932405881E+02  0.47000000000E+01 0. -1.
         -5    1    3    3    0  503  0.68544773086E+02 -0.19122749545E+02 -0.83616973905E+01  0.71805803741E+02  0.47000000000E+01 0.  1.
          5    1    3    3  503    0 -0.24546729230E+02  0.63806669533E+02 -0.76538277493E+01  0.68952911990E+02  0.47000000000E+01 0.  1.
         -5    1    4    4    0  502  0.72852354774E+01 -0.19338354499E+02 -0.47838553063E+02  0.52322688863E+02  0.47000000000E+01 0.  1.
<mgrwt>
<rscale>  0 0.13166729E+03</rscale>
<asrwt>0</asrwt>
<pdfrwt beam="1">  1        2 0.16200924E-01 0.13984462E+03</pdfrwt>
<pdfrwt beam="2">  1       -2 0.22878124E-01 0.13984462E+03</pdfrwt>
<totfact> 0.56323729E+03</totfact>
</mgrwt>
</event>
<event>
 8    1  0.3217375E-004  0.2009759E+03  0.7546771E-02  0.1152380E+00
          3   -1    0    0  501    0  0.00000000000E+00  0.00000000000E+00  0.92815820718E+02  0.92815820718E+02  0.00000000000E+00 0. -1.
         -3   -1    0    0    0  501 -0.00000000000E+00 -0.00000000000E+00 -0.42289374053E+03  0.42289374053E+03  0.00000000000E+00 0.  1.
         25    2    1    2    0    0  0.14815248981E+03 -0.53045160635E+02 -0.11366246743E+03  0.23089057699E+03  0.12501341024E+03 0.  0.
         23    2    1    2    0    0 -0.14815248981E+03  0.53045160635E+02 -0.21641545239E+03  0.28481898426E+03  0.97587173638E+02 0.  0.
          5    1    3    3  502    0  0.68891452592E+02 -0.58801029746E+02  0.17175709264E+01  0.90711815048E+02  0.47000000000E+01 0.  1.
         -5    1    3    3    0  502  0.79261037216E+02  0.57558691110E+01 -0.11538003835E+03  0.14017876194E+03  0.47000000000E+01 0.  1.
          5    1    4    4  503    0 -0.45226006364E+02 -0.20674399889E+02 -0.26552440581E+02  0.56568052496E+02  0.47000000000E+01 0. -1.
         -5    1    4    4    0  503 -0.10292648344E+03  0.73719560524E+02 -0.18986301181E+03  0.22825093176E+03  0.47000000000E+01 0.  1.
<mgrwt>
<rscale>  0 0.19690098E+03</rscale>
<asrwt>0</asrwt>
<pdfrwt beam="1">  1        3 0.14279357E-01 0.20097587E+03</pdfrwt>
<pdfrwt beam="2">  1       -3 0.65060575E-01 0.20097587E+03</pdfrwt>
<totfact> 0.22937708E+02</totfact>
</mgrwt>
</event>
<event>
 8    1  0.3217375E-004  0.1365618E+03  0.7546771E-02  0.1228607E+00
         -2   -1    0    0    0  501 -0.00000000000E+00  0.00000000000E+00  0.11889370707E+03  0.11889370707E+03  0.00000000000E+00 0.  1.
          2   -1    0    0  501    0  0.00000000000E+00 -0.00000000000E+00 -0.13149744808E+03  0.13149744808E+03  0.00000000000E+00 0. -1.
         25    2    1    2    0    0  0.42939151329E+02  0.34352929741E+02  0.15222661152E+02  0.13740761129E+03  0.12500091091E+03 0.  0.
         23    2    1    2    0    0 -0.42939151329E+02 -0.34352929741E+02 -0.27826402164E+02  0.11298354386E+03  0.94694656805E+02 0.  0.
          5    1    3    3  502    0 -0.21757769559E+02 -0.29832177839E+02  0.26166217144E+02  0.45498574598E+02  0.47000000000E+01 0. -1.
         -5    1    4    4    0  503 -0.50897146178E+02  0.13147131575E+02 -0.36028700930E+02  0.63902455731E+02  0.47000000000E+01 0.  1.
          5    1    4    4  503    0  0.79579948496E+01 -0.47500061316E+02  0.82022987653E+01  0.49081088130E+02  0.47000000000E+01 0. -1.
         -5    1    3    3    0  502  0.64696920887E+02  0.64185107579E+02 -0.10943555992E+02  0.91909036689E+02  0.47000000000E+01 0. -1.
<mgrwt>
<rscale>  0 0.12922713E+03</rscale>
<asrwt>0</asrwt>
<pdfrwt beam="1">  1        2 0.20230377E-01 0.13656179E+03</pdfrwt>
<pdfrwt beam="2">  1       -2 0.18291340E-01 0.13656179E+03</pdfrwt>
<totfact> 0.63763056E+03</totfact>
</mgrwt>
</event>
<event>
 8    1  0.3217375E-004  0.1401130E+03  0.7546771E-02  0.1225972E+00
          2   -1    0    0  501    0  0.00000000000E+00  0.00000000000E+00  0.76900968193E+02  0.76900968193E+02  0.00000000000E+00 0. -1.
         -2   -1    0    0    0  501 -0.00000000000E+00 -0.00000000000E+00 -0.20704724890E+03  0.20704724890E+03  0.00000000000E+00 0.  1.
         25    2    1    2    0    0  0.18021233609E+02 -0.60680178486E+02 -0.45071987689E+02  0.14718397774E+03  0.12499916122E+03 0.  0.
         23    2    1    2    0    0 -0.18021233609E+02  0.60680178486E+02 -0.85074293013E+02  0.13676423935E+03  0.86371134711E+02 0.  0.
          5    1    3    3  502    0  0.71115454058E+02 -0.45605056751E+02 -0.30051617829E+02  0.89790972493E+02  0.47000000000E+01 0. -1.
         -5    1    4    4    0  503 -0.25345848177E+02 -0.13657548283E+02 -0.39606533379E+02  0.49190528877E+02  0.47000000000E+01 0.  1.
          5    1    4    4  503    0  0.73246145677E+01  0.74337726769E+02 -0.45467759635E+02  0.87573710473E+02  0.47000000000E+01 0. -1.
         -5    1    3    3    0  502 -0.53094220449E+02 -0.15075121735E+02 -0.15020369859E+02  0.57393005246E+02  0.47000000000E+01 0. -1.
<mgrwt>
<rscale>  0 0.13100537E+03</rscale>
<asrwt>0</asrwt>
<pdfrwt beam="1">  1        2 0.11830918E-01 0.14011295E+03</pdfrwt>
<pdfrwt beam="2">  1       -2 0.31853423E-01 0.14011295E+03</pdfrwt>
<totfact> 0.45490585E+03</totfact>
</mgrwt>
</event>
<event>
 8    1  0.3217375E-004  0.1643799E+03  0.7546771E-02  0.1191265E+00
         -1   -1    0    0    0  501 -0.00000000000E+00  0.00000000000E+00  0.40390322884E+02  0.40390322884E+02  0.00000000000E+00 0.  1.
          1   -1    0    0  501    0  0.00000000000E+00 -0.00000000000E+00 -0.71060265658E+03  0.71060265658E+03  0.00000000000E+00 0. -1.
         25    2    1    2    0    0  0.10182559467E+03  0.32037415252E+02 -0.52309977741E+03  0.54831936800E+03  0.12500361788E+03 0.  0.
         23    2    1    2    0    0 -0.10182559467E+03 -0.32037415252E+02 -0.14711255628E+03  0.20267361147E+03  0.89664044437E+02 0.  0.
          5    1    4    4  502    0 -0.86733006137E+02 -0.53197621462E+02 -0.14355982212E+03  0.17602304908E+03  0.47000000000E+01 0. -1.
         -5    1    4    4    0  502 -0.15092588532E+02  0.21160206210E+02 -0.35527341664E+01  0.26650562386E+02  0.47000000000E+01 0.  1.
          5    1    3    3  503    0  0.62361626258E+02 -0.34363020787E+02 -0.36949725218E+03  0.37632445974E+03  0.47000000000E+01 0.  1.
         -5    1    3    3    0  503  0.39463968411E+02  0.66400436038E+02 -0.15360252523E+03  0.17199490826E+03  0.47000000000E+01 0.  1.
<mgrwt>
<rscale>  0 0.15774594E+03</rscale>
<asrwt>0</asrwt>
<pdfrwt beam="1">  1        1 0.10932348E+00 0.16437990E+03</pdfrwt>
<pdfrwt beam="2">  1       -1 0.62138962E-02 0.16437990E+03</pdfrwt>
<totfact> 0.34336128E+03</totfact>
</mgrwt>
</event>
<event>
 8    1  0.3217375E-004  0.1267793E+03  0.7546771E-02  0.1247846E+00
          1   -1    0    0  501    0  0.00000000000E+00  0.00000000000E+00  0.88098617484E+02  0.88098617484E+02  0.00000000000E+00 0. -1.
         -1   -1    0    0    0  501 -0.00000000000E+00 -0.00000000000E+00 -0.13735962442E+03  0.13735962442E+03  0.00000000000E+00 0.  1.
         25    2    1    2    0    0  0.21185023894E+02 -0.25393631280E+00 -0.37630749756E+02  0.13224624569E+03  0.12499650576E+03 0.  0.
         23    2    1    2    0    0 -0.21185023894E+02  0.25393631280E+00 -0.11630257175E+02  0.93211996205E+02  0.90024128063E+02 0.  0.
          5    1    4    4  502    0 -0.38998974194E+02  0.32754000394E+02  0.67286089601E+01  0.51585935182E+02  0.47000000000E+01 0. -1.
         -5    1    4    4    0  502  0.17813950300E+02 -0.32500064081E+02 -0.18358866135E+02  0.41626061024E+02  0.47000000000E+01 0.  1.
          5    1    3    3  503    0 -0.22474484648E+02  0.47651272443E+02 -0.41372311708E+02  0.67152843586E+02  0.47000000000E+01 0.  1.
         -5    1    3    3    0  503  0.43659508543E+02 -0.47905208756E+02  0.37415619522E+01  0.65093402108E+02  0.47000000000E+01 0.  1.
<mgrwt>
<rscale>  0 0.11716624E+03</rscale>
<asrwt>0</asrwt>
<pdfrwt beam="1">  1        1 0.13553634E-01 0.12677932E+03</pdfrwt>
<pdfrwt beam="2">  1       -1 0.21132250E-01 0.12677932E+03</pdfrwt>
<totfact> 0.73886634E+03</totfact>
</mgrwt>
</event>
<event>
 8    1  0.3217375E-004  0.1777871E+03  0.7546771E-02  0.1175662E+00
          1   -1    0    0  501    0  0.00000000000E+00  0.00000000000E+00  0.35656372961E+03  0.35656372961E+03  0.00000000000E+00 0. -1.
         -1   -1    0    0    0  501 -0.00000000000E+00 -0.00000000000E+00 -0.78606078162E+02  0.78606078162E+02  0.00000000000E+00 0.  1.
         25    2    1    2    0    0  0.12131660190E+03  0.35579191654E+02  0.16376322825E+03  0.24171608303E+03  0.12499869237E+03 0.  0.
         23    2    1    2    0    0 -0.12131660190E+03 -0.35579191654E+02  0.11419442321E+03  0.19345372475E+03  0.91653589962E+02 0.  0.
          5    1    4    4  502    0 -0.73715270519E+02  0.74515545534E+01  0.10480045462E+03  0.12843166300E+03  0.47000000000E+01 0. -1.
         -5    1    4    4    0  502 -0.47601331377E+02 -0.43030746207E+02  0.93939685886E+01  0.65022061747E+02  0.47000000000E+01 0.  1.
          5    1    3    3  503    0  0.14040461850E+03  0.66181701867E+01  0.11488987937E+03  0.18160129805E+03  0.47000000000E+01 0. -1.
         -5    1    3    3    0  503 -0.19088016605E+02  0.28961021467E+02  0.48873348876E+02  0.60114784976E+02  0.47000000000E+01 0. -1.
<mgrwt>
<rscale>  0 0.17211287E+03</rscale>
<asrwt>0</asrwt>
<pdfrwt beam="1">  1        1 0.54855957E-01 0.17778715E+03</pdfrwt>
<pdfrwt beam="2">  1       -1 0.12093243E-01 0.17778715E+03</pdfrwt>
<totfact> 0.31193998E+03</totfact>
</mgrwt>
</event>
<event>
 8    1  0.3217375E-004  0.1702983E+03  0.7546771E-02  0.1183974E+00
         -1   -1    0    0    0  501 -0.00000000000E+00  0.00000000000E+00  0.22840047829E+02  0.22840047829E+02  0.00000000000E+00 0.  1.
          1   -1    0    0  501    0  0.00000000000E+00 -0.00000000000E+00 -0.12206582862E+04  0.12206582862E+04  0.00000000000E+00 0. -1.
         25    2    1    2    0    0  0.38805943052E+02 -0.10895635663E+03 -0.44678850238E+03  0.47814378996E+03  0.12499651657E+03 0.  0.
         23    2    1    2    0    0 -0.38805943052E+02  0.10895635663E+03 -0.75102973601E+03  0.76535454408E+03  0.91348371161E+02 0.  0.
          5    1    3    3  502    0  0.36503955695E+02 -0.31995915550E+02 -0.35460821097E+03  0.35794601643E+03  0.47000000000E+01 0.  1.
         -5    1    3    3    0  502  0.23019873567E+01 -0.76960441080E+02 -0.92180291407E+02  0.12019777353E+03  0.47000000000E+01 0.  1.
          5    1    4    4  503    0 -0.51433615215E+02  0.26243366652E+02 -0.41541434295E+03  0.41943449715E+03  0.47000000000E+01 0. -1.
         -5    1    4    4    0  503  0.12627672164E+02  0.82712989979E+02 -0.33561539306E+03  0.34592004694E+03  0.47000000000E+01 0.  1.
<mgrwt>
<rscale>  0 0.16425554E+03</rscale>
<asrwt>0</asrwt>
<pdfrwt beam="1">  1        1 0.18779365E+00 0.17029832E+03</pdfrwt>
<pdfrwt beam="2">  1       -1 0.35138522E-02 0.17029832E+03</pdfrwt>
<totfact> 0.32771592E+03</totfact>
</mgrwt>
</event>
<event>
 8    1  0.3217375E-004  0.1677092E+03  0.7546771E-02  0.1186402E+00
         -2   -1    0    0    0  501 -0.00000000000E+00  0.00000000000E+00  0.71510648641E+02  0.71510648641E+02  0.00000000000E+00 0.  1.
          2   -1    0    0  501    0  0.00000000000E+00 -0.00000000000E+00 -0.37698017249E+03  0.37698017249E+03  0.00000000000E+00 0. -1.
         25    2    1    2    0    0  0.10191905330E+03  0.45975856513E+02 -0.96589838197E+02  0.19353544549E+03  0.12500039604E+03 0.  0.
         23    2    1    2    0    0 -0.10191905330E+03 -0.45975856513E+02 -0.20887968565E+03  0.25495537564E+03  0.94181992335E+02 0.  0.
          5    1    3    3  502    0  0.28358955351E+01  0.24899396126E+02  0.24657633303E+02  0.35469862010E+02  0.47000000000E+01 0.  1.
         -5    1    4    4    0  503 -0.37836308869E+02 -0.47846043234E+02 -0.37117798844E+02  0.71558724926E+02  0.47000000000E+01 0.  1.
          5    1    4    4  503    0 -0.64082744436E+02  0.18701867210E+01 -0.17176188681E+03  0.18339665071E+03  0.47000000000E+01 0. -1.
         -5    1    3    3    0  502  0.99083157770E+02  0.21076460387E+02 -0.12124747150E+03  0.15806558348E+03  0.47000000000E+01 0.  1.
<mgrwt>
<rscale>  0 0.16204927E+03</rscale>
<asrwt>0</asrwt>
<pdfrwt beam="1">  1        2 0.57996950E-01 0.16770919E+03</pdfrwt>
<pdfrwt beam="2">  1       -2 0.11001638E-01 0.16770919E+03</pdfrwt>
<totfact> 0.47171719E+03</totfact>
</mgrwt>
</event>
<event>
 8    1  0.3217375E-004  0.1471629E+03  0.7546771E-02  0.1213413E+00
         -1   -1    0    0    0  501 -0.00000000000E+00  0.00000000000E+00  0.72349176443E+02  0.72349176443E+02  0.00000000000E+00 0.  1.
          1   -1    0    0  501    0  0.00000000000E+00 -0.00000000000E+00 -0.24856842538E+03  0.24856842538E+03  0.00000000000E+00 0. -1.
         25    2    1    2    0    0  0.44838901393E+02 -0.63410024362E+02 -0.85187074136E+02  0.17004049321E+03  0.12500229383E+03 0.  0.
         23    2    1    2    0    0 -0.44838901393E+02  0.63410024362E+02 -0.91032174805E+02  0.15087710862E+03  0.91900417775E+02 0.  0.
          5    1    3    3  502    0 -0.99438698823E+01 -0.71104820419E+02 -0.88933735078E+02  0.11439438478E+03  0.47000000000E+01 0.  1.
         -5    1    4    4    0  503 -0.30740996447E+02  0.85471234847E+02 -0.55706251883E+02  0.10665653917E+03  0.47000000000E+01 0.  1.
          5    1    4    4  503    0 -0.14097904945E+02 -0.22061210485E+02 -0.35325922922E+02  0.44220569447E+02  0.47000000000E+01 0. -1.
         -5    1    3    3    0  502  0.54782771275E+02  0.76947960577E+01  0.37466609418E+01  0.55646108428E+02  0.47000000000E+01 0.  1.
<mgrwt>
<rscale>  0 0.13993741E+03</rscale>
<asrwt>0</asrwt>
<pdfrwt beam="1">  1        1 0.38241296E-01 0.14716294E+03</pdfrwt>
<pdfrwt beam="2">  1       -1 0.11130643E-01 0.14716294E+03</pdfrwt>
<totfact> 0.55083539E+03</totfact>
</mgrwt>
</event>
<event>
 8    1  0.3217375E-004  0.1439198E+03  0.7546771E-02  0.1218046E+00
         -1   -1    0    0    0  501 -0.00000000000E+00  0.00000000000E+00  0.98050851328E+02  0.98050851328E+02  0.00000000000E+00 0.  1.
          1   -1    0    0  501    0  0.00000000000E+00 -0.00000000000E+00 -0.17578484807E+03  0.17578484807E+03  0.00000000000E+00 0. -1.
         25    2    1    2    0    0 -0.62026424351E+02 -0.35222875413E+02 -0.59727196974E+02  0.15582120335E+03  0.12499992434E+03 0.  0.
         23    2    1    2    0    0  0.62026424351E+02  0.35222875413E+02 -0.18006799769E+02  0.11801449605E+03  0.92278102333E+02 0.  0.
          5    1    3    3  502    0 -0.66838945750E+02 -0.97350473438E+01  0.21007803041E+02  0.70891703354E+02  0.47000000000E+01 0.  1.
         -5    1    4    4    0  503  0.33135871823E+02  0.50589379011E+02  0.23412924398E+02  0.65019430165E+02  0.47000000000E+01 0.  1.
          5    1    4    4  503    0  0.28890552528E+02 -0.15366503598E+02 -0.41419724167E+02  0.52995065886E+02  0.47000000000E+01 0. -1.
         -5    1    3    3    0  502  0.48125213994E+01 -0.25487828069E+02 -0.80735000015E+02  0.84929499994E+02  0.47000000000E+01 0.  1.
<mgrwt>
<rscale>  0 0.13655118E+03</rscale>
<asrwt>0</asrwt>
<pdfrwt beam="1">  1        1 0.27043822E-01 0.14391980E+03</pdfrwt>
<pdfrwt beam="2">  1       -1 0.15084747E-01 0.14391980E+03</pdfrwt>
<totfact> 0.52787115E+03</totfact>
</mgrwt>
</event>
<event>
 8    1  0.3217375E-004  0.1523358E+03  0.7546771E-02  0.1206269E+00
         -1   -1    0    0    0  501 -0.00000000000E+00  0.00000000000E+00  0.19429008538E+02  0.19429008538E+02  0.00000000000E+00 0.  1.
          1   -1    0    0  501    0  0.00000000000E+00 -0.00000000000E+00 -0.10027490086E+04  0.10027490086E+04  0.00000000000E+00 0. -1.
         25    2    1    2    0    0 -0.66146862874E+01  0.86808492040E+02 -0.50797207757E+03  0.53032237509E+03  0.12500688609E+03 0.  0.
         23    2    1    2    0    0  0.66146862874E+01 -0.86808492040E+02 -0.47534792253E+03  0.49185564208E+03  0.91579783954E+02 0.  0.
          5    1    4    4  502    0 -0.74695867868E+01 -0.66546518110E+02 -0.45386445994E+03  0.45880199628E+03  0.47000000000E+01 0. -1.
         -5    1    3    3    0  503  0.30936818539E+02  0.53312364498E+02 -0.89287342810E+02  0.10859840945E+03  0.47000000000E+01 0. -1.
          5    1    3    3  503    0 -0.37551504826E+02  0.33496127542E+02 -0.41868473476E+03  0.42172396564E+03  0.47000000000E+01 0. -1.
         -5    1    4    4    0  502  0.14084273074E+02 -0.20261973930E+02 -0.21483462592E+02  0.33053645797E+02  0.47000000000E+01 0.  1.
<mgrwt>
<rscale>  0 0.14537913E+03</rscale>
<asrwt>0</asrwt>
<pdfrwt beam="1">  1        1 0.15426907E+00 0.15233578E+03</pdfrwt>
<pdfrwt beam="2">  1       -1 0.29890784E-02 0.15233578E+03</pdfrwt>
<totfact> 0.59045381E+03</totfact>
</mgrwt>
</event>
<event>
 8    1  0.3217375E-004  0.1498469E+03  0.7546771E-02  0.1210084E+00
          2   -1    0    0  501    0  0.00000000000E+00  0.00000000000E+00  0.30913172770E+03  0.30913172770E+03  0.00000000000E+00 0. -1.
         -2   -1    0    0    0  501 -0.00000000000E+00 -0.00000000000E+00 -0.65336532844E+02  0.65336532844E+02  0.00000000000E+00 0.  1.
         25    2    1    2    0    0  0.32018417501E+01  0.82569710572E+02  0.79514237639E+02  0.16963667389E+03  0.12500431291E+03 0.  0.
         23    2    1    2    0    0 -0.32018417501E+01 -0.82569710572E+02  0.16428095722E+03  0.20483158666E+03  0.90220491539E+02 0.  0.
          5    1    4    4  502    0  0.11025894047E+01 -0.44314253581E+02  0.15967010273E+03  0.16577575360E+03  0.47000000000E+01 0. -1.
         -5    1    3    3    0  503 -0.38562111250E+02  0.72061824653E+02  0.32540004139E+01  0.81930589618E+02  0.47000000000E+01 0.  1.
          5    1    3    3  503    0  0.41763953000E+02  0.10507885919E+02  0.76260237225E+02  0.87706084272E+02  0.47000000000E+01 0.  1.
         -5    1    4    4    0  502 -0.43044311549E+01 -0.38255456991E+02  0.46108544889E+01  0.39055833064E+02  0.47000000000E+01 0.  1.
<mgrwt>
<rscale>  0 0.14243946E+03</rscale>
<asrwt>0</asrwt>
<pdfrwt beam="1">  1        2 0.47558727E-01 0.14984688E+03</pdfrwt>
<pdfrwt beam="2">  1       -2 0.10051774E-01 0.14984688E+03</pdfrwt>
<totfact> 0.66842083E+03</totfact>
</mgrwt>
</event>
<event>
 8    1  0.3217375E-004  0.1490364E+03  0.7546771E-02  0.1211105E+00
         -1   -1    0    0    0  501 -0.00000000000E+00  0.00000000000E+00  0.29110048687E+02  0.29110048687E+02  0.00000000000E+00 0.  1.
          1   -1    0    0  501    0  0.00000000000E+00 -0.00000000000E+00 -0.81229910853E+03  0.81229910853E+03  0.00000000000E+00 0. -1.
         25    2    1    2    0    0 -0.76749794307E+02 -0.26396329676E+02 -0.22340136615E+03  0.26855169900E+03  0.12499818996E+03 0.  0.
         23    2    1    2    0    0  0.76749794307E+02  0.26396329676E+02 -0.55978769369E+03  0.57285745821E+03  0.90642750826E+02 0.  0.
          5    1    4    4  502    0  0.30567781668E+02  0.55416626432E+02 -0.36703887809E+03  0.37248492559E+03  0.47000000000E+01 0. -1.
         -5    1    4    4    0  502  0.46182012639E+02 -0.29020296756E+02 -0.19274881560E+03  0.20037253262E+03  0.47000000000E+01 0.  1.
          5    1    3    3  503    0 -0.66436803831E+02  0.41935539264E+02 -0.13472191860E+03  0.15602731718E+03  0.47000000000E+01 0.  1.
         -5    1    3    3    0  503 -0.10312990476E+02 -0.68331868940E+02 -0.88679447552E+02  0.11252438182E+03  0.47000000000E+01 0.  1.
<mgrwt>
<rscale>  0 0.14166561E+03</rscale>
<asrwt>0</asrwt>
<pdfrwt beam="1">  1        1 0.12496909E+00 0.14903639E+03</pdfrwt>
<pdfrwt beam="2">  1       -1 0.44784692E-02 0.14903639E+03</pdfrwt>
<totfact> 0.45671892E+03</totfact>
</mgrwt>
</event>
<event>
 8    1  0.3217375E-004  0.1799139E+03  0.7546771E-02  0.1173264E+00
         -2   -1    0    0    0  501 -0.00000000000E+00  0.00000000000E+00  0.46096427686E+02  0.46096427686E+02  0.00000000000E+00 0.  1.
          2   -1    0    0  501    0  0.00000000000E+00 -0.00000000000E+00 -0.62482667242E+03  0.62482667242E+03  0.00000000000E+00 0. -1.
         25    2    1    2    0    0 -0.12786888813E+03  0.19865739211E+02 -0.29079174258E+03  0.34194862973E+03  0.12499571064E+03 0.  0.
         23    2    1    2    0    0  0.12786888813E+03 -0.19865739211E+02 -0.28793850216E+03  0.32897447038E+03  0.92577108346E+02 0.  0.
          5    1    3    3  502    0 -0.10082212670E+03 -0.17399226079E+02 -0.27432629934E+03  0.29282220341E+03  0.47000000000E+01 0.  1.
         -5    1    4    4    0  503  0.10392028058E+03 -0.44963162063E+02 -0.15824810713E+03  0.19464240049E+03  0.47000000000E+01 0.  1.
          5    1    4    4  503    0  0.23948607545E+02  0.25097422851E+02 -0.12969039503E+03  0.13433206989E+03  0.47000000000E+01 0. -1.
         -5    1    3    3    0  502 -0.27046761428E+02  0.37264965291E+02 -0.16465443235E+02  0.49126426318E+02  0.47000000000E+01 0.  1.
<mgrwt>
<rscale>  0 0.17447058E+03</rscale>
<asrwt>0</asrwt>
<pdfrwt beam="1">  1        2 0.96127171E-01 0.17991395E+03</pdfrwt>
<pdfrwt beam="2">  1       -2 0.70917588E-02 0.17991395E+03</pdfrwt>
<totfact> 0.53784664E+03</totfact>
</mgrwt>
</event>
<event>
 8    1  0.3217375E-004  0.1262307E+03  0.7546771E-02  0.1249046E+00
          2   -1    0    0  501    0  0.00000000000E+00  0.00000000000E+00  0.98405376293E+02  0.98405376293E+02  0.00000000000E+00 0. -1.
         -2   -1    0    0    0  501 -0.00000000000E+00 -0.00000000000E+00 -0.12041128372E+03  0.12041128372E+03  0.00000000000E+00 0.  1.
         25    2    1    2    0    0 -0.16993389795E+02 -0.47717815195E+01 -0.13549875592E+02  0.12695585741E+03  0.12499058127E+03 0.  0.
         23    2    1    2    0    0  0.16993389795E+02  0.47717815195E+01 -0.84560318359E+01  0.91860802604E+02  0.89751642799E+02 0.  0.
          5    1    3    3  502    0  0.41147960696E+02 -0.30939476627E+02 -0.31518881806E+02  0.60546971796E+02  0.47000000000E+01 0.  1.
         -5    1    4    4    0  503 -0.19202944210E+02  0.16344414046E+02 -0.36348402839E+02  0.44488080716E+02  0.47000000000E+01 0.  1.
          5    1    4    4  503    0  0.36196334005E+02 -0.11572632526E+02  0.27892371003E+02  0.47372721888E+02  0.47000000000E+01 0. -1.
         -5    1    3    3    0  502 -0.58141350490E+02  0.26167695108E+02  0.17969006214E+02  0.66408885613E+02  0.47000000000E+01 0.  1.
<mgrwt>
<rscale>  0 0.11646471E+03</rscale>
<asrwt>0</asrwt>
<pdfrwt beam="1">  1        2 0.15139289E-01 0.12623070E+03</pdfrwt>
<pdfrwt beam="2">  1       -2 0.18524813E-01 0.12623070E+03</pdfrwt>
<totfact> 0.86559037E+03</totfact>
</mgrwt>
</event>
<event>
 8    1  0.3217375E-004  0.2328395E+03  0.7546771E-02  0.1127608E+00
         -2   -1    0    0    0  501 -0.00000000000E+00  0.00000000000E+00  0.41676672965E+02  0.41676672965E+02  0.00000000000E+00 0.  1.
          2   -1    0    0  501    0  0.00000000000E+00 -0.00000000000E+00 -0.16063789318E+04  0.16063789318E+04  0.00000000000E+00 0. -1.
         25    2    1    2    0    0 -0.12201335632E+03 -0.15394940410E+03 -0.12125231454E+04  0.12346767286E+04  0.12500627221E+03 0.  0.
         23    2    1    2    0    0  0.12201335632E+03  0.15394940410E+03 -0.35217911346E+03  0.41337887610E+03  0.90908135523E+02 0.  0.
          5    1    3    3  502    0 -0.47361164950E+02 -0.30468703019E+01 -0.11803564710E+03  0.12730619526E+03  0.47000000000E+01 0. -1.
         -5    1    4    4    0  503  0.10680317509E+02  0.80763480583E+02 -0.11046086308E+03  0.13733354015E+03  0.47000000000E+01 0.  1.
          5    1    4    4  503    0  0.11133303881E+03  0.73185923518E+02 -0.24171825038E+03  0.27604533595E+03  0.47000000000E+01 0. -1.
         -5    1    3    3    0  502 -0.74652191373E+02 -0.15090253380E+03 -0.10944874983E+04  0.11073705334E+04  0.47000000000E+01 0. -1.
<mgrwt>
<rscale>  0 0.22863016E+03</rscale>
<asrwt>0</asrwt>
<pdfrwt beam="1">  1        2 0.24713522E+00 0.23283953E+03</pdfrwt>
<pdfrwt beam="2">  1       -2 0.64117957E-02 0.23283953E+03</pdfrwt>
<totfact> 0.16029972E+03</totfact>
</mgrwt>
</event>
<event>
 8    1  0.3217375E-004  0.1298743E+03  0.7546771E-02  0.1241013E+00
         -1   -1    0    0    0  501 -0.00000000000E+00  0.00000000000E+00  0.32173146464E+02  0.32173146464E+02  0.00000000000E+00 0.  1.
          1   -1    0    0  501    0  0.00000000000E+00 -0.00000000000E+00 -0.48450669838E+03  0.48450669838E+03  0.00000000000E+00 0. -1.
         25    2    1    2    0    0 -0.21040915536E+01 -0.35192099235E+02 -0.35509975447E+03  0.37810470925E+03  0.12499769789E+03 0.  0.
         23    2    1    2    0    0  0.21040915536E+01  0.35192099235E+02 -0.97233797443E+02  0.13857513560E+03  0.92226600232E+02 0.  0.
          5    1    4    4  502    0  0.27243817861E+02  0.91216953343E+01 -0.97809307654E+02  0.10204989760E+03  0.47000000000E+01 0. -1.
         -5    1    4    4    0  502 -0.25139726307E+02  0.26070403900E+02  0.57551021085E+00  0.36525237991E+02  0.47000000000E+01 0.  1.
          5    1    3    3  503    0  0.17906700698E+02 -0.64233970060E+02 -0.32407518473E+03  0.33089797249E+03  0.47000000000E+01 0.  1.
         -5    1    3    3    0  503 -0.20010792251E+02  0.29041870825E+02 -0.31024569740E+02  0.47206736755E+02  0.47000000000E+01 0.  1.
<mgrwt>
<rscale>  0 0.12127200E+03</rscale>
<asrwt>0</asrwt>
<pdfrwt beam="1">  1        1 0.74539495E-01 0.12987431E+03</pdfrwt>
<pdfrwt beam="2">  1       -1 0.49497147E-02 0.12987431E+03</pdfrwt>
<totfact> 0.80186770E+03</totfact>
</mgrwt>
</event>
<event>
 8    1  0.3217375E-004  0.1394644E+03  0.7546771E-02  0.1225083E+00
         -2   -1    0    0    0  501 -0.00000000000E+00  0.00000000000E+00  0.32421473505E+03  0.32421473505E+03  0.00000000000E+00 0.  1.
          2   -1    0    0  501    0  0.00000000000E+00 -0.00000000000E+00 -0.51991726451E+02  0.51991726451E+02  0.00000000000E+00 0. -1.
         25    2    1    2    0    0  0.24661796335E+02  0.56720776202E+02  0.20101756910E+03  0.24465969943E+03  0.12499941915E+03 0.  0.
         23    2    1    2    0    0 -0.24661796335E+02 -0.56720776202E+02  0.71205439499E+02  0.13154676207E+03  0.91699974618E+02 0.  0.
          5    1    4    4  502    0 -0.10410239389E+02 -0.24196182680E+02 -0.20100791832E+02  0.33465806022E+02  0.47000000000E+01 0. -1.
         -5    1    4    4    0  502 -0.14251556946E+02 -0.32524593522E+02  0.91306231331E+02  0.98080956047E+02  0.47000000000E+01 0.  1.
          5    1    3    3  503    0 -0.41507497439E+02  0.59376654584E+02  0.11506365660E+03  0.13605217574E+03  0.47000000000E+01 0. -1.
         -5    1    3    3    0  503  0.66169293774E+02 -0.26558783824E+01  0.85953912505E+02  0.10860752370E+03  0.47000000000E+01 0. -1.
<mgrwt>
<rscale>  0 0.13161184E+03</rscale>
<asrwt>0</asrwt>
<pdfrwt beam="1">  1        2 0.79987273E-02 0.13946435E+03</pdfrwt>
<pdfrwt beam="2">  1       -2 0.49879189E-01 0.13946435E+03</pdfrwt>
<totfact> 0.31493380E+03</totfact>
</mgrwt>
</event>
<event>
 8    1  0.3217375E-004  0.1624549E+03  0.7546771E-02  0.1193406E+00
          1   -1    0    0  501    0  0.00000000000E+00  0.00000000000E+00  0.28404533263E+03  0.28404533263E+03  0.00000000000E+00 0. -1.
         -1   -1    0    0    0  501 -0.00000000000E+00 -0.00000000000E+00 -0.80150249931E+02  0.80150249931E+02  0.00000000000E+00 0.  1.
         25    2    1    2    0    0  0.94823351413E+02 -0.42128958023E+02  0.91941260200E+02  0.18666755410E+03  0.12500105340E+03 0.  0.
         23    2    1    2    0    0 -0.94823351413E+02  0.42128958023E+02  0.11195382250E+03  0.17752802846E+03  0.90643397106E+02 0.  0.
          5    1    4    4  502    0 -0.10760729563E+03  0.23972494089E+02  0.10816242067E+03  0.15451605027E+03  0.47000000000E+01 0. -1.
         -5    1    4    4    0  502  0.12783944216E+02  0.18156463935E+02  0.37914018276E+01  0.23011978189E+02  0.47000000000E+01 0.  1.
          5    1    3    3  503    0  0.72432795882E+02 -0.31535785631E+02 -0.11703437219E+02  0.80000475858E+02  0.47000000000E+01 0. -1.
         -5    1    3    3    0  503  0.22390555531E+02 -0.10593172392E+02  0.10364469742E+03  0.10666707825E+03  0.47000000000E+01 0. -1.
<mgrwt>
<rscale>  0 0.15589918E+03</rscale>
<asrwt>0</asrwt>
<pdfrwt beam="1">  1        1 0.43699281E-01 0.16245486E+03</pdfrwt>
<pdfrwt beam="2">  1       -1 0.12330808E-01 0.16245486E+03</pdfrwt>
<totfact> 0.40061595E+03</totfact>
</mgrwt>
</event>
<event>
 8    1  0.3217375E-004  0.1399110E+03  0.7546771E-02  0.1224499E+00
         -1   -1    0    0    0  501 -0.00000000000E+00  0.00000000000E+00  0.16843193154E+03  0.16843193154E+03  0.00000000000E+00 0.  1.
          1   -1    0    0  501    0  0.00000000000E+00 -0.00000000000E+00 -0.10419696746E+03  0.10419696746E+03  0.00000000000E+00 0. -1.
         25    2    1    2    0    0  0.39670679220E+02  0.48733984244E+02  0.79130033665E+02  0.16073782088E+03  0.12500528318E+03 0.  0.
         23    2    1    2    0    0 -0.39670679220E+02 -0.48733984244E+02 -0.14895069587E+02  0.11189107813E+03  0.91372787287E+02 0.  0.
          5    1    3    3  502    0 -0.29954836504E+02 -0.21953702103E+02  0.72567379798E+01  0.38131450433E+02  0.47000000000E+01 0.  1.
         -5    1    4    4    0  503 -0.45494968640E+02 -0.31261129378E+01  0.23763524536E+02  0.51636807143E+02  0.47000000000E+01 0.  1.
          5    1    4    4  503    0  0.58242894196E+01 -0.45607871307E+02 -0.38658594122E+02  0.60254270985E+02  0.47000000000E+01 0. -1.
         -5    1    3    3    0  502  0.69625515724E+02  0.70687686347E+02  0.71873295685E+02  0.12260637044E+03  0.47000000000E+01 0.  1.
<mgrwt>
<rscale>  0 0.13201311E+03</rscale>
<asrwt>0</asrwt>
<pdfrwt beam="1">  1        1 0.16030303E-01 0.13991099E+03</pdfrwt>
<pdfrwt beam="2">  1       -1 0.25912605E-01 0.13991099E+03</pdfrwt>
<totfact> 0.42921149E+03</totfact>
</mgrwt>
</event>
<event>
 8    1  0.3217375E-004  0.1743262E+03  0.7546771E-02  0.1179519E+00
          2   -1    0    0  501    0  0.00000000000E+00  0.00000000000E+00  0.16762001556E+03  0.16762001556E+03  0.00000000000E+00 0. -1.
         -2   -1    0    0    0  501 -0.00000000000E+00 -0.00000000000E+00 -0.16373928331E+03  0.16373928331E+03  0.00000000000E+00 0.  1.
         25    2    1    2    0    0 -0.44946318869E+02  0.11288603781E+03  0.31185907309E+02  0.17709372505E+03  0.12500479001E+03 0.  0.
         23    2    1    2    0    0  0.44946318869E+02 -0.11288603781E+03 -0.27305175067E+02  0.15426557382E+03  0.91043207155E+02 0.  0.
          5    1    3    3  502    0  0.30646860474E+02  0.10572507692E+02  0.37309468177E+02  0.49649716932E+02  0.47000000000E+01 0.  1.
         -5    1    4    4    0  503  0.64509729926E+02 -0.65568576200E+02 -0.41358473794E+02  0.10096215526E+03  0.47000000000E+01 0.  1.
          5    1    4    4  503    0 -0.19563411058E+02 -0.47317461607E+02  0.14053298727E+02  0.53303418561E+02  0.47000000000E+01 0. -1.
         -5    1    3    3    0  502 -0.75593179342E+02  0.10231353011E+03 -0.61235608686E+01  0.12744400812E+03  0.47000000000E+01 0.  1.
<mgrwt>
<rscale>  0 0.16840744E+03</rscale>
<asrwt>0</asrwt>
<pdfrwt beam="1">  1        2 0.25787695E-01 0.17432621E+03</pdfrwt>
<pdfrwt beam="2">  1       -2 0.25190659E-01 0.17432621E+03</pdfrwt>
<totfact> 0.28476965E+03</totfact>
</mgrwt>
</event>
<event>
 8    1  0.3217375E-004  0.1899698E+03  0.7546771E-02  0.1163394E+00
         -2   -1    0    0    0  501 -0.00000000000E+00  0.00000000000E+00  0.15521824932E+03  0.15521824932E+03  0.00000000000E+00 0.  1.
          2   -1    0    0  501    0  0.00000000000E+00 -0.00000000000E+00 -0.44733083832E+03  0.44733083832E+03  0.00000000000E+00 0. -1.
         25    2    1    2    0    0 -0.31471719945E+02 -0.13954938546E+03  0.70217435647E+02  0.20253149252E+03  0.12499606815E+03 0.  0.
         23    2    1    2    0    0  0.31471719945E+02  0.13954938546E+03 -0.36233002464E+03  0.40001759513E+03  0.90920457063E+02 0.  0.
          5    1    4    4  502    0  0.21684255984E+02  0.69557801432E+01 -0.13195673487E+03  0.13398977465E+03  0.47000000000E+01 0. -1.
         -5    1    4    4    0  502  0.97874639611E+01  0.13259360532E+03 -0.23037328978E+03  0.26602782047E+03  0.47000000000E+01 0. -1.
          5    1    3    3  503    0 -0.23944483671E+02  0.18995727588E+02  0.76447962566E+01  0.31854495361E+02  0.47000000000E+01 0. -1.
         -5    1    3    3    0  503 -0.75272362738E+01 -0.15854511305E+03  0.62572639390E+02  0.17067699716E+03  0.47000000000E+01 0. -1.
<mgrwt>
<rscale>  0 0.18463213E+03</rscale>
<asrwt>0</asrwt>
<pdfrwt beam="1">  1        2 0.68820127E-01 0.18996978E+03</pdfrwt>
<pdfrwt beam="2">  1       -2 0.23879731E-01 0.18996978E+03</pdfrwt>
<totfact> 0.10850948E+03</totfact>
</mgrwt>
</event>
<event>
 8    1  0.3217375E-004  0.1576513E+03  0.7546771E-02  0.1199423E+00
         -1   -1    0    0    0  501 -0.00000000000E+00  0.00000000000E+00  0.31266234762E+02  0.31266234762E+02  0.00000000000E+00 0.  1.
          1   -1    0    0  501    0  0.00000000000E+00 -0.00000000000E+00 -0.67169600614E+03  0.67169600614E+03  0.00000000000E+00 0. -1.
         25    2    1    2    0    0  0.35033967119E+02  0.89432840731E+02 -0.34711076713E+03  0.38123458633E+03  0.12501325250E+03 0.  0.
         23    2    1    2    0    0 -0.35033967119E+02 -0.89432840731E+02 -0.29331900425E+03  0.32172765458E+03  0.90813179737E+02 0.  0.
          5    1    3    3  502    0  0.69642940698E+02  0.47404880562E+02 -0.11414519365E+03  0.14194568371E+03  0.47000000000E+01 0.  1.
         -5    1    4    4    0  503 -0.47578131743E+02 -0.34185231523E+02 -0.70574059693E+02  0.91842781839E+02  0.47000000000E+01 0.  1.
          5    1    4    4  503    0  0.12544164624E+02 -0.55247609208E+02 -0.22274494455E+03  0.22988487274E+03  0.47000000000E+01 0. -1.
         -5    1    3    3    0  502 -0.34608973579E+02  0.42027960169E+02 -0.23296557349E+03  0.23928890262E+03  0.47000000000E+01 0.  1.
<mgrwt>
<rscale>  0 0.15085786E+03</rscale>
<asrwt>0</asrwt>
<pdfrwt beam="1">  1        1 0.10333785E+00 0.15765128E+03</pdfrwt>
<pdfrwt beam="2">  1       -1 0.48101900E-02 0.15765128E+03</pdfrwt>
<totfact> 0.54427763E+03</totfact>
</mgrwt>
</event>
<event>
 8    1  0.3217375E-004  0.1496273E+03  0.7546771E-02  0.1209956E+00
         -1   -1    0    0    0  501 -0.00000000000E+00  0.00000000000E+00  0.46447981927E+02  0.46447981927E+02  0.00000000000E+00 0.  1.
          1   -1    0    0  501    0  0.00000000000E+00 -0.00000000000E+00 -0.56748157432E+03  0.56748157432E+03  0.00000000000E+00 0. -1.
         25    2    1    2    0    0  0.38127147683E+02 -0.72872017580E+02 -0.11245350221E+03  0.18717401732E+03  0.12499724903E+03 0.  0.
         23    2    1    2    0    0 -0.38127147683E+02  0.72872017580E+02 -0.40858009019E+03  0.42675553892E+03  0.91752872275E+02 0.  0.
          5    1    4    4  502    0 -0.59973053413E+02  0.16597762463E+02 -0.22133243493E+03  0.22996171335E+03  0.47000000000E+01 0. -1.
         -5    1    4    4    0  502  0.21845905730E+02  0.56274255117E+02 -0.18724765526E+03  0.19679382558E+03  0.47000000000E+01 0.  1.
          5    1    3    3  503    0  0.37776459762E+02 -0.10716870713E+03 -0.96065766297E+02  0.14887214029E+03  0.47000000000E+01 0. -1.
         -5    1    3    3    0  503  0.35068792110E+00  0.34296689548E+02 -0.16387735908E+02  0.38301877032E+02  0.47000000000E+01 0. -1.
<mgrwt>
<rscale>  0 0.14253659E+03</rscale>
<asrwt>0</asrwt>
<pdfrwt beam="1">  1        1 0.87304856E-01 0.14962728E+03</pdfrwt>
<pdfrwt beam="2">  1       -1 0.71458435E-02 0.14962728E+03</pdfrwt>
<totfact> 0.37946369E+03</totfact>
</mgrwt>
</event>
<event>
 8    1  0.3217375E-004  0.1331731E+03  0.7546771E-02  0.1235516E+00
          1   -1    0    0  501    0  0.00000000000E+00  0.00000000000E+00  0.11355312177E+03  0.11355312177E+03  0.00000000000E+00 0. -1.
         -1   -1    0    0    0  501 -0.00000000000E+00 -0.00000000000E+00 -0.12305664913E+03  0.12305664913E+03  0.00000000000E+00 0.  1.
         25    2    1    2    0    0  0.40283807367E+02 -0.22077942260E+02  0.43746315700E+01  0.13324492546E+03  0.12499940835E+03 0.  0.
         23    2    1    2    0    0 -0.40283807367E+02  0.22077942260E+02 -0.13878158923E+02  0.10336484544E+03  0.91550353943E+02 0.  0.
          5    1    4    4  502    0  0.32352998689E+01 -0.27098696171E+02 -0.24135998046E+02  0.36734764203E+02  0.47000000000E+01 0. -1.
         -5    1    3    3    0  503  0.23898796215E+02  0.44186097937E+00 -0.59016482500E+02  0.63846557529E+02  0.47000000000E+01 0. -1.
          5    1    3    3  503    0  0.16385011152E+02 -0.22519803239E+02  0.63391114070E+02  0.69398367930E+02  0.47000000000E+01 0. -1.
         -5    1    4    4    0  502 -0.43519107236E+02  0.49176638431E+02  0.10257839123E+02  0.66630081235E+02  0.47000000000E+01 0.  1.
<mgrwt>
<rscale>  0 0.12471481E+03</rscale>
<asrwt>0</asrwt>
<pdfrwt beam="1">  1        1 0.17469711E-01 0.13317309E+03</pdfrwt>
<pdfrwt beam="2">  1       -1 0.18931792E-01 0.13317309E+03</pdfrwt>
<totfact> 0.63749853E+03</totfact>
</mgrwt>
</event>
<event>
 8    1  0.3217375E-004  0.1334871E+03  0.7546771E-02  0.1234971E+00
         -2   -1    0    0    0  501 -0.00000000000E+00  0.00000000000E+00  0.10019827382E+03  0.10019827382E+03  0.00000000000E+00 0.  1.
          2   -1    0    0  501    0  0.00000000000E+00 -0.00000000000E+00 -0.13936116561E+03  0.13936116561E+03  0.00000000000E+00 0. -1.
         25    2    1    2    0    0  0.36820792924E+02  0.29022865570E+02 -0.21617336475E+02  0.13522619392E+03  0.12498286590E+03 0.  0.
         23    2    1    2    0    0 -0.36820792924E+02 -0.29022865570E+02 -0.17545555323E+02  0.10433324551E+03  0.91539511081E+02 0.  0.
          5    1    4    4  502    0 -0.39359975069E+02  0.18178295503E+02 -0.32660992870E+02  0.54483837237E+02  0.47000000000E+01 0. -1.
         -5    1    4    4    0  502  0.25391821450E+01 -0.47201161073E+02  0.15115437547E+02  0.49849408269E+02  0.47000000000E+01 0.  1.
          5    1    3    3  503    0  0.50046959164E+02  0.12083637860E+02  0.42824846443E+02  0.67132480204E+02  0.47000000000E+01 0. -1.
         -5    1    3    3    0  503 -0.13226166240E+02  0.16939227710E+02 -0.64442182918E+02  0.68093713719E+02  0.47000000000E+01 0. -1.
<mgrwt>
<rscale>  0 0.12506271E+03</rscale>
<asrwt>0</asrwt>
<pdfrwt beam="1">  1        2 0.21440179E-01 0.13348713E+03</pdfrwt>
<pdfrwt beam="2">  1       -2 0.15415119E-01 0.13348713E+03</pdfrwt>
<totfact> 0.79149159E+03</totfact>
</mgrwt>
</event>
<event>
 8    1  0.3217375E-004  0.2036670E+03  0.7546771E-02  0.1149936E+00
          1   -1    0    0  501    0  0.00000000000E+00  0.00000000000E+00  0.23373162917E+03  0.23373162917E+03  0.00000000000E+00 0. -1.
         -1   -1    0    0    0  501 -0.00000000000E+00 -0.00000000000E+00 -0.18001112735E+03  0.18001112735E+03  0.00000000000E+00 0.  1.
         25    2    1    2    0    0  0.14998430450E+02 -0.16009166206E+03 -0.32859818814E+02  0.20630081429E+03  0.12500386037E+03 0.  0.
         23    2    1    2    0    0 -0.14998430450E+02  0.16009166206E+03  0.86580320631E+02  0.20744194223E+03  0.98395702628E+02 0.  0.
          5    1    4    4  502    0  0.28662420971E+01  0.10241774127E+03  0.96146997019E+00  0.10257009065E+03  0.47000000000E+01 0. -1.
         -5    1    3    3    0  503  0.51239388163E+02 -0.59191557415E+02  0.27579386425E+02  0.83137403881E+02  0.47000000000E+01 0. -1.
          5    1    3    3  503    0 -0.36240957714E+02 -0.10090010465E+03 -0.60439205239E+02  0.12316341041E+03  0.47000000000E+01 0. -1.
         -5    1    4    4    0  502 -0.17864672547E+02  0.57673920788E+02  0.85618850661E+02  0.10487185158E+03  0.47000000000E+01 0.  1.
<mgrwt>
<rscale>  0 0.19976717E+03</rscale>
<asrwt>0</asrwt>
<pdfrwt beam="1">  1        1 0.35958712E-01 0.20366703E+03</pdfrwt>
<pdfrwt beam="2">  1       -1 0.27694019E-01 0.20366703E+03</pdfrwt>
<totfact> 0.14005778E+03</totfact>
</mgrwt>
</event>
<event>
 8    1  0.3217375E-004  0.1632949E+03  0.7546771E-02  0.1191605E+00
          2   -1    0    0  501    0  0.00000000000E+00  0.00000000000E+00  0.56158224120E+03  0.56158224120E+03  0.00000000000E+00 0. -1.
         -2   -1    0    0    0  501 -0.00000000000E+00 -0.00000000000E+00 -0.44367665316E+02  0.44367665316E+02  0.00000000000E+00 0.  1.
         25    2    1    2    0    0 -0.95424044392E+02 -0.43982955857E+02  0.35609388060E+03  0.39175002349E+03  0.12499992179E+03 0.  0.
         23    2    1    2    0    0  0.95424044392E+02  0.43982955857E+02  0.16112069528E+03  0.21419988303E+03  0.94241513075E+02 0.  0.
          5    1    4    4  502    0  0.41560987634E+02  0.29306196490E+01  0.13516762484E+03  0.14152130945E+03  0.47000000000E+01 0. -1.
         -5    1    4    4    0  502  0.53863056758E+02  0.41052336208E+02  0.25953070443E+02  0.72678573575E+02  0.47000000000E+01 0.  1.
          5    1    3    3  503    0 -0.61344028775E+02 -0.87430671029E+02  0.21364267909E+03  0.23889850655E+03  0.47000000000E+01 0. -1.
         -5    1    3    3    0  503 -0.34080015617E+02  0.43447715171E+02  0.14245120151E+03  0.15285151694E+03  0.47000000000E+01 0. -1.
<mgrwt>
<rscale>  0 0.15745096E+03</rscale>
<asrwt>0</asrwt>
<pdfrwt beam="1">  1        2 0.86397263E-01 0.16329491E+03</pdfrwt>
<pdfrwt beam="2">  1       -2 0.68257951E-02 0.16329491E+03</pdfrwt>
<totfact> 0.64161464E+03</totfact>
</mgrwt>
</event>
<event>
 8    1  0.3217375E-004  0.1612229E+03  0.7546771E-02  0.1194241E+00
         -4   -1    0    0    0  501 -0.00000000000E+00  0.00000000000E+00  0.71764362357E+02  0.71764362357E+02  0.00000000000E+00 0. -1.
          4   -1    0    0  501    0  0.00000000000E+00 -0.00000000000E+00 -0.31313510354E+03  0.31313510354E+03  0.00000000000E+00 0.  1.
         25    2    1    2    0    0  0.63385320524E+02  0.79687353952E+02 -0.13668249697E+03  0.21136447945E+03  0.12500025983E+03 0.  0.
         23    2    1    2    0    0 -0.63385320524E+02 -0.79687353952E+02 -0.10468824422E+03  0.17353498645E+03  0.93738944979E+02 0.  0.
          5    1    4    4  502    0 -0.43686513111E+02 -0.26945798730E+02  0.33131701673E+01  0.51649342625E+02  0.47000000000E+01 0. -1.
         -5    1    4    4    0  502 -0.19698807413E+02 -0.52741555221E+02 -0.10800141438E+03  0.12188564382E+03  0.47000000000E+01 0.  1.
          5    1    3    3  503    0  0.49057871922E+01  0.61193899063E+02 -0.13661753532E+03  0.14985059555E+03  0.47000000000E+01 0. -1.
         -5    1    3    3    0  503  0.58479533332E+02  0.18493454888E+02 -0.64961648741E-01  0.61513883900E+02  0.47000000000E+01 0. -1.
<mgrwt>
<rscale>  0 0.15518679E+03</rscale>
<asrwt>0</asrwt>
<pdfrwt beam="1">  1        4 0.48174630E-01 0.16122295E+03</pdfrwt>
<pdfrwt beam="2">  1       -4 0.11040671E-01 0.16122295E+03</pdfrwt>
<totfact> 0.46012560E+02</totfact>
</mgrwt>
</event>
<event>
 8    1  0.3217375E-004  0.2196695E+03  0.7546771E-02  0.1137550E+00
         -1   -1    0    0    0  501 -0.00000000000E+00  0.00000000000E+00  0.77668612037E+02  0.77668612037E+02  0.00000000000E+00 0.  1.
          1   -1    0    0  501    0  0.00000000000E+00 -0.00000000000E+00 -0.10280282184E+04  0.10280282184E+04  0.00000000000E+00 0. -1.
         25    2    1    2    0    0 -0.13087925485E+03 -0.12450343786E+03 -0.85392156343E+03  0.88172371719E+03  0.12499676627E+03 0.  0.
         23    2    1    2    0    0  0.13087925485E+03  0.12450343786E+03 -0.96438042979E+02  0.22397311329E+03  0.90736839020E+02 0.  0.
          5    1    3    3  502    0  0.24626809680E+02 -0.13669092804E+02 -0.10262276743E+03  0.10652157644E+03  0.47000000000E+01 0.  1.
         -5    1    4    4    0  503  0.72534476817E+02  0.10776937884E+03 -0.29124746340E+02  0.13321347601E+03  0.47000000000E+01 0.  1.
          5    1    4    4  503    0  0.58344778028E+02  0.16734059026E+02 -0.67313296639E+02  0.90759637279E+02  0.47000000000E+01 0. -1.
         -5    1    3    3    0  502 -0.15550606453E+03 -0.11083434506E+03 -0.75129879600E+03  0.77520214075E+03  0.47000000000E+01 0.  1.
<mgrwt>
<rscale>  0 0.21515153E+03</rscale>
<asrwt>0</asrwt>
<pdfrwt beam="1">  1        1 0.15815819E+00 0.21966947E+03</pdfrwt>
<pdfrwt beam="2">  1       -1 0.11949017E-01 0.21966947E+03</pdfrwt>
<totfact> 0.70725306E+02</totfact>
</mgrwt>
</event>
<event>
 8    1  0.3217375E-004  0.1508422E+03  0.7546771E-02  0.1208245E+00
         -2   -1    0    0    0  501 -0.00000000000E+00  0.00000000000E+00  0.32147710147E+02  0.32147710147E+02  0.00000000000E+00 0.  1.
          2   -1    0    0  501    0  0.00000000000E+00 -0.00000000000E+00 -0.11274698733E+04  0.11274698733E+04  0.00000000000E+00 0. -1.
         25    2    1    2    0    0  0.66526145667E+02 -0.52004042584E+02 -0.17567924693E+03  0.23155248613E+03  0.12499282990E+03 0.  0.
         23    2    1    2    0    0 -0.66526145667E+02  0.52004042584E+02 -0.91964291621E+03  0.92806509731E+03  0.91823651644E+02 0.  0.
          5    1    3    3  502    0 -0.24348809099E+02 -0.28948241295E+01  0.29635548635E+01  0.25141940433E+02  0.47000000000E+01 0. -1.
         -5    1    3    3    0  502  0.90874954766E+02 -0.49109218455E+02 -0.17864280179E+03  0.20641054569E+03  0.47000000000E+01 0. -1.
          5    1    4    4  503    0 -0.40895516829E+02  0.72786860887E+02 -0.78136705321E+03  0.78582881867E+03  0.47000000000E+01 0. -1.
         -5    1    4    4    0  503 -0.25630628838E+02 -0.20782818303E+02 -0.13827586301E+03  0.14223627864E+03  0.47000000000E+01 0.  1.
<mgrwt>
<rscale>  0 0.14384650E+03</rscale>
<asrwt>0</asrwt>
<pdfrwt beam="1">  1        2 0.17345688E+00 0.15084216E+03</pdfrwt>
<pdfrwt beam="2">  1       -2 0.49458023E-02 0.15084216E+03</pdfrwt>
<totfact> 0.43145367E+03</totfact>
</mgrwt>
</event>
<event>
 8    1  0.3217375E-004  0.1599747E+03  0.7546771E-02  0.1196198E+00
         -1   -1    0    0    0  501 -0.00000000000E+00  0.00000000000E+00  0.29182335382E+02  0.29182335382E+02  0.00000000000E+00 0.  1.
          1   -1    0    0  501    0  0.00000000000E+00 -0.00000000000E+00 -0.79339914154E+03  0.79339914154E+03  0.00000000000E+00 0. -1.
         25    2    1    2    0    0 -0.85104276187E+02 -0.52206447136E+02 -0.50862850217E+03  0.53319309109E+03  0.12499467279E+03 0.  0.
         23    2    1    2    0    0  0.85104276187E+02  0.52206447136E+02 -0.25558830399E+03  0.28938838583E+03  0.91934790844E+02 0.  0.
          5    1    4    4  502    0  0.31267628012E+02  0.39964002097E+02 -0.21432876225E+03  0.22030364126E+03  0.47000000000E+01 0. -1.
         -5    1    3    3    0  503 -0.60738119360E+02 -0.54923112692E+02 -0.50014683141E+03  0.50682798898E+03  0.47000000000E+01 0. -1.
          5    1    3    3  503    0 -0.24366156828E+02  0.27166655565E+01 -0.84816707590E+01  0.26365102108E+02  0.47000000000E+01 0. -1.
         -5    1    4    4    0  502  0.53836648176E+02  0.12242445039E+02 -0.41259541741E+02  0.69084744568E+02  0.47000000000E+01 0.  1.
<mgrwt>
<rscale>  0 0.15353257E+03</rscale>
<asrwt>0</asrwt>
<pdfrwt beam="1">  1        1 0.12206140E+00 0.15997475E+03</pdfrwt>
<pdfrwt beam="2">  1       -1 0.44895903E-02 0.15997475E+03</pdfrwt>
<totfact> 0.47293474E+03</totfact>
</mgrwt>
</event>
<event>
 8    1  0.3217375E-004  0.1314083E+03  0.7546771E-02  0.1237858E+00
          1   -1    0    0  501    0  0.00000000000E+00  0.00000000000E+00  0.33667067540E+03  0.33667067540E+03  0.00000000000E+00 0. -1.
         -1   -1    0    0    0  501 -0.00000000000E+00 -0.00000000000E+00 -0.68217628111E+02  0.68217628111E+02  0.00000000000E+00 0.  1.
         25    2    1    2    0    0  0.11367479001E+02  0.38917446595E+02  0.15546055094E+02  0.13232463795E+03  0.12499737098E+03 0.  0.
         23    2    1    2    0    0 -0.11367479001E+02 -0.38917446595E+02  0.25290699219E+03  0.27256366556E+03  0.93194516231E+02 0.  0.
          5    1    3    3  502    0 -0.41438497765E+02  0.41403575657E+02  0.42764232292E+02  0.72679259336E+02  0.47000000000E+01 0. -1.
         -5    1    3    3    0  502  0.52805976765E+02 -0.24861290625E+01 -0.27218177198E+02  0.59645378613E+02  0.47000000000E+01 0. -1.
          5    1    4    4  503    0  0.14038812712E+02 -0.60673062683E+02  0.20229419137E+03  0.21171523010E+03  0.47000000000E+01 0. -1.
         -5    1    4    4    0  503 -0.25406291713E+02  0.21755616088E+02  0.50612800827E+02  0.60848435456E+02  0.47000000000E+01 0.  1.
<mgrwt>
<rscale>  0 0.12323223E+03</rscale>
<asrwt>0</asrwt>
<pdfrwt beam="1">  1        1 0.51795487E-01 0.13140826E+03</pdfrwt>
<pdfrwt beam="2">  1       -1 0.10495020E-01 0.13140826E+03</pdfrwt>
<totfact> 0.41139163E+03</totfact>
</mgrwt>
</event>
<event>
 8    1  0.3217375E-004  0.1479652E+03  0.7546771E-02  0.1212493E+00
          1   -1    0    0  501    0  0.00000000000E+00  0.00000000000E+00  0.91180797865E+02  0.91180797865E+02  0.00000000000E+00 0. -1.
         -1   -1    0    0    0  501 -0.00000000000E+00 -0.00000000000E+00 -0.26738613208E+03  0.26738613208E+03  0.00000000000E+00 0.  1.
         25    2    1    2    0    0 -0.78445077009E+02  0.10712167736E+02 -0.18574889112E+03  0.23747918426E+03  0.12500132704E+03 0.  0.
         23    2    1    2    0    0  0.78445077009E+02 -0.10712167736E+02  0.95435569022E+01  0.12108774568E+03  0.91119602894E+02 0.  0.
          5    1    3    3  502    0 -0.14762808296E+02 -0.20954520235E+02 -0.15935691558E+03  0.16147367888E+03  0.47000000000E+01 0.  1.
         -5    1    4    4    0  503  0.92643260374E+02  0.11952417117E+02  0.84723519141E+01  0.93912218133E+02  0.47000000000E+01 0.  1.
          5    1    4    4  503    0 -0.14198183366E+02 -0.22664584853E+02  0.10712049882E+01  0.27175527549E+02  0.47000000000E+01 0. -1.
         -5    1    3    3    0  502 -0.63682268713E+02  0.31666687971E+02 -0.26391975531E+02  0.76005505379E+02  0.47000000000E+01 0.  1.
<mgrwt>
<rscale>  0 0.14062306E+03</rscale>
<asrwt>0</asrwt>
<pdfrwt beam="1">  1        1 0.14027815E-01 0.14796524E+03</pdfrwt>
<pdfrwt beam="2">  1       -1 0.41136327E-01 0.14796524E+03</pdfrwt>
<totfact> 0.23287032E+03</totfact>
</mgrwt>
</event>
<event>
 8    1  0.3217375E-004  0.1514441E+03  0.7546771E-02  0.1207342E+00
          1   -1    0    0  501    0  0.00000000000E+00  0.00000000000E+00  0.14764340790E+03  0.14764340790E+03  0.00000000000E+00 0. -1.
         -1   -1    0    0    0  501 -0.00000000000E+00 -0.00000000000E+00 -0.18847924177E+03  0.18847924177E+03  0.00000000000E+00 0.  1.
         25    2    1    2    0    0 -0.28880463081E+02  0.80474564434E+02 -0.11503419358E+03  0.19017934951E+03  0.12500033047E+03 0.  0.
         23    2    1    2    0    0  0.28880463081E+02 -0.80474564434E+02  0.74198359703E+02  0.14594330016E+03  0.92107619722E+02 0.  0.
          5    1    4    4  502    0 -0.74081143459E+01 -0.30080965349E+02  0.77483416390E+02  0.83579390103E+02  0.47000000000E+01 0. -1.
         -5    1    4    4    0  502  0.36288577427E+02 -0.50393599086E+02 -0.32850566864E+01  0.62363910060E+02  0.47000000000E+01 0.  1.
          5    1    3    3  503    0 -0.69546355097E+02  0.29076874467E+02 -0.95245370181E+02  0.12155628604E+03  0.47000000000E+01 0. -1.
         -5    1    3    3    0  503  0.40665892016E+02  0.51397689967E+02 -0.19788823394E+02  0.68623063461E+02  0.47000000000E+01 0. -1.
<mgrwt>
<rscale>  0 0.14454431E+03</rscale>
<asrwt>0</asrwt>
<pdfrwt beam="1">  1        1 0.22714371E-01 0.15144411E+03</pdfrwt>
<pdfrwt beam="2">  1       -1 0.28996806E-01 0.15144411E+03</pdfrwt>
<totfact> 0.22894731E+03</totfact>
</mgrwt>
</event>
<event>
 8    1  0.3217375E-004  0.1479600E+03  0.7546771E-02  0.1212678E+00
         -2   -1    0    0    0  501 -0.00000000000E+00  0.00000000000E+00  0.44207780594E+02  0.44207780594E+02  0.00000000000E+00 0.  1.
          2   -1    0    0  501    0  0.00000000000E+00 -0.00000000000E+00 -0.48886372424E+03  0.48886372424E+03  0.00000000000E+00 0. -1.
         25    2    1    2    0    0  0.15272394993E+02  0.77678803892E+02 -0.35015496257E+03  0.38013244072E+03  0.12499972819E+03 0.  0.
         23    2    1    2    0    0 -0.15272394993E+02 -0.77678803892E+02 -0.94500981076E+02  0.15293906412E+03  0.90513420483E+02 0.  0.
          5    1    3    3  502    0 -0.12320512810E+02 -0.19268650502E+02 -0.10131831427E+02  0.25452307089E+02  0.47000000000E+01 0.  1.
         -5    1    3    3    0  502  0.27592907803E+02  0.96947454394E+02 -0.34002313115E+03  0.35468013363E+03  0.47000000000E+01 0.  1.
          5    1    4    4  503    0 -0.28985202160E+01 -0.53845460938E+02 -0.10926396854E+03  0.12193621244E+03  0.47000000000E+01 0. -1.
         -5    1    4    4    0  503 -0.12373874777E+02 -0.23833342954E+02  0.14762987467E+02  0.31002851680E+02  0.47000000000E+01 0.  1.
<mgrwt>
<rscale>  0 0.14048472E+03</rscale>
<asrwt>0</asrwt>
<pdfrwt beam="1">  1        2 0.75209805E-01 0.14796004E+03</pdfrwt>
<pdfrwt beam="2">  1       -2 0.68011969E-02 0.14796004E+03</pdfrwt>
<totfact> 0.74866059E+03</totfact>
</mgrwt>
</event>
<event>
 8    1  0.3217375E-004  0.1255077E+03  0.7546771E-02  0.1244201E+00
         -2   -1    0    0    0  501 -0.00000000000E+00  0.00000000000E+00  0.30786413212E+03  0.30786413212E+03  0.00000000000E+00 0.  1.
          2   -1    0    0  501    0  0.00000000000E+00 -0.00000000000E+00 -0.77180870190E+02  0.77180870190E+02  0.00000000000E+00 0. -1.
         25    2    1    2    0    0 -0.44320170882E+01  0.10386093212E+02 -0.74817416593E+01  0.12573049960E+03  0.12499867344E+03 0.  0.
         23    2    1    2    0    0  0.44320170882E+01 -0.10386093212E+02  0.23816500359E+03  0.25931450271E+03  0.10195061881E+03 0.  0.
          5    1    4    4  502    0  0.24223860075E+02  0.12941439850E+02  0.10848896249E+02  0.29900916577E+02  0.47000000000E+01 0. -1.
         -5    1    4    4    0  502 -0.19791842987E+02 -0.23327533063E+02  0.22731610734E+03  0.22941358614E+03  0.47000000000E+01 0.  1.
          5    1    3    3  503    0 -0.16938274739E+02 -0.15982293822E+02 -0.60517204770E+02  0.65013544282E+02  0.47000000000E+01 0.  1.
         -5    1    3    3    0  503  0.12506257651E+02  0.26368387034E+02  0.53035463111E+02  0.60716955314E+02  0.47000000000E+01 0.  1.
<mgrwt>
<rscale>  0 0.11933345E+03</rscale>
<asrwt>0</asrwt>
<pdfrwt beam="1">  1        2 0.11873980E-01 0.12550770E+03</pdfrwt>
<pdfrwt beam="2">  1       -2 0.47363712E-01 0.12550770E+03</pdfrwt>
<totfact> 0.21323690E+03</totfact>
</mgrwt>
</event>
<event>
 8    1  0.3217375E-004  0.1648299E+03  0.7546771E-02  0.1190241E+00
          2   -1    0    0  501    0  0.00000000000E+00  0.00000000000E+00  0.62648607880E+03  0.62648607880E+03  0.00000000000E+00 0. -1.
         -2   -1    0    0    0  501 -0.00000000000E+00 -0.00000000000E+00 -0.38372537722E+02  0.38372537722E+02  0.00000000000E+00 0.  1.
         25    2    1    2    0    0  0.10712210102E+03  0.82223387244E+01  0.26399893604E+03  0.31123037603E+03  0.12500462933E+03 0.  0.
         23    2    1    2    0    0 -0.10712210102E+03 -0.82223387244E+01  0.32411460504E+03  0.35362824049E+03  0.91977735847E+02 0.  0.
          5    1    4    4  502    0 -0.20492833151E+02 -0.98580082890E+01  0.20471915354E+03  0.20603193530E+03  0.47000000000E+01 0. -1.
         -5    1    3    3    0  503  0.13140316243E+03  0.26423751019E+02  0.21373621135E+03  0.25232967276E+03  0.47000000000E+01 0. -1.
          5    1    3    3  503    0 -0.24281061406E+02 -0.18201412294E+02  0.50262724690E+02  0.58900703271E+02  0.47000000000E+01 0. -1.
         -5    1    4    4    0  502 -0.86629267869E+02  0.16356695646E+01  0.11939545149E+03  0.14759630518E+03  0.47000000000E+01 0.  1.
<mgrwt>
<rscale>  0 0.15864012E+03</rscale>
<asrwt>0</asrwt>
<pdfrwt beam="1">  1        2 0.96382466E-01 0.16482994E+03</pdfrwt>
<pdfrwt beam="2">  1       -2 0.59034678E-02 0.16482994E+03</pdfrwt>
<totfact> 0.70717952E+03</totfact>
</mgrwt>
</event>
<event>
 8    1  0.3217375E-004  0.1301006E+03  0.7546771E-02  0.1241190E+00
          2   -1    0    0  501    0  0.00000000000E+00  0.00000000000E+00  0.30937793829E+03  0.30937793829E+03  0.00000000000E+00 0. -1.
         -2   -1    0    0    0  501 -0.00000000000E+00 -0.00000000000E+00 -0.42080513383E+02  0.42080513383E+02  0.00000000000E+00 0.  1.
         25    2    1    2    0    0 -0.34524784953E+02 -0.10327460423E+02  0.16031473024E+03  0.20646303077E+03  0.12501021209E+03 0.  0.
         23    2    1    2    0    0  0.34524784953E+02  0.10327460423E+02  0.10698269467E+03  0.14499542091E+03  0.90993175076E+02 0.  0.
          5    1    4    4  502    0  0.49740899845E+02 -0.19717185552E+02  0.94640892054E+02  0.10882055400E+03  0.47000000000E+01 0. -1.
         -5    1    4    4    0  502 -0.15216114892E+02  0.30044645975E+02  0.12341802615E+02  0.36174866910E+02  0.47000000000E+01 0.  1.
          5    1    3    3  503    0 -0.14343243348E+02  0.57332913715E+02  0.75991778118E+02  0.96382736869E+02  0.47000000000E+01 0. -1.
         -5    1    3    3    0  503 -0.20181541605E+02 -0.67660374139E+02  0.84322952120E+02  0.11008029390E+03  0.47000000000E+01 0. -1.
<mgrwt>
<rscale>  0 0.12116327E+03</rscale>
<asrwt>0</asrwt>
<pdfrwt beam="1">  1        2 0.47596604E-01 0.13010062E+03</pdfrwt>
<pdfrwt beam="2">  1       -2 0.64739254E-02 0.13010062E+03</pdfrwt>
<totfact> 0.13058617E+04</totfact>
</mgrwt>
</event>
<event>
 8    1  0.3217375E-004  0.1318171E+03  0.7546771E-02  0.1238220E+00
         -2   -1    0    0    0  501 -0.00000000000E+00  0.00000000000E+00  0.17590246498E+03  0.17590246498E+03  0.00000000000E+00 0.  1.
          2   -1    0    0  501    0  0.00000000000E+00 -0.00000000000E+00 -0.11348147948E+03  0.11348147948E+03  0.00000000000E+00 0. -1.
         25    2    1    2    0    0  0.25531031215E+02  0.33174928928E+02 -0.48148622086E+02  0.14033545926E+03  0.12499336724E+03 0.  0.
         23    2    1    2    0    0 -0.25531031215E+02 -0.33174928928E+02  0.11056960758E+03  0.14904848520E+03  0.90760141879E+02 0.  0.
          5    1    4    4  502    0  0.27716043283E+02 -0.36854912286E+02  0.49960146914E+02  0.68151081389E+02  0.47000000000E+01 0. -1.
         -5    1    4    4    0  502 -0.53247074498E+02  0.36799833581E+01  0.60609460669E+02  0.80897403807E+02  0.47000000000E+01 0.  1.
          5    1    3    3  503    0 -0.30363775019E+02  0.59058461298E+02 -0.40906533050E+02  0.78136388005E+02  0.47000000000E+01 0. -1.
         -5    1    3    3    0  503  0.55894806234E+02 -0.25883532370E+02 -0.72420890361E+01  0.62199071259E+02  0.47000000000E+01 0. -1.
<mgrwt>
<rscale>  0 0.12300521E+03</rscale>
<asrwt>0</asrwt>
<pdfrwt beam="1">  1        2 0.17458689E-01 0.13181711E+03</pdfrwt>
<pdfrwt beam="2">  1       -2 0.27061918E-01 0.13181711E+03</pdfrwt>
<totfact> 0.38396029E+03</totfact>
</mgrwt>
</event>
<event>
 8    1  0.3217375E-004  0.1354519E+03  0.7546771E-02  0.1232183E+00
         -2   -1    0    0    0  501 -0.00000000000E+00  0.00000000000E+00  0.25704172536E+02  0.25704172536E+02  0.00000000000E+00 0. -1.
          2   -1    0    0  501    0  0.00000000000E+00 -0.00000000000E+00 -0.63417286265E+03  0.63417286265E+03  0.00000000000E+00 0.  1.
         25    2    1    2    0    0 -0.23589265039E+02 -0.46538042669E+02 -0.22622204261E+03  0.26367333494E+03  0.12499988861E+03 0.  0.
         23    2    1    2    0    0  0.23589265039E+02  0.46538042669E+02 -0.38224664750E+03  0.39620370025E+03  0.90236521013E+02 0.  0.
          5    1    4    4  502    0  0.36064144762E+02  0.66820733767E+02 -0.23607045421E+03  0.24802617271E+03  0.47000000000E+01 0. -1.
         -5    1    3    3    0  503 -0.16459199468E+02 -0.17647551162E+02  0.92605736863E+01  0.26271458546E+02  0.47000000000E+01 0. -1.
          5    1    3    3  503    0 -0.71300655707E+01 -0.28890491508E+02 -0.23548261630E+03  0.23740187639E+03  0.47000000000E+01 0. -1.
         -5    1    4    4    0  502 -0.12474879723E+02 -0.20282691098E+02 -0.14617619329E+03  0.14817752754E+03  0.47000000000E+01 0.  1.
<mgrwt>
<rscale>  0 0.12686502E+03</rscale>
<asrwt>0</asrwt>
<pdfrwt beam="1">  1        2 0.97565047E-01 0.13545189E+03</pdfrwt>
<pdfrwt beam="2">  1       -2 0.39544884E-02 0.13545189E+03</pdfrwt>
<totfact> 0.12580552E+04</totfact>
</mgrwt>
</event>
<event>
 8    1  0.3217375E-004  0.1789236E+03  0.7546771E-02  0.1174154E+00
         -1   -1    0    0    0  501 -0.00000000000E+00  0.00000000000E+00  0.43730744799E+02  0.43730744799E+02  0.00000000000E+00 0.  1.
          1   -1    0    0  501    0  0.00000000000E+00 -0.00000000000E+00 -0.67307627293E+03  0.67307627293E+03  0.00000000000E+00 0. -1.
         25    2    1    2    0    0 -0.79576177790E+02  0.10027820731E+03 -0.39787866160E+03  0.43625803568E+03  0.12500222961E+03 0.  0.
         23    2    1    2    0    0  0.79576177790E+02 -0.10027820731E+03 -0.23146686653E+03  0.28054898205E+03  0.93502588704E+02 0.  0.
          5    1    3    3  502    0 -0.31062078705E+02  0.72897344539E+01 -0.90376394909E+01  0.33492713975E+02  0.47000000000E+01 0.  1.
         -5    1    4    4    0  503  0.15683264204E+02 -0.90045612347E+02 -0.11234584073E+03  0.14490636635E+03  0.47000000000E+01 0.  1.
          5    1    4    4  503    0  0.63892913586E+02 -0.10232594962E+02 -0.11912102581E+03  0.13564261570E+03  0.47000000000E+01 0. -1.
         -5    1    3    3    0  502 -0.48514099085E+02  0.92988472855E+02 -0.38884102211E+03  0.40276532170E+03  0.47000000000E+01 0.  1.
<mgrwt>
<rscale>  0 0.17359072E+03</rscale>
<asrwt>0</asrwt>
<pdfrwt beam="1">  1        1 0.10355020E+00 0.17892357E+03</pdfrwt>
<pdfrwt beam="2">  1       -1 0.67278066E-02 0.17892357E+03</pdfrwt>
<totfact> 0.33029216E+03</totfact>
</mgrwt>
</event>
<event>
 8    1  0.3217375E-004  0.1410215E+03  0.7546771E-02  0.1222989E+00
          1   -1    0    0  501    0  0.00000000000E+00  0.00000000000E+00  0.82508471780E+02  0.82508471780E+02  0.00000000000E+00 0. -1.
         -1   -1    0    0    0  501 -0.00000000000E+00 -0.00000000000E+00 -0.22271392570E+03  0.22271392570E+03  0.00000000000E+00 0.  1.
         25    2    1    2    0    0  0.42682737121E+02  0.49403942345E+02 -0.13199933505E+03  0.19316028762E+03  0.12499802675E+03 0.  0.
         23    2    1    2    0    0 -0.42682737121E+02 -0.49403942345E+02 -0.82061188717E+01  0.11206210986E+03  0.90708381710E+02 0.  0.
          5    1    4    4  502    0 -0.23257957126E+02  0.22589876338E+01  0.34628462362E+02  0.42038744038E+02  0.47000000000E+01 0. -1.
         -5    1    4    4    0  502 -0.19424779995E+02 -0.51662929979E+02 -0.42834581233E+02  0.70023365824E+02  0.47000000000E+01 0.  1.
          5    1    3    3  503    0  0.24419405237E+02 -0.21617021050E+02  0.90045167479E+01  0.34158077713E+02  0.47000000000E+01 0. -1.
         -5    1    3    3    0  503  0.18263331884E+02  0.71020963395E+02 -0.14100385180E+03  0.15900220991E+03  0.47000000000E+01 0. -1.
<mgrwt>
<rscale>  0 0.13305674E+03</rscale>
<asrwt>0</asrwt>
<pdfrwt beam="1">  1        1 0.12693611E-01 0.14102153E+03</pdfrwt>
<pdfrwt beam="2">  1       -1 0.34263680E-01 0.14102153E+03</pdfrwt>
<totfact> 0.36368804E+03</totfact>
</mgrwt>
</event>
<event>
 8    1  0.3217375E-004  0.1412271E+03  0.7546771E-02  0.1222384E+00
          1   -1    0    0  501    0  0.00000000000E+00  0.00000000000E+00  0.33268517773E+03  0.33268517773E+03  0.00000000000E+00 0. -1.
         -1   -1    0    0    0  501 -0.00000000000E+00 -0.00000000000E+00 -0.48679143270E+02  0.48679143270E+02  0.00000000000E+00 0.  1.
         25    2    1    2    0    0  0.31501792218E+02 -0.57708270616E+02  0.17087879445E+03  0.22168596615E+03  0.12498999073E+03 0.  0.
         23    2    1    2    0    0 -0.31501792218E+02  0.57708270616E+02  0.11312724001E+03  0.15967835486E+03  0.91524844530E+02 0.  0.
          5    1    4    4  502    0 -0.36340384563E+02  0.20681254749E+02  0.11453126637E+03  0.12201573187E+03  0.47000000000E+01 0. -1.
         -5    1    4    4    0  502  0.48385923453E+01  0.37027015867E+02 -0.14040263579E+01  0.37662622982E+02  0.47000000000E+01 0.  1.
          5    1    3    3  503    0  0.35764409822E+02 -0.22910441705E+02  0.18012609778E+03  0.18512558562E+03  0.47000000000E+01 0.  1.
         -5    1    3    3    0  503 -0.42626176037E+01 -0.34797828910E+02 -0.92473033284E+01  0.36560380531E+02  0.47000000000E+01 0.  1.
<mgrwt>
<rscale>  0 0.13347857E+03</rscale>
<asrwt>0</asrwt>
<pdfrwt beam="1">  1        1 0.51182334E-01 0.14122714E+03</pdfrwt>
<pdfrwt beam="2">  1       -1 0.74890992E-02 0.14122714E+03</pdfrwt>
<totfact> 0.69946412E+03</totfact>
</mgrwt>
</event>
<event>
 8    1  0.3217375E-004  0.1838862E+03  0.7546771E-02  0.1169590E+00
          2   -1    0    0  501    0  0.00000000000E+00  0.00000000000E+00  0.15929031292E+04  0.15929031292E+04  0.00000000000E+00 0. -1.
         -2   -1    0    0    0  501 -0.00000000000E+00 -0.00000000000E+00 -0.19340325763E+02  0.19340325763E+02  0.00000000000E+00 0.  1.
         25    2    1    2    0    0 -0.89507649385E+02  0.10088089837E+03  0.97169294845E+03  0.98893949718E+03  0.12500227226E+03 0.  0.
         23    2    1    2    0    0  0.89507649385E+02 -0.10088089837E+03  0.60186985498E+03  0.62330395778E+03  0.89843900658E+02 0.  0.
          5    1    3    3  502    0 -0.93076931635E+02  0.20927655538E+02  0.67007904780E+03  0.67685249668E+03  0.47000000000E+01 0.  1.
         -5    1    4    4    0  503  0.27479556633E+02 -0.57577271952E+02  0.43930224738E+03  0.44393560663E+03  0.47000000000E+01 0. -1.
          5    1    4    4  503    0  0.62028092752E+02 -0.43303626421E+02  0.16256760760E+03  0.17936835115E+03  0.47000000000E+01 0.  1.
         -5    1    3    3    0  502  0.35692822493E+01  0.79953242835E+02  0.30161390065E+03  0.31208700050E+03  0.47000000000E+01 0.  1.
<mgrwt>
<rscale>  0 0.17816598E+03</rscale>
<asrwt>0</asrwt>
<pdfrwt beam="1">  1        2 0.24506192E+00 0.18388622E+03</pdfrwt>
<pdfrwt beam="2">  1       -2 0.29754360E-02 0.18388622E+03</pdfrwt>
<totfact> 0.51844458E+03</totfact>
</mgrwt>
</event>
<event>
 8    1  0.3217375E-004  0.1644198E+03  0.7546771E-02  0.1190798E+00
          1   -1    0    0  501    0  0.00000000000E+00  0.00000000000E+00  0.18001455255E+03  0.18001455255E+03  0.00000000000E+00 0. -1.
         -1   -1    0    0    0  501 -0.00000000000E+00 -0.00000000000E+00 -0.13218224112E+03  0.13218224112E+03  0.00000000000E+00 0.  1.
         25    2    1    2    0    0  0.63420732990E+02  0.85951686770E+02  0.48579371579E+02  0.17144623600E+03  0.12499589859E+03 0.  0.
         23    2    1    2    0    0 -0.63420732990E+02 -0.85951686770E+02 -0.74706014869E+00  0.14075055766E+03  0.91653038960E+02 0.  0.
          5    1    3    3  502    0  0.29771792774E+01 -0.30321695234E+02 -0.20168406536E+01  0.30893792978E+02  0.47000000000E+01 0. -1.
         -5    1    3    3    0  502  0.60443553712E+02  0.11627338200E+03  0.50596212232E+02  0.14055244303E+03  0.47000000000E+01 0. -1.
          5    1    4    4  503    0 -0.42732379307E+02 -0.50630414306E+02  0.44194871403E+02  0.79779519630E+02  0.47000000000E+01 0. -1.
         -5    1    4    4    0  503 -0.20688353683E+02 -0.35321272464E+02 -0.44941931552E+02  0.60971038028E+02  0.47000000000E+01 0.  1.
<mgrwt>
<rscale>  0 0.15815266E+03</rscale>
<asrwt>0</asrwt>
<pdfrwt beam="1">  1        1 0.27694546E-01 0.16441976E+03</pdfrwt>
<pdfrwt beam="2">  1       -1 0.20335729E-01 0.16441976E+03</pdfrwt>
<totfact> 0.32074762E+03</totfact>
</mgrwt>
</event>
<event>
 8    1  0.3217375E-004  0.2172715E+03  0.7546771E-02  0.1139399E+00
         -1   -1    0    0    0  501 -0.00000000000E+00  0.00000000000E+00  0.29911387451E+03  0.29911387451E+03  0.00000000000E+00 0.  1.
          1   -1    0    0  501    0  0.00000000000E+00 -0.00000000000E+00 -0.15051619011E+03  0.15051619011E+03  0.00000000000E+00 0. -1.
         25    2    1    2    0    0  0.15196808451E+03  0.92143113042E+02  0.11884122955E+03  0.24764927031E+03  0.12498908453E+03 0.  0.
         23    2    1    2    0    0 -0.15196808451E+03 -0.92143113042E+02  0.29756454846E+02  0.20198079430E+03  0.91247699530E+02 0.  0.
          5    1    4    4  502    0 -0.12851370834E+03 -0.11053976633E+03  0.26321079331E+02  0.17160915591E+03  0.47000000000E+01 0. -1.
         -5    1    4    4    0  502 -0.23454376171E+02  0.18396653292E+02  0.34353755152E+01  0.30371638396E+02  0.47000000000E+01 0.  1.
          5    1    3    3  503    0  0.36818737424E+02 -0.31171310818E+02  0.25202196569E+02  0.54630675957E+02  0.47000000000E+01 0. -1.
         -5    1    3    3    0  503  0.11514934709E+03  0.12331442386E+03  0.93639032986E+02  0.19301859435E+03  0.47000000000E+01 0. -1.
<mgrwt>
<rscale>  0 0.21275924E+03</rscale>
<asrwt>0</asrwt>
<pdfrwt beam="1">  1        1 0.23156337E-01 0.21727154E+03</pdfrwt>
<pdfrwt beam="2">  1       -1 0.46017519E-01 0.21727154E+03</pdfrwt>
<totfact> 0.10089559E+03</totfact>
</mgrwt>
</event>
<event>
 8    1  0.3217375E-004  0.1418423E+03  0.7546771E-02  0.1221433E+00
          2   -1    0    0  501    0  0.00000000000E+00  0.00000000000E+00  0.50925332481E+02  0.50925332481E+02  0.00000000000E+00 0. -1.
         -2   -1    0    0    0  501 -0.00000000000E+00 -0.00000000000E+00 -0.42990746843E+03  0.42990746843E+03  0.00000000000E+00 0.  1.
         25    2    1    2    0    0  0.65440371753E+01  0.66722078897E+02 -0.32617198781E+03  0.35567878580E+03  0.12499829119E+03 0.  0.
         23    2    1    2    0    0 -0.65440371753E+01 -0.66722078897E+02 -0.52810148143E+02  0.12515401512E+03  0.91542096972E+02 0.  0.
          5    1    3    3  502    0  0.65459397853E+02  0.40954054443E+02 -0.17986037286E+03  0.19579073285E+03  0.47000000000E+01 0. -1.
         -5    1    4    4    0  503 -0.31984572923E+02 -0.47203660474E+02 -0.68415055022E+02  0.89184686022E+02  0.47000000000E+01 0.  1.
          5    1    4    4  503    0  0.25440535747E+02 -0.19518418424E+02  0.15604906878E+02  0.35969329095E+02  0.47000000000E+01 0. -1.
         -5    1    3    3    0  502 -0.58915360678E+02  0.25768024455E+02 -0.14631161494E+03  0.15988805295E+03  0.47000000000E+01 0. -1.
<mgrwt>
<rscale>  0 0.13414394E+03</rscale>
<asrwt>0</asrwt>
<pdfrwt beam="1">  1        2 0.78346664E-02 0.14184228E+03</pdfrwt>
<pdfrwt beam="2">  1       -2 0.66139612E-01 0.14184228E+03</pdfrwt>
<totfact> 0.18210890E+03</totfact>
</mgrwt>
</event>
<event>
 8    1  0.3217375E-004  0.1291790E+03  0.7546771E-02  0.1242646E+00
          3   -1    0    0  501    0  0.00000000000E+00  0.00000000000E+00  0.20022514160E+02  0.20022514160E+02  0.00000000000E+00 0. -1.
         -3   -1    0    0    0  501 -0.00000000000E+00 -0.00000000000E+00 -0.68057649364E+03  0.68057649364E+03  0.00000000000E+00 0.  1.
         25    2    1    2    0    0  0.32514587807E+02 -0.24605574897E+01 -0.28870110903E+03  0.31628396824E+03  0.12499586173E+03 0.  0.
         23    2    1    2    0    0 -0.32514587807E+02  0.24605574897E+01 -0.37185287045E+03  0.38431503955E+03  0.91434345868E+02 0.  0.
          5    1    4    4  502    0 -0.36553915289E+02  0.37884404599E+02 -0.13914796511E+03  0.14884778476E+03  0.47000000000E+01 0. -1.
         -5    1    3    3    0  503 -0.45721128712E+02  0.42373025983E+01 -0.14868001219E+03  0.15567983932E+03  0.47000000000E+01 0. -1.
          5    1    3    3  503    0  0.78235716518E+02 -0.66978600880E+01 -0.14002109684E+03  0.16060412893E+03  0.47000000000E+01 0. -1.
         -5    1    4    4    0  502  0.40393274829E+01 -0.35423847109E+02 -0.23270490534E+03  0.23546725479E+03  0.47000000000E+01 0.  1.
<mgrwt>
<rscale>  0 0.12027364E+03</rscale>
<asrwt>0</asrwt>
<pdfrwt beam="1">  1        3 0.30803870E-02 0.12917902E+03</pdfrwt>
<pdfrwt beam="2">  1       -3 0.10470407E+00 0.12917902E+03</pdfrwt>
<totfact> 0.91249539E+02</totfact>
</mgrwt>
</event>
<event>
 8    1  0.3217375E-004  0.1336056E+03  0.7546771E-02  0.1235115E+00
         -2   -1    0    0    0  501 -0.00000000000E+00  0.00000000000E+00  0.49491579331E+02  0.49491579331E+02  0.00000000000E+00 0.  1.
          2   -1    0    0  501    0  0.00000000000E+00 -0.00000000000E+00 -0.28105646623E+03  0.28105646623E+03  0.00000000000E+00 0. -1.
         25    2    1    2    0    0  0.30480582963E+02 -0.36003905961E+02 -0.13201123589E+03  0.18782288349E+03  0.12500048792E+03 0.  0.
         23    2    1    2    0    0 -0.30480582963E+02  0.36003905961E+02 -0.99553651013E+02  0.14272516207E+03  0.90742466767E+02 0.  0.
          5    1    3    3  502    0  0.59483810335E+02  0.19552682396E+02 -0.34034872845E+02  0.71421940960E+02  0.47000000000E+01 0.  1.
         -5    1    4    4    0  503  0.17227551589E+02  0.44742796828E+02 -0.72337108949E+02  0.86910607712E+02  0.47000000000E+01 0.  1.
          5    1    4    4  503    0 -0.47708134552E+02 -0.87388908667E+01 -0.27216542065E+02  0.55814554356E+02  0.47000000000E+01 0. -1.
         -5    1    3    3    0  502 -0.29003227373E+02 -0.55556588357E+02 -0.97976363041E+02  0.11640094253E+03  0.47000000000E+01 0.  1.
<mgrwt>
<rscale>  0 0.12497056E+03</rscale>
<asrwt>0</asrwt>
<pdfrwt beam="1">  1        2 0.43239457E-01 0.13360565E+03</pdfrwt>
<pdfrwt beam="2">  1       -2 0.76140891E-02 0.13360565E+03</pdfrwt>
<totfact> 0.11302929E+04</totfact>
</mgrwt>
</event>
<event>
 8    1  0.3217375E-004  0.1707424E+03  0.7546771E-02  0.1183570E+00
         -2   -1    0    0    0  501 -0.00000000000E+00  0.00000000000E+00  0.11116717623E+03  0.11116717623E+03  0.00000000000E+00 0. -1.
          2   -1    0    0  501    0  0.00000000000E+00 -0.00000000000E+00 -0.31655722574E+03  0.31655722574E+03  0.00000000000E+00 0.  1.
         25    2    1    2    0    0 -0.11522846030E+03  0.15778585999E+02  0.49154653936E+01  0.17081317780E+03  0.12500567216E+03 0.  0.
         23    2    1    2    0    0  0.11522846030E+03 -0.15778585999E+02 -0.21030551491E+03  0.25691122417E+03  0.90820733666E+02 0.  0.
          5    1    3    3  502    0 -0.64903416886E+01  0.36141656941E+02 -0.37073011263E+02  0.52391240353E+02  0.47000000000E+01 0. -1.
         -5    1    3    3    0  502 -0.10873811861E+03 -0.20363070942E+02  0.41988476657E+02  0.11842193745E+03  0.47000000000E+01 0. -1.
          5    1    4    4  503    0  0.40766095762E+02  0.15099568982E+02 -0.16114040756E+02  0.46600685152E+02  0.47000000000E+01 0. -1.
         -5    1    4    4    0  503  0.74462364535E+02 -0.30878154981E+02 -0.19419147416E+03  0.21031053902E+03  0.47000000000E+01 0.  1.
<mgrwt>
<rscale>  0 0.16462690E+03</rscale>
<asrwt>0</asrwt>
<pdfrwt beam="1">  1        2 0.48701111E-01 0.17074244E+03</pdfrwt>
<pdfrwt beam="2">  1       -2 0.17102643E-01 0.17074244E+03</pdfrwt>
<totfact> 0.27754644E+03</totfact>
</mgrwt>
</event>
<event>
 8    1  0.3217375E-004  0.2714624E+03  0.7546771E-02  0.1102368E+00
         -1   -1    0    0    0  501 -0.00000000000E+00  0.00000000000E+00  0.48675322958E+03  0.48675322958E+03  0.00000000000E+00 0.  1.
          1   -1    0    0  501    0  0.00000000000E+00 -0.00000000000E+00 -0.14580180459E+03  0.14580180459E+03  0.00000000000E+00 0. -1.
         25    2    1    2    0    0  0.74786092272E+02 -0.22907146961E+03  0.20846827865E+03  0.34227306360E+03  0.12500051631E+03 0.  0.
         23    2    1    2    0    0 -0.74786092272E+02  0.22907146961E+03  0.13248314635E+03  0.29028197057E+03  0.92979248151E+02 0.  0.
          5    1    3    3  502    0  0.10274345526E+03 -0.13255739889E+03  0.15469270262E+03  0.22820956124E+03  0.47000000000E+01 0.  1.
         -5    1    3    3    0  502 -0.27957362990E+02 -0.96514070721E+02  0.53775576027E+02  0.11406350235E+03  0.47000000000E+01 0.  1.
          5    1    4    4  503    0 -0.85854116481E+02  0.20379409622E+03  0.88692880974E+02  0.23830963075E+03  0.47000000000E+01 0. -1.
         -5    1    4    4    0  503  0.11068024209E+02  0.25277373387E+02  0.43790265375E+02  0.51972339825E+02  0.47000000000E+01 0.  1.
<mgrwt>
<rscale>  0 0.26810666E+03</rscale>
<asrwt>0</asrwt>
<pdfrwt beam="1">  1        1 0.22431047E-01 0.27146239E+03</pdfrwt>
<pdfrwt beam="2">  1       -1 0.74885111E-01 0.27146239E+03</pdfrwt>
<totfact> 0.41288033E+02</totfact>
</mgrwt>
</event>
<event>
 8    1  0.3217375E-004  0.3308132E+03  0.7546771E-02  0.1072043E+00
          2   -1    0    0  501    0  0.00000000000E+00  0.00000000000E+00  0.46896231302E+03  0.46896231302E+03  0.00000000000E+00 0. -1.
         -2   -1    0    0    0  501 -0.00000000000E+00 -0.00000000000E+00 -0.23830140358E+03  0.23830140358E+03  0.00000000000E+00 0.  1.
         25    2    1    2    0    0 -0.13856877123E+03  0.27315015362E+03  0.35205614521E+02  0.33268120883E+03  0.12500016252E+03 0.  0.
         23    2    1    2    0    0  0.13856877123E+03 -0.27315015362E+03  0.19545529492E+03  0.37458250778E+03  0.91087716165E+02 0.  0.
          5    1    3    3  502    0 -0.15387971393E+03  0.21439707302E+03  0.33746513331E+01  0.26396694784E+03  0.47000000000E+01 0. -1.
         -5    1    4    4    0  503  0.35217353255E+02 -0.46098557690E+02  0.94045336383E+00  0.58209221296E+02  0.47000000000E+01 0.  1.
          5    1    4    4  503    0  0.10335141798E+03 -0.22705159593E+03  0.19451484156E+03  0.31637328648E+03  0.47000000000E+01 0. -1.
         -5    1    3    3    0  502  0.15310942697E+02  0.58753080592E+02  0.31830963188E+02  0.68714260985E+02  0.47000000000E+01 0. -1.
<mgrwt>
<rscale>  0 0.32795952E+03</rscale>
<asrwt>0</asrwt>
<pdfrwt beam="1">  1        2 0.72148048E-01 0.33081317E+03</pdfrwt>
<pdfrwt beam="2">  1       -2 0.36661755E-01 0.33081317E+03</pdfrwt>
<totfact> 0.47256498E+02</totfact>
</mgrwt>
</event>
<event>
 8    1  0.3217375E-004  0.1416884E+03  0.7546771E-02  0.1220589E+00
         -2   -1    0    0    0  501 -0.00000000000E+00  0.00000000000E+00  0.12992347318E+03  0.12992347318E+03  0.00000000000E+00 0. -1.
          2   -1    0    0  501    0  0.00000000000E+00 -0.00000000000E+00 -0.17111963228E+03  0.17111963228E+03  0.00000000000E+00 0.  1.
         25    2    1    2    0    0  0.66674579333E+02  0.23321088472E+01  0.53446350059E+02  0.15143355728E+03  0.12499868669E+03 0.  0.
         23    2    1    2    0    0 -0.66674579333E+02 -0.23321088472E+01 -0.94642509154E+02  0.14960954819E+03  0.94735812177E+02 0.  0.
          5    1    3    3  502    0  0.21204702191E+02 -0.17855585855E+02 -0.37972174852E+02  0.47248676217E+02  0.47000000000E+01 0.  1.
         -5    1    4    4    0  503 -0.66215630297E+02  0.27598341544E+02 -0.95210619818E+02  0.11930352165E+03  0.47000000000E+01 0.  1.
          5    1    4    4  503    0 -0.45894903619E+00 -0.29930450391E+02  0.56811066421E+00  0.30306026538E+02  0.47000000000E+01 0. -1.
         -5    1    3    3    0  502  0.45469877142E+02  0.20187694703E+02  0.91418524911E+02  0.10418488106E+03  0.47000000000E+01 0.  1.
<mgrwt>
<rscale>  0 0.13473901E+03</rscale>
<asrwt>0</asrwt>
<pdfrwt beam="1">  1        2 0.26326097E-01 0.14168843E+03</pdfrwt>
<pdfrwt beam="2">  1       -2 0.19988227E-01 0.14168843E+03</pdfrwt>
<totfact> 0.41053064E+03</totfact>
</mgrwt>
</event>
<event>
 8    1  0.3217375E-004  0.1308680E+03  0.7546771E-02  0.1239339E+00
         -1   -1    0    0    0  501 -0.00000000000E+00  0.00000000000E+00  0.64558073842E+03  0.64558073842E+03  0.00000000000E+00 0.  1.
          1   -1    0    0  501    0  0.00000000000E+00 -0.00000000000E+00 -0.20620554481E+02  0.20620554481E+02  0.00000000000E+00 0. -1.
         25    2    1    2    0    0 -0.38660884196E+02  0.24329006808E+01  0.34768326727E+03  0.37149707279E+03  0.12500335107E+03 0.  0.
         23    2    1    2    0    0  0.38660884196E+02 -0.24329006808E+01  0.27727691667E+03  0.29470422011E+03  0.92019051627E+02 0.  0.
          5    1    3    3  502    0 -0.23674778788E+02  0.37539609145E+02  0.35698241154E+02  0.57150431555E+02  0.47000000000E+01 0.  1.
         -5    1    3    3    0  502 -0.14986105407E+02 -0.35106708464E+02  0.31198502611E+03  0.31434664123E+03  0.47000000000E+01 0.  1.
          5    1    4    4  503    0  0.68522068361E+02 -0.11034509720E+01  0.17341002472E+03  0.18651975265E+03  0.47000000000E+01 0. -1.
         -5    1    4    4    0  503 -0.29861184166E+02 -0.13294497088E+01  0.10386689195E+03  0.10818446746E+03  0.47000000000E+01 0.  1.
<mgrwt>
<rscale>  0 0.12230704E+03</rscale>
<asrwt>0</asrwt>
<pdfrwt beam="1">  1        1 0.31723935E-02 0.13086795E+03</pdfrwt>
<pdfrwt beam="2">  1       -1 0.99320098E-01 0.13086795E+03</pdfrwt>
<totfact> 0.30973824E+03</totfact>
</mgrwt>
</event>
<event>
 8    1  0.3217375E-004  0.1725620E+03  0.7546771E-02  0.1181716E+00
          2   -1    0    0  501    0  0.00000000000E+00  0.00000000000E+00  0.74415801409E+02  0.74415801409E+02  0.00000000000E+00 0. -1.
         -2   -1    0    0    0  501 -0.00000000000E+00 -0.00000000000E+00 -0.63816532800E+03  0.63816532800E+03  0.00000000000E+00 0.  1.
         25    2    1    2    0    0  0.55661219299E+02  0.10514882173E+03 -0.53327067618E+03  0.56049555596E+03  0.12499283233E+03 0.  0.
         23    2    1    2    0    0 -0.55661219299E+02 -0.10514882173E+03 -0.30478850410E+02  0.15208557345E+03  0.89702927953E+02 0.  0.
          5    1    4    4  502    0 -0.58586908280E+02 -0.84488277356E+02  0.12893559500E+02  0.10372573793E+03  0.47000000000E+01 0. -1.
         -5    1    4    4    0  502  0.29256889814E+01 -0.20660544373E+02 -0.43372409910E+02  0.48359835516E+02  0.47000000000E+01 0.  1.
          5    1    3    3  503    0  0.84277372184E+02  0.59903717567E+02 -0.22618061781E+03  0.24873860318E+03  0.47000000000E+01 0.  1.
         -5    1    3    3    0  503 -0.28616152885E+02  0.45245104162E+02 -0.30709005837E+03  0.31175695278E+03  0.47000000000E+01 0.  1.
<mgrwt>
<rscale>  0 0.16634343E+03</rscale>
<asrwt>0</asrwt>
<pdfrwt beam="1">  1        2 0.11448585E-01 0.17256203E+03</pdfrwt>
<pdfrwt beam="2">  1       -2 0.98179278E-01 0.17256203E+03</pdfrwt>
<totfact> 0.48130082E+02</totfact>
</mgrwt>
</event>
<event>
 8    1  0.3217375E-004  0.1354255E+03  0.7546771E-02  0.1231586E+00
         -2   -1    0    0    0  501 -0.00000000000E+00  0.00000000000E+00  0.17572060385E+03  0.17572060385E+03  0.00000000000E+00 0.  1.
          2   -1    0    0  501    0  0.00000000000E+00 -0.00000000000E+00 -0.82682952693E+02  0.82682952693E+02  0.00000000000E+00 0. -1.
         25    2    1    2    0    0  0.47358392210E+02  0.21791842682E+02  0.55219900935E+02  0.14625078014E+03  0.12498940559E+03 0.  0.
         23    2    1    2    0    0 -0.47358392210E+02 -0.21791842682E+02  0.37817750220E+02  0.11215277641E+03  0.91816998989E+02 0.  0.
          5    1    4    4  502    0  0.17007951741E+02 -0.33325720479E+02  0.27653276154E+01  0.37810198422E+02  0.47000000000E+01 0. -1.
         -5    1    4    4    0  502 -0.64366343952E+02  0.11533877797E+02  0.35052422605E+02  0.74342577983E+02  0.47000000000E+01 0.  1.
          5    1    3    3  503    0 -0.31894163642E+02  0.42315881385E+02  0.17618473273E+02  0.56039022942E+02  0.47000000000E+01 0.  1.
         -5    1    3    3    0  503  0.79252555852E+02 -0.20524038703E+02  0.37601427662E+02  0.90211757194E+02  0.47000000000E+01 0.  1.
<mgrwt>
<rscale>  0 0.12725509E+03</rscale>
<asrwt>0</asrwt>
<pdfrwt beam="1">  1        2 0.12720454E-01 0.13542545E+03</pdfrwt>
<pdfrwt beam="2">  1       -2 0.27033939E-01 0.13542545E+03</pdfrwt>
<totfact> 0.55829704E+03</totfact>
</mgrwt>
</event>
<event>
 8    1  0.3217375E-004  0.1343286E+03  0.7546771E-02  0.1233810E+00
         -1   -1    0    0    0  501 -0.00000000000E+00  0.00000000000E+00  0.14251598940E+02  0.14251598940E+02  0.00000000000E+00 0.  1.
          1   -1    0    0  501    0  0.00000000000E+00 -0.00000000000E+00 -0.11029103571E+04  0.11029103571E+04  0.00000000000E+00 0. -1.
         25    2    1    2    0    0 -0.44064838341E+02 -0.21927143771E+02 -0.78460129718E+03  0.79601718312E+03  0.12498660198E+03 0.  0.
         23    2    1    2    0    0  0.44064838341E+02  0.21927143771E+02 -0.30405746103E+03  0.32114477297E+03  0.90887380783E+02 0.  0.
          5    1    3    3  502    0 -0.52629780390E+02 -0.63765992288E+02 -0.63471322006E+03  0.64009292863E+03  0.47000000000E+01 0.  1.
         -5    1    4    4    0  503  0.16076698197E+02  0.26877654281E+02 -0.24326201176E+02  0.39933977866E+02  0.47000000000E+01 0.  1.
          5    1    4    4  503    0  0.27988140144E+02 -0.49505105095E+01 -0.27973125985E+03  0.28121079510E+03  0.47000000000E+01 0. -1.
         -5    1    3    3    0  502  0.85649420485E+01  0.41838848516E+02 -0.14988807711E+03  0.15592425449E+03  0.47000000000E+01 0.  1.
<mgrwt>
<rscale>  0 0.12580938E+03</rscale>
<asrwt>0</asrwt>
<pdfrwt beam="1">  1        1 0.16967853E+00 0.13432855E+03</pdfrwt>
<pdfrwt beam="2">  1       -1 0.21925535E-02 0.13432855E+03</pdfrwt>
<totfact> 0.78026440E+03</totfact>
</mgrwt>
</event>
<event>
 8    1  0.3217375E-004  0.1749475E+03  0.7546771E-02  0.1178917E+00
          1   -1    0    0  501    0  0.00000000000E+00  0.00000000000E+00  0.91156968316E+03  0.91156968316E+03  0.00000000000E+00 0. -1.
         -1   -1    0    0    0  501 -0.00000000000E+00 -0.00000000000E+00 -0.30241841452E+02  0.30241841452E+02  0.00000000000E+00 0.  1.
         25    2    1    2    0    0 -0.10413497857E+03  0.64326349583E+02  0.55035346646E+03  0.57749075721E+03  0.12499865443E+03 0.  0.
         23    2    1    2    0    0  0.10413497857E+03 -0.64326349583E+02  0.33097437525E+03  0.36432076740E+03  0.90573790225E+02 0.  0.
          5    1    4    4  502    0  0.26579344218E+02 -0.59826459467E+02  0.21385555593E+03  0.22370059364E+03  0.47000000000E+01 0. -1.
         -5    1    4    4    0  502  0.77555634350E+02 -0.44998901168E+01  0.11711881931E+03  0.14062017376E+03  0.47000000000E+01 0.  1.
          5    1    3    3  503    0 -0.32961819919E+02 -0.17485521030E+02  0.36887732957E+02  0.52678457274E+02  0.47000000000E+01 0.  1.
         -5    1    3    3    0  503 -0.71173158649E+02  0.81811870613E+02  0.51346573350E+03  0.52481229994E+03  0.47000000000E+01 0.  1.
<mgrwt>
<rscale>  0 0.16897915E+03</rscale>
<asrwt>0</asrwt>
<pdfrwt beam="1">  1        1 0.14024147E+00 0.17494753E+03</pdfrwt>
<pdfrwt beam="2">  1       -1 0.46525917E-02 0.17494753E+03</pdfrwt>
<totfact> 0.36219507E+03</totfact>
</mgrwt>
</event>
<event>
 8    1  0.3217375E-004  0.1287628E+03  0.7546771E-02  0.1242919E+00
          2   -1    0    0  501    0  0.00000000000E+00  0.00000000000E+00  0.37060119594E+03  0.37060119594E+03  0.00000000000E+00 0. -1.
         -2   -1    0    0    0  501 -0.00000000000E+00 -0.00000000000E+00 -0.39952936851E+02  0.39952936851E+02  0.00000000000E+00 0.  1.
         25    2    1    2    0    0  0.12049701289E+02  0.28410891105E+02  0.26008654333E+03  0.29021521880E+03  0.12500995626E+03 0.  0.
         23    2    1    2    0    0 -0.12049701289E+02 -0.28410891105E+02  0.70561715758E+02  0.12033891400E+03  0.92466883026E+02 0.  0.
          5    1    4    4  502    0 -0.38550164492E+02 -0.48042346730E+02  0.57999046811E+02  0.84735834761E+02  0.47000000000E+01 0. -1.
         -5    1    3    3    0  503  0.68032821110E+02  0.22639208871E+02  0.13372576543E+03  0.15180800000E+03  0.47000000000E+01 0.  1.
          5    1    3    3  503    0 -0.55983119821E+02  0.57716822331E+01  0.12636077791E+03  0.13840721879E+03  0.47000000000E+01 0.  1.
         -5    1    4    4    0  502  0.26500463203E+02  0.19631455625E+02  0.12562668947E+02  0.35603079235E+02  0.47000000000E+01 0.  1.
<mgrwt>
<rscale>  0 0.12010818E+03</rscale>
<asrwt>0</asrwt>
<pdfrwt beam="1">  1        2 0.57015566E-01 0.12876282E+03</pdfrwt>
<pdfrwt beam="2">  1       -2 0.61466059E-02 0.12876282E+03</pdfrwt>
<totfact> 0.11658565E+04</totfact>
</mgrwt>
</event>
<event>
 8    1  0.3217375E-004  0.1388636E+03  0.7546771E-02  0.1226919E+00
         -1   -1    0    0    0  501 -0.00000000000E+00  0.00000000000E+00  0.51468626680E+02  0.51468626680E+02  0.00000000000E+00 0.  1.
          1   -1    0    0  501    0  0.00000000000E+00 -0.00000000000E+00 -0.30099162949E+03  0.30099162949E+03  0.00000000000E+00 0. -1.
         25    2    1    2    0    0  0.27082958144E+01  0.60428331638E+02 -0.16342264791E+03  0.21445295685E+03  0.12499676283E+03 0.  0.
         23    2    1    2    0    0 -0.27082958144E+01 -0.60428331638E+02 -0.86100354896E+02  0.13800729932E+03  0.89296278879E+02 0.  0.
          5    1    3    3  502    0 -0.25265610512E+02 -0.30262263683E+02 -0.26297210287E+02  0.47621307696E+02  0.47000000000E+01 0.  1.
         -5    1    4    4    0  503 -0.80285802042E+01 -0.23536602088E+02  0.15503985037E+02  0.29679846528E+02  0.47000000000E+01 0.  1.
          5    1    4    4  503    0  0.53202843898E+01 -0.36891729550E+02 -0.10160433993E+03  0.10832745279E+03  0.47000000000E+01 0. -1.
         -5    1    3    3    0  502  0.27973906326E+02  0.90690595321E+02 -0.13712543762E+03  0.16683164915E+03  0.47000000000E+01 0.  1.
<mgrwt>
<rscale>  0 0.13036219E+03</rscale>
<asrwt>0</asrwt>
<pdfrwt beam="1">  1        1 0.46306406E-01 0.13886363E+03</pdfrwt>
<pdfrwt beam="2">  1       -1 0.79182501E-02 0.13886363E+03</pdfrwt>
<totfact> 0.72746251E+03</totfact>
</mgrwt>
</event>
<event>
 8    1  0.3217375E-004  0.1425160E+03  0.7546771E-02  0.1222952E+00
         -3   -1    0    0    0  501 -0.00000000000E+00  0.00000000000E+00  0.24004856213E+02  0.24004856213E+02  0.00000000000E+00 0.  1.
          3   -1    0    0  501    0  0.00000000000E+00 -0.00000000000E+00 -0.67203331943E+03  0.67203331943E+03  0.00000000000E+00 0. -1.
         25    2    1    2    0    0  0.61297238063E+02 -0.30402910190E+02 -0.42109534798E+03  0.44455830832E+03  0.12501643517E+03 0.  0.
         23    2    1    2    0    0 -0.61297238063E+02  0.30402910190E+02 -0.22693311524E+03  0.25147986733E+03  0.84034496106E+02 0.  0.
          5    1    3    3  502    0 -0.36863535174E+02  0.29377457257E+01 -0.85216652010E+02  0.93013538559E+02  0.47000000000E+01 0.  1.
         -5    1    4    4    0  503 -0.37503327794E+02 -0.23148893318E+02 -0.60712873722E+02  0.75169900180E+02  0.47000000000E+01 0.  1.
          5    1    4    4  503    0 -0.23793910269E+02  0.53551803508E+02 -0.16622024152E+03  0.17630996715E+03  0.47000000000E+01 0. -1.
         -5    1    3    3    0  502  0.98160773236E+02 -0.33340655916E+02 -0.33587869597E+03  0.35154476976E+03  0.47000000000E+01 0.  1.
<mgrwt>
<rscale>  0 0.13308289E+03</rscale>
<asrwt>0</asrwt>
<pdfrwt beam="1">  1        3 0.10338973E+00 0.14251595E+03</pdfrwt>
<pdfrwt beam="2">  1       -3 0.36930552E-02 0.14251595E+03</pdfrwt>
<totfact> 0.72098633E+02</totfact>
</mgrwt>
</event>
<event>
 8    1  0.3217375E-004  0.1304023E+03  0.7546771E-02  0.1240871E+00
         -4   -1    0    0    0  501 -0.00000000000E+00  0.00000000000E+00  0.15469798163E+03  0.15469798163E+03  0.00000000000E+00 0.  1.
          4   -1    0    0  501    0  0.00000000000E+00 -0.00000000000E+00 -0.91988703660E+02  0.91988703660E+02  0.00000000000E+00 0. -1.
         25    2    1    2    0    0 -0.37036545878E+02 -0.28807374761E+01 -0.16204301496E+00  0.13040243432E+03  0.12499905696E+03 0.  0.
         23    2    1    2    0    0  0.37036545878E+02  0.28807374761E+01  0.62871320989E+02  0.11628425097E+03  0.90494307231E+02 0.  0.
          5    1    4    4  502    0  0.19263216045E+02  0.21467104977E+02 -0.15913599666E+02  0.33275227164E+02  0.47000000000E+01 0. -1.
         -5    1    4    4    0  502  0.17773329833E+02 -0.18586367501E+02  0.78784920655E+02  0.83009023804E+02  0.47000000000E+01 0.  1.
          5    1    3    3  503    0 -0.55344925853E+02  0.34488415840E+02  0.36382288781E+02  0.74821605046E+02  0.47000000000E+01 0. -1.
         -5    1    3    3    0  503  0.18308379974E+02 -0.37369153316E+02 -0.36544331796E+02  0.55580829278E+02  0.47000000000E+01 0. -1.
<mgrwt>
<rscale>  0 0.12135945E+03</rscale>
<asrwt>0</asrwt>
<pdfrwt beam="1">  1        4 0.14152108E-01 0.13040233E+03</pdfrwt>
<pdfrwt beam="2">  1       -4 0.23799689E-01 0.13040233E+03</pdfrwt>
<totfact> 0.11203695E+03</totfact>
</mgrwt>
</event>
<event>
 8    1  0.3217375E-004  0.2155534E+03  0.7546771E-02  0.1140878E+00
         -4   -1    0    0    0  501 -0.00000000000E+00  0.00000000000E+00  0.13176439878E+03  0.13176439878E+03  0.00000000000E+00 0.  1.
          4   -1    0    0  501    0  0.00000000000E+00 -0.00000000000E+00 -0.45785454087E+03  0.45785454087E+03  0.00000000000E+00 0. -1.
         25    2    1    2    0    0 -0.16468196692E+02  0.17483479122E+03 -0.85656703760E+01  0.21572357152E+03  0.12499953150E+03 0.  0.
         23    2    1    2    0    0  0.16468196692E+02 -0.17483479122E+03 -0.31752447171E+03  0.37389536814E+03  0.90208372403E+02 0.  0.
          5    1    4    4  502    0 -0.47944039365E+01 -0.12315640556E+03 -0.28125259404E+03  0.30710844696E+03  0.47000000000E+01 0. -1.
         -5    1    4    4    0  502  0.21262600628E+02 -0.51678385661E+02 -0.36271877672E+02  0.66786921173E+02  0.47000000000E+01 0.  1.
          5    1    3    3  503    0 -0.59421573940E+02  0.47829098532E+02 -0.25359425566E+02  0.80521652870E+02  0.47000000000E+01 0. -1.
         -5    1    3    3    0  503  0.42953377248E+02  0.12700569269E+03  0.16793755190E+02  0.13520191865E+03  0.47000000000E+01 0. -1.
<mgrwt>
<rscale>  0 0.21087050E+03</rscale>
<asrwt>0</asrwt>
<pdfrwt beam="1">  1        4 0.70439160E-01 0.21555345E+03</pdfrwt>
<pdfrwt beam="2">  1       -4 0.20271446E-01 0.21555345E+03</pdfrwt>
<totfact> 0.74258516E+01</totfact>
</mgrwt>
</event>
<event>
 8    1  0.3217375E-004  0.1326336E+03  0.7546771E-02  0.1234903E+00
         -2   -1    0    0    0  501 -0.00000000000E+00  0.00000000000E+00  0.19372603696E+02  0.19372603696E+02  0.00000000000E+00 0.  1.
          2   -1    0    0  501    0  0.00000000000E+00 -0.00000000000E+00 -0.12267876885E+04  0.12267876885E+04  0.00000000000E+00 0. -1.
         25    2    1    2    0    0  0.43965227846E+02  0.57833852478E+01 -0.10408499852E+04  0.10492665860E+04  0.12500115153E+03 0.  0.
         23    2    1    2    0    0 -0.43965227846E+02 -0.57833852478E+01 -0.16656509961E+03  0.19689370626E+03  0.95167275635E+02 0.  0.
          5    1    3    3  502    0  0.83630096845E+02  0.26181634775E+02 -0.69850122452E+03  0.70399255802E+03  0.47000000000E+01 0. -1.
         -5    1    4    4    0  503  0.51827628535E+01  0.22018284747E+02 -0.24026336496E+01  0.23227753711E+02  0.47000000000E+01 0.  1.
          5    1    4    4  503    0 -0.49147990699E+02 -0.27801669995E+02 -0.16416246596E+03  0.17366595255E+03  0.47000000000E+01 0. -1.
         -5    1    3    3    0  502 -0.39664868999E+02 -0.20398249527E+02 -0.34234876069E+03  0.34527402793E+03  0.47000000000E+01 0. -1.
<mgrwt>
<rscale>  0 0.12510615E+03</rscale>
<asrwt>0</asrwt>
<pdfrwt beam="1">  1        2 0.18873663E+00 0.13263362E+03</pdfrwt>
<pdfrwt beam="2">  1       -2 0.29803996E-02 0.13263362E+03</pdfrwt>
<totfact> 0.80207712E+03</totfact>
</mgrwt>
</event>
<event>
 8    1  0.3217375E-004  0.1318054E+03  0.7546771E-02  0.1237745E+00
          2   -1    0    0  501    0  0.00000000000E+00  0.00000000000E+00  0.10406582150E+04  0.10406582150E+04  0.00000000000E+00 0. -1.
         -2   -1    0    0    0  501 -0.00000000000E+00 -0.00000000000E+00 -0.13314271230E+02  0.13314271230E+02  0.00000000000E+00 0.  1.
         25    2    1    2    0    0 -0.29906384230E+02 -0.29217492165E+02  0.50183849171E+03  0.51885886848E+03  0.12499839989E+03 0.  0.
         23    2    1    2    0    0  0.29906384230E+02  0.29217492165E+02  0.52550545208E+03  0.53511361777E+03  0.91883350437E+02 0.  0.
          5    1    4    4  502    0  0.61750453376E+02  0.29181413133E+02  0.37609977858E+03  0.38227974942E+03  0.47000000000E+01 0. -1.
         -5    1    4    4    0  502 -0.31844069146E+02  0.36079032547E-01  0.14940567350E+03  0.15283386835E+03  0.47000000000E+01 0.  1.
          5    1    3    3  503    0 -0.30793048824E+02  0.26009853401E+02  0.53721506811E+02  0.67326180820E+02  0.47000000000E+01 0. -1.
         -5    1    3    3    0  503  0.88666459336E+00 -0.55227345566E+02  0.44811698490E+03  0.45153268766E+03  0.47000000000E+01 0. -1.
<mgrwt>
<rscale>  0 0.12330333E+03</rscale>
<asrwt>0</asrwt>
<pdfrwt beam="1">  1        2 0.16010120E+00 0.13180536E+03</pdfrwt>
<pdfrwt beam="2">  1       -2 0.20483502E-02 0.13180536E+03</pdfrwt>
<totfact> 0.17662713E+04</totfact>
</mgrwt>
</event>
<event>
 8    1  0.3217375E-004  0.1288894E+03  0.7546771E-02  0.1243999E+00
         -2   -1    0    0    0  501 -0.00000000000E+00  0.00000000000E+00  0.89281276955E+02  0.89281276955E+02  0.00000000000E+00 0. -1.
          2   -1    0    0  501    0  0.00000000000E+00 -0.00000000000E+00 -0.14340891189E+03  0.14340891189E+03  0.00000000000E+00 0.  1.
         25    2    1    2    0    0  0.30308520227E+02  0.83005002838E+01 -0.14629321792E+02  0.12971693094E+03  0.12499984165E+03 0.  0.
         23    2    1    2    0    0 -0.30308520227E+02 -0.83005002838E+01 -0.39498313141E+02  0.10297325790E+03  0.89754500718E+02 0.  0.
          5    1    3    3  502    0 -0.20027465444E+02 -0.45267018120E+02  0.12421455342E+02  0.51250218091E+02  0.47000000000E+01 0.  1.
         -5    1    4    4    0  503 -0.61713185064E+02  0.41427852487E+00 -0.29472548638E+02  0.68552242564E+02  0.47000000000E+01 0.  1.
          5    1    4    4  503    0  0.31404664836E+02 -0.87147788087E+01 -0.10025764503E+02  0.34421015340E+02  0.47000000000E+01 0. -1.
         -5    1    3    3    0  502  0.50335985671E+02  0.53567518404E+02 -0.27050777135E+02  0.78466712847E+02  0.47000000000E+01 0.  1.
<mgrwt>
<rscale>  0 0.11945494E+03</rscale>
<asrwt>0</asrwt>
<pdfrwt beam="1">  1        2 0.22062909E-01 0.12888935E+03</pdfrwt>
<pdfrwt beam="2">  1       -2 0.13735581E-01 0.12888935E+03</pdfrwt>
<totfact> 0.92230358E+03</totfact>
</mgrwt>
</event>
<event>
 8    1  0.3217375E-004  0.3215802E+03  0.7546771E-02  0.1076190E+00
          2   -1    0    0  501    0  0.00000000000E+00  0.00000000000E+00  0.90449918762E+03  0.90449918762E+03  0.00000000000E+00 0. -1.
         -2   -1    0    0    0  501 -0.00000000000E+00 -0.00000000000E+00 -0.18427155643E+03  0.18427155643E+03  0.00000000000E+00 0.  1.
         25    2    1    2    0    0  0.86441226482E+02  0.28340429555E+03  0.19412540495E+02  0.32216564206E+03  0.12499509519E+03 0.  0.
         23    2    1    2    0    0 -0.86441226482E+02 -0.28340429555E+03  0.70081509069E+03  0.76660510199E+03  0.93549509311E+02 0.  0.
          5    1    3    3  502    0  0.15439683966E+01  0.91120193961E+02  0.58393019845E+02  0.10833793589E+03  0.47000000000E+01 0.  1.
         -5    1    3    3    0  502  0.84897258085E+02  0.19228410159E+03 -0.38980479349E+02  0.21382770617E+03  0.47000000000E+01 0.  1.
          5    1    4    4  503    0 -0.89803624465E+02 -0.21684501309E+03  0.61191250217E+03  0.65539717041E+03  0.47000000000E+01 0. -1.
         -5    1    4    4    0  503  0.33623979825E+01 -0.66559282458E+02  0.88902588517E+02  0.11120793158E+03  0.47000000000E+01 0.  1.
<mgrwt>
<rscale>  0 0.31882791E+03</rscale>
<asrwt>0</asrwt>
<pdfrwt beam="1">  1        2 0.13915372E+00 0.32158025E+03</pdfrwt>
<pdfrwt beam="2">  1       -2 0.28349471E-01 0.32158025E+03</pdfrwt>
<totfact> 0.34296452E+02</totfact>
</mgrwt>
</event>
<event>
 8    1  0.3217375E-004  0.1278742E+03  0.7546771E-02  0.1246136E+00
          1   -1    0    0  501    0  0.00000000000E+00  0.00000000000E+00  0.20681394704E+02  0.20681394704E+02  0.00000000000E+00 0. -1.
         -1   -1    0    0    0  501 -0.00000000000E+00 -0.00000000000E+00 -0.66281023426E+03  0.66281023426E+03  0.00000000000E+00 0.  1.
         25    2    1    2    0    0 -0.20258689576E+02  0.17805294818E+02 -0.25477333941E+03  0.28506361402E+03  0.12499746613E+03 0.  0.
         23    2    1    2    0    0  0.20258689576E+02 -0.17805294818E+02 -0.38735550015E+03  0.39842801494E+03  0.89292533676E+02 0.  0.
          5    1    3    3  502    0 -0.12368754639E+02 -0.37787597147E+02 -0.22237244547E+02  0.45798183747E+02  0.47000000000E+01 0. -1.
         -5    1    3    3    0  502 -0.78899349374E+01  0.55592891966E+02 -0.23253609486E+03  0.23926543028E+03  0.47000000000E+01 0. -1.
          5    1    4    4  503    0  0.29262774607E+02  0.24377093835E+02 -0.28029500906E+03  0.28290976439E+03  0.47000000000E+01 0. -1.
         -5    1    4    4    0  503 -0.90040850309E+01 -0.42182388654E+02 -0.10706049109E+03  0.11551825056E+03  0.47000000000E+01 0.  1.
<mgrwt>
<rscale>  0 0.11817642E+03</rscale>
<asrwt>0</asrwt>
<pdfrwt beam="1">  1        1 0.31817535E-02 0.12787419E+03</pdfrwt>
<pdfrwt beam="2">  1       -1 0.10197079E+00 0.12787419E+03</pdfrwt>
<totfact> 0.29067822E+03</totfact>
</mgrwt>
</event>
<event>
 8    1  0.3217375E-004  0.1349648E+03  0.7546771E-02  0.1233113E+00
          2   -1    0    0  501    0  0.00000000000E+00  0.00000000000E+00  0.62292818527E+03  0.62292818527E+03  0.00000000000E+00 0. -1.
         -2   -1    0    0    0  501 -0.00000000000E+00 -0.00000000000E+00 -0.23347102852E+02  0.23347102852E+02  0.00000000000E+00 0.  1.
         25    2    1    2    0    0 -0.30764110331E+02  0.40527086526E+02  0.38775097692E+03  0.41056830173E+03  0.12500654005E+03 0.  0.
         23    2    1    2    0    0  0.30764110331E+02 -0.40527086526E+02  0.21183010550E+03  0.23570698639E+03  0.89982857324E+02 0.  0.
          5    1    4    4  502    0  0.66926732941E+01 -0.66875387987E+02  0.13738471428E+03  0.15301555187E+03  0.47000000000E+01 0. -1.
         -5    1    3    3    0  503 -0.62344621822E+02  0.87154743763E+01  0.93058051510E+02  0.11244866524E+03  0.47000000000E+01 0.  1.
          5    1    3    3  503    0  0.31580511491E+02  0.31811612150E+02  0.29469292541E+03  0.29811963649E+03  0.47000000000E+01 0.  1.
         -5    1    4    4    0  502  0.24071437037E+02  0.26348301461E+02  0.74445391216E+02  0.82691434528E+02  0.47000000000E+01 0.  1.
<mgrwt>
<rscale>  0 0.12626016E+03</rscale>
<asrwt>0</asrwt>
<pdfrwt beam="1">  1        2 0.95835093E-01 0.13496485E+03</pdfrwt>
<pdfrwt beam="2">  1       -2 0.35918624E-02 0.13496485E+03</pdfrwt>
<totfact> 0.14806136E+04</totfact>
</mgrwt>
</event>
<event>
 8    1  0.3217375E-004  0.1262029E+03  0.7546771E-02  0.1249359E+00
          1   -1    0    0  501    0  0.00000000000E+00  0.00000000000E+00  0.19512596738E+02  0.19512596738E+02  0.00000000000E+00 0. -1.
         -1   -1    0    0    0  501 -0.00000000000E+00 -0.00000000000E+00 -0.61022045831E+03  0.61022045831E+03  0.00000000000E+00 0.  1.
         25    2    1    2    0    0  0.14790777459E+02 -0.95440621324E+01 -0.37364040622E+03  0.39437841293E+03  0.12496928904E+03 0.  0.
         23    2    1    2    0    0 -0.14790777459E+02  0.95440621324E+01 -0.21706745535E+03  0.23535464212E+03  0.89239403713E+02 0.  0.
          5    1    3    3  502    0  0.67449605596E+02 -0.13041530566E+02 -0.26048339113E+03  0.26943128599E+03  0.47000000000E+01 0. -1.
         -5    1    3    3    0  502 -0.52658828137E+02  0.34974684333E+01 -0.11315701509E+03  0.12494712694E+03  0.47000000000E+01 0. -1.
          5    1    4    4  503    0 -0.15168509323E+01 -0.35129068006E+02 -0.46582947236E+02  0.58552653475E+02  0.47000000000E+01 0. -1.
         -5    1    4    4    0  503 -0.13273926527E+02  0.44673130139E+02 -0.17048450811E+03  0.17680198864E+03  0.47000000000E+01 0.  1.
<mgrwt>
<rscale>  0 0.11628225E+03</rscale>
<asrwt>0</asrwt>
<pdfrwt beam="1">  1        1 0.30019383E-02 0.12620293E+03</pdfrwt>
<pdfrwt beam="2">  1       -1 0.93880060E-01 0.12620293E+03</pdfrwt>
<totfact> 0.37685734E+03</totfact>
</mgrwt>
</event>
<event>
 8    1  0.3217375E-004  0.2364786E+03  0.7546771E-02  0.1125016E+00
         -1   -1    0    0    0  501 -0.00000000000E+00  0.00000000000E+00  0.41327965058E+03  0.41327965058E+03  0.00000000000E+00 0.  1.
          1   -1    0    0  501    0  0.00000000000E+00 -0.00000000000E+00 -0.15967485536E+03  0.15967485536E+03  0.00000000000E+00 0. -1.
         25    2    1    2    0    0 -0.14100384757E+03  0.14288100029E+03  0.26144892056E+03  0.35253036096E+03  0.12500020825E+03 0.  0.
         23    2    1    2    0    0  0.14100384757E+03 -0.14288100029E+03 -0.78441253387E+01  0.22042414498E+03  0.90709470915E+02 0.  0.
          5    1    4    4  502    0  0.46751332645E+02  0.74553201414E+00 -0.12065542354E+02  0.48517112800E+02  0.47000000000E+01 0. -1.
         -5    1    4    4    0  502  0.94252514929E+02 -0.14362653230E+03  0.42214170153E+01  0.17190703218E+03  0.47000000000E+01 0.  1.
          5    1    3    3  503    0 -0.14508655857E+03  0.71225930085E+02  0.15447144225E+03  0.22362191096E+03  0.47000000000E+01 0. -1.
         -5    1    3    3    0  503  0.40827109909E+01  0.71655070201E+02  0.10697747831E+03  0.12890845000E+03  0.47000000000E+01 0. -1.
<mgrwt>
<rscale>  0 0.23232174E+03</rscale>
<asrwt>0</asrwt>
<pdfrwt beam="1">  1        1 0.24565362E-01 0.23647858E+03</pdfrwt>
<pdfrwt beam="2">  1       -1 0.63581485E-01 0.23647858E+03</pdfrwt>
<totfact> 0.50974878E+02</totfact>
</mgrwt>
</event>
<event>
 8    1  0.3217375E-004  0.1500127E+03  0.7546771E-02  0.1209016E+00
          2   -1    0    0  501    0  0.00000000000E+00  0.00000000000E+00  0.52255466128E+03  0.52255466128E+03  0.00000000000E+00 0.  1.
         -2   -1    0    0    0  501 -0.00000000000E+00 -0.00000000000E+00 -0.42634532728E+02  0.42634532728E+02  0.00000000000E+00 0. -1.
         25    2    1    2    0    0 -0.34050588564E+02 -0.75627256071E+02  0.36872913345E+03  0.39807662395E+03  0.12499960096E+03 0.  0.
         23    2    1    2    0    0  0.34050588564E+02  0.75627256071E+02  0.11119099510E+03  0.16711257006E+03  0.93189319328E+02 0.  0.
          5    1    3    3  502    0 -0.11512601443E+02  0.30456444932E+02  0.39455627981E+02  0.51370921826E+02  0.47000000000E+01 0.  1.
         -5    1    3    3    0  502 -0.22537987121E+02 -0.10608370100E+03  0.32927350547E+03  0.34670570212E+03  0.47000000000E+01 0.  1.
          5    1    4    4  503    0  0.34851498570E+02  0.44368809382E+02  0.56034050625E+01  0.56892058733E+02  0.47000000000E+01 0. -1.
         -5    1    4    4    0  503 -0.80091000622E+00  0.31258446689E+02  0.10558759004E+03  0.11022051132E+03  0.47000000000E+01 0.  1.
<mgrwt>
<rscale>  0 0.14325454E+03</rscale>
<asrwt>0</asrwt>
<pdfrwt beam="1">  1        2 0.80393021E-01 0.15001275E+03</pdfrwt>
<pdfrwt beam="2">  1       -2 0.65591592E-02 0.15001275E+03</pdfrwt>
<totfact> 0.73579780E+03</totfact>
</mgrwt>
</event>
<event>
 8    1  0.3217375E-004  0.1590792E+03  0.7546771E-02  0.1197867E+00
         -4   -1    0    0    0  501 -0.00000000000E+00  0.00000000000E+00  0.10517564529E+04  0.10517564529E+04  0.00000000000E+00 0.  1.
          4   -1    0    0  501    0  0.00000000000E+00 -0.00000000000E+00 -0.20781360121E+02  0.20781360121E+02  0.00000000000E+00 0. -1.
         25    2    1    2    0    0  0.92960319657E+02 -0.32212071070E+02  0.64236190623E+03  0.66176658341E+03  0.12500781489E+03 0.  0.
         23    2    1    2    0    0 -0.92960319657E+02  0.32212071070E+02  0.38861318652E+03  0.41077122959E+03  0.89630105237E+02 0.  0.
          5    1    3    3  502    0  0.51189407930E+02 -0.71705959398E+02  0.50714379664E+03  0.51476112962E+03  0.47000000000E+01 0. -1.
         -5    1    3    3    0  502  0.41770911727E+02  0.39493888328E+02  0.13521810959E+03  0.14700545378E+03  0.47000000000E+01 0. -1.
          5    1    4    4  503    0 -0.84282633712E+01 -0.27153801029E+02  0.66715250037E+02  0.72673097644E+02  0.47000000000E+01 0. -1.
         -5    1    4    4    0  503 -0.84532056285E+02  0.59365872099E+02  0.32189793648E+03  0.33809813194E+03  0.47000000000E+01 0.  1.
<mgrwt>
<rscale>  0 0.15214088E+03</rscale>
<asrwt>0</asrwt>
<pdfrwt beam="1">  1        4 0.31971332E-02 0.15907920E+03</pdfrwt>
<pdfrwt beam="2">  1       -4 0.16180864E+00 0.15907920E+03</pdfrwt>
<totfact> 0.21909128E+02</totfact>
</mgrwt>
</event>
<event>
 8    1  0.3217375E-004  0.1450690E+03  0.7546771E-02  0.1216592E+00
         -1   -1    0    0    0  501 -0.00000000000E+00  0.00000000000E+00  0.25631981540E+02  0.25631981540E+02  0.00000000000E+00 0. -1.
          1   -1    0    0  501    0  0.00000000000E+00 -0.00000000000E+00 -0.68636628264E+03  0.68636628264E+03  0.00000000000E+00 0.  1.
         25    2    1    2    0    0  0.68043240608E+02  0.28085875414E+02 -0.31332311233E+03  0.34527724191E+03  0.12500520816E+03 0.  0.
         23    2    1    2    0    0 -0.68043240608E+02 -0.28085875414E+02 -0.34741118877E+03  0.36672102228E+03  0.91493579590E+02 0.  0.
          5    1    3    3  502    0 -0.31377636379E+02 -0.65232530335E+01 -0.35076309996E+02  0.47744595693E+02  0.47000000000E+01 0. -1.
         -5    1    4    4    0  503 -0.59626320467E+02 -0.50793168773E+01 -0.33203667758E+03  0.33741894258E+03  0.47000000000E+01 0.  1.
          5    1    4    4  503    0 -0.84169201404E+01 -0.23006558537E+02 -0.15374511194E+02  0.29302079701E+02  0.47000000000E+01 0. -1.
         -5    1    3    3    0  502  0.99420876987E+02  0.34609128447E+02 -0.27824680234E+03  0.29753264621E+03  0.47000000000E+01 0. -1.
<mgrwt>
<rscale>  0 0.13760224E+03</rscale>
<asrwt>0</asrwt>
<pdfrwt beam="1">  1        1 0.10559481E+00 0.14506895E+03</pdfrwt>
<pdfrwt beam="2">  1       -1 0.39433820E-02 0.14506895E+03</pdfrwt>
<totfact> 0.70479534E+03</totfact>
</mgrwt>
</event>
<event>
 8    1  0.3217375E-004  0.1703518E+03  0.7546771E-02  0.1183852E+00
         -2   -1    0    0    0  501 -0.00000000000E+00  0.00000000000E+00  0.10426340398E+03  0.10426340398E+03  0.00000000000E+00 0.  1.
          2   -1    0    0  501    0  0.00000000000E+00 -0.00000000000E+00 -0.24868655716E+03  0.24868655716E+03  0.00000000000E+00 0. -1.
         25    2    1    2    0    0 -0.92885078855E+02 -0.69047075573E+02 -0.49413099830E+02  0.17737363503E+03  0.12499846179E+03 0.  0.
         23    2    1    2    0    0  0.92885078855E+02  0.69047075573E+02 -0.95010053350E+02  0.17557632612E+03  0.91678784547E+02 0.  0.
          5    1    4    4  502    0  0.33341135873E+02 -0.13287390400E+02 -0.55904615816E+02  0.66600316474E+02  0.47000000000E+01 0. -1.
         -5    1    4    4    0  502  0.59543942982E+02  0.82334465973E+02 -0.39105437534E+02  0.10897600964E+03  0.47000000000E+01 0.  1.
          5    1    3    3  503    0 -0.74875718035E+01 -0.81604124017E+02 -0.37029049280E+02  0.90047416835E+02  0.47000000000E+01 0.  1.
         -5    1    3    3    0  503 -0.85397507052E+02  0.12557048444E+02 -0.12384050551E+02  0.87326218196E+02  0.47000000000E+01 0.  1.
<mgrwt>
<rscale>  0 0.16436810E+03</rscale>
<asrwt>0</asrwt>
<pdfrwt beam="1">  1        2 0.38259471E-01 0.17035185E+03</pdfrwt>
<pdfrwt beam="2">  1       -2 0.16040524E-01 0.17035185E+03</pdfrwt>
<totfact> 0.39952076E+03</totfact>
</mgrwt>
</event>
<event>
 8    1  0.3217375E-004  0.4545290E+03  0.7546771E-02  0.1026815E+00
          1   -1    0    0  501    0  0.00000000000E+00  0.00000000000E+00  0.99897493911E+03  0.99897493911E+03  0.00000000000E+00 0. -1.
         -1   -1    0    0    0  501 -0.00000000000E+00 -0.00000000000E+00 -0.34935889799E+03  0.34935889799E+03  0.00000000000E+00 0.  1.
         25    2    1    2    0    0  0.83418021930E+02  0.42896594706E+03 -0.10859567751E+03  0.46732179908E+03  0.12500517032E+03 0.  0.
         23    2    1    2    0    0 -0.83418021930E+02 -0.42896594706E+03  0.75821171862E+03  0.88101203802E+03  0.10162111374E+03 0.  0.
          5    1    4    4  502    0 -0.39838741406E+02 -0.30970792439E+03  0.61368079530E+03  0.68857267755E+03  0.47000000000E+01 0. -1.
         -5    1    3    3    0  503  0.10474606890E+03  0.26358161785E+03 -0.98165670969E+02  0.30017594370E+03  0.47000000000E+01 0.  1.
          5    1    3    3  503    0 -0.21328046971E+02  0.16538432921E+03 -0.10430006537E+02  0.16714585539E+03  0.47000000000E+01 0.  1.
         -5    1    4    4    0  502 -0.43579280523E+02 -0.11925802267E+03  0.14453092332E+03  0.19243936047E+03  0.47000000000E+01 0.  1.
<mgrwt>
<rscale>  0 0.45305501E+03</rscale>
<asrwt>0</asrwt>
<pdfrwt beam="1">  1        1 0.15368845E+00 0.45452903E+03</pdfrwt>
<pdfrwt beam="2">  1       -1 0.53747523E-01 0.45452903E+03</pdfrwt>
<totfact> 0.56204909E+01</totfact>
</mgrwt>
</event>
<event>
 8    1  0.3217375E-004  0.1336969E+03  0.7546771E-02  0.1235533E+00
          2   -1    0    0  501    0  0.00000000000E+00  0.00000000000E+00  0.10564687111E+03  0.10564687111E+03  0.00000000000E+00 0. -1.
         -2   -1    0    0    0  501 -0.00000000000E+00 -0.00000000000E+00 -0.15521243008E+03  0.15521243008E+03  0.00000000000E+00 0.  1.
         25    2    1    2    0    0 -0.47262339615E+02  0.45002980384E+01 -0.79226333232E+02  0.15540804387E+03  0.12498346608E+03 0.  0.
         23    2    1    2    0    0  0.47262339615E+02 -0.45002980384E+01  0.29660774263E+02  0.10545125732E+03  0.89365679719E+02 0.  0.
          5    1    3    3  502    0 -0.14682800284E+02 -0.32835353173E+02 -0.96205950913E+02  0.10281741114E+03  0.47000000000E+01 0.  1.
         -5    1    4    4    0  503  0.48058784121E+02  0.24066383969E+02 -0.11458516081E+02  0.55156370070E+02  0.47000000000E+01 0.  1.
          5    1    4    4  503    0 -0.79644450603E+00 -0.28566682008E+02  0.41119290344E+02  0.50294887247E+02  0.47000000000E+01 0. -1.
         -5    1    3    3    0  502 -0.32579539331E+02  0.37335651211E+02  0.16979617681E+02  0.52590632731E+02  0.47000000000E+01 0.  1.
<mgrwt>
<rscale>  0 0.12470374E+03</rscale>
<asrwt>0</asrwt>
<pdfrwt beam="1">  1        2 0.16253365E-01 0.13369685E+03</pdfrwt>
<pdfrwt beam="2">  1       -2 0.23878835E-01 0.13369685E+03</pdfrwt>
<totfact> 0.51953975E+03</totfact>
</mgrwt>
</event>
<event>
 8    1  0.3217375E-004  0.1293763E+03  0.7546771E-02  0.1241836E+00
          2   -1    0    0  501    0  0.00000000000E+00  0.00000000000E+00  0.59086733309E+03  0.59086733309E+03  0.00000000000E+00 0.  1.
         -2   -1    0    0    0  501 -0.00000000000E+00 -0.00000000000E+00 -0.23098266201E+02  0.23098266201E+02  0.00000000000E+00 0. -1.
         25    2    1    2    0    0 -0.32179849223E+02 -0.88000492601E+01  0.38951057357E+03  0.41043477674E+03  0.12500094191E+03 0.  0.
         23    2    1    2    0    0  0.32179849223E+02  0.88000492601E+01  0.17825849333E+03  0.20353082255E+03  0.92388969698E+02 0.  0.
          5    1    4    4  502    0  0.89936453865E+01 -0.34693725238E+02  0.29210789667E+02  0.46474729276E+02  0.47000000000E+01 0. -1.
         -5    1    4    4    0  502  0.23186203837E+02  0.43493774499E+02  0.14904770366E+03  0.15705609327E+03  0.47000000000E+01 0.  1.
          5    1    3    3  503    0 -0.50905477089E+02  0.47492969253E+02  0.21766033195E+03  0.22857178267E+03  0.47000000000E+01 0.  1.
         -5    1    3    3    0  503  0.18725627866E+02 -0.56293018513E+02  0.17185024162E+03  0.18186299408E+03  0.47000000000E+01 0.  1.
<mgrwt>
<rscale>  0 0.12076737E+03</rscale>
<asrwt>0</asrwt>
<pdfrwt beam="1">  1        2 0.90902655E-01 0.12937627E+03</pdfrwt>
<pdfrwt beam="2">  1       -2 0.35535799E-02 0.12937627E+03</pdfrwt>
<totfact> 0.15923932E+04</totfact>
</mgrwt>
</event>
<event>
 8    1  0.3217375E-004  0.1591596E+03  0.7546771E-02  0.1197072E+00
         -1   -1    0    0    0  501 -0.00000000000E+00  0.00000000000E+00  0.33119807805E+03  0.33119807805E+03  0.00000000000E+00 0.  1.
          1   -1    0    0  501    0  0.00000000000E+00 -0.00000000000E+00 -0.66584409262E+02  0.66584409262E+02  0.00000000000E+00 0. -1.
         25    2    1    2    0    0 -0.48941861803E+01 -0.98398884591E+02  0.16921527355E+03  0.23230491283E+03  0.12500188069E+03 0.  0.
         23    2    1    2    0    0  0.48941861803E+01  0.98398884591E+02  0.95398395238E+02  0.16547757448E+03  0.92604969060E+02 0.  0.
          5    1    3    3  502    0 -0.23176339804E+02  0.20223648499E+02  0.69666779624E+02  0.76299992585E+02  0.47000000000E+01 0.  1.
         -5    1    3    3    0  502  0.18282153624E+02 -0.11862253309E+03  0.99548493921E+02  0.15600492024E+03  0.47000000000E+01 0.  1.
          5    1    4    4  503    0 -0.40624711421E+02  0.60801175973E+02  0.36162186314E+02  0.81712568781E+02  0.47000000000E+01 0. -1.
         -5    1    4    4    0  503  0.45518897601E+02  0.37597708618E+02  0.59236208923E+02  0.83765005699E+02  0.47000000000E+01 0.  1.
<mgrwt>
<rscale>  0 0.15280143E+03</rscale>
<asrwt>0</asrwt>
<pdfrwt beam="1">  1        1 0.10243755E-01 0.15915955E+03</pdfrwt>
<pdfrwt beam="2">  1       -1 0.50953549E-01 0.15915955E+03</pdfrwt>
<totfact> 0.24036961E+03</totfact>
</mgrwt>
</event>
<event>
 8    1  0.3217375E-004  0.1560226E+03  0.7546771E-02  0.1201606E+00
         -2   -1    0    0    0  501 -0.00000000000E+00  0.00000000000E+00  0.28827451583E+02  0.28827451583E+02  0.00000000000E+00 0.  1.
          2   -1    0    0  501    0  0.00000000000E+00 -0.00000000000E+00 -0.74920528923E+03  0.74920528923E+03  0.00000000000E+00 0. -1.
         25    2    1    2    0    0 -0.92749604606E+02 -0.10794549534E+02 -0.48008208892E+03  0.50479884941E+03  0.12499621916E+03 0.  0.
         23    2    1    2    0    0  0.92749604606E+02  0.10794549534E+02 -0.24029574872E+03  0.27323389141E+03  0.90530111588E+02 0.  0.
          5    1    3    3  502    0  0.25789474935E+02  0.18181419611E+02 -0.70148683944E+02  0.77062240400E+02  0.47000000000E+01 0.  1.
         -5    1    3    3    0  502 -0.11853907954E+03 -0.28975969144E+02 -0.40993340498E+03  0.42773660901E+03  0.47000000000E+01 0.  1.
          5    1    4    4  503    0  0.30910263276E+02  0.33313181749E+02 -0.17323092248E+03  0.17915427698E+03  0.47000000000E+01 0. -1.
         -5    1    4    4    0  503  0.61839341329E+02 -0.22518632215E+02 -0.67064826242E+02  0.94079614432E+02  0.47000000000E+01 0.  1.
<mgrwt>
<rscale>  0 0.14908152E+03</rscale>
<asrwt>0</asrwt>
<pdfrwt beam="1">  1        2 0.11526233E+00 0.15602265E+03</pdfrwt>
<pdfrwt beam="2">  1       -2 0.44349932E-02 0.15602265E+03</pdfrwt>
<totfact> 0.87790535E+03</totfact>
</mgrwt>
</event>
<event>
 8    1  0.3217375E-004  0.1341169E+03  0.7546771E-02  0.1229404E+00
          2   -1    0    0  501    0  0.00000000000E+00  0.00000000000E+00  0.87994595630E+03  0.87994595630E+03  0.00000000000E+00 0. -1.
         -2   -1    0    0    0  501 -0.00000000000E+00 -0.00000000000E+00 -0.17551989005E+02  0.17551989005E+02  0.00000000000E+00 0.  1.
         25    2    1    2    0    0  0.10380968789E+02 -0.47485920926E+02  0.50063642569E+03  0.51828966615E+03  0.12499868043E+03 0.  0.
         23    2    1    2    0    0 -0.10380968789E+02  0.47485920926E+02  0.36175754160E+03  0.37920827915E+03  0.10279943032E+03 0.  0.
          5    1    4    4  502    0 -0.40500077101E+02 -0.42508117740E+01  0.23968805917E+03  0.24316821617E+03  0.47000000000E+01 0. -1.
         -5    1    3    3    0  503 -0.29075513512E+02 -0.75120001235E+02  0.37655480914E+03  0.38510260237E+03  0.47000000000E+01 0. -1.
          5    1    3    3  503    0  0.39456482301E+02  0.27634080309E+02  0.12408161656E+03  0.13318706378E+03  0.47000000000E+01 0. -1.
         -5    1    4    4    0  502  0.30119108312E+02  0.51736732700E+02  0.12206948243E+03  0.13604006298E+03  0.47000000000E+01 0.  1.
<mgrwt>
<rscale>  0 0.12869574E+03</rscale>
<asrwt>0</asrwt>
<pdfrwt beam="1">  1        2 0.13537627E+00 0.13411692E+03</pdfrwt>
<pdfrwt beam="2">  1       -2 0.27003067E-02 0.13411692E+03</pdfrwt>
<totfact> 0.14813117E+04</totfact>
</mgrwt>
</event>
<event>
 8    1  0.3217375E-004  0.2486332E+03  0.7546771E-02  0.1116754E+00
          2   -1    0    0  501    0  0.00000000000E+00  0.00000000000E+00  0.12981955213E+04  0.12981955213E+04  0.00000000000E+00 0. -1.
         -2   -1    0    0    0  501 -0.00000000000E+00 -0.00000000000E+00 -0.47952029713E+02  0.47952029713E+02  0.00000000000E+00 0.  1.
         25    2    1    2    0    0 -0.22625548049E+02  0.21373399932E+03  0.82022878406E+03  0.85708444205E+03  0.12499737880E+03 0.  0.
         23    2    1    2    0    0  0.22625548049E+02 -0.21373399932E+03  0.43001470749E+03  0.48906310893E+03  0.89866222614E+02 0.  0.
          5    1    3    3  502    0  0.23761527355E+02  0.16833697988E+03  0.70011190010E+03  0.72047256133E+03  0.47000000000E+01 0.  1.
         -5    1    4    4    0  503  0.43735989482E+02 -0.10982668263E+03  0.16040604319E+03  0.19931614507E+03  0.47000000000E+01 0.  1.
          5    1    4    4  503    0 -0.21110441434E+02 -0.10390731669E+03  0.26960866430E+03  0.28974696386E+03  0.47000000000E+01 0. -1.
         -5    1    3    3    0  502 -0.46387075404E+02  0.45397019449E+02  0.12011688396E+03  0.13661188072E+03  0.47000000000E+01 0.  1.
<mgrwt>
<rscale>  0 0.24461857E+03</rscale>
<asrwt>0</asrwt>
<pdfrwt beam="1">  1        2 0.19972236E+00 0.24863323E+03</pdfrwt>
<pdfrwt beam="2">  1       -2 0.73772363E-02 0.24863323E+03</pdfrwt>
<totfact> 0.18889382E+03</totfact>
</mgrwt>
</event>
<event>
 8    1  0.3217375E-004  0.1743690E+03  0.7546771E-02  0.1179427E+00
         -2   -1    0    0    0  501 -0.00000000000E+00  0.00000000000E+00  0.38034440152E+03  0.38034440152E+03  0.00000000000E+00 0.  1.
          2   -1    0    0  501    0  0.00000000000E+00 -0.00000000000E+00 -0.70196882644E+02  0.70196882644E+02  0.00000000000E+00 0. -1.
         25    2    1    2    0    0 -0.84491611856E+02  0.87429699410E+02  0.15461238339E+03  0.23304409324E+03  0.12498710128E+03 0.  0.
         23    2    1    2    0    0  0.84491611856E+02 -0.87429699410E+02  0.15553513549E+03  0.21749719092E+03  0.91274667213E+02 0.  0.
          5    1    4    4  502    0 -0.23221165152E+01 -0.53227572174E+02  0.31021218064E+02  0.61830191936E+02  0.47000000000E+01 0. -1.
         -5    1    3    3    0  503 -0.11365428806E+03  0.79436517308E+02  0.10208319959E+03  0.17225134866E+03  0.47000000000E+01 0. -1.
          5    1    3    3  503    0  0.29162676203E+02  0.79931821012E+01  0.52529183802E+02  0.60792744587E+02  0.47000000000E+01 0. -1.
         -5    1    4    4    0  502  0.86813728371E+02 -0.34202127236E+02  0.12451391742E+03  0.15566699899E+03  0.47000000000E+01 0.  1.
<mgrwt>
<rscale>  0 0.16849463E+03</rscale>
<asrwt>0</asrwt>
<pdfrwt beam="1">  1        2 0.10799521E-01 0.17436903E+03</pdfrwt>
<pdfrwt beam="2">  1       -2 0.58514522E-01 0.17436903E+03</pdfrwt>
<totfact> 0.15912194E+03</totfact>
</mgrwt>
</event>
<event>
 8    1  0.3217375E-004  0.1266384E+03  0.7546771E-02  0.1248672E+00
          2   -1    0    0  501    0  0.00000000000E+00  0.00000000000E+00  0.51347332882E+03  0.51347332882E+03  0.00000000000E+00 0. -1.
         -2   -1    0    0    0  501 -0.00000000000E+00 -0.00000000000E+00 -0.23187464376E+02  0.23187464376E+02  0.00000000000E+00 0.  1.
         25    2    1    2    0    0  0.77550996089E+01 -0.18756067671E+02  0.27044082194E+03  0.29862270575E+03  0.12500140229E+03 0.  0.
         23    2    1    2    0    0 -0.77550996089E+01  0.18756067671E+02  0.21984504250E+03  0.23803808744E+03  0.88985148849E+02 0.  0.
          5    1    4    4  502    0 -0.29885875883E+02 -0.24930315488E+02  0.12770454479E+03  0.13358602834E+03  0.47000000000E+01 0. -1.
         -5    1    3    3    0  503  0.21806359962E+02 -0.53801521797E+02  0.24735180423E+03  0.25411636338E+03  0.47000000000E+01 0.  1.
          5    1    3    3  503    0 -0.14051260353E+02  0.35045454126E+02  0.23089017708E+02  0.44506342369E+02  0.47000000000E+01 0.  1.
         -5    1    4    4    0  502  0.22130776275E+02  0.43686383159E+02  0.92140497715E+02  0.10445205910E+03  0.47000000000E+01 0.  1.
<mgrwt>
<rscale>  0 0.11668272E+03</rscale>
<asrwt>0</asrwt>
<pdfrwt beam="1">  1        2 0.78995888E-01 0.12663839E+03</pdfrwt>
<pdfrwt beam="2">  1       -2 0.35673026E-02 0.12663839E+03</pdfrwt>
<totfact> 0.18482799E+04</totfact>
</mgrwt>
</event>
<event>
 8    1  0.3217375E-004  0.1373087E+03  0.7546771E-02  0.1228820E+00
         -1   -1    0    0    0  501 -0.00000000000E+00  0.00000000000E+00  0.22363202532E+02  0.22363202532E+02  0.00000000000E+00 0.  1.
          1   -1    0    0  501    0  0.00000000000E+00 -0.00000000000E+00 -0.11626210477E+04  0.11626210477E+04  0.00000000000E+00 0. -1.
         25    2    1    2    0    0  0.42518514424E+02  0.37723608661E+02 -0.22589346217E+03  0.26435115851E+03  0.12499113582E+03 0.  0.
         23    2    1    2    0    0 -0.42518514424E+02 -0.37723608661E+02 -0.91436438297E+03  0.92063309170E+03  0.90951470389E+02 0.  0.
          5    1    4    4  502    0  0.15797440188E+02  0.16524812222E+02 -0.11828934974E+03  0.12056985028E+03  0.47000000000E+01 0. -1.
         -5    1    4    4    0  502 -0.58315954612E+02 -0.54248420883E+02 -0.79607503323E+03  0.80006324141E+03  0.47000000000E+01 0.  1.
          5    1    3    3  503    0  0.45415145532E+02  0.15727032887E+02 -0.12669832683E+02  0.49924840184E+02  0.47000000000E+01 0.  1.
         -5    1    3    3    0  503 -0.28966311083E+01  0.21996575774E+02 -0.21322362949E+03  0.21442631833E+03  0.47000000000E+01 0.  1.
<mgrwt>
<rscale>  0 0.12908484E+03</rscale>
<asrwt>0</asrwt>
<pdfrwt beam="1">  1        1 0.17886475E+00 0.13730870E+03</pdfrwt>
<pdfrwt beam="2">  1       -1 0.34404932E-02 0.13730870E+03</pdfrwt>
<totfact> 0.36867952E+03</totfact>
</mgrwt>
</event>
<event>
 8    1  0.3217375E-004  0.2156825E+03  0.7546771E-02  0.1140844E+00
         -1   -1    0    0    0  501 -0.00000000000E+00  0.00000000000E+00  0.21852882907E+02  0.21852882907E+02  0.00000000000E+00 0.  1.
          1   -1    0    0  501    0  0.00000000000E+00 -0.00000000000E+00 -0.19943558934E+04  0.19943558934E+04  0.00000000000E+00 0. -1.
         25    2    1    2    0    0 -0.16588289341E+03  0.58102498196E+02 -0.11786422929E+04  0.11982139152E+04  0.12500358919E+03 0.  0.
         23    2    1    2    0    0  0.16588289341E+03 -0.58102498196E+02 -0.79386071759E+03  0.81799486112E+03  0.89485860668E+02 0.  0.
          5    1    4    4  502    0  0.11568167474E+03 -0.22401875407E+02 -0.66146159060E+03  0.67189107728E+03  0.47000000000E+01 0. -1.
         -5    1    3    3    0  503 -0.41624009433E+02 -0.39187810577E+02 -0.34888663981E+03  0.35357067200E+03  0.47000000000E+01 0. -1.
          5    1    3    3  503    0 -0.12425888398E+03  0.97290308773E+02 -0.82975565310E+03  0.84464324319E+03  0.47000000000E+01 0. -1.
         -5    1    4    4    0  502  0.50201218667E+02 -0.35700622790E+02 -0.13239912699E+03  0.14610378384E+03  0.47000000000E+01 0.  1.
<mgrwt>
<rscale>  0 0.21091424E+03</rscale>
<asrwt>0</asrwt>
<pdfrwt beam="1">  1        1 0.30682391E+00 0.21568248E+03</pdfrwt>
<pdfrwt beam="2">  1       -1 0.33619828E-02 0.21568248E+03</pdfrwt>
<totfact> 0.10888334E+03</totfact>
</mgrwt>
</event>
<event>
 8    1  0.3217375E-004  0.1255946E+03  0.7546771E-02  0.1243373E+00
          1   -1    0    0  501    0  0.00000000000E+00  0.00000000000E+00  0.46148595560E+03  0.46148595560E+03  0.00000000000E+00 0. -1.
         -1   -1    0    0    0  501 -0.00000000000E+00 -0.00000000000E+00 -0.29188160983E+02  0.29188160983E+02  0.00000000000E+00 0.  1.
         25    2    1    2    0    0  0.36355637488E+01 -0.11702887076E+02  0.27129361948E+03  0.29895522206E+03  0.12499528765E+03 0.  0.
         23    2    1    2    0    0 -0.36355637488E+01  0.11702887076E+02  0.16100417513E+03  0.19171889452E+03  0.10336157515E+03 0.  0.
          5    1    3    3  502    0 -0.47502448241E+02  0.24489873611E+02  0.18222300509E+03  0.18995670581E+03  0.47000000000E+01 0. -1.
         -5    1    4    4    0  503  0.73429650873E+01 -0.19319295640E+02 -0.55256130526E+01  0.21903806060E+02  0.47000000000E+01 0.  1.
          5    1    4    4  503    0 -0.10978528836E+02  0.31022182716E+02  0.16652978819E+03  0.16981508846E+03  0.47000000000E+01 0. -1.
         -5    1    3    3    0  502  0.51138011989E+02 -0.36192760687E+02  0.89070614392E+02  0.10899851625E+03  0.47000000000E+01 0. -1.
<mgrwt>
<rscale>  0 0.11983280E+03</rscale>
<asrwt>0</asrwt>
<pdfrwt beam="1">  1        1 0.70997834E-01 0.12559457E+03</pdfrwt>
<pdfrwt beam="2">  1       -1 0.44904866E-02 0.12559457E+03</pdfrwt>
<totfact> 0.98319865E+03</totfact>
</mgrwt>
</event>
<event>
 8    1  0.3217375E-004  0.1637347E+03  0.7546771E-02  0.1191798E+00
         -1   -1    0    0    0  501 -0.00000000000E+00  0.00000000000E+00  0.45274986199E+03  0.45274986199E+03  0.00000000000E+00 0.  1.
          1   -1    0    0  501    0  0.00000000000E+00 -0.00000000000E+00 -0.68021341833E+02  0.68021341833E+02  0.00000000000E+00 0. -1.
         25    2    1    2    0    0 -0.39048679732E+02 -0.98285783524E+02  0.72969401816E+02  0.17925847252E+03  0.12499668690E+03 0.  0.
         23    2    1    2    0    0  0.39048679732E+02  0.98285783524E+02  0.31175911835E+03  0.34151273131E+03  0.90842188116E+02 0.  0.
          5    1    3    3  502    0 -0.76823053239E+02 -0.27363199079E+02  0.49076591529E+02  0.95294952693E+02  0.47000000000E+01 0.  1.
         -5    1    3    3    0  502  0.37774373507E+02 -0.70922584444E+02  0.23892810287E+02  0.83963519826E+02  0.47000000000E+01 0.  1.
          5    1    4    4  503    0  0.18873487115E+02  0.58586572159E+02  0.60994542307E+02  0.86781444702E+02  0.47000000000E+01 0. -1.
         -5    1    4    4    0  503  0.20175192617E+02  0.39699211365E+02  0.25076457604E+03  0.25473128661E+03  0.47000000000E+01 0.  1.
<mgrwt>
<rscale>  0 0.15728411E+03</rscale>
<asrwt>0</asrwt>
<pdfrwt beam="1">  1        1 0.10464822E-01 0.16373474E+03</pdfrwt>
<pdfrwt beam="2">  1       -1 0.69653823E-01 0.16373474E+03</pdfrwt>
<totfact> 0.12888971E+03</totfact>
</mgrwt>
</event>
<event>
 8    1  0.3217375E-004  0.1401715E+03  0.7546771E-02  0.1225961E+00
         -2   -1    0    0    0  501 -0.00000000000E+00  0.00000000000E+00  0.25128954977E+03  0.25128954977E+03  0.00000000000E+00 0. -1.
          2   -1    0    0  501    0  0.00000000000E+00 -0.00000000000E+00 -0.65833951348E+02  0.65833951348E+02  0.00000000000E+00 0.  1.
         25    2    1    2    0    0 -0.19602164776E+02 -0.60333267572E+02  0.14784564432E+03  0.20373118959E+03  0.12499486000E+03 0.  0.
         23    2    1    2    0    0  0.19602164776E+02  0.60333267572E+02  0.37609954104E+02  0.11339231153E+03  0.86133382765E+02 0.  0.
          5    1    4    4  502    0  0.52527275446E+02  0.29682120111E+02  0.12982756705E+02  0.61893334792E+02  0.47000000000E+01 0. -1.
         -5    1    3    3    0  503  0.13997800789E+02 -0.57675558185E+02  0.83186874353E+01  0.60114049935E+02  0.47000000000E+01 0.  1.
          5    1    3    3  503    0 -0.33599965566E+02 -0.26577093862E+01  0.13952695688E+03  0.14361713965E+03  0.47000000000E+01 0.  1.
         -5    1    4    4    0  502 -0.32925110669E+02  0.30651147461E+02  0.24627197398E+02  0.51498976737E+02  0.47000000000E+01 0.  1.
<mgrwt>
<rscale>  0 0.13101284E+03</rscale>
<asrwt>0</asrwt>
<pdfrwt beam="1">  1        2 0.10128300E-01 0.14017155E+03</pdfrwt>
<pdfrwt beam="2">  1       -2 0.38659930E-01 0.14017155E+03</pdfrwt>
<totfact> 0.38413515E+03</totfact>
</mgrwt>
</event>
<event>
 8    1  0.3217375E-004  0.3319610E+03  0.7546771E-02  0.1071537E+00
         -1   -1    0    0    0  501 -0.00000000000E+00  0.00000000000E+00  0.31542375672E+03  0.31542375672E+03  0.00000000000E+00 0.  1.
          1   -1    0    0  501    0  0.00000000000E+00 -0.00000000000E+00 -0.37264216752E+03  0.37264216752E+03  0.00000000000E+00 0. -1.
         25    2    1    2    0    0  0.29554604054E+03 -0.84995421982E+02 -0.13459955145E+03  0.35821101851E+03  0.12500564266E+03 0.  0.
         23    2    1    2    0    0 -0.29554604054E+03  0.84995421982E+02  0.77381140647E+02  0.32985490573E+03  0.90800517998E+02 0.  0.
          5    1    3    3  502    0  0.16557882047E+03 -0.29948413621E+02 -0.79528348231E+01  0.16851881452E+03  0.47000000000E+01 0. -1.
         -5    1    4    4    0  503 -0.20077825991E+03  0.13921305563E+02  0.37524751264E+02  0.20478259046E+03  0.47000000000E+01 0.  1.
          5    1    4    4  503    0 -0.94767780632E+02  0.71074116420E+02  0.39856389383E+02  0.12507231526E+03  0.47000000000E+01 0. -1.
         -5    1    3    3    0  502  0.12996722007E+03 -0.55047008362E+02 -0.12664671663E+03  0.18969220399E+03  0.47000000000E+01 0. -1.
<mgrwt>
<rscale>  0 0.32909637E+03</rscale>
<asrwt>0</asrwt>
<pdfrwt beam="1">  1        1 0.57329564E-01 0.33196098E+03</pdfrwt>
<pdfrwt beam="2">  1       -1 0.48526732E-01 0.33196098E+03</pdfrwt>
<totfact> 0.28921681E+02</totfact>
</mgrwt>
</event>
<event>
 8    1  0.3217375E-004  0.1264699E+03  0.7546771E-02  0.1247562E+00
          2   -1    0    0  501    0  0.00000000000E+00  0.00000000000E+00  0.39111758872E+03  0.39111758872E+03  0.00000000000E+00 0. -1.
         -2   -1    0    0    0  501 -0.00000000000E+00 -0.00000000000E+00 -0.41874210922E+02  0.41874210922E+02  0.00000000000E+00 0.  1.
         25    2    1    2    0    0 -0.18815852620E+02  0.31108738477E+01  0.30335289273E+03  0.32866034390E+03  0.12502371885E+03 0.  0.
         23    2    1    2    0    0  0.18815852620E+02 -0.31108738477E+01  0.45890485060E+02  0.10433145574E+03  0.91735501262E+02 0.  0.
          5    1    3    3  502    0 -0.56663796152E+02 -0.16771000572E+00  0.61341104149E+02  0.83639912597E+02  0.47000000000E+01 0.  1.
         -5    1    4    4    0  503  0.29625414812E+02 -0.20992400453E+02 -0.15165129832E+02  0.39628490287E+02  0.47000000000E+01 0.  1.
          5    1    4    4  503    0 -0.10809562192E+02  0.17881526605E+02  0.61055614893E+02  0.64702965453E+02  0.47000000000E+01 0. -1.
         -5    1    3    3    0  502  0.37847943531E+02  0.32785838534E+01  0.24201178858E+03  0.24502043130E+03  0.47000000000E+01 0.  1.
<mgrwt>
<rscale>  0 0.11733344E+03</rscale>
<asrwt>0</asrwt>
<pdfrwt beam="1">  1        2 0.60171934E-01 0.12646993E+03</pdfrwt>
<pdfrwt beam="2">  1       -2 0.64421866E-02 0.12646993E+03</pdfrwt>
<totfact> 0.10237752E+04</totfact>
</mgrwt>
</event>
<event>
 8    1  0.3217375E-004  0.1329602E+03  0.7546771E-02  0.1236559E+00
         -3   -1    0    0    0  501 -0.00000000000E+00  0.00000000000E+00  0.89310705949E+02  0.89310705949E+02  0.00000000000E+00 0.  1.
          3   -1    0    0  501    0  0.00000000000E+00 -0.00000000000E+00 -0.15336541494E+03  0.15336541494E+03  0.00000000000E+00 0. -1.
         25    2    1    2    0    0 -0.18729084543E+02  0.41255405492E+02 -0.29769105148E+02  0.13625204967E+03  0.12500253728E+03 0.  0.
         23    2    1    2    0    0  0.18729084543E+02 -0.41255405492E+02 -0.34285603846E+02  0.10642407123E+03  0.89987739250E+02 0.  0.
          5    1    3    3  502    0  0.58360215122E+01 -0.37831556469E+02  0.15723236801E+02  0.41648481214E+02  0.47000000000E+01 0.  1.
         -5    1    4    4    0  503 -0.24683550582E+02  0.13536363795E+02 -0.27609336914E+00  0.28542547918E+02  0.47000000000E+01 0.  1.
          5    1    4    4  503    0  0.43412635125E+02 -0.54791769286E+02 -0.34009510477E+02  0.77881523309E+02  0.47000000000E+01 0. -1.
         -5    1    3    3    0  502 -0.24565106055E+02  0.79086961960E+02 -0.45492341949E+02  0.94603568451E+02  0.47000000000E+01 0.  1.
<mgrwt>
<rscale>  0 0.12405168E+03</rscale>
<asrwt>0</asrwt>
<pdfrwt beam="1">  1        3 0.23594679E-01 0.13296022E+03</pdfrwt>
<pdfrwt beam="2">  1       -3 0.13740109E-01 0.13296022E+03</pdfrwt>
<totfact> 0.16480634E+03</totfact>
</mgrwt>
</event>
<event>
 8    1  0.3217375E-004  0.1359162E+03  0.7546771E-02  0.1231025E+00
          4   -1    0    0  501    0  0.00000000000E+00  0.00000000000E+00  0.27200827638E+02  0.27200827638E+02  0.00000000000E+00 0.  1.
         -4   -1    0    0    0  501 -0.00000000000E+00 -0.00000000000E+00 -0.53893370689E+03  0.53893370689E+03  0.00000000000E+00 0. -1.
         25    2    1    2    0    0  0.20178915527E+02 -0.49415290914E+02 -0.30710165109E+03  0.33583422807E+03  0.12499658009E+03 0.  0.
         23    2    1    2    0    0 -0.20178915527E+02  0.49415290914E+02 -0.20463122817E+03  0.23030030646E+03  0.91187893967E+02 0.  0.
          5    1    4    4  502    0 -0.42374362978E+02  0.65252805213E+02 -0.14797921691E+03  0.16725266474E+03  0.47000000000E+01 0. -1.
         -5    1    3    3    0  503  0.12069223741E+02 -0.29805754965E+02 -0.31188991861E+03  0.31357847585E+03  0.47000000000E+01 0. -1.
          5    1    3    3  503    0  0.81096917859E+01 -0.19609535949E+02  0.47882675168E+01  0.22255752218E+02  0.47000000000E+01 0. -1.
         -5    1    4    4    0  502  0.22195447451E+02 -0.15837514299E+02 -0.56652011256E+02  0.63047641717E+02  0.47000000000E+01 0.  1.
<mgrwt>
<rscale>  0 0.12762397E+03</rscale>
<asrwt>0</asrwt>
<pdfrwt beam="1">  1        4 0.41847427E-02 0.13591617E+03</pdfrwt>
<pdfrwt beam="2">  1       -4 0.82912878E-01 0.13591617E+03</pdfrwt>
<totfact> 0.69207809E+02</totfact>
</mgrwt>
</event>
<event>
 8    1  0.3217375E-004  0.1389785E+03  0.7546771E-02  0.1225668E+00
          2   -1    0    0  501    0  0.00000000000E+00  0.00000000000E+00  0.62761864623E+02  0.62761864623E+02  0.00000000000E+00 0. -1.
         -2   -1    0    0    0  501 -0.00000000000E+00 -0.00000000000E+00 -0.24776716272E+03  0.24776716272E+03  0.00000000000E+00 0.  1.
         25    2    1    2    0    0 -0.31901871773E+02  0.51701091047E+02 -0.10255715838E+03  0.17272231124E+03  0.12499717528E+03 0.  0.
         23    2    1    2    0    0  0.31901871773E+02 -0.51701091047E+02 -0.82448139719E+02  0.13780671610E+03  0.92207716709E+02 0.  0.
          5    1    4    4  502    0  0.54849225518E+02 -0.14422888446E+02 -0.17868627248E+02  0.59647590821E+02  0.47000000000E+01 0. -1.
         -5    1    4    4    0  502 -0.22947353745E+02 -0.37278202601E+02 -0.64579512471E+02  0.78159125277E+02  0.47000000000E+01 0.  1.
          5    1    3    3  503    0 -0.17832523402E+02 -0.29305870999E+02 -0.80249133673E+02  0.87400494399E+02  0.47000000000E+01 0.  1.
         -5    1    3    3    0  503 -0.14069348371E+02  0.81006962046E+02 -0.22308024705E+02  0.85321816845E+02  0.47000000000E+01 0.  1.
<mgrwt>
<rscale>  0 0.13121230E+03</rscale>
<asrwt>0</asrwt>
<pdfrwt beam="1">  1        2 0.96556714E-02 0.13897851E+03</pdfrwt>
<pdfrwt beam="2">  1       -2 0.38118025E-01 0.13897851E+03</pdfrwt>
<totfact> 0.41809464E+03</totfact>
</mgrwt>
</event>
<event>
 8    1  0.3217375E-004  0.1289966E+03  0.7546771E-02  0.1243206E+00
          3   -1    0    0  501    0  0.00000000000E+00  0.00000000000E+00  0.51569498276E+02  0.51569498276E+02  0.00000000000E+00 0. -1.
         -3   -1    0    0    0  501 -0.00000000000E+00 -0.00000000000E+00 -0.26315369926E+03  0.26315369926E+03  0.00000000000E+00 0.  1.
         25    2    1    2    0    0 -0.28764847496E+02  0.13661252637E+02 -0.15958847960E+03  0.20520381593E+03  0.12500430784E+03 0.  0.
         23    2    1    2    0    0  0.28764847496E+02 -0.13661252637E+02 -0.51995721381E+02  0.10951938160E+03  0.90977434722E+02 0.  0.
          5    1    3    3  502    0  0.43139813869E+02  0.19646231214E+02 -0.10267099193E+03  0.11318321663E+03  0.47000000000E+01 0. -1.
         -5    1    4    4    0  503  0.57301482083E+02 -0.41260183835E+01 -0.11378418019E+02  0.58754083035E+02  0.47000000000E+01 0. -1.
          5    1    4    4  503    0 -0.28536634587E+02 -0.95352342535E+01 -0.40617303362E+02  0.50765298563E+02  0.47000000000E+01 0.  1.
         -5    1    3    3    0  502 -0.71904661365E+02 -0.59849785772E+01 -0.56917487666E+02  0.92020599307E+02  0.47000000000E+01 0. -1.
<mgrwt>
<rscale>  0 0.11993368E+03</rscale>
<asrwt>0</asrwt>
<pdfrwt beam="1">  1        3 0.79337688E-02 0.12899660E+03</pdfrwt>
<pdfrwt beam="2">  1       -3 0.40485185E-01 0.12899660E+03</pdfrwt>
<totfact> 0.14949489E+03</totfact>
</mgrwt>
</event>
<event>
 8    1  0.3217375E-004  0.1422016E+03  0.7546771E-02  0.1220961E+00
          2   -1    0    0  501    0  0.00000000000E+00  0.00000000000E+00  0.37152636752E+02  0.37152636752E+02  0.00000000000E+00 0. -1.
         -2   -1    0    0    0  501 -0.00000000000E+00 -0.00000000000E+00 -0.47408617281E+03  0.47408617281E+03  0.00000000000E+00 0.  1.
         25    2    1    2    0    0 -0.55830903907E+02 -0.38495541261E+02 -0.30845040138E+03  0.33965119078E+03  0.12498913858E+03 0.  0.
         23    2    1    2    0    0  0.55830903907E+02  0.38495541261E+02 -0.12848313468E+03  0.17158761878E+03  0.91298403563E+02 0.  0.
          5    1    3    3  502    0 -0.37610337355E+02  0.10213185768E+02 -0.27466817966E+03  0.27745908808E+03  0.47000000000E+01 0. -1.
         -5    1    4    4    0  503  0.52285491020E+02 -0.94065542747E+01 -0.28277744987E+02  0.60365360068E+02  0.47000000000E+01 0.  1.
          5    1    4    4  503    0  0.35454128864E+01  0.47902095536E+02 -0.10020538970E+03  0.11122225871E+03  0.47000000000E+01 0. -1.
         -5    1    3    3    0  502 -0.18220566551E+02 -0.48708727029E+02 -0.33782221712E+02  0.62192102698E+02  0.47000000000E+01 0. -1.
<mgrwt>
<rscale>  0 0.13447654E+03</rscale>
<asrwt>0</asrwt>
<pdfrwt beam="1">  1        2 0.57157904E-02 0.14220155E+03</pdfrwt>
<pdfrwt beam="2">  1       -2 0.72936332E-01 0.14220155E+03</pdfrwt>
<totfact> 0.22139474E+03</totfact>
</mgrwt>
</event>
<event>
 8    1  0.3217375E-004  0.1286998E+03  0.7546771E-02  0.1243349E+00
         -3   -1    0    0    0  501 -0.00000000000E+00  0.00000000000E+00  0.51056372885E+02  0.51056372885E+02  0.00000000000E+00 0.  1.
          3   -1    0    0  501    0  0.00000000000E+00 -0.00000000000E+00 -0.33080104482E+03  0.33080104482E+03  0.00000000000E+00 0. -1.
         25    2    1    2    0    0  0.30613349510E+02 -0.12546178277E+01 -0.60516640399E+02  0.14221775881E+03  0.12499950369E+03 0.  0.
         23    2    1    2    0    0 -0.30613349510E+02  0.12546178277E+01 -0.21922803153E+03  0.23963965889E+03  0.91801334791E+02 0.  0.
          5    1    4    4  502    0 -0.58989251129E+02  0.16745283781E+02 -0.16777609662E+03  0.17869259882E+03  0.47000000000E+01 0. -1.
         -5    1    3    3    0  503  0.65489312919E+02 -0.39481565497E+02 -0.32953033872E+02  0.83400459004E+02  0.47000000000E+01 0.  1.
          5    1    3    3  503    0 -0.34875963410E+02  0.38226947669E+02 -0.27563606528E+02  0.58817299808E+02  0.47000000000E+01 0.  1.
         -5    1    4    4    0  502  0.28375901620E+02 -0.15490665953E+02 -0.51451934914E+02  0.60947060067E+02  0.47000000000E+01 0.  1.
<mgrwt>
<rscale>  0 0.11984749E+03</rscale>
<asrwt>0</asrwt>
<pdfrwt beam="1">  1        3 0.50892468E-01 0.12869976E+03</pdfrwt>
<pdfrwt beam="2">  1       -3 0.78548267E-02 0.12869976E+03</pdfrwt>
<totfact> 0.96989509E+02</totfact>
</mgrwt>
</event>
<event>
 8    1  0.3217375E-004  0.1340765E+03  0.7546771E-02  0.1234259E+00
          2   -1    0    0  501    0  0.00000000000E+00  0.00000000000E+00  0.20474574387E+03  0.20474574387E+03  0.00000000000E+00 0. -1.
         -2   -1    0    0    0  501 -0.00000000000E+00 -0.00000000000E+00 -0.68631159957E+02  0.68631159957E+02  0.00000000000E+00 0.  1.
         25    2    1    2    0    0 -0.48023125969E+02 -0.67089262365E+01  0.75380011461E+02  0.15381367387E+03  0.12500107929E+03 0.  0.
         23    2    1    2    0    0  0.48023125969E+02  0.67089262365E+01  0.60734572454E+02  0.11956322995E+03  0.90859492333E+02 0.  0.
          5    1    4    4  502    0 -0.13194276485E+02  0.19493817379E+02  0.50640583765E+02  0.56041561113E+02  0.47000000000E+01 0. -1.
         -5    1    4    4    0  502  0.61217402454E+02 -0.12784891142E+02  0.10093988689E+02  0.63521668842E+02  0.47000000000E+01 0.  1.
          5    1    3    3  503    0  0.18311918551E+02 -0.22230720770E+02 -0.20814097638E+02  0.35844776014E+02  0.47000000000E+01 0. -1.
         -5    1    3    3    0  503 -0.66335044520E+02  0.15521794534E+02  0.96194109099E+02  0.11796889786E+03  0.47000000000E+01 0. -1.
<mgrwt>
<rscale>  0 0.12551969E+03</rscale>
<asrwt>0</asrwt>
<pdfrwt beam="1">  1        2 0.31499345E-01 0.13407647E+03</pdfrwt>
<pdfrwt beam="2">  1       -2 0.10558640E-01 0.13407647E+03</pdfrwt>
<totfact> 0.95296219E+03</totfact>
</mgrwt>
</event>
<event>
 8    1  0.3217375E-004  0.1354240E+03  0.7546771E-02  0.1231325E+00
         -2   -1    0    0    0  501 -0.00000000000E+00  0.00000000000E+00  0.37718088364E+02  0.37718088364E+02  0.00000000000E+00 0.  1.
          2   -1    0    0  501    0  0.00000000000E+00 -0.00000000000E+00 -0.38949656975E+03  0.38949656975E+03  0.00000000000E+00 0. -1.
         25    2    1    2    0    0  0.88534105279E+01 -0.51343818592E+02 -0.21460223406E+03  0.25375929619E+03  0.12500036380E+03 0.  0.
         23    2    1    2    0    0 -0.88534105279E+01  0.51343818592E+02 -0.13717624732E+03  0.17345536192E+03  0.92492535732E+02 0.  0.
          5    1    3    3  502    0 -0.34620529663E+02  0.76098807675E+01 -0.11124953418E+02  0.37447909795E+02  0.47000000000E+01 0.  1.
         -5    1    3    3    0  502  0.43473940191E+02 -0.58953699359E+02 -0.20347728065E+03  0.21631138639E+03  0.47000000000E+01 0.  1.
          5    1    4    4  503    0 -0.24885592365E+02  0.67022631442E+02 -0.13165446295E+03  0.14988766943E+03  0.47000000000E+01 0. -1.
         -5    1    4    4    0  503  0.16032181837E+02 -0.15678812851E+02 -0.55217843705E+01  0.23567692494E+02  0.47000000000E+01 0.  1.
<mgrwt>
<rscale>  0 0.12742644E+03</rscale>
<asrwt>0</asrwt>
<pdfrwt beam="1">  1        2 0.59922548E-01 0.13542401E+03</pdfrwt>
<pdfrwt beam="2">  1       -2 0.58027829E-02 0.13542401E+03</pdfrwt>
<totfact> 0.12112390E+04</totfact>
</mgrwt>
</event>
<event>
 8    1  0.3217375E-004  0.1743842E+03  0.7546771E-02  0.1179137E+00
          2   -1    0    0  501    0  0.00000000000E+00  0.00000000000E+00  0.77780043504E+03  0.77780043504E+03  0.00000000000E+00 0. -1.
         -2   -1    0    0    0  501 -0.00000000000E+00 -0.00000000000E+00 -0.38506618682E+02  0.38506618682E+02  0.00000000000E+00 0.  1.
         25    2    1    2    0    0 -0.89160837741E+02 -0.82665877524E+02  0.52352408116E+03  0.55180368307E+03  0.12500615505E+03 0.  0.
         23    2    1    2    0    0  0.89160837741E+02  0.82665877524E+02  0.21576973520E+03  0.26450337065E+03  0.92855544614E+02 0.  0.
          5    1    4    4  502    0  0.59727483481E+02  0.61914965728E+02  0.21095117286E+03  0.22786689666E+03  0.47000000000E+01 0. -1.
         -5    1    4    4    0  502  0.29433354260E+02  0.20750911796E+02  0.48185623388E+01  0.36636473989E+02  0.47000000000E+01 0.  1.
          5    1    3    3  503    0 -0.48818318931E+02  0.74571425512E+00  0.36379213625E+03  0.36708390423E+03  0.47000000000E+01 0.  1.
         -5    1    3    3    0  503 -0.40342518810E+02 -0.83411591779E+02  0.15973194491E+03  0.18471977883E+03  0.47000000000E+01 0.  1.
<mgrwt>
<rscale>  0 0.16876988E+03</rscale>
<asrwt>0</asrwt>
<pdfrwt beam="1">  1        2 0.11966159E+00 0.17438418E+03</pdfrwt>
<pdfrwt beam="2">  1       -2 0.59240958E-02 0.17438418E+03</pdfrwt>
<totfact> 0.54419236E+03</totfact>
</mgrwt>
</event>
<event>
 8    1  0.3217375E-004  0.1636162E+03  0.7546771E-02  0.1192362E+00
          2   -1    0    0  501    0  0.00000000000E+00  0.00000000000E+00  0.45509408831E+03  0.45509408831E+03  0.00000000000E+00 0. -1.
         -2   -1    0    0    0  501 -0.00000000000E+00 -0.00000000000E+00 -0.54501468251E+02  0.54501468251E+02  0.00000000000E+00 0.  1.
         25    2    1    2    0    0  0.10167026674E+03  0.28443134862E+02  0.14269281591E+03  0.21709788078E+03  0.12499758025E+03 0.  0.
         23    2    1    2    0    0 -0.10167026674E+03 -0.28443134862E+02  0.25789980415E+03  0.29249767578E+03  0.88863526244E+02 0.  0.
          5    1    4    4  502    0 -0.75575473246E+00 -0.36148138009E+02  0.61197514352E+02  0.71235418224E+02  0.47000000000E+01 0. -1.
         -5    1    4    4    0  502 -0.10091451200E+03  0.77050031464E+01  0.19670228980E+03  0.22126225756E+03  0.47000000000E+01 0.  1.
          5    1    3    3  503    0  0.12902096792E+03  0.10252646452E+02  0.12241338798E+03  0.17820958021E+03  0.47000000000E+01 0. -1.
         -5    1    3    3    0  503 -0.27350701187E+02  0.18190488410E+02  0.20279427933E+02  0.38888300571E+02  0.47000000000E+01 0. -1.
<mgrwt>
<rscale>  0 0.15679615E+03</rscale>
<asrwt>0</asrwt>
<pdfrwt beam="1">  1        2 0.70014473E-01 0.16361617E+03</pdfrwt>
<pdfrwt beam="2">  1       -2 0.83848416E-02 0.16361617E+03</pdfrwt>
<totfact> 0.58945847E+03</totfact>
</mgrwt>
</event>
<event>
 8    1  0.3217375E-004  0.1295437E+03  0.7546771E-02  0.1242523E+00
          1   -1    0    0  501    0  0.00000000000E+00  0.00000000000E+00  0.11499981581E+03  0.11499981581E+03  0.00000000000E+00 0. -1.
         -1   -1    0    0    0  501 -0.00000000000E+00 -0.00000000000E+00 -0.12829204542E+03  0.12829204542E+03  0.00000000000E+00 0.  1.
         25    2    1    2    0    0 -0.32406293403E+02  0.10306829415E+02  0.36661488248E+02  0.13463146551E+03  0.12500067280E+03 0.  0.
         23    2    1    2    0    0  0.32406293403E+02 -0.10306829415E+02 -0.49953717861E+02  0.10866039572E+03  0.90306749939E+02 0.  0.
          5    1    3    3  502    0  0.18795552634E+02  0.56887532635E+02  0.19196671465E+02  0.63087767146E+02  0.47000000000E+01 0. -1.
         -5    1    4    4    0  503  0.43808578677E+01 -0.22484236378E+02 -0.68654974543E+02  0.72528120965E+02  0.47000000000E+01 0.  1.
          5    1    4    4  503    0  0.28025435535E+02  0.12177406964E+02  0.18701256682E+02  0.36132274752E+02  0.47000000000E+01 0. -1.
         -5    1    3    3    0  502 -0.51201846037E+02 -0.46580703220E+02  0.17464816783E+02  0.71543698362E+02  0.47000000000E+01 0. -1.
<mgrwt>
<rscale>  0 0.12034855E+03</rscale>
<asrwt>0</asrwt>
<pdfrwt beam="1">  1        1 0.17692279E-01 0.12954369E+03</pdfrwt>
<pdfrwt beam="2">  1       -1 0.19737238E-01 0.12954369E+03</pdfrwt>
<totfact> 0.58567653E+03</totfact>
</mgrwt>
</event>
<event>
 8    1  0.3217375E-004  0.1349041E+03  0.7546771E-02  0.1233001E+00
         -1   -1    0    0    0  501 -0.00000000000E+00  0.00000000000E+00  0.14561927505E+02  0.14561927505E+02  0.00000000000E+00 0.  1.
          1   -1    0    0  501    0  0.00000000000E+00 -0.00000000000E+00 -0.99287991031E+03  0.99287991031E+03  0.00000000000E+00 0. -1.
         25    2    1    2    0    0 -0.96794927322E+01 -0.49788560100E+02 -0.49052389318E+03  0.50873648713E+03  0.12500612089E+03 0.  0.
         23    2    1    2    0    0  0.96794927322E+01  0.49788560100E+02 -0.48779408962E+03  0.49870535068E+03  0.90506130358E+02 0.  0.
          5    1    3    3  502    0  0.37058477242E+02 -0.61561763561E+02 -0.17069484626E+03  0.18526198209E+03  0.47000000000E+01 0.  1.
         -5    1    4    4    0  503  0.24814853510E+02  0.64519961609E+01 -0.35388990558E+02  0.43953109809E+02  0.47000000000E+01 0.  1.
          5    1    4    4  503    0 -0.15135360777E+02  0.43336563939E+02 -0.45240509906E+03  0.45475224087E+03  0.47000000000E+01 0. -1.
         -5    1    3    3    0  502 -0.46737969974E+02  0.11773203461E+02 -0.31982904693E+03  0.32347450505E+03  0.47000000000E+01 0.  1.
<mgrwt>
<rscale>  0 0.12633259E+03</rscale>
<asrwt>0</asrwt>
<pdfrwt beam="1">  1        1 0.15275075E+00 0.13490413E+03</pdfrwt>
<pdfrwt beam="2">  1       -1 0.22402967E-02 0.13490413E+03</pdfrwt>
<totfact> 0.90744330E+03</totfact>
</mgrwt>
</event>
<event>
 8    1  0.3217375E-004  0.1519830E+03  0.7546771E-02  0.1206757E+00
          1   -1    0    0  501    0  0.00000000000E+00  0.00000000000E+00  0.87208668067E+03  0.87208668067E+03  0.00000000000E+00 0. -1.
         -1   -1    0    0    0  501 -0.00000000000E+00 -0.00000000000E+00 -0.22786463742E+02  0.22786463742E+02  0.00000000000E+00 0.  1.
         25    2    1    2    0    0  0.29475320079E+02 -0.81262672083E+02  0.53850280892E+03  0.55953920066E+03  0.12500570183E+03 0.  0.
         23    2    1    2    0    0 -0.29475320079E+02  0.81262672083E+02  0.31079740800E+03  0.33533394375E+03  0.91550033536E+02 0.  0.
          5    1    3    3  502    0  0.70443021906E+02 -0.83048221010E+02  0.35046073330E+03  0.36702049252E+03  0.47000000000E+01 0.  1.
         -5    1    3    3    0  502 -0.40967701827E+02  0.17855489268E+01  0.18804207562E+03  0.19251870813E+03  0.47000000000E+01 0.  1.
          5    1    4    4  503    0  0.12476383387E+02  0.37263186566E+02  0.23375490046E+03  0.23708152333E+03  0.47000000000E+01 0. -1.
         -5    1    4    4    0  503 -0.41951703466E+02  0.43999485517E+02  0.77042507544E+02  0.98252420419E+02  0.47000000000E+01 0.  1.
<mgrwt>
<rscale>  0 0.14499836E+03</rscale>
<asrwt>0</asrwt>
<pdfrwt beam="1">  1        1 0.13416716E+00 0.15198303E+03</pdfrwt>
<pdfrwt beam="2">  1       -1 0.35056105E-02 0.15198303E+03</pdfrwt>
<totfact> 0.58723928E+03</totfact>
</mgrwt>
</event>
<event>
 8    1  0.3217375E-004  0.1256846E+03  0.7546771E-02  0.1249298E+00
         -1   -1    0    0    0  501 -0.00000000000E+00  0.00000000000E+00  0.12045560211E+02  0.12045560211E+02  0.00000000000E+00 0.  1.
          1   -1    0    0  501    0  0.00000000000E+00 -0.00000000000E+00 -0.10437122462E+04  0.10437122462E+04  0.00000000000E+00 0. -1.
         25    2    1    2    0    0 -0.93802741558E+01 -0.90583303909E+01 -0.46719554713E+03  0.48380605020E+03  0.12500628808E+03 0.  0.
         23    2    1    2    0    0  0.93802741558E+01  0.90583303909E+01 -0.56447113889E+03  0.57195175624E+03  0.91274870230E+02 0.  0.
          5    1    4    4  502    0  0.43635942299E+02  0.28690576368E+02 -0.31774192646E+03  0.32203923125E+03  0.47000000000E+01 0. -1.
         -5    1    4    4    0  502 -0.34255668144E+02 -0.19632245977E+02 -0.24672921243E+03  0.24991252499E+03  0.47000000000E+01 0.  1.
          5    1    3    3  503    0 -0.65419011454E+02  0.49299682890E+01 -0.29041332971E+03  0.29776827185E+03  0.47000000000E+01 0.  1.
         -5    1    3    3    0  503  0.56038737298E+02 -0.13988298680E+02 -0.17678221742E+03  0.18603777835E+03  0.47000000000E+01 0.  1.
<mgrwt>
<rscale>  0 0.11631780E+03</rscale>
<asrwt>0</asrwt>
<pdfrwt beam="1">  1        1 0.16057111E+00 0.12568459E+03</pdfrwt>
<pdfrwt beam="2">  1       -1 0.18531631E-02 0.12568459E+03</pdfrwt>
<totfact> 0.10912668E+04</totfact>
</mgrwt>
</event>
<event>
 8    1  0.3217375E-004  0.1280519E+03  0.7546771E-02  0.1245470E+00
         -3   -1    0    0    0  501 -0.00000000000E+00  0.00000000000E+00  0.19033850839E+03  0.19033850839E+03  0.00000000000E+00 0.  1.
          3   -1    0    0  501    0  0.00000000000E+00 -0.00000000000E+00 -0.79604670122E+02  0.79604670122E+02  0.00000000000E+00 0. -1.
         25    2    1    2    0    0 -0.25805641895E+02  0.10353488779E+02  0.46868466633E+01  0.12813761349E+03  0.12499662225E+03 0.  0.
         23    2    1    2    0    0  0.25805641895E+02 -0.10353488779E+02  0.10604699161E+03  0.14180556503E+03  0.89942915010E+02 0.  0.
          5    1    4    4  502    0 -0.19654719184E+02  0.50724547945E+01 -0.43907745663E+01  0.21293348378E+02  0.47000000000E+01 0. -1.
         -5    1    4    4    0  502  0.45460361079E+02 -0.15425943573E+02  0.11043776617E+03  0.12051221665E+03  0.47000000000E+01 0.  1.
          5    1    3    3  503    0 -0.29555621121E+02  0.54326150107E+02 -0.32692169313E+02  0.70112290361E+02  0.47000000000E+01 0.  1.
         -5    1    3    3    0  503  0.37499792266E+01 -0.43972661328E+02  0.37379015976E+02  0.58025323125E+02  0.47000000000E+01 0.  1.
<mgrwt>
<rscale>  0 0.11857309E+03</rscale>
<asrwt>0</asrwt>
<pdfrwt beam="1">  1        3 0.12246872E-01 0.12805187E+03</pdfrwt>
<pdfrwt beam="2">  1       -3 0.29282847E-01 0.12805187E+03</pdfrwt>
<totfact> 0.13427770E+03</totfact>
</mgrwt>
</event>
<event>
 8    1  0.3217375E-004  0.1675177E+03  0.7546771E-02  0.1187243E+00
          1   -1    0    0  501    0  0.00000000000E+00  0.00000000000E+00  0.84529122194E+03  0.84529122194E+03  0.00000000000E+00 0. -1.
         -1   -1    0    0    0  501 -0.00000000000E+00 -0.00000000000E+00 -0.29806878868E+02  0.29806878868E+02  0.00000000000E+00 0.  1.
         25    2    1    2    0    0 -0.36961740249E+02  0.10522124959E+03  0.52161167914E+03  0.54785117664E+03  0.12499794529E+03 0.  0.
         23    2    1    2    0    0  0.36961740249E+02 -0.10522124959E+03  0.29387266394E+03  0.32724692417E+03  0.91058910395E+02 0.  0.
          5    1    4    4  502    0  0.25322589814E+02  0.85715899001E+01  0.35850436694E+02  0.44967204933E+02  0.47000000000E+01 0. -1.
         -5    1    4    4    0  502  0.11639150435E+02 -0.11379283949E+03  0.25802222724E+03  0.28227971924E+03  0.47000000000E+01 0.  1.
          5    1    3    3  503    0 -0.30131405177E+01  0.30502691440E+02  0.14699669450E+02  0.34317101899E+02  0.47000000000E+01 0. -1.
         -5    1    3    3    0  503 -0.33948599731E+02  0.74718558147E+02  0.50691200969E+03  0.51353407474E+03  0.47000000000E+01 0. -1.
<mgrwt>
<rscale>  0 0.16129422E+03</rscale>
<asrwt>0</asrwt>
<pdfrwt beam="1">  1        1 0.13004479E+00 0.16751766E+03</pdfrwt>
<pdfrwt beam="2">  1       -1 0.45856743E-02 0.16751766E+03</pdfrwt>
<totfact> 0.41659279E+03</totfact>
</mgrwt>
</event>
<event>
 8    1  0.3217375E-004  0.1530047E+03  0.7546771E-02  0.1205763E+00
         -1   -1    0    0    0  501 -0.00000000000E+00  0.00000000000E+00  0.11777394886E+04  0.11777394886E+04  0.00000000000E+00 0.  1.
          1   -1    0    0  501    0  0.00000000000E+00 -0.00000000000E+00 -0.27530476474E+02  0.27530476474E+02  0.00000000000E+00 0. -1.
         25    2    1    2    0    0  0.24259960171E+02 -0.84824566622E+02  0.22860534154E+03  0.27508335455E+03  0.12500678782E+03 0.  0.
         23    2    1    2    0    0 -0.24259960171E+02  0.84824566622E+02  0.92160367062E+03  0.93018661056E+03  0.90055827044E+02 0.  0.
          5    1    3    3  502    0  0.49395102225E+02 -0.66802544334E+01  0.25966828449E+02  0.56399185303E+02  0.47000000000E+01 0.  1.
         -5    1    4    4    0  503 -0.54881904024E+02  0.35350032844E+02  0.57347458739E+03  0.57719740175E+03  0.47000000000E+01 0.  1.
          5    1    4    4  503    0  0.30621943853E+02  0.49474533778E+02  0.34812908324E+03  0.35298920880E+03  0.47000000000E+01 0. -1.
         -5    1    3    3    0  502 -0.25135142054E+02 -0.78144312188E+02  0.20263851309E+03  0.21868416925E+03  0.47000000000E+01 0.  1.
<mgrwt>
<rscale>  0 0.14577470E+03</rscale>
<asrwt>0</asrwt>
<pdfrwt beam="1">  1        1 0.42354588E-02 0.15300474E+03</pdfrwt>
<pdfrwt beam="2">  1       -1 0.18119065E+00 0.15300474E+03</pdfrwt>
<totfact> 0.46919555E+02</totfact>
</mgrwt>
</event>
<event>
 8    1  0.3217375E-004  0.1270306E+03  0.7546771E-02  0.1246667E+00
         -1   -1    0    0    0  501 -0.00000000000E+00  0.00000000000E+00  0.17755943908E+02  0.17755943908E+02  0.00000000000E+00 0.  1.
          1   -1    0    0  501    0  0.00000000000E+00 -0.00000000000E+00 -0.68884927278E+03  0.68884927278E+03  0.00000000000E+00 0. -1.
         25    2    1    2    0    0 -0.30437448401E+01 -0.22447760025E+02 -0.38074065196E+03  0.40137290354E+03  0.12499438921E+03 0.  0.
         23    2    1    2    0    0  0.30437448401E+01  0.22447760025E+02 -0.29035267692E+03  0.30523231315E+03  0.91372433940E+02 0.  0.
          5    1    3    3  502    0  0.45201704303E+02 -0.96123080917E+01 -0.31644073836E+03  0.31983186432E+03  0.47000000000E+01 0. -1.
         -5    1    3    3    0  502 -0.48245449143E+02 -0.12835451934E+02 -0.64299913597E+02  0.81541039225E+02  0.47000000000E+01 0. -1.
          5    1    4    4  503    0 -0.22810970719E+02 -0.23316594037E+02 -0.17898765192E+03  0.18199635569E+03  0.47000000000E+01 0. -1.
         -5    1    4    4    0  503  0.25854715559E+02  0.45764354062E+02 -0.11136502500E+03  0.12323595746E+03  0.47000000000E+01 0.  1.
<mgrwt>
<rscale>  0 0.11786183E+03</rscale>
<asrwt>0</asrwt>
<pdfrwt beam="1">  1        1 0.10597683E+00 0.12703056E+03</pdfrwt>
<pdfrwt beam="2">  1       -1 0.27316832E-02 0.12703056E+03</pdfrwt>
<totfact> 0.11884208E+04</totfact>
</mgrwt>
</event>
<event>
 8    1  0.3217375E-004  0.1299129E+03  0.7546771E-02  0.1242393E+00
         -1   -1    0    0    0  501 -0.00000000000E+00  0.00000000000E+00  0.36117936637E+02  0.36117936637E+02  0.00000000000E+00 0.  1.
          1   -1    0    0  501    0  0.00000000000E+00 -0.00000000000E+00 -0.35407680575E+03  0.35407680575E+03  0.00000000000E+00 0. -1.
         25    2    1    2    0    0 -0.41941090022E+01 -0.35135844582E+02 -0.19325167684E+03  0.23285954424E+03  0.12500095446E+03 0.  0.
         23    2    1    2    0    0  0.41941090022E+01  0.35135844582E+02 -0.12470719227E+03  0.15733519815E+03  0.89164806106E+02 0.  0.
          5    1    3    3  502    0 -0.11478926863E+02  0.23690596991E+02 -0.16477453449E+03  0.16693036681E+03  0.47000000000E+01 0. -1.
         -5    1    4    4    0  503 -0.25882204158E+02  0.15469570488E+02 -0.33714374534E+01  0.30702649620E+02  0.47000000000E+01 0.  1.
          5    1    4    4  503    0  0.30076313160E+02  0.19666274094E+02 -0.12133575482E+03  0.12663254853E+03  0.47000000000E+01 0. -1.
         -5    1    3    3    0  502  0.72848178606E+01 -0.58826441573E+02 -0.28477142354E+02  0.65929177426E+02  0.47000000000E+01 0. -1.
<mgrwt>
<rscale>  0 0.12042795E+03</rscale>
<asrwt>0</asrwt>
<pdfrwt beam="1">  1        1 0.54473356E-01 0.12991288E+03</pdfrwt>
<pdfrwt beam="2">  1       -1 0.55566055E-02 0.12991288E+03</pdfrwt>
<totfact> 0.10050901E+04</totfact>
</mgrwt>
</event>
<event>
 8    1  0.3217375E-004  0.3048504E+03  0.7546771E-02  0.1084349E+00
         -1   -1    0    0    0  501 -0.00000000000E+00  0.00000000000E+00  0.21503605096E+03  0.21503605096E+03  0.00000000000E+00 0.  1.
          1   -1    0    0  501    0  0.00000000000E+00 -0.00000000000E+00 -0.59471539294E+03  0.59471539294E+03  0.00000000000E+00 0. -1.
         25    2    1    2    0    0 -0.21175255620E+02 -0.27723565768E+03 -0.41488806141E+03  0.51484548853E+03  0.12500308884E+03 0.  0.
         23    2    1    2    0    0  0.21175255620E+02  0.27723565768E+03  0.35208719428E+02  0.29490595537E+03  0.91770731989E+02 0.  0.
          5    1    4    4  502    0  0.31080734916E+02  0.40553911938E+02 -0.13410261337E+02  0.53033545663E+02  0.47000000000E+01 0. -1.
         -5    1    4    4    0  502 -0.99054792967E+01  0.23668174574E+03  0.48618980765E+02  0.24187240971E+03  0.47000000000E+01 0.  1.
          5    1    3    3  503    0  0.35969160226E+02 -0.75984675338E+02 -0.18910025798E+03  0.20699866894E+03  0.47000000000E+01 0.  1.
         -5    1    3    3    0  503 -0.57144415846E+02 -0.20125098234E+03 -0.22578780343E+03  0.30784681960E+03  0.47000000000E+01 0.  1.
<mgrwt>
<rscale>  0 0.30179123E+03</rscale>
<asrwt>0</asrwt>
<pdfrwt beam="1">  1        1 0.91494674E-01 0.30485041E+03</pdfrwt>
<pdfrwt beam="2">  1       -1 0.33082470E-01 0.30485041E+03</pdfrwt>
<totfact> 0.30879859E+02</totfact>
</mgrwt>
</event>
<event>
 8    1  0.3217375E-004  0.1376263E+03  0.7546771E-02  0.1229096E+00
          2   -1    0    0  501    0  0.00000000000E+00  0.00000000000E+00  0.74586961206E+03  0.74586961206E+03  0.00000000000E+00 0. -1.
         -2   -1    0    0    0  501 -0.00000000000E+00 -0.00000000000E+00 -0.23434294688E+02  0.23434294688E+02  0.00000000000E+00 0.  1.
         25    2    1    2    0    0  0.46848121619E+02  0.33495234028E+02  0.25237937284E+03  0.28746538420E+03  0.12499728828E+03 0.  0.
         23    2    1    2    0    0 -0.46848121619E+02 -0.33495234028E+02  0.47005594453E+03  0.48183852254E+03  0.88876845220E+02 0.  0.
          5    1    4    4  502    0  0.29213743105E+01 -0.21629981519E+02  0.23794738723E+02  0.32629283155E+02  0.47000000000E+01 0. -1.
         -5    1    4    4    0  502 -0.49769495929E+02 -0.11865252509E+02  0.44626120581E+03  0.44920923939E+03  0.47000000000E+01 0.  1.
          5    1    3    3  503    0  0.88542352774E+01  0.38754647531E+02  0.24484367788E+03  0.24809441103E+03  0.47000000000E+01 0.  1.
         -5    1    3    3    0  503  0.37993886341E+02 -0.52594135027E+01  0.75356949562E+01  0.39370973168E+02  0.47000000000E+01 0.  1.
<mgrwt>
<rscale>  0 0.12890054E+03</rscale>
<asrwt>0</asrwt>
<pdfrwt beam="1">  1        2 0.11474915E+00 0.13762630E+03</pdfrwt>
<pdfrwt beam="2">  1       -2 0.36052767E-02 0.13762630E+03</pdfrwt>
<totfact> 0.11924335E+04</totfact>
</mgrwt>
</event>
<event>
 8    1  0.3217375E-004  0.1708264E+03  0.7546771E-02  0.1183730E+00
         -1   -1    0    0    0  501 -0.00000000000E+00  0.00000000000E+00  0.51075610032E+03  0.51075610032E+03  0.00000000000E+00 0.  1.
          1   -1    0    0  501    0  0.00000000000E+00 -0.00000000000E+00 -0.50683286240E+02  0.50683286240E+02  0.00000000000E+00 0. -1.
         25    2    1    2    0    0  0.83749228075E+02 -0.80863214117E+02  0.29174519073E+03  0.33807827267E+03  0.12501547719E+03 0.  0.
         23    2    1    2    0    0 -0.83749228075E+02  0.80863214117E+02  0.16832762335E+03  0.22336111389E+03  0.89460638360E+02 0.  0.
          5    1    4    4  502    0 -0.10156070558E+03  0.71181600546E+02  0.12989371466E+03  0.17965484764E+03  0.47000000000E+01 0. -1.
         -5    1    3    3    0  503  0.94268046416E+02 -0.33340847036E+02  0.26288402071E+03  0.28129730713E+03  0.47000000000E+01 0.  1.
          5    1    3    3  503    0 -0.10518818341E+02 -0.47522367081E+02  0.28861170023E+02  0.56780965538E+02  0.47000000000E+01 0.  1.
         -5    1    4    4    0  502  0.17811477502E+02  0.96816135712E+01  0.38433908691E+02  0.43706266249E+02  0.47000000000E+01 0.  1.
<mgrwt>
<rscale>  0 0.16447969E+03</rscale>
<asrwt>0</asrwt>
<pdfrwt beam="1">  1        1 0.77974290E-02 0.17082641E+03</pdfrwt>
<pdfrwt beam="2">  1       -1 0.78577858E-01 0.17082641E+03</pdfrwt>
<totfact> 0.15021370E+03</totfact>
</mgrwt>
</event>
<event>
 8    1  0.3217375E-004  0.1384150E+03  0.7546771E-02  0.1227030E+00
          2   -1    0    0  501    0  0.00000000000E+00  0.00000000000E+00  0.42639927983E+03  0.42639927983E+03  0.00000000000E+00 0. -1.
         -2   -1    0    0    0  501 -0.00000000000E+00 -0.00000000000E+00 -0.44451243675E+02  0.44451243675E+02  0.00000000000E+00 0.  1.
         25    2    1    2    0    0  0.42838594258E+02 -0.41268718502E+02  0.10618796570E+03  0.17445511426E+03  0.12498180087E+03 0.  0.
         23    2    1    2    0    0 -0.42838594258E+02  0.41268718502E+02  0.27576007046E+03  0.29639540924E+03  0.90930577234E+02 0.  0.
          5    1    4    4  502    0 -0.34928223438E+02 -0.15099682914E+02  0.18668930623E+03  0.19058585540E+03  0.47000000000E+01 0. -1.
         -5    1    4    4    0  502 -0.79103708196E+01  0.56368401417E+02  0.89070764225E+02  0.10580955384E+03  0.47000000000E+01 0.  1.
          5    1    3    3  503    0  0.11913503181E+02  0.26220292711E+02  0.94816537794E+02  0.99205348380E+02  0.47000000000E+01 0.  1.
         -5    1    3    3    0  503  0.30925091077E+02 -0.67489011214E+02  0.11371427902E+02  0.75249765882E+02  0.47000000000E+01 0.  1.
<mgrwt>
<rscale>  0 0.13028757E+03</rscale>
<asrwt>0</asrwt>
<pdfrwt beam="1">  1        2 0.65599886E-01 0.13841497E+03</pdfrwt>
<pdfrwt beam="2">  1       -2 0.68386532E-02 0.13841497E+03</pdfrwt>
<totfact> 0.85762956E+03</totfact>
</mgrwt>
</event>
<event>
 8    1  0.3217375E-004  0.1344815E+03  0.7546771E-02  0.1235615E+00
          2   -1    0    0  501    0  0.00000000000E+00  0.00000000000E+00  0.42290034463E+03  0.42290034463E+03  0.00000000000E+00 0. -1.
         -2   -1    0    0    0  501 -0.00000000000E+00 -0.00000000000E+00 -0.32978953334E+02  0.32978953334E+02  0.00000000000E+00 0.  1.
         25    2    1    2    0    0  0.42451722189E+02  0.25638643454E+02  0.25607760089E+03  0.28924215298E+03  0.12500318647E+03 0.  0.
         23    2    1    2    0    0 -0.42451722189E+02 -0.25638643454E+02  0.13384379040E+03  0.16663714498E+03  0.85990052351E+02 0.  0.
          5    1    4    4  502    0 -0.66738012764E+02 -0.29056432452E+02  0.11082545420E+03  0.13267482773E+03  0.47000000000E+01 0. -1.
         -5    1    4    4    0  502  0.24286290576E+02  0.34177889980E+01  0.23018336206E+02  0.33962317254E+02  0.47000000000E+01 0.  1.
          5    1    3    3  503    0  0.66834277867E+00 -0.48589122507E+02  0.83329720474E+02  0.96577853684E+02  0.47000000000E+01 0.  1.
         -5    1    3    3    0  503  0.41783379410E+02  0.74227765961E+02  0.17274788042E+03  0.19266429929E+03  0.47000000000E+01 0.  1.
<mgrwt>
<rscale>  0 0.12465146E+03</rscale>
<asrwt>0</asrwt>
<pdfrwt beam="1">  1        2 0.65061587E-01 0.13448154E+03</pdfrwt>
<pdfrwt beam="2">  1       -2 0.50736855E-02 0.13448154E+03</pdfrwt>
<totfact> 0.13572958E+04</totfact>
</mgrwt>
</event>
<event>
 8    1  0.3217375E-004  0.2436638E+03  0.7546771E-02  0.1119931E+00
          2   -1    0    0  501    0  0.00000000000E+00  0.00000000000E+00  0.23525182022E+04  0.23525182022E+04  0.00000000000E+00 0. -1.
         -2   -1    0    0    0  501 -0.00000000000E+00 -0.00000000000E+00 -0.25458915052E+02  0.25458915052E+02  0.00000000000E+00 0.  1.
         25    2    1    2    0    0  0.79711345370E+02 -0.19336908687E+03  0.15109653704E+04  0.15304863346E+04  0.12500626899E+03 0.  0.
         23    2    1    2    0    0 -0.79711345370E+02  0.19336908687E+03  0.81609391671E+03  0.84749078269E+03  0.92118638232E+02 0.  0.
          5    1    4    4  502    0  0.66788914330E+01  0.10340249285E+03  0.37047429987E+03  0.38472065188E+03  0.47000000000E+01 0. -1.
         -5    1    3    3    0  503  0.10389981802E+03 -0.94999296130E+02  0.79648430987E+03  0.80884447474E+03  0.47000000000E+01 0. -1.
          5    1    3    3  503    0 -0.24188472648E+02 -0.98369790743E+02  0.71448106056E+03  0.72164185982E+03  0.47000000000E+01 0. -1.
         -5    1    4    4    0  502 -0.86390236803E+02  0.89966594021E+02  0.44561961685E+03  0.46277013081E+03  0.47000000000E+01 0.  1.
<mgrwt>
<rscale>  0 0.23979202E+03</rscale>
<asrwt>0</asrwt>
<pdfrwt beam="1">  1        2 0.36192571E+00 0.24366385E+03</pdfrwt>
<pdfrwt beam="2">  1       -2 0.39167580E-02 0.24366385E+03</pdfrwt>
<totfact> 0.13728336E+03</totfact>
</mgrwt>
</event>
<event>
 8    1  0.3217375E-004  0.1317647E+03  0.7546771E-02  0.1237943E+00
         -2   -1    0    0    0  501 -0.00000000000E+00  0.00000000000E+00  0.21435061634E+03  0.21435061634E+03  0.00000000000E+00 0.  1.
          2   -1    0    0  501    0  0.00000000000E+00 -0.00000000000E+00 -0.66150012632E+02  0.66150012632E+02  0.00000000000E+00 0. -1.
         25    2    1    2    0    0 -0.15274767058E+02 -0.38807316386E+02  0.11393157583E+03  0.17419050524E+03  0.12499040695E+03 0.  0.
         23    2    1    2    0    0  0.15274767058E+02  0.38807316386E+02  0.34269027874E+02  0.10631012374E+03  0.91586843071E+02 0.  0.
          5    1    4    4  502    0  0.32676879686E+02 -0.19788580227E+02  0.66076607666E+01  0.39052753478E+02  0.47000000000E+01 0. -1.
         -5    1    3    3    0  503 -0.27100958098E+02  0.10609090269E+02 -0.16744823329E+02  0.33904186091E+02  0.47000000000E+01 0.  1.
          5    1    3    3  503    0  0.11826191040E+02 -0.49416406655E+02  0.13067639916E+03  0.14028631915E+03  0.47000000000E+01 0.  1.
         -5    1    4    4    0  502 -0.17402112628E+02  0.58595896614E+02  0.27661367108E+02  0.67257370259E+02  0.47000000000E+01 0.  1.
<mgrwt>
<rscale>  0 0.12317906E+03</rscale>
<asrwt>0</asrwt>
<pdfrwt beam="1">  1        2 0.10176925E-01 0.13176467E+03</pdfrwt>
<pdfrwt beam="2">  1       -2 0.32977018E-01 0.13176467E+03</pdfrwt>
<totfact> 0.51064015E+03</totfact>
</mgrwt>
</event>
<event>
 8    1  0.3217375E-004  0.1671738E+03  0.7546771E-02  0.1187113E+00
          2   -1    0    0  501    0  0.00000000000E+00  0.00000000000E+00  0.38018704735E+03  0.38018704735E+03  0.00000000000E+00 0. -1.
         -2   -1    0    0    0  501 -0.00000000000E+00 -0.00000000000E+00 -0.71834750521E+02  0.71834750521E+02  0.00000000000E+00 0.  1.
         25    2    1    2    0    0 -0.10185876456E+03 -0.44130691853E+02  0.90304531777E+02  0.19000526735E+03  0.12499746909E+03 0.  0.
         23    2    1    2    0    0  0.10185876456E+03  0.44130691853E+02  0.21804776505E+03  0.26201653052E+03  0.93728909849E+02 0.  0.
          5    1    4    4  502    0  0.36572117282E+02  0.21708678963E+01  0.16203386735E+03  0.16619054305E+03  0.47000000000E+01 0. -1.
         -5    1    4    4    0  502  0.65286647283E+02  0.41959823957E+02  0.56013897698E+02  0.95825987473E+02  0.47000000000E+01 0.  1.
          5    1    3    3  503    0 -0.53576262968E+02 -0.57848682131E+02  0.11038990428E+03  0.13573837683E+03  0.47000000000E+01 0.  1.
         -5    1    3    3    0  503 -0.48282501597E+02  0.13717990278E+02 -0.20085372502E+02  0.54266890516E+02  0.47000000000E+01 0.  1.
<mgrwt>
<rscale>  0 0.16141047E+03</rscale>
<asrwt>0</asrwt>
<pdfrwt beam="1">  1        2 0.58490314E-01 0.16717384E+03</pdfrwt>
<pdfrwt beam="2">  1       -2 0.11051500E-01 0.16717384E+03</pdfrwt>
<totfact> 0.46402627E+03</totfact>
</mgrwt>
</event>
<event>
 8    1  0.3217375E-004  0.1291836E+03  0.7546771E-02  0.1237662E+00
         -2   -1    0    0    0  501 -0.00000000000E+00  0.00000000000E+00  0.43088053573E+02  0.43088053573E+02  0.00000000000E+00 0.  1.
          2   -1    0    0  501    0  0.00000000000E+00 -0.00000000000E+00 -0.32501328477E+03  0.32501328477E+03  0.00000000000E+00 0. -1.
         25    2    1    2    0    0  0.56918768314E+01  0.32108420967E+02 -0.14880756894E+03  0.19705861114E+03  0.12500022197E+03 0.  0.
         23    2    1    2    0    0 -0.56918768314E+01 -0.32108420967E+02 -0.13311766226E+03  0.17104272720E+03  0.10233256747E+03 0.  0.
          5    1    4    4  502    0  0.19834656447E+02  0.32072961992E+02 -0.51826130450E+02  0.64266058575E+02  0.47000000000E+01 0. -1.
         -5    1    3    3    0  503  0.57392031074E+02  0.32041793327E+02 -0.41565289990E+02  0.77912034259E+02  0.47000000000E+01 0.  1.
          5    1    3    3  503    0 -0.51700154243E+02  0.66627640040E-01 -0.10724227895E+03  0.11914657688E+03  0.47000000000E+01 0.  1.
         -5    1    4    4    0  502 -0.25526533278E+02 -0.64181382960E+02 -0.81291531809E+02  0.10677666863E+03  0.47000000000E+01 0.  1.
<mgrwt>
<rscale>  0 0.12335569E+03</rscale>
<asrwt>0</asrwt>
<pdfrwt beam="1">  1        2 0.50002044E-01 0.12918360E+03</pdfrwt>
<pdfrwt beam="2">  1       -2 0.66289313E-02 0.12918360E+03</pdfrwt>
<totfact> 0.11949337E+04</totfact>
</mgrwt>
</event>
<event>
 8    1  0.3217375E-004  0.1639207E+03  0.7546771E-02  0.1191462E+00
         -1   -1    0    0    0  501 -0.00000000000E+00  0.00000000000E+00  0.29531512905E+02  0.29531512905E+02  0.00000000000E+00 0.  1.
          1   -1    0    0  501    0  0.00000000000E+00 -0.00000000000E+00 -0.78399003557E+03  0.78399003557E+03  0.00000000000E+00 0. -1.
         25    2    1    2    0    0  0.10506428451E+03  0.14408922100E+02 -0.42828760649E+03  0.45858507909E+03  0.12499551981E+03 0.  0.
         23    2    1    2    0    0 -0.10506428451E+03 -0.14408922100E+02 -0.32617091618E+03  0.35493646939E+03  0.91358140460E+02 0.  0.
          5    1    3    3  502    0  0.12777140735E+03  0.32558049950E+02 -0.31460957446E+03  0.34115514578E+03  0.47000000000E+01 0. -1.
         -5    1    3    3    0  502 -0.22707122842E+02 -0.18149127850E+02 -0.11367803203E+03  0.11742993330E+03  0.47000000000E+01 0. -1.
          5    1    4    4  503    0 -0.57916063897E+02  0.34320256536E+02 -0.20727823622E+03  0.21798740257E+03  0.47000000000E+01 0. -1.
         -5    1    4    4    0  503 -0.47148220610E+02 -0.48729178636E+02 -0.11889267996E+03  0.13694906683E+03  0.47000000000E+01 0.  1.
<mgrwt>
<rscale>  0 0.15757468E+03</rscale>
<asrwt>0</asrwt>
<pdfrwt beam="1">  1        1 0.12061384E+00 0.16392072E+03</pdfrwt>
<pdfrwt beam="2">  1       -1 0.45433102E-02 0.16392072E+03</pdfrwt>
<totfact> 0.47356154E+03</totfact>
</mgrwt>
</event>
<event>
 8    1  0.3217375E-004  0.1518545E+03  0.7546771E-02  0.1206998E+00
          2   -1    0    0  501    0  0.00000000000E+00  0.00000000000E+00  0.22830219648E+02  0.22830219648E+02  0.00000000000E+00 0.  1.
         -2   -1    0    0    0  501 -0.00000000000E+00 -0.00000000000E+00 -0.85273180070E+03  0.85273180070E+03  0.00000000000E+00 0. -1.
         25    2    1    2    0    0 -0.71226712088E+01 -0.85942578579E+02 -0.50069682390E+03  0.52321803433E+03  0.12499177064E+03 0.  0.
         23    2    1    2    0    0  0.71226712088E+01  0.85942578579E+02 -0.32920475715E+03  0.35234398602E+03  0.91288844298E+02 0.  0.
          5    1    4    4  502    0 -0.35812671269E+02  0.90599707213E+01 -0.10597790035E+03  0.11233003096E+03  0.47000000000E+01 0. -1.
         -5    1    4    4    0  502  0.42935342478E+02  0.76882607857E+02 -0.22322685680E+03  0.24001395506E+03  0.47000000000E+01 0.  1.
          5    1    3    3  503    0  0.21116309733E+02 -0.10743673040E+03 -0.43282283508E+03  0.44648207818E+03  0.47000000000E+01 0. -1.
         -5    1    3    3    0  503 -0.28238980942E+02  0.21494151819E+02 -0.67873988823E+02  0.76735956147E+02  0.47000000000E+01 0. -1.
<mgrwt>
<rscale>  0 0.14481100E+03</rscale>
<asrwt>0</asrwt>
<pdfrwt beam="1">  1        2 0.35123414E-02 0.15185454E+03</pdfrwt>
<pdfrwt beam="2">  1       -2 0.13118951E+00 0.15185454E+03</pdfrwt>
<totfact> 0.10963135E+03</totfact>
</mgrwt>
</event>
<event>
 8    1  0.3217375E-004  0.1257862E+03  0.7546771E-02  0.1252179E+00
          2   -1    0    0  501    0  0.00000000000E+00  0.00000000000E+00  0.52358192955E+03  0.52358192955E+03  0.00000000000E+00 0. -1.
         -2   -1    0    0    0  501 -0.00000000000E+00 -0.00000000000E+00 -0.23117355917E+02  0.23117355917E+02  0.00000000000E+00 0.  1.
         25    2    1    2    0    0  0.95435360325E+01 -0.10329346706E+02  0.36225797378E+03  0.38347490869E+03  0.12499756615E+03 0.  0.
         23    2    1    2    0    0 -0.95435360325E+01  0.10329346706E+02  0.13820659986E+03  0.16322437678E+03  0.85693397929E+02 0.  0.
          5    1    3    3  502    0 -0.23117446233E+02 -0.40470160961E+02  0.31487677413E+03  0.31834214791E+03  0.47000000000E+01 0.  1.
         -5    1    3    3    0  502  0.32660982266E+02  0.30140814256E+02  0.47381199648E+02  0.65132760779E+02  0.47000000000E+01 0.  1.
          5    1    4    4  503    0 -0.19544185337E+02  0.31847207027E+02  0.13333220748E+03  0.13854886260E+03  0.47000000000E+01 0. -1.
         -5    1    4    4    0  503  0.10000649304E+02 -0.21517860321E+02  0.48743923797E+01  0.24675514187E+02  0.47000000000E+01 0.  1.
<mgrwt>
<rscale>  0 0.11465798E+03</rscale>
<asrwt>0</asrwt>
<pdfrwt beam="1">  1        2 0.80551057E-01 0.12578619E+03</pdfrwt>
<pdfrwt beam="2">  1       -2 0.35565167E-02 0.12578619E+03</pdfrwt>
<totfact> 0.18160480E+04</totfact>
</mgrwt>
</event>
<event>
 8    1  0.3217375E-004  0.1515895E+03  0.7546771E-02  0.1207524E+00
         -3   -1    0    0    0  501 -0.00000000000E+00  0.00000000000E+00  0.62935517976E+02  0.62935517976E+02  0.00000000000E+00 0.  1.
          3   -1    0    0  501    0  0.00000000000E+00 -0.00000000000E+00 -0.31465249377E+03  0.31465249377E+03  0.00000000000E+00 0. -1.
         25    2    1    2    0    0 -0.65069133026E+02 -0.55901550998E+02 -0.17298808673E+03  0.23000922013E+03  0.12498154951E+03 0.  0.
         23    2    1    2    0    0  0.65069133026E+02  0.55901550998E+02 -0.78728889071E+02  0.14757879162E+03  0.90676823309E+02 0.  0.
          5    1    3    3  502    0 -0.43852609548E+01 -0.23075645916E+02  0.15973283939E+02  0.28791522153E+02  0.47000000000E+01 0. -1.
         -5    1    4    4    0  503  0.55054036690E+02  0.79040847748E+02 -0.48540115872E+02  0.10796589933E+03  0.47000000000E+01 0.  1.
          5    1    4    4  503    0  0.10015096336E+02 -0.23139296750E+02 -0.30188773199E+02  0.39612892295E+02  0.47000000000E+01 0. -1.
         -5    1    3    3    0  502 -0.60683872072E+02 -0.32825905081E+02 -0.18896137067E+03  0.20121769797E+03  0.47000000000E+01 0. -1.
<mgrwt>
<rscale>  0 0.14440329E+03</rscale>
<asrwt>0</asrwt>
<pdfrwt beam="1">  1        3 0.48408075E-01 0.15158946E+03</pdfrwt>
<pdfrwt beam="2">  1       -3 0.96823875E-02 0.15158946E+03</pdfrwt>
<totfact> 0.78019360E+02</totfact>
</mgrwt>
</event>
<event>
 8    1  0.3217375E-004  0.1429022E+03  0.7546771E-02  0.1219524E+00
         -2   -1    0    0    0  501 -0.00000000000E+00  0.00000000000E+00  0.16535894343E+02  0.16535894343E+02  0.00000000000E+00 0.  1.
          2   -1    0    0  501    0  0.00000000000E+00 -0.00000000000E+00 -0.10148315059E+04  0.10148315059E+04  0.00000000000E+00 0. -1.
         25    2    1    2    0    0 -0.68539862357E+02 -0.99425894941E+01 -0.51449201322E+03  0.53396915673E+03  0.12499784339E+03 0.  0.
         23    2    1    2    0    0  0.68539862357E+02  0.99425894941E+01 -0.48380359835E+03  0.49739824353E+03  0.92425770587E+02 0.  0.
          5    1    3    3  502    0 -0.64479052259E+02 -0.56976326582E+02 -0.41356801582E+03  0.42245052217E+03  0.47000000000E+01 0. -1.
         -5    1    4    4    0  503  0.69034308302E+02 -0.24242686576E+02 -0.23386841844E+03  0.24509175980E+03  0.47000000000E+01 0.  1.
          5    1    4    4  503    0 -0.49444594432E+00  0.34185276070E+02 -0.24993517991E+03  0.25230648373E+03  0.47000000000E+01 0. -1.
         -5    1    3    3    0  502 -0.40608100983E+01  0.47033737088E+02 -0.10092399739E+03  0.11151863456E+03  0.47000000000E+01 0. -1.
<mgrwt>
<rscale>  0 0.13549394E+03</rscale>
<asrwt>0</asrwt>
<pdfrwt beam="1">  1        2 0.15612792E+00 0.14290216E+03</pdfrwt>
<pdfrwt beam="2">  1       -2 0.25439838E-02 0.14290216E+03</pdfrwt>
<totfact> 0.13408939E+04</totfact>
</mgrwt>
</event>
<event>
 8    1  0.3217375E-004  0.1484707E+03  0.7546771E-02  0.1211227E+00
          2   -1    0    0  501    0  0.00000000000E+00  0.00000000000E+00  0.67212922416E+03  0.67212922416E+03  0.00000000000E+00 0. -1.
         -2   -1    0    0    0  501 -0.00000000000E+00 -0.00000000000E+00 -0.29259685874E+02  0.29259685874E+02  0.00000000000E+00 0.  1.
         25    2    1    2    0    0 -0.79860114988E+02 -0.64885639642E+01  0.26096988504E+03  0.30024793769E+03  0.12499521496E+03 0.  0.
         23    2    1    2    0    0  0.79860114988E+02  0.64885639642E+01  0.38189965325E+03  0.40114097235E+03  0.92989220416E+02 0.  0.
          5    1    4    4  502    0 -0.11627438589E+02  0.26136624889E+02  0.84794597878E+02  0.89613248563E+02  0.47000000000E+01 0. -1.
         -5    1    3    3    0  503  0.23296141960E+02 -0.82245938738E+00  0.51730213085E+01  0.24335916237E+02  0.47000000000E+01 0. -1.
          5    1    3    3  503    0 -0.10315625695E+03 -0.56661045768E+01  0.25579686373E+03  0.27591202145E+03  0.47000000000E+01 0. -1.
         -5    1    4    4    0  502  0.91487553577E+02 -0.19648060925E+02  0.29710505537E+03  0.31152772378E+03  0.47000000000E+01 0.  1.
<mgrwt>
<rscale>  0 0.14157381E+03</rscale>
<asrwt>0</asrwt>
<pdfrwt beam="1">  1        2 0.10340448E+00 0.14847068E+03</pdfrwt>
<pdfrwt beam="2">  1       -2 0.45014906E-02 0.14847068E+03</pdfrwt>
<totfact> 0.97498345E+03</totfact>
</mgrwt>
</event>
<event>
 8    1  0.3217375E-004  0.1353661E+03  0.7546771E-02  0.1232019E+00
         -2   -1    0    0    0  501 -0.00000000000E+00  0.00000000000E+00  0.30160543262E+03  0.30160543262E+03  0.00000000000E+00 0.  1.
          2   -1    0    0  501    0  0.00000000000E+00 -0.00000000000E+00 -0.48135382497E+02  0.48135382497E+02  0.00000000000E+00 0. -1.
         25    2    1    2    0    0  0.18620180733E+02 -0.48505563951E+02  0.15713706743E+03  0.20740305355E+03  0.12499787116E+03 0.  0.
         23    2    1    2    0    0 -0.18620180733E+02  0.48505563951E+02  0.96332982684E+02  0.14233776157E+03  0.90997219463E+02 0.  0.
          5    1    4    4  502    0  0.29101977283E+02  0.48579751894E+02  0.51366977024E+02  0.76600089455E+02  0.47000000000E+01 0. -1.
         -5    1    3    3    0  503  0.38731283720E+02  0.23945399423E+02  0.10841613588E+03  0.11768450625E+03  0.47000000000E+01 0. -1.
          5    1    3    3  503    0 -0.20111102987E+02 -0.72450963374E+02  0.48720931549E+02  0.89718547292E+02  0.47000000000E+01 0. -1.
         -5    1    4    4    0  502 -0.47722158016E+02 -0.74187942505E-01  0.44966005660E+02  0.65737672111E+02  0.47000000000E+01 0.  1.
<mgrwt>
<rscale>  0 0.12697189E+03</rscale>
<asrwt>0</asrwt>
<pdfrwt beam="1">  1        2 0.74054437E-02 0.13536605E+03</pdfrwt>
<pdfrwt beam="2">  1       -2 0.46400835E-01 0.13536605E+03</pdfrwt>
<totfact> 0.39918607E+03</totfact>
</mgrwt>
</event>
<event>
 8    1  0.3217375E-004  0.1334663E+03  0.7546771E-02  0.1235145E+00
         -1   -1    0    0    0  501 -0.00000000000E+00  0.00000000000E+00  0.10601983347E+03  0.10601983347E+03  0.00000000000E+00 0.  1.
          1   -1    0    0  501    0  0.00000000000E+00 -0.00000000000E+00 -0.24015498199E+03  0.24015498199E+03  0.00000000000E+00 0. -1.
         25    2    1    2    0    0 -0.61911034840E+01  0.46373463045E+02  0.44091354288E+02  0.14056067071E+03  0.12499770714E+03 0.  0.
         23    2    1    2    0    0  0.61911034840E+01 -0.46373463045E+02 -0.17822650281E+03  0.20561414475E+03  0.91234107539E+02 0.  0.
          5    1    3    3  502    0 -0.45676277707E+02  0.52880900822E+01 -0.23645742880E+02  0.51918179843E+02  0.47000000000E+01 0.  1.
         -5    1    4    4    0  503  0.24380781943E+02 -0.59618058821E+02 -0.71112555257E+02  0.96061547879E+02  0.47000000000E+01 0. -1.
          5    1    4    4  503    0 -0.18189678459E+02  0.13244595776E+02 -0.10711394756E+03  0.10955259687E+03  0.47000000000E+01 0.  1.
         -5    1    3    3    0  502  0.39485174223E+02  0.41085372963E+02  0.67737097168E+02  0.88642490870E+02  0.47000000000E+01 0.  1.
<mgrwt>
<rscale>  0 0.12495163E+03</rscale>
<asrwt>0</asrwt>
<pdfrwt beam="1">  1        1 0.36946920E-01 0.13346631E+03</pdfrwt>
<pdfrwt beam="2">  1       -1 0.16310744E-01 0.13346631E+03</pdfrwt>
<totfact> 0.31547311E+03</totfact>
</mgrwt>
</event>
<event>
 8    1  0.3217375E-004  0.1285481E+03  0.7546771E-02  0.1240523E+00
          1   -1    0    0  501    0  0.00000000000E+00  0.00000000000E+00  0.16918228920E+03  0.16918228920E+03  0.00000000000E+00 0. -1.
         -1   -1    0    0    0  501 -0.00000000000E+00 -0.00000000000E+00 -0.86958236993E+02  0.86958236993E+02  0.00000000000E+00 0.  1.
         25    2    1    2    0    0  0.29809153145E+02 -0.20405360363E+01  0.83509380954E+02  0.15329196813E+03  0.12502744253E+03 0.  0.
         23    2    1    2    0    0 -0.29809153145E+02  0.20405360363E+01 -0.12853287499E+01  0.10284855806E+03  0.98404392314E+02 0.  0.
          5    1    3    3  502    0 -0.15770530804E+02  0.15700431003E+02 -0.25228753128E+02  0.33967530966E+02  0.47000000000E+01 0.  1.
         -5    1    4    4    0  503 -0.37696986845E+01  0.42515235379E+02  0.23026667912E+02  0.48724463082E+02  0.47000000000E+01 0. -1.
          5    1    4    4  503    0 -0.26039454461E+02 -0.40474699343E+02 -0.24311996662E+02  0.54124094978E+02  0.47000000000E+01 0.  1.
         -5    1    3    3    0  502  0.45579683950E+02 -0.17740967039E+02  0.10873813408E+03  0.11932443716E+03  0.47000000000E+01 0.  1.
<mgrwt>
<rscale>  0 0.12157388E+03</rscale>
<asrwt>0</asrwt>
<pdfrwt beam="1">  1        1 0.26028044E-01 0.12854809E+03</pdfrwt>
<pdfrwt beam="2">  1       -1 0.13378190E-01 0.12854809E+03</pdfrwt>
<totfact> 0.66303240E+03</totfact>
</mgrwt>
</event>
<event>
 8    1  0.3217375E-004  0.1320974E+03  0.7546771E-02  0.1238312E+00
          4   -1    0    0  501    0  0.00000000000E+00  0.00000000000E+00  0.34737964617E+02  0.34737964617E+02  0.00000000000E+00 0. -1.
         -4   -1    0    0    0  501 -0.00000000000E+00 -0.00000000000E+00 -0.39364715761E+03  0.39364715761E+03  0.00000000000E+00 0.  1.
         25    2    1    2    0    0 -0.42228127389E+02  0.64416976346E+01 -0.17263534211E+03  0.21737685471E+03  0.12500010162E+03 0.  0.
         23    2    1    2    0    0  0.42228127389E+02 -0.64416976346E+01 -0.18627385088E+03  0.21100826752E+03  0.89452955389E+02 0.  0.
          5    1    3    3  502    0  0.29342288612E+02  0.26748758060E+02 -0.11901503395E+03  0.12555132124E+03  0.47000000000E+01 0. -1.
         -5    1    4    4    0  503  0.86087212334E+01 -0.26431519360E+02 -0.16264550814E+03  0.16507085332E+03  0.47000000000E+01 0.  1.
          5    1    4    4  503    0  0.33619406156E+02  0.19989821726E+02 -0.23628342745E+02  0.45937414204E+02  0.47000000000E+01 0. -1.
         -5    1    3    3    0  502 -0.71570416001E+02 -0.20307060426E+02 -0.53620308164E+02  0.91825533471E+02  0.47000000000E+01 0. -1.
<mgrwt>
<rscale>  0 0.12294784E+03</rscale>
<asrwt>0</asrwt>
<pdfrwt beam="1">  1        4 0.53443022E-02 0.13209745E+03</pdfrwt>
<pdfrwt beam="2">  1       -4 0.60561101E-01 0.13209745E+03</pdfrwt>
<totfact> 0.91720209E+02</totfact>
</mgrwt>
</event>
<event>
 8    1  0.3217375E-004  0.1565240E+03  0.7546771E-02  0.1201111E+00
          2   -1    0    0  501    0  0.00000000000E+00  0.00000000000E+00  0.46968772702E+02  0.46968772702E+02  0.00000000000E+00 0. -1.
         -2   -1    0    0    0  501 -0.00000000000E+00 -0.00000000000E+00 -0.44955537012E+03  0.44955537012E+03  0.00000000000E+00 0.  1.
         25    2    1    2    0    0  0.64895930203E+02 -0.68282921762E+02 -0.17893516770E+03  0.23773423394E+03  0.12500293031E+03 0.  0.
         23    2    1    2    0    0 -0.64895930203E+02  0.68282921762E+02 -0.22365142972E+03  0.25878990888E+03  0.89878894976E+02 0.  0.
          5    1    4    4  502    0 -0.18954702294E+02  0.30122618454E+02 -0.10534176007E+02  0.37412721710E+02  0.47000000000E+01 0. -1.
         -5    1    3    3    0  503  0.41186455455E+02  0.87798918992E+00 -0.15532034196E+03  0.16075942773E+03  0.47000000000E+01 0.  1.
          5    1    3    3  503    0  0.23709474748E+02 -0.69160910952E+02 -0.23614825743E+02  0.76974806212E+02  0.47000000000E+01 0.  1.
         -5    1    4    4    0  502 -0.45941227909E+02  0.38160303309E+02 -0.21311725371E+03  0.22137718717E+03  0.47000000000E+01 0.  1.
<mgrwt>
<rscale>  0 0.14948210E+03</rscale>
<asrwt>0</asrwt>
<pdfrwt beam="1">  1        2 0.72259650E-02 0.15652403E+03</pdfrwt>
<pdfrwt beam="2">  1       -2 0.69162365E-01 0.15652403E+03</pdfrwt>
<totfact> 0.18452743E+03</totfact>
</mgrwt>
</event>
<event>
 8    1  0.3217375E-004  0.2817978E+03  0.7546771E-02  0.1096705E+00
          1   -1    0    0  501    0  0.00000000000E+00  0.00000000000E+00  0.32839537372E+03  0.32839537372E+03  0.00000000000E+00 0. -1.
         -1   -1    0    0    0  501 -0.00000000000E+00 -0.00000000000E+00 -0.27521876644E+03  0.27521876644E+03  0.00000000000E+00 0.  1.
         25    2    1    2    0    0  0.15304424705E+03 -0.20090564018E+03  0.14989670168E+03  0.31918494305E+03  0.12499755551E+03 0.  0.
         23    2    1    2    0    0 -0.15304424705E+03  0.20090564018E+03 -0.96720094404E+02  0.28442919711E+03  0.88088442463E+02 0.  0.
          5    1    4    4  502    0  0.64226163853E+00  0.45384311784E+02 -0.84483441973E+00  0.45639368985E+02  0.47000000000E+01 0.  1.
         -5    1    4    4    0  502 -0.15368650869E+03  0.15552132839E+03 -0.95875259984E+02  0.23878982812E+03  0.47000000000E+01 0. -1.
          5    1    3    3  503    0  0.31334892851E+02 -0.69509188970E+02  0.11277855700E+03  0.13621488825E+03  0.47000000000E+01 0. -1.
         -5    1    3    3    0  503  0.12170935420E+03 -0.13139645121E+03  0.37118144684E+02  0.18297005480E+03  0.47000000000E+01 0. -1.
<mgrwt>
<rscale>  0 0.27814789E+03</rscale>
<asrwt>0</asrwt>
<pdfrwt beam="1">  1        1 0.50522365E-01 0.28179781E+03</pdfrwt>
<pdfrwt beam="2">  1       -1 0.42341349E-01 0.28179781E+03</pdfrwt>
<totfact> 0.43739364E+02</totfact>
</mgrwt>
</event>
<event>
 8    1  0.3217375E-004  0.1298936E+03  0.7546771E-02  0.1241099E+00
          3   -1    0    0  501    0  0.00000000000E+00  0.00000000000E+00  0.85173387412E+03  0.85173387412E+03  0.00000000000E+00 0. -1.
         -3   -1    0    0    0  501 -0.00000000000E+00 -0.00000000000E+00 -0.17650383280E+02  0.17650383280E+02  0.00000000000E+00 0.  1.
         25    2    1    2    0    0 -0.33233781690E+01 -0.35133769732E+02  0.62360631234E+03  0.63699071790E+03  0.12500766090E+03 0.  0.
         23    2    1    2    0    0  0.33233781690E+01  0.35133769732E+02  0.21047717851E+03  0.23239353950E+03  0.91981997770E+02 0.  0.
          5    1    3    3  502    0  0.18723856220E+02  0.43210069274E+02  0.19148654460E+03  0.19724826905E+03  0.47000000000E+01 0. -1.
         -5    1    3    3    0  502 -0.22047234389E+02 -0.78343839006E+02  0.43211976773E+03  0.43974244885E+03  0.47000000000E+01 0. -1.
          5    1    4    4  503    0 -0.25164225426E+02  0.31836241414E+02  0.19545782619E+03  0.19968133696E+03  0.47000000000E+01 0. -1.
         -5    1    4    4    0  503  0.28487603595E+02  0.32975283177E+01  0.15019352311E+02  0.32712202547E+02  0.47000000000E+01 0.  1.
<mgrwt>
<rscale>  0 0.12121921E+03</rscale>
<asrwt>0</asrwt>
<pdfrwt beam="1">  1        3 0.13103595E+00 0.12989358E+03</pdfrwt>
<pdfrwt beam="2">  1       -3 0.27154443E-02 0.12989358E+03</pdfrwt>
<totfact> 0.65774975E+02</totfact>
</mgrwt>
</event>
<event>
 8    1  0.3217375E-004  0.1369199E+03  0.7546771E-02  0.1228892E+00
          2   -1    0    0  501    0  0.00000000000E+00  0.00000000000E+00  0.27624259300E+02  0.27624259300E+02  0.00000000000E+00 0. -1.
         -2   -1    0    0    0  501 -0.00000000000E+00 -0.00000000000E+00 -0.54591284576E+03  0.54591284576E+03  0.00000000000E+00 0.  1.
         25    2    1    2    0    0 -0.34199028960E+02 -0.44178002621E+02 -0.26844126034E+03  0.30134326582E+03  0.12500313638E+03 0.  0.
         23    2    1    2    0    0  0.34199028960E+02  0.44178002621E+02 -0.24984732612E+03  0.27219383924E+03  0.92436628311E+02 0.  0.
          5    1    3    3  502    0  0.42834927084E+02 -0.18968885532E+02 -0.51860385745E+02  0.70044551581E+02  0.47000000000E+01 0. -1.
         -5    1    3    3    0  502 -0.77033956045E+02 -0.25209117090E+02 -0.21658087460E+03  0.23129871424E+03  0.47000000000E+01 0. -1.
          5    1    4    4  503    0  0.48856756769E+02  0.58662804730E+02 -0.13278969690E+03  0.15324327373E+03  0.47000000000E+01 0. -1.
         -5    1    4    4    0  503 -0.14657727809E+02 -0.14484802108E+02 -0.11705762922E+03  0.11895056551E+03  0.47000000000E+01 0.  1.
<mgrwt>
<rscale>  0 0.12903698E+03</rscale>
<asrwt>0</asrwt>
<pdfrwt beam="1">  1        2 0.42498861E-02 0.13691988E+03</pdfrwt>
<pdfrwt beam="2">  1       -2 0.83986591E-01 0.13691988E+03</pdfrwt>
<totfact> 0.23930671E+03</totfact>
</mgrwt>
</event>
<event>
 8    1  0.3217375E-004  0.1256825E+03  0.7546771E-02  0.1250346E+00
          1   -1    0    0  501    0  0.00000000000E+00  0.00000000000E+00  0.38223993494E+03  0.38223993494E+03  0.00000000000E+00 0. -1.
         -1   -1    0    0    0  501 -0.00000000000E+00 -0.00000000000E+00 -0.31460362858E+02  0.31460362858E+02  0.00000000000E+00 0.  1.
         25    2    1    2    0    0  0.50815830681E+01 -0.12143396335E+02  0.23876229669E+03  0.26982130020E+03  0.12499126034E+03 0.  0.
         23    2    1    2    0    0 -0.50815830681E+01  0.12143396335E+02  0.11201727539E+03  0.14387899760E+03  0.89330909556E+02 0.  0.
          5    1    3    3  502    0  0.16815723105E+02  0.54721192118E+02  0.11679264767E+03  0.13015294833E+03  0.47000000000E+01 0.  1.
         -5    1    3    3    0  502 -0.11734140037E+02 -0.66864588453E+02  0.12196964902E+03  0.13966835187E+03  0.47000000000E+01 0.  1.
          5    1    4    4  503    0 -0.30946904726E+02  0.23239609068E+02  0.10829982161E+03  0.11510313507E+03  0.47000000000E+01 0. -1.
         -5    1    4    4    0  503  0.25865321658E+02 -0.11096212733E+02  0.37174537790E+01  0.28775862525E+02  0.47000000000E+01 0.  1.
<mgrwt>
<rscale>  0 0.11571052E+03</rscale>
<asrwt>0</asrwt>
<pdfrwt beam="1">  1        1 0.58806140E-01 0.12568254E+03</pdfrwt>
<pdfrwt beam="2">  1       -1 0.48400561E-02 0.12568254E+03</pdfrwt>
<totfact> 0.11174942E+04</totfact>
</mgrwt>
</event>
<event>
 8    1  0.3217375E-004  0.1587755E+03  0.7546771E-02  0.1198059E+00
          1   -1    0    0  501    0  0.00000000000E+00  0.00000000000E+00  0.45882366208E+02  0.45882366208E+02  0.00000000000E+00 0. -1.
         -1   -1    0    0    0  501 -0.00000000000E+00 -0.00000000000E+00 -0.46510515638E+03  0.46510515638E+03  0.00000000000E+00 0.  1.
         25    2    1    2    0    0 -0.88486477025E+02 -0.41884106815E+02 -0.22141305059E+03  0.27245804591E+03  0.12500205114E+03 0.  0.
         23    2    1    2    0    0  0.88486477025E+02  0.41884106815E+02 -0.19780973959E+03  0.23852947668E+03  0.90462606364E+02 0.  0.
          5    1    4    4  502    0  0.42831053650E+02  0.18882363770E+02 -0.16124903988E+02  0.49730728397E+02  0.47000000000E+01 0. -1.
         -5    1    3    3    0  503 -0.85049104749E+02 -0.14673551667E+02 -0.22802487689E+03  0.24385671575E+03  0.47000000000E+01 0.  1.
          5    1    3    3  503    0 -0.34373722763E+01 -0.27210555148E+02  0.66118263033E+01  0.28601330156E+02  0.47000000000E+01 0.  1.
         -5    1    4    4    0  502  0.45655423375E+02  0.23001743045E+02 -0.18168483560E+03  0.18879874828E+03  0.47000000000E+01 0.  1.
<mgrwt>
<rscale>  0 0.15198166E+03</rscale>
<asrwt>0</asrwt>
<pdfrwt beam="1">  1        1 0.70588258E-02 0.15877546E+03</pdfrwt>
<pdfrwt beam="2">  1       -1 0.71554637E-01 0.15877546E+03</pdfrwt>
<totfact> 0.20707234E+03</totfact>
</mgrwt>
</event>
<event>
 8    1  0.3217375E-004  0.1412929E+03  0.7546771E-02  0.1222571E+00
          4   -1    0    0  501    0  0.00000000000E+00  0.00000000000E+00  0.68101538725E+03  0.68101538725E+03  0.00000000000E+00 0.  1.
         -4   -1    0    0    0  501 -0.00000000000E+00 -0.00000000000E+00 -0.32193101865E+02  0.32193101865E+02  0.00000000000E+00 0. -1.
         25    2    1    2    0    0  0.33807568746E+02  0.56551732403E+02  0.16811467656E+03  0.21960469066E+03  0.12499050180E+03 0.  0.
         23    2    1    2    0    0 -0.33807568746E+02 -0.56551732403E+02  0.48070760882E+03  0.49360379846E+03  0.90685470330E+02 0.  0.
          5    1    3    3  502    0 -0.36617486656E+00  0.86135236588E+02  0.14475273279E+03  0.16850773489E+03  0.47000000000E+01 0.  1.
         -5    1    4    4    0  503 -0.50946910135E+02 -0.32057652091E+02  0.43243552325E+03  0.43663010945E+03  0.47000000000E+01 0.  1.
          5    1    4    4  503    0  0.17139341389E+02 -0.24494080312E+02  0.48272085574E+02  0.56973689009E+02  0.47000000000E+01 0. -1.
         -5    1    3    3    0  502  0.34173743613E+02 -0.29583504185E+02  0.23361943772E+02  0.51096955772E+02  0.47000000000E+01 0.  1.
<mgrwt>
<rscale>  0 0.13334756E+03</rscale>
<asrwt>0</asrwt>
<pdfrwt beam="1">  1        4 0.10477159E+00 0.14129287E+03</pdfrwt>
<pdfrwt beam="2">  1       -4 0.49527854E-02 0.14129287E+03</pdfrwt>
<totfact> 0.31231615E+02</totfact>
</mgrwt>
</event>
<event>
 8    1  0.3217375E-004  0.4511895E+03  0.7546771E-02  0.1028009E+00
          2   -1    0    0  501    0  0.00000000000E+00  0.00000000000E+00  0.12887886765E+04  0.12887886765E+04  0.00000000000E+00 0.  1.
         -2   -1    0    0    0  501 -0.00000000000E+00 -0.00000000000E+00 -0.16505250044E+03  0.16505250044E+03  0.00000000000E+00 0. -1.
         25    2    1    2    0    0  0.38064303248E+03  0.20750294931E+03  0.74647172967E+03  0.87223393573E+03  0.12500161318E+03 0.  0.
         23    2    1    2    0    0 -0.38064303248E+03 -0.20750294931E+03  0.37726444636E+03  0.58160724118E+03  0.89397585862E+02 0.  0.
          5    1    3    3  502    0  0.11982982414E+03  0.47003017726E+02  0.12548605107E+03  0.17982577525E+03  0.47000000000E+01 0. -1.
         -5    1    3    3    0  502  0.26081320834E+03  0.16049993159E+03  0.62098567859E+03  0.69240816048E+03  0.47000000000E+01 0. -1.
          5    1    4    4  503    0 -0.13593425910E+03 -0.11442776215E+03  0.11958625775E+03  0.21423071346E+03  0.47000000000E+01 0. -1.
         -5    1    4    4    0  503 -0.24470877338E+03 -0.93075187166E+02  0.25767818861E+03  0.36737652772E+03  0.47000000000E+01 0.  1.
<mgrwt>
<rscale>  0 0.44903918E+03</rscale>
<asrwt>0</asrwt>
<pdfrwt beam="1">  1        2 0.19827517E+00 0.45118953E+03</pdfrwt>
<pdfrwt beam="2">  1       -2 0.25392693E-01 0.45118953E+03</pdfrwt>
<totfact> 0.24238535E+02</totfact>
</mgrwt>
</event>
<event>
 8    1  0.3217375E-004  0.1312945E+03  0.7546771E-02  0.1239024E+00
         -3   -1    0    0    0  501 -0.00000000000E+00  0.00000000000E+00  0.51258782296E+03  0.51258782296E+03  0.00000000000E+00 0.  1.
          3   -1    0    0  501    0  0.00000000000E+00 -0.00000000000E+00 -0.26487356843E+02  0.26487356843E+02  0.00000000000E+00 0. -1.
         25    2    1    2    0    0 -0.16853111062E+02 -0.36412274573E+02  0.23894547381E+03  0.27264111297E+03  0.12501342302E+03 0.  0.
         23    2    1    2    0    0  0.16853111062E+02  0.36412274573E+02  0.24715499231E+03  0.26643406683E+03  0.91058446369E+02 0.  0.
          5    1    3    3  502    0  0.91842366029E+01 -0.43389215612E+02  0.15035114031E+02  0.47065049531E+02  0.47000000000E+01 0. -1.
         -5    1    4    4    0  503 -0.15994821454E+02  0.57368639243E+02  0.13560685320E+03  0.14818334493E+03  0.47000000000E+01 0.  1.
          5    1    4    4  503    0  0.32847932516E+02 -0.20956364670E+02  0.11154813911E+03  0.11825072190E+03  0.47000000000E+01 0. -1.
         -5    1    3    3    0  502 -0.26037347665E+02  0.69769410394E+01  0.22391035978E+03  0.22557606344E+03  0.47000000000E+01 0. -1.
<mgrwt>
<rscale>  0 0.12250324E+03</rscale>
<asrwt>0</asrwt>
<pdfrwt beam="1">  1        3 0.40749784E-02 0.13129447E+03</pdfrwt>
<pdfrwt beam="2">  1       -3 0.78859658E-01 0.13129447E+03</pdfrwt>
<totfact> 0.11124360E+03</totfact>
</mgrwt>
</event>
<event>
 8    1  0.3217375E-004  0.1331990E+03  0.7546771E-02  0.1236195E+00
         -1   -1    0    0    0  501 -0.00000000000E+00  0.00000000000E+00  0.68199922759E+02  0.68199922759E+02  0.00000000000E+00 0.  1.
          1   -1    0    0  501    0  0.00000000000E+00 -0.00000000000E+00 -0.20139078514E+03  0.20139078514E+03  0.00000000000E+00 0. -1.
         25    2    1    2    0    0 -0.69441936019E+01 -0.45487060326E+02 -0.69762241635E+02  0.15036200473E+03  0.12499867050E+03 0.  0.
         23    2    1    2    0    0  0.69441936019E+01  0.45487060326E+02 -0.63428620742E+02  0.11922870317E+03  0.89860999593E+02 0.  0.
          5    1    4    4  502    0 -0.15939607351E+01 -0.26077177775E+02 -0.28680595116E+02  0.39079744725E+02  0.47000000000E+01 0. -1.
         -5    1    4    4    0  502  0.85381543370E+01  0.71564238101E+02 -0.34748025626E+02  0.80148958442E+02  0.47000000000E+01 0.  1.
          5    1    3    3  503    0 -0.28933708116E+02 -0.42745664464E+02 -0.99968056194E+02  0.11260574388E+03  0.47000000000E+01 0. -1.
         -5    1    3    3    0  503  0.21989514514E+02 -0.27413958616E+01  0.30205814559E+02  0.37756260846E+02  0.47000000000E+01 0. -1.
<mgrwt>
<rscale>  0 0.12428239E+03</rscale>
<asrwt>0</asrwt>
<pdfrwt beam="1">  1        1 0.30983198E-01 0.13319896E+03</pdfrwt>
<pdfrwt beam="2">  1       -1 0.10492296E-01 0.13319896E+03</pdfrwt>
<totfact> 0.77790792E+03</totfact>
</mgrwt>
</event>
<event>
 8    1  0.3217375E-004  0.1637038E+03  0.7546771E-02  0.1191633E+00
         -2   -1    0    0    0  501 -0.00000000000E+00  0.00000000000E+00  0.72681309915E+02  0.72681309915E+02  0.00000000000E+00 0.  1.
          2   -1    0    0  501    0  0.00000000000E+00 -0.00000000000E+00 -0.32666195878E+03  0.32666195878E+03  0.00000000000E+00 0. -1.
         25    2    1    2    0    0 -0.39982397635E+01 -0.10563893075E+03 -0.17037855531E+03  0.23627906108E+03  0.12499349176E+03 0.  0.
         23    2    1    2    0    0  0.39982397635E+01  0.10563893075E+03 -0.83602093555E+02  0.16306420762E+03  0.91788104618E+02 0.  0.
          5    1    4    4  502    0 -0.43557568610E+02  0.52479007952E+02 -0.44746558226E+02  0.81704666524E+02  0.47000000000E+01 0. -1.
         -5    1    3    3    0  503 -0.37417714511E+02 -0.96740941805E+02 -0.58703897072E+02  0.11927754488E+03  0.47000000000E+01 0. -1.
          5    1    3    3  503    0  0.33419474747E+02 -0.88979889440E+01 -0.11167465824E+03  0.11700151620E+03  0.47000000000E+01 0. -1.
         -5    1    4    4    0  502  0.47555808373E+02  0.53159922797E+02 -0.38855535329E+02  0.81359541097E+02  0.47000000000E+01 0.  1.
<mgrwt>
<rscale>  0 0.15742651E+03</rscale>
<asrwt>0</asrwt>
<pdfrwt beam="1">  1        2 0.50255686E-01 0.16370383E+03</pdfrwt>
<pdfrwt beam="2">  1       -2 0.11181740E-01 0.16370383E+03</pdfrwt>
<totfact> 0.53515595E+03</totfact>
</mgrwt>
</event>
<event>
 8    1  0.3217375E-004  0.2027366E+03  0.7546771E-02  0.1151002E+00
         -2   -1    0    0    0  501 -0.00000000000E+00  0.00000000000E+00  0.16255803454E+02  0.16255803454E+02  0.00000000000E+00 0.  1.
          2   -1    0    0  501    0  0.00000000000E+00 -0.00000000000E+00 -0.23456905134E+04  0.23456905134E+04  0.00000000000E+00 0. -1.
         25    2    1    2    0    0 -0.13707826726E+03 -0.81768392782E+02 -0.11115933677E+04  0.11299300639E+04  0.12500245123E+03 0.  0.
         23    2    1    2    0    0  0.13707826726E+03  0.81768392782E+02 -0.12178413422E+04  0.12320162529E+04  0.96176874593E+02 0.  0.
          5    1    3    3  502    0 -0.23174663381E+02 -0.22507160913E+02 -0.44828217964E+02  0.55455355386E+02  0.47000000000E+01 0. -1.
         -5    1    3    3    0  502 -0.11390360388E+03 -0.59261231869E+02 -0.10667651498E+04  0.10744747085E+04  0.47000000000E+01 0. -1.
          5    1    4    4  503    0  0.11321666500E+03  0.40053054708E+02 -0.10642167900E+04  0.10709816649E+04  0.47000000000E+01 0. -1.
         -5    1    4    4    0  503  0.23861602266E+02  0.41715338074E+02 -0.15362455224E+03  0.16103458804E+03  0.47000000000E+01 0.  1.
<mgrwt>
<rscale>  0 0.19850972E+03</rscale>
<asrwt>0</asrwt>
<pdfrwt beam="1">  1        2 0.36087562E+00 0.20273661E+03</pdfrwt>
<pdfrwt beam="2">  1       -2 0.25008917E-02 0.20273661E+03</pdfrwt>
<totfact> 0.27125030E+03</totfact>
</mgrwt>
</event>
<event>
 8    1  0.3217375E-004  0.1292485E+03  0.7546771E-02  0.1243384E+00
          2   -1    0    0  501    0  0.00000000000E+00  0.00000000000E+00  0.14867269429E+03  0.14867269429E+03  0.00000000000E+00 0. -1.
         -2   -1    0    0    0  501 -0.00000000000E+00 -0.00000000000E+00 -0.14594353631E+03  0.14594353631E+03  0.00000000000E+00 0.  1.
         25    2    1    2    0    0 -0.32108495706E+02 -0.69874173739E+01 -0.93137779964E+02  0.15931046722E+03  0.12500159763E+03 0.  0.
         23    2    1    2    0    0  0.32108495706E+02  0.69874173739E+01  0.95866937947E+02  0.13530576337E+03  0.89651549417E+02 0.  0.
          5    1    3    3  502    0 -0.68754265064E+02  0.25114672039E+02 -0.80203955004E+02  0.10868606219E+03  0.47000000000E+01 0.  1.
         -5    1    3    3    0  502  0.36645769358E+02 -0.32102089413E+02 -0.12933824961E+02  0.50624405030E+02  0.47000000000E+01 0.  1.
          5    1    4    4  503    0 -0.30267270531E+02 -0.68765350033E+01  0.32863954127E+02  0.45448034940E+02  0.47000000000E+01 0. -1.
         -5    1    4    4    0  503  0.62375766237E+02  0.13863952377E+02  0.63002983820E+02  0.89857728434E+02  0.47000000000E+01 0.  1.
<mgrwt>
<rscale>  0 0.11982619E+03</rscale>
<asrwt>0</asrwt>
<pdfrwt beam="1">  1        2 0.22872722E-01 0.12924852E+03</pdfrwt>
<pdfrwt beam="2">  1       -2 0.22452852E-01 0.12924852E+03</pdfrwt>
<totfact> 0.39123442E+03</totfact>
</mgrwt>
</event>
<event>
 8    1  0.3217375E-004  0.1371761E+03  0.7546771E-02  0.1229564E+00
         -1   -1    0    0    0  501 -0.00000000000E+00  0.00000000000E+00  0.41371981642E+02  0.41371981642E+02  0.00000000000E+00 0.  1.
          1   -1    0    0  501    0  0.00000000000E+00 -0.00000000000E+00 -0.40330833367E+03  0.40330833367E+03  0.00000000000E+00 0. -1.
         25    2    1    2    0    0  0.44018970918E+02  0.35427067281E+02 -0.27626980041E+03  0.30845141909E+03  0.12499811368E+03 0.  0.
         23    2    1    2    0    0 -0.44018970918E+02 -0.35427067281E+02 -0.85666551615E+02  0.13622889622E+03  0.89592450589E+02 0.  0.
          5    1    3    3  502    0  0.82423130159E+02  0.18390836562E+02 -0.12170366665E+03  0.14820819049E+03  0.47000000000E+01 0.  1.
         -5    1    4    4    0  503 -0.63302631098E+01 -0.55571918647E+02 -0.71633632650E+02  0.91004272976E+02  0.47000000000E+01 0.  1.
          5    1    4    4  503    0 -0.37688707808E+02  0.20144851366E+02 -0.14032918965E+02  0.45224623243E+02  0.47000000000E+01 0. -1.
         -5    1    3    3    0  502 -0.38404159242E+02  0.17036230719E+02 -0.15456613377E+03  0.16024322860E+03  0.47000000000E+01 0.  1.
<mgrwt>
<rscale>  0 0.12858956E+03</rscale>
<asrwt>0</asrwt>
<pdfrwt beam="1">  1        1 0.62047434E-01 0.13717607E+03</pdfrwt>
<pdfrwt beam="2">  1       -1 0.63649204E-02 0.13717607E+03</pdfrwt>
<totfact> 0.70009609E+03</totfact>
</mgrwt>
</event>
<event>
 8    1  0.3217375E-004  0.1485287E+03  0.7546771E-02  0.1213371E+00
         -3   -1    0    0    0  501 -0.00000000000E+00  0.00000000000E+00  0.23406314134E+03  0.23406314134E+03  0.00000000000E+00 0.  1.
          3   -1    0    0  501    0  0.00000000000E+00 -0.00000000000E+00 -0.10476666474E+03  0.10476666474E+03  0.00000000000E+00 0. -1.
         25    2    1    2    0    0  0.74450335982E+02  0.29898899226E+02 -0.19123490811E+02  0.14975472691E+03  0.12499589444E+03 0.  0.
         23    2    1    2    0    0 -0.74450335982E+02 -0.29898899226E+02  0.14841996741E+03  0.18907507917E+03  0.85346951519E+02 0.  0.
          5    1    3    3  502    0  0.25921665032E+02 -0.35535489117E+02  0.30974498295E+02  0.54001974496E+02  0.47000000000E+01 0. -1.
         -5    1    3    3    0  502  0.48528670950E+02  0.65434388343E+02 -0.50097989106E+02  0.95752752412E+02  0.47000000000E+01 0. -1.
          5    1    4    4  503    0 -0.90432414110E+02 -0.16083784244E+02  0.99025745390E+02  0.13514768917E+03  0.47000000000E+01 0. -1.
         -5    1    4    4    0  503  0.15982078129E+02 -0.13815114982E+02  0.49394222017E+02  0.53927389998E+02  0.47000000000E+01 0.  1.
<mgrwt>
<rscale>  0 0.13996859E+03</rscale>
<asrwt>0</asrwt>
<pdfrwt beam="1">  1        3 0.16117948E-01 0.14852869E+03</pdfrwt>
<pdfrwt beam="2">  1       -3 0.36009714E-01 0.14852869E+03</pdfrwt>
<totfact> 0.58491187E+02</totfact>
</mgrwt>
</event>
<event>
 8    1  0.3217375E-004  0.1515046E+03  0.7546771E-02  0.1206882E+00
         -1   -1    0    0    0  501 -0.00000000000E+00  0.00000000000E+00  0.34633040765E+03  0.34633040765E+03  0.00000000000E+00 0.  1.
          1   -1    0    0  501    0  0.00000000000E+00 -0.00000000000E+00 -0.85246976710E+02  0.85246976710E+02  0.00000000000E+00 0. -1.
         25    2    1    2    0    0  0.18956708050E+01  0.85582774525E+02  0.26443741414E+03  0.30476349254E+03  0.12500254207E+03 0.  0.
         23    2    1    2    0    0 -0.18956708050E+01 -0.85582774525E+02 -0.33539832058E+01  0.12681389182E+03  0.93501385506E+02 0.  0.
          5    1    4    4  502    0  0.42421187154E+02 -0.64806197910E+02 -0.18407840862E+01  0.77620093360E+02  0.47000000000E+01 0. -1.
         -5    1    3    3    0  503 -0.24227612156E+02  0.10047992247E+03  0.12608917877E+03  0.16310660016E+03  0.47000000000E+01 0.  1.
          5    1    3    3  503    0  0.26123282961E+02 -0.14897147948E+02  0.13834823537E+03  0.14165689238E+03  0.47000000000E+01 0.  1.
         -5    1    4    4    0  502 -0.44316857959E+02 -0.20776576615E+02 -0.15131991196E+01  0.49193798458E+02  0.47000000000E+01 0.  1.
<mgrwt>
<rscale>  0 0.14490156E+03</rscale>
<asrwt>0</asrwt>
<pdfrwt beam="1">  1        1 0.13114920E-01 0.15150459E+03</pdfrwt>
<pdfrwt beam="2">  1       -1 0.53281600E-01 0.15150459E+03</pdfrwt>
<totfact> 0.15943212E+03</totfact>
</mgrwt>
</event>
<event>
 8    1  0.3217375E-004  0.1389523E+03  0.7546771E-02  0.1224422E+00
          2   -1    0    0  501    0  0.00000000000E+00  0.00000000000E+00  0.23683090492E+03  0.23683090492E+03  0.00000000000E+00 0. -1.
         -2   -1    0    0    0  501 -0.00000000000E+00 -0.00000000000E+00 -0.75932411950E+02  0.75932411950E+02  0.00000000000E+00 0.  1.
         25    2    1    2    0    0  0.55757688951E+02  0.23941735420E+02  0.14040670082E+03  0.19753933423E+03  0.12500248141E+03 0.  0.
         23    2    1    2    0    0 -0.55757688951E+02 -0.23941735420E+02  0.20491792148E+02  0.11522398264E+03  0.95783746315E+02 0.  0.
          5    1    3    3  502    0 -0.22783962984E+02  0.50668510623E+02  0.52709075846E+02  0.76725117235E+02  0.47000000000E+01 0. -1.
         -5    1    4    4    0  503 -0.81205662378E+02 -0.29987767506E+02  0.17907160140E+02  0.88523342608E+02  0.47000000000E+01 0.  1.
          5    1    4    4  503    0  0.25447973427E+02  0.60460320856E+01  0.25846320081E+01  0.26700640032E+02  0.47000000000E+01 0. -1.
         -5    1    3    3    0  502  0.78541651936E+02 -0.26726775203E+02  0.87697624978E+02  0.12081421700E+03  0.47000000000E+01 0. -1.
<mgrwt>
<rscale>  0 0.13206579E+03</rscale>
<asrwt>0</asrwt>
<pdfrwt beam="1">  1        2 0.36435524E-01 0.13895232E+03</pdfrwt>
<pdfrwt beam="2">  1       -2 0.11681910E-01 0.13895232E+03</pdfrwt>
<totfact> 0.69609765E+03</totfact>
</mgrwt>
</event>
<event>
 8    1  0.3217375E-004  0.1298936E+03  0.7546771E-02  0.1241135E+00
         -1   -1    0    0    0  501 -0.00000000000E+00  0.00000000000E+00  0.41099766868E+02  0.41099766868E+02  0.00000000000E+00 0.  1.
          1   -1    0    0  501    0  0.00000000000E+00 -0.00000000000E+00 -0.37253739573E+03  0.37253739573E+03  0.00000000000E+00 0. -1.
         25    2    1    2    0    0 -0.34437303329E+01 -0.35149386894E+02 -0.10605080332E+03  0.16768758038E+03  0.12500005220E+03 0.  0.
         23    2    1    2    0    0  0.34437303329E+01  0.35149386894E+02 -0.22538682555E+03  0.24594958223E+03  0.91894707082E+02 0.  0.
          5    1    3    3  502    0 -0.54186763951E+02 -0.45968268951E+02 -0.34366055511E+02  0.79072137376E+02  0.47000000000E+01 0. -1.
         -5    1    3    3    0  502  0.50743033618E+02  0.10818882057E+02 -0.71684747810E+02  0.88615443001E+02  0.47000000000E+01 0. -1.
          5    1    4    4  503    0 -0.23278633177E+02 -0.14923254268E+02 -0.14343791626E+03  0.14615445290E+03  0.47000000000E+01 0. -1.
         -5    1    4    4    0  503  0.26722363510E+02  0.50072641162E+02 -0.81948909281E+02  0.99795129325E+02  0.47000000000E+01 0.  1.
<mgrwt>
<rscale>  0 0.12119715E+03</rscale>
<asrwt>0</asrwt>
<pdfrwt beam="1">  1        1 0.57313446E-01 0.12989362E+03</pdfrwt>
<pdfrwt beam="2">  1       -1 0.63230410E-02 0.12989362E+03</pdfrwt>
<totfact> 0.77835854E+03</totfact>
</mgrwt>
</event>
<event>
 8    1  0.3217375E-004  0.1945931E+03  0.7546771E-02  0.1158915E+00
         -1   -1    0    0    0  501 -0.00000000000E+00  0.00000000000E+00  0.51503205690E+02  0.51503205690E+02  0.00000000000E+00 0.  1.
          1   -1    0    0  501    0  0.00000000000E+00 -0.00000000000E+00 -0.66351614613E+03  0.66351614613E+03  0.00000000000E+00 0. -1.
         25    2    1    2    0    0 -0.28080553108E+02  0.14646764797E+03 -0.31280059527E+03  0.36838932935E+03  0.12500078483E+03 0.  0.
         23    2    1    2    0    0  0.28080553108E+02 -0.14646764797E+03 -0.29921234517E+03  0.34663002248E+03  0.91559028038E+02 0.  0.
          5    1    3    3  502    0  0.17716274633E+01  0.11384229549E+03 -0.30177344122E+03  0.32257170790E+03  0.47000000000E+01 0. -1.
         -5    1    3    3    0  502 -0.29852180571E+02  0.32625352474E+02 -0.11027154049E+02  0.45817621450E+02  0.47000000000E+01 0. -1.
          5    1    4    4  503    0  0.43285437188E+02 -0.70895370114E+02 -0.22348010931E+03  0.23846431983E+03  0.47000000000E+01 0. -1.
         -5    1    4    4    0  503 -0.15204884080E+02 -0.75572277855E+02 -0.75732235862E+02  0.10816570265E+03  0.47000000000E+01 0.  1.
<mgrwt>
<rscale>  0 0.18949771E+03</rscale>
<asrwt>0</asrwt>
<pdfrwt beam="1">  1        1 0.10207940E+00 0.19459313E+03</pdfrwt>
<pdfrwt beam="2">  1       -1 0.79235704E-02 0.19459313E+03</pdfrwt>
<totfact> 0.26376379E+03</totfact>
</mgrwt>
</event>
<event>
 8    1  0.3217375E-004  0.2011076E+03  0.7546771E-02  0.1152995E+00
          1   -1    0    0  501    0  0.00000000000E+00  0.00000000000E+00  0.24209794606E+03  0.24209794606E+03  0.00000000000E+00 0. -1.
         -1   -1    0    0    0  501 -0.00000000000E+00 -0.00000000000E+00 -0.16235499076E+03  0.16235499076E+03  0.00000000000E+00 0.  1.
         25    2    1    2    0    0  0.13664159889E+03  0.78407027572E+02  0.93519316268E+02  0.22178843874E+03  0.12500264206E+03 0.  0.
         23    2    1    2    0    0 -0.13664159889E+03 -0.78407027572E+02 -0.13776360963E+02  0.18266449808E+03  0.91421781965E+02 0.  0.
          5    1    3    3  502    0  0.12465949065E+03  0.11658886683E+02  0.88952867162E+02  0.15365747891E+03  0.47000000000E+01 0.  1.
         -5    1    4    4    0  503 -0.58616097223E+02 -0.61629617494E+02 -0.45595085093E+02  0.96618105916E+02  0.47000000000E+01 0.  1.
          5    1    4    4  503    0 -0.78025501670E+02 -0.16777410078E+02  0.31818724129E+02  0.86046392168E+02  0.47000000000E+01 0. -1.
         -5    1    3    3    0  502  0.11982108241E+02  0.66748140889E+02  0.45664491062E+01  0.68130959831E+02  0.47000000000E+01 0.  1.
<mgrwt>
<rscale>  0 0.19618923E+03</rscale>
<asrwt>0</asrwt>
<pdfrwt beam="1">  1        1 0.37245838E-01 0.20110756E+03</pdfrwt>
<pdfrwt beam="2">  1       -1 0.24977691E-01 0.20110756E+03</pdfrwt>
<totfact> 0.15917488E+03</totfact>
</mgrwt>
</event>
<event>
 8    1  0.3217375E-004  0.1348859E+03  0.7546771E-02  0.1234418E+00
         -3   -1    0    0    0  501 -0.00000000000E+00  0.00000000000E+00  0.10122654187E+03  0.10122654187E+03  0.00000000000E+00 0.  1.
          3   -1    0    0  501    0  0.00000000000E+00 -0.00000000000E+00 -0.16497467418E+03  0.16497467418E+03  0.00000000000E+00 0. -1.
         25    2    1    2    0    0  0.37311230517E+02 -0.34234298713E+02 -0.89834870201E+02  0.16206333110E+03  0.12502041534E+03 0.  0.
         23    2    1    2    0    0 -0.37311230517E+02  0.34234298713E+02  0.26086737895E+02  0.10413788495E+03  0.87178357737E+02 0.  0.
          5    1    3    3  502    0 -0.42614201839E+02 -0.31279030981E+02 -0.48579637585E+02  0.71947336055E+02  0.47000000000E+01 0.  1.
         -5    1    3    3    0  502  0.79925432356E+02 -0.29552677314E+01 -0.41255232616E+02  0.90115995044E+02  0.47000000000E+01 0.  1.
          5    1    4    4  503    0 -0.60033656669E+02  0.41793609732E+02  0.30404131676E+02  0.79355194981E+02  0.47000000000E+01 0. -1.
         -5    1    4    4    0  503  0.22722426152E+02 -0.75593110187E+01 -0.43173937808E+01  0.24782689974E+02  0.47000000000E+01 0.  1.
<mgrwt>
<rscale>  0 0.12541777E+03</rscale>
<asrwt>0</asrwt>
<pdfrwt beam="1">  1        3 0.25380719E-01 0.13488595E+03</pdfrwt>
<pdfrwt beam="2">  1       -3 0.15573314E-01 0.13488595E+03</pdfrwt>
<totfact> 0.11698490E+03</totfact>
</mgrwt>
</event>
<event>
 8    1  0.3217375E-004  0.1254045E+03  0.7546771E-02  0.1249518E+00
         -2   -1    0    0    0  501 -0.00000000000E+00  0.00000000000E+00  0.51019789806E+02  0.51019789806E+02  0.00000000000E+00 0. -1.
          2   -1    0    0  501    0  0.00000000000E+00 -0.00000000000E+00 -0.31773048307E+03  0.31773048307E+03  0.00000000000E+00 0.  1.
         25    2    1    2    0    0  0.10074285816E+02 -0.17370690778E+00 -0.24283327086E+03  0.27330256315E+03  0.12499908872E+03 0.  0.
         23    2    1    2    0    0 -0.10074285816E+02  0.17370690778E+00 -0.23877422404E+02  0.95447709722E+02  0.91861921283E+02 0.  0.
          5    1    3    3  502    0  0.14332148178E+01  0.53277109212E+02 -0.19043678330E+03  0.19780991609E+03  0.47000000000E+01 0.  1.
         -5    1    4    4    0  503 -0.67145538127E+01  0.27494681837E+02 -0.49717252240E+02  0.57401549914E+02  0.47000000000E+01 0.  1.
          5    1    4    4  503    0 -0.33597320034E+01 -0.27320974930E+02  0.25839829836E+02  0.38046159809E+02  0.47000000000E+01 0. -1.
         -5    1    3    3    0  502  0.86410709983E+01 -0.53450816120E+02 -0.52396487561E+02  0.75492647063E+02  0.47000000000E+01 0.  1.
<mgrwt>
<rscale>  0 0.11618979E+03</rscale>
<asrwt>0</asrwt>
<pdfrwt beam="1">  1        2 0.48881613E-01 0.12540452E+03</pdfrwt>
<pdfrwt beam="2">  1       -2 0.78491984E-02 0.12540452E+03</pdfrwt>
<totfact> 0.94273178E+03</totfact>
</mgrwt>
</event>
