<event>
 8    1  0.3572165E-004  0.1646975E+03  0.7546771E-02  0.1190489E+00
          2   -1    0    0  501    0  0.00000000000E+00  0.00000000000E+00  0.56421709214E+02  0.56421709214E+02  0.00000000000E+00 0. -1.
         -2   -1    0    0    0  501 -0.00000000000E+00 -0.00000000000E+00 -0.57703417276E+03  0.57703417276E+03  0.00000000000E+00 0.  1.
         25    2    1    2    0    0 -0.27917017480E+01  0.10720358981E+03 -0.10683055608E+03  0.19631104699E+03  0.12499942477E+03 0.  0.
         23    2    1    2    0    0  0.27917017480E+01 -0.10720358981E+03 -0.41378190747E+03  0.43714483498E+03  0.91540900891E+02 0.  0.
          5    1    4    4  502    0 -0.22691999698E+02 -0.12334176306E+02 -0.25484551867E+02  0.36587035126E+02  0.47000000000E+01 0. -1.
         -5    1    4    4    0  502  0.25483701446E+02 -0.94869413500E+02 -0.38829735560E+03  0.40055779985E+03  0.47000000000E+01 0.  1.
          5    1    3    3  503    0  0.36723883182E+02  0.25712216372E+02  0.12172834223E+02  0.46690786669E+02  0.47000000000E+01 0. -1.
         -5    1    3    3    0  503 -0.39515584930E+02  0.81491373434E+02 -0.11900339030E+03  0.14962026032E+03  0.47000000000E+01 0. -1.
<mgrwt>
<rscale>  0 0.15842278E+03</rscale>
<asrwt>0</asrwt>
<pdfrwt beam="1">  1        2 0.86802631E-02 0.16469748E+03</pdfrwt>
<pdfrwt beam="2">  1       -2 0.88774487E-01 0.16469748E+03</pdfrwt>
<totfact> 0.85050764E+02</totfact>
</mgrwt>
</event>
<event>
 8    1  0.3572165E-004  0.1609100E+03  0.7546771E-02  0.1195305E+00
         -2   -1    0    0    0  501 -0.00000000000E+00  0.00000000000E+00  0.44975588671E+02  0.44975588671E+02  0.00000000000E+00 0.  1.
          2   -1    0    0  501    0  0.00000000000E+00 -0.00000000000E+00 -0.50420964208E+03  0.50420964208E+03  0.00000000000E+00 0. -1.
         25    2    1    2    0    0  0.13356454025E+01  0.10131883710E+03 -0.29424973287E+03  0.33537284037E+03  0.12499898424E+03 0.  0.
         23    2    1    2    0    0 -0.13356454025E+01 -0.10131883710E+03 -0.16498432054E+03  0.21381239039E+03  0.90711749838E+02 0.  0.
          5    1    3    3  502    0 -0.59010528200E+02  0.28426968751E+02 -0.13353410257E+03  0.14880786787E+03  0.47000000000E+01 0. -1.
         -5    1    3    3    0  502  0.60346173603E+02  0.72891868348E+02 -0.16071563031E+03  0.18656497250E+03  0.47000000000E+01 0. -1.
          5    1    4    4  503    0 -0.40293135540E+02 -0.19511407320E+02 -0.48670870739E+02  0.66296119387E+02  0.47000000000E+01 0. -1.
         -5    1    4    4    0  503  0.38957490137E+02 -0.81807429779E+02 -0.11631344980E+03  0.14751627100E+03  0.47000000000E+01 0.  1.
<mgrwt>
<rscale>  0 0.15428432E+03</rscale>
<asrwt>0</asrwt>
<pdfrwt beam="1">  1        2 0.77570714E-01 0.16091003E+03</pdfrwt>
<pdfrwt beam="2">  1       -2 0.69193213E-02 0.16091003E+03</pdfrwt>
<totfact> 0.70820856E+03</totfact>
</mgrwt>
</event>
<event>
 8    1  0.3572165E-004  0.1267359E+03  0.7546771E-02  0.1247518E+00
          2   -1    0    0  501    0  0.00000000000E+00  0.00000000000E+00  0.46505922866E+03  0.46505922866E+03  0.00000000000E+00 0. -1.
         -2   -1    0    0    0  501 -0.00000000000E+00 -0.00000000000E+00 -0.26892430068E+02  0.26892430068E+02  0.00000000000E+00 0.  1.
         25    2    1    2    0    0  0.12065437906E+02 -0.17283399528E+02  0.29567411261E+03  0.32169108871E+03  0.12497073656E+03 0.  0.
         23    2    1    2    0    0 -0.12065437906E+02  0.17283399528E+02  0.14249268598E+03  0.17026057001E+03  0.90775577404E+02 0.  0.
          5    1    3    3  502    0 -0.38980068927E+02 -0.73681056386E+01  0.24732866134E+03  0.25053401261E+03  0.47000000000E+01 0. -1.
         -5    1    4    4    0  503 -0.28437047007E+01  0.51319246069E+02  0.53105187078E+02  0.74054051666E+02  0.47000000000E+01 0.  1.
          5    1    4    4  503    0 -0.92217332053E+01 -0.34035846541E+02  0.89387498897E+02  0.96206518346E+02  0.47000000000E+01 0. -1.
         -5    1    3    3    0  502  0.51045506833E+02 -0.99152938891E+01  0.48345451277E+02  0.71157076106E+02  0.47000000000E+01 0. -1.
<mgrwt>
<rscale>  0 0.11735935E+03</rscale>
<asrwt>0</asrwt>
<pdfrwt beam="1">  1        2 0.71547568E-01 0.12673585E+03</pdfrwt>
<pdfrwt beam="2">  1       -2 0.41372973E-02 0.12673585E+03</pdfrwt>
<totfact> 0.16535009E+04</totfact>
</mgrwt>
</event>
<event>
 8    1  0.3572165E-004  0.2448258E+03  0.7546771E-02  0.1119589E+00
          2   -1    0    0  501    0  0.00000000000E+00  0.00000000000E+00  0.75053574407E+02  0.75053574407E+02  0.00000000000E+00 0. -1.
         -2   -1    0    0    0  501 -0.00000000000E+00 -0.00000000000E+00 -0.80335045778E+03  0.80335045778E+03  0.00000000000E+00 0.  1.
         25    2    1    2    0    0  0.12032028310E+03 -0.17273562586E+03 -0.49767528537E+03  0.55463532093E+03  0.12500033036E+03 0.  0.
         23    2    1    2    0    0 -0.12032028310E+03  0.17273562586E+03 -0.23062159800E+03  0.32376871125E+03  0.85587907763E+02 0.  0.
          5    1    3    3  502    0 -0.12447597545E+02 -0.63993291978E+02 -0.20669771960E+03  0.21678588835E+03  0.47000000000E+01 0.  1.
         -5    1    4    4    0  503 -0.61438135211E+02  0.10947036011E+03 -0.19092538184E+03  0.22854539074E+03  0.47000000000E+01 0.  1.
          5    1    4    4  503    0 -0.58882147892E+02  0.63265265753E+02 -0.39696216160E+02  0.95223320508E+02  0.47000000000E+01 0. -1.
         -5    1    3    3    0  502  0.13276788065E+03 -0.10874233388E+03 -0.29097756577E+03  0.33784943258E+03  0.47000000000E+01 0.  1.
<mgrwt>
<rscale>  0 0.24030674E+03</rscale>
<asrwt>0</asrwt>
<pdfrwt beam="1">  1        2 0.11546704E-01 0.24482575E+03</pdfrwt>
<pdfrwt beam="2">  1       -2 0.12359238E+00 0.24482575E+03</pdfrwt>
<totfact> 0.27702517E+02</totfact>
</mgrwt>
</event>
<event>
 8    1  0.3572165E-004  0.1630588E+03  0.7546771E-02  0.1193316E+00
         -2   -1    0    0    0  501 -0.00000000000E+00  0.00000000000E+00  0.37664698701E+02  0.37664698701E+02  0.00000000000E+00 0.  1.
          2   -1    0    0  501    0  0.00000000000E+00 -0.00000000000E+00 -0.64846970920E+03  0.64846970920E+03  0.00000000000E+00 0. -1.
         25    2    1    2    0    0 -0.10437024074E+03 -0.83560185151E+01 -0.23274625697E+03  0.28418128571E+03  0.12500085125E+03 0.  0.
         23    2    1    2    0    0  0.10437024074E+03  0.83560185151E+01 -0.37805875353E+03  0.40195312219E+03  0.87606627172E+02 0.  0.
          5    1    4    4  502    0  0.49490291880E+02 -0.16563949554E+02 -0.29270242500E+03  0.29735576842E+03  0.47000000000E+01 0. -1.
         -5    1    4    4    0  502  0.54879948861E+02  0.24919968069E+02 -0.85356328531E+02  0.10459735377E+03  0.47000000000E+01 0.  1.
          5    1    3    3  503    0 -0.32917389991E+02 -0.20367512997E+02 -0.20132490302E+03  0.20506632275E+03  0.47000000000E+01 0.  1.
         -5    1    3    3    0  503 -0.71452850750E+02  0.12011494482E+02 -0.31421353954E+02  0.79114962961E+02  0.47000000000E+01 0.  1.
<mgrwt>
<rscale>  0 0.15597602E+03</rscale>
<asrwt>0</asrwt>
<pdfrwt beam="1">  1        2 0.99764567E-01 0.16305883E+03</pdfrwt>
<pdfrwt beam="2">  1       -2 0.57945693E-02 0.16305883E+03</pdfrwt>
<totfact> 0.69847406E+03</totfact>
</mgrwt>
</event>
<event>
 8    1  0.3572165E-004  0.3154880E+03  0.7546771E-02  0.1079161E+00
          1   -1    0    0  501    0  0.00000000000E+00  0.00000000000E+00  0.13102641021E+04  0.13102641021E+04  0.00000000000E+00 0. -1.
         -1   -1    0    0    0  501 -0.00000000000E+00 -0.00000000000E+00 -0.10116980503E+03  0.10116980503E+03  0.00000000000E+00 0.  1.
         25    2    1    2    0    0  0.22814725599E+03  0.17848636855E+03  0.24148727757E+03  0.39730190443E+03  0.12499657538E+03 0.  0.
         23    2    1    2    0    0 -0.22814725599E+03 -0.17848636855E+03  0.96760701954E+03  0.10141320028E+04  0.91059434270E+02 0.  0.
          5    1    4    4  502    0 -0.10105555529E+03 -0.13377011255E+03  0.57925834996E+03  0.60304974443E+03  0.47000000000E+01 0. -1.
         -5    1    3    3    0  503 -0.42524291988E+00  0.55132547634E+02  0.49994762966E+02  0.74574425671E+02  0.47000000000E+01 0. -1.
          5    1    3    3  503    0  0.22857249891E+03  0.12335382092E+03  0.19149251460E+03  0.32272747875E+03  0.47000000000E+01 0. -1.
         -5    1    4    4    0  502 -0.12709170070E+03 -0.44716256001E+02  0.38834866958E+03  0.41108225832E+03  0.47000000000E+01 0.  1.
<mgrwt>
<rscale>  0 0.31248470E+03</rscale>
<asrwt>0</asrwt>
<pdfrwt beam="1">  1        1 0.20157908E+00 0.31548803E+03</pdfrwt>
<pdfrwt beam="2">  1       -1 0.15564586E-01 0.31548803E+03</pdfrwt>
<totfact> 0.29064570E+02</totfact>
</mgrwt>
</event>
<event>
 8    1  0.3572165E-004  0.1251527E+03  0.7546771E-02  0.1250408E+00
         -2   -1    0    0    0  501 -0.00000000000E+00  0.00000000000E+00  0.17574529560E+03  0.17574529560E+03  0.00000000000E+00 0.  1.
          2   -1    0    0  501    0  0.00000000000E+00 -0.00000000000E+00 -0.67223749564E+02  0.67223749564E+02  0.00000000000E+00 0. -1.
         25    2    1    2    0    0  0.39015556618E+01 -0.47702195404E+01  0.73577463340E+02  0.14517864261E+03  0.12500087211E+03 0.  0.
         23    2    1    2    0    0 -0.39015556618E+01  0.47702195404E+01  0.34944082695E+02  0.97790402549E+02  0.91125719663E+02 0.  0.
          5    1    4    4  502    0 -0.49497772522E+01 -0.24860201971E+02 -0.21690907031E+02  0.33691473472E+02  0.47000000000E+01 0. -1.
         -5    1    3    3    0  503 -0.20307147977E+02 -0.16065640288E+02  0.10232469400E+03  0.10565471148E+03  0.47000000000E+01 0. -1.
          5    1    3    3  503    0  0.24208703639E+02  0.11295420748E+02 -0.28747230657E+02  0.39523931133E+02  0.47000000000E+01 0. -1.
         -5    1    4    4    0  502  0.10482215904E+01  0.29630421511E+02  0.56634989726E+02  0.64098929076E+02  0.47000000000E+01 0.  1.
<mgrwt>
<rscale>  0 0.11567462E+03</rscale>
<asrwt>0</asrwt>
<pdfrwt beam="1">  1        2 0.10342115E-01 0.12515269E+03</pdfrwt>
<pdfrwt beam="2">  1       -2 0.27037738E-01 0.12515269E+03</pdfrwt>
<totfact> 0.71227856E+03</totfact>
</mgrwt>
</event>
<event>
 8    1  0.3572165E-004  0.2565992E+03  0.7546771E-02  0.1111413E+00
         -2   -1    0    0    0  501 -0.00000000000E+00  0.00000000000E+00  0.26025617503E+03  0.26025617503E+03  0.00000000000E+00 0.  1.
          2   -1    0    0  501    0  0.00000000000E+00 -0.00000000000E+00 -0.30044311969E+03  0.30044311969E+03  0.00000000000E+00 0. -1.
         25    2    1    2    0    0 -0.20636850430E+03 -0.87347131868E+02 -0.14692656769E+03  0.29568662504E+03  0.12500273167E+03 0.  0.
         23    2    1    2    0    0  0.20636850430E+03  0.87347131868E+02  0.10673962302E+03  0.26501266968E+03  0.92848731595E+02 0.  0.
          5    1    4    4  502    0  0.99008163633E+02  0.71206401591E+02  0.15317850875E+02  0.12300282374E+03  0.47000000000E+01 0. -1.
         -5    1    4    4    0  502  0.10736034066E+03  0.16140730277E+02  0.91421772148E+02  0.14200984594E+03  0.47000000000E+01 0.  1.
          5    1    3    3  503    0 -0.53159215526E+02 -0.38611033438E+02  0.14889370926E+02  0.67531455375E+02  0.47000000000E+01 0. -1.
         -5    1    3    3    0  503 -0.15320928877E+03 -0.48736098430E+02 -0.16181593861E+03  0.22815516966E+03  0.47000000000E+01 0. -1.
<mgrwt>
<rscale>  0 0.25301664E+03</rscale>
<asrwt>0</asrwt>
<pdfrwt beam="1">  1        2 0.46222018E-01 0.25659923E+03</pdfrwt>
<pdfrwt beam="2">  1       -2 0.40039412E-01 0.25659923E+03</pdfrwt>
<totfact> 0.65108609E+02</totfact>
</mgrwt>
</event>
<event>
 8    1  0.3572165E-004  0.1305678E+03  0.7546771E-02  0.1240135E+00
         -2   -1    0    0    0  501 -0.00000000000E+00  0.00000000000E+00  0.34197540657E+02  0.34197540657E+02  0.00000000000E+00 0. -1.
          2   -1    0    0  501    0  0.00000000000E+00 -0.00000000000E+00 -0.38910407376E+03  0.38910407376E+03  0.00000000000E+00 0.  1.
         25    2    1    2    0    0  0.37543531333E+02 -0.39500387078E+01 -0.18012459199E+03  0.22246983750E+03  0.12499136134E+03 0.  0.
         23    2    1    2    0    0 -0.37543531333E+02  0.39500387078E+01 -0.17478194111E+03  0.20083177691E+03  0.91430608263E+02 0.  0.
          5    1    3    3  502    0 -0.17863304345E+02  0.47138141569E+02 -0.45283208252E+02  0.67924671382E+02  0.47000000000E+01 0.  1.
         -5    1    3    3    0  502  0.55406835678E+02 -0.51088180277E+02 -0.13484138373E+03  0.15454516612E+03  0.47000000000E+01 0.  1.
          5    1    4    4  503    0  0.92914922449E+00 -0.39695954789E+02 -0.81742913975E+02  0.90997945746E+02  0.47000000000E+01 0. -1.
         -5    1    4    4    0  503 -0.38472680558E+02  0.43645993497E+02 -0.93039027138E+02  0.10983383116E+03  0.47000000000E+01 0.  1.
<mgrwt>
<rscale>  0 0.12181351E+03</rscale>
<asrwt>0</asrwt>
<pdfrwt beam="1">  1        2 0.59862163E-01 0.13056784E+03</pdfrwt>
<pdfrwt beam="2">  1       -2 0.52611603E-02 0.13056784E+03</pdfrwt>
<totfact> 0.14016365E+04</totfact>
</mgrwt>
</event>
<event>
 8    1  0.3572165E-004  0.1320733E+03  0.7546771E-02  0.1238768E+00
         -1   -1    0    0    0  501 -0.00000000000E+00  0.00000000000E+00  0.11016235319E+03  0.11016235319E+03  0.00000000000E+00 0.  1.
          1   -1    0    0  501    0  0.00000000000E+00 -0.00000000000E+00 -0.15812198301E+03  0.15812198301E+03  0.00000000000E+00 0. -1.
         25    2    1    2    0    0  0.36179675974E+02 -0.22554176791E+02  0.38315622540E+02  0.13751888358E+03  0.12500278623E+03 0.  0.
         23    2    1    2    0    0 -0.36179675974E+02  0.22554176791E+02 -0.86275252353E+02  0.13076545262E+03  0.88535442541E+02 0.  0.
          5    1    4    4  502    0  0.14417272438E+02 -0.21024015914E+02 -0.45548235287E+02  0.52408002513E+02  0.47000000000E+01 0. -1.
         -5    1    4    4    0  502 -0.50596948412E+02  0.43578192705E+02 -0.40727017066E+02  0.78357450106E+02  0.47000000000E+01 0.  1.
          5    1    3    3  503    0  0.72221368685E+01 -0.72942301566E+02  0.26084679967E+02  0.77943820459E+02  0.47000000000E+01 0.  1.
         -5    1    3    3    0  503  0.28957539106E+02  0.50388124776E+02  0.12230942573E+02  0.59575063119E+02  0.47000000000E+01 0.  1.
<mgrwt>
<rscale>  0 0.12266254E+03</rscale>
<asrwt>0</asrwt>
<pdfrwt beam="1">  1        1 0.24326459E-01 0.13207330E+03</pdfrwt>
<pdfrwt beam="2">  1       -1 0.16948054E-01 0.13207330E+03</pdfrwt>
<totfact> 0.49918061E+03</totfact>
</mgrwt>
</event>
<event>
 8    1  0.3572165E-004  0.1256240E+03  0.7546771E-02  0.1252544E+00
          1   -1    0    0  501    0  0.00000000000E+00  0.00000000000E+00  0.13249182418E+04  0.13249182418E+04  0.00000000000E+00 0. -1.
         -1   -1    0    0    0  501 -0.00000000000E+00 -0.00000000000E+00 -0.12195969680E+02  0.12195969680E+02  0.00000000000E+00 0.  1.
         25    2    1    2    0    0  0.12051564172E+02  0.35848916083E+01  0.11045126754E+04  0.11116337725E+04  0.12499320958E+03 0.  0.
         23    2    1    2    0    0 -0.12051564172E+02 -0.35848916083E+01  0.20820959671E+03  0.22548043895E+03  0.85627685595E+02 0.  0.
          5    1    4    4  502    0 -0.45357134679E+02 -0.16906470235E+02  0.14101536756E+03  0.14916608961E+03  0.47000000000E+01 0. -1.
         -5    1    4    4    0  502  0.33305570507E+02  0.13321578627E+02  0.67194229156E+02  0.76314349344E+02  0.47000000000E+01 0.  1.
          5    1    3    3  503    0 -0.10889133166E+02  0.61657044742E+02  0.52006755259E+03  0.52384397834E+03  0.47000000000E+01 0. -1.
         -5    1    3    3    0  503  0.22940697339E+02 -0.58072153133E+02  0.58444512277E+03  0.58778979414E+03  0.47000000000E+01 0. -1.
<mgrwt>
<rscale>  0 0.11445009E+03</rscale>
<asrwt>0</asrwt>
<pdfrwt beam="1">  1        1 0.20383346E+00 0.12562402E+03</pdfrwt>
<pdfrwt beam="2">  1       -1 0.18763041E-02 0.12562402E+03</pdfrwt>
<totfact> 0.68728121E+03</totfact>
</mgrwt>
</event>
<event>
 8    1  0.3572165E-004  0.1489292E+03  0.7546771E-02  0.1208520E+00
         -2   -1    0    0    0  501 -0.00000000000E+00  0.00000000000E+00  0.20714578222E+02  0.20714578222E+02  0.00000000000E+00 0.  1.
          2   -1    0    0  501    0  0.00000000000E+00 -0.00000000000E+00 -0.93449550595E+03  0.93449550595E+03  0.00000000000E+00 0. -1.
         25    2    1    2    0    0  0.33731832981E+02  0.73580047616E+02 -0.46186032611E+03  0.48527814099E+03  0.12501221272E+03 0.  0.
         23    2    1    2    0    0 -0.33731832981E+02 -0.73580047616E+02 -0.45192060161E+03  0.46993194317E+03  0.10025936908E+03 0.  0.
          5    1    3    3  502    0  0.61950665230E+02 -0.37147013892E+01 -0.25769527811E+03  0.26510494203E+03  0.47000000000E+01 0. -1.
         -5    1    3    3    0  502 -0.28218832249E+02  0.77294749005E+02 -0.20416504800E+03  0.22017319896E+03  0.47000000000E+01 0. -1.
          5    1    4    4  503    0 -0.48018524375E+02  0.50659830393E+01 -0.15596157606E+03  0.16333262404E+03  0.47000000000E+01 0.  1.
         -5    1    4    4    0  503  0.14286691394E+02 -0.78646030655E+02 -0.29595902555E+03  0.30659931914E+03  0.47000000000E+01 0. -1.
<mgrwt>
<rscale>  0 0.14363520E+03</rscale>
<asrwt>0</asrwt>
<pdfrwt beam="1">  1        2 0.14376851E+00 0.14892922E+03</pdfrwt>
<pdfrwt beam="2">  1       -2 0.31868588E-02 0.14892922E+03</pdfrwt>
<totfact> 0.10799232E+04</totfact>
</mgrwt>
</event>
<event>
 8    1  0.3572165E-004  0.1386438E+03  0.7546771E-02  0.1223033E+00
          3   -1    0    0  501    0  0.00000000000E+00  0.00000000000E+00  0.65421517849E+02  0.65421517849E+02  0.00000000000E+00 0. -1.
         -3   -1    0    0    0  501 -0.00000000000E+00 -0.00000000000E+00 -0.26813613460E+03  0.26813613460E+03  0.00000000000E+00 0.  1.
         25    2    1    2    0    0  0.34823558210E+02  0.48827378137E+02 -0.66817917995E+02  0.15390492896E+03  0.12500119972E+03 0.  0.
         23    2    1    2    0    0 -0.34823558210E+02 -0.48827378137E+02 -0.13589669876E+03  0.17965272349E+03  0.10104650049E+03 0.  0.
          5    1    4    4  502    0 -0.62104621396E+02 -0.55552452120E+02 -0.74102552470E+02  0.11160796216E+03  0.47000000000E+01 0. -1.
         -5    1    3    3    0  503 -0.30147354428E+02  0.62443129735E+02 -0.48926044004E+02  0.84993265687E+02  0.47000000000E+01 0.  1.
          5    1    3    3  503    0  0.64970912638E+02 -0.13615751598E+02 -0.17891873991E+02  0.68911663277E+02  0.47000000000E+01 0.  1.
         -5    1    4    4    0  502  0.27281063186E+02  0.67250739821E+01 -0.61794146287E+02  0.68044761326E+02  0.47000000000E+01 0.  1.
<mgrwt>
<rscale>  0 0.13302657E+03</rscale>
<asrwt>0</asrwt>
<pdfrwt beam="1">  1        3 0.10064849E-01 0.13864376E+03</pdfrwt>
<pdfrwt beam="2">  1       -3 0.41251713E-01 0.13864376E+03</pdfrwt>
<totfact> 0.98781079E+02</totfact>
</mgrwt>
</event>
<event>
 8    1  0.3572165E-004  0.2040480E+03  0.7546771E-02  0.1150309E+00
          2   -1    0    0  501    0  0.00000000000E+00  0.00000000000E+00  0.10068198009E+03  0.10068198009E+03  0.00000000000E+00 0. -1.
         -2   -1    0    0    0  501 -0.00000000000E+00 -0.00000000000E+00 -0.38310919134E+03  0.38310919134E+03  0.00000000000E+00 0.  1.
         25    2    1    2    0    0 -0.75889173544E+02  0.14230861307E+03 -0.11819267501E+03  0.23580729884E+03  0.12499866297E+03 0.  0.
         23    2    1    2    0    0  0.75889173544E+02 -0.14230861307E+03 -0.16423453625E+03  0.24798387259E+03  0.92261097727E+02 0.  0.
          5    1    4    4  502    0  0.18640826954E+02 -0.11547763770E+03 -0.76904444198E+02  0.14006765785E+03  0.47000000000E+01 0. -1.
         -5    1    3    3    0  503 -0.10414597911E+03  0.80585802609E+02 -0.54466450588E+02  0.14258029593E+03  0.47000000000E+01 0.  1.
          5    1    3    3  503    0  0.28256805569E+02  0.61722810462E+02 -0.63726224423E+02  0.93227002909E+02  0.47000000000E+01 0.  1.
         -5    1    4    4    0  502  0.57248346590E+02 -0.26830975370E+02 -0.87330092047E+02  0.10791621474E+03  0.47000000000E+01 0.  1.
<mgrwt>
<rscale>  0 0.19932547E+03</rscale>
<asrwt>0</asrwt>
<pdfrwt beam="1">  1        2 0.15489536E-01 0.20404797E+03</pdfrwt>
<pdfrwt beam="2">  1       -2 0.58939875E-01 0.20404797E+03</pdfrwt>
<totfact> 0.10215202E+03</totfact>
</mgrwt>
</event>
<event>
 8    1  0.3572165E-004  0.2408309E+03  0.7546771E-02  0.1121509E+00
          2   -1    0    0  501    0  0.00000000000E+00  0.00000000000E+00  0.81259052092E+03  0.81259052092E+03  0.00000000000E+00 0. -1.
         -2   -1    0    0    0  501 -0.00000000000E+00 -0.00000000000E+00 -0.67547145018E+02  0.67547145018E+02  0.00000000000E+00 0.  1.
         25    2    1    2    0    0 -0.10107855361E+03 -0.17933303480E+03  0.37097332162E+03  0.44229031357E+03  0.12498921857E+03 0.  0.
         23    2    1    2    0    0  0.10107855361E+03  0.17933303480E+03  0.37407005429E+03  0.43784735237E+03  0.96977765971E+02 0.  0.
          5    1    4    4  502    0  0.10190050711E+03  0.11008016100E+03  0.30498802615E+03  0.33991343205E+03  0.47000000000E+01 0. -1.
         -5    1    3    3    0  503 -0.44238101556E+02 -0.68213860224E+02  0.44639186132E+02  0.92870271317E+02  0.47000000000E+01 0. -1.
          5    1    3    3  503    0 -0.56840452051E+02 -0.11111917457E+03  0.32633413548E+03  0.34942004225E+03  0.47000000000E+01 0. -1.
         -5    1    4    4    0  502 -0.82195350162E+00  0.69252873801E+02  0.69082028141E+02  0.97933920320E+02  0.47000000000E+01 0.  1.
<mgrwt>
<rscale>  0 0.23744137E+03</rscale>
<asrwt>0</asrwt>
<pdfrwt beam="1">  1        2 0.12501392E+00 0.24083089E+03</pdfrwt>
<pdfrwt beam="2">  1       -2 0.10391869E-01 0.24083089E+03</pdfrwt>
<totfact> 0.21632067E+03</totfact>
</mgrwt>
</event>
<event>
 8    1  0.3572165E-004  0.1438771E+03  0.7546771E-02  0.1218937E+00
          1   -1    0    0  501    0  0.00000000000E+00  0.00000000000E+00  0.48286132746E+03  0.48286132746E+03  0.00000000000E+00 0. -1.
         -1   -1    0    0    0  501 -0.00000000000E+00 -0.00000000000E+00 -0.45244062817E+02  0.45244062817E+02  0.00000000000E+00 0.  1.
         25    2    1    2    0    0  0.64829539796E+02  0.29526603250E+02  0.36532583883E+03  0.39263671796E+03  0.12500373690E+03 0.  0.
         23    2    1    2    0    0 -0.64829539796E+02 -0.29526603250E+02  0.72291425810E+02  0.13546867232E+03  0.89727484114E+02 0.  0.
          5    1    4    4  502    0 -0.60725526360E+01 -0.38768652875E+02 -0.27277454796E+01  0.39615841991E+02  0.47000000000E+01 0. -1.
         -5    1    4    4    0  502 -0.58756987160E+02  0.92420496254E+01  0.75019171290E+02  0.95852830331E+02  0.47000000000E+01 0. -1.
          5    1    3    3  503    0  0.91488663115E+02  0.53795736874E+02  0.29346434213E+03  0.31210185339E+03  0.47000000000E+01 0. -1.
         -5    1    3    3    0  503 -0.26659123319E+02 -0.24269133625E+02  0.71861496704E+02  0.80534864571E+02  0.47000000000E+01 0. -1.
<mgrwt>
<rscale>  0 0.13591242E+03</rscale>
<asrwt>0</asrwt>
<pdfrwt beam="1">  1        1 0.74286355E-01 0.14387711E+03</pdfrwt>
<pdfrwt beam="2">  1       -1 0.69606254E-02 0.14387711E+03</pdfrwt>
<totfact> 0.48770058E+03</totfact>
</mgrwt>
</event>
<event>
 8    1  0.3572165E-004  0.1262415E+03  0.7546771E-02  0.1248816E+00
          1   -1    0    0  501    0  0.00000000000E+00  0.00000000000E+00  0.32856638874E+02  0.32856638874E+02  0.00000000000E+00 0. -1.
         -1   -1    0    0    0  501 -0.00000000000E+00 -0.00000000000E+00 -0.38509927595E+03  0.38509927595E+03  0.00000000000E+00 0.  1.
         25    2    1    2    0    0  0.16634774035E+02 -0.61135144366E+01 -0.15159393483E+03  0.19727550589E+03  0.12499125321E+03 0.  0.
         23    2    1    2    0    0 -0.16634774035E+02  0.61135144366E+01 -0.20064870225E+03  0.22068040894E+03  0.90143498989E+02 0.  0.
          5    1    3    3  502    0  0.49369011729E+02  0.96744729248E+01 -0.15246552550E+03  0.16061980329E+03  0.47000000000E+01 0.  1.
         -5    1    4    4    0  503  0.19114574131E+01  0.32022313287E+02 -0.17890794496E+03  0.18182195958E+03  0.47000000000E+01 0.  1.
          5    1    4    4  503    0 -0.18546231448E+02 -0.25908798851E+02 -0.21740757290E+02  0.38858449356E+02  0.47000000000E+01 0. -1.
         -5    1    3    3    0  502 -0.32734237694E+02 -0.15787987361E+02  0.87159066378E+00  0.36655702594E+02  0.47000000000E+01 0.  1.
<mgrwt>
<rscale>  0 0.11659875E+03</rscale>
<asrwt>0</asrwt>
<pdfrwt beam="1">  1        1 0.50548674E-02 0.12624145E+03</pdfrwt>
<pdfrwt beam="2">  1       -1 0.59246043E-01 0.12624145E+03</pdfrwt>
<totfact> 0.46426703E+03</totfact>
</mgrwt>
</event>
<event>
 8    1  0.3572165E-004  0.1395001E+03  0.7546771E-02  0.1225686E+00
          1   -1    0    0  501    0  0.00000000000E+00  0.00000000000E+00  0.68018594237E+02  0.68018594237E+02  0.00000000000E+00 0. -1.
         -1   -1    0    0    0  501 -0.00000000000E+00 -0.00000000000E+00 -0.25086828823E+03  0.25086828823E+03  0.00000000000E+00 0.  1.
         25    2    1    2    0    0 -0.37231649658E+02 -0.49467135361E+02 -0.52929282410E+02  0.14920386923E+03  0.12500836948E+03 0.  0.
         23    2    1    2    0    0  0.37231649658E+02  0.49467135361E+02 -0.12992041159E+03  0.16968301324E+03  0.89887810174E+02 0.  0.
          5    1    4    4  502    0  0.48099298174E+02  0.32786713867E+01 -0.25165027347E+02  0.54586269081E+02  0.47000000000E+01 0. -1.
         -5    1    4    4    0  502 -0.10867648515E+02  0.46188463975E+02 -0.10475538424E+03  0.11509674416E+03  0.47000000000E+01 0.  1.
          5    1    3    3  503    0 -0.11541882248E+02 -0.62638879527E+02 -0.84660094371E+02  0.10604841278E+03  0.47000000000E+01 0.  1.
         -5    1    3    3    0  503 -0.25689767410E+02  0.13171744166E+02  0.31730811960E+02  0.43155456452E+02  0.47000000000E+01 0.  1.
<mgrwt>
<rscale>  0 0.13119994E+03</rscale>
<asrwt>0</asrwt>
<pdfrwt beam="1">  1        1 0.10464399E-01 0.13950013E+03</pdfrwt>
<pdfrwt beam="2">  1       -1 0.38595121E-01 0.13950013E+03</pdfrwt>
<totfact> 0.38157033E+03</totfact>
</mgrwt>
</event>
<event>
 8    1  0.3572165E-004  0.2023650E+03  0.7546771E-02  0.1151773E+00
          2   -1    0    0  501    0  0.00000000000E+00  0.00000000000E+00  0.17971254645E+04  0.17971254645E+04  0.00000000000E+00 0. -1.
         -2   -1    0    0    0  501 -0.00000000000E+00 -0.00000000000E+00 -0.26764340825E+02  0.26764340825E+02  0.00000000000E+00 0.  1.
         25    2    1    2    0    0  0.14418776301E+03  0.67339042182E+02  0.48648713143E+03  0.52689782931E+03  0.12500774328E+03 0.  0.
         23    2    1    2    0    0 -0.14418776301E+03 -0.67339042182E+02  0.12838739923E+04  0.12969919761E+04  0.92363955557E+02 0.  0.
          5    1    3    3  502    0  0.68117531220E+01 -0.29261929863E+02  0.43101560193E+02  0.52749360290E+02  0.47000000000E+01 0.  1.
         -5    1    3    3    0  502  0.13737600989E+03  0.96600972045E+02  0.44338557124E+03  0.47414846902E+03  0.47000000000E+01 0.  1.
          5    1    4    4  503    0 -0.11824381087E+03 -0.70776229904E+02  0.12205240239E+04  0.12282881814E+04  0.47000000000E+01 0. -1.
         -5    1    4    4    0  503 -0.25943952142E+02  0.34371877224E+01  0.63349968336E+02  0.68703794657E+02  0.47000000000E+01 0.  1.
<mgrwt>
<rscale>  0 0.19760850E+03</rscale>
<asrwt>0</asrwt>
<pdfrwt beam="1">  1        2 0.27648075E+00 0.20236500E+03</pdfrwt>
<pdfrwt beam="2">  1       -2 0.41175923E-02 0.20236500E+03</pdfrwt>
<totfact> 0.25020356E+03</totfact>
</mgrwt>
</event>
<event>
 8    1  0.3572165E-004  0.1668912E+03  0.7546771E-02  0.1188414E+00
          1   -1    0    0  501    0  0.00000000000E+00  0.00000000000E+00  0.47562934407E+03  0.47562934407E+03  0.00000000000E+00 0. -1.
         -1   -1    0    0    0  501 -0.00000000000E+00 -0.00000000000E+00 -0.50212822868E+02  0.50212822868E+02  0.00000000000E+00 0.  1.
         25    2    1    2    0    0 -0.68672439625E+02  0.86668355409E+02  0.21805644308E+03  0.27459293622E+03  0.12500144182E+03 0.  0.
         23    2    1    2    0    0  0.68672439625E+02 -0.86668355409E+02  0.20736007812E+03  0.25124923072E+03  0.88885691464E+02 0.  0.
          5    1    3    3  502    0 -0.35440586710E+02  0.27114885251E+02 -0.12414090308E+01  0.44887451308E+02  0.47000000000E+01 0. -1.
         -5    1    4    4    0  503  0.98596789989E+01 -0.31838864959E+02  0.57528469645E+01  0.34148379757E+02  0.47000000000E+01 0.  1.
          5    1    4    4  503    0  0.58812760626E+02 -0.54829490451E+02  0.20160723116E+03  0.21710085097E+03  0.47000000000E+01 0. -1.
         -5    1    3    3    0  502 -0.33231852915E+02  0.59553470159E+02  0.21929785211E+03  0.22970548491E+03  0.47000000000E+01 0. -1.
<mgrwt>
<rscale>  0 0.16025075E+03</rscale>
<asrwt>0</asrwt>
<pdfrwt beam="1">  1        1 0.73173742E-01 0.16689119E+03</pdfrwt>
<pdfrwt beam="2">  1       -1 0.77250500E-02 0.16689119E+03</pdfrwt>
<totfact> 0.42807359E+03</totfact>
</mgrwt>
</event>
<event>
 8    1  0.3572165E-004  0.1269545E+03  0.7546771E-02  0.1246687E+00
         -2   -1    0    0    0  501 -0.00000000000E+00  0.00000000000E+00  0.35425437607E+02  0.35425437607E+02  0.00000000000E+00 0. -1.
          2   -1    0    0  501    0  0.00000000000E+00 -0.00000000000E+00 -0.53405748149E+03  0.53405748149E+03  0.00000000000E+00 0.  1.
         25    2    1    2    0    0 -0.80777490219E+01 -0.20581247778E+02 -0.44118776157E+03  0.45909048657E+03  0.12501438361E+03 0.  0.
         23    2    1    2    0    0  0.80777490219E+01  0.20581247778E+02 -0.57444282318E+02  0.11039243253E+03  0.91639542777E+02 0.  0.
          5    1    4    4  502    0  0.59908441894E+01  0.40854469870E+02  0.74415236568E+01  0.42219002792E+02  0.47000000000E+01 0. -1.
         -5    1    4    4    0  502  0.20869048325E+01 -0.20273222092E+02 -0.64885805975E+02  0.68173429742E+02  0.47000000000E+01 0.  1.
          5    1    3    3  503    0 -0.50739490312E+01 -0.49028248679E+02 -0.42067353598E+03  0.42357741677E+03  0.47000000000E+01 0. -1.
         -5    1    3    3    0  503 -0.30037999907E+01  0.28447000901E+02 -0.20514225590E+02  0.35513069794E+02  0.47000000000E+01 0. -1.
<mgrwt>
<rscale>  0 0.11784962E+03</rscale>
<asrwt>0</asrwt>
<pdfrwt beam="1">  1        2 0.82162683E-01 0.12695446E+03</pdfrwt>
<pdfrwt beam="2">  1       -2 0.54500678E-02 0.12695446E+03</pdfrwt>
<totfact> 0.94126539E+03</totfact>
</mgrwt>
</event>
<event>
 8    1  0.3572165E-004  0.1501301E+03  0.7546771E-02  0.1209692E+00
         -1   -1    0    0    0  501 -0.00000000000E+00  0.00000000000E+00  0.18921015922E+03  0.18921015922E+03  0.00000000000E+00 0.  1.
          1   -1    0    0  501    0  0.00000000000E+00 -0.00000000000E+00 -0.99079190482E+02  0.99079190482E+02  0.00000000000E+00 0. -1.
         25    2    1    2    0    0 -0.17283026208E+02  0.81329207994E+02  0.62021236881E+02  0.16243668305E+03  0.12500359638E+03 0.  0.
         23    2    1    2    0    0  0.17283026208E+02 -0.81329207994E+02  0.28109731858E+02  0.12585266665E+03  0.90197525523E+02 0.  0.
          5    1    3    3  502    0  0.13763101264E+02  0.99168855452E+02  0.12296068097E+02  0.10098102861E+03  0.47000000000E+01 0. -1.
         -5    1    3    3    0  502 -0.31046127472E+02 -0.17839647459E+02  0.49725168784E+02  0.61455654444E+02  0.47000000000E+01 0. -1.
          5    1    4    4  503    0 -0.65951423006E+01 -0.79505672822E+02 -0.10060273760E+02  0.80547793396E+02  0.47000000000E+01 0. -1.
         -5    1    4    4    0  503  0.23878168509E+02 -0.18235351714E+01  0.38170005618E+02  0.45304873256E+02  0.47000000000E+01 0.  1.
<mgrwt>
<rscale>  0 0.14273757E+03</rscale>
<asrwt>0</asrwt>
<pdfrwt beam="1">  1        1 0.15242952E-01 0.15013008E+03</pdfrwt>
<pdfrwt beam="2">  1       -1 0.29109255E-01 0.15013008E+03</pdfrwt>
<totfact> 0.37899540E+03</totfact>
</mgrwt>
</event>
<event>
 8    1  0.3572165E-004  0.2379914E+03  0.7546771E-02  0.1123828E+00
         -2   -1    0    0    0  501 -0.00000000000E+00  0.00000000000E+00  0.55037499214E+02  0.55037499214E+02  0.00000000000E+00 0.  1.
          2   -1    0    0  501    0  0.00000000000E+00 -0.00000000000E+00 -0.11691710561E+04  0.11691710561E+04  0.00000000000E+00 0. -1.
         25    2    1    2    0    0 -0.15089375268E+03 -0.13507170172E+03 -0.82901386111E+03  0.86249862089E+03  0.12500639950E+03 0.  0.
         23    2    1    2    0    0  0.15089375268E+03  0.13507170172E+03 -0.28511969581E+03  0.36170993446E+03  0.92344715835E+02 0.  0.
          5    1    4    4  502    0  0.10705330328E+03  0.88760475820E+02 -0.25616569219E+03  0.29151635232E+03  0.47000000000E+01 0. -1.
         -5    1    3    3    0  503 -0.50506561360E+02 -0.46850887650E+02 -0.53578849449E+03  0.54021969535E+03  0.47000000000E+01 0.  1.
          5    1    3    3  503    0 -0.10038719132E+03 -0.88220814074E+02 -0.29322536662E+03  0.32227892554E+03  0.47000000000E+01 0.  1.
         -5    1    4    4    0  502  0.43840449405E+02  0.46311225904E+02 -0.28954003617E+02  0.70193582144E+02  0.47000000000E+01 0.  1.
<mgrwt>
<rscale>  0 0.23404066E+03</rscale>
<asrwt>0</asrwt>
<pdfrwt beam="1">  1        2 0.17987248E+00 0.23799136E+03</pdfrwt>
<pdfrwt beam="2">  1       -2 0.84673070E-02 0.23799136E+03</pdfrwt>
<totfact> 0.17996315E+03</totfact>
</mgrwt>
</event>
<event>
 8    1  0.3572165E-004  0.1627074E+03  0.7546771E-02  0.1193119E+00
         -1   -1    0    0    0  501 -0.00000000000E+00  0.00000000000E+00  0.47822345061E+03  0.47822345061E+03  0.00000000000E+00 0.  1.
          1   -1    0    0  501    0  0.00000000000E+00 -0.00000000000E+00 -0.48274269190E+02  0.48274269190E+02  0.00000000000E+00 0. -1.
         25    2    1    2    0    0  0.87226856478E+02 -0.56916654867E+02  0.27007123877E+03  0.31529695381E+03  0.12500265988E+03 0.  0.
         23    2    1    2    0    0 -0.87226856478E+02  0.56916654867E+02  0.15987794265E+03  0.21120076599E+03  0.90536053133E+02 0.  0.
          5    1    4    4  502    0 -0.49326273787E+02 -0.18556939524E+02  0.70453549154E+02  0.88109215628E+02  0.47000000000E+01 0. -1.
         -5    1    4    4    0  502 -0.37900582690E+02  0.75473594391E+02  0.89424393496E+02  0.12309155036E+03  0.47000000000E+01 0.  1.
          5    1    3    3  503    0  0.53373166579E+02 -0.85323339903E+02  0.24349195816E+03  0.26351317032E+03  0.47000000000E+01 0.  1.
         -5    1    3    3    0  503  0.33853689899E+02  0.28406685036E+02  0.26579280605E+02  0.51783783485E+02  0.47000000000E+01 0.  1.
<mgrwt>
<rscale>  0 0.15614480E+03</rscale>
<asrwt>0</asrwt>
<pdfrwt beam="1">  1        1 0.74268110E-02 0.16270739E+03</pdfrwt>
<pdfrwt beam="2">  1       -1 0.73572835E-01 0.16270739E+03</pdfrwt>
<totfact> 0.18302591E+03</totfact>
</mgrwt>
</event>
<event>
 8    1  0.3572165E-004  0.1402215E+03  0.7546771E-02  0.1224588E+00
          2   -1    0    0  501    0  0.00000000000E+00  0.00000000000E+00  0.30715161928E+03  0.30715161928E+03  0.00000000000E+00 0. -1.
         -2   -1    0    0    0  501 -0.00000000000E+00 -0.00000000000E+00 -0.53721701960E+02  0.53721701960E+02  0.00000000000E+00 0.  1.
         25    2    1    2    0    0  0.56818735621E+02  0.28455162057E+02  0.10049741658E+03  0.17251611207E+03  0.12499605281E+03 0.  0.
         23    2    1    2    0    0 -0.56818735621E+02 -0.28455162057E+02  0.15293250075E+03  0.18835720918E+03  0.89733068039E+02 0.  0.
          5    1    3    3  502    0  0.79356351244E+02  0.60402864550E+02  0.62469342099E+02  0.11777285439E+03  0.47000000000E+01 0.  1.
         -5    1    3    3    0  502 -0.22537615623E+02 -0.31947702493E+02  0.38028074479E+02  0.54743257677E+02  0.47000000000E+01 0.  1.
          5    1    4    4  503    0 -0.58971213380E+02  0.38346928255E+01  0.14199873999E+03  0.15387670725E+03  0.47000000000E+01 0. -1.
         -5    1    4    4    0  503  0.21524777590E+01 -0.32289854882E+02  0.10933760760E+02  0.34480501927E+02  0.47000000000E+01 0.  1.
<mgrwt>
<rscale>  0 0.13195162E+03</rscale>
<asrwt>0</asrwt>
<pdfrwt beam="1">  1        2 0.47254094E-01 0.14022153E+03</pdfrwt>
<pdfrwt beam="2">  1       -2 0.82648774E-02 0.14022153E+03</pdfrwt>
<totfact> 0.90967885E+03</totfact>
</mgrwt>
</event>
<event>
 8    1  0.3572165E-004  0.1302265E+03  0.7546771E-02  0.1240419E+00
          2   -1    0    0  501    0  0.00000000000E+00  0.00000000000E+00  0.87532545681E+02  0.87532545681E+02  0.00000000000E+00 0. -1.
         -2   -1    0    0    0  501 -0.00000000000E+00 -0.00000000000E+00 -0.15110324263E+03  0.15110324263E+03  0.00000000000E+00 0.  1.
         25    2    1    2    0    0  0.18852249036E+02 -0.31286874574E+02 -0.45031850116E+02  0.13779263925E+03  0.12499867236E+03 0.  0.
         23    2    1    2    0    0 -0.18852249036E+02  0.31286874574E+02 -0.18538846832E+02  0.10084314906E+03  0.92148662804E+02 0.  0.
          5    1    4    4  502    0 -0.47839240605E+02 -0.55961658865E+01 -0.22818091167E+02  0.53503881156E+02  0.47000000000E+01 0. -1.
         -5    1    3    3    0  503  0.62300475313E+02  0.33340230548E+01  0.51547294464E+01  0.62778389351E+02  0.47000000000E+01 0.  1.
          5    1    3    3  503    0 -0.43448226277E+02 -0.34620897628E+02 -0.50186579563E+02  0.75014249895E+02  0.47000000000E+01 0.  1.
         -5    1    4    4    0  502  0.28986991569E+02  0.36883040460E+02  0.42792443353E+01  0.47339267906E+02  0.47000000000E+01 0.  1.
<mgrwt>
<rscale>  0 0.12163813E+03</rscale>
<asrwt>0</asrwt>
<pdfrwt beam="1">  1        2 0.13466546E-01 0.13022651E+03</pdfrwt>
<pdfrwt beam="2">  1       -2 0.23246652E-01 0.13022651E+03</pdfrwt>
<totfact> 0.67711220E+03</totfact>
</mgrwt>
</event>
<event>
 8    1  0.3572165E-004  0.1765308E+03  0.7546771E-02  0.1177142E+00
          4   -1    0    0  501    0  0.00000000000E+00  0.00000000000E+00  0.63170715557E+02  0.63170715557E+02  0.00000000000E+00 0.  1.
         -4   -1    0    0    0  501 -0.00000000000E+00 -0.00000000000E+00 -0.48414279529E+03  0.48414279529E+03  0.00000000000E+00 0. -1.
         25    2    1    2    0    0 -0.80401857273E+02 -0.95256454357E+02 -0.31188041550E+03  0.35837480772E+03  0.12499943395E+03 0.  0.
         23    2    1    2    0    0  0.80401857273E+02  0.95256454357E+02 -0.10909166423E+03  0.18893870313E+03  0.90876793430E+02 0.  0.
          5    1    4    4  502    0  0.85661203138E+02  0.38468115967E+02 -0.85359451425E+02  0.12698804517E+03  0.47000000000E+01 0. -1.
         -5    1    3    3    0  503 -0.49504006064E+02 -0.42351866692E+02 -0.28307224135E+03  0.29051043192E+03  0.47000000000E+01 0. -1.
          5    1    3    3  503    0 -0.30897851209E+02 -0.52904587665E+02 -0.28808174144E+02  0.67864375801E+02  0.47000000000E+01 0. -1.
         -5    1    4    4    0  502 -0.52593458655E+01  0.56788338390E+02 -0.23732212807E+02  0.61950657952E+02  0.47000000000E+01 0.  1.
<mgrwt>
<rscale>  0 0.17067905E+03</rscale>
<asrwt>0</asrwt>
<pdfrwt beam="1">  1        4 0.97185717E-02 0.17653076E+03</pdfrwt>
<pdfrwt beam="2">  1       -4 0.74483507E-01 0.17653076E+03</pdfrwt>
<totfact> 0.23127499E+02</totfact>
</mgrwt>
</event>
<event>
 8    1  0.3572165E-004  0.1258734E+03  0.7546771E-02  0.1249606E+00
          2   -1    0    0  501    0  0.00000000000E+00  0.00000000000E+00  0.30519979208E+03  0.30519979208E+03  0.00000000000E+00 0. -1.
         -2   -1    0    0    0  501 -0.00000000000E+00 -0.00000000000E+00 -0.88036158488E+02  0.88036158488E+02  0.00000000000E+00 0.  1.
         25    2    1    2    0    0 -0.10881734107E+02 -0.10029160617E+02  0.26268391230E+03  0.29128498978E+03  0.12500044517E+03 0.  0.
         23    2    1    2    0    0  0.10881734107E+02  0.10029160617E+02 -0.45520278710E+02  0.10195096078E+03  0.90016145389E+02 0.  0.
          5    1    4    4  502    0  0.32560578587E+02  0.41174274693E+02 -0.22387309131E+02  0.57260752567E+02  0.47000000000E+01 0. -1.
         -5    1    4    4    0  502 -0.21678844480E+02 -0.31145114076E+02 -0.23132969579E+02  0.44690208215E+02  0.47000000000E+01 0.  1.
          5    1    3    3  503    0 -0.40252813935E+02  0.41400503301E+02  0.18259485546E+03  0.19156529421E+03  0.47000000000E+01 0. -1.
         -5    1    3    3    0  503  0.29371079828E+02 -0.51429663918E+02  0.80089056835E+02  0.99719695575E+02  0.47000000000E+01 0. -1.
<mgrwt>
<rscale>  0 0.11613904E+03</rscale>
<asrwt>0</asrwt>
<pdfrwt beam="1">  1        2 0.46953814E-01 0.12587338E+03</pdfrwt>
<pdfrwt beam="2">  1       -2 0.13544025E-01 0.12587338E+03</pdfrwt>
<totfact> 0.41702780E+03</totfact>
</mgrwt>
</event>
<event>
 8    1  0.3572165E-004  0.1301583E+03  0.7546771E-02  0.1241002E+00
          1   -1    0    0  501    0  0.00000000000E+00  0.00000000000E+00  0.17461855093E+03  0.17461855093E+03  0.00000000000E+00 0. -1.
         -1   -1    0    0    0  501 -0.00000000000E+00 -0.00000000000E+00 -0.77175549368E+02  0.77175549368E+02  0.00000000000E+00 0.  1.
         25    2    1    2    0    0 -0.29354325776E+02 -0.21314388292E+02  0.32565657140E+02  0.13417047635E+03  0.12500086044E+03 0.  0.
         23    2    1    2    0    0  0.29354325776E+02  0.21314388292E+02  0.64877344425E+02  0.11762362395E+03  0.91160668605E+02 0.  0.
          5    1    4    4  502    0 -0.75120034133E-01 -0.22457002292E+02  0.60246679436E+02  0.64467627364E+02  0.47000000000E+01 0. -1.
         -5    1    3    3    0  503 -0.49831698263E+02  0.33834638262E+02  0.43111117142E+02  0.74220208294E+02  0.47000000000E+01 0.  1.
          5    1    3    3  503    0  0.20477372487E+02 -0.55149026554E+02 -0.10545460001E+02  0.59950268060E+02  0.47000000000E+01 0.  1.
         -5    1    4    4    0  502  0.29429445810E+02  0.43771390584E+02  0.46306649889E+01  0.53155996582E+02  0.47000000000E+01 0.  1.
<mgrwt>
<rscale>  0 0.12127915E+03</rscale>
<asrwt>0</asrwt>
<pdfrwt beam="1">  1        1 0.26864392E-01 0.13015834E+03</pdfrwt>
<pdfrwt beam="2">  1       -1 0.11873161E-01 0.13015834E+03</pdfrwt>
<totfact> 0.76716483E+03</totfact>
</mgrwt>
</event>
<event>
 8    1  0.3572165E-004  0.1374260E+03  0.7546771E-02  0.1228746E+00
          2   -1    0    0  501    0  0.00000000000E+00  0.00000000000E+00  0.60037889151E+03  0.60037889151E+03  0.00000000000E+00 0. -1.
         -2   -1    0    0    0  501 -0.00000000000E+00 -0.00000000000E+00 -0.30375042385E+02  0.30375042385E+02  0.00000000000E+00 0.  1.
         25    2    1    2    0    0  0.45142612912E+02  0.34972898193E+02  0.44691293398E+03  0.46756503954E+03  0.12499974614E+03 0.  0.
         23    2    1    2    0    0 -0.45142612912E+02 -0.34972898193E+02  0.12309091515E+03  0.16318889436E+03  0.90654744721E+02 0.  0.
          5    1    4    4  502    0  0.92442283238E+01 -0.48466086074E+02  0.70628766260E+02  0.86284007093E+02  0.47000000000E+01 0. -1.
         -5    1    4    4    0  502 -0.54386841236E+02  0.13493187881E+02  0.52462148890E+02  0.76904887263E+02  0.47000000000E+01 0.  1.
          5    1    3    3  503    0 -0.33958764832E+02 -0.11262652079E+02  0.60797571657E+02  0.70699927582E+02  0.47000000000E+01 0.  1.
         -5    1    3    3    0  503  0.79101377744E+02  0.46235550272E+02  0.38611536232E+03  0.39686511196E+03  0.47000000000E+01 0.  1.
<mgrwt>
<rscale>  0 0.12913404E+03</rscale>
<asrwt>0</asrwt>
<pdfrwt beam="1">  1        2 0.92365974E-01 0.13742596E+03</pdfrwt>
<pdfrwt beam="2">  1       -2 0.46730839E-02 0.13742596E+03</pdfrwt>
<totfact> 0.10453585E+04</totfact>
</mgrwt>
</event>
<event>
 8    1  0.3572165E-004  0.1650242E+03  0.7546771E-02  0.1189861E+00
         -2   -1    0    0    0  501 -0.00000000000E+00  0.00000000000E+00  0.10310673089E+03  0.10310673089E+03  0.00000000000E+00 0.  1.
          2   -1    0    0  501    0  0.00000000000E+00 -0.00000000000E+00 -0.54642329363E+03  0.54642329363E+03  0.00000000000E+00 0. -1.
         25    2    1    2    0    0  0.16881037883E+02 -0.10640857226E+03 -0.47592125555E+03  0.50372017296E+03  0.12500086991E+03 0.  0.
         23    2    1    2    0    0 -0.16881037883E+02  0.10640857226E+03  0.32604692808E+02  0.14580985156E+03  0.92680597379E+02 0.  0.
          5    1    3    3  502    0  0.29450723411E+02 -0.25149854067E+02 -0.27333869331E+02  0.47634973303E+02  0.47000000000E+01 0. -1.
         -5    1    4    4    0  503 -0.36806011931E+02  0.63809607506E+01  0.20842123100E+02  0.43033513332E+02  0.47000000000E+01 0.  1.
          5    1    4    4  503    0  0.19924974049E+02  0.10002761150E+03  0.11762569708E+02  0.10277633823E+03  0.47000000000E+01 0. -1.
         -5    1    3    3    0  502 -0.12569685528E+02 -0.81258718188E+02 -0.44858738621E+03  0.45608519966E+03  0.47000000000E+01 0. -1.
<mgrwt>
<rscale>  0 0.15897275E+03</rscale>
<asrwt>0</asrwt>
<pdfrwt beam="1">  1        2 0.84065123E-01 0.16502415E+03</pdfrwt>
<pdfrwt beam="2">  1       -2 0.15862574E-01 0.16502415E+03</pdfrwt>
<totfact> 0.17365316E+03</totfact>
</mgrwt>
</event>
<event>
 8    1  0.3572165E-004  0.2089710E+03  0.7546771E-02  0.1146445E+00
          1   -1    0    0  501    0  0.00000000000E+00  0.00000000000E+00  0.57945283203E+03  0.57945283203E+03  0.00000000000E+00 0. -1.
         -1   -1    0    0    0  501 -0.00000000000E+00 -0.00000000000E+00 -0.73820768578E+02  0.73820768578E+02  0.00000000000E+00 0.  1.
         25    2    1    2    0    0  0.16073131193E+03 -0.47028978011E+02  0.35145301244E+03  0.40888640586E+03  0.12499037380E+03 0.  0.
         23    2    1    2    0    0 -0.16073131193E+03  0.47028978011E+02  0.15417905102E+03  0.24438719475E+03  0.88924922131E+02 0.  0.
          5    1    3    3  502    0  0.25124898004E+02  0.24068462381E+02  0.15941292435E+03  0.16323333554E+03  0.47000000000E+01 0. -1.
         -5    1    3    3    0  502  0.13560641393E+03 -0.71097440392E+02  0.19204008808E+03  0.24565307032E+03  0.47000000000E+01 0. -1.
          5    1    4    4  503    0 -0.32179923170E+02  0.18840171598E+02  0.90735910859E+02  0.98211990309E+02  0.47000000000E+01 0. -1.
         -5    1    4    4    0  503 -0.12855138876E+03  0.28188806413E+02  0.63443140158E+02  0.14617520444E+03  0.47000000000E+01 0.  1.
<mgrwt>
<rscale>  0 0.20395426E+03</rscale>
<asrwt>0</asrwt>
<pdfrwt beam="1">  1        1 0.89146586E-01 0.20897099E+03</pdfrwt>
<pdfrwt beam="2">  1       -1 0.11357042E-01 0.20897099E+03</pdfrwt>
<totfact> 0.18348282E+03</totfact>
</mgrwt>
</event>
<event>
 8    1  0.3572165E-004  0.1507787E+03  0.7546771E-02  0.1208311E+00
         -1   -1    0    0    0  501 -0.00000000000E+00  0.00000000000E+00  0.32702879527E+03  0.32702879527E+03  0.00000000000E+00 0.  1.
          1   -1    0    0  501    0  0.00000000000E+00 -0.00000000000E+00 -0.71669691034E+02  0.71669691034E+02  0.00000000000E+00 0. -1.
         25    2    1    2    0    0  0.72278798900E+02  0.43488650342E+02  0.22412126232E+03  0.27011949552E+03  0.12497485410E+03 0.  0.
         23    2    1    2    0    0 -0.72278798900E+02 -0.43488650342E+02  0.31237841918E+02  0.12857899079E+03  0.91876365974E+02 0.  0.
          5    1    4    4  502    0 -0.32417201828E+02 -0.68449658846E+02  0.29076202604E+02  0.81263437833E+02  0.47000000000E+01 0. -1.
         -5    1    3    3    0  503  0.10709312948E+03  0.22554980475E+02  0.17104799801E+03  0.20311861842E+03  0.47000000000E+01 0.  1.
          5    1    3    3  503    0 -0.34814330578E+02  0.20933669867E+02  0.53073264312E+02  0.67000877102E+02  0.47000000000E+01 0.  1.
         -5    1    4    4    0  502 -0.39861597072E+02  0.24961008504E+02  0.21616393141E+01  0.47315552952E+02  0.47000000000E+01 0.  1.
<mgrwt>
<rscale>  0 0.14379532E+03</rscale>
<asrwt>0</asrwt>
<pdfrwt beam="1">  1        1 0.11026107E-01 0.15077865E+03</pdfrwt>
<pdfrwt beam="2">  1       -1 0.50312121E-01 0.15077865E+03</pdfrwt>
<totfact> 0.22261183E+03</totfact>
</mgrwt>
</event>
<event>
 8    1  0.3572165E-004  0.1522781E+03  0.7546771E-02  0.1208074E+00
         -1   -1    0    0    0  501 -0.00000000000E+00  0.00000000000E+00  0.17775140654E+02  0.17775140654E+02  0.00000000000E+00 0.  1.
          1   -1    0    0  501    0  0.00000000000E+00 -0.00000000000E+00 -0.10786642546E+04  0.10786642546E+04  0.00000000000E+00 0. -1.
         25    2    1    2    0    0 -0.23534136609E+01 -0.86939761068E+02 -0.50890208918E+03  0.53119671496E+03  0.12499821198E+03 0.  0.
         23    2    1    2    0    0  0.23534136609E+01  0.86939761068E+02 -0.55198702475E+03  0.56524268029E+03  0.85120805387E+02 0.  0.
          5    1    4    4  502    0 -0.39661594662E+02  0.32731512021E+02 -0.19664217483E+03  0.20330919530E+03  0.47000000000E+01 0. -1.
         -5    1    3    3    0  503  0.49581883533E+02 -0.52808642873E+02 -0.14675744133E+03  0.16372828871E+03  0.47000000000E+01 0. -1.
          5    1    3    3  503    0 -0.51935297194E+02 -0.34131118195E+02 -0.36214464785E+03  0.36746842625E+03  0.47000000000E+01 0. -1.
         -5    1    4    4    0  502  0.42015008323E+02  0.54208249047E+02 -0.35534484992E+03  0.36193348499E+03  0.47000000000E+01 0.  1.
<mgrwt>
<rscale>  0 0.14397796E+03</rscale>
<asrwt>0</asrwt>
<pdfrwt beam="1">  1        1 0.16594838E+00 0.15227808E+03</pdfrwt>
<pdfrwt beam="2">  1       -1 0.27346364E-02 0.15227808E+03</pdfrwt>
<totfact> 0.59242219E+03</totfact>
</mgrwt>
</event>
<event>
 8    1  0.3572165E-004  0.1377023E+03  0.7546771E-02  0.1229151E+00
         -1   -1    0    0    0  501 -0.00000000000E+00  0.00000000000E+00  0.26279794512E+03  0.26279794512E+03  0.00000000000E+00 0.  1.
          1   -1    0    0  501    0  0.00000000000E+00 -0.00000000000E+00 -0.11682794380E+03  0.11682794380E+03  0.00000000000E+00 0. -1.
         25    2    1    2    0    0 -0.57129331762E+02  0.85892532879E+01 -0.58405343407E+02  0.14957642118E+03  0.12499754323E+03 0.  0.
         23    2    1    2    0    0  0.57129331762E+02 -0.85892532879E+01  0.20437534473E+03  0.23004946775E+03  0.88407806559E+02 0.  0.
          5    1    3    3  502    0 -0.26765854758E+02 -0.54385429538E+02 -0.41168376545E+01  0.60936231252E+02  0.47000000000E+01 0.  1.
         -5    1    4    4    0  503  0.28784464063E+02 -0.20402274212E+02  0.19408826324E+03  0.19732496571E+03  0.47000000000E+01 0.  1.
          5    1    4    4  503    0  0.28344867699E+02  0.11813020924E+02  0.10287081483E+02  0.32724502038E+02  0.47000000000E+01 0. -1.
         -5    1    3    3    0  502 -0.30363477004E+02  0.62974682826E+02 -0.54288505753E+02  0.88640189924E+02  0.47000000000E+01 0.  1.
<mgrwt>
<rscale>  0 0.12886416E+03</rscale>
<asrwt>0</asrwt>
<pdfrwt beam="1">  1        1 0.17973530E-01 0.13770229E+03</pdfrwt>
<pdfrwt beam="2">  1       -1 0.40430453E-01 0.13770229E+03</pdfrwt>
<totfact> 0.17381712E+03</totfact>
</mgrwt>
</event>
<event>
 8    1  0.3572165E-004  0.1282598E+03  0.7546771E-02  0.1244133E+00
          2   -1    0    0  501    0  0.00000000000E+00  0.00000000000E+00  0.62350784512E+03  0.62350784512E+03  0.00000000000E+00 0. -1.
         -2   -1    0    0    0  501 -0.00000000000E+00 -0.00000000000E+00 -0.27769172515E+02  0.27769172515E+02  0.00000000000E+00 0.  1.
         25    2    1    2    0    0  0.22349105732E+02  0.18054808695E+02  0.16013338746E+03  0.20516644836E+03  0.12500044444E+03 0.  0.
         23    2    1    2    0    0 -0.22349105732E+02 -0.18054808695E+02  0.43560528514E+03  0.44611056927E+03  0.91854324489E+02 0.  0.
          5    1    4    4  502    0  0.23257379420E+02 -0.33976230067E+02  0.28176049713E+03  0.28479177947E+03  0.47000000000E+01 0. -1.
         -5    1    4    4    0  502 -0.45606485152E+02  0.15921421372E+02  0.15384478801E+03  0.16131878981E+03  0.47000000000E+01 0.  1.
          5    1    3    3  503    0  0.50393118446E+02  0.49651138465E+01  0.10030914608E+02  0.51834621539E+02  0.47000000000E+01 0.  1.
         -5    1    3    3    0  503 -0.28044012714E+02  0.13089694849E+02  0.15010247285E+03  0.15333182682E+03  0.47000000000E+01 0.  1.
<mgrwt>
<rscale>  0 0.11937405E+03</rscale>
<asrwt>0</asrwt>
<pdfrwt beam="1">  1        2 0.95924273E-01 0.12825977E+03</pdfrwt>
<pdfrwt beam="2">  1       -2 0.42721808E-02 0.12825977E+03</pdfrwt>
<totfact> 0.11392115E+04</totfact>
</mgrwt>
</event>
<event>
 8    1  0.3572165E-004  0.1380260E+03  0.7546771E-02  0.1227725E+00
         -3   -1    0    0    0  501 -0.00000000000E+00  0.00000000000E+00  0.27966496804E+03  0.27966496804E+03  0.00000000000E+00 0.  1.
          3   -1    0    0  501    0  0.00000000000E+00 -0.00000000000E+00 -0.54727762972E+02  0.54727762972E+02  0.00000000000E+00 0. -1.
         25    2    1    2    0    0 -0.38358897485E+02 -0.44175572124E+02  0.14362582564E+03  0.19919726430E+03  0.12501314381E+03 0.  0.
         23    2    1    2    0    0  0.38358897485E+02  0.44175572124E+02  0.81311379433E+02  0.13519546672E+03  0.90793103298E+02 0.  0.
          5    1    4    4  502    0  0.91325541759E+01 -0.28094282345E+02  0.22393003646E+02  0.37366145888E+02  0.47000000000E+01 0. -1.
         -5    1    3    3    0  503 -0.80123239942E+02 -0.49091464328E+02  0.11256678884E+03  0.14670745516E+03  0.47000000000E+01 0. -1.
          5    1    3    3  503    0  0.41764342457E+02  0.49158922031E+01  0.31059036796E+02  0.52489809141E+02  0.47000000000E+01 0. -1.
         -5    1    4    4    0  502  0.29226343309E+02  0.72269854469E+02  0.58918375787E+02  0.97829320828E+02  0.47000000000E+01 0.  1.
<mgrwt>
<rscale>  0 0.12981867E+03</rscale>
<asrwt>0</asrwt>
<pdfrwt beam="1">  1        3 0.84196560E-02 0.13802598E+03</pdfrwt>
<pdfrwt beam="2">  1       -3 0.43025379E-01 0.13802598E+03</pdfrwt>
<totfact> 0.12196387E+03</totfact>
</mgrwt>
</event>
<event>
 8    1  0.3572165E-004  0.1634261E+03  0.7546771E-02  0.1191821E+00
          2   -1    0    0  501    0  0.00000000000E+00  0.00000000000E+00  0.29071367543E+03  0.29071367543E+03  0.00000000000E+00 0. -1.
         -2   -1    0    0    0  501 -0.00000000000E+00 -0.00000000000E+00 -0.79249737381E+02  0.79249737381E+02  0.00000000000E+00 0.  1.
         25    2    1    2    0    0 -0.10396422110E+03 -0.16568476711E+02  0.11530926775E+03  0.20001081298E+03  0.12500009756E+03 0.  0.
         23    2    1    2    0    0  0.10396422110E+03  0.16568476711E+02  0.96154670300E+02  0.16995259983E+03  0.92493739673E+02 0.  0.
          5    1    4    4  502    0  0.28875269574E+02  0.47330363760E+02  0.57267649335E+02  0.79847468257E+02  0.47000000000E+01 0. -1.
         -5    1    4    4    0  502  0.75088951529E+02 -0.30761887049E+02  0.38887020964E+02  0.90105131574E+02  0.47000000000E+01 0.  1.
          5    1    3    3  503    0 -0.68441580750E+02 -0.28043398925E+02 -0.46800223468E+01  0.74260856499E+02  0.47000000000E+01 0. -1.
         -5    1    3    3    0  503 -0.35522640352E+02  0.11474922213E+02  0.11998929010E+03  0.12574995648E+03  0.47000000000E+01 0. -1.
<mgrwt>
<rscale>  0 0.15726379E+03</rscale>
<asrwt>0</asrwt>
<pdfrwt beam="1">  1        2 0.44725180E-01 0.16342612E+03</pdfrwt>
<pdfrwt beam="2">  1       -2 0.12192267E-01 0.16342612E+03</pdfrwt>
<totfact> 0.52760742E+03</totfact>
</mgrwt>
</event>
<event>
 8    1  0.3572165E-004  0.1369438E+03  0.7546771E-02  0.1228845E+00
         -2   -1    0    0    0  501 -0.00000000000E+00  0.00000000000E+00  0.98941042717E+03  0.98941042717E+03  0.00000000000E+00 0.  1.
          2   -1    0    0  501    0  0.00000000000E+00 -0.00000000000E+00 -0.19241866300E+02  0.19241866300E+02  0.00000000000E+00 0. -1.
         25    2    1    2    0    0  0.50468088256E+02  0.24089820976E+02  0.76098270249E+03  0.77320649749E+03  0.12500506737E+03 0.  0.
         23    2    1    2    0    0 -0.50468088256E+02 -0.24089820976E+02  0.20918585838E+03  0.23544579598E+03  0.92458921097E+02 0.  0.
          5    1    3    3  502    0 -0.41367442982E+02  0.11938570350E+02  0.20325252674E+03  0.20781596287E+03  0.47000000000E+01 0.  1.
         -5    1    4    4    0  503 -0.71470670069E+02  0.11064946309E+01  0.16763999618E+03  0.18230342655E+03  0.47000000000E+01 0.  1.
          5    1    4    4  503    0  0.21002581814E+02 -0.25196315607E+02  0.41545862200E+02  0.53142369433E+02  0.47000000000E+01 0. -1.
         -5    1    3    3    0  502  0.91835531237E+02  0.12151250626E+02  0.55773017575E+03  0.56539053462E+03  0.47000000000E+01 0.  1.
<mgrwt>
<rscale>  0 0.12906801E+03</rscale>
<asrwt>0</asrwt>
<pdfrwt beam="1">  1        2 0.29602879E-02 0.13694384E+03</pdfrwt>
<pdfrwt beam="2">  1       -2 0.15221695E+00 0.13694384E+03</pdfrwt>
<totfact> 0.94396253E+02</totfact>
</mgrwt>
</event>
<event>
 8    1  0.3572165E-004  0.1501609E+03  0.7546771E-02  0.1209592E+00
         -1   -1    0    0    0  501 -0.00000000000E+00  0.00000000000E+00  0.18185303204E+03  0.18185303204E+03  0.00000000000E+00 0.  1.
          1   -1    0    0  501    0  0.00000000000E+00 -0.00000000000E+00 -0.10306284154E+03  0.10306284154E+03  0.00000000000E+00 0. -1.
         25    2    1    2    0    0 -0.59638324488E+02 -0.58030799707E+02  0.32601466726E+02  0.15365916541E+03  0.12499592001E+03 0.  0.
         23    2    1    2    0    0  0.59638324488E+02  0.58030799707E+02  0.46188723774E+02  0.13125670818E+03  0.90391491722E+02 0.  0.
          5    1    3    3  502    0  0.75581379324E+01  0.25499322547E+02  0.37531785044E+02  0.46239223479E+02  0.47000000000E+01 0.  1.
         -5    1    3    3    0  502 -0.67196462421E+02 -0.83530122255E+02 -0.49303183176E+01  0.10741994193E+03  0.47000000000E+01 0.  1.
          5    1    4    4  503    0 -0.99252596433E+01  0.25382368606E+02 -0.16298496540E+02  0.32101501593E+02  0.47000000000E+01 0. -1.
         -5    1    4    4    0  503  0.69563584131E+02  0.32648431101E+02  0.62487220315E+02  0.99155206587E+02  0.47000000000E+01 0.  1.
<mgrwt>
<rscale>  0 0.14281421E+03</rscale>
<asrwt>0</asrwt>
<pdfrwt beam="1">  1        1 0.15855822E-01 0.15016086E+03</pdfrwt>
<pdfrwt beam="2">  1       -1 0.27977389E-01 0.15016086E+03</pdfrwt>
<totfact> 0.38484692E+03</totfact>
</mgrwt>
</event>
<event>
 8    1  0.3572165E-004  0.1747938E+03  0.7546771E-02  0.1177948E+00
         -1   -1    0    0    0  501 -0.00000000000E+00  0.00000000000E+00  0.70151500386E+02  0.70151500386E+02  0.00000000000E+00 0.  1.
          1   -1    0    0  501    0  0.00000000000E+00 -0.00000000000E+00 -0.39261310903E+03  0.39261310903E+03  0.00000000000E+00 0. -1.
         25    2    1    2    0    0 -0.11444053969E+03  0.42802846157E+02 -0.18895785732E+03  0.25740618883E+03  0.12499661372E+03 0.  0.
         23    2    1    2    0    0  0.11444053969E+03 -0.42802846157E+02 -0.13350375132E+03  0.20535842058E+03  0.97057243528E+02 0.  0.
          5    1    4    4  502    0  0.36963809984E+02  0.44358422819E+01 -0.10282047908E+03  0.10945382983E+03  0.47000000000E+01 0. -1.
         -5    1    3    3    0  503 -0.17120169473E+02  0.22877327185E+02 -0.14639329172E+03  0.14922988362E+03  0.47000000000E+01 0.  1.
          5    1    3    3  503    0 -0.97320370222E+02  0.19925518972E+02 -0.42564565595E+02  0.10817630522E+03  0.47000000000E+01 0.  1.
         -5    1    4    4    0  502  0.77476729711E+02 -0.47238688439E+02 -0.30683272241E+02  0.95904590753E+02  0.47000000000E+01 0.  1.
<mgrwt>
<rscale>  0 0.16990427E+03</rscale>
<asrwt>0</asrwt>
<pdfrwt beam="1">  1        1 0.60402016E-01 0.17479380E+03</pdfrwt>
<pdfrwt beam="2">  1       -1 0.10792539E-01 0.17479380E+03</pdfrwt>
<totfact> 0.32917198E+03</totfact>
</mgrwt>
</event>
<event>
 8    1  0.3572165E-004  0.1629333E+03  0.7546771E-02  0.1192936E+00
          2   -1    0    0  501    0  0.00000000000E+00  0.00000000000E+00  0.40326746629E+03  0.40326746629E+03  0.00000000000E+00 0. -1.
         -2   -1    0    0    0  501 -0.00000000000E+00 -0.00000000000E+00 -0.56160588026E+02  0.56160588026E+02  0.00000000000E+00 0.  1.
         25    2    1    2    0    0 -0.23104118424E+02  0.10191855619E+03  0.18315909396E+03  0.24514180772E+03  0.12500423916E+03 0.  0.
         23    2    1    2    0    0  0.23104118424E+02 -0.10191855619E+03  0.16394778431E+03  0.21428624660E+03  0.90102869651E+02 0.  0.
          5    1    3    3  502    0  0.21463285240E+02  0.87207515053E+02  0.47898206655E+02  0.10189284320E+03  0.47000000000E+01 0.  1.
         -5    1    4    4    0  503 -0.17713245310E+02 -0.60357574011E+02  0.33673646757E+02  0.71503848049E+02  0.47000000000E+01 0.  1.
          5    1    4    4  503    0  0.40817363734E+02 -0.41560982176E+02  0.13027413755E+03  0.14278239855E+03  0.47000000000E+01 0. -1.
         -5    1    3    3    0  502 -0.44567403664E+02  0.14711041134E+02  0.13526088730E+03  0.14324896452E+03  0.47000000000E+01 0.  1.
<mgrwt>
<rscale>  0 0.15630213E+03</rscale>
<asrwt>0</asrwt>
<pdfrwt beam="1">  1        2 0.62041147E-01 0.16293328E+03</pdfrwt>
<pdfrwt beam="2">  1       -2 0.86400907E-02 0.16293328E+03</pdfrwt>
<totfact> 0.64111028E+03</totfact>
</mgrwt>
</event>
<event>
 8    1  0.3572165E-004  0.1415940E+03  0.7546771E-02  0.1221739E+00
          3   -1    0    0  501    0  0.00000000000E+00  0.00000000000E+00  0.16294924670E+03  0.16294924670E+03  0.00000000000E+00 0. -1.
         -3   -1    0    0    0  501 -0.00000000000E+00 -0.00000000000E+00 -0.10085517533E+03  0.10085517533E+03  0.00000000000E+00 0.  1.
         25    2    1    2    0    0  0.96164943784E+00  0.66506885685E+02  0.20470045008E+02  0.14306596913E+03  0.12499903267E+03 0.  0.
         23    2    1    2    0    0 -0.96164943784E+00 -0.66506885685E+02  0.41624026366E+02  0.12073845290E+03  0.91766681453E+02 0.  0.
          5    1    4    4  502    0  0.37130492746E+02 -0.17932925362E+02  0.41698078655E+02  0.58830970305E+02  0.47000000000E+01 0. -1.
         -5    1    3    3    0  503 -0.61401220777E+02  0.41156569320E+02  0.89351674177E+01  0.74604961818E+02  0.47000000000E+01 0. -1.
          5    1    3    3  503    0  0.62362870215E+02  0.25350316365E+02  0.11534877591E+02  0.68461007313E+02  0.47000000000E+01 0. -1.
         -5    1    4    4    0  502 -0.38092142183E+02 -0.48573960323E+02 -0.74052289406E-01  0.61907482596E+02  0.47000000000E+01 0.  1.
<mgrwt>
<rscale>  0 0.13392949E+03</rscale>
<asrwt>0</asrwt>
<pdfrwt beam="1">  1        3 0.25069115E-01 0.14159396E+03</pdfrwt>
<pdfrwt beam="2">  1       -3 0.15516181E-01 0.14159396E+03</pdfrwt>
<totfact> 0.12131327E+03</totfact>
</mgrwt>
</event>
<event>
 8    1  0.3572165E-004  0.1509514E+03  0.7546771E-02  0.1208153E+00
         -2   -1    0    0    0  501 -0.00000000000E+00  0.00000000000E+00  0.16533914909E+02  0.16533914909E+02  0.00000000000E+00 0.  1.
          2   -1    0    0  501    0  0.00000000000E+00 -0.00000000000E+00 -0.11757767865E+04  0.11757767865E+04  0.00000000000E+00 0. -1.
         25    2    1    2    0    0 -0.27724021886E+02 -0.79953955089E+02 -0.54410121284E+03  0.56465250291E+03  0.12500025164E+03 0.  0.
         23    2    1    2    0    0  0.27724021886E+02  0.79953955089E+02 -0.61514165879E+03  0.62765819853E+03  0.91620398830E+02 0.  0.
          5    1    3    3  502    0 -0.61272819445E+02 -0.88754555232E+02 -0.31717691259E+03  0.33504479306E+03  0.47000000000E+01 0.  1.
         -5    1    3    3    0  502  0.33548797560E+02  0.88006001427E+01 -0.22692430025E+03  0.22960770985E+03  0.47000000000E+01 0.  1.
          5    1    4    4  503    0 -0.50703868183E+01  0.74215253854E+02 -0.54269209898E+03  0.54778683538E+03  0.47000000000E+01 0. -1.
         -5    1    4    4    0  503  0.32794408704E+02  0.57387012352E+01 -0.72449559808E+02  0.79871363144E+02  0.47000000000E+01 0.  1.
<mgrwt>
<rscale>  0 0.14391747E+03</rscale>
<asrwt>0</asrwt>
<pdfrwt beam="1">  1        2 0.18088883E+00 0.15095138E+03</pdfrwt>
<pdfrwt beam="2">  1       -2 0.25436780E-02 0.15095138E+03</pdfrwt>
<totfact> 0.10866313E+04</totfact>
</mgrwt>
</event>
<event>
 8    1  0.3572165E-004  0.1753191E+03  0.7546771E-02  0.1178435E+00
          1   -1    0    0  501    0  0.00000000000E+00  0.00000000000E+00  0.23791396940E+02  0.23791396940E+02  0.00000000000E+00 0. -1.
         -1   -1    0    0    0  501 -0.00000000000E+00 -0.00000000000E+00 -0.11342204348E+04  0.11342204348E+04  0.00000000000E+00 0.  1.
         25    2    1    2    0    0 -0.10267788152E+03  0.67588347860E+02 -0.61627907847E+03  0.64073138398E+03  0.12500348690E+03 0.  0.
         23    2    1    2    0    0  0.10267788152E+03 -0.67588347860E+02 -0.49414995939E+03  0.51728044776E+03  0.91016191691E+02 0.  0.
          5    1    3    3  502    0 -0.11087614181E+03  0.13981049609E+02 -0.49976463678E+03  0.51212866620E+03  0.47000000000E+01 0.  1.
         -5    1    3    3    0  502  0.81982602842E+01  0.53607298251E+02 -0.11651444169E+03  0.12860271777E+03  0.47000000000E+01 0.  1.
          5    1    4    4  503    0  0.12756427438E+02 -0.43917249997E+02 -0.28025810053E+03  0.28400377497E+03  0.47000000000E+01 0.  1.
         -5    1    4    4    0  503  0.89921454084E+02 -0.23671097862E+02 -0.21389185886E+03  0.23327667278E+03  0.47000000000E+01 0. -1.
<mgrwt>
<rscale>  0 0.16943851E+03</rscale>
<asrwt>0</asrwt>
<pdfrwt beam="1">  1        1 0.36602152E-02 0.17531915E+03</pdfrwt>
<pdfrwt beam="2">  1       -1 0.17449544E+00 0.17531915E+03</pdfrwt>
<totfact> 0.64021418E+02</totfact>
</mgrwt>
</event>
<event>
 8    1  0.3572165E-004  0.1320761E+03  0.7546771E-02  0.1238207E+00
         -2   -1    0    0    0  501 -0.00000000000E+00  0.00000000000E+00  0.22910296068E+02  0.22910296068E+02  0.00000000000E+00 0.  1.
          2   -1    0    0  501    0  0.00000000000E+00 -0.00000000000E+00 -0.66544850679E+03  0.66544850679E+03  0.00000000000E+00 0. -1.
         25    2    1    2    0    0 -0.42030157541E+02  0.72307299594E+01 -0.48001979862E+03  0.49785852432E+03  0.12500114227E+03 0.  0.
         23    2    1    2    0    0  0.42030157541E+02 -0.72307299594E+01 -0.16251841210E+03  0.19050027854E+03  0.89773627827E+02 0.  0.
          5    1    3    3  502    0 -0.39346362927E+02 -0.55329239600E+02 -0.28330819389E+03  0.29136760931E+03  0.47000000000E+01 0. -1.
         -5    1    4    4    0  503  0.50408075377E+02 -0.39905086917E+02 -0.11786372663E+03  0.13434038142E+03  0.47000000000E+01 0.  1.
          5    1    4    4  503    0 -0.83779178360E+01  0.32674356958E+02 -0.44654685467E+02  0.56159897116E+02  0.47000000000E+01 0. -1.
         -5    1    3    3    0  502 -0.26837946139E+01  0.62559969559E+02 -0.19671160474E+03  0.20649091501E+03  0.47000000000E+01 0. -1.
<mgrwt>
<rscale>  0 0.12301343E+03</rscale>
<asrwt>0</asrwt>
<pdfrwt beam="1">  1        2 0.10237668E+00 0.13207613E+03</pdfrwt>
<pdfrwt beam="2">  1       -2 0.35246615E-02 0.13207613E+03</pdfrwt>
<totfact> 0.14082102E+04</totfact>
</mgrwt>
</event>
<event>
 8    1  0.3572165E-004  0.1526359E+03  0.7546771E-02  0.1205814E+00
         -1   -1    0    0    0  501 -0.00000000000E+00  0.00000000000E+00  0.47504215856E+02  0.47504215856E+02  0.00000000000E+00 0.  1.
          1   -1    0    0  501    0  0.00000000000E+00 -0.00000000000E+00 -0.43408221178E+03  0.43408221178E+03  0.00000000000E+00 0. -1.
         25    2    1    2    0    0 -0.48877408793E+01  0.87455190659E+02 -0.26538413629E+03  0.30614777838E+03  0.12500168811E+03 0.  0.
         23    2    1    2    0    0  0.48877408793E+01 -0.87455190659E+02 -0.12119385964E+03  0.17543864926E+03  0.91752207904E+02 0.  0.
          5    1    3    3  502    0  0.26059687127E+02  0.11057734780E+03 -0.19963212904E+03  0.22974232106E+03  0.47000000000E+01 0.  1.
         -5    1    3    3    0  502 -0.30947428006E+02 -0.23122157145E+02 -0.65752007244E+02  0.76405457317E+02  0.47000000000E+01 0.  1.
          5    1    4    4  503    0  0.38257685765E+02 -0.78329913108E+02 -0.10610928262E+03  0.13740631596E+03  0.47000000000E+01 0. -1.
         -5    1    4    4    0  503 -0.33369944886E+02 -0.91252775506E+01 -0.15084577013E+02  0.38032333293E+02  0.47000000000E+01 0.  1.
<mgrwt>
<rscale>  0 0.14573526E+03</rscale>
<asrwt>0</asrwt>
<pdfrwt beam="1">  1        1 0.66781880E-01 0.15263591E+03</pdfrwt>
<pdfrwt beam="2">  1       -1 0.73083407E-02 0.15263591E+03</pdfrwt>
<totfact> 0.52144849E+03</totfact>
</mgrwt>
</event>
<event>
 8    1  0.3572165E-004  0.1456086E+03  0.7546771E-02  0.1215178E+00
         -2   -1    0    0    0  501 -0.00000000000E+00  0.00000000000E+00  0.18939835102E+02  0.18939835102E+02  0.00000000000E+00 0.  1.
          2   -1    0    0  501    0  0.00000000000E+00 -0.00000000000E+00 -0.93224898193E+03  0.93224898193E+03  0.00000000000E+00 0. -1.
         25    2    1    2    0    0  0.70019161951E+02 -0.25977183867E+02 -0.47232512387E+03  0.49425994104E+03  0.12499747819E+03 0.  0.
         23    2    1    2    0    0 -0.70019161951E+02  0.25977183867E+02 -0.44098402296E+03  0.45692887599E+03  0.93485785505E+02 0.  0.
          5    1    3    3  502    0 -0.31130287604E+02  0.72746500842E+01 -0.18508752711E+03  0.18788692884E+03  0.47000000000E+01 0.  1.
         -5    1    4    4    0  503 -0.23086389912E+02 -0.35100302338E+02 -0.16923369224E+03  0.17443378461E+03  0.47000000000E+01 0.  1.
          5    1    4    4  503    0 -0.46932772040E+02  0.61077486204E+02 -0.27175033071E+03  0.28249509138E+03  0.47000000000E+01 0. -1.
         -5    1    3    3    0  502  0.10114944955E+03 -0.33251833951E+02 -0.28723759677E+03  0.30637301220E+03  0.47000000000E+01 0.  1.
<mgrwt>
<rscale>  0 0.13863476E+03</rscale>
<asrwt>0</asrwt>
<pdfrwt beam="1">  1        2 0.14342295E+00 0.14560861E+03</pdfrwt>
<pdfrwt beam="2">  1       -2 0.29138202E-02 0.14560861E+03</pdfrwt>
<totfact> 0.12346305E+04</totfact>
</mgrwt>
</event>
<event>
 8    1  0.3572165E-004  0.1502720E+03  0.7546771E-02  0.1209332E+00
          2   -1    0    0  501    0  0.00000000000E+00  0.00000000000E+00  0.73719658218E+03  0.73719658218E+03  0.00000000000E+00 0. -1.
         -2   -1    0    0    0  501 -0.00000000000E+00 -0.00000000000E+00 -0.30275760277E+02  0.30275760277E+02  0.00000000000E+00 0.  1.
         25    2    1    2    0    0 -0.60504307458E+02 -0.57407756492E+02  0.53646283488E+03  0.55711224821E+03  0.12500104869E+03 0.  0.
         23    2    1    2    0    0  0.60504307458E+02  0.57407756492E+02  0.17045798703E+03  0.21036009425E+03  0.90769059620E+02 0.  0.
          5    1    4    4  502    0  0.64550381903E+02  0.12732891895E+02  0.14319562653E+03  0.15765771721E+03  0.47000000000E+01 0. -1.
         -5    1    4    4    0  502 -0.40460744450E+01  0.44674864597E+02  0.27262360497E+02  0.52702377034E+02  0.47000000000E+01 0.  1.
          5    1    3    3  503    0  0.22922552055E+02 -0.61496588048E+02  0.26528921487E+03  0.27332715061E+03  0.47000000000E+01 0.  1.
         -5    1    3    3    0  503 -0.83426859513E+02  0.40888315558E+01  0.27117362001E+03  0.28378509760E+03  0.47000000000E+01 0.  1.
<mgrwt>
<rscale>  0 0.14301210E+03</rscale>
<asrwt>0</asrwt>
<pdfrwt beam="1">  1        2 0.11341484E+00 0.15027203E+03</pdfrwt>
<pdfrwt beam="2">  1       -2 0.46578098E-02 0.15027203E+03</pdfrwt>
<totfact> 0.83015641E+03</totfact>
</mgrwt>
</event>
<event>
 8    1  0.3572165E-004  0.3625543E+03  0.7546771E-02  0.1058558E+00
         -2   -1    0    0    0  501 -0.00000000000E+00  0.00000000000E+00  0.98360323581E+02  0.98360323581E+02  0.00000000000E+00 0.  1.
          2   -1    0    0  501    0  0.00000000000E+00 -0.00000000000E+00 -0.13700817432E+04  0.13700817432E+04  0.00000000000E+00 0. -1.
         25    2    1    2    0    0 -0.19209263808E+03 -0.28092613523E+03 -0.80988187762E+03  0.88732985017E+03  0.12500612882E+03 0.  0.
         23    2    1    2    0    0  0.19209263808E+03  0.28092613523E+03 -0.46183954198E+03  0.58111221659E+03  0.92609776358E+02 0.  0.
          5    1    4    4  502    0  0.13617862755E+03  0.23268305314E+03 -0.41015154617E+03  0.49084865554E+03  0.47000000000E+01 0. -1.
         -5    1    4    4    0  502  0.55914010524E+02  0.48243082094E+02 -0.51687995806E+02  0.90263561049E+02  0.47000000000E+01 0.  1.
          5    1    3    3  503    0  0.98989661430E+01 -0.41991684892E+02 -0.16395788930E+03  0.16960415854E+03  0.47000000000E+01 0.  1.
         -5    1    3    3    0  503 -0.20199160422E+03 -0.23893445034E+03 -0.64592398832E+03  0.71772569163E+03  0.47000000000E+01 0.  1.
<mgrwt>
<rscale>  0 0.36006460E+03</rscale>
<asrwt>0</asrwt>
<pdfrwt beam="1">  1        2 0.21078180E+00 0.36255428E+03</pdfrwt>
<pdfrwt beam="2">  1       -2 0.15132358E-01 0.36255428E+03</pdfrwt>
<totfact> 0.53859024E+02</totfact>
</mgrwt>
</event>
<event>
 8    1  0.3572165E-004  0.1391648E+03  0.7546771E-02  0.1225759E+00
          1   -1    0    0  501    0  0.00000000000E+00  0.00000000000E+00  0.13886117433E+02  0.13886117433E+02  0.00000000000E+00 0. -1.
         -1   -1    0    0    0  501 -0.00000000000E+00 -0.00000000000E+00 -0.11951367125E+04  0.11951367125E+04  0.00000000000E+00 0.  1.
         25    2    1    2    0    0 -0.61072107744E+02  0.32645755009E+01 -0.50086103214E+03  0.51983517397E+03  0.12500549898E+03 0.  0.
         23    2    1    2    0    0  0.61072107744E+02 -0.32645755009E+01 -0.68038956293E+03  0.68918765598E+03  0.91154857269E+02 0.  0.
          5    1    3    3  502    0  0.21625372776E+01 -0.53032205037E+02 -0.22574671282E+03  0.23194990772E+03  0.47000000000E+01 0. -1.
         -5    1    4    4    0  503  0.43285450771E+02 -0.38860633706E+02 -0.54143822292E+03  0.54457434602E+03  0.47000000000E+01 0.  1.
          5    1    4    4  503    0  0.17786656973E+02  0.35596058205E+02 -0.13895134001E+03  0.14461330996E+03  0.47000000000E+01 0. -1.
         -5    1    3    3    0  502 -0.63234645022E+02  0.56296780537E+02 -0.27511431932E+03  0.28788526625E+03  0.47000000000E+01 0. -1.
<mgrwt>
<rscale>  0 0.13115018E+03</rscale>
<asrwt>0</asrwt>
<pdfrwt beam="1">  1        1 0.21363253E-02 0.13916477E+03</pdfrwt>
<pdfrwt beam="2">  1       -1 0.18386723E+00 0.13916477E+03</pdfrwt>
<totfact> 0.11600290E+03</totfact>
</mgrwt>
</event>
<event>
 8    1  0.3572165E-004  0.1280293E+03  0.7546771E-02  0.1243514E+00
          2   -1    0    0  501    0  0.00000000000E+00  0.00000000000E+00  0.92673002315E+03  0.92673002315E+03  0.00000000000E+00 0. -1.
         -2   -1    0    0    0  501 -0.00000000000E+00 -0.00000000000E+00 -0.15028155567E+02  0.15028155567E+02  0.00000000000E+00 0.  1.
         25    2    1    2    0    0 -0.27654591081E+02  0.10140638092E+01  0.37680786482E+03  0.39796442183E+03  0.12500283725E+03 0.  0.
         23    2    1    2    0    0  0.27654591081E+02 -0.10140638092E+01  0.53489400276E+03  0.54379375688E+03  0.93990696894E+02 0.  0.
          5    1    4    4  502    0  0.50596803121E+02  0.65498050999E+01  0.48935982211E+03  0.49203461456E+03  0.47000000000E+01 0. -1.
         -5    1    3    3    0  503  0.21885676648E+02 -0.14528360980E+02  0.11674405883E+02  0.29127956809E+02  0.47000000000E+01 0.  1.
          5    1    3    3  503    0 -0.49540267729E+02  0.15542424789E+02  0.36513345894E+03  0.36883646502E+03  0.47000000000E+01 0.  1.
         -5    1    4    4    0  502 -0.22942212040E+02 -0.75638689091E+01  0.45534180648E+02  0.51759142317E+02  0.47000000000E+01 0.  1.
<mgrwt>
<rscale>  0 0.11974748E+03</rscale>
<asrwt>0</asrwt>
<pdfrwt beam="1">  1        2 0.14257380E+00 0.12802935E+03</pdfrwt>
<pdfrwt beam="2">  1       -2 0.23120247E-02 0.12802935E+03</pdfrwt>
<totfact> 0.17307249E+04</totfact>
</mgrwt>
</event>
<event>
 8    1  0.3572165E-004  0.2687737E+03  0.7546771E-02  0.1104070E+00
          1   -1    0    0  501    0  0.00000000000E+00  0.00000000000E+00  0.35004907493E+03  0.35004907493E+03  0.00000000000E+00 0. -1.
         -1   -1    0    0    0  501 -0.00000000000E+00 -0.00000000000E+00 -0.21563852549E+03  0.21563852549E+03  0.00000000000E+00 0.  1.
         25    2    1    2    0    0  0.20865997524E+03  0.11434628907E+03 -0.17146677845E+02  0.26932008624E+03  0.12500096481E+03 0.  0.
         23    2    1    2    0    0 -0.20865997524E+03 -0.11434628907E+03  0.15155722728E+03  0.29636751418E+03  0.90829792641E+02 0.  0.
          5    1    3    3  502    0  0.57295377662E+02  0.10139137123E+03 -0.19461265251E+01  0.11657121372E+03  0.47000000000E+01 0. -1.
         -5    1    4    4    0  503 -0.92836940811E+02 -0.39008649321E+02  0.14771108707E+02  0.10188546488E+03  0.47000000000E+01 0.  1.
          5    1    4    4  503    0 -0.11582303442E+03 -0.75337639748E+02  0.13678611857E+03  0.19448204930E+03  0.47000000000E+01 0. -1.
         -5    1    3    3    0  502  0.15136459757E+03  0.12954917843E+02 -0.15200551320E+02  0.15274887252E+03  0.47000000000E+01 0. -1.
<mgrwt>
<rscale>  0 0.26517992E+03</rscale>
<asrwt>0</asrwt>
<pdfrwt beam="1">  1        1 0.53853704E-01 0.26877370E+03</pdfrwt>
<pdfrwt beam="2">  1       -1 0.33175158E-01 0.26877370E+03</pdfrwt>
<totfact> 0.62039368E+02</totfact>
</mgrwt>
</event>
<event>
 8    1  0.3572165E-004  0.1254850E+03  0.7546771E-02  0.1250081E+00
          4   -1    0    0  501    0  0.00000000000E+00  0.00000000000E+00  0.20905476748E+03  0.20905476748E+03  0.00000000000E+00 0. -1.
         -4   -1    0    0    0  501 -0.00000000000E+00 -0.00000000000E+00 -0.56198614856E+02  0.56198614856E+02  0.00000000000E+00 0.  1.
         25    2    1    2    0    0  0.10852977856E+02 -0.15375594685E+01  0.84667712642E+02  0.15137738141E+03  0.12500535517E+03 0.  0.
         23    2    1    2    0    0 -0.10852977856E+02  0.15375594685E+01  0.68188439983E+02  0.11387600093E+03  0.90542415601E+02 0.  0.
          5    1    3    3  502    0 -0.40038323970E+02  0.18839507595E+02  0.85460467903E+02  0.96351315543E+02  0.47000000000E+01 0. -1.
         -5    1    4    4    0  503 -0.41151682399E+02  0.21656179504E+02  0.14648493795E+02  0.48980806909E+02  0.47000000000E+01 0.  1.
          5    1    4    4  503    0  0.30298704543E+02 -0.20118620035E+02  0.53539946187E+02  0.64895194020E+02  0.47000000000E+01 0. -1.
         -5    1    3    3    0  502  0.50891301826E+02 -0.20377067064E+02 -0.79275526153E+00  0.55026065865E+02  0.47000000000E+01 0. -1.
<mgrwt>
<rscale>  0 0.11586354E+03</rscale>
<asrwt>0</asrwt>
<pdfrwt beam="1">  1        4 0.32162271E-01 0.12548502E+03</pdfrwt>
<pdfrwt beam="2">  1       -4 0.86459409E-02 0.12548502E+03</pdfrwt>
<totfact> 0.14608670E+03</totfact>
</mgrwt>
</event>
<event>
 8    1  0.3572165E-004  0.1930110E+03  0.7546771E-02  0.1160297E+00
          2   -1    0    0  501    0  0.00000000000E+00  0.00000000000E+00  0.22309873656E+03  0.22309873656E+03  0.00000000000E+00 0. -1.
         -2   -1    0    0    0  501 -0.00000000000E+00 -0.00000000000E+00 -0.15066786798E+03  0.15066786798E+03  0.00000000000E+00 0.  1.
         25    2    1    2    0    0 -0.66140348318E+02 -0.13135512921E+03  0.39745702239E+02  0.19706078508E+03  0.12499806609E+03 0.  0.
         23    2    1    2    0    0  0.66140348318E+02  0.13135512921E+03  0.32685166342E+02  0.17670581945E+03  0.92346688540E+02 0.  0.
          5    1    4    4  502    0  0.84777850324E+01  0.99604221606E+02  0.44739411377E+02  0.10962015659E+03  0.47000000000E+01 0. -1.
         -5    1    4    4    0  502  0.57662563285E+02  0.31750907606E+02 -0.12054245034E+02  0.67085662863E+02  0.47000000000E+01 0.  1.
          5    1    3    3  503    0 -0.30853268565E+02 -0.21228579402E+02 -0.41161798061E+02  0.55847653345E+02  0.47000000000E+01 0.  1.
         -5    1    3    3    0  503 -0.35287079753E+02 -0.11012654981E+03  0.80907500300E+02  0.14121313174E+03  0.47000000000E+01 0.  1.
<mgrwt>
<rscale>  0 0.18797900E+03</rscale>
<asrwt>0</asrwt>
<pdfrwt beam="1">  1        2 0.34322883E-01 0.19301096E+03</pdfrwt>
<pdfrwt beam="2">  1       -2 0.23179672E-01 0.19301096E+03</pdfrwt>
<totfact> 0.24189748E+03</totfact>
</mgrwt>
</event>
<event>
 8    1  0.3572165E-004  0.1271341E+03  0.7546771E-02  0.1245953E+00
         -1   -1    0    0    0  501 -0.00000000000E+00  0.00000000000E+00  0.24879729628E+02  0.24879729628E+02  0.00000000000E+00 0.  1.
          1   -1    0    0  501    0  0.00000000000E+00 -0.00000000000E+00 -0.57655963756E+03  0.57655963756E+03  0.00000000000E+00 0. -1.
         25    2    1    2    0    0  0.13504253770E+02  0.18858088574E+02 -0.42062387385E+03  0.43941725628E+03  0.12500035798E+03 0.  0.
         23    2    1    2    0    0 -0.13504253770E+02 -0.18858088574E+02 -0.13105603409E+03  0.16202211091E+03  0.92398528005E+02 0.  0.
          5    1    3    3  502    0 -0.55900780044E+02  0.81037040126E+01 -0.19454192632E+03  0.20263074378E+03  0.47000000000E+01 0.  1.
         -5    1    3    3    0  502  0.69405033814E+02  0.10754384561E+02 -0.22608194753E+03  0.23678651250E+03  0.47000000000E+01 0.  1.
          5    1    4    4  503    0 -0.26889706340E+02  0.16085216875E+02 -0.11789500411E+03  0.12207830480E+03  0.47000000000E+01 0. -1.
         -5    1    4    4    0  503  0.13385452570E+02 -0.34943305449E+02 -0.13161029979E+02  0.39943806107E+02  0.47000000000E+01 0.  1.
<mgrwt>
<rscale>  0 0.11828516E+03</rscale>
<asrwt>0</asrwt>
<pdfrwt beam="1">  1        1 0.88701476E-01 0.12713411E+03</pdfrwt>
<pdfrwt beam="2">  1       -1 0.38276510E-02 0.12713411E+03</pdfrwt>
<totfact> 0.92920070E+03</totfact>
</mgrwt>
</event>
<event>
 8    1  0.3572165E-004  0.1285222E+03  0.7546771E-02  0.1244021E+00
         -4   -1    0    0    0  501 -0.00000000000E+00  0.00000000000E+00  0.15858966298E+03  0.15858966298E+03  0.00000000000E+00 0.  1.
          4   -1    0    0  501    0  0.00000000000E+00 -0.00000000000E+00 -0.85413118963E+02  0.85413118963E+02  0.00000000000E+00 0. -1.
         25    2    1    2    0    0  0.25604009125E+02  0.15403828283E+02  0.94210011772E+01  0.12886706137E+03  0.12500048414E+03 0.  0.
         23    2    1    2    0    0 -0.25604009125E+02 -0.15403828283E+02  0.63755542838E+02  0.11513572057E+03  0.91096771070E+02 0.  0.
          5    1    3    3  502    0  0.51214560406E+01 -0.29539035599E+02  0.54146287345E+02  0.62070076279E+02  0.47000000000E+01 0.  1.
         -5    1    4    4    0  503 -0.25466484788E+02  0.24643331361E+02  0.65668456601E+02  0.74768120348E+02  0.47000000000E+01 0.  1.
          5    1    4    4  503    0 -0.13752433675E+00 -0.40047159644E+02 -0.19129137631E+01  0.40367600221E+02  0.47000000000E+01 0. -1.
         -5    1    3    3    0  502  0.20482553084E+02  0.44942863882E+02 -0.44725286168E+02  0.66796985093E+02  0.47000000000E+01 0.  1.
<mgrwt>
<rscale>  0 0.11944192E+03</rscale>
<asrwt>0</asrwt>
<pdfrwt beam="1">  1        4 0.13140480E-01 0.12852223E+03</pdfrwt>
<pdfrwt beam="2">  1       -4 0.24398410E-01 0.12852223E+03</pdfrwt>
<totfact> 0.12129457E+03</totfact>
</mgrwt>
</event>
<event>
 8    1  0.3572165E-004  0.1308141E+03  0.7546771E-02  0.1239525E+00
          1   -1    0    0  501    0  0.00000000000E+00  0.00000000000E+00  0.20983646141E+03  0.20983646141E+03  0.00000000000E+00 0. -1.
         -1   -1    0    0    0  501 -0.00000000000E+00 -0.00000000000E+00 -0.69857259062E+02  0.69857259062E+02  0.00000000000E+00 0.  1.
         25    2    1    2    0    0  0.38534255816E+02 -0.23260524924E+01  0.12124393259E+03  0.17836039333E+03  0.12498815674E+03 0.  0.
         23    2    1    2    0    0 -0.38534255816E+02  0.23260524924E+01  0.18735269754E+02  0.10133332714E+03  0.91799419745E+02 0.  0.
          5    1    4    4  502    0  0.28295616331E+02 -0.67709640957E+01 -0.45611009939E+01  0.29822499906E+02  0.47000000000E+01 0. -1.
         -5    1    4    4    0  502 -0.66829872147E+02  0.90970165881E+01  0.23296370748E+02  0.71510827237E+02  0.47000000000E+01 0.  1.
          5    1    3    3  503    0 -0.44792737505E+02 -0.37167705648E+00  0.59004900688E+02  0.74230692993E+02  0.47000000000E+01 0. -1.
         -5    1    3    3    0  503  0.83326993321E+02 -0.19543754359E+01  0.62239031902E+02  0.10412970033E+03  0.47000000000E+01 0. -1.
<mgrwt>
<rscale>  0 0.12219148E+03</rscale>
<asrwt>0</asrwt>
<pdfrwt beam="1">  1        1 0.32282532E-01 0.13081414E+03</pdfrwt>
<pdfrwt beam="2">  1       -1 0.10747271E-01 0.13081414E+03</pdfrwt>
<totfact> 0.71166366E+03</totfact>
</mgrwt>
</event>
<event>
 8    1  0.3572165E-004  0.1260727E+03  0.7546771E-02  0.1246861E+00
          1   -1    0    0  501    0  0.00000000000E+00  0.00000000000E+00  0.88703159295E+02  0.88703159295E+02  0.00000000000E+00 0. -1.
         -1   -1    0    0    0  501 -0.00000000000E+00 -0.00000000000E+00 -0.17164596366E+03  0.17164596366E+03  0.00000000000E+00 0.  1.
         25    2    1    2    0    0 -0.48450187535E+01 -0.15645128768E+02  0.10403941202E+02  0.12650128567E+03  0.12500435601E+03 0.  0.
         23    2    1    2    0    0  0.48450187535E+01  0.15645128768E+02 -0.93346745572E+02  0.13384783729E+03  0.94516582558E+02 0.  0.
          5    1    4    4  502    0 -0.31762876231E+02  0.26500355521E+02 -0.11159344220E+02  0.43101857415E+02  0.47000000000E+01 0. -1.
         -5    1    4    4    0  502  0.36607894985E+02 -0.10855226753E+02 -0.82187401352E+02  0.90745979879E+02  0.47000000000E+01 0.  1.
          5    1    3    3  503    0 -0.11698191445E+02 -0.41340282214E+02  0.57667873781E+02  0.72066221512E+02  0.47000000000E+01 0. -1.
         -5    1    3    3    0  503  0.68531726917E+01  0.25695153446E+02 -0.47263932578E+02  0.54435064153E+02  0.47000000000E+01 0. -1.
<mgrwt>
<rscale>  0 0.11774676E+03</rscale>
<asrwt>0</asrwt>
<pdfrwt beam="1">  1        1 0.13646640E-01 0.12607273E+03</pdfrwt>
<pdfrwt beam="2">  1       -1 0.26407071E-01 0.12607273E+03</pdfrwt>
<totfact> 0.50909647E+03</totfact>
</mgrwt>
</event>
<event>
 8    1  0.3572165E-004  0.1273832E+03  0.7546771E-02  0.1248159E+00
          2   -1    0    0  501    0  0.00000000000E+00  0.00000000000E+00  0.91606600564E+02  0.91606600564E+02  0.00000000000E+00 0. -1.
         -2   -1    0    0    0  501 -0.00000000000E+00 -0.00000000000E+00 -0.12996413141E+03  0.12996413141E+03  0.00000000000E+00 0.  1.
         25    2    1    2    0    0  0.23291421088E+02 -0.71890044668E+01 -0.17317975792E+02  0.12855503436E+03  0.12502924654E+03 0.  0.
         23    2    1    2    0    0 -0.23291421088E+02  0.71890044668E+01 -0.21039555057E+02  0.93015697621E+02  0.87264454650E+02 0.  0.
          5    1    3    3  502    0  0.36169039310E+02 -0.49513198345E+02  0.25717346141E+02  0.66657543515E+02  0.47000000000E+01 0. -1.
         -5    1    4    4    0  503 -0.53053498550E+02  0.21253939932E+02 -0.12736661120E+02  0.58742797069E+02  0.47000000000E+01 0.  1.
          5    1    4    4  503    0  0.29762077462E+02 -0.14064935465E+02 -0.83028939370E+01  0.34272900552E+02  0.47000000000E+01 0. -1.
         -5    1    3    3    0  502 -0.12877618222E+02  0.42324193878E+02 -0.43035321933E+02  0.61897490840E+02  0.47000000000E+01 0. -1.
<mgrwt>
<rscale>  0 0.11698284E+03</rscale>
<asrwt>0</asrwt>
<pdfrwt beam="1">  1        2 0.14093323E-01 0.12738322E+03</pdfrwt>
<pdfrwt beam="2">  1       -2 0.19994482E-01 0.12738322E+03</pdfrwt>
<totfact> 0.82858389E+03</totfact>
</mgrwt>
</event>
<event>
 8    1  0.3572165E-004  0.1267348E+03  0.7546771E-02  0.1246803E+00
          1   -1    0    0  501    0  0.00000000000E+00  0.00000000000E+00  0.94849086250E+02  0.94849086250E+02  0.00000000000E+00 0. -1.
         -1   -1    0    0    0  501 -0.00000000000E+00 -0.00000000000E+00 -0.12906392317E+03  0.12906392317E+03  0.00000000000E+00 0.  1.
         25    2    1    2    0    0 -0.25614365608E+01 -0.20738282994E+02 -0.18591367191E+02  0.12809112729E+03  0.12500024247E+03 0.  0.
         23    2    1    2    0    0  0.25614365608E+01  0.20738282994E+02 -0.15623469728E+02  0.95821882133E+02  0.92201425967E+02 0.  0.
          5    1    3    3  502    0 -0.43711447597E+02 -0.56781555857E+02 -0.11613383358E+02  0.72744734583E+02  0.47000000000E+01 0.  1.
         -5    1    4    4    0  503 -0.26690581183E+01 -0.27380250161E+02 -0.33865325265E+02  0.43883393504E+02  0.47000000000E+01 0.  1.
          5    1    4    4  503    0  0.52304946791E+01  0.48118533156E+02  0.18241855537E+02  0.51938488629E+02  0.47000000000E+01 0. -1.
         -5    1    3    3    0  502  0.41150011036E+02  0.36043272863E+02 -0.69779838335E+01  0.55346392704E+02  0.47000000000E+01 0.  1.
<mgrwt>
<rscale>  0 0.11778101E+03</rscale>
<asrwt>0</asrwt>
<pdfrwt beam="1">  1        1 0.14592167E-01 0.12673475E+03</pdfrwt>
<pdfrwt beam="2">  1       -1 0.19855988E-01 0.12673475E+03</pdfrwt>
<totfact> 0.74204853E+03</totfact>
</mgrwt>
</event>
<event>
 8    1  0.3572165E-004  0.1404055E+03  0.7546771E-02  0.1223520E+00
         -1   -1    0    0    0  501 -0.00000000000E+00  0.00000000000E+00  0.10478151308E+04  0.10478151308E+04  0.00000000000E+00 0.  1.
          1   -1    0    0  501    0  0.00000000000E+00 -0.00000000000E+00 -0.15450614154E+02  0.15450614154E+02  0.00000000000E+00 0. -1.
         25    2    1    2    0    0 -0.63233063465E+02 -0.96377426162E+01  0.50597259961E+03  0.52509236116E+03  0.12498963876E+03 0.  0.
         23    2    1    2    0    0  0.63233063465E+02  0.96377426162E+01  0.52639191708E+03  0.53817338383E+03  0.91928419457E+02 0.  0.
          5    1    4    4  502    0  0.59515766091E+02  0.39409764926E+02  0.24743637446E+03  0.25756961271E+03  0.47000000000E+01 0. -1.
         -5    1    4    4    0  502  0.37172973737E+01 -0.29772022310E+02  0.27895554262E+03  0.28060377113E+03  0.47000000000E+01 0.  1.
          5    1    3    3  503    0 -0.22234526917E+02  0.56286356941E+02  0.17959080735E+03  0.18957182346E+03  0.47000000000E+01 0.  1.
         -5    1    3    3    0  503 -0.40998536547E+02 -0.65924099557E+02  0.32638179226E+03  0.33552053771E+03  0.47000000000E+01 0.  1.
<mgrwt>
<rscale>  0 0.13268892E+03</rscale>
<asrwt>0</asrwt>
<pdfrwt beam="1">  1        1 0.23770184E-02 0.14040554E+03</pdfrwt>
<pdfrwt beam="2">  1       -1 0.16120227E+00 0.14040554E+03</pdfrwt>
<totfact> 0.14416968E+03</totfact>
</mgrwt>
</event>
<event>
 8    1  0.3572165E-004  0.2246583E+03  0.7546771E-02  0.1133718E+00
          4   -1    0    0  501    0  0.00000000000E+00  0.00000000000E+00  0.82876257106E+03  0.82876257106E+03  0.00000000000E+00 0. -1.
         -4   -1    0    0    0  501 -0.00000000000E+00 -0.00000000000E+00 -0.71502302448E+02  0.71502302448E+02  0.00000000000E+00 0.  1.
         25    2    1    2    0    0 -0.18634205168E+03  0.11165187436E+02  0.18322256309E+03  0.28989973894E+03  0.12499331734E+03 0.  0.
         23    2    1    2    0    0  0.18634205168E+03 -0.11165187436E+02  0.57403770552E+03  0.61036513456E+03  0.90433890190E+02 0.  0.
          5    1    4    4  502    0  0.15383371050E+03  0.27414809671E+02  0.41599090737E+03  0.44439499017E+03  0.47000000000E+01 0. -1.
         -5    1    4    4    0  502  0.32508341178E+02 -0.38579997107E+02  0.15804679815E+03  0.16597014439E+03  0.47000000000E+01 0.  1.
          5    1    3    3  503    0 -0.11758631539E+03 -0.42159059232E+02  0.59167564847E+02  0.13829974177E+03  0.47000000000E+01 0.  1.
         -5    1    3    3    0  503 -0.68755736290E+02  0.53324246668E+02  0.12405499824E+03  0.15159999718E+03  0.47000000000E+01 0.  1.
<mgrwt>
<rscale>  0 0.22022094E+03</rscale>
<asrwt>0</asrwt>
<pdfrwt beam="1">  1        4 0.12750193E+00 0.22465830E+03</pdfrwt>
<pdfrwt beam="2">  1       -4 0.11000355E-01 0.22465830E+03</pdfrwt>
<totfact> 0.55520247E+01</totfact>
</mgrwt>
</event>
<event>
 8    1  0.3572165E-004  0.2057194E+03  0.7546771E-02  0.1149303E+00
          2   -1    0    0  501    0  0.00000000000E+00  0.00000000000E+00  0.11243112174E+04  0.11243112174E+04  0.00000000000E+00 0.  1.
         -2   -1    0    0    0  501 -0.00000000000E+00 -0.00000000000E+00 -0.35448622114E+02  0.35448622114E+02  0.00000000000E+00 0. -1.
         25    2    1    2    0    0 -0.16110675978E+03 -0.27219528431E+02  0.68562886744E+03  0.71582639743E+03  0.12499678638E+03 0.  0.
         23    2    1    2    0    0  0.16110675978E+03  0.27219528431E+02  0.40323372788E+03  0.44393344212E+03  0.88222281556E+02 0.  0.
          5    1    4    4  502    0  0.36181019740E+02  0.36326097269E+02  0.63103155649E+02  0.81441695617E+02  0.47000000000E+01 0. -1.
         -5    1    4    4    0  502  0.12492574004E+03 -0.91065688381E+01  0.34013057223E+03  0.36249174651E+03  0.47000000000E+01 0.  1.
          5    1    3    3  503    0 -0.43912647700E+02  0.41046374184E+02  0.32421634574E+03  0.32977485396E+03  0.47000000000E+01 0. -1.
         -5    1    3    3    0  503 -0.11719411208E+03 -0.68265902615E+02  0.36141252171E+03  0.38605154347E+03  0.47000000000E+01 0. -1.
<mgrwt>
<rscale>  0 0.20051717E+03</rscale>
<asrwt>0</asrwt>
<pdfrwt beam="1">  1        2 0.17297093E+00 0.20571944E+03</pdfrwt>
<pdfrwt beam="2">  1       -2 0.54536350E-02 0.20571944E+03</pdfrwt>
<totfact> 0.37647456E+03</totfact>
</mgrwt>
</event>
<event>
 8    1  0.3572165E-004  0.1997739E+03  0.7546771E-02  0.1154353E+00
          1   -1    0    0  501    0  0.00000000000E+00  0.00000000000E+00  0.82171431098E+03  0.82171431098E+03  0.00000000000E+00 0. -1.
         -1   -1    0    0    0  501 -0.00000000000E+00 -0.00000000000E+00 -0.43935194987E+02  0.43935194987E+02  0.00000000000E+00 0.  1.
         25    2    1    2    0    0 -0.18400740678E+01  0.15582308963E+03  0.42534791298E+03  0.46992600593E+03  0.12500153137E+03 0.  0.
         23    2    1    2    0    0  0.18400740678E+01 -0.15582308963E+03  0.35243120302E+03  0.39572350004E+03  0.90028409318E+02 0.  0.
          5    1    4    4  502    0 -0.73874192760E+00 -0.12753661612E+03  0.34210827815E+03  0.36513873825E+03  0.47000000000E+01 0. -1.
         -5    1    3    3    0  503  0.31504544521E+02  0.92440506010E+02  0.35937728044E+03  0.37244046930E+03  0.47000000000E+01 0.  1.
          5    1    3    3  503    0 -0.33344618589E+02  0.63382583619E+02  0.65970632533E+02  0.97485536629E+02  0.47000000000E+01 0.  1.
         -5    1    4    4    0  502  0.25788159954E+01 -0.28286473514E+02  0.10322924869E+02  0.30584761788E+02  0.47000000000E+01 0.  1.
<mgrwt>
<rscale>  0 0.19462754E+03</rscale>
<asrwt>0</asrwt>
<pdfrwt beam="1">  1        1 0.12641757E+00 0.19977388E+03</pdfrwt>
<pdfrwt beam="2">  1       -1 0.67592614E-02 0.19977388E+03</pdfrwt>
<totfact> 0.24470752E+03</totfact>
</mgrwt>
</event>
<event>
 8    1  0.3572165E-004  0.1850938E+03  0.7546771E-02  0.1168323E+00
         -1   -1    0    0    0  501 -0.00000000000E+00  0.00000000000E+00  0.97485495208E+02  0.97485495208E+02  0.00000000000E+00 0.  1.
          1   -1    0    0  501    0  0.00000000000E+00 -0.00000000000E+00 -0.48099590803E+03  0.48099590803E+03  0.00000000000E+00 0. -1.
         25    2    1    2    0    0 -0.12477125331E+03 -0.55376118246E+02 -0.28076306711E+02  0.18721104568E+03  0.12500126600E+03 0.  0.
         23    2    1    2    0    0  0.12477125331E+03  0.55376118246E+02 -0.35543410611E+03  0.39127035756E+03  0.90137166545E+02 0.  0.
          5    1    4    4  502    0  0.76458788777E+02  0.78361528810E+02 -0.24927175817E+03  0.27229574914E+03  0.47000000000E+01 0. -1.
         -5    1    4    4    0  502  0.48312464530E+02 -0.22985410564E+02 -0.10616234794E+03  0.11897460842E+03  0.47000000000E+01 0.  1.
          5    1    3    3  503    0 -0.10540644190E+03 -0.63819639701E+02  0.28564842600E+02  0.12657608241E+03  0.47000000000E+01 0.  1.
         -5    1    3    3    0  503 -0.19364811406E+02  0.84435214550E+01 -0.56641149311E+02  0.60634963269E+02  0.47000000000E+01 0.  1.
<mgrwt>
<rscale>  0 0.17946416E+03</rscale>
<asrwt>0</asrwt>
<pdfrwt beam="1">  1        1 0.73999370E-01 0.18509375E+03</pdfrwt>
<pdfrwt beam="2">  1       -1 0.14997769E-01 0.18509375E+03</pdfrwt>
<totfact> 0.15195263E+03</totfact>
</mgrwt>
</event>
<event>
 8    1  0.3572165E-004  0.1925470E+03  0.7546771E-02  0.1160114E+00
         -2   -1    0    0    0  501 -0.00000000000E+00  0.00000000000E+00  0.56671139980E+02  0.56671139980E+02  0.00000000000E+00 0.  1.
          2   -1    0    0  501    0  0.00000000000E+00 -0.00000000000E+00 -0.65429521389E+03  0.65429521389E+03  0.00000000000E+00 0. -1.
         25    2    1    2    0    0 -0.11075687563E+03  0.95813332144E+02 -0.20724469812E+03  0.28288637408E+03  0.12500822224E+03 0.  0.
         23    2    1    2    0    0  0.11075687563E+03 -0.95813332144E+02 -0.39037937579E+03  0.42807997979E+03  0.97000680066E+02 0.  0.
          5    1    3    3  502    0 -0.36994319029E+02 -0.29128076419E+02 -0.47914112333E+02  0.67341492684E+02  0.47000000000E+01 0. -1.
         -5    1    3    3    0  502 -0.73762556604E+02  0.12494140856E+03 -0.15933058578E+03  0.21554488140E+03  0.47000000000E+01 0. -1.
          5    1    4    4  503    0  0.66710557834E+02 -0.10631561444E+03 -0.32488167864E+03  0.34831523584E+03  0.47000000000E+01 0. -1.
         -5    1    4    4    0  503  0.44046317800E+02  0.10502282294E+02 -0.65497697148E+02  0.79764743946E+02  0.47000000000E+01 0.  1.
<mgrwt>
<rscale>  0 0.18817880E+03</rscale>
<asrwt>0</asrwt>
<pdfrwt beam="1">  1        2 0.10066080E+00 0.19254697E+03</pdfrwt>
<pdfrwt beam="2">  1       -2 0.87186373E-02 0.19254697E+03</pdfrwt>
<totfact> 0.37064758E+03</totfact>
</mgrwt>
</event>
<event>
 8    1  0.3572165E-004  0.1408142E+03  0.7546771E-02  0.1222461E+00
         -1   -1    0    0    0  501 -0.00000000000E+00  0.00000000000E+00  0.35003175760E+02  0.35003175760E+02  0.00000000000E+00 0.  1.
          1   -1    0    0  501    0  0.00000000000E+00 -0.00000000000E+00 -0.49809414878E+03  0.49809414878E+03  0.00000000000E+00 0. -1.
         25    2    1    2    0    0 -0.56629452468E+01 -0.64590795811E+02 -0.32603679218E+03  0.35514594063E+03  0.12499843774E+03 0.  0.
         23    2    1    2    0    0  0.56629452468E+01  0.64590795811E+02 -0.13705418085E+03  0.17795138392E+03  0.93160113236E+02 0.  0.
          5    1    4    4  502    0  0.16644992752E+02  0.20833936555E+02  0.61229938635E+01  0.27761299500E+02  0.47000000000E+01 0.  1.
         -5    1    3    3    0  503  0.39761681267E+02  0.19729427606E+02 -0.93261627066E+02  0.10339275939E+03  0.47000000000E+01 0. -1.
          5    1    3    3  503    0 -0.45424626514E+02 -0.84320223417E+02 -0.23277516511E+03  0.25175318124E+03  0.47000000000E+01 0. -1.
         -5    1    4    4    0  502 -0.10982047505E+02  0.43756859255E+02 -0.14317717471E+03  0.15019008442E+03  0.47000000000E+01 0. -1.
<mgrwt>
<rscale>  0 0.13342475E+03</rscale>
<asrwt>0</asrwt>
<pdfrwt beam="1">  1        1 0.76629875E-01 0.14081424E+03</pdfrwt>
<pdfrwt beam="2">  1       -1 0.53851036E-02 0.14081424E+03</pdfrwt>
<totfact> 0.68620981E+03</totfact>
</mgrwt>
</event>
<event>
 8    1  0.3572165E-004  0.1683752E+03  0.7546771E-02  0.1186906E+00
          2   -1    0    0  501    0  0.00000000000E+00  0.00000000000E+00  0.39470607597E+03  0.39470607597E+03  0.00000000000E+00 0. -1.
         -2   -1    0    0    0  501 -0.00000000000E+00 -0.00000000000E+00 -0.67298039283E+02  0.67298039283E+02  0.00000000000E+00 0.  1.
         25    2    1    2    0    0  0.80867450472E+02  0.78653962934E+02  0.10748910210E+03  0.19976015942E+03  0.12499689512E+03 0.  0.
         23    2    1    2    0    0 -0.80867450472E+02 -0.78653962934E+02  0.21991893459E+03  0.26224395584E+03  0.87644532920E+02 0.  0.
          5    1    3    3  502    0 -0.24634907582E+02  0.40064697783E+02  0.63188723418E+02  0.78911111051E+02  0.47000000000E+01 0.  1.
         -5    1    3    3    0  502  0.10550235805E+03  0.38589265151E+02  0.44300378681E+02  0.12084904837E+03  0.47000000000E+01 0.  1.
          5    1    4    4  503    0 -0.26315540553E+02  0.14462294511E+02  0.79294187619E+02  0.84919513819E+02  0.47000000000E+01 0. -1.
         -5    1    4    4    0  503 -0.54551909919E+02 -0.93116257444E+02  0.14062474697E+03  0.17732444202E+03  0.47000000000E+01 0.  1.
<mgrwt>
<rscale>  0 0.16159670E+03</rscale>
<asrwt>0</asrwt>
<pdfrwt beam="1">  1        2 0.60724010E-01 0.16837522E+03</pdfrwt>
<pdfrwt beam="2">  1       -2 0.10353545E-01 0.16837522E+03</pdfrwt>
<totfact> 0.49454910E+03</totfact>
</mgrwt>
</event>
<event>
 8    1  0.3572165E-004  0.1889632E+03  0.7546771E-02  0.1164887E+00
          2   -1    0    0  501    0  0.00000000000E+00  0.00000000000E+00  0.13590357038E+04  0.13590357038E+04  0.00000000000E+00 0. -1.
         -2   -1    0    0    0  501 -0.00000000000E+00 -0.00000000000E+00 -0.25644149086E+02  0.25644149086E+02  0.00000000000E+00 0.  1.
         25    2    1    2    0    0  0.10206387140E+03  0.98315827849E+02  0.49295119652E+03  0.52792801244E+03  0.12499627322E+03 0.  0.
         23    2    1    2    0    0 -0.10206387140E+03 -0.98315827849E+02  0.84044035818E+03  0.85675184043E+03  0.87181905096E+02 0.  0.
          5    1    4    4  502    0 -0.19886167293E+02 -0.64810470357E+02  0.22846257502E+03  0.23835497667E+03  0.47000000000E+01 0. -1.
         -5    1    3    3    0  503  0.55214974838E+02  0.69249126841E+02  0.44783478668E+03  0.45653282595E+03  0.47000000000E+01 0. -1.
          5    1    3    3  503    0  0.46848896560E+02  0.29066701008E+02  0.45116409842E+02  0.71395186487E+02  0.47000000000E+01 0. -1.
         -5    1    4    4    0  502 -0.82177704105E+02 -0.33505357492E+02  0.61197778316E+03  0.61839686376E+03  0.47000000000E+01 0.  1.
<mgrwt>
<rscale>  0 0.18304634E+03</rscale>
<asrwt>0</asrwt>
<pdfrwt beam="1">  1        2 0.20908236E+00 0.18896323E+03</pdfrwt>
<pdfrwt beam="2">  1       -2 0.39452548E-02 0.18896323E+03</pdfrwt>
<totfact> 0.45350023E+03</totfact>
</mgrwt>
</event>
<event>
 8    1  0.3572165E-004  0.1309196E+03  0.7546771E-02  0.1234989E+00
          1   -1    0    0  501    0  0.00000000000E+00  0.00000000000E+00  0.63072170846E+02  0.63072170846E+02  0.00000000000E+00 0. -1.
         -1   -1    0    0    0  501 -0.00000000000E+00 -0.00000000000E+00 -0.25778866740E+03  0.25778866740E+03  0.00000000000E+00 0.  1.
         25    2    1    2    0    0  0.28269784918E+02 -0.26689048446E+02 -0.15946581090E+03  0.20632325663E+03  0.12501382059E+03 0.  0.
         23    2    1    2    0    0 -0.28269784918E+02  0.26689048446E+02 -0.35250685661E+02  0.11453758161E+03  0.10180746886E+03 0.  0.
          5    1    4    4  502    0 -0.58208532789E+02 -0.24090367694E+01  0.18656931908E+01  0.58477410670E+02  0.47000000000E+01 0. -1.
         -5    1    4    4    0  502  0.29938747871E+02  0.29098085216E+02 -0.37116378852E+02  0.56060170945E+02  0.47000000000E+01 0.  1.
          5    1    3    3  503    0  0.67083969301E+02  0.11449299207E+02 -0.12300121107E+03  0.14065110491E+03  0.47000000000E+01 0.  1.
         -5    1    3    3    0  503 -0.38814184383E+02 -0.38138347653E+02 -0.36464599830E+02  0.65672151721E+02  0.47000000000E+01 0.  1.
<mgrwt>
<rscale>  0 0.12505135E+03</rscale>
<asrwt>0</asrwt>
<pdfrwt beam="1">  1        1 0.97034107E-02 0.13091960E+03</pdfrwt>
<pdfrwt beam="2">  1       -1 0.39659796E-01 0.13091960E+03</pdfrwt>
<totfact> 0.40065237E+03</totfact>
</mgrwt>
</event>
<event>
 8    1  0.3572165E-004  0.1341460E+03  0.7546771E-02  0.1233221E+00
          1   -1    0    0  501    0  0.00000000000E+00  0.00000000000E+00  0.13180168962E+02  0.13180168962E+02  0.00000000000E+00 0. -1.
         -1   -1    0    0    0  501 -0.00000000000E+00 -0.00000000000E+00 -0.10964789742E+04  0.10964789742E+04  0.00000000000E+00 0.  1.
         25    2    1    2    0    0  0.81338363785E+01 -0.48003605567E+02 -0.66278325764E+03  0.67622245459E+03  0.12499862417E+03 0.  0.
         23    2    1    2    0    0 -0.81338363785E+01  0.48003605567E+02 -0.42051554757E+03  0.43343668854E+03  0.93078095085E+02 0.  0.
          5    1    3    3  502    0  0.58516545513E+02  0.89336492387E+00 -0.39539767095E+03  0.39973290131E+03  0.47000000000E+01 0.  1.
         -5    1    4    4    0  503 -0.34194793079E+02  0.27685331881E+02 -0.37155890481E+03  0.37418427441E+03  0.47000000000E+01 0.  1.
          5    1    4    4  503    0  0.26060956701E+02  0.20318273685E+02 -0.48956642761E+02  0.59252414130E+02  0.47000000000E+01 0. -1.
         -5    1    3    3    0  502 -0.50382709134E+02 -0.48896970490E+02 -0.26738558669E+03  0.27648955328E+03  0.47000000000E+01 0.  1.
<mgrwt>
<rscale>  0 0.12619008E+03</rscale>
<asrwt>0</asrwt>
<pdfrwt beam="1">  1        1 0.20277185E-02 0.13414605E+03</pdfrwt>
<pdfrwt beam="2">  1       -1 0.16868906E+00 0.13414605E+03</pdfrwt>
<totfact> 0.15872035E+03</totfact>
</mgrwt>
</event>
<event>
 8    1  0.3572165E-004  0.2430285E+03  0.7546771E-02  0.1119904E+00
          1   -1    0    0  501    0  0.00000000000E+00  0.00000000000E+00  0.70452430543E+03  0.70452430543E+03  0.00000000000E+00 0. -1.
         -1   -1    0    0    0  501 -0.00000000000E+00 -0.00000000000E+00 -0.16082033442E+03  0.16082033442E+03  0.00000000000E+00 0.  1.
         25    2    1    2    0    0  0.12719366115E+03 -0.16510483514E+03 -0.32080799128E+02  0.24513680056E+03  0.12500015717E+03 0.  0.
         23    2    1    2    0    0 -0.12719366115E+03  0.16510483514E+03  0.57578477014E+03  0.62020783929E+03  0.98447084077E+02 0.  0.
          5    1    4    4  502    0 -0.13267474664E+03  0.12849291614E+03  0.52916884519E+03  0.56049511560E+03  0.47000000000E+01 0. -1.
         -5    1    4    4    0  502  0.54810854884E+01  0.36611918998E+02  0.46615924954E+02  0.59712723687E+02  0.47000000000E+01 0.  1.
          5    1    3    3  503    0  0.36531851586E+02 -0.14158456148E+03 -0.38055663536E+02  0.15116576251E+03  0.47000000000E+01 0.  1.
         -5    1    3    3    0  503  0.90661809565E+02 -0.23520273658E+02  0.59748644078E+01  0.93971038045E+02  0.47000000000E+01 0.  1.
<mgrwt>
<rscale>  0 0.23983364E+03</rscale>
<asrwt>0</asrwt>
<pdfrwt beam="1">  1        1 0.10838835E+00 0.24302854E+03</pdfrwt>
<pdfrwt beam="2">  1       -1 0.24741590E-01 0.24302854E+03</pdfrwt>
<totfact> 0.39928743E+02</totfact>
</mgrwt>
</event>
<event>
 8    1  0.3572165E-004  0.1314599E+03  0.7546771E-02  0.1239440E+00
         -2   -1    0    0    0  501 -0.00000000000E+00  0.00000000000E+00  0.38034668840E+02  0.38034668840E+02  0.00000000000E+00 0. -1.
          2   -1    0    0  501    0  0.00000000000E+00 -0.00000000000E+00 -0.36704119625E+03  0.36704119625E+03  0.00000000000E+00 0.  1.
         25    2    1    2    0    0 -0.31527204630E+02 -0.25747058183E+02 -0.23384494938E+03  0.26826323278E+03  0.12499930429E+03 0.  0.
         23    2    1    2    0    0  0.31527204630E+02  0.25747058183E+02 -0.95161578025E+02  0.13681263231E+03  0.89471195306E+02 0.  0.
          5    1    4    4  502    0 -0.29437630419E+02 -0.65727637595E+00 -0.17784911132E+02  0.34718858865E+02  0.47000000000E+01 0. -1.
         -5    1    4    4    0  502  0.60964835049E+02  0.26404334559E+02 -0.77376666893E+02  0.10209377344E+03  0.47000000000E+01 0.  1.
          5    1    3    3  503    0  0.13092566324E+02 -0.67516824816E+02 -0.14188457018E+03  0.15774428098E+03  0.47000000000E+01 0. -1.
         -5    1    3    3    0  503 -0.44619770954E+02  0.41769766633E+02 -0.91960379204E+02  0.11051895180E+03  0.47000000000E+01 0. -1.
<mgrwt>
<rscale>  0 0.12224417E+03</rscale>
<asrwt>0</asrwt>
<pdfrwt beam="1">  1        2 0.56467874E-01 0.13145989E+03</pdfrwt>
<pdfrwt beam="2">  1       -2 0.58514878E-02 0.13145989E+03</pdfrwt>
<totfact> 0.12711186E+04</totfact>
</mgrwt>
</event>
<event>
 8    1  0.3572165E-004  0.1436682E+03  0.7546771E-02  0.1218818E+00
         -2   -1    0    0    0  501 -0.00000000000E+00  0.00000000000E+00  0.95201081457E+02  0.95201081457E+02  0.00000000000E+00 0.  1.
          2   -1    0    0  501    0  0.00000000000E+00 -0.00000000000E+00 -0.28352543615E+03  0.28352543615E+03  0.00000000000E+00 0. -1.
         25    2    1    2    0    0  0.13352976622E+01  0.70863219239E+02  0.15520748832E+02  0.14450414436E+03  0.12496869701E+03 0.  0.
         23    2    1    2    0    0 -0.13352976622E+01 -0.70863219239E+02 -0.20384510352E+03  0.23422237324E+03  0.91016015277E+02 0.  0.
          5    1    4    4  502    0 -0.20022425867E+02 -0.54285487891E+02 -0.20031813514E+03  0.20855996020E+03  0.47000000000E+01 0. -1.
         -5    1    4    4    0  502  0.18687128205E+02 -0.16577731349E+02 -0.35269683830E+01  0.25662413043E+02  0.47000000000E+01 0.  1.
          5    1    3    3  503    0 -0.55079691607E+01  0.47724208385E+02 -0.53011880835E+02  0.71695796947E+02  0.47000000000E+01 0.  1.
         -5    1    3    3    0  503  0.68432668229E+01  0.23139010854E+02  0.68532629666E+02  0.72808347414E+02  0.47000000000E+01 0.  1.
<mgrwt>
<rscale>  0 0.13599775E+03</rscale>
<asrwt>0</asrwt>
<pdfrwt beam="1">  1        2 0.43619298E-01 0.14366821E+03</pdfrwt>
<pdfrwt beam="2">  1       -2 0.14646320E-01 0.14366821E+03</pdfrwt>
<totfact> 0.39990288E+03</totfact>
</mgrwt>
</event>
<event>
 8    1  0.3572165E-004  0.1310137E+03  0.7546771E-02  0.1239966E+00
         -2   -1    0    0    0  501 -0.00000000000E+00  0.00000000000E+00  0.27461637846E+03  0.27461637846E+03  0.00000000000E+00 0.  1.
          2   -1    0    0  501    0  0.00000000000E+00 -0.00000000000E+00 -0.47860949291E+02  0.47860949291E+02  0.00000000000E+00 0. -1.
         25    2    1    2    0    0  0.35858573531E+02 -0.15864899005E+02  0.13208855500E+03  0.18604292504E+03  0.12500820484E+03 0.  0.
         23    2    1    2    0    0 -0.35858573531E+02  0.15864899005E+02  0.94666874175E+02  0.13643440272E+03  0.90083277377E+02 0.  0.
          5    1    4    4  502    0 -0.18113548467E+02  0.31051518298E+02 -0.25468766483E+01  0.36343830389E+02  0.47000000000E+01 0. -1.
         -5    1    4    4    0  502 -0.17745025063E+02 -0.15186619293E+02  0.97213750823E+02  0.10009057233E+03  0.47000000000E+01 0.  1.
          5    1    3    3  503    0 -0.62311412366E+01  0.24016748572E+02  0.12489929951E+03  0.12742667049E+03  0.47000000000E+01 0.  1.
         -5    1    3    3    0  503  0.42089714767E+02 -0.39881647577E+02  0.71892554843E+01  0.58616254547E+02  0.47000000000E+01 0.  1.
<mgrwt>
<rscale>  0 0.12191794E+03</rscale>
<asrwt>0</asrwt>
<pdfrwt beam="1">  1        2 0.73632231E-02 0.13101368E+03</pdfrwt>
<pdfrwt beam="2">  1       -2 0.42248673E-01 0.13101368E+03</pdfrwt>
<totfact> 0.48067387E+03</totfact>
</mgrwt>
</event>
<event>
 8    1  0.3572165E-004  0.1411100E+03  0.7546771E-02  0.1222955E+00
          2   -1    0    0  501    0  0.00000000000E+00  0.00000000000E+00  0.26464471006E+03  0.26464471006E+03  0.00000000000E+00 0.  1.
         -2   -1    0    0    0  501 -0.00000000000E+00 -0.00000000000E+00 -0.61631194685E+02  0.61631194685E+02  0.00000000000E+00 0. -1.
         25    2    1    2    0    0  0.64250653865E+02 -0.12589418248E+02  0.89673008532E+02  0.16719235107E+03  0.12500157528E+03 0.  0.
         23    2    1    2    0    0 -0.64250653865E+02  0.12589418248E+02  0.11334050684E+03  0.15908355368E+03  0.90414968818E+02 0.  0.
          5    1    4    4  502    0 -0.47679655621E+02  0.43948142319E+02  0.37074549781E+02  0.74842508075E+02  0.47000000000E+01 0. -1.
         -5    1    3    3    0  503  0.24983412745E+02 -0.25912663973E+02 -0.25717642865E+02  0.44487349001E+02  0.47000000000E+01 0. -1.
          5    1    3    3  503    0  0.39267241120E+02  0.13323245725E+02  0.11539065140E+03  0.12270500206E+03  0.47000000000E+01 0. -1.
         -5    1    4    4    0  502 -0.16570998244E+02 -0.31358724072E+02  0.76265957063E+02  0.84241045607E+02  0.47000000000E+01 0.  1.
<mgrwt>
<rscale>  0 0.13308058E+03</rscale>
<asrwt>0</asrwt>
<pdfrwt beam="1">  1        2 0.40714570E-01 0.14111001E+03</pdfrwt>
<pdfrwt beam="2">  1       -2 0.94817224E-02 0.14111001E+03</pdfrwt>
<totfact> 0.86066516E+03</totfact>
</mgrwt>
</event>
<event>
 8    1  0.3572165E-004  0.1395734E+03  0.7546771E-02  0.1225004E+00
         -1   -1    0    0    0  501 -0.00000000000E+00  0.00000000000E+00  0.83487979512E+02  0.83487979512E+02  0.00000000000E+00 0.  1.
          1   -1    0    0  501    0  0.00000000000E+00 -0.00000000000E+00 -0.26122835959E+03  0.26122835959E+03  0.00000000000E+00 0. -1.
         25    2    1    2    0    0  0.55828019406E+02  0.27176301661E+02 -0.50301639179E+01  0.13966398516E+03  0.12500162831E+03 0.  0.
         23    2    1    2    0    0 -0.55828019406E+02 -0.27176301661E+02 -0.17271021616E+03  0.20505235394E+03  0.91445776105E+02 0.  0.
          5    1    3    3  502    0  0.67795777007E+02  0.86959334999E+01 -0.53035721769E+02  0.86641585991E+02  0.47000000000E+01 0.  1.
         -5    1    4    4    0  503 -0.33603916416E+02  0.22682029184E+01 -0.63604639597E+01  0.34596436879E+02  0.47000000000E+01 0.  1.
          5    1    4    4  503    0 -0.22224102991E+02 -0.29444504579E+02 -0.16634975220E+03  0.17045591706E+03  0.47000000000E+01 0. -1.
         -5    1    3    3    0  502 -0.11967757601E+02  0.18480368161E+02  0.48005557851E+02  0.53022399172E+02  0.47000000000E+01 0.  1.
<mgrwt>
<rscale>  0 0.13166653E+03</rscale>
<asrwt>0</asrwt>
<pdfrwt beam="1">  1        1 0.40188978E-01 0.13957337E+03</pdfrwt>
<pdfrwt beam="2">  1       -1 0.12844305E-01 0.13957337E+03</pdfrwt>
<totfact> 0.41395861E+03</totfact>
</mgrwt>
</event>
<event>
 8    1  0.3572165E-004  0.2422395E+03  0.7546771E-02  0.1120950E+00
          2   -1    0    0  501    0  0.00000000000E+00  0.00000000000E+00  0.37177547309E+04  0.37177547309E+04  0.00000000000E+00 0. -1.
         -2   -1    0    0    0  501 -0.00000000000E+00 -0.00000000000E+00 -0.14792662018E+02  0.14792662018E+02  0.00000000000E+00 0.  1.
         25    2    1    2    0    0  0.55384383701E+02  0.19998164990E+03  0.18902842440E+04  0.19057425001E+04  0.12497945143E+03 0.  0.
         23    2    1    2    0    0 -0.55384383701E+02 -0.19998164990E+03  0.18126778249E+04  0.18268048928E+04  0.91406396886E+02 0.  0.
          5    1    4    4  502    0 -0.72965230497E+02 -0.12355409102E+03  0.13365678612E+04  0.13442564026E+04  0.47000000000E+01 0. -1.
         -5    1    4    4    0  502  0.17580846796E+02 -0.76427558873E+02  0.47610996367E+03  0.48254849024E+03  0.47000000000E+01 0.  1.
          5    1    3    3  503    0 -0.30520372109E+02  0.10929386895E+03  0.73631993999E+03  0.74502737328E+03  0.47000000000E+01 0. -1.
         -5    1    3    3    0  503  0.85904755809E+02  0.90687780943E+02  0.11539643040E+04  0.11607151268E+04  0.47000000000E+01 0. -1.
<mgrwt>
<rscale>  0 0.23827042E+03</rscale>
<asrwt>0</asrwt>
<pdfrwt beam="1">  1        2 0.57196152E+00 0.24223945E+03</pdfrwt>
<pdfrwt beam="2">  1       -2 0.22757971E-02 0.24223945E+03</pdfrwt>
<totfact> 0.46423199E+02</totfact>
</mgrwt>
</event>
<event>
 8    1  0.3572165E-004  0.1395313E+03  0.7546771E-02  0.1224640E+00
          1   -1    0    0  501    0  0.00000000000E+00  0.00000000000E+00  0.31400409120E+03  0.31400409120E+03  0.00000000000E+00 0. -1.
         -1   -1    0    0    0  501 -0.00000000000E+00 -0.00000000000E+00 -0.51018472687E+02  0.51018472687E+02  0.00000000000E+00 0.  1.
         25    2    1    2    0    0  0.55991199056E+02  0.26636235464E+02  0.12244360177E+03  0.18563784762E+03  0.12499788576E+03 0.  0.
         23    2    1    2    0    0 -0.55991199056E+02 -0.26636235464E+02  0.14054201675E+03  0.17938471627E+03  0.92640782313E+02 0.  0.
          5    1    3    3  502    0  0.86469898526E+02  0.10042589030E+02  0.12282173223E+03  0.15061595153E+03  0.47000000000E+01 0. -1.
         -5    1    4    4    0  503 -0.74489055035E+02 -0.45098165938E+01  0.12654374803E+03  0.14698424382E+03  0.47000000000E+01 0.  1.
          5    1    4    4  503    0  0.18497855979E+02 -0.22126418870E+02  0.13998268720E+02  0.32400472450E+02  0.47000000000E+01 0. -1.
         -5    1    3    3    0  502 -0.30478699470E+02  0.16593646434E+02 -0.37813046606E+00  0.35021896094E+02  0.47000000000E+01 0. -1.
<mgrwt>
<rscale>  0 0.13191636E+03</rscale>
<asrwt>0</asrwt>
<pdfrwt beam="1">  1        1 0.48308320E-01 0.13953127E+03</pdfrwt>
<pdfrwt beam="2">  1       -1 0.78489960E-02 0.13953127E+03</pdfrwt>
<totfact> 0.69969752E+03</totfact>
</mgrwt>
</event>
<event>
 8    1  0.3572165E-004  0.1257387E+03  0.7546771E-02  0.1248956E+00
          4   -1    0    0  501    0  0.00000000000E+00  0.00000000000E+00  0.31412224872E+03  0.31412224872E+03  0.00000000000E+00 0. -1.
         -4   -1    0    0    0  501 -0.00000000000E+00 -0.00000000000E+00 -0.59974520093E+02  0.59974520093E+02  0.00000000000E+00 0.  1.
         25    2    1    2    0    0  0.25174390391E+01  0.13402276691E+02  0.26789754261E+02  0.12856089193E+03  0.12499701389E+03 0.  0.
         23    2    1    2    0    0 -0.25174390391E+01 -0.13402276691E+02  0.22735797436E+03  0.24553587688E+03  0.91707468652E+02 0.  0.
          5    1    4    4  502    0 -0.23951225080E+02 -0.10557749839E+02  0.22088744719E+03  0.22248254221E+03  0.47000000000E+01 0. -1.
         -5    1    3    3    0  503  0.50870830569E+02 -0.10256177289E+02  0.47678333215E+02  0.70628209899E+02  0.47000000000E+01 0.  1.
          5    1    3    3  503    0 -0.48353391530E+02  0.23658453979E+02 -0.20888578954E+02  0.57932682036E+02  0.47000000000E+01 0.  1.
         -5    1    4    4    0  502  0.21433786041E+02 -0.28445268519E+01  0.64705271743E+01  0.23053334661E+02  0.47000000000E+01 0.  1.
<mgrwt>
<rscale>  0 0.11651721E+03</rscale>
<asrwt>0</asrwt>
<pdfrwt beam="1">  1        4 0.48326499E-01 0.12573867E+03</pdfrwt>
<pdfrwt beam="2">  1       -4 0.92268494E-02 0.12573867E+03</pdfrwt>
<totfact> 0.59001967E+02</totfact>
</mgrwt>
</event>
<event>
 8    1  0.3572165E-004  0.1295723E+03  0.7546771E-02  0.1241522E+00
         -2   -1    0    0    0  501 -0.00000000000E+00  0.00000000000E+00  0.25909230733E+02  0.25909230733E+02  0.00000000000E+00 0.  1.
          2   -1    0    0  501    0  0.00000000000E+00 -0.00000000000E+00 -0.52609882858E+03  0.52609882858E+03  0.00000000000E+00 0. -1.
         25    2    1    2    0    0  0.32728519951E+02  0.96199452830E+01 -0.34181906425E+03  0.36555334775E+03  0.12500111198E+03 0.  0.
         23    2    1    2    0    0 -0.32728519951E+02 -0.96199452830E+01 -0.15837053359E+03  0.18645471156E+03  0.92306197999E+02 0.  0.
          5    1    3    3  502    0  0.23108688701E+02 -0.41886475142E+02 -0.28124815755E+03  0.28532631217E+03  0.47000000000E+01 0.  1.
         -5    1    4    4    0  503  0.10988829021E+02 -0.34891781430E+02 -0.27216137545E+02  0.45836654737E+02  0.47000000000E+01 0.  1.
          5    1    4    4  503    0 -0.43717348972E+02  0.25271836147E+02 -0.13115439605E+03  0.14061805683E+03  0.47000000000E+01 0. -1.
         -5    1    3    3    0  502  0.96198312501E+01  0.51506420425E+02 -0.60570906706E+02  0.80227035576E+02  0.47000000000E+01 0.  1.
<mgrwt>
<rscale>  0 0.12095997E+03</rscale>
<asrwt>0</asrwt>
<pdfrwt beam="1">  1        2 0.80938281E-01 0.12957229E+03</pdfrwt>
<pdfrwt beam="2">  1       -2 0.39860355E-02 0.12957229E+03</pdfrwt>
<totfact> 0.15297644E+04</totfact>
</mgrwt>
</event>
<event>
 8    1  0.3572165E-004  0.1554314E+03  0.7546771E-02  0.1202993E+00
          1   -1    0    0  501    0  0.00000000000E+00  0.00000000000E+00  0.26266226588E+03  0.26266226588E+03  0.00000000000E+00 0. -1.
         -1   -1    0    0    0  501 -0.00000000000E+00 -0.00000000000E+00 -0.77504107719E+02  0.77504107719E+02  0.00000000000E+00 0.  1.
         25    2    1    2    0    0 -0.56027201590E+01  0.92214768459E+02  0.12282423869E+03  0.19810278417E+03  0.12499586189E+03 0.  0.
         23    2    1    2    0    0  0.56027201590E+01 -0.92214768459E+02  0.62333919476E+02  0.14206358944E+03  0.88099897452E+02 0.  0.
          5    1    4    4  502    0  0.31126167316E+02 -0.29654465630E+00  0.21883246174E+02  0.38339179616E+02  0.47000000000E+01 0. -1.
         -5    1    3    3    0  503 -0.43600554835E+02  0.99032658724E+02  0.11584912807E+03  0.15859251669E+03  0.47000000000E+01 0.  1.
          5    1    3    3  503    0  0.37997834676E+02 -0.68178902646E+01  0.69751106160E+01  0.39510267473E+02  0.47000000000E+01 0.  1.
         -5    1    4    4    0  502 -0.25523447157E+02 -0.91918223803E+02  0.40450673302E+02  0.10372440982E+03  0.47000000000E+01 0.  1.
<mgrwt>
<rscale>  0 0.14796739E+03</rscale>
<asrwt>0</asrwt>
<pdfrwt beam="1">  1        1 0.40409579E-01 0.15543140E+03</pdfrwt>
<pdfrwt beam="2">  1       -1 0.11923709E-01 0.15543140E+03</pdfrwt>
<totfact> 0.46403009E+03</totfact>
</mgrwt>
</event>
<event>
 8    1  0.3572165E-004  0.1399590E+03  0.7546771E-02  0.1224517E+00
          2   -1    0    0  501    0  0.00000000000E+00  0.00000000000E+00  0.40873296522E+03  0.40873296522E+03  0.00000000000E+00 0. -1.
         -2   -1    0    0    0  501 -0.00000000000E+00 -0.00000000000E+00 -0.50856825441E+02  0.50856825441E+02  0.00000000000E+00 0.  1.
         25    2    1    2    0    0  0.57007250271E+02  0.26707083950E+02  0.81750083537E+02  0.16208513469E+03  0.12500167924E+03 0.  0.
         23    2    1    2    0    0 -0.57007250271E+02 -0.26707083950E+02  0.27612605624E+03  0.29750465597E+03  0.91106127519E+02 0.  0.
          5    1    3    3  502    0 -0.11958985706E+02 -0.28177228425E+02 -0.12100991211E+02  0.33249022980E+02  0.47000000000E+01 0. -1.
         -5    1    3    3    0  502  0.68966235977E+02  0.54884312375E+02  0.93851074748E+02  0.12883611171E+03  0.47000000000E+01 0. -1.
          5    1    4    4  503    0 -0.28140576343E+02  0.26898662079E+02  0.17527001710E+03  0.17960261399E+03  0.47000000000E+01 0. -1.
         -5    1    4    4    0  503 -0.28866673928E+02 -0.53605746030E+02  0.10085603914E+03  0.11790204197E+03  0.47000000000E+01 0.  1.
<mgrwt>
<rscale>  0 0.13200094E+03</rscale>
<asrwt>0</asrwt>
<pdfrwt beam="1">  1        2 0.62881992E-01 0.13995898E+03</pdfrwt>
<pdfrwt beam="2">  1       -2 0.78241273E-02 0.13995898E+03</pdfrwt>
<totfact> 0.73036945E+03</totfact>
</mgrwt>
</event>
<event>
 8    1  0.3572165E-004  0.1395377E+03  0.7546771E-02  0.1225465E+00
          2   -1    0    0  501    0  0.00000000000E+00  0.00000000000E+00  0.34439050096E+02  0.34439050096E+02  0.00000000000E+00 0. -1.
         -2   -1    0    0    0  501 -0.00000000000E+00 -0.00000000000E+00 -0.48607126544E+03  0.48607126544E+03  0.00000000000E+00 0.  1.
         25    2    1    2    0    0  0.21294284914E+02 -0.58208694329E+02 -0.32098927493E+03  0.35000698913E+03  0.12501631555E+03 0.  0.
         23    2    1    2    0    0 -0.21294284914E+02  0.58208694329E+02 -0.13064294042E+03  0.17050332641E+03  0.90344384274E+02 0.  0.
          5    1    3    3  502    0 -0.51667432439E+02 -0.34574799061E+02 -0.13148204641E+03  0.14551480623E+03  0.47000000000E+01 0.  1.
         -5    1    3    3    0  502  0.72961717353E+02 -0.23633895267E+02 -0.18950722852E+03  0.20449218290E+03  0.47000000000E+01 0.  1.
          5    1    4    4  503    0 -0.48014777504E+02  0.30383801314E+02 -0.11547922243E+03  0.12878716960E+03  0.47000000000E+01 0. -1.
         -5    1    4    4    0  503  0.26720492590E+02  0.27824893014E+02 -0.15163717989E+02  0.41716156807E+02  0.47000000000E+01 0.  1.
<mgrwt>
<rscale>  0 0.13135107E+03</rscale>
<asrwt>0</asrwt>
<pdfrwt beam="1">  1        2 0.52983158E-02 0.13953773E+03</pdfrwt>
<pdfrwt beam="2">  1       -2 0.74780189E-01 0.13953773E+03</pdfrwt>
<totfact> 0.23125459E+03</totfact>
</mgrwt>
</event>
<event>
 8    1  0.3572165E-004  0.2361901E+03  0.7546771E-02  0.1125142E+00
          2   -1    0    0  501    0  0.00000000000E+00  0.00000000000E+00  0.11122230227E+04  0.11122230227E+04  0.00000000000E+00 0. -1.
         -2   -1    0    0    0  501 -0.00000000000E+00 -0.00000000000E+00 -0.61055584716E+02  0.61055584716E+02  0.00000000000E+00 0.  1.
         25    2    1    2    0    0 -0.61991560599E+02 -0.19057233159E+03  0.25679576391E+03  0.34889805166E+03  0.12500007576E+03 0.  0.
         23    2    1    2    0    0  0.61991560599E+02  0.19057233159E+03  0.79437167406E+03  0.82438055574E+03  0.91739724122E+02 0.  0.
          5    1    3    3  502    0 -0.93920687322E+02 -0.11025179014E+03  0.12585999462E+03  0.19193587727E+03  0.47000000000E+01 0.  1.
         -5    1    4    4    0  503  0.48529682638E+02  0.37722661648E+02  0.15433563001E+03  0.16619177473E+03  0.47000000000E+01 0.  1.
          5    1    4    4  503    0  0.13461877960E+02  0.15284966994E+03  0.64003604406E+03  0.65818878101E+03  0.47000000000E+01 0. -1.
         -5    1    3    3    0  502  0.31929126724E+02 -0.80320541446E+02  0.13093576929E+03  0.15696217439E+03  0.47000000000E+01 0.  1.
<mgrwt>
<rscale>  0 0.23214007E+03</rscale>
<asrwt>0</asrwt>
<pdfrwt beam="1">  1        2 0.17111122E+00 0.23619015E+03</pdfrwt>
<pdfrwt beam="2">  1       -2 0.93931677E-02 0.23619015E+03</pdfrwt>
<totfact> 0.16481833E+03</totfact>
</mgrwt>
</event>
<event>
 8    1  0.3572165E-004  0.1935988E+03  0.7546771E-02  0.1159990E+00
         -1   -1    0    0    0  501 -0.00000000000E+00  0.00000000000E+00  0.31558328434E+02  0.31558328434E+02  0.00000000000E+00 0.  1.
          1   -1    0    0  501    0  0.00000000000E+00 -0.00000000000E+00 -0.11368732987E+04  0.11368732987E+04  0.00000000000E+00 0. -1.
         25    2    1    2    0    0 -0.73704806766E+02  0.12815314996E+03 -0.43615629705E+03  0.47719263177E+03  0.12499945591E+03 0.  0.
         23    2    1    2    0    0  0.73704806766E+02 -0.12815314996E+03 -0.66915867318E+03  0.69123899532E+03  0.90456566255E+02 0.  0.
          5    1    3    3  502    0 -0.10614024058E+02  0.11264101752E+03 -0.17816929900E+03  0.21110908422E+03  0.47000000000E+01 0. -1.
         -5    1    3    3    0  502 -0.63090782708E+02  0.15512132443E+02 -0.25798699805E+03  0.26608354755E+03  0.47000000000E+01 0. -1.
          5    1    4    4  503    0  0.21062102753E+02 -0.11516682510E+03 -0.49977752354E+03  0.51332901029E+03  0.47000000000E+01 0. -1.
         -5    1    4    4    0  503  0.52642704013E+02 -0.12986324863E+02 -0.16938114964E+03  0.17790998503E+03  0.47000000000E+01 0.  1.
<mgrwt>
<rscale>  0 0.18831542E+03</rscale>
<asrwt>0</asrwt>
<pdfrwt beam="1">  1        1 0.17490358E+00 0.19359879E+03</pdfrwt>
<pdfrwt beam="2">  1       -1 0.48551277E-02 0.19359879E+03</pdfrwt>
<totfact> 0.23267593E+03</totfact>
</mgrwt>
</event>
<event>
 8    1  0.3572165E-004  0.1374946E+03  0.7546771E-02  0.1224474E+00
         -4   -1    0    0    0  501 -0.00000000000E+00  0.00000000000E+00  0.22639223883E+03  0.22639223883E+03  0.00000000000E+00 0.  1.
          4   -1    0    0  501    0  0.00000000000E+00 -0.00000000000E+00 -0.75256873985E+02  0.75256873985E+02  0.00000000000E+00 0. -1.
         25    2    1    2    0    0  0.28636921090E+02 -0.49585847359E+02  0.11510773660E+03  0.17931695265E+03  0.12500379585E+03 0.  0.
         23    2    1    2    0    0 -0.28636921090E+02  0.49585847359E+02  0.36027628248E+02  0.12233216016E+03  0.10192319611E+03 0.  0.
          5    1    4    4  502    0 -0.88495884080E+01  0.18331610954E+02 -0.35772747540E+02  0.41426352021E+02  0.47000000000E+01 0. -1.
         -5    1    3    3    0  503 -0.35262432260E+01 -0.54461805738E+02  0.13159824511E+03  0.14254371537E+03  0.47000000000E+01 0.  1.
          5    1    3    3  503    0  0.32163164316E+02  0.48759583791E+01 -0.16490508515E+02  0.36773237279E+02  0.47000000000E+01 0.  1.
         -5    1    4    4    0  502 -0.19787332682E+02  0.31254236404E+02  0.71800375788E+02  0.80905808142E+02  0.47000000000E+01 0.  1.
<mgrwt>
<rscale>  0 0.13203047E+03</rscale>
<asrwt>0</asrwt>
<pdfrwt beam="1">  1        4 0.11577981E-01 0.13749465E+03</pdfrwt>
<pdfrwt beam="2">  1       -4 0.34829575E-01 0.13749465E+03</pdfrwt>
<totfact> 0.78202557E+02</totfact>
</mgrwt>
</event>
<event>
 8    1  0.3572165E-004  0.1349975E+03  0.7546771E-02  0.1232661E+00
         -3   -1    0    0    0  501 -0.00000000000E+00  0.00000000000E+00  0.17077169502E+03  0.17077169502E+03  0.00000000000E+00 0.  1.
          3   -1    0    0  501    0  0.00000000000E+00 -0.00000000000E+00 -0.18241789964E+03  0.18241789964E+03  0.00000000000E+00 0. -1.
         25    2    1    2    0    0  0.45610538151E+02 -0.22765839525E+02 -0.13551561927E+03  0.19128200981E+03  0.12500287825E+03 0.  0.
         23    2    1    2    0    0 -0.45610538151E+02  0.22765839525E+02  0.12386941465E+03  0.16190758484E+03  0.90949598694E+02 0.  0.
          5    1    3    3  502    0  0.14355566929E+02  0.31113889173E+02 -0.12274398440E+03  0.12752384918E+03  0.47000000000E+01 0. -1.
         -5    1    4    4    0  503 -0.36771625409E+02 -0.22951105723E+02  0.19973760137E+02  0.47957760406E+02  0.47000000000E+01 0.  1.
          5    1    4    4  503    0 -0.88389127420E+01  0.45716945248E+02  0.10389565452E+03  0.11394982443E+03  0.47000000000E+01 0. -1.
         -5    1    3    3    0  502  0.31254971222E+02 -0.53879728698E+02 -0.12771634871E+02  0.63758160638E+02  0.47000000000E+01 0. -1.
<mgrwt>
<rscale>  0 0.12655379E+03</rscale>
<asrwt>0</asrwt>
<pdfrwt beam="1">  1        3 0.28064292E-01 0.13499750E+03</pdfrwt>
<pdfrwt beam="2">  1       -3 0.26272569E-01 0.13499750E+03</pdfrwt>
<totfact> 0.38730974E+02</totfact>
</mgrwt>
</event>
<event>
 8    1  0.3572165E-004  0.1528262E+03  0.7546771E-02  0.1205503E+00
         -2   -1    0    0    0  501 -0.00000000000E+00  0.00000000000E+00  0.25145587069E+02  0.25145587069E+02  0.00000000000E+00 0.  1.
          2   -1    0    0  501    0  0.00000000000E+00 -0.00000000000E+00 -0.92819634458E+03  0.92819634458E+03  0.00000000000E+00 0. -1.
         25    2    1    2    0    0  0.31389786814E+02  0.82143731152E+02 -0.29623846593E+03  0.33333627925E+03  0.12499174006E+03 0.  0.
         23    2    1    2    0    0 -0.31389786814E+02 -0.82143731152E+02 -0.60681229158E+03  0.62000565240E+03  0.91939874422E+02 0.  0.
          5    1    3    3  502    0 -0.34998148894E+02  0.61836350838E+02 -0.84747765652E+02  0.11069272105E+03  0.47000000000E+01 0. -1.
         -5    1    3    3    0  502  0.66387935708E+02  0.20307380314E+02 -0.21149070028E+03  0.22264355820E+03  0.47000000000E+01 0. -1.
          5    1    4    4  503    0 -0.54307815751E+02 -0.78106672459E+02 -0.55364960824E+03  0.56178284937E+03  0.47000000000E+01 0. -1.
         -5    1    4    4    0  503  0.22918028937E+02 -0.40370586929E+01 -0.53162683335E+02  0.58222803030E+02  0.47000000000E+01 0. -1.
<mgrwt>
<rscale>  0 0.14597897E+03</rscale>
<asrwt>0</asrwt>
<pdfrwt beam="1">  1        2 0.14279945E+00 0.15282620E+03</pdfrwt>
<pdfrwt beam="2">  1       -2 0.38685516E-02 0.15282620E+03</pdfrwt>
<totfact> 0.81870383E+03</totfact>
</mgrwt>
</event>
<event>
 8    1  0.3572165E-004  0.1263447E+03  0.7546771E-02  0.1249738E+00
         -2   -1    0    0    0  501 -0.00000000000E+00  0.00000000000E+00  0.24663602327E+02  0.24663602327E+02  0.00000000000E+00 0.  1.
          2   -1    0    0  501    0  0.00000000000E+00 -0.00000000000E+00 -0.49185467661E+03  0.49185467661E+03  0.00000000000E+00 0. -1.
         25    2    1    2    0    0 -0.61850421193E+01 -0.17281436871E+02 -0.22335206676E+03  0.25661084461E+03  0.12500430808E+03 0.  0.
         23    2    1    2    0    0  0.61850421193E+01  0.17281436871E+02 -0.24383900752E+03  0.25990743433E+03  0.88076728050E+02 0.  0.
          5    1    3    3  502    0  0.51622831176E+02 -0.20145707763E+02 -0.16569684886E+03  0.17478072537E+03  0.47000000000E+01 0.  1.
         -5    1    3    3    0  502 -0.57807873295E+02  0.28642708920E+01 -0.57655217900E+02  0.81830119234E+02  0.47000000000E+01 0.  1.
          5    1    4    4  503    0  0.21678197083E+02 -0.24957512634E+02 -0.17050762930E+03  0.17374626130E+03  0.47000000000E+01 0. -1.
         -5    1    4    4    0  503 -0.15493154964E+02  0.42238949506E+02 -0.73331378220E+02  0.86161173029E+02  0.47000000000E+01 0.  1.
<mgrwt>
<rscale>  0 0.11606223E+03</rscale>
<asrwt>0</asrwt>
<pdfrwt beam="1">  1        2 0.75669955E-01 0.12634469E+03</pdfrwt>
<pdfrwt beam="2">  1       -2 0.37944001E-02 0.12634469E+03</pdfrwt>
<totfact> 0.17682150E+04</totfact>
</mgrwt>
</event>
<event>
 8    1  0.3572165E-004  0.3722897E+03  0.7546771E-02  0.1054820E+00
         -2   -1    0    0    0  501 -0.00000000000E+00  0.00000000000E+00  0.16485537595E+03  0.16485537595E+03  0.00000000000E+00 0.  1.
          2   -1    0    0  501    0  0.00000000000E+00 -0.00000000000E+00 -0.83335189912E+03  0.83335189912E+03  0.00000000000E+00 0. -1.
         25    2    1    2    0    0 -0.29432871034E+03  0.19064531111E+03 -0.26999569971E+03  0.45988835822E+03  0.12499839914E+03 0.  0.
         23    2    1    2    0    0  0.29432871034E+03 -0.19064531111E+03 -0.39850082347E+03  0.53831891686E+03  0.89494835396E+02 0.  0.
          5    1    3    3  502    0 -0.27675024572E+03  0.12743416651E+03 -0.20392746350E+03  0.36665878644E+03  0.47000000000E+01 0. -1.
         -5    1    3    3    0  502 -0.17578464619E+02  0.63211144592E+02 -0.66068236205E+02  0.93229571780E+02  0.47000000000E+01 0. -1.
          5    1    4    4  503    0  0.16234618687E+03 -0.12451163253E+03 -0.29049110168E+03  0.35534012042E+03  0.47000000000E+01 0. -1.
         -5    1    4    4    0  503  0.13198252347E+03 -0.66133678573E+02 -0.10800972179E+03  0.18297879643E+03  0.47000000000E+01 0.  1.
<mgrwt>
<rscale>  0 0.36966914E+03</rscale>
<asrwt>0</asrwt>
<pdfrwt beam="1">  1        2 0.12820799E+00 0.37228970E+03</pdfrwt>
<pdfrwt beam="2">  1       -2 0.25362365E-01 0.37228970E+03</pdfrwt>
<totfact> 0.46569390E+02</totfact>
</mgrwt>
</event>
<event>
 8    1  0.3572165E-004  0.1345017E+03  0.7546771E-02  0.1231637E+00
          2   -1    0    0  501    0  0.00000000000E+00  0.00000000000E+00  0.75935267578E+02  0.75935267578E+02  0.00000000000E+00 0. -1.
         -2   -1    0    0    0  501 -0.00000000000E+00 -0.00000000000E+00 -0.19368455464E+03  0.19368455464E+03  0.00000000000E+00 0.  1.
         25    2    1    2    0    0  0.16517932998E+01 -0.49623507345E+02 -0.57838411162E+02  0.14641035897E+03  0.12500196201E+03 0.  0.
         23    2    1    2    0    0 -0.16517932998E+01  0.49623507345E+02 -0.59910875899E+02  0.12320946324E+03  0.95530298228E+02 0.  0.
          5    1    3    3  502    0 -0.18641579238E+02  0.30436833959E+02 -0.52309072192E+02  0.63499908437E+02  0.47000000000E+01 0.  1.
         -5    1    4    4    0  503 -0.37784720655E+02  0.49074123170E+02 -0.12410736619E+02  0.63340911450E+02  0.47000000000E+01 0.  1.
          5    1    4    4  503    0  0.36132927355E+02  0.54938417496E+00 -0.47500139280E+02  0.59868551794E+02  0.47000000000E+01 0. -1.
         -5    1    3    3    0  502  0.20293372538E+02 -0.80060341304E+02 -0.55293389703E+01  0.82910450536E+02  0.47000000000E+01 0.  1.
<mgrwt>
<rscale>  0 0.12722199E+03</rscale>
<asrwt>0</asrwt>
<pdfrwt beam="1">  1        2 0.11682349E-01 0.13450172E+03</pdfrwt>
<pdfrwt beam="2">  1       -2 0.29797623E-01 0.13450172E+03</pdfrwt>
<totfact> 0.51963808E+03</totfact>
</mgrwt>
</event>
<event>
 8    1  0.3572165E-004  0.1293909E+03  0.7546771E-02  0.1239091E+00
          2   -1    0    0  501    0  0.00000000000E+00  0.00000000000E+00  0.15842137084E+03  0.15842137084E+03  0.00000000000E+00 0. -1.
         -2   -1    0    0    0  501 -0.00000000000E+00 -0.00000000000E+00 -0.10590669729E+03  0.10590669729E+03  0.00000000000E+00 0.  1.
         25    2    1    2    0    0 -0.31215642259E+02  0.11920702422E+02  0.85857051748E+02  0.15528498161E+03  0.12500189083E+03 0.  0.
         23    2    1    2    0    0  0.31215642259E+02 -0.11920702422E+02 -0.33342378206E+02  0.10904308652E+03  0.98296292230E+02 0.  0.
          5    1    4    4  502    0  0.65584489245E+02 -0.13381078516E+02 -0.31890857788E+02  0.74293305904E+02  0.47000000000E+01 0. -1.
         -5    1    4    4    0  502 -0.34368846986E+02  0.14603760943E+01 -0.14515204176E+01  0.34749780618E+02  0.47000000000E+01 0.  1.
          5    1    3    3  503    0 -0.60172707676E+02  0.51061616558E+02  0.41669015383E+02  0.89366885800E+02  0.47000000000E+01 0. -1.
         -5    1    3    3    0  503  0.28957065417E+02 -0.39140914136E+02  0.44188036365E+02  0.65918095807E+02  0.47000000000E+01 0. -1.
<mgrwt>
<rscale>  0 0.12246116E+03</rscale>
<asrwt>0</asrwt>
<pdfrwt beam="1">  1        2 0.24372519E-01 0.12939085E+03</pdfrwt>
<pdfrwt beam="2">  1       -2 0.16293338E-01 0.12939085E+03</pdfrwt>
<totfact> 0.62515548E+03</totfact>
</mgrwt>
</event>
<event>
 8    1  0.3572165E-004  0.1493061E+03  0.7546771E-02  0.1207835E+00
          2   -1    0    0  501    0  0.00000000000E+00  0.00000000000E+00  0.47715090186E+03  0.47715090186E+03  0.00000000000E+00 0. -1.
         -2   -1    0    0    0  501 -0.00000000000E+00 -0.00000000000E+00 -0.41025091454E+02  0.41025091454E+02  0.00000000000E+00 0.  1.
         25    2    1    2    0    0 -0.60736303736E+02  0.54564754226E+02  0.25208996668E+03  0.29298747910E+03  0.12500440239E+03 0.  0.
         23    2    1    2    0    0  0.60736303736E+02 -0.54564754226E+02  0.18403584373E+03  0.22518851421E+03  0.10086854891E+03 0.  0.
          5    1    3    3  502    0  0.63543057531E+00  0.65296973068E+02  0.52721593293E+02  0.84058044607E+02  0.47000000000E+01 0.  1.
         -5    1    3    3    0  502 -0.61371734312E+02 -0.10732218842E+02  0.19936837338E+03  0.20892943450E+03  0.47000000000E+01 0.  1.
          5    1    4    4  503    0  0.60800045166E+02 -0.78849029658E+02  0.11682571813E+03  0.15357132997E+03  0.47000000000E+01 0. -1.
         -5    1    4    4    0  503 -0.63741429667E-01  0.24284275432E+02  0.67210125598E+02  0.71617184245E+02  0.47000000000E+01 0.  1.
<mgrwt>
<rscale>  0 0.14416276E+03</rscale>
<asrwt>0</asrwt>
<pdfrwt beam="1">  1        2 0.73407827E-01 0.14930610E+03</pdfrwt>
<pdfrwt beam="2">  1       -2 0.63115529E-02 0.14930610E+03</pdfrwt>
<totfact> 0.86227295E+03</totfact>
</mgrwt>
</event>
<event>
 8    1  0.3572165E-004  0.2826645E+03  0.7546771E-02  0.1096045E+00
          2   -1    0    0  501    0  0.00000000000E+00  0.00000000000E+00  0.49815914756E+03  0.49815914756E+03  0.00000000000E+00 0. -1.
         -2   -1    0    0    0  501 -0.00000000000E+00 -0.00000000000E+00 -0.17149008816E+03  0.17149008816E+03  0.00000000000E+00 0.  1.
         25    2    1    2    0    0 -0.21582302509E+03 -0.13301201228E+03  0.57095140777E+02  0.28837313529E+03  0.12500974556E+03 0.  0.
         23    2    1    2    0    0  0.21582302509E+03  0.13301201228E+03  0.26957391862E+03  0.38127610044E+03  0.91812818233E+02 0.  0.
          5    1    4    4  502    0  0.43016192849E+02  0.19184534216E+02  0.84715952312E+01  0.48086350725E+02  0.47000000000E+01 0. -1.
         -5    1    4    4    0  502  0.17280683224E+03  0.11382747807E+03  0.26110232339E+03  0.33318974971E+03  0.47000000000E+01 0.  1.
          5    1    3    3  503    0  0.83872197976E+00 -0.34493085308E+02  0.34874624286E+02  0.49282915983E+02  0.47000000000E+01 0.  1.
         -5    1    3    3    0  503 -0.21666174707E+03 -0.98518926972E+02  0.22220516491E+02  0.23909021930E+03  0.47000000000E+01 0.  1.
<mgrwt>
<rscale>  0 0.27934844E+03</rscale>
<asrwt>0</asrwt>
<pdfrwt beam="1">  1        2 0.76639868E-01 0.28266448E+03</pdfrwt>
<pdfrwt beam="2">  1       -2 0.26383091E-01 0.28266448E+03</pdfrwt>
<totfact> 0.80935875E+02</totfact>
</mgrwt>
</event>
<event>
 8    1  0.3572165E-004  0.1424467E+03  0.7546771E-02  0.1218056E+00
         -2   -1    0    0    0  501 -0.00000000000E+00  0.00000000000E+00  0.27991225912E+02  0.27991225912E+02  0.00000000000E+00 0.  1.
          2   -1    0    0  501    0  0.00000000000E+00 -0.00000000000E+00 -0.65862123841E+03  0.65862123841E+03  0.00000000000E+00 0. -1.
         25    2    1    2    0    0 -0.29764422097E+02  0.61447113062E+02 -0.42685092033E+03  0.44999197766E+03  0.12501761174E+03 0.  0.
         23    2    1    2    0    0  0.29764422097E+02 -0.61447113062E+02 -0.20377909217E+03  0.23662048666E+03  0.99003372550E+02 0.  0.
          5    1    3    3  502    0  0.37380910589E+02 -0.77771650917E+00 -0.52768543546E+02  0.64842474562E+02  0.47000000000E+01 0.  1.
         -5    1    3    3    0  502 -0.67145332686E+02  0.62224829572E+02 -0.37408237678E+03  0.38514950310E+03  0.47000000000E+01 0.  1.
          5    1    4    4  503    0  0.54572910078E+02 -0.58948066014E+02 -0.19290464249E+03  0.20901523412E+03  0.47000000000E+01 0. -1.
         -5    1    4    4    0  503 -0.24808487981E+02 -0.24990470486E+01 -0.10874449684E+02  0.27605252543E+02  0.47000000000E+01 0.  1.
<mgrwt>
<rscale>  0 0.13654410E+03</rscale>
<asrwt>0</asrwt>
<pdfrwt beam="1">  1        2 0.10132634E+00 0.14244673E+03</pdfrwt>
<pdfrwt beam="2">  1       -2 0.43063426E-02 0.14244673E+03</pdfrwt>
<totfact> 0.10640960E+04</totfact>
</mgrwt>
</event>
<event>
 8    1  0.3572165E-004  0.1390134E+03  0.7546771E-02  0.1225657E+00
         -1   -1    0    0    0  501 -0.00000000000E+00  0.00000000000E+00  0.24626424723E+03  0.24626424723E+03  0.00000000000E+00 0.  1.
          1   -1    0    0  501    0  0.00000000000E+00 -0.00000000000E+00 -0.70150342794E+02  0.70150342794E+02  0.00000000000E+00 0. -1.
         25    2    1    2    0    0 -0.41778314167E+02  0.44200163922E+02  0.14690119448E+03  0.20224909286E+03  0.12500261036E+03 0.  0.
         23    2    1    2    0    0  0.41778314167E+02 -0.44200163922E+02  0.29212709956E+02  0.11416549717E+03  0.92093953629E+02 0.  0.
          5    1    3    3  502    0 -0.40755008905E+02  0.73184668708E+02  0.43005616004E+02  0.94279051187E+02  0.47000000000E+01 0. -1.
         -5    1    4    4    0  503  0.15089496725E+02  0.18979415354E+02  0.37519774730E+02  0.44919200954E+02  0.47000000000E+01 0.  1.
          5    1    4    4  503    0  0.26688817442E+02 -0.63179579276E+02 -0.83070647741E+01  0.69246296213E+02  0.47000000000E+01 0. -1.
         -5    1    3    3    0  502 -0.10233052615E+01 -0.28984504786E+02  0.10389557848E+03  0.10797004167E+03  0.47000000000E+01 0. -1.
<mgrwt>
<rscale>  0 0.13122004E+03</rscale>
<asrwt>0</asrwt>
<pdfrwt beam="1">  1        1 0.10792361E-01 0.13901343E+03</pdfrwt>
<pdfrwt beam="2">  1       -1 0.37886807E-01 0.13901343E+03</pdfrwt>
<totfact> 0.37823963E+03</totfact>
</mgrwt>
</event>
<event>
 8    1  0.3572165E-004  0.1701577E+03  0.7546771E-02  0.1183962E+00
          1   -1    0    0  501    0  0.00000000000E+00  0.00000000000E+00  0.85611866416E+03  0.85611866416E+03  0.00000000000E+00 0. -1.
         -1   -1    0    0    0  501 -0.00000000000E+00 -0.00000000000E+00 -0.29977313990E+02  0.29977313990E+02  0.00000000000E+00 0.  1.
         25    2    1    2    0    0  0.11229418692E+03  0.26769803771E+02  0.49625913992E+03  0.52462059695E+03  0.12500811966E+03 0.  0.
         23    2    1    2    0    0 -0.11229418692E+03 -0.26769803771E+02  0.32988221024E+03  0.36147538119E+03  0.92279855671E+02 0.  0.
          5    1    3    3  502    0  0.93973138902E+02  0.50333761394E+02  0.19877565428E+03  0.22560649172E+03  0.47000000000E+01 0. -1.
         -5    1    3    3    0  502  0.18321048020E+02 -0.23563957623E+02  0.29748348564E+03  0.29901410523E+03  0.47000000000E+01 0. -1.
          5    1    4    4  503    0 -0.89597118786E+02  0.11661262883E+02  0.28057441343E+03  0.29480115369E+03  0.47000000000E+01 0. -1.
         -5    1    4    4    0  503 -0.22697068136E+02 -0.38431066653E+02  0.49307796812E+02  0.66674227498E+02  0.47000000000E+01 0.  1.
<mgrwt>
<rscale>  0 0.16426713E+03</rscale>
<asrwt>0</asrwt>
<pdfrwt beam="1">  1        1 0.13171054E+00 0.17015768E+03</pdfrwt>
<pdfrwt beam="2">  1       -1 0.46118951E-02 0.17015768E+03</pdfrwt>
<totfact> 0.40516572E+03</totfact>
</mgrwt>
</event>
<event>
 8    1  0.3572165E-004  0.1280491E+03  0.7546771E-02  0.1243646E+00
          3   -1    0    0  501    0  0.00000000000E+00  0.00000000000E+00  0.39938250195E+03  0.39938250195E+03  0.00000000000E+00 0. -1.
         -3   -1    0    0    0  501 -0.00000000000E+00 -0.00000000000E+00 -0.48909262622E+02  0.48909262622E+02  0.00000000000E+00 0.  1.
         25    2    1    2    0    0  0.26086626385E+02 -0.95531081406E+01  0.59188019742E+02  0.14106658422E+03  0.12499914220E+03 0.  0.
         23    2    1    2    0    0 -0.26086626385E+02  0.95531081406E+01  0.29128521958E+03  0.30722518035E+03  0.93640046683E+02 0.  0.
          5    1    4    4  502    0  0.22440351543E+02  0.14410628279E+02  0.21407761756E+03  0.21578357659E+03  0.47000000000E+01 0. -1.
         -5    1    3    3    0  503  0.74649188478E+02 -0.53871776623E+01  0.52734197417E+02  0.91676107034E+02  0.47000000000E+01 0.  1.
          5    1    3    3  503    0 -0.48562562094E+02 -0.41659304783E+01  0.64538223258E+01  0.49390477184E+02  0.47000000000E+01 0.  1.
         -5    1    4    4    0  502 -0.48526977928E+02 -0.48575201384E+01  0.77207602024E+02  0.91441603764E+02  0.47000000000E+01 0.  1.
<mgrwt>
<rscale>  0 0.11966775E+03</rscale>
<asrwt>0</asrwt>
<pdfrwt beam="1">  1        3 0.61443460E-01 0.12804905E+03</pdfrwt>
<pdfrwt beam="2">  1       -3 0.75245022E-02 0.12804905E+03</pdfrwt>
<totfact> 0.70874104E+02</totfact>
</mgrwt>
</event>
<event>
 8    1  0.3572165E-004  0.1637979E+03  0.7546771E-02  0.1191537E+00
         -1   -1    0    0    0  501 -0.00000000000E+00  0.00000000000E+00  0.82423280671E+02  0.82423280671E+02  0.00000000000E+00 0.  1.
          1   -1    0    0  501    0  0.00000000000E+00 -0.00000000000E+00 -0.28180504075E+03  0.28180504075E+03  0.00000000000E+00 0. -1.
         25    2    1    2    0    0  0.22238044494E+02  0.10348950670E+03 -0.93082507361E+02  0.18839875999E+03  0.12500052388E+03 0.  0.
         23    2    1    2    0    0 -0.22238044494E+02 -0.10348950670E+03 -0.10629925272E+03  0.17582956143E+03  0.91716383071E+02 0.  0.
          5    1    4    4  502    0  0.22533736247E+02 -0.56505152263E+02 -0.90028770376E+02  0.10875601591E+03  0.47000000000E+01 0. -1.
         -5    1    4    4    0  502 -0.44771780741E+02 -0.46984354439E+02 -0.16270482344E+02  0.67073545519E+02  0.47000000000E+01 0.  1.
          5    1    3    3  503    0  0.37053860923E+02  0.11713816809E+03 -0.36650906059E+02  0.12829543230E+03  0.47000000000E+01 0.  1.
         -5    1    3    3    0  503 -0.14815816429E+02 -0.13648661393E+02 -0.56431601302E+02  0.60103327693E+02  0.47000000000E+01 0.  1.
<mgrwt>
<rscale>  0 0.15751027E+03</rscale>
<asrwt>0</asrwt>
<pdfrwt beam="1">  1        1 0.43354621E-01 0.16379786E+03</pdfrwt>
<pdfrwt beam="2">  1       -1 0.12680505E-01 0.16379786E+03</pdfrwt>
<totfact> 0.38752156E+03</totfact>
</mgrwt>
</event>
<event>
 8    1  0.3572165E-004  0.1340888E+03  0.7546771E-02  0.1234033E+00
          2   -1    0    0  501    0  0.00000000000E+00  0.00000000000E+00  0.49434682651E+03  0.49434682651E+03  0.00000000000E+00 0. -1.
         -2   -1    0    0    0  501 -0.00000000000E+00 -0.00000000000E+00 -0.29714568098E+02  0.29714568098E+02  0.00000000000E+00 0.  1.
         25    2    1    2    0    0 -0.42335935970E+02  0.23695144813E+02  0.20925886073E+03  0.24853383966E+03  0.12500402914E+03 0.  0.
         23    2    1    2    0    0  0.42335935970E+02 -0.23695144813E+02  0.25537339768E+03  0.27552755494E+03  0.91356827487E+02 0.  0.
          5    1    3    3  502    0 -0.83996588788E+02  0.99425605269E+01  0.16788520554E+03  0.18804737083E+03  0.47000000000E+01 0.  1.
         -5    1    3    3    0  502  0.41660652818E+02  0.13752584286E+02  0.41373655194E+02  0.60486468833E+02  0.47000000000E+01 0.  1.
          5    1    4    4  503    0  0.21594312663E+02 -0.31031019960E+02  0.24934261103E+03  0.25223613186E+03  0.47000000000E+01 0. -1.
         -5    1    4    4    0  503  0.20741623307E+02  0.73358751471E+01  0.60307866445E+01  0.23291423081E+02  0.47000000000E+01 0.  1.
<mgrwt>
<rscale>  0 0.12566565E+03</rscale>
<asrwt>0</asrwt>
<pdfrwt beam="1">  1        2 0.76053352E-01 0.13408877E+03</pdfrwt>
<pdfrwt beam="2">  1       -2 0.45714724E-02 0.13408877E+03</pdfrwt>
<totfact> 0.13394358E+04</totfact>
</mgrwt>
</event>
<event>
 8    1  0.3572165E-004  0.1275173E+03  0.7546771E-02  0.1248161E+00
          2   -1    0    0  501    0  0.00000000000E+00  0.00000000000E+00  0.23971014108E+03  0.23971014108E+03  0.00000000000E+00 0. -1.
         -2   -1    0    0    0  501 -0.00000000000E+00 -0.00000000000E+00 -0.50842767123E+02  0.50842767123E+02  0.00000000000E+00 0.  1.
         25    2    1    2    0    0  0.22556302857E+02 -0.11434367110E+02  0.86756085087E+02  0.15423127982E+03  0.12498455035E+03 0.  0.
         23    2    1    2    0    0 -0.22556302857E+02  0.11434367110E+02  0.10211128887E+03  0.13632162838E+03  0.86702592234E+02 0.  0.
          5    1    4    4  502    0  0.16403253304E+02  0.31301042425E+02  0.78918742137E+02  0.86597227648E+02  0.47000000000E+01 0. -1.
         -5    1    3    3    0  503 -0.32145821989E+02 -0.12817684005E+02  0.92631679001E+02  0.98996792115E+02  0.47000000000E+01 0.  1.
          5    1    3    3  503    0  0.54702124846E+02  0.13833168949E+01 -0.58755939138E+01  0.55234487706E+02  0.47000000000E+01 0.  1.
         -5    1    4    4    0  502 -0.38959556161E+02 -0.19866675314E+02  0.23192546731E+02  0.49724400732E+02  0.47000000000E+01 0.  1.
<mgrwt>
<rscale>  0 0.11698155E+03</rscale>
<asrwt>0</asrwt>
<pdfrwt beam="1">  1        2 0.36878483E-01 0.12751733E+03</pdfrwt>
<pdfrwt beam="2">  1       -2 0.78219643E-02 0.12751733E+03</pdfrwt>
<totfact> 0.12791242E+04</totfact>
</mgrwt>
</event>
<event>
 8    1  0.3572165E-004  0.1252455E+03  0.7546771E-02  0.1248824E+00
         -1   -1    0    0    0  501 -0.00000000000E+00  0.00000000000E+00  0.27441964012E+03  0.27441964012E+03  0.00000000000E+00 0.  1.
          1   -1    0    0  501    0  0.00000000000E+00 -0.00000000000E+00 -0.82547695720E+02  0.82547695720E+02  0.00000000000E+00 0. -1.
         25    2    1    2    0    0  0.76096828185E+01 -0.16384509107E+01  0.22477628005E+03  0.25731461117E+03  0.12500336498E+03 0.  0.
         23    2    1    2    0    0 -0.76096828185E+01  0.16384509107E+01 -0.32904335656E+02  0.99652724662E+02  0.93741017882E+02 0.  0.
          5    1    3    3  502    0 -0.32621454631E+02 -0.15478329018E+02  0.20828490971E+03  0.21144368419E+03  0.47000000000E+01 0. -1.
         -5    1    3    3    0  502  0.40231137450E+02  0.13839878107E+02  0.16491370344E+02  0.45870926984E+02  0.47000000000E+01 0. -1.
          5    1    4    4  503    0 -0.21394711906E+02 -0.25758953671E+02 -0.52868508511E+02  0.62756884754E+02  0.47000000000E+01 0. -1.
         -5    1    4    4    0  503  0.13785029088E+02  0.27397404581E+02  0.19964172855E+02  0.36895839908E+02  0.47000000000E+01 0.  1.
<mgrwt>
<rscale>  0 0.11659422E+03</rscale>
<asrwt>0</asrwt>
<pdfrwt beam="1">  1        1 0.12699646E-01 0.12524549E+03</pdfrwt>
<pdfrwt beam="2">  1       -1 0.42218406E-01 0.12524549E+03</pdfrwt>
<totfact> 0.25130701E+03</totfact>
</mgrwt>
</event>
<event>
 8    1  0.3572165E-004  0.1850809E+03  0.7546771E-02  0.1168199E+00
          2   -1    0    0  501    0  0.00000000000E+00  0.00000000000E+00  0.12959588758E+04  0.12959588758E+04  0.00000000000E+00 0. -1.
         -2   -1    0    0    0  501 -0.00000000000E+00 -0.00000000000E+00 -0.23958283652E+02  0.23958283652E+02  0.00000000000E+00 0.  1.
         25    2    1    2    0    0 -0.11089154724E+03 -0.79569634196E+02  0.58423806739E+03  0.61285320296E+03  0.12500666806E+03 0.  0.
         23    2    1    2    0    0  0.11089154724E+03  0.79569634196E+02  0.68776252474E+03  0.70706395647E+03  0.91070775600E+02 0.  0.
          5    1    4    4  502    0  0.86765222684E+02  0.10428835595E+02  0.30388547312E+03  0.31623635979E+03  0.47000000000E+01 0. -1.
         -5    1    4    4    0  502  0.24126324556E+02  0.69140798601E+02  0.38387705162E+03  0.39082759668E+03  0.47000000000E+01 0.  1.
          5    1    3    3  503    0 -0.33507350075E+02  0.16582734081E+02  0.30753272413E+03  0.30983252894E+03  0.47000000000E+01 0.  1.
         -5    1    3    3    0  503 -0.77384197166E+02 -0.96152368277E+02  0.27670534326E+03  0.30302067402E+03  0.47000000000E+01 0.  1.
<mgrwt>
<rscale>  0 0.17959112E+03</rscale>
<asrwt>0</asrwt>
<pdfrwt beam="1">  1        2 0.19937823E+00 0.18508087E+03</pdfrwt>
<pdfrwt beam="2">  1       -2 0.36858908E-02 0.18508087E+03</pdfrwt>
<totfact> 0.54299882E+03</totfact>
</mgrwt>
</event>
<event>
 8    1  0.3572165E-004  0.1287796E+03  0.7546771E-02  0.1239596E+00
          2   -1    0    0  501    0  0.00000000000E+00  0.00000000000E+00  0.24500546884E+03  0.24500546884E+03  0.00000000000E+00 0. -1.
         -2   -1    0    0    0  501 -0.00000000000E+00 -0.00000000000E+00 -0.71263141942E+02  0.71263141942E+02  0.00000000000E+00 0.  1.
         25    2    1    2    0    0  0.28318293544E+02 -0.12579067667E+02  0.19702579186E+02  0.13027810696E+03  0.12499613928E+03 0.  0.
         23    2    1    2    0    0 -0.28318293544E+02  0.12579067667E+02  0.15403974772E+03  0.18599050382E+03  0.99519168725E+02 0.  0.
          5    1    3    3  502    0  0.36500430928E+02  0.43727455697E+02 -0.20207119418E+02  0.60620042188E+02  0.47000000000E+01 0. -1.
         -5    1    3    3    0  502 -0.81821373842E+01 -0.56306523363E+02  0.39909698604E+02  0.69658064774E+02  0.47000000000E+01 0. -1.
          5    1    4    4  503    0  0.21932109967E+01 -0.26486860121E+02  0.12597620769E+03  0.12883500626E+03  0.47000000000E+01 0. -1.
         -5    1    4    4    0  503 -0.30511504541E+02  0.39065927788E+02  0.28063540027E+02  0.57155497567E+02  0.47000000000E+01 0.  1.
<mgrwt>
<rscale>  0 0.12214768E+03</rscale>
<asrwt>0</asrwt>
<pdfrwt beam="1">  1        2 0.37693149E-01 0.12877963E+03</pdfrwt>
<pdfrwt beam="2">  1       -2 0.10963560E-01 0.12877963E+03</pdfrwt>
<totfact> 0.73865433E+03</totfact>
</mgrwt>
</event>
<event>
 8    1  0.3572165E-004  0.1376911E+03  0.7546771E-02  0.1228320E+00
         -4   -1    0    0    0  501 -0.00000000000E+00  0.00000000000E+00  0.73021967049E+03  0.73021967049E+03  0.00000000000E+00 0.  1.
          4   -1    0    0  501    0  0.00000000000E+00 -0.00000000000E+00 -0.32643495731E+02  0.32643495731E+02  0.00000000000E+00 0. -1.
         25    2    1    2    0    0  0.17827627578E+02 -0.54916285438E+02  0.60668384757E+03  0.62211263829E+03  0.12500088444E+03 0.  0.
         23    2    1    2    0    0 -0.17827627578E+02  0.54916285438E+02  0.90892327190E+02  0.14075052793E+03  0.90640351163E+02 0.  0.
          5    1    4    4  502    0 -0.49254401047E+02  0.16578488646E+02  0.24201518296E+02  0.57520829237E+02  0.47000000000E+01 0. -1.
         -5    1    3    3    0  503  0.34540082918E+02 -0.88109870792E+02  0.34556528675E+03  0.35832083956E+03  0.47000000000E+01 0.  1.
          5    1    3    3  503    0 -0.16712455340E+02  0.33193585354E+02  0.26111856082E+03  0.26379179873E+03  0.47000000000E+01 0.  1.
         -5    1    4    4    0  502  0.31426773469E+02  0.38337796792E+02  0.66690808894E+02  0.83229698693E+02  0.47000000000E+01 0.  1.
<mgrwt>
<rscale>  0 0.12941925E+03</rscale>
<asrwt>0</asrwt>
<pdfrwt beam="1">  1        4 0.50220768E-02 0.13769112E+03</pdfrwt>
<pdfrwt beam="2">  1       -4 0.11234148E+00 0.13769112E+03</pdfrwt>
<totfact> 0.25800678E+02</totfact>
</mgrwt>
</event>
<event>
 8    1  0.3572165E-004  0.1273225E+03  0.7546771E-02  0.1247444E+00
          2   -1    0    0  501    0  0.00000000000E+00  0.00000000000E+00  0.29655005588E+02  0.29655005588E+02  0.00000000000E+00 0. -1.
         -2   -1    0    0    0  501 -0.00000000000E+00 -0.00000000000E+00 -0.44799325865E+03  0.44799325865E+03  0.00000000000E+00 0.  1.
         25    2    1    2    0    0  0.14216801335E+02  0.19598713715E+02 -0.16709837213E+03  0.21007829168E+03  0.12499918259E+03 0.  0.
         23    2    1    2    0    0 -0.14216801335E+02 -0.19598713715E+02 -0.25123988093E+03  0.26756997256E+03  0.88803071019E+02 0.  0.
          5    1    3    3  502    0 -0.36729949263E+02 -0.32636070671E+02 -0.40351810005E+02  0.63753908526E+02  0.47000000000E+01 0. -1.
         -5    1    4    4    0  503  0.11619556532E+02  0.16681076337E+02 -0.19288184902E+03  0.19400713925E+03  0.47000000000E+01 0.  1.
          5    1    4    4  503    0 -0.25836357867E+02 -0.36279790052E+02 -0.58358031918E+02  0.73562833302E+02  0.47000000000E+01 0. -1.
         -5    1    3    3    0  502  0.50946750598E+02  0.52234784385E+02 -0.12674656212E+03  0.14632438316E+03  0.47000000000E+01 0. -1.
<mgrwt>
<rscale>  0 0.11740281E+03</rscale>
<asrwt>0</asrwt>
<pdfrwt beam="1">  1        2 0.45623086E-02 0.12732251E+03</pdfrwt>
<pdfrwt beam="2">  1       -2 0.68922038E-01 0.12732251E+03</pdfrwt>
<totfact> 0.33256039E+03</totfact>
</mgrwt>
</event>
<event>
 8    1  0.3572165E-004  0.1522428E+03  0.7546771E-02  0.1205269E+00
          1   -1    0    0  501    0  0.00000000000E+00  0.00000000000E+00  0.51093134354E+03  0.51093134354E+03  0.00000000000E+00 0. -1.
         -1   -1    0    0    0  501 -0.00000000000E+00 -0.00000000000E+00 -0.39063794417E+02  0.39063794417E+02  0.00000000000E+00 0.  1.
         25    2    1    2    0    0 -0.79984769269E+02  0.34004467996E+02  0.23231529083E+03  0.27775578155E+03  0.12499605063E+03 0.  0.
         23    2    1    2    0    0  0.79984769269E+02 -0.34004467996E+02  0.23955225829E+03  0.27223935640E+03  0.95786823539E+02 0.  0.
          5    1    4    4  502    0  0.56726945833E+02 -0.16623185195E+02  0.23513429078E+03  0.24249639455E+03  0.47000000000E+01 0. -1.
         -5    1    3    3    0  503 -0.41623632278E+02 -0.36639971769E+02  0.37920930031E+02  0.67343160229E+02  0.47000000000E+01 0. -1.
          5    1    3    3  503    0 -0.38361136991E+02  0.70644439765E+02  0.19439436080E+03  0.21041262132E+03  0.47000000000E+01 0. -1.
         -5    1    4    4    0  502  0.23257823435E+02 -0.17381282801E+02  0.44179675101E+01  0.29742961851E+02  0.47000000000E+01 0.  1.
<mgrwt>
<rscale>  0 0.14616262E+03</rscale>
<asrwt>0</asrwt>
<pdfrwt beam="1">  1        1 0.78604818E-01 0.15224283E+03</pdfrwt>
<pdfrwt beam="2">  1       -1 0.60098149E-02 0.15224283E+03</pdfrwt>
<totfact> 0.56609280E+03</totfact>
</mgrwt>
</event>
<event>
 8    1  0.3572165E-004  0.1973531E+03  0.7546771E-02  0.1156348E+00
         -1   -1    0    0    0  501 -0.00000000000E+00  0.00000000000E+00  0.35882345783E+03  0.35882345783E+03  0.00000000000E+00 0.  1.
          1   -1    0    0  501    0  0.00000000000E+00 -0.00000000000E+00 -0.11084019158E+03  0.11084019158E+03  0.00000000000E+00 0. -1.
         25    2    1    2    0    0  0.15015005576E+03 -0.27893769785E+02  0.50505354459E+02  0.20371313687E+03  0.12500059866E+03 0.  0.
         23    2    1    2    0    0 -0.15015005576E+03  0.27893769785E+02  0.19747791179E+03  0.26595051255E+03  0.91700860634E+02 0.  0.
          5    1    3    3  502    0  0.62423003365E+02  0.43812731442E+02  0.48096322924E+02  0.90285840885E+02  0.47000000000E+01 0. -1.
         -5    1    4    4    0  503  0.34017004855E+01  0.23371872000E+02  0.21217637208E+02  0.32095078995E+02  0.47000000000E+01 0.  1.
          5    1    4    4  503    0 -0.15355175625E+03  0.45218977851E+01  0.17626027458E+03  0.23385543355E+03  0.47000000000E+01 0. -1.
         -5    1    3    3    0  502  0.87727052397E+02 -0.71706501227E+02  0.24090315347E+01  0.11342729598E+03  0.47000000000E+01 0. -1.
<mgrwt>
<rscale>  0 0.19236250E+03</rscale>
<asrwt>0</asrwt>
<pdfrwt beam="1">  1        1 0.17052337E-01 0.19735311E+03</pdfrwt>
<pdfrwt beam="2">  1       -1 0.55203608E-01 0.19735311E+03</pdfrwt>
<totfact> 0.10670842E+03</totfact>
</mgrwt>
</event>
<event>
 8    1  0.3572165E-004  0.1294251E+03  0.7546771E-02  0.1241673E+00
         -2   -1    0    0    0  501 -0.00000000000E+00  0.00000000000E+00  0.54808318838E+02  0.54808318838E+02  0.00000000000E+00 0. -1.
          2   -1    0    0  501    0  0.00000000000E+00 -0.00000000000E+00 -0.24122326273E+03  0.24122326273E+03  0.00000000000E+00 0.  1.
         25    2    1    2    0    0  0.26725942212E+02  0.20316845023E+02 -0.12542250054E+03  0.18022670873E+03  0.12499525079E+03 0.  0.
         23    2    1    2    0    0 -0.26725942212E+02 -0.20316845023E+02 -0.60992443352E+02  0.11580487284E+03  0.92539938666E+02 0.  0.
          5    1    3    3  502    0  0.57551399272E+02 -0.33168386428E+02 -0.54227628479E+02  0.85878001297E+02  0.47000000000E+01 0.  1.
         -5    1    4    4    0  503 -0.20278442085E+02  0.35987462094E+02 -0.25591201227E+02  0.48819178830E+02  0.47000000000E+01 0.  1.
          5    1    4    4  503    0 -0.64475001267E+01 -0.56304307117E+02 -0.35401242125E+02  0.66985694009E+02  0.47000000000E+01 0. -1.
         -5    1    3    3    0  502 -0.30825457059E+02  0.53485231451E+02 -0.71194872064E+02  0.94348707435E+02  0.47000000000E+01 0.  1.
<mgrwt>
<rscale>  0 0.12086715E+03</rscale>
<asrwt>0</asrwt>
<pdfrwt beam="1">  1        2 0.37111271E-01 0.12942512E+03</pdfrwt>
<pdfrwt beam="2">  1       -2 0.84320490E-02 0.12942512E+03</pdfrwt>
<totfact> 0.11328860E+04</totfact>
</mgrwt>
</event>
<event>
 8    1  0.3572165E-004  0.2945471E+03  0.7546771E-02  0.1089621E+00
          1   -1    0    0  501    0  0.00000000000E+00  0.00000000000E+00  0.44994002682E+03  0.44994002682E+03  0.00000000000E+00 0. -1.
         -1   -1    0    0    0  501 -0.00000000000E+00 -0.00000000000E+00 -0.21751071815E+03  0.21751071815E+03  0.00000000000E+00 0.  1.
         25    2    1    2    0    0  0.24808322291E+03  0.97915350086E+02 -0.11071256253E+02  0.29475513865E+03  0.12500127109E+03 0.  0.
         23    2    1    2    0    0 -0.24808322291E+03 -0.97915350086E+02  0.24350056492E+03  0.37269560631E+03  0.92069476863E+02 0.  0.
          5    1    3    3  502    0  0.19032098735E+03  0.11774748362E+03  0.22376528645E+02  0.22496521322E+03  0.47000000000E+01 0. -1.
         -5    1    3    3    0  502  0.57762235565E+02 -0.19832133532E+02 -0.33447784898E+02  0.69789925437E+02  0.47000000000E+01 0. -1.
          5    1    4    4  503    0 -0.49992196695E+02 -0.59020192129E+02  0.91798074637E+02  0.12013150842E+03  0.47000000000E+01 0. -1.
         -5    1    4    4    0  503 -0.19809102622E+03 -0.38895157957E+02  0.15170249029E+03  0.25256409788E+03  0.47000000000E+01 0.  1.
<mgrwt>
<rscale>  0 0.29139810E+03</rscale>
<asrwt>0</asrwt>
<pdfrwt beam="1">  1        1 0.69221543E-01 0.29454714E+03</pdfrwt>
<pdfrwt beam="2">  1       -1 0.33463187E-01 0.29454714E+03</pdfrwt>
<totfact> 0.44158324E+02</totfact>
</mgrwt>
</event>
<event>
 8    1  0.3572165E-004  0.1301990E+03  0.7546771E-02  0.1240888E+00
         -1   -1    0    0    0  501 -0.00000000000E+00  0.00000000000E+00  0.68886751177E+02  0.68886751177E+02  0.00000000000E+00 0.  1.
          1   -1    0    0  501    0  0.00000000000E+00 -0.00000000000E+00 -0.19288495939E+03  0.19288495939E+03  0.00000000000E+00 0. -1.
         25    2    1    2    0    0 -0.56717662976E+01 -0.35981685648E+02 -0.53085805060E+02  0.14060536886E+03  0.12499966568E+03 0.  0.
         23    2    1    2    0    0  0.56717662976E+01  0.35981685648E+02 -0.70912403150E+02  0.12116634170E+03  0.91246165976E+02 0.  0.
          5    1    3    3  502    0  0.56880762283E+02 -0.14874897468E+02 -0.58025166775E+01  0.59265866166E+02  0.47000000000E+01 0. -1.
         -5    1    4    4    0  503 -0.20980228975E+02  0.58728740120E+02 -0.40291522029E+02  0.74395777241E+02  0.47000000000E+01 0.  1.
          5    1    4    4  503    0  0.26651995272E+02 -0.22747054472E+02 -0.30620881121E+02  0.46770564458E+02  0.47000000000E+01 0. -1.
         -5    1    3    3    0  502 -0.62552528580E+02 -0.21106788180E+02 -0.47283288383E+02  0.81339502699E+02  0.47000000000E+01 0. -1.
<mgrwt>
<rscale>  0 0.12134917E+03</rscale>
<asrwt>0</asrwt>
<pdfrwt beam="1">  1        1 0.29674608E-01 0.13019895E+03</pdfrwt>
<pdfrwt beam="2">  1       -1 0.10597962E-01 0.13019895E+03</pdfrwt>
<totfact> 0.80689888E+03</totfact>
</mgrwt>
</event>
<event>
 8    1  0.3572165E-004  0.1272434E+03  0.7546771E-02  0.1244839E+00
         -1   -1    0    0    0  501 -0.00000000000E+00  0.00000000000E+00  0.10287812206E+03  0.10287812206E+03  0.00000000000E+00 0.  1.
          1   -1    0    0  501    0  0.00000000000E+00 -0.00000000000E+00 -0.13711627446E+03  0.13711627446E+03  0.00000000000E+00 0. -1.
         25    2    1    2    0    0 -0.22391100280E+02 -0.80592113594E+01  0.19847204312E+02  0.12878194050E+03  0.12499825767E+03 0.  0.
         23    2    1    2    0    0  0.22391100280E+02  0.80592113594E+01 -0.54085356714E+02  0.11121245601E+03  0.94216093643E+02 0.  0.
          5    1    3    3  502    0  0.12249807997E+02 -0.61008617146E+02  0.19338632933E+02  0.65331323924E+02  0.47000000000E+01 0. -1.
         -5    1    3    3    0  502 -0.34640908277E+02  0.52949405786E+02  0.50857137914E+00  0.63450616579E+02  0.47000000000E+01 0. -1.
          5    1    4    4  503    0 -0.23257458015E+02  0.15465074206E+02 -0.58018747340E+02  0.64562705306E+02  0.47000000000E+01 0. -1.
         -5    1    4    4    0  503  0.45648558295E+02 -0.74058628465E+01  0.39333906260E+01  0.46649750704E+02  0.47000000000E+01 0.  1.
<mgrwt>
<rscale>  0 0.11895016E+03</rscale>
<asrwt>0</asrwt>
<pdfrwt beam="1">  1        1 0.21094811E-01 0.12724338E+03</pdfrwt>
<pdfrwt beam="2">  1       -1 0.15827403E-01 0.12724338E+03</pdfrwt>
<totfact> 0.66371289E+03</totfact>
</mgrwt>
</event>
<event>
 8    1  0.3572165E-004  0.1537761E+03  0.7546771E-02  0.1204767E+00
          2   -1    0    0  501    0  0.00000000000E+00  0.00000000000E+00  0.21744600373E+03  0.21744600373E+03  0.00000000000E+00 0. -1.
         -2   -1    0    0    0  501 -0.00000000000E+00 -0.00000000000E+00 -0.96379148848E+02  0.96379148848E+02  0.00000000000E+00 0.  1.
         25    2    1    2    0    0  0.54403536138E+02 -0.71136789719E+02  0.10438724769E+03  0.18585962654E+03  0.12500766258E+03 0.  0.
         23    2    1    2    0    0 -0.54403536138E+02  0.71136789719E+02  0.16679607195E+02  0.12796552604E+03  0.89870901642E+02 0.  0.
          5    1    3    3  502    0  0.36158111755E+02 -0.95225374718E+02  0.11480711286E+03  0.15355143829E+03  0.47000000000E+01 0. -1.
         -5    1    4    4    0  503 -0.12741356275E+02  0.76563347816E+02 -0.93500540772E+01  0.78318592299E+02  0.47000000000E+01 0.  1.
          5    1    4    4  503    0 -0.41662179863E+02 -0.54265580962E+01  0.26029661272E+02  0.49646933738E+02  0.47000000000E+01 0. -1.
         -5    1    3    3    0  502  0.18245424382E+02  0.24088584999E+02 -0.10419865174E+02  0.32308188256E+02  0.47000000000E+01 0. -1.
<mgrwt>
<rscale>  0 0.14655807E+03</rscale>
<asrwt>0</asrwt>
<pdfrwt beam="1">  1        2 0.33453231E-01 0.15377615E+03</pdfrwt>
<pdfrwt beam="2">  1       -2 0.14827561E-01 0.15377615E+03</pdfrwt>
<totfact> 0.52247477E+03</totfact>
</mgrwt>
</event>
<event>
 8    1  0.3572165E-004  0.1468960E+03  0.7546771E-02  0.1213941E+00
          4   -1    0    0  501    0  0.00000000000E+00  0.00000000000E+00  0.91885713057E+02  0.91885713057E+02  0.00000000000E+00 0.  1.
         -4   -1    0    0    0  501 -0.00000000000E+00 -0.00000000000E+00 -0.19576578563E+03  0.19576578563E+03  0.00000000000E+00 0. -1.
         25    2    1    2    0    0  0.77108395210E+02 -0.39355626862E+01 -0.41044700940E+02  0.15252242487E+03  0.12496891353E+03 0.  0.
         23    2    1    2    0    0 -0.77108395210E+02  0.39355626862E+01 -0.62835371632E+02  0.13512907381E+03  0.91380465067E+02 0.  0.
          5    1    3    3  502    0 -0.19709057338E+02 -0.35810818885E+02  0.32738075475E+01  0.41275531568E+02  0.47000000000E+01 0. -1.
         -5    1    4    4    0  503 -0.23811868460E+02  0.45551802495E+02 -0.22998492788E+02  0.56506570066E+02  0.47000000000E+01 0.  1.
          5    1    4    4  503    0 -0.53296526750E+02 -0.41616239809E+02 -0.39836878844E+02  0.78622503747E+02  0.47000000000E+01 0. -1.
         -5    1    3    3    0  502  0.96817452548E+02  0.31875256199E+02 -0.44318508487E+02  0.11124689331E+03  0.47000000000E+01 0. -1.
<mgrwt>
<rscale>  0 0.13954631E+03</rscale>
<asrwt>0</asrwt>
<pdfrwt beam="1">  1        4 0.14136264E-01 0.14689596E+03</pdfrwt>
<pdfrwt beam="2">  1       -4 0.30117813E-01 0.14689596E+03</pdfrwt>
<totfact> 0.74177850E+02</totfact>
</mgrwt>
</event>
<event>
 8    1  0.3572165E-004  0.1494942E+03  0.7546771E-02  0.1210515E+00
         -2   -1    0    0    0  501 -0.00000000000E+00  0.00000000000E+00  0.43721187369E+02  0.43721187369E+02  0.00000000000E+00 0.  1.
          2   -1    0    0  501    0  0.00000000000E+00 -0.00000000000E+00 -0.42651764283E+03  0.42651764283E+03  0.00000000000E+00 0. -1.
         25    2    1    2    0    0 -0.38788366382E+02  0.72242909188E+02 -0.18570678802E+03  0.23840203336E+03  0.12499977240E+03 0.  0.
         23    2    1    2    0    0  0.38788366382E+02 -0.72242909188E+02 -0.19708966744E+03  0.23183679684E+03  0.90445497741E+02 0.  0.
          5    1    3    3  502    0 -0.11515733514E+02  0.84038797773E+02 -0.48267125156E+02  0.97708428604E+02  0.47000000000E+01 0. -1.
         -5    1    3    3    0  502 -0.27272632869E+02 -0.11795888585E+02 -0.13743966286E+03  0.14069360475E+03  0.47000000000E+01 0. -1.
          5    1    4    4  503    0 -0.23178312624E+02 -0.26567337819E+02 -0.10949620111E+03  0.11512847464E+03  0.47000000000E+01 0. -1.
         -5    1    4    4    0  503  0.61966679006E+02 -0.45675571369E+02 -0.87593466329E+02  0.11670832220E+03  0.47000000000E+01 0.  1.
<mgrwt>
<rscale>  0 0.14211208E+03</rscale>
<asrwt>0</asrwt>
<pdfrwt beam="1">  1        2 0.65618098E-01 0.14949421E+03</pdfrwt>
<pdfrwt beam="2">  1       -2 0.67263366E-02 0.14949421E+03</pdfrwt>
<totfact> 0.88383449E+03</totfact>
</mgrwt>
</event>
<event>
 8    1  0.3572165E-004  0.1438664E+03  0.7546771E-02  0.1220847E+00
         -2   -1    0    0    0  501 -0.00000000000E+00  0.00000000000E+00  0.24474953416E+02  0.24474953416E+02  0.00000000000E+00 0.  1.
          2   -1    0    0  501    0  0.00000000000E+00 -0.00000000000E+00 -0.70665489223E+03  0.70665489223E+03  0.00000000000E+00 0. -1.
         25    2    1    2    0    0  0.63551371168E+02  0.32165767331E+02 -0.28900297631E+03  0.32283164351E+03  0.12499654543E+03 0.  0.
         23    2    1    2    0    0 -0.63551371168E+02 -0.32165767331E+02 -0.39317696250E+03  0.40829820214E+03  0.83939768049E+02 0.  0.
          5    1    4    4  502    0 -0.45993556949E+02 -0.60101713777E+02 -0.24737862127E+03  0.25873904913E+03  0.47000000000E+01 0. -1.
         -5    1    3    3    0  503  0.16172209490E+02 -0.37498408208E+02 -0.18187805940E+03  0.18646551818E+03  0.47000000000E+01 0.  1.
          5    1    3    3  503    0  0.47379161678E+02  0.69664175540E+02 -0.10712491691E+03  0.13636612533E+03  0.47000000000E+01 0.  1.
         -5    1    4    4    0  502 -0.17557814218E+02  0.27935946446E+02 -0.14579834123E+03  0.14955915301E+03  0.47000000000E+01 0.  1.
<mgrwt>
<rscale>  0 0.13455638E+03</rscale>
<asrwt>0</asrwt>
<pdfrwt beam="1">  1        2 0.10871614E+00 0.14386643E+03</pdfrwt>
<pdfrwt beam="2">  1       -2 0.37653773E-02 0.14386643E+03</pdfrwt>
<totfact> 0.11965887E+04</totfact>
</mgrwt>
</event>
<event>
 8    1  0.3572165E-004  0.1803186E+03  0.7546771E-02  0.1172225E+00
         -1   -1    0    0    0  501 -0.00000000000E+00  0.00000000000E+00  0.39995902511E+03  0.39995902511E+03  0.00000000000E+00 0.  1.
          1   -1    0    0  501    0  0.00000000000E+00 -0.00000000000E+00 -0.83838508068E+02  0.83838508068E+02  0.00000000000E+00 0. -1.
         25    2    1    2    0    0 -0.73483412187E+02  0.10718671630E+03  0.25169437709E+03  0.30962050680E+03  0.12500397895E+03 0.  0.
         23    2    1    2    0    0  0.73483412187E+02 -0.10718671630E+03  0.64426139953E+02  0.17417702638E+03  0.96426681947E+02 0.  0.
          5    1    4    4  502    0  0.64120061291E+02 -0.12994934899E+02  0.37932875224E+02  0.75770994554E+02  0.47000000000E+01 0. -1.
         -5    1    4    4    0  502  0.93633508965E+01 -0.94191781403E+02  0.26493264728E+02  0.98406031826E+02  0.47000000000E+01 0.  1.
          5    1    3    3  503    0 -0.87088437132E+02  0.89160690606E+02  0.11074200555E+03  0.16679300472E+03  0.47000000000E+01 0. -1.
         -5    1    3    3    0  503  0.13605024945E+02  0.18026025696E+02  0.14095237154E+03  0.14282750207E+03  0.47000000000E+01 0. -1.
<mgrwt>
<rscale>  0 0.17550558E+03</rscale>
<asrwt>0</asrwt>
<pdfrwt beam="1">  1        1 0.12898232E-01 0.18031860E+03</pdfrwt>
<pdfrwt beam="2">  1       -1 0.61532157E-01 0.18031860E+03</pdfrwt>
<totfact> 0.12479856E+03</totfact>
</mgrwt>
</event>
<event>
 8    1  0.3572165E-004  0.2090136E+03  0.7546771E-02  0.1146249E+00
         -1   -1    0    0    0  501 -0.00000000000E+00  0.00000000000E+00  0.39921970311E+02  0.39921970311E+02  0.00000000000E+00 0.  1.
          1   -1    0    0  501    0  0.00000000000E+00 -0.00000000000E+00 -0.10375573540E+04  0.10375573540E+04  0.00000000000E+00 0. -1.
         25    2    1    2    0    0 -0.40487870308E+02  0.16254952974E+03 -0.41740248708E+03  0.46680996322E+03  0.12500035311E+03 0.  0.
         23    2    1    2    0    0  0.40487870308E+02 -0.16254952974E+03 -0.58023289663E+03  0.61066936111E+03  0.90472299690E+02 0.  0.
          5    1    3    3  502    0 -0.20025563658E+02  0.17476270173E+03 -0.30781825773E+03  0.35456620666E+03  0.47000000000E+01 0. -1.
         -5    1    3    3    0  502 -0.20462306650E+02 -0.12213171988E+02 -0.10958422936E+03  0.11224375656E+03  0.47000000000E+01 0. -1.
          5    1    4    4  503    0 -0.19180849748E+02 -0.90521635401E+02 -0.35153221903E+03  0.36353687914E+03  0.47000000000E+01 0. -1.
         -5    1    4    4    0  503  0.59668720056E+02 -0.72027894337E+02 -0.22870067759E+03  0.24713248198E+03  0.47000000000E+01 0.  1.
<mgrwt>
<rscale>  0 0.20419250E+03</rscale>
<asrwt>0</asrwt>
<pdfrwt beam="1">  1        1 0.15962421E+00 0.20901365E+03</pdfrwt>
<pdfrwt beam="2">  1       -1 0.61418414E-02 0.20901365E+03</pdfrwt>
<totfact> 0.19293226E+03</totfact>
</mgrwt>
</event>
<event>
 8    1  0.3572165E-004  0.1335990E+03  0.7546771E-02  0.1235140E+00
         -1   -1    0    0    0  501 -0.00000000000E+00  0.00000000000E+00  0.55844606113E+02  0.55844606113E+02  0.00000000000E+00 0.  1.
          1   -1    0    0  501    0  0.00000000000E+00 -0.00000000000E+00 -0.26005248329E+03  0.26005248329E+03  0.00000000000E+00 0. -1.
         25    2    1    2    0    0 -0.44500606241E+02 -0.15554766427E+02 -0.14741462775E+03  0.19894660685E+03  0.12500570062E+03 0.  0.
         23    2    1    2    0    0  0.44500606241E+02  0.15554766427E+02 -0.56793249432E+02  0.11695048256E+03  0.90717624946E+02 0.  0.
          5    1    4    4  502    0  0.40005230028E+02 -0.33552509334E+02 -0.33478130007E+02  0.62201804644E+02  0.47000000000E+01 0. -1.
         -5    1    4    4    0  502  0.44953762131E+01  0.49107275760E+02 -0.23315119425E+02  0.54748677917E+02  0.47000000000E+01 0.  1.
          5    1    3    3  503    0  0.15861769374E+02  0.42574402190E+02 -0.76351206970E+02  0.88970625800E+02  0.47000000000E+01 0. -1.
         -5    1    3    3    0  503 -0.60362375616E+02 -0.58129168617E+02 -0.71063420779E+02  0.10997598105E+03  0.47000000000E+01 0. -1.
<mgrwt>
<rscale>  0 0.12495450E+03</rscale>
<asrwt>0</asrwt>
<pdfrwt beam="1">  1        1 0.40008074E-01 0.13359895E+03</pdfrwt>
<pdfrwt beam="2">  1       -1 0.85914779E-02 0.13359895E+03</pdfrwt>
<totfact> 0.76848283E+03</totfact>
</mgrwt>
</event>
<event>
 8    1  0.3572165E-004  0.5370323E+03  0.7546771E-02  0.1004868E+00
         -2   -1    0    0    0  501 -0.00000000000E+00  0.00000000000E+00  0.20992152543E+03  0.20992152543E+03  0.00000000000E+00 0.  1.
          2   -1    0    0  501    0  0.00000000000E+00 -0.00000000000E+00 -0.14640055722E+04  0.14640055722E+04  0.00000000000E+00 0. -1.
         25    2    1    2    0    0 -0.50303645354E+03 -0.14048159381E+03 -0.85316903776E+03  0.10081176060E+04  0.12499179451E+03 0.  0.
         23    2    1    2    0    0  0.50303645354E+03  0.14048159381E+03 -0.40091500904E+03  0.66580949168E+03  0.98937773155E+02 0.  0.
          5    1    3    3  502    0 -0.38458515673E+03 -0.15030236338E+03 -0.59963739766E+03  0.72806843215E+03  0.47000000000E+01 0. -1.
         -5    1    4    4    0  503  0.48103877530E+03  0.11475475966E+03 -0.39032026066E+03  0.63003091518E+03  0.47000000000E+01 0.  1.
          5    1    4    4  503    0  0.21997678240E+02  0.25726834150E+02 -0.10594748382E+02  0.35778576503E+02  0.47000000000E+01 0. -1.
         -5    1    3    3    0  502 -0.11845129681E+03  0.98207695698E+01 -0.25353164010E+03  0.28004917383E+03  0.47000000000E+01 0. -1.
<mgrwt>
<rscale>  0 0.53566215E+03</rscale>
<asrwt>0</asrwt>
<pdfrwt beam="1">  1        2 0.22523163E+00 0.53703231E+03</pdfrwt>
<pdfrwt beam="2">  1       -2 0.32295618E-01 0.53703231E+03</pdfrwt>
<totfact> 0.12334957E+02</totfact>
</mgrwt>
</event>
<event>
 8    1  0.3572165E-004  0.1451416E+03  0.7546771E-02  0.1216061E+00
         -1   -1    0    0    0  501 -0.00000000000E+00  0.00000000000E+00  0.27347225567E+02  0.27347225567E+02  0.00000000000E+00 0.  1.
          1   -1    0    0  501    0  0.00000000000E+00 -0.00000000000E+00 -0.65577821246E+03  0.65577821246E+03  0.00000000000E+00 0. -1.
         25    2    1    2    0    0  0.39512780095E+02  0.62286481475E+02 -0.28555900720E+03  0.32032799461E+03  0.12500084790E+03 0.  0.
         23    2    1    2    0    0 -0.39512780095E+02 -0.62286481475E+02 -0.34287197970E+03  0.36279744342E+03  0.92843550781E+02 0.  0.
          5    1    4    4  502    0  0.20080563855E+02  0.47247083605E+01 -0.13074682509E+03  0.13244762808E+03  0.47000000000E+01 0. -1.
         -5    1    3    3    0  503  0.12160417577E+02  0.85340095759E+02 -0.26520703086E+03  0.27890440463E+03  0.47000000000E+01 0. -1.
          5    1    3    3  503    0  0.27352362519E+02 -0.23053614284E+02 -0.20351976333E+02  0.41423589989E+02  0.47000000000E+01 0. -1.
         -5    1    4    4    0  502 -0.59593343950E+02 -0.67011189835E+02 -0.21212515461E+03  0.23034981534E+03  0.47000000000E+01 0.  1.
<mgrwt>
<rscale>  0 0.13798920E+03</rscale>
<asrwt>0</asrwt>
<pdfrwt beam="1">  1        1 0.10088895E+00 0.14514158E+03</pdfrwt>
<pdfrwt beam="2">  1       -1 0.42072658E-02 0.14514158E+03</pdfrwt>
<totfact> 0.68335124E+03</totfact>
</mgrwt>
</event>
<event>
 8    1  0.3572165E-004  0.1397101E+03  0.7546771E-02  0.1222378E+00
          1   -1    0    0  501    0  0.00000000000E+00  0.00000000000E+00  0.37204773380E+03  0.37204773380E+03  0.00000000000E+00 0. -1.
         -1   -1    0    0    0  501 -0.00000000000E+00 -0.00000000000E+00 -0.44080828512E+02  0.44080828512E+02  0.00000000000E+00 0.  1.
         25    2    1    2    0    0 -0.60829345079E+02 -0.13914072301E+02  0.17900710773E+03  0.22707370108E+03  0.12500044190E+03 0.  0.
         23    2    1    2    0    0  0.60829345079E+02  0.13914072301E+02  0.14895979756E+03  0.18905486123E+03  0.98279746820E+02 0.  0.
          5    1    3    3  502    0  0.34382383836E+02 -0.24086033192E+02  0.39722972797E+02  0.57985255721E+02  0.47000000000E+01 0. -1.
         -5    1    4    4    0  503 -0.61483312631E+00 -0.36480667110E+02  0.45348530474E+02  0.58393461181E+02  0.47000000000E+01 0.  1.
          5    1    4    4  503    0  0.61444178206E+02  0.50394739411E+02  0.10361126709E+03  0.13066140005E+03  0.47000000000E+01 0. -1.
         -5    1    3    3    0  502 -0.95211728915E+02  0.10171960892E+02  0.13928413493E+03  0.16908844536E+03  0.47000000000E+01 0. -1.
<mgrwt>
<rscale>  0 0.13348247E+03</rscale>
<asrwt>0</asrwt>
<pdfrwt beam="1">  1        1 0.57238111E-01 0.13971013E+03</pdfrwt>
<pdfrwt beam="2">  1       -1 0.67816662E-02 0.13971013E+03</pdfrwt>
<totfact> 0.70551789E+03</totfact>
</mgrwt>
</event>
<event>
 8    1  0.3572165E-004  0.2858605E+03  0.7546771E-02  0.1094183E+00
          1   -1    0    0  501    0  0.00000000000E+00  0.00000000000E+00  0.33697682279E+03  0.33697682279E+03  0.00000000000E+00 0. -1.
         -1   -1    0    0    0  501 -0.00000000000E+00 -0.00000000000E+00 -0.24173845136E+03  0.24173845136E+03  0.00000000000E+00 0.  1.
         25    2    1    2    0    0  0.62313001467E+02 -0.24941672496E+03  0.10575636641E+03  0.30479604771E+03  0.12499843527E+03 0.  0.
         23    2    1    2    0    0 -0.62313001467E+02  0.24941672496E+03 -0.10517994969E+02  0.27391922644E+03  0.93965427454E+02 0.  0.
          5    1    3    3  502    0  0.53786289185E+02 -0.19992221236E+03  0.23647442460E+02  0.20843019799E+03  0.47000000000E+01 0.  1.
         -5    1    4    4    0  503  0.11377398261E+02  0.21311324640E+02 -0.23203562353E+02  0.33824740279E+02  0.47000000000E+01 0.  1.
          5    1    4    4  503    0 -0.73690399728E+02  0.22810540032E+03  0.12685567384E+02  0.24009448617E+03  0.47000000000E+01 0. -1.
         -5    1    3    3    0  502  0.85267122822E+01 -0.49494512603E+02  0.82108923948E+02  0.96365849719E+02  0.47000000000E+01 0.  1.
<mgrwt>
<rscale>  0 0.28277508E+03</rscale>
<asrwt>0</asrwt>
<pdfrwt beam="1">  1        1 0.51842588E-01 0.28586049E+03</pdfrwt>
<pdfrwt beam="2">  1       -1 0.37190531E-01 0.28586049E+03</pdfrwt>
<totfact> 0.53321478E+02</totfact>
</mgrwt>
</event>
<event>
 8    1  0.3572165E-004  0.1605101E+03  0.7546771E-02  0.1195271E+00
         -2   -1    0    0    0  501 -0.00000000000E+00  0.00000000000E+00  0.39212031914E+02  0.39212031914E+02  0.00000000000E+00 0.  1.
          2   -1    0    0  501    0  0.00000000000E+00 -0.00000000000E+00 -0.56507406267E+03  0.56507406267E+03  0.00000000000E+00 0. -1.
         25    2    1    2    0    0  0.31338980964E+02  0.95721305414E+02 -0.27669351118E+03  0.31987933183E+03  0.12497514859E+03 0.  0.
         23    2    1    2    0    0 -0.31338980964E+02 -0.95721305414E+02 -0.24916851958E+03  0.28440676275E+03  0.93045986022E+02 0.  0.
          5    1    4    4  502    0 -0.61547440237E+02 -0.43801044021E+02 -0.11998559667E+03  0.14186349870E+03  0.47000000000E+01 0. -1.
         -5    1    4    4    0  502  0.30208459273E+02 -0.51920261393E+02 -0.12918292291E+03  0.14254326405E+03  0.47000000000E+01 0.  1.
          5    1    3    3  503    0  0.24075914576E+02  0.47796562034E+02 -0.26419462158E+03  0.26960164888E+03  0.47000000000E+01 0. -1.
         -5    1    3    3    0  503  0.72630663880E+01  0.47924743380E+02 -0.12498889593E+02  0.50277682946E+02  0.47000000000E+01 0. -1.
<mgrwt>
<rscale>  0 0.15431317E+03</rscale>
<asrwt>0</asrwt>
<pdfrwt beam="1">  1        2 0.86934468E-01 0.16051009E+03</pdfrwt>
<pdfrwt beam="2">  1       -2 0.60326205E-02 0.16051009E+03</pdfrwt>
<totfact> 0.76889132E+03</totfact>
</mgrwt>
</event>
<event>
 8    1  0.3572165E-004  0.1710633E+03  0.7546771E-02  0.1183246E+00
         -2   -1    0    0    0  501 -0.00000000000E+00  0.00000000000E+00  0.48060204120E+02  0.48060204120E+02  0.00000000000E+00 0.  1.
          2   -1    0    0  501    0  0.00000000000E+00 -0.00000000000E+00 -0.58469033898E+03  0.58469033898E+03  0.00000000000E+00 0. -1.
         25    2    1    2    0    0  0.99850913842E+02  0.60542288370E+02 -0.18851893372E+03  0.25456247684E+03  0.12500836998E+03 0.  0.
         23    2    1    2    0    0 -0.99850913842E+02 -0.60542288370E+02 -0.34811120114E+03  0.37818806626E+03  0.90604809090E+02 0.  0.
          5    1    4    4  502    0 -0.38810506700E+02  0.24311162943E+01 -0.21615885888E+03  0.21967910240E+03  0.47000000000E+01 0. -1.
         -5    1    3    3    0  503 -0.25972213882E+02  0.10172249050E+02 -0.65981324875E+02  0.71788966958E+02  0.47000000000E+01 0.  1.
          5    1    3    3  503    0  0.12582312772E+03  0.50370039319E+02 -0.12253760885E+03  0.18277350988E+03  0.47000000000E+01 0.  1.
         -5    1    4    4    0  502 -0.61040407142E+02 -0.62973404664E+02 -0.13195234225E+03  0.15850896386E+03  0.47000000000E+01 0. -1.
<mgrwt>
<rscale>  0 0.16492490E+03</rscale>
<asrwt>0</asrwt>
<pdfrwt beam="1">  1        2 0.89952355E-01 0.17106334E+03</pdfrwt>
<pdfrwt beam="2">  1       -2 0.73938779E-02 0.17106334E+03</pdfrwt>
<totfact> 0.54313671E+03</totfact>
</mgrwt>
</event>
<event>
 8    1  0.3572165E-004  0.1646490E+03  0.7546771E-02  0.1190674E+00
         -1   -1    0    0    0  501 -0.00000000000E+00  0.00000000000E+00  0.72800383559E+02  0.72800383559E+02  0.00000000000E+00 0.  1.
          1   -1    0    0  501    0  0.00000000000E+00 -0.00000000000E+00 -0.32244132665E+03  0.32244132665E+03  0.00000000000E+00 0. -1.
         25    2    1    2    0    0  0.10710927660E+03 -0.30472140558E+01 -0.15221758539E+03  0.22423087886E+03  0.12501044390E+03 0.  0.
         23    2    1    2    0    0 -0.10710927660E+03  0.30472140558E+01 -0.97423357698E+02  0.17101083135E+03  0.90948948131E+02 0.  0.
          5    1    3    3  502    0  0.23848312396E+02  0.29505636131E+02  0.94975106556E+01  0.39390573444E+02  0.47000000000E+01 0.  1.
         -5    1    4    4    0  503 -0.49443118298E+02 -0.12102391899E+02  0.60706073778E+01  0.51478462590E+02  0.47000000000E+01 0.  1.
          5    1    4    4  503    0 -0.57666158304E+02  0.15149605955E+02 -0.10349396508E+03  0.11953236876E+03  0.47000000000E+01 0. -1.
         -5    1    3    3    0  502  0.83260964206E+02 -0.32552850187E+02 -0.16171509605E+03  0.18484030542E+03  0.47000000000E+01 0.  1.
<mgrwt>
<rscale>  0 0.15826123E+03</rscale>
<asrwt>0</asrwt>
<pdfrwt beam="1">  1        1 0.49606358E-01 0.16464900E+03</pdfrwt>
<pdfrwt beam="2">  1       -1 0.11200059E-01 0.16464900E+03</pdfrwt>
<totfact> 0.39725473E+03</totfact>
</mgrwt>
</event>
<event>
 8    1  0.3572165E-004  0.1637783E+03  0.7546771E-02  0.1192089E+00
          2   -1    0    0  501    0  0.00000000000E+00  0.00000000000E+00  0.13244790743E+04  0.13244790743E+04  0.00000000000E+00 0. -1.
         -2   -1    0    0    0  501 -0.00000000000E+00 -0.00000000000E+00 -0.17461578448E+02  0.17461578448E+02  0.00000000000E+00 0.  1.
         25    2    1    2    0    0 -0.64119570809E+02  0.84178785322E+02  0.78347324253E+03  0.80040842922E+03  0.12500377812E+03 0.  0.
         23    2    1    2    0    0  0.64119570809E+02 -0.84178785322E+02  0.52354425334E+03  0.54153222355E+03  0.89225426171E+02 0.  0.
          5    1    4    4  502    0  0.43343963620E+02 -0.84509317544E+02  0.50309330726E+03  0.51200145483E+03  0.47000000000E+01 0. -1.
         -5    1    3    3    0  503 -0.40350945085E+02  0.11611878727E+03  0.62043644492E+03  0.63251501461E+03  0.47000000000E+01 0. -1.
          5    1    3    3  503    0 -0.23768625724E+02 -0.31940001945E+02  0.16303679761E+03  0.16789341461E+03  0.47000000000E+01 0. -1.
         -5    1    4    4    0  502  0.20775607189E+02  0.33053222155E+00  0.20450946076E+02  0.29530768717E+02  0.47000000000E+01 0.  1.
<mgrwt>
<rscale>  0 0.15703181E+03</rscale>
<asrwt>0</asrwt>
<pdfrwt beam="1">  1        2 0.20376593E+00 0.16377830E+03</pdfrwt>
<pdfrwt beam="2">  1       -2 0.26863977E-02 0.16377830E+03</pdfrwt>
<totfact> 0.83385967E+03</totfact>
</mgrwt>
</event>
<event>
 8    1  0.3572165E-004  0.2617161E+03  0.7546771E-02  0.1108398E+00
          2   -1    0    0  501    0  0.00000000000E+00  0.00000000000E+00  0.24696813263E+03  0.24696813263E+03  0.00000000000E+00 0. -1.
         -2   -1    0    0    0  501 -0.00000000000E+00 -0.00000000000E+00 -0.32028327135E+03  0.32028327135E+03  0.00000000000E+00 0.  1.
         25    2    1    2    0    0 -0.16317778623E+03 -0.16199649156E+03  0.83585927400E+02  0.27473978246E+03  0.12500195042E+03 0.  0.
         23    2    1    2    0    0  0.16317778623E+03  0.16199649156E+03 -0.15690106612E+03  0.29251162152E+03  0.89862400250E+02 0.  0.
          5    1    3    3  502    0 -0.19504744220E+02 -0.10505595986E+03  0.38683215700E+02  0.11373509101E+03  0.47000000000E+01 0.  1.
         -5    1    3    3    0  502 -0.14367304201E+03 -0.56940531692E+02  0.44902711700E+02  0.16100469145E+03  0.47000000000E+01 0.  1.
          5    1    4    4  503    0  0.75087577057E+02  0.78933020576E+02 -0.22105798886E+02  0.11126240295E+03  0.47000000000E+01 0. -1.
         -5    1    4    4    0  503  0.88090209173E+02  0.83063470980E+02 -0.13479526724E+03  0.18124921857E+03  0.47000000000E+01 0.  1.
<mgrwt>
<rscale>  0 0.25792310E+03</rscale>
<asrwt>0</asrwt>
<pdfrwt beam="1">  1        2 0.37995097E-01 0.26171615E+03</pdfrwt>
<pdfrwt beam="2">  1       -2 0.49274350E-01 0.26171615E+03</pdfrwt>
<totfact> 0.53656352E+02</totfact>
</mgrwt>
</event>
<event>
 8    1  0.3572165E-004  0.1837643E+03  0.7546771E-02  0.1169657E+00
         -1   -1    0    0    0  501 -0.00000000000E+00  0.00000000000E+00  0.87819892964E+02  0.87819892964E+02  0.00000000000E+00 0.  1.
          1   -1    0    0  501    0  0.00000000000E+00 -0.00000000000E+00 -0.34552670530E+03  0.34552670530E+03  0.00000000000E+00 0. -1.
         25    2    1    2    0    0 -0.78680336029E+02  0.10932870562E+03 -0.16267594554E+03  0.24542368415E+03  0.12500384128E+03 0.  0.
         23    2    1    2    0    0  0.78680336029E+02 -0.10932870562E+03 -0.95030866793E+02  0.18792291411E+03  0.90226353439E+02 0.  0.
          5    1    4    4  502    0  0.24488407437E+02 -0.34609439499E+02 -0.84815408803E+02  0.94938079671E+02  0.47000000000E+01 0. -1.
         -5    1    4    4    0  502  0.54191928592E+02 -0.74719266121E+02 -0.10215457991E+02  0.92984834442E+02  0.47000000000E+01 0.  1.
          5    1    3    3  503    0 -0.54894817682E+02  0.12889082948E+03 -0.90600351620E+02  0.16690356691E+03  0.47000000000E+01 0.  1.
         -5    1    3    3    0  503 -0.23785518347E+02 -0.19562123860E+02 -0.72075593918E+02  0.78520117241E+02  0.47000000000E+01 0.  1.
<mgrwt>
<rscale>  0 0.17809742E+03</rscale>
<asrwt>0</asrwt>
<pdfrwt beam="1">  1        1 0.53157955E-01 0.18376431E+03</pdfrwt>
<pdfrwt beam="2">  1       -1 0.13510753E-01 0.18376431E+03</pdfrwt>
<totfact> 0.27333025E+03</totfact>
</mgrwt>
</event>
<event>
 8    1  0.3572165E-004  0.3118674E+03  0.7546771E-02  0.1080675E+00
          2   -1    0    0  501    0  0.00000000000E+00  0.00000000000E+00  0.13254593234E+04  0.13254593234E+04  0.00000000000E+00 0. -1.
         -2   -1    0    0    0  501 -0.00000000000E+00 -0.00000000000E+00 -0.10553760593E+03  0.10553760593E+03  0.00000000000E+00 0.  1.
         25    2    1    2    0    0 -0.25265366435E+03  0.13341788850E+03  0.20758459504E+03  0.37463671398E+03  0.12500838484E+03 0.  0.
         23    2    1    2    0    0  0.25265366435E+03 -0.13341788850E+03  0.10123371224E+04  0.10563602154E+04  0.97140352400E+02 0.  0.
          5    1    3    3  502    0 -0.64647289556E+02  0.69859796286E+02  0.12159938985E+02  0.96070897259E+02  0.47000000000E+01 0. -1.
         -5    1    3    3    0  502 -0.18800637480E+03  0.63558092211E+02  0.19542465606E+03  0.27856581672E+03  0.47000000000E+01 0. -1.
          5    1    4    4  503    0  0.41127795591E+02  0.12752923468E+02  0.18364279636E+03  0.18868200572E+03  0.47000000000E+01 0. -1.
         -5    1    4    4    0  503  0.21152586876E+03 -0.14617081197E+03  0.82869432608E+03  0.86767820965E+03  0.47000000000E+01 0.  1.
<mgrwt>
<rscale>  0 0.30931410E+03</rscale>
<asrwt>0</asrwt>
<pdfrwt beam="1">  1        2 0.20391681E+00 0.31186745E+03</pdfrwt>
<pdfrwt beam="2">  1       -2 0.16236556E-01 0.31186745E+03</pdfrwt>
<totfact> 0.50927198E+02</totfact>
</mgrwt>
</event>
<event>
 8    1  0.3572165E-004  0.1274395E+03  0.7546771E-02  0.1246908E+00
          1   -1    0    0  501    0  0.00000000000E+00  0.00000000000E+00  0.98728777387E+03  0.98728777387E+03  0.00000000000E+00 0. -1.
         -1   -1    0    0    0  501 -0.00000000000E+00 -0.00000000000E+00 -0.12467579524E+02  0.12467579524E+02  0.00000000000E+00 0.  1.
         25    2    1    2    0    0  0.91252175729E+01 -0.23052780349E+02  0.50253006663E+03  0.51843735202E+03  0.12500447918E+03 0.  0.
         23    2    1    2    0    0 -0.91252175729E+01  0.23052780349E+02  0.47229012771E+03  0.48131800137E+03  0.89411148297E+02 0.  0.
          5    1    3    3  502    0  0.41806240264E+02 -0.59354085803E+02  0.37068489706E+03  0.37775660436E+03  0.47000000000E+01 0. -1.
         -5    1    4    4    0  503  0.18687244432E+02 -0.24432047661E+02  0.93976021963E+02  0.98993538988E+02  0.47000000000E+01 0.  1.
          5    1    4    4  503    0 -0.27812462005E+02  0.47484828011E+02  0.37831410574E+03  0.38232446239E+03  0.47000000000E+01 0. -1.
         -5    1    3    3    0  502 -0.32681022692E+02  0.36301305453E+02  0.13184516957E+03  0.14068074766E+03  0.47000000000E+01 0. -1.
<mgrwt>
<rscale>  0 0.11771923E+03</rscale>
<asrwt>0</asrwt>
<pdfrwt beam="1">  1        1 0.15189037E+00 0.12743948E+03</pdfrwt>
<pdfrwt beam="2">  1       -1 0.19180899E-02 0.12743948E+03</pdfrwt>
<totfact> 0.11421406E+04</totfact>
</mgrwt>
</event>
<event>
 8    1  0.3572165E-004  0.1382459E+03  0.7546771E-02  0.1227833E+00
          2   -1    0    0  501    0  0.00000000000E+00  0.00000000000E+00  0.89631694226E+03  0.89631694226E+03  0.00000000000E+00 0. -1.
         -2   -1    0    0    0  501 -0.00000000000E+00 -0.00000000000E+00 -0.17273912767E+02  0.17273912767E+02  0.00000000000E+00 0.  1.
         25    2    1    2    0    0  0.40228393435E+02  0.43304837691E+02  0.41929613118E+03  0.44149876998E+03  0.12497313979E+03 0.  0.
         23    2    1    2    0    0 -0.40228393435E+02 -0.43304837691E+02  0.45974689832E+03  0.47209208505E+03  0.89499126508E+02 0.  0.
          5    1    3    3  502    0  0.79121579116E+02  0.54795325105E+02  0.31821775405E+03  0.33248666278E+03  0.47000000000E+01 0. -1.
         -5    1    3    3    0  502 -0.38893185681E+02 -0.11490487414E+02  0.10107837713E+03  0.10901210720E+03  0.47000000000E+01 0. -1.
          5    1    4    4  503    0 -0.31717314580E+02  0.17548321756E+02  0.27309507429E+03  0.27553029097E+03  0.47000000000E+01 0. -1.
         -5    1    4    4    0  503 -0.85110788544E+01 -0.60853159447E+02  0.18665182403E+03  0.19656179407E+03  0.47000000000E+01 0.  1.
<mgrwt>
<rscale>  0 0.12974598E+03</rscale>
<asrwt>0</asrwt>
<pdfrwt beam="1">  1        2 0.13789488E+00 0.13824586E+03</pdfrwt>
<pdfrwt beam="2">  1       -2 0.26575257E-02 0.13824586E+03</pdfrwt>
<totfact> 0.14835071E+04</totfact>
</mgrwt>
</event>
<event>
 8    1  0.3572165E-004  0.1261357E+03  0.7546771E-02  0.1248442E+00
          1   -1    0    0  501    0  0.00000000000E+00  0.00000000000E+00  0.40003137323E+03  0.40003137323E+03  0.00000000000E+00 0. -1.
         -1   -1    0    0    0  501 -0.00000000000E+00 -0.00000000000E+00 -0.34710660673E+02  0.34710660673E+02  0.00000000000E+00 0.  1.
         25    2    1    2    0    0 -0.11142871350E+02 -0.12763546766E+02  0.28632771558E+03  0.31287979704E+03  0.12499253971E+03 0.  0.
         23    2    1    2    0    0  0.11142871350E+02  0.12763546766E+02  0.78992996983E+02  0.12186223686E+03  0.91232886027E+02 0.  0.
          5    1    4    4  502    0 -0.34222392823E+02  0.43162540840E+01  0.64451932790E+02  0.73252603095E+02  0.47000000000E+01 0. -1.
         -5    1    3    3    0  503 -0.32537469692E+02 -0.50379684548E+02  0.70369791894E+02  0.92578599905E+02  0.47000000000E+01 0. -1.
          5    1    3    3  503    0  0.21394598342E+02  0.37616137782E+02  0.21595792368E+03  0.22030119714E+03  0.47000000000E+01 0. -1.
         -5    1    4    4    0  502  0.45365264173E+02  0.84472926823E+01  0.14541064193E+02  0.48609633768E+02  0.47000000000E+01 0.  1.
<mgrwt>
<rscale>  0 0.11681727E+03</rscale>
<asrwt>0</asrwt>
<pdfrwt beam="1">  1        1 0.61543285E-01 0.12613567E+03</pdfrwt>
<pdfrwt beam="2">  1       -1 0.53401019E-02 0.12613567E+03</pdfrwt>
<totfact> 0.91306023E+03</totfact>
</mgrwt>
</event>
<event>
 8    1  0.3572165E-004  0.1421689E+03  0.7546771E-02  0.1220992E+00
         -2   -1    0    0    0  501 -0.00000000000E+00  0.00000000000E+00  0.11606476693E+03  0.11606476693E+03  0.00000000000E+00 0.  1.
          2   -1    0    0  501    0  0.00000000000E+00 -0.00000000000E+00 -0.14885006875E+03  0.14885006875E+03  0.00000000000E+00 0. -1.
         25    2    1    2    0    0 -0.16827587659E+02  0.65606318616E+02  0.12016333450E+02  0.14267584294E+03  0.12499858856E+03 0.  0.
         23    2    1    2    0    0  0.16827587659E+02 -0.65606318616E+02 -0.44801635274E+02  0.12223899274E+03  0.91366449390E+02 0.  0.
          5    1    4    4  502    0 -0.22258635677E+02 -0.11618732151E+02 -0.49033344756E+02  0.55288341420E+02  0.47000000000E+01 0. -1.
         -5    1    4    4    0  502  0.39086223336E+02 -0.53987586465E+02  0.42317094826E+01  0.66950651320E+02  0.47000000000E+01 0.  1.
          5    1    3    3  503    0 -0.33155050298E+02 -0.25089536509E+02  0.26126329796E+02  0.49329679820E+02  0.47000000000E+01 0.  1.
         -5    1    3    3    0  503  0.16327462639E+02  0.90695855125E+02 -0.14109996346E+02  0.93346163123E+02  0.47000000000E+01 0.  1.
<mgrwt>
<rscale>  0 0.13445442E+03</rscale>
<asrwt>0</asrwt>
<pdfrwt beam="1">  1        2 0.22900011E-01 0.14216893E+03</pdfrwt>
<pdfrwt beam="2">  1       -2 0.17856118E-01 0.14216893E+03</pdfrwt>
<totfact> 0.57917234E+03</totfact>
</mgrwt>
</event>
<event>
 8    1  0.3572165E-004  0.2199685E+03  0.7546771E-02  0.1137431E+00
         -3   -1    0    0    0  501 -0.00000000000E+00  0.00000000000E+00  0.38485487122E+03  0.38485487122E+03  0.00000000000E+00 0.  1.
          3   -1    0    0  501    0  0.00000000000E+00 -0.00000000000E+00 -0.17383029050E+03  0.17383029050E+03  0.00000000000E+00 0. -1.
         25    2    1    2    0    0  0.39981261667E+02  0.17652696212E+03 -0.53042801396E+02  0.22627343330E+03  0.12500343274E+03 0.  0.
         23    2    1    2    0    0 -0.39981261667E+02 -0.17652696212E+03  0.26406738212E+03  0.33241172842E+03  0.89474606729E+02 0.  0.
          5    1    4    4  502    0 -0.38743661085E+02 -0.94714036849E+02  0.76915424176E+02  0.12810110275E+03  0.47000000000E+01 0. -1.
         -5    1    4    4    0  502 -0.12376005819E+01 -0.81812925273E+02  0.18715195794E+03  0.20431062566E+03  0.47000000000E+01 0.  1.
          5    1    3    3  503    0  0.36770594552E+02  0.14852180464E+03 -0.91515652701E+02  0.17834799625E+03  0.47000000000E+01 0.  1.
         -5    1    3    3    0  503  0.32106671155E+01  0.28005157486E+02  0.38472851305E+02  0.47925437053E+02  0.47000000000E+01 0.  1.
<mgrwt>
<rscale>  0 0.21530671E+03</rscale>
<asrwt>0</asrwt>
<pdfrwt beam="1">  1        3 0.26743122E-01 0.21996847E+03</pdfrwt>
<pdfrwt beam="2">  1       -3 0.59208441E-01 0.21996847E+03</pdfrwt>
<totfact> 0.92524546E+01</totfact>
</mgrwt>
</event>
<event>
 8    1  0.3572165E-004  0.2556354E+03  0.7546771E-02  0.1112243E+00
         -3   -1    0    0    0  501 -0.00000000000E+00  0.00000000000E+00  0.77140690125E+03  0.77140690125E+03  0.00000000000E+00 0.  1.
          3   -1    0    0  501    0  0.00000000000E+00 -0.00000000000E+00 -0.89633577771E+02  0.89633577771E+02  0.00000000000E+00 0. -1.
         25    2    1    2    0    0 -0.22000560454E+03 -0.36366247532E+02  0.20689736393E+03  0.32887075573E+03  0.12499793913E+03 0.  0.
         23    2    1    2    0    0  0.22000560454E+03  0.36366247532E+02  0.47487595955E+03  0.53216972329E+03  0.89288674753E+02 0.  0.
          5    1    4    4  502    0  0.58711034293E+02 -0.25755966113E+02  0.93952774074E+02  0.11384010319E+03  0.47000000000E+01 0. -1.
         -5    1    4    4    0  502  0.16129457025E+03  0.62122213645E+02  0.38092318547E+03  0.41832962010E+03  0.47000000000E+01 0.  1.
          5    1    3    3  503    0 -0.15596174718E+02  0.34596347723E+02  0.21360881272E+02  0.43800972482E+02  0.47000000000E+01 0.  1.
         -5    1    3    3    0  503 -0.20440942982E+03 -0.70962595255E+02  0.18553648266E+03  0.28506978325E+03  0.47000000000E+01 0.  1.
<mgrwt>
<rscale>  0 0.25168672E+03</rscale>
<asrwt>0</asrwt>
<pdfrwt beam="1">  1        3 0.13789782E-01 0.25563539E+03</pdfrwt>
<pdfrwt beam="2">  1       -3 0.11867798E+00 0.25563539E+03</pdfrwt>
<totfact> 0.64762799E+01</totfact>
</mgrwt>
</event>
<event>
 8    1  0.3572165E-004  0.1740994E+03  0.7546771E-02  0.1179677E+00
          1   -1    0    0  501    0  0.00000000000E+00  0.00000000000E+00  0.92703075976E+03  0.92703075976E+03  0.00000000000E+00 0. -1.
         -1   -1    0    0    0  501 -0.00000000000E+00 -0.00000000000E+00 -0.30467331971E+02  0.30467331971E+02  0.00000000000E+00 0.  1.
         25    2    1    2    0    0  0.76177525300E+02 -0.94254673597E+02  0.59346182583E+03  0.61847193405E+03  0.12499454242E+03 0.  0.
         23    2    1    2    0    0 -0.76177525300E+02  0.94254673597E+02  0.30310160196E+03  0.33902615768E+03  0.91548870153E+02 0.  0.
          5    1    3    3  502    0  0.31862570816E+02 -0.33399242378E+02  0.44287900952E+02  0.64142349358E+02  0.47000000000E+01 0. -1.
         -5    1    3    3    0  502  0.44314954484E+02 -0.60855431219E+02  0.54917392488E+03  0.55432958469E+03  0.47000000000E+01 0. -1.
          5    1    4    4  503    0 -0.24431658481E+02  0.78236685818E+02  0.24956262039E+03  0.26271938726E+03  0.47000000000E+01 0. -1.
         -5    1    4    4    0  503 -0.51745866820E+02  0.16017987779E+02  0.53538981570E+02  0.76306770427E+02  0.47000000000E+01 0.  1.
<mgrwt>
<rscale>  0 0.16825754E+03</rscale>
<asrwt>0</asrwt>
<pdfrwt beam="1">  1        1 0.14262009E+00 0.17409938E+03</pdfrwt>
<pdfrwt beam="2">  1       -1 0.46872826E-02 0.17409938E+03</pdfrwt>
<totfact> 0.34851343E+03</totfact>
</mgrwt>
</event>
<event>
 8    1  0.3572165E-004  0.1321105E+03  0.7546771E-02  0.1237341E+00
          1   -1    0    0  501    0  0.00000000000E+00  0.00000000000E+00  0.76420767850E+02  0.76420767850E+02  0.00000000000E+00 0. -1.
         -1   -1    0    0    0  501 -0.00000000000E+00 -0.00000000000E+00 -0.17898344838E+03  0.17898344838E+03  0.00000000000E+00 0.  1.
         25    2    1    2    0    0 -0.24217940551E+02  0.35257392291E+02 -0.48171607977E+02  0.14061899241E+03  0.12499441930E+03 0.  0.
         23    2    1    2    0    0  0.24217940551E+02 -0.35257392291E+02 -0.54391072554E+02  0.11478522382E+03  0.91584204306E+02 0.  0.
          5    1    3    3  502    0 -0.62445591565E+02 -0.13533049451E+02 -0.45161929770E+02  0.78385491221E+02  0.47000000000E+01 0.  1.
         -5    1    3    3    0  502  0.38227651014E+02  0.48790441742E+02 -0.30096782065E+01  0.62233501190E+02  0.47000000000E+01 0.  1.
          5    1    4    4  503    0  0.45432788971E+01  0.27905113505E+02  0.54421891863E+00  0.28665709779E+02  0.47000000000E+01 0. -1.
         -5    1    4    4    0  503  0.19674661654E+02 -0.63162505796E+02 -0.54935291473E+02  0.86119514042E+02  0.47000000000E+01 0.  1.
<mgrwt>
<rscale>  0 0.12355773E+03</rscale>
<asrwt>0</asrwt>
<pdfrwt beam="1">  1        1 0.11757041E-01 0.13211055E+03</pdfrwt>
<pdfrwt beam="2">  1       -1 0.27535915E-01 0.13211055E+03</pdfrwt>
<totfact> 0.57896755E+03</totfact>
</mgrwt>
</event>
<event>
 8    1  0.3572165E-004  0.1660446E+03  0.7546771E-02  0.1190174E+00
          1   -1    0    0  501    0  0.00000000000E+00  0.00000000000E+00  0.12650683251E+03  0.12650683251E+03  0.00000000000E+00 0. -1.
         -1   -1    0    0    0  501 -0.00000000000E+00 -0.00000000000E+00 -0.18731999403E+03  0.18731999403E+03  0.00000000000E+00 0.  1.
         25    2    1    2    0    0 -0.54913640355E+02  0.94501475491E+02 -0.55841821577E+02  0.17518307967E+03  0.12499906239E+03 0.  0.
         23    2    1    2    0    0  0.54913640355E+02 -0.94501475491E+02 -0.49713399397E+01  0.13864374686E+03  0.85154785870E+02 0.  0.
          5    1    4    4  502    0  0.59378798463E+02 -0.46863913254E+02 -0.33364211917E+02  0.82808989302E+02  0.47000000000E+01 0. -1.
         -5    1    3    3    0  503 -0.93944378948E+02  0.52632290265E+02 -0.28030814334E+02  0.11137109529E+03  0.47000000000E+01 0. -1.
          5    1    3    3  503    0  0.39030738593E+02  0.41869185225E+02 -0.27811007243E+02  0.63811984379E+02  0.47000000000E+01 0. -1.
         -5    1    4    4    0  502 -0.44651581080E+01 -0.47637562237E+02  0.28392871978E+02  0.55834757561E+02  0.47000000000E+01 0.  1.
<mgrwt>
<rscale>  0 0.15869884E+03</rscale>
<asrwt>0</asrwt>
<pdfrwt beam="1">  1        1 0.19462590E-01 0.16604458E+03</pdfrwt>
<pdfrwt beam="2">  1       -1 0.28818461E-01 0.16604458E+03</pdfrwt>
<totfact> 0.28270396E+03</totfact>
</mgrwt>
</event>
<event>
 8    1  0.3572165E-004  0.1504878E+03  0.7546771E-02  0.1208856E+00
          1   -1    0    0  501    0  0.00000000000E+00  0.00000000000E+00  0.20058716683E+03  0.20058716683E+03  0.00000000000E+00 0. -1.
         -1   -1    0    0    0  501 -0.00000000000E+00 -0.00000000000E+00 -0.10926328078E+03  0.10926328078E+03  0.00000000000E+00 0.  1.
         25    2    1    2    0    0 -0.32423598028E+02  0.77246022401E+02 -0.84084750102E+01  0.15072257713E+03  0.12501341975E+03 0.  0.
         23    2    1    2    0    0  0.32423598028E+02 -0.77246022401E+02  0.99732361059E+02  0.15912787048E+03  0.91416068808E+02 0.  0.
          5    1    3    3  502    0  0.45122522965E+02  0.21991157883E+02  0.14917358365E+02  0.52576331979E+02  0.47000000000E+01 0. -1.
         -5    1    4    4    0  503  0.58013403666E+02 -0.39491359113E+02  0.31851266193E+02  0.77212146762E+02  0.47000000000E+01 0.  1.
          5    1    4    4  503    0 -0.25589805638E+02 -0.37754663287E+02  0.67881094866E+02  0.81915723721E+02  0.47000000000E+01 0. -1.
         -5    1    3    3    0  502 -0.77546120993E+02  0.55254864517E+02 -0.23325833375E+02  0.98146245147E+02  0.47000000000E+01 0. -1.
<mgrwt>
<rscale>  0 0.14337666E+03</rscale>
<asrwt>0</asrwt>
<pdfrwt beam="1">  1        1 0.30859564E-01 0.15048785E+03</pdfrwt>
<pdfrwt beam="2">  1       -1 0.16809735E-01 0.15048785E+03</pdfrwt>
<totfact> 0.37831631E+03</totfact>
</mgrwt>
</event>
<event>
 8    1  0.3572165E-004  0.1486287E+03  0.7546771E-02  0.1211527E+00
         -4   -1    0    0    0  501 -0.00000000000E+00  0.00000000000E+00  0.15459337525E+02  0.15459337525E+02  0.00000000000E+00 0. -1.
          4   -1    0    0  501    0  0.00000000000E+00 -0.00000000000E+00 -0.11809455110E+04  0.11809455110E+04  0.00000000000E+00 0.  1.
         25    2    1    2    0    0  0.72581585056E+02  0.34612258114E+02 -0.64975478740E+03  0.66653715754E+03  0.12499761491E+03 0.  0.
         23    2    1    2    0    0 -0.72581585056E+02 -0.34612258114E+02 -0.51573138613E+03  0.52986769103E+03  0.91185593523E+02 0.  0.
          5    1    3    3  502    0  0.10043878115E+03 -0.46930526015E+00 -0.50589964863E+03  0.51579522438E+03  0.47000000000E+01 0.  1.
         -5    1    3    3    0  502 -0.27857196098E+02  0.35081563374E+02 -0.14385513877E+03  0.15074193316E+03  0.47000000000E+01 0.  1.
          5    1    4    4  503    0 -0.39238382406E+02  0.17371232561E+02 -0.35501280300E+03  0.35762772637E+03  0.47000000000E+01 0. -1.
         -5    1    4    4    0  503 -0.33343202650E+02 -0.51983490674E+02 -0.16071858312E+03  0.17223996466E+03  0.47000000000E+01 0.  1.
<mgrwt>
<rscale>  0 0.14134801E+03</rscale>
<asrwt>0</asrwt>
<pdfrwt beam="1">  1        4 0.18168389E+00 0.14862873E+03</pdfrwt>
<pdfrwt beam="2">  1       -4 0.23783601E-02 0.14862873E+03</pdfrwt>
<totfact> 0.25234765E+02</totfact>
</mgrwt>
</event>
<event>
 8    1  0.3572165E-004  0.2275638E+03  0.7546771E-02  0.1131550E+00
          2   -1    0    0  501    0  0.00000000000E+00  0.00000000000E+00  0.43921220879E+02  0.43921220879E+02  0.00000000000E+00 0. -1.
         -2   -1    0    0    0  501 -0.00000000000E+00 -0.00000000000E+00 -0.11000929221E+04  0.11000929221E+04  0.00000000000E+00 0.  1.
         25    2    1    2    0    0  0.21370273009E+02  0.18895769929E+03 -0.49962763496E+03  0.54901096594E+03  0.12499426552E+03 0.  0.
         23    2    1    2    0    0 -0.21370273009E+02 -0.18895769929E+03 -0.55654406630E+03  0.59500317709E+03  0.90143121308E+02 0.  0.
          5    1    4    4  502    0  0.17933252604E+02 -0.52437070144E+02 -0.78026202907E+02  0.95819758997E+02  0.47000000000E+01 0. -1.
         -5    1    3    3    0  503  0.70492218802E+02  0.10909529350E+03 -0.33755000039E+03  0.36170848585E+03  0.47000000000E+01 0.  1.
          5    1    3    3  503    0 -0.49121945793E+02  0.79862405783E+02 -0.16207763457E+03  0.18730248008E+03  0.47000000000E+01 0.  1.
         -5    1    4    4    0  502 -0.39303525612E+02 -0.13652062914E+03 -0.47851786340E+03  0.49918341809E+03  0.47000000000E+01 0.  1.
<mgrwt>
<rscale>  0 0.22315800E+03</rscale>
<asrwt>0</asrwt>
<pdfrwt beam="1">  1        2 0.67571107E-02 0.22756376E+03</pdfrwt>
<pdfrwt beam="2">  1       -2 0.16924507E+00 0.22756376E+03</pdfrwt>
<totfact> 0.24324370E+02</totfact>
</mgrwt>
</event>
<event>
 8    1  0.3572165E-004  0.1763358E+03  0.7546771E-02  0.1177439E+00
          2   -1    0    0  501    0  0.00000000000E+00  0.00000000000E+00  0.61327395048E+03  0.61327395048E+03  0.00000000000E+00 0. -1.
         -2   -1    0    0    0  501 -0.00000000000E+00 -0.00000000000E+00 -0.48708422322E+02  0.48708422322E+02  0.00000000000E+00 0.  1.
         25    2    1    2    0    0  0.12106838037E+03  0.28496395490E+02  0.39798894099E+03  0.43530393740E+03  0.12499889392E+03 0.  0.
         23    2    1    2    0    0 -0.12106838037E+03 -0.28496395490E+02  0.16657658716E+03  0.22667843540E+03  0.90364574929E+02 0.  0.
          5    1    4    4  502    0 -0.89697075098E+02 -0.14897592155E+02  0.16912072097E+03  0.19207137162E+03  0.47000000000E+01 0. -1.
         -5    1    3    3    0  503  0.98209257836E+02  0.53391979605E+02  0.16211779775E+03  0.19697723767E+03  0.47000000000E+01 0.  1.
          5    1    3    3  503    0  0.22859122538E+02 -0.24895584115E+02  0.23587114324E+03  0.23832669973E+03  0.47000000000E+01 0.  1.
         -5    1    4    4    0  502 -0.31371305276E+02 -0.13598803334E+02 -0.25441338075E+01  0.34607063783E+02  0.47000000000E+01 0.  1.
<mgrwt>
<rscale>  0 0.17039257E+03</rscale>
<asrwt>0</asrwt>
<pdfrwt beam="1">  1        2 0.94349833E-01 0.17633582E+03</pdfrwt>
<pdfrwt beam="2">  1       -2 0.74936038E-02 0.17633582E+03</pdfrwt>
<totfact> 0.50430752E+03</totfact>
</mgrwt>
</event>
<event>
 8    1  0.3572165E-004  0.1416136E+03  0.7546771E-02  0.1222008E+00
          3   -1    0    0  501    0  0.00000000000E+00  0.00000000000E+00  0.21904616404E+03  0.21904616404E+03  0.00000000000E+00 0. -1.
         -3   -1    0    0    0  501 -0.00000000000E+00 -0.00000000000E+00 -0.84833215377E+02  0.84833215377E+02  0.00000000000E+00 0.  1.
         25    2    1    2    0    0 -0.33224907994E+02 -0.57663513753E+02  0.12826875401E+03  0.19106881818E+03  0.12500177877E+03 0.  0.
         23    2    1    2    0    0  0.33224907994E+02  0.57663513753E+02  0.59441946556E+01  0.11281056124E+03  0.90895071089E+02 0.  0.
          5    1    3    3  502    0 -0.72519939570E+02 -0.52230589664E+01  0.47592092800E+02  0.87025968982E+02  0.47000000000E+01 0.  1.
         -5    1    4    4    0  503  0.95445921915E+01  0.23703008896E+02 -0.41940156562E+02  0.49335571379E+02  0.47000000000E+01 0.  1.
          5    1    4    4  503    0  0.23680315802E+02  0.33960504856E+02  0.47884351218E+02  0.63474989863E+02  0.47000000000E+01 0. -1.
         -5    1    3    3    0  502  0.39295031576E+02 -0.52440454786E+02  0.80676661209E+02  0.10404284919E+03  0.47000000000E+01 0.  1.
<mgrwt>
<rscale>  0 0.13374123E+03</rscale>
<asrwt>0</asrwt>
<pdfrwt beam="1">  1        3 0.33699410E-01 0.14161363E+03</pdfrwt>
<pdfrwt beam="2">  1       -3 0.13051264E-01 0.14161363E+03</pdfrwt>
<totfact> 0.94423782E+02</totfact>
</mgrwt>
</event>
<event>
 8    1  0.3572165E-004  0.2062581E+03  0.7546771E-02  0.1148433E+00
          2   -1    0    0  501    0  0.00000000000E+00  0.00000000000E+00  0.19278021355E+04  0.19278021355E+04  0.00000000000E+00 0. -1.
         -2   -1    0    0    0  501 -0.00000000000E+00 -0.00000000000E+00 -0.22858762849E+02  0.22858762849E+02  0.00000000000E+00 0.  1.
         25    2    1    2    0    0 -0.15784079592E+03  0.44776604977E+02  0.65677106781E+03  0.68839715400E+03  0.12499497954E+03 0.  0.
         23    2    1    2    0    0  0.15784079592E+03 -0.44776604977E+02  0.12481723048E+04  0.12622637443E+04  0.91961929776E+02 0.  0.
          5    1    3    3  502    0 -0.19020744826E+02  0.38509346913E+02  0.50848738624E+02  0.66726627017E+02  0.47000000000E+01 0. -1.
         -5    1    4    4    0  503  0.25141645197E+02 -0.15730583479E+02  0.68571886544E+02  0.74858180608E+02  0.47000000000E+01 0.  1.
          5    1    4    4  503    0  0.13269915072E+03 -0.29046021498E+02  0.11796004183E+04  0.11874055637E+04  0.47000000000E+01 0. -1.
         -5    1    3    3    0  502 -0.13882005109E+03  0.62672580639E+01  0.60592232919E+03  0.62167052698E+03  0.47000000000E+01 0. -1.
<mgrwt>
<rscale>  0 0.20155628E+03</rscale>
<asrwt>0</asrwt>
<pdfrwt beam="1">  1        2 0.29658482E+00 0.20625811E+03</pdfrwt>
<pdfrwt beam="2">  1       -2 0.35167343E-02 0.20625811E+03</pdfrwt>
<totfact> 0.27099532E+03</totfact>
</mgrwt>
</event>
<event>
 8    1  0.3572165E-004  0.1293790E+03  0.7546771E-02  0.1241937E+00
         -2   -1    0    0    0  501 -0.00000000000E+00  0.00000000000E+00  0.16510842042E+02  0.16510842042E+02  0.00000000000E+00 0. -1.
          2   -1    0    0  501    0  0.00000000000E+00 -0.00000000000E+00 -0.89952943162E+03  0.89952943162E+03  0.00000000000E+00 0.  1.
         25    2    1    2    0    0 -0.56889472935E+01 -0.32877430303E+02 -0.65798963743E+03  0.67058876988E+03  0.12500258308E+03 0.  0.
         23    2    1    2    0    0  0.56889472935E+01  0.32877430303E+02 -0.22502895214E+03  0.24545150378E+03  0.92168985349E+02 0.  0.
          5    1    4    4  502    0  0.44531430617E+02  0.20249219202E+02 -0.73291882961E+02  0.88243239396E+02  0.47000000000E+01 0. -1.
         -5    1    3    3    0  503 -0.17952626854E+02  0.38985974724E+02 -0.11745420567E+03  0.12513905652E+03  0.47000000000E+01 0. -1.
          5    1    3    3  503    0  0.12263679560E+02 -0.71863405028E+02 -0.54053543175E+03  0.54544971336E+03  0.47000000000E+01 0. -1.
         -5    1    4    4    0  502 -0.38842483324E+02  0.12628211101E+02 -0.15173706918E+03  0.15720826438E+03  0.47000000000E+01 0.  1.
<mgrwt>
<rscale>  0 0.12070615E+03</rscale>
<asrwt>0</asrwt>
<pdfrwt beam="1">  1        2 0.13838912E+00 0.12937904E+03</pdfrwt>
<pdfrwt beam="2">  1       -2 0.25401300E-02 0.12937904E+03</pdfrwt>
<totfact> 0.15702525E+04</totfact>
</mgrwt>
</event>
<event>
 8    1  0.3572165E-004  0.1463220E+03  0.7546771E-02  0.1212079E+00
         -2   -1    0    0    0  501 -0.00000000000E+00  0.00000000000E+00  0.49343074744E+03  0.49343074744E+03  0.00000000000E+00 0. -1.
          2   -1    0    0  501    0  0.00000000000E+00 -0.00000000000E+00 -0.37632224908E+02  0.37632224908E+02  0.00000000000E+00 0.  1.
         25    2    1    2    0    0 -0.72159812478E+02  0.24052466364E+02  0.25703026036E+03  0.29576118097E+03  0.12499824700E+03 0.  0.
         23    2    1    2    0    0  0.72159812478E+02 -0.24052466364E+02  0.19876826217E+03  0.23530179137E+03  0.10036210093E+03 0.  0.
          5    1    4    4  502    0  0.45880145248E+02 -0.35384061694E+02  0.19792794897E+03  0.20628762089E+03  0.47000000000E+01 0. -1.
         -5    1    3    3    0  503  0.33483242007E+02 -0.35378877170E+01  0.38053587630E+02  0.51027538411E+02  0.47000000000E+01 0. -1.
          5    1    3    3  503    0 -0.10564305449E+03  0.27590354081E+02  0.21897667273E+03  0.24473364256E+03  0.47000000000E+01 0. -1.
         -5    1    4    4    0  502  0.26279667230E+02  0.11331595329E+02  0.84031319597E+00  0.29014170481E+02  0.47000000000E+01 0.  1.
<mgrwt>
<rscale>  0 0.14093329E+03</rscale>
<asrwt>0</asrwt>
<pdfrwt beam="1">  1        2 0.57895734E-02 0.14632198E+03</pdfrwt>
<pdfrwt beam="2">  1       -2 0.75912418E-01 0.14632198E+03</pdfrwt>
<totfact> 0.20010210E+03</totfact>
</mgrwt>
</event>
<event>
 8    1  0.3572165E-004  0.1385523E+03  0.7546771E-02  0.1228209E+00
         -1   -1    0    0    0  501 -0.00000000000E+00  0.00000000000E+00  0.37182082976E+02  0.37182082976E+02  0.00000000000E+00 0.  1.
          1   -1    0    0  501    0  0.00000000000E+00 -0.00000000000E+00 -0.46335392771E+03  0.46335392771E+03  0.00000000000E+00 0. -1.
         25    2    1    2    0    0 -0.57569533849E+02 -0.16043066172E+02 -0.32883518167E+03  0.35683232157E+03  0.12500039124E+03 0.  0.
         23    2    1    2    0    0  0.57569533849E+02  0.16043066172E+02 -0.97336663059E+02  0.14370368911E+03  0.87204891432E+02 0.  0.
          5    1    4    4  502    0  0.55967781188E+02 -0.58993549697E+01 -0.10558731436E+03  0.11974124550E+03  0.47000000000E+01 0. -1.
         -5    1    4    4    0  502  0.16017526606E+01  0.21942421142E+02  0.82506512991E+01  0.23962443615E+02  0.47000000000E+01 0.  1.
          5    1    3    3  503    0 -0.14716397945E+01  0.26016131414E+02 -0.69627302673E+01  0.27378356967E+02  0.47000000000E+01 0. -1.
         -5    1    3    3    0  503 -0.56097894054E+02 -0.42059197586E+02 -0.32187245140E+03  0.32945396460E+03  0.47000000000E+01 0. -1.
<mgrwt>
<rscale>  0 0.12949339E+03</rscale>
<asrwt>0</asrwt>
<pdfrwt beam="1">  1        1 0.71285226E-01 0.13855226E+03</pdfrwt>
<pdfrwt beam="2">  1       -1 0.57203199E-02 0.13855226E+03</pdfrwt>
<totfact> 0.68825587E+03</totfact>
</mgrwt>
</event>
<event>
 8    1  0.3572165E-004  0.1273166E+03  0.7546771E-02  0.1245983E+00
         -1   -1    0    0    0  501 -0.00000000000E+00  0.00000000000E+00  0.19639719741E+02  0.19639719741E+02  0.00000000000E+00 0.  1.
          1   -1    0    0  501    0  0.00000000000E+00 -0.00000000000E+00 -0.79977740325E+03  0.79977740325E+03  0.00000000000E+00 0. -1.
         25    2    1    2    0    0  0.97520450148E+01  0.22113417469E+02 -0.62318270034E+03  0.63605518797E+03  0.12500167411E+03 0.  0.
         23    2    1    2    0    0 -0.97520450148E+01 -0.22113417469E+02 -0.15695498317E+03  0.18336193502E+03  0.91665843462E+02 0.  0.
          5    1    4    4  502    0  0.33265597261E+02  0.35646725197E+01 -0.10798942552E+03  0.11315084125E+03  0.47000000000E+01 0. -1.
         -5    1    3    3    0  503 -0.48309675568E+02  0.41000398549E+02 -0.25387685602E+03  0.26170671649E+03  0.47000000000E+01 0.  1.
          5    1    3    3  503    0  0.58061720582E+02 -0.18886981080E+02 -0.36930584432E+03  0.37434847148E+03  0.47000000000E+01 0.  1.
         -5    1    4    4    0  502 -0.43017642276E+02 -0.25678089989E+02 -0.48965557657E+02  0.70211093775E+02  0.47000000000E+01 0.  1.
<mgrwt>
<rscale>  0 0.11826714E+03</rscale>
<asrwt>0</asrwt>
<pdfrwt beam="1">  1        1 0.12304268E+00 0.12731663E+03</pdfrwt>
<pdfrwt beam="2">  1       -1 0.30214952E-02 0.12731663E+03</pdfrwt>
<totfact> 0.82586454E+03</totfact>
</mgrwt>
</event>
<event>
 8    1  0.3572165E-004  0.1306295E+03  0.7546771E-02  0.1239913E+00
         -1   -1    0    0    0  501 -0.00000000000E+00  0.00000000000E+00  0.43604765283E+03  0.43604765283E+03  0.00000000000E+00 0.  1.
          1   -1    0    0  501    0  0.00000000000E+00 -0.00000000000E+00 -0.34472878183E+02  0.34472878183E+02  0.00000000000E+00 0. -1.
         25    2    1    2    0    0 -0.10215715745E+02 -0.36533007562E+02  0.30616321181E+03  0.33286629494E+03  0.12500014621E+03 0.  0.
         23    2    1    2    0    0  0.10215715745E+02  0.36533007562E+02  0.95411562839E+02  0.13765423607E+03  0.91685881661E+02 0.  0.
          5    1    3    3  502    0 -0.50059065357E+02 -0.64453410068E+02  0.19310574667E+03  0.20969518709E+03  0.47000000000E+01 0. -1.
         -5    1    4    4    0  503 -0.38025053727E+02  0.32850049202E+02  0.52326456687E+02  0.72699233235E+02  0.47000000000E+01 0.  1.
          5    1    4    4  503    0  0.48240769473E+02  0.36829583596E+01  0.43085106152E+02  0.64955002838E+02  0.47000000000E+01 0. -1.
         -5    1    3    3    0  502  0.39843349611E+02  0.27920402506E+02  0.11305746514E+03  0.12317110785E+03  0.47000000000E+01 0. -1.
<mgrwt>
<rscale>  0 0.12195079E+03</rscale>
<asrwt>0</asrwt>
<pdfrwt beam="1">  1        1 0.53035200E-02 0.13062947E+03</pdfrwt>
<pdfrwt beam="2">  1       -1 0.67084251E-01 0.13062947E+03</pdfrwt>
<totfact> 0.34334667E+03</totfact>
</mgrwt>
</event>
<event>
 8    1  0.3572165E-004  0.2067999E+03  0.7546771E-02  0.1148009E+00
         -1   -1    0    0    0  501 -0.00000000000E+00  0.00000000000E+00  0.11098063695E+03  0.11098063695E+03  0.00000000000E+00 0.  1.
          1   -1    0    0  501    0  0.00000000000E+00 -0.00000000000E+00 -0.35785737932E+03  0.35785737932E+03  0.00000000000E+00 0. -1.
         25    2    1    2    0    0 -0.11705408262E+03  0.11593174488E+03 -0.15901442087E+03  0.26086738984E+03  0.12499752521E+03 0.  0.
         23    2    1    2    0    0  0.11705408262E+03 -0.11593174488E+03 -0.87862321504E+02  0.20797062643E+03  0.91597850346E+02 0.  0.
          5    1    4    4  502    0 -0.12525676513E+02 -0.30251677724E+02 -0.16030677758E+02  0.36757709485E+02  0.47000000000E+01 0. -1.
         -5    1    3    3    0  503 -0.93239427179E+02  0.52848581368E+02 -0.24076381223E+02  0.10994692113E+03  0.47000000000E+01 0.  1.
          5    1    3    3  503    0 -0.23814655443E+02  0.63083163510E+02 -0.13493803965E+03  0.15092046871E+03  0.47000000000E+01 0.  1.
         -5    1    4    4    0  502  0.12957975914E+03 -0.85680067155E+02 -0.71831643746E+02  0.17121291694E+03  0.47000000000E+01 0.  1.
<mgrwt>
<rscale>  0 0.20206460E+03</rscale>
<asrwt>0</asrwt>
<pdfrwt beam="1">  1        1 0.55054983E-01 0.20679993E+03</pdfrwt>
<pdfrwt beam="2">  1       -1 0.17073944E-01 0.20679993E+03</pdfrwt>
<totfact> 0.18115239E+03</totfact>
</mgrwt>
</event>
<event>
 8    1  0.3572165E-004  0.1482839E+03  0.7546771E-02  0.1212031E+00
          2   -1    0    0  501    0  0.00000000000E+00  0.00000000000E+00  0.21776095009E+03  0.21776095009E+03  0.00000000000E+00 0. -1.
         -2   -1    0    0    0  501 -0.00000000000E+00 -0.00000000000E+00 -0.84870395476E+02  0.84870395476E+02  0.00000000000E+00 0.  1.
         25    2    1    2    0    0 -0.57441051420E+02 -0.55295003224E+02  0.93347691301E+02  0.17521955756E+03  0.12502435806E+03 0.  0.
         23    2    1    2    0    0  0.57441051420E+02  0.55295003224E+02  0.39542863311E+02  0.12741178801E+03  0.91176279342E+02 0.  0.
          5    1    4    4  502    0  0.10015827965E+02  0.48972361169E+02  0.57280111907E+02  0.76168958168E+02  0.47000000000E+01 0. -1.
         -5    1    3    3    0  503 -0.68750915518E+02 -0.18497841916E+01  0.98413102825E+02  0.12015547800E+03  0.47000000000E+01 0. -1.
          5    1    3    3  503    0  0.11309864098E+02 -0.53445219033E+02 -0.50654115239E+01  0.55064079555E+02  0.47000000000E+01 0. -1.
         -5    1    4    4    0  502  0.47425223455E+02  0.63226420550E+01 -0.17737248595E+02  0.51242829840E+02  0.47000000000E+01 0.  1.
<mgrwt>
<rscale>  0 0.14096933E+03</rscale>
<asrwt>0</asrwt>
<pdfrwt beam="1">  1        2 0.33501684E-01 0.14828386E+03</pdfrwt>
<pdfrwt beam="2">  1       -2 0.13056984E-01 0.14828386E+03</pdfrwt>
<totfact> 0.63996137E+03</totfact>
</mgrwt>
</event>
<event>
 8    1  0.3572165E-004  0.1278516E+03  0.7546771E-02  0.1245623E+00
          2   -1    0    0  501    0  0.00000000000E+00  0.00000000000E+00  0.21478356425E+03  0.21478356425E+03  0.00000000000E+00 0. -1.
         -2   -1    0    0    0  501 -0.00000000000E+00 -0.00000000000E+00 -0.60814967726E+02  0.60814967726E+02  0.00000000000E+00 0.  1.
         25    2    1    2    0    0 -0.19851986478E+02  0.18073350116E+02  0.12007487806E+03  0.17539671363E+03  0.12500113384E+03 0.  0.
         23    2    1    2    0    0  0.19851986478E+02 -0.18073350116E+02  0.33893718459E+02  0.10020181834E+03  0.90392880782E+02 0.  0.
          5    1    4    4  502    0  0.96209814805E+01 -0.52372828820E+02  0.44940669480E+01  0.53644786522E+02  0.47000000000E+01 0. -1.
         -5    1    4    4    0  502  0.10231004997E+02  0.34299478704E+02  0.29399651511E+02  0.46557031817E+02  0.47000000000E+01 0.  1.
          5    1    3    3  503    0 -0.40861246434E+02 -0.30035962609E+02  0.11071217588E+03  0.12186499251E+03  0.47000000000E+01 0.  1.
         -5    1    3    3    0  503  0.21009259956E+02  0.48109312725E+02  0.93627021806E+01  0.53531721128E+02  0.47000000000E+01 0.  1.
<mgrwt>
<rscale>  0 0.11848196E+03</rscale>
<asrwt>0</asrwt>
<pdfrwt beam="1">  1        2 0.33043625E-01 0.12785160E+03</pdfrwt>
<pdfrwt beam="2">  1       -2 0.93561490E-02 0.12785160E+03</pdfrwt>
<totfact> 0.10901042E+04</totfact>
</mgrwt>
</event>
<event>
 8    1  0.3572165E-004  0.1874342E+03  0.7546771E-02  0.1165923E+00
         -2   -1    0    0    0  501 -0.00000000000E+00  0.00000000000E+00  0.35012636740E+02  0.35012636740E+02  0.00000000000E+00 0.  1.
          2   -1    0    0  501    0  0.00000000000E+00 -0.00000000000E+00 -0.17338724548E+04  0.17338724548E+04  0.00000000000E+00 0. -1.
         25    2    1    2    0    0  0.12232867238E+03 -0.67384984435E+02 -0.14902834200E+04  0.15020240509E+04  0.12500614878E+03 0.  0.
         23    2    1    2    0    0 -0.12232867238E+03  0.67384984435E+02 -0.20857639805E+03  0.26686104067E+03  0.90585103565E+02 0.  0.
          5    1    3    3  502    0  0.12549555062E+02  0.32065595795E+02 -0.17499951747E+03  0.17841696915E+03  0.47000000000E+01 0.  1.
         -5    1    4    4    0  503 -0.97785826942E+02  0.33634617399E+02 -0.77757070834E+02  0.12946662699E+03  0.47000000000E+01 0.  1.
          5    1    4    4  503    0 -0.24542845441E+02  0.33750367036E+02 -0.13081932722E+03  0.13739441368E+03  0.47000000000E+01 0. -1.
         -5    1    3    3    0  502  0.10977911732E+03 -0.99450580229E+02 -0.13152839025E+04  0.13236070817E+04  0.47000000000E+01 0.  1.
<mgrwt>
<rscale>  0 0.18195649E+03</rscale>
<asrwt>0</asrwt>
<pdfrwt beam="1">  1        2 0.26674967E+00 0.18743419E+03</pdfrwt>
<pdfrwt beam="2">  1       -2 0.53865583E-02 0.18743419E+03</pdfrwt>
<totfact> 0.17994816E+03</totfact>
</mgrwt>
</event>
<event>
 8    1  0.3572165E-004  0.1314600E+03  0.7546771E-02  0.1237199E+00
          2   -1    0    0  501    0  0.00000000000E+00  0.00000000000E+00  0.72410412212E+03  0.72410412212E+03  0.00000000000E+00 0. -1.
         -2   -1    0    0    0  501 -0.00000000000E+00 -0.00000000000E+00 -0.19108470588E+02  0.19108470588E+02  0.00000000000E+00 0.  1.
         25    2    1    2    0    0  0.10902442785E+02 -0.39204204863E+02  0.36270361734E+03  0.38579222805E+03  0.12500358498E+03 0.  0.
         23    2    1    2    0    0 -0.10902442785E+02  0.39204204863E+02  0.34229203419E+03  0.35742036465E+03  0.94496811907E+02 0.  0.
          5    1    3    3  502    0  0.50812182561E+02 -0.20305853372E+02  0.31826373227E+03  0.32296764367E+03  0.47000000000E+01 0. -1.
         -5    1    3    3    0  502 -0.39909739777E+02 -0.18898351491E+02  0.44439885068E+02  0.62824584384E+02  0.47000000000E+01 0. -1.
          5    1    4    4  503    0  0.31204087556E+02  0.94145461667E+01  0.24498372591E+03  0.24718706423E+03  0.47000000000E+01 0. -1.
         -5    1    4    4    0  503 -0.42106530341E+02  0.29789658696E+02  0.97308308275E+02  0.11023330042E+03  0.47000000000E+01 0.  1.
<mgrwt>
<rscale>  0 0.12364712E+03</rscale>
<asrwt>0</asrwt>
<pdfrwt beam="1">  1        2 0.11140061E+00 0.13145999E+03</pdfrwt>
<pdfrwt beam="2">  1       -2 0.29397653E-02 0.13145999E+03</pdfrwt>
<totfact> 0.16639794E+04</totfact>
</mgrwt>
</event>
<event>
 8    1  0.3572165E-004  0.1332015E+03  0.7546771E-02  0.1235888E+00
         -3   -1    0    0    0  501 -0.00000000000E+00  0.00000000000E+00  0.18362719982E+03  0.18362719982E+03  0.00000000000E+00 0.  1.
          3   -1    0    0  501    0  0.00000000000E+00 -0.00000000000E+00 -0.80989602880E+02  0.80989602880E+02  0.00000000000E+00 0. -1.
         25    2    1    2    0    0  0.92922850877E+01  0.45052993219E+02  0.93248515039E+02  0.16259742930E+03  0.12500607865E+03 0.  0.
         23    2    1    2    0    0 -0.92922850877E+01 -0.45052993219E+02  0.93890819000E+01  0.10201937340E+03  0.90574162592E+02 0.  0.
          5    1    4    4  502    0  0.34025086830E+02  0.18368751730E+01 -0.87445689812E+01  0.35491381078E+02  0.47000000000E+01 0. -1.
         -5    1    3    3    0  503 -0.38974046000E+02  0.24617321998E+02 -0.93679257409E+01  0.47274060928E+02  0.47000000000E+01 0. -1.
          5    1    3    3  503    0  0.48266331088E+02  0.20435671221E+02  0.10261644078E+03  0.11532336837E+03  0.47000000000E+01 0. -1.
         -5    1    4    4    0  502 -0.43317371918E+02 -0.46889868392E+02  0.18133650881E+02  0.66527992318E+02  0.47000000000E+01 0.  1.
<mgrwt>
<rscale>  0 0.12447746E+03</rscale>
<asrwt>0</asrwt>
<pdfrwt beam="1">  1        3 0.12459939E-01 0.13320150E+03</pdfrwt>
<pdfrwt beam="2">  1       -3 0.28250338E-01 0.13320150E+03</pdfrwt>
<totfact> 0.14027634E+03</totfact>
</mgrwt>
</event>
<event>
 8    1  0.3572165E-004  0.1749019E+03  0.7546771E-02  0.1178895E+00
         -1   -1    0    0    0  501 -0.00000000000E+00  0.00000000000E+00  0.98869668964E+02  0.98869668964E+02  0.00000000000E+00 0.  1.
          1   -1    0    0  501    0  0.00000000000E+00 -0.00000000000E+00 -0.33973427647E+03  0.33973427647E+03  0.00000000000E+00 0. -1.
         25    2    1    2    0    0  0.25503581558E+01 -0.12230873383E+03 -0.22548625779E+03  0.28536770433E+03  0.12499897411E+03 0.  0.
         23    2    1    2    0    0 -0.25503581558E+01  0.12230873383E+03 -0.15378349714E+02  0.15323624110E+03  0.90988577571E+02 0.  0.
          5    1    3    3  502    0  0.69178259809E+01 -0.72039403586E+02 -0.22177829322E+02  0.75838500109E+02  0.47000000000E+01 0. -1.
         -5    1    3    3    0  502 -0.43674678251E+01 -0.50269330240E+02 -0.20330842847E+03  0.20952920423E+03  0.47000000000E+01 0. -1.
          5    1    4    4  503    0 -0.39264306632E+02  0.31736587608E+02  0.11032026713E+02  0.51891158994E+02  0.47000000000E+01 0. -1.
         -5    1    4    4    0  503  0.36713948477E+02  0.90572146218E+02 -0.26410376427E+02  0.10134508210E+03  0.47000000000E+01 0.  1.
<mgrwt>
<rscale>  0 0.16900001E+03</rscale>
<asrwt>0</asrwt>
<pdfrwt beam="1">  1        1 0.52266812E-01 0.17490190E+03</pdfrwt>
<pdfrwt beam="2">  1       -1 0.15210718E-01 0.17490190E+03</pdfrwt>
<totfact> 0.23133404E+03</totfact>
</mgrwt>
</event>
<event>
 8    1  0.3572165E-004  0.1262974E+03  0.7546771E-02  0.1247722E+00
          4   -1    0    0  501    0  0.00000000000E+00  0.00000000000E+00  0.83941007983E+03  0.83941007983E+03  0.00000000000E+00 0. -1.
         -4   -1    0    0    0  501 -0.00000000000E+00 -0.00000000000E+00 -0.14974399678E+02  0.14974399678E+02  0.00000000000E+00 0.  1.
         25    2    1    2    0    0  0.68495080892E+01 -0.16736209555E+02  0.55183975572E+03  0.56610789923E+03  0.12499608436E+03 0.  0.
         23    2    1    2    0    0 -0.68495080892E+01  0.16736209555E+02  0.27259592444E+03  0.28827658028E+03  0.92020825086E+02 0.  0.
          5    1    3    3  502    0 -0.43818214078E+02  0.33061722327E+02  0.24365648827E+03  0.24980730102E+03  0.47000000000E+01 0. -1.
         -5    1    4    4    0  503  0.70524371630E+01 -0.33913379282E+02  0.61964556231E+02  0.71144573884E+02  0.47000000000E+01 0.  1.
          5    1    4    4  503    0 -0.13901945252E+02  0.50649588837E+02  0.21063136820E+03  0.21713200640E+03  0.47000000000E+01 0. -1.
         -5    1    3    3    0  502  0.50667722167E+02 -0.49797931883E+02  0.30818326745E+03  0.31630059821E+03  0.47000000000E+01 0. -1.
<mgrwt>
<rscale>  0 0.11723962E+03</rscale>
<asrwt>0</asrwt>
<pdfrwt beam="1">  1        4 0.12913998E+00 0.12629742E+03</pdfrwt>
<pdfrwt beam="2">  1       -4 0.23037544E-02 0.12629742E+03</pdfrwt>
<totfact> 0.61998882E+02</totfact>
</mgrwt>
</event>
<event>
 8    1  0.3572165E-004  0.1420701E+03  0.7546771E-02  0.1221010E+00
         -4   -1    0    0    0  501 -0.00000000000E+00  0.00000000000E+00  0.30680505544E+03  0.30680505544E+03  0.00000000000E+00 0.  1.
          4   -1    0    0  501    0  0.00000000000E+00 -0.00000000000E+00 -0.62168197855E+02  0.62168197855E+02  0.00000000000E+00 0. -1.
         25    2    1    2    0    0 -0.14022440967E+02 -0.66045557639E+02  0.64948431383E+02  0.15621210720E+03  0.12500111665E+03 0.  0.
         23    2    1    2    0    0  0.14022440967E+02  0.66045557639E+02  0.17968842621E+03  0.21276114610E+03  0.91764536946E+02 0.  0.
          5    1    3    3  502    0  0.36508269310E+01 -0.27758722170E+02  0.98252974054E+02  0.10227224503E+03  0.47000000000E+01 0. -1.
         -5    1    4    4    0  503  0.27369574283E+02  0.11480734591E+02  0.14154316236E+03  0.14469781503E+03  0.47000000000E+01 0.  1.
          5    1    4    4  503    0 -0.13347133317E+02  0.54564823048E+02  0.38145263846E+02  0.68063331067E+02  0.47000000000E+01 0. -1.
         -5    1    3    3    0  502 -0.17673267898E+02 -0.38286835469E+02 -0.33304542671E+02  0.53939862170E+02  0.47000000000E+01 0. -1.
<mgrwt>
<rscale>  0 0.13444165E+03</rscale>
<asrwt>0</asrwt>
<pdfrwt beam="1">  1        4 0.95643383E-02 0.14207014E+03</pdfrwt>
<pdfrwt beam="2">  1       -4 0.47200777E-01 0.14207014E+03</pdfrwt>
<totfact> 0.59702211E+02</totfact>
</mgrwt>
</event>
<event>
 8    1  0.3572165E-004  0.1678499E+03  0.7546771E-02  0.1186932E+00
         -2   -1    0    0    0  501 -0.00000000000E+00  0.00000000000E+00  0.20249214339E+02  0.20249214339E+02  0.00000000000E+00 0.  1.
          2   -1    0    0  501    0  0.00000000000E+00 -0.00000000000E+00 -0.12552056146E+04  0.12552056146E+04  0.00000000000E+00 0. -1.
         25    2    1    2    0    0  0.95999078073E+02  0.57729021761E+02 -0.79391088452E+03  0.81146045392E+03  0.12500045108E+03 0.  0.
         23    2    1    2    0    0 -0.95999078073E+02 -0.57729021761E+02 -0.44104551574E+03  0.46399437502E+03  0.90670668642E+02 0.  0.
          5    1    4    4  502    0 -0.10608692203E+03 -0.28532351957E+02 -0.37740951284E+03  0.39310120900E+03  0.47000000000E+01 0. -1.
         -5    1    4    4    0  502  0.10087843961E+02 -0.29196669804E+02 -0.63636002905E+02  0.70893166025E+02  0.47000000000E+01 0.  1.
          5    1    3    3  503    0  0.12252960739E+03  0.52933677265E+02 -0.72705344846E+03  0.73921869957E+03  0.47000000000E+01 0.  1.
         -5    1    3    3    0  503 -0.26530529319E+02  0.47953444960E+01 -0.66857436059E+02  0.72241754347E+02  0.47000000000E+01 0.  1.
<mgrwt>
<rscale>  0 0.16157321E+03</rscale>
<asrwt>0</asrwt>
<pdfrwt beam="1">  1        2 0.19310860E+00 0.16784986E+03</pdfrwt>
<pdfrwt beam="2">  1       -2 0.31152631E-02 0.16784986E+03</pdfrwt>
<totfact> 0.73175910E+03</totfact>
</mgrwt>
</event>
<event>
 8    1  0.3572165E-004  0.2129748E+03  0.7546771E-02  0.1143078E+00
         -1   -1    0    0    0  501 -0.00000000000E+00  0.00000000000E+00  0.12248253716E+03  0.12248253716E+03  0.00000000000E+00 0.  1.
          1   -1    0    0  501    0  0.00000000000E+00 -0.00000000000E+00 -0.52202050318E+03  0.52202050318E+03  0.00000000000E+00 0. -1.
         25    2    1    2    0    0  0.98532292932E+02  0.14151582733E+03 -0.39679986236E+03  0.45034255335E+03  0.12499176955E+03 0.  0.
         23    2    1    2    0    0 -0.98532292932E+02 -0.14151582733E+03 -0.27381036637E+01  0.19416048699E+03  0.89193359403E+02 0.  0.
          5    1    3    3  502    0  0.77577026608E+02  0.14683508770E+03 -0.23941991621E+03  0.29141503790E+03  0.47000000000E+01 0.  1.
         -5    1    3    3    0  502  0.20955266324E+02 -0.53192603674E+01 -0.15737994615E+03  0.15892751545E+03  0.47000000000E+01 0.  1.
          5    1    4    4  503    0 -0.30261642130E+02 -0.80029337990E-01 -0.19253026188E+02  0.36173780650E+02  0.47000000000E+01 0. -1.
         -5    1    4    4    0  503 -0.68270650801E+02 -0.14143579799E+03  0.16514922525E+02  0.15798670634E+03  0.47000000000E+01 0.  1.
<mgrwt>
<rscale>  0 0.20810171E+03</rscale>
<asrwt>0</asrwt>
<pdfrwt beam="1">  1        1 0.80310845E-01 0.21297484E+03</pdfrwt>
<pdfrwt beam="2">  1       -1 0.18843468E-01 0.21297484E+03</pdfrwt>
<totfact> 0.94861562E+02</totfact>
</mgrwt>
</event>
<event>
 8    1  0.3572165E-004  0.1412131E+03  0.7546771E-02  0.1222684E+00
          2   -1    0    0  501    0  0.00000000000E+00  0.00000000000E+00  0.66196049493E+03  0.66196049493E+03  0.00000000000E+00 0. -1.
         -2   -1    0    0    0  501 -0.00000000000E+00 -0.00000000000E+00 -0.25535259715E+02  0.25535259715E+02  0.00000000000E+00 0.  1.
         25    2    1    2    0    0  0.64432645812E+02  0.12616129265E+02  0.43057198500E+03  0.45313726962E+03  0.12502167128E+03 0.  0.
         23    2    1    2    0    0 -0.64432645812E+02 -0.12616129265E+02  0.20585325021E+03  0.23435848502E+03  0.90761259983E+02 0.  0.
          5    1    3    3  502    0  0.22341902489E+02 -0.52216189791E+02  0.11695692963E+03  0.13010266896E+03  0.47000000000E+01 0.  1.
         -5    1    3    3    0  502  0.42090743322E+02  0.64832319057E+02  0.31361505537E+03  0.32303460066E+03  0.47000000000E+01 0.  1.
          5    1    4    4  503    0 -0.60490194446E+02  0.30810754973E+02  0.13028770503E+03  0.14698755841E+03  0.47000000000E+01 0. -1.
         -5    1    4    4    0  503 -0.39424513652E+01 -0.43426884238E+02  0.75565545180E+02  0.87370926605E+02  0.47000000000E+01 0.  1.
<mgrwt>
<rscale>  0 0.13326915E+03</rscale>
<asrwt>0</asrwt>
<pdfrwt beam="1">  1        2 0.10184006E+00 0.14121314E+03</pdfrwt>
<pdfrwt beam="2">  1       -2 0.39285020E-02 0.14121314E+03</pdfrwt>
<totfact> 0.12121744E+04</totfact>
</mgrwt>
</event>
<event>
 8    1  0.3572165E-004  0.1299659E+03  0.7546771E-02  0.1242751E+00
         -1   -1    0    0    0  501 -0.00000000000E+00  0.00000000000E+00  0.22179931269E+02  0.22179931269E+02  0.00000000000E+00 0.  1.
          1   -1    0    0  501    0  0.00000000000E+00 -0.00000000000E+00 -0.63321909095E+03  0.63321909095E+03  0.00000000000E+00 0. -1.
         25    2    1    2    0    0 -0.32638979427E+02 -0.14168111999E+02 -0.44973031478E+03  0.46813299015E+03  0.12500040826E+03 0.  0.
         23    2    1    2    0    0  0.32638979427E+02  0.14168111999E+02 -0.16130884490E+03  0.18726603207E+03  0.88215559542E+02 0.  0.
          5    1    3    3  502    0 -0.43081174078E+02 -0.48045428380E+02 -0.11880776334E+03  0.13528386961E+03  0.47000000000E+01 0. -1.
         -5    1    4    4    0  503  0.27286660036E+02  0.50492935926E+02 -0.10752938546E+03  0.12197851094E+03  0.47000000000E+01 0.  1.
          5    1    4    4  503    0  0.53523193909E+01 -0.36324823927E+02 -0.53779459449E+02  0.65287521126E+02  0.47000000000E+01 0. -1.
         -5    1    3    3    0  502  0.10442194651E+02  0.33877316382E+02 -0.33092255144E+03  0.33284912054E+03  0.47000000000E+01 0. -1.
<mgrwt>
<rscale>  0 0.12021020E+03</rscale>
<asrwt>0</asrwt>
<pdfrwt beam="1">  1        1 0.97418326E-01 0.12996592E+03</pdfrwt>
<pdfrwt beam="2">  1       -1 0.34122970E-02 0.12996592E+03</pdfrwt>
<totfact> 0.96884822E+03</totfact>
</mgrwt>
</event>
<event>
 8    1  0.3572165E-004  0.1491206E+03  0.7546771E-02  0.1210880E+00
         -2   -1    0    0    0  501 -0.00000000000E+00  0.00000000000E+00  0.36471876049E+02  0.36471876049E+02  0.00000000000E+00 0.  1.
          2   -1    0    0  501    0  0.00000000000E+00 -0.00000000000E+00 -0.51612841685E+03  0.51612841685E+03  0.00000000000E+00 0. -1.
         25    2    1    2    0    0 -0.76238689209E+02 -0.28270989874E+02 -0.22111865504E+03  0.26670287218E+03  0.12500150326E+03 0.  0.
         23    2    1    2    0    0  0.76238689209E+02  0.28270989874E+02 -0.25853788575E+03  0.28589742072E+03  0.91015988724E+02 0.  0.
          5    1    4    4  502    0  0.54243625473E+02  0.31781619030E+02 -0.63306613809E+02  0.89343492010E+02  0.47000000000E+01 0. -1.
         -5    1    4    4    0  502  0.21995063735E+02 -0.35106291561E+01 -0.19523127195E+03  0.19655392871E+03  0.47000000000E+01 0.  1.
          5    1    3    3  503    0 -0.22183756430E+02 -0.68794269346E+02 -0.68329106693E+02  0.99577745334E+02  0.47000000000E+01 0. -1.
         -5    1    3    3    0  503 -0.54054932779E+02  0.40523279473E+02 -0.15278954835E+03  0.16712512684E+03  0.47000000000E+01 0. -1.
<mgrwt>
<rscale>  0 0.14183557E+03</rscale>
<asrwt>0</asrwt>
<pdfrwt beam="1">  1        2 0.79404370E-01 0.14912063E+03</pdfrwt>
<pdfrwt beam="2">  1       -2 0.56110580E-02 0.14912063E+03</pdfrwt>
<totfact> 0.94554593E+03</totfact>
</mgrwt>
</event>
<event>
 8    1  0.3572165E-004  0.1449052E+03  0.7546771E-02  0.1216909E+00
         -1   -1    0    0    0  501 -0.00000000000E+00  0.00000000000E+00  0.18128253183E+02  0.18128253183E+02  0.00000000000E+00 0.  1.
          1   -1    0    0  501    0  0.00000000000E+00 -0.00000000000E+00 -0.95653587145E+03  0.95653587145E+03  0.00000000000E+00 0. -1.
         25    2    1    2    0    0  0.48601161714E+01  0.73145355928E+02 -0.56878207768E+03  0.58695023573E+03  0.12499465396E+03 0.  0.
         23    2    1    2    0    0 -0.48601161714E+01 -0.73145355928E+02 -0.36962554059E+03  0.38771388889E+03  0.91242290441E+02 0.  0.
          5    1    4    4  502    0  0.65809440116E+00 -0.46107072418E+02 -0.35109927378E+03  0.35414557072E+03  0.47000000000E+01 0. -1.
         -5    1    3    3    0  503  0.29279775008E+02 -0.23635205408E+02 -0.25041586981E+03  0.25327085504E+03  0.47000000000E+01 0. -1.
          5    1    3    3  503    0 -0.24419658837E+02  0.96780561335E+02 -0.31836620787E+03  0.33367938070E+03  0.47000000000E+01 0. -1.
         -5    1    4    4    0  502 -0.55182105725E+01 -0.27038283509E+02 -0.18526266810E+02  0.33568318173E+02  0.47000000000E+01 0.  1.
<mgrwt>
<rscale>  0 0.13737232E+03</rscale>
<asrwt>0</asrwt>
<pdfrwt beam="1">  1        1 0.14715938E+00 0.14490524E+03</pdfrwt>
<pdfrwt beam="2">  1       -1 0.27889617E-02 0.14490524E+03</pdfrwt>
<totfact> 0.70524234E+03</totfact>
</mgrwt>
</event>
<event>
 8    1  0.3572165E-004  0.2172111E+03  0.7546771E-02  0.1139387E+00
         -2   -1    0    0    0  501 -0.00000000000E+00  0.00000000000E+00  0.35793228955E+02  0.35793228955E+02  0.00000000000E+00 0.  1.
          2   -1    0    0  501    0  0.00000000000E+00 -0.00000000000E+00 -0.12386962925E+04  0.12386962925E+04  0.00000000000E+00 0. -1.
         25    2    1    2    0    0 -0.17587118315E+03  0.24992351743E+02 -0.71238065813E+03  0.74475960798E+03  0.12500152358E+03 0.  0.
         23    2    1    2    0    0  0.17587118315E+03 -0.24992351743E+02 -0.49052240543E+03  0.52972991349E+03  0.91903538057E+02 0.  0.
          5    1    3    3  502    0 -0.70839646019E+02 -0.48580751895E+02 -0.34684805945E+03  0.35735698013E+03  0.47000000000E+01 0.  1.
         -5    1    3    3    0  502 -0.10503153713E+03  0.73573103638E+02 -0.36553259868E+03  0.38740262785E+03  0.47000000000E+01 0.  1.
          5    1    4    4  503    0  0.96690112169E+02 -0.26539698594E+02 -0.15284472487E+03  0.18285768595E+03  0.47000000000E+01 0. -1.
         -5    1    4    4    0  503  0.79181070976E+02  0.15473468508E+01 -0.33767768057E+03  0.34687222754E+03  0.47000000000E+01 0.  1.
<mgrwt>
<rscale>  0 0.21277527E+03</rscale>
<asrwt>0</asrwt>
<pdfrwt beam="1">  1        2 0.19056862E+00 0.21721112E+03</pdfrwt>
<pdfrwt beam="2">  1       -2 0.55066518E-02 0.21721112E+03</pdfrwt>
<totfact> 0.31973083E+03</totfact>
</mgrwt>
</event>
<event>
 8    1  0.3572165E-004  0.3108432E+03  0.7546771E-02  0.1081429E+00
          2   -1    0    0  501    0  0.00000000000E+00  0.00000000000E+00  0.48461732695E+03  0.48461732695E+03  0.00000000000E+00 0. -1.
         -2   -1    0    0    0  501 -0.00000000000E+00 -0.00000000000E+00 -0.22007962615E+03  0.22007962615E+03  0.00000000000E+00 0.  1.
         25    2    1    2    0    0  0.25162067220E+03 -0.13298580805E+03  0.79376275377E+01  0.31094456700E+03  0.12500131997E+03 0.  0.
         23    2    1    2    0    0 -0.25162067220E+03  0.13298580805E+03  0.25660007326E+03  0.39375238611E+03  0.90549191845E+02 0.  0.
          5    1    4    4  502    0 -0.65993487877E+02  0.82674543561E+02  0.10080933666E+03  0.14620134388E+03  0.47000000000E+01 0. -1.
         -5    1    3    3    0  503  0.70167699088E+02 -0.10296030514E+03 -0.14815904059E+02  0.12556246032E+03  0.47000000000E+01 0. -1.
          5    1    3    3  503    0  0.18145297311E+03 -0.30025502915E+02  0.22753531597E+02  0.18538210668E+03  0.47000000000E+01 0. -1.
         -5    1    4    4    0  502 -0.18562718432E+03  0.50311264491E+02  0.15579073660E+03  0.24755104222E+03  0.47000000000E+01 0.  1.
<mgrwt>
<rscale>  0 0.30775141E+03</rscale>
<asrwt>0</asrwt>
<pdfrwt beam="1">  1        2 0.74556512E-01 0.31084324E+03</pdfrwt>
<pdfrwt beam="2">  1       -2 0.33858404E-01 0.31084324E+03</pdfrwt>
<totfact> 0.52920260E+02</totfact>
</mgrwt>
</event>
<event>
 8    1  0.3572165E-004  0.1324153E+03  0.7546771E-02  0.1237341E+00
          2   -1    0    0  501    0  0.00000000000E+00  0.00000000000E+00  0.13127659816E+03  0.13127659816E+03  0.00000000000E+00 0. -1.
         -2   -1    0    0    0  501 -0.00000000000E+00 -0.00000000000E+00 -0.11523285159E+03  0.11523285159E+03  0.00000000000E+00 0.  1.
         25    2    1    2    0    0  0.21475182625E+02 -0.38046768104E+02 -0.30467021079E+02  0.13587510629E+03  0.12500026041E+03 0.  0.
         23    2    1    2    0    0 -0.21475182625E+02  0.38046768104E+02  0.46510767656E+02  0.11063434347E+03  0.90376802416E+02 0.  0.
          5    1    4    4  502    0 -0.19122797925E+02  0.97504436354E+01  0.70074015427E+02  0.73438478944E+02  0.47000000000E+01 0. -1.
         -5    1    4    4    0  502 -0.23523846998E+01  0.28296324469E+02 -0.23563247771E+02  0.37195864525E+02  0.47000000000E+01 0.  1.
          5    1    3    3  503    0 -0.20602243122E+02 -0.73082989853E+02 -0.79707346574E+01  0.76493126740E+02  0.47000000000E+01 0. -1.
         -5    1    3    3    0  503  0.42077425747E+02  0.35036221749E+02 -0.22496286422E+02  0.59381979545E+02  0.47000000000E+01 0. -1.
<mgrwt>
<rscale>  0 0.12355729E+03</rscale>
<asrwt>0</asrwt>
<pdfrwt beam="1">  1        2 0.20196400E-01 0.13241528E+03</pdfrwt>
<pdfrwt beam="2">  1       -2 0.17728131E-01 0.13241528E+03</pdfrwt>
<totfact> 0.67163124E+03</totfact>
</mgrwt>
</event>
<event>
 8    1  0.3572165E-004  0.1318063E+03  0.7546771E-02  0.1238562E+00
          1   -1    0    0  501    0  0.00000000000E+00  0.00000000000E+00  0.59382337182E+03  0.59382337182E+03  0.00000000000E+00 0. -1.
         -1   -1    0    0    0  501 -0.00000000000E+00 -0.00000000000E+00 -0.23898227906E+02  0.23898227906E+02  0.00000000000E+00 0.  1.
         25    2    1    2    0    0  0.36023378561E+02 -0.21230168916E+02  0.24820928723E+03  0.28103515854E+03  0.12499802476E+03 0.  0.
         23    2    1    2    0    0 -0.36023378561E+02  0.21230168916E+02  0.32171585668E+03  0.33668644118E+03  0.90045895859E+02 0.  0.
          5    1    4    4  502    0 -0.61077339356E+02 -0.51257884354E+01  0.17593021181E+03  0.18636052296E+03  0.47000000000E+01 0. -1.
         -5    1    4    4    0  502  0.25053960795E+02  0.26355957351E+02  0.14578564487E+03  0.15032591822E+03  0.47000000000E+01 0.  1.
          5    1    3    3  503    0  0.65362556757E+02  0.15359476122E+01  0.59104738767E+02  0.88261447448E+02  0.47000000000E+01 0.  1.
         -5    1    3    3    0  503 -0.29339178196E+02 -0.22766116528E+02  0.18910454846E+03  0.19277371109E+03  0.47000000000E+01 0.  1.
<mgrwt>
<rscale>  0 0.12279155E+03</rscale>
<asrwt>0</asrwt>
<pdfrwt beam="1">  1        1 0.91357431E-01 0.13180634E+03</pdfrwt>
<pdfrwt beam="2">  1       -1 0.36766509E-02 0.13180634E+03</pdfrwt>
<totfact> 0.94944310E+03</totfact>
</mgrwt>
</event>
<event>
 8    1  0.3572165E-004  0.1400684E+03  0.7546771E-02  0.1224538E+00
         -1   -1    0    0    0  501 -0.00000000000E+00  0.00000000000E+00  0.31022732363E+03  0.31022732363E+03  0.00000000000E+00 0.  1.
          1   -1    0    0  501    0  0.00000000000E+00 -0.00000000000E+00 -0.51284828113E+02  0.51284828113E+02  0.00000000000E+00 0. -1.
         25    2    1    2    0    0  0.57955184864E+02 -0.25191769119E+02  0.12335286599E+03  0.18664160544E+03  0.12500292256E+03 0.  0.
         23    2    1    2    0    0 -0.57955184864E+02  0.25191769119E+02  0.13558962953E+03  0.17487054631E+03  0.90563412289E+02 0.  0.
          5    1    4    4  502    0 -0.35561131067E+02  0.47333587102E+02  0.34056162669E+02  0.68461483525E+02  0.47000000000E+01 0. -1.
         -5    1    3    3    0  503  0.61573642096E+02  0.17383195102E+02  0.12822726688E+03  0.14337995273E+03  0.47000000000E+01 0.  1.
          5    1    3    3  503    0 -0.36184572324E+01 -0.42574964221E+02 -0.48744008907E+01  0.43261652710E+02  0.47000000000E+01 0.  1.
         -5    1    4    4    0  502 -0.22394053796E+02 -0.22141817983E+02  0.10153346686E+03  0.10640906278E+03  0.47000000000E+01 0.  1.
<mgrwt>
<rscale>  0 0.13198622E+03</rscale>
<asrwt>0</asrwt>
<pdfrwt beam="1">  1        1 0.78899737E-02 0.14006841E+03</pdfrwt>
<pdfrwt beam="2">  1       -1 0.47727280E-01 0.14006841E+03</pdfrwt>
<totfact> 0.38142281E+03</totfact>
</mgrwt>
</event>
<event>
 8    1  0.3572165E-004  0.1374606E+03  0.7546771E-02  0.1228855E+00
          1   -1    0    0  501    0  0.00000000000E+00  0.00000000000E+00  0.23304671832E+03  0.23304671832E+03  0.00000000000E+00 0. -1.
         -1   -1    0    0    0  501 -0.00000000000E+00 -0.00000000000E+00 -0.10872188003E+03  0.10872188003E+03  0.00000000000E+00 0.  1.
         25    2    1    2    0    0 -0.28525188709E+02 -0.49558070554E+02 -0.42319220971E+02  0.14382744293E+03  0.12500291248E+03 0.  0.
         23    2    1    2    0    0  0.28525188709E+02  0.49558070554E+02  0.16664405926E+03  0.19794115542E+03  0.90226214448E+02 0.  0.
          5    1    4    4  502    0 -0.60432155861E+01  0.63287056140E+02  0.13333615004E+03  0.14779171437E+03  0.47000000000E+01 0. -1.
         -5    1    4    4    0  502  0.34568404295E+02 -0.13728985586E+02  0.33307909226E+02  0.50149441051E+02  0.47000000000E+01 0.  1.
          5    1    3    3  503    0  0.20149655528E+02 -0.27533647945E+02 -0.73939830154E+02  0.81567756315E+02  0.47000000000E+01 0.  1.
         -5    1    3    3    0  503 -0.48674844237E+02 -0.22024422609E+02  0.31620609183E+02  0.62259686618E+02  0.47000000000E+01 0.  1.
<mgrwt>
<rscale>  0 0.12906146E+03</rscale>
<asrwt>0</asrwt>
<pdfrwt beam="1">  1        1 0.35853341E-01 0.13746060E+03</pdfrwt>
<pdfrwt beam="2">  1       -1 0.16726443E-01 0.13746060E+03</pdfrwt>
<totfact> 0.31509740E+03</totfact>
</mgrwt>
</event>
<event>
 8    1  0.3572165E-004  0.1679753E+03  0.7546771E-02  0.1186566E+00
          2   -1    0    0  501    0  0.00000000000E+00  0.00000000000E+00  0.36135820999E+03  0.36135820999E+03  0.00000000000E+00 0. -1.
         -2   -1    0    0    0  501 -0.00000000000E+00 -0.00000000000E+00 -0.67812746363E+02  0.67812746363E+02  0.00000000000E+00 0.  1.
         25    2    1    2    0    0  0.60884735479E+02 -0.94267182601E+02  0.15122708834E+03  0.22602061690E+03  0.12498973672E+03 0.  0.
         23    2    1    2    0    0 -0.60884735479E+02  0.94267182601E+02  0.14231837528E+03  0.20315033945E+03  0.91773022978E+02 0.  0.
          5    1    4    4  502    0 -0.31006659858E+02  0.10570129154E+03  0.93332093266E+02  0.14445464901E+03  0.47000000000E+01 0. -1.
         -5    1    3    3    0  503 -0.17503108224E+02 -0.53666160860E+02  0.73004801803E+01  0.57112193356E+02  0.47000000000E+01 0.  1.
          5    1    3    3  503    0  0.78387843704E+02 -0.40601021740E+02  0.14392660816E+03  0.16890842354E+03  0.47000000000E+01 0.  1.
         -5    1    4    4    0  502 -0.29878075622E+02 -0.11434108938E+02  0.48986282018E+02  0.58695690439E+02  0.47000000000E+01 0.  1.
<mgrwt>
<rscale>  0 0.16190175E+03</rscale>
<asrwt>0</asrwt>
<pdfrwt beam="1">  1        2 0.55593569E-01 0.16797526E+03</pdfrwt>
<pdfrwt beam="2">  1       -2 0.10432730E-01 0.16797526E+03</pdfrwt>
<totfact> 0.53709781E+03</totfact>
</mgrwt>
</event>
<event>
 8    1  0.3572165E-004  0.1346330E+03  0.7546771E-02  0.1233310E+00
          4   -1    0    0  501    0  0.00000000000E+00  0.00000000000E+00  0.16970034077E+02  0.16970034077E+02  0.00000000000E+00 0.  1.
         -4   -1    0    0    0  501 -0.00000000000E+00 -0.00000000000E+00 -0.83831860711E+03  0.83831860711E+03  0.00000000000E+00 0. -1.
         25    2    1    2    0    0  0.19074980081E+02  0.46234420786E+02 -0.44664612634E+03  0.46649631844E+03  0.12499830564E+03 0.  0.
         23    2    1    2    0    0 -0.19074980081E+02 -0.46234420786E+02 -0.37470244670E+03  0.38879232275E+03  0.90862919487E+02 0.  0.
          5    1    4    4  502    0 -0.50492602575E+02 -0.47020048886E+01 -0.20399954949E+03  0.21026059535E+03  0.47000000000E+01 0. -1.
         -5    1    3    3    0  503 -0.15861685867E+02  0.58488465424E+02 -0.40898008307E+03  0.41347223850E+03  0.47000000000E+01 0. -1.
          5    1    3    3  503    0  0.34936665948E+02 -0.12254044638E+02 -0.37666043273E+02  0.53024079939E+02  0.47000000000E+01 0. -1.
         -5    1    4    4    0  502  0.31417622494E+02 -0.41532415898E+02 -0.17070289721E+03  0.17853172740E+03  0.47000000000E+01 0.  1.
<mgrwt>
<rscale>  0 0.12613275E+03</rscale>
<asrwt>0</asrwt>
<pdfrwt beam="1">  1        4 0.26107749E-02 0.13463303E+03</pdfrwt>
<pdfrwt beam="2">  1       -4 0.12897207E+00 0.13463303E+03</pdfrwt>
<totfact> 0.51871912E+02</totfact>
</mgrwt>
</event>
<event>
 8    1  0.3572165E-004  0.1435425E+03  0.7546771E-02  0.1219850E+00
          1   -1    0    0  501    0  0.00000000000E+00  0.00000000000E+00  0.71944938555E+03  0.71944938555E+03  0.00000000000E+00 0. -1.
         -1   -1    0    0    0  501 -0.00000000000E+00 -0.00000000000E+00 -0.23654444064E+02  0.23654444064E+02  0.00000000000E+00 0.  1.
         25    2    1    2    0    0  0.69978899735E+02 -0.91001549797E+01  0.45357273199E+03  0.47574434269E+03  0.12499838864E+03 0.  0.
         23    2    1    2    0    0 -0.69978899735E+02  0.91001549797E+01  0.24222220949E+03  0.26735948693E+03  0.88485237465E+02 0.  0.
          5    1    3    3  502    0  0.10345437724E+03 -0.48926886875E+01  0.27377994655E+03  0.29275296020E+03  0.47000000000E+01 0.  1.
         -5    1    4    4    0  503 -0.64376677038E+02 -0.31517041190E+02  0.14903627638E+03  0.16544359192E+03  0.47000000000E+01 0.  1.
          5    1    4    4  503    0 -0.56022226969E+01  0.40617196170E+02  0.93185933117E+02  0.10191589500E+03  0.47000000000E+01 0. -1.
         -5    1    3    3    0  502 -0.33475477506E+02 -0.42074662922E+01  0.17979278544E+03  0.18299138249E+03  0.47000000000E+01 0.  1.
<mgrwt>
<rscale>  0 0.13526235E+03</rscale>
<asrwt>0</asrwt>
<pdfrwt beam="1">  1        1 0.11068450E+00 0.14354252E+03</pdfrwt>
<pdfrwt beam="2">  1       -1 0.36391458E-02 0.14354252E+03</pdfrwt>
<totfact> 0.74075178E+03</totfact>
</mgrwt>
</event>
<event>
 8    1  0.3572165E-004  0.1264019E+03  0.7546771E-02  0.1247809E+00
         -2   -1    0    0    0  501 -0.00000000000E+00  0.00000000000E+00  0.14553299685E+02  0.14553299685E+02  0.00000000000E+00 0.  1.
          2   -1    0    0  501    0  0.00000000000E+00 -0.00000000000E+00 -0.82983128604E+03  0.82983128604E+03  0.00000000000E+00 0. -1.
         25    2    1    2    0    0 -0.18703721013E+02 -0.23780185956E+00 -0.46674496936E+03  0.48355795413E+03  0.12501017097E+03 0.  0.
         23    2    1    2    0    0  0.18703721013E+02  0.23780185956E+00 -0.34853301699E+03  0.36082663160E+03  0.91491575606E+02 0.  0.
          5    1    4    4  502    0 -0.86202909317E+01 -0.37576459614E+02 -0.23175241588E+03  0.23498419521E+03  0.47000000000E+01 0. -1.
         -5    1    4    4    0  502  0.27324011944E+02  0.37814261474E+02 -0.11678060111E+03  0.12584243639E+03  0.47000000000E+01 0.  1.
          5    1    3    3  503    0 -0.47881300704E+02  0.20375173713E+01 -0.44291633013E+03  0.44552635829E+03  0.47000000000E+01 0.  1.
         -5    1    3    3    0  503  0.29177579692E+02 -0.22753192309E+01 -0.23828639228E+02  0.38031595835E+02  0.47000000000E+01 0.  1.
<mgrwt>
<rscale>  0 0.11718805E+03</rscale>
<asrwt>0</asrwt>
<pdfrwt beam="1">  1        2 0.12766636E+00 0.12640185E+03</pdfrwt>
<pdfrwt beam="2">  1       -2 0.22389690E-02 0.12640185E+03</pdfrwt>
<totfact> 0.20887098E+04</totfact>
</mgrwt>
</event>
<event>
 8    1  0.3572165E-004  0.1763562E+03  0.7546771E-02  0.1176973E+00
          2   -1    0    0  501    0  0.00000000000E+00  0.00000000000E+00  0.11835030461E+03  0.11835030461E+03  0.00000000000E+00 0. -1.
         -2   -1    0    0    0  501 -0.00000000000E+00 -0.00000000000E+00 -0.23692619713E+03  0.23692619713E+03  0.00000000000E+00 0.  1.
         25    2    1    2    0    0  0.44846340129E+02 -0.11604206815E+03 -0.87567463670E+02  0.19689985723E+03  0.12499814911E+03 0.  0.
         23    2    1    2    0    0 -0.44846340129E+02  0.11604206815E+03 -0.31008428849E+02  0.15837664450E+03  0.92976787741E+02 0.  0.
          5    1    3    3  502    0  0.19642308600E+02 -0.99750058200E+02 -0.11667674016E+03  0.15482714908E+03  0.47000000000E+01 0.  1.
         -5    1    3    3    0  502  0.25204031529E+02 -0.16292009954E+02  0.29109276488E+02  0.42072708153E+02  0.47000000000E+01 0.  1.
          5    1    4    4  503    0 -0.65471813724E+02  0.58876217303E+02  0.36613489793E+01  0.88252268144E+02  0.47000000000E+01 0. -1.
         -5    1    4    4    0  503  0.20625473595E+02  0.57165850851E+02 -0.34669777828E+02  0.70124376355E+02  0.47000000000E+01 0.  1.
<mgrwt>
<rscale>  0 0.17084167E+03</rscale>
<asrwt>0</asrwt>
<pdfrwt beam="1">  1        2 0.18207739E-01 0.17635615E+03</pdfrwt>
<pdfrwt beam="2">  1       -2 0.36450184E-01 0.17635615E+03</pdfrwt>
<totfact> 0.21609899E+03</totfact>
</mgrwt>
</event>
<event>
 8    1  0.3572165E-004  0.1386336E+03  0.7546771E-02  0.1226596E+00
         -3   -1    0    0    0  501 -0.00000000000E+00  0.00000000000E+00  0.90215282976E+02  0.90215282976E+02  0.00000000000E+00 0.  1.
          3   -1    0    0  501    0  0.00000000000E+00 -0.00000000000E+00 -0.17342316638E+03  0.17342316638E+03  0.00000000000E+00 0. -1.
         25    2    1    2    0    0  0.45608994937E+02  0.38892453495E+02 -0.64576190458E+02  0.15293576771E+03  0.12500584512E+03 0.  0.
         23    2    1    2    0    0 -0.45608994937E+02 -0.38892453495E+02 -0.18631692950E+02  0.11070268165E+03  0.91187391585E+02 0.  0.
          5    1    3    3  502    0  0.15863528974E+02  0.43992579702E+02  0.28506484787E+02  0.54970067266E+02  0.47000000000E+01 0. -1.
         -5    1    3    3    0  502  0.29745465963E+02 -0.51001262067E+01 -0.93082675245E+02  0.97965700444E+02  0.47000000000E+01 0. -1.
          5    1    4    4  503    0 -0.14000756876E+01 -0.49738244661E+02  0.16907155029E+02  0.52761681977E+02  0.47000000000E+01 0.  1.
         -5    1    4    4    0  503 -0.44208919250E+02  0.10845791165E+02 -0.35538847980E+02  0.57940999672E+02  0.47000000000E+01 0. -1.
<mgrwt>
<rscale>  0 0.13058127E+03</rscale>
<asrwt>0</asrwt>
<pdfrwt beam="1">  1        3 0.26680487E-01 0.13863356E+03</pdfrwt>
<pdfrwt beam="2">  1       -3 0.13879275E-01 0.13863356E+03</pdfrwt>
<totfact> 0.13063002E+03</totfact>
</mgrwt>
</event>
<event>
 8    1  0.3572165E-004  0.2188776E+03  0.7546771E-02  0.1138254E+00
         -2   -1    0    0    0  501 -0.00000000000E+00  0.00000000000E+00  0.23829271574E+03  0.23829271574E+03  0.00000000000E+00 0.  1.
          2   -1    0    0  501    0  0.00000000000E+00 -0.00000000000E+00 -0.18500687653E+03  0.18500687653E+03  0.00000000000E+00 0. -1.
         25    2    1    2    0    0  0.30981389357E+02 -0.17700269336E+03  0.22013429327E+02  0.21998178713E+03  0.12497037910E+03 0.  0.
         23    2    1    2    0    0 -0.30981389357E+02  0.17700269336E+03  0.31272409877E+02  0.20331780515E+03  0.89835217626E+02 0.  0.
          5    1    3    3  502    0 -0.35708882828E+02 -0.82455211416E+01  0.88105475518E+01  0.37984584766E+02  0.47000000000E+01 0.  1.
         -5    1    4    4    0  503 -0.52270666304E+02  0.13049131432E+03  0.49055870898E+02  0.14895896797E+03  0.47000000000E+01 0.  1.
          5    1    4    4  503    0  0.21289276947E+02  0.46511379044E+02 -0.17783461021E+02  0.54358837178E+02  0.47000000000E+01 0. -1.
         -5    1    3    3    0  502  0.66690272185E+02 -0.16875717222E+03  0.13202881775E+02  0.18199720236E+03  0.47000000000E+01 0.  1.
<mgrwt>
<rscale>  0 0.21423730E+03</rscale>
<asrwt>0</asrwt>
<pdfrwt beam="1">  1        2 0.28462596E-01 0.21887758E+03</pdfrwt>
<pdfrwt beam="2">  1       -2 0.36660418E-01 0.21887758E+03</pdfrwt>
<totfact> 0.13015881E+03</totfact>
</mgrwt>
</event>
<event>
 8    1  0.3572165E-004  0.1377355E+03  0.7546771E-02  0.1228471E+00
          2   -1    0    0  501    0  0.00000000000E+00  0.00000000000E+00  0.79040662439E+03  0.79040662439E+03  0.00000000000E+00 0. -1.
         -2   -1    0    0    0  501 -0.00000000000E+00 -0.00000000000E+00 -0.19263270339E+02  0.19263270339E+02  0.00000000000E+00 0.  1.
         25    2    1    2    0    0  0.16052436727E+02 -0.55609595171E+02  0.48445473430E+03  0.50365410140E+03  0.12498382486E+03 0.  0.
         23    2    1    2    0    0 -0.16052436727E+02  0.55609595171E+02  0.28668861975E+03  0.30601579333E+03  0.90028846874E+02 0.  0.
          5    1    3    3  502    0 -0.68971159399E+00 -0.76349680429E+02  0.46255618566E+03  0.46883906012E+03  0.47000000000E+01 0. -1.
         -5    1    4    4    0  503 -0.19593056459E+01  0.74075410881E+02  0.15094289809E+03  0.16821668722E+03  0.47000000000E+01 0.  1.
          5    1    4    4  503    0 -0.14093131081E+02 -0.18465815711E+02  0.13574572167E+03  0.13779910611E+03  0.47000000000E+01 0. -1.
         -5    1    3    3    0  502  0.16742148321E+02  0.20740085259E+02  0.21898548640E+02  0.34815041282E+02  0.47000000000E+01 0. -1.
<mgrwt>
<rscale>  0 0.12931836E+03</rscale>
<asrwt>0</asrwt>
<pdfrwt beam="1">  1        2 0.12160099E+00 0.13773549E+03</pdfrwt>
<pdfrwt beam="2">  1       -2 0.29635807E-02 0.13773549E+03</pdfrwt>
<totfact> 0.14829660E+04</totfact>
</mgrwt>
</event>
<event>
 8    1  0.3572165E-004  0.1323405E+03  0.7546771E-02  0.1237987E+00
          1   -1    0    0  501    0  0.00000000000E+00  0.00000000000E+00  0.34446863571E+03  0.34446863571E+03  0.00000000000E+00 0. -1.
         -1   -1    0    0    0  501 -0.00000000000E+00 -0.00000000000E+00 -0.87972896827E+02  0.87972896827E+02  0.00000000000E+00 0.  1.
         25    2    1    2    0    0 -0.97867694192E+01 -0.42347027535E+02 -0.24364643895E+02  0.13456459808E+03  0.12499977435E+03 0.  0.
         23    2    1    2    0    0  0.97867694192E+01  0.42347027535E+02  0.28086038277E+03  0.29787693445E+03  0.89213574458E+02 0.  0.
          5    1    4    4  502    0 -0.11648345994E+02  0.29542703024E+02  0.26702414702E+03  0.26894690993E+03  0.47000000000E+01 0. -1.
         -5    1    3    3    0  503 -0.48292489294E+02  0.99541752729E+01 -0.44313392800E+02  0.66460641804E+02  0.47000000000E+01 0. -1.
          5    1    3    3  503    0  0.38505719874E+02 -0.52301202808E+02  0.19948748905E+02  0.68103956281E+02  0.47000000000E+01 0. -1.
         -5    1    4    4    0  502  0.21435115413E+02  0.12804324511E+02  0.13836235750E+02  0.28930024519E+02  0.47000000000E+01 0.  1.
<mgrwt>
<rscale>  0 0.12315118E+03</rscale>
<asrwt>0</asrwt>
<pdfrwt beam="1">  1        1 0.52995174E-01 0.13234045E+03</pdfrwt>
<pdfrwt beam="2">  1       -1 0.13534292E-01 0.13234045E+03</pdfrwt>
<totfact> 0.27026813E+03</totfact>
</mgrwt>
</event>
<event>
 8    1  0.3572165E-004  0.1911909E+03  0.7546771E-02  0.1160923E+00
          1   -1    0    0  501    0  0.00000000000E+00  0.00000000000E+00  0.12071139472E+04  0.12071139472E+04  0.00000000000E+00 0. -1.
         -1   -1    0    0    0  501 -0.00000000000E+00 -0.00000000000E+00 -0.29475248194E+02  0.29475248194E+02  0.00000000000E+00 0.  1.
         25    2    1    2    0    0 -0.14454461012E+03 -0.59832844638E+01  0.47061072068E+03  0.50796496682E+03  0.12500005238E+03 0.  0.
         23    2    1    2    0    0  0.14454461012E+03  0.59832844638E+01  0.70702797834E+03  0.72862422859E+03  0.10037808682E+03 0.  0.
          5    1    4    4  502    0  0.99374534976E+02  0.32465216984E+02  0.60357703233E+03  0.61258192307E+03  0.47000000000E+01 0. -1.
         -5    1    3    3    0  503 -0.12462012402E+03 -0.55884387966E+02  0.35486463651E+03  0.38026864238E+03  0.47000000000E+01 0.  1.
          5    1    3    3  503    0 -0.19924486101E+02  0.49901103502E+02  0.11574608417E+03  0.12769632444E+03  0.47000000000E+01 0.  1.
         -5    1    4    4    0  502  0.45170075145E+02 -0.26481932520E+02  0.10345094602E+03  0.11604230552E+03  0.47000000000E+01 0.  1.
<mgrwt>
<rscale>  0 0.18729615E+03</rscale>
<asrwt>0</asrwt>
<pdfrwt beam="1">  1        1 0.18570980E+00 0.19119089E+03</pdfrwt>
<pdfrwt beam="2">  1       -1 0.45346545E-02 0.19119089E+03</pdfrwt>
<totfact> 0.23003786E+03</totfact>
</mgrwt>
</event>
<event>
 8    1  0.3572165E-004  0.1863162E+03  0.7546771E-02  0.1166209E+00
          1   -1    0    0  501    0  0.00000000000E+00  0.00000000000E+00  0.67047086301E+03  0.67047086301E+03  0.00000000000E+00 0. -1.
         -1   -1    0    0    0  501 -0.00000000000E+00 -0.00000000000E+00 -0.60145372921E+02  0.60145372921E+02  0.00000000000E+00 0.  1.
         25    2    1    2    0    0  0.10932783499E+03 -0.84471514552E+02  0.14599315866E+03  0.23670175674E+03  0.12500282793E+03 0.  0.
         23    2    1    2    0    0 -0.10932783499E+03  0.84471514552E+02  0.46433233143E+03  0.49391447919E+03  0.96223627413E+02 0.  0.
          5    1    4    4  502    0 -0.10082071706E+02  0.33094818403E+02  0.32046190798E+02  0.47391597564E+02  0.47000000000E+01 0. -1.
         -5    1    3    3    0  503  0.11622888116E+03 -0.56564204252E+02  0.15885822489E+03  0.20485772534E+03  0.47000000000E+01 0.  1.
          5    1    3    3  503    0 -0.69010461655E+01 -0.27907310300E+02 -0.12865066228E+02  0.31844031393E+02  0.47000000000E+01 0.  1.
         -5    1    4    4    0  502 -0.99245763287E+02  0.51376696148E+02  0.43228614063E+03  0.44652288163E+03  0.47000000000E+01 0.  1.
<mgrwt>
<rscale>  0 0.18165666E+03</rscale>
<asrwt>0</asrwt>
<pdfrwt beam="1">  1        1 0.10314936E+00 0.18631618E+03</pdfrwt>
<pdfrwt beam="2">  1       -1 0.92531348E-02 0.18631618E+03</pdfrwt>
<totfact> 0.20488257E+03</totfact>
</mgrwt>
</event>
<event>
 8    1  0.3572165E-004  0.1336766E+03  0.7546771E-02  0.1234497E+00
         -3   -1    0    0    0  501 -0.00000000000E+00  0.00000000000E+00  0.20670576562E+03  0.20670576562E+03  0.00000000000E+00 0.  1.
          3   -1    0    0  501    0  0.00000000000E+00 -0.00000000000E+00 -0.75220523560E+02  0.75220523560E+02  0.00000000000E+00 0. -1.
         25    2    1    2    0    0  0.43160777566E+02 -0.19551296166E+02  0.29926469538E+02  0.13698549109E+03  0.12499730112E+03 0.  0.
         23    2    1    2    0    0 -0.43160777566E+02  0.19551296166E+02  0.10155877252E+03  0.14494079809E+03  0.91915965823E+02 0.  0.
          5    1    4    4  502    0 -0.24979562312E+02  0.53466316532E+02  0.37541829886E+02  0.70100674233E+02  0.47000000000E+01 0. -1.
         -5    1    4    4    0  502 -0.18181215254E+02 -0.33915020366E+02  0.64016942636E+02  0.74840123857E+02  0.47000000000E+01 0.  1.
          5    1    3    3  503    0 -0.42866656761E+02 -0.14866726176E+02  0.21081695250E+02  0.50250350085E+02  0.47000000000E+01 0. -1.
         -5    1    3    3    0  503  0.86027434327E+02 -0.46845699907E+01  0.88447742888E+01  0.86735141004E+02  0.47000000000E+01 0. -1.
<mgrwt>
<rscale>  0 0.12536672E+03</rscale>
<asrwt>0</asrwt>
<pdfrwt beam="1">  1        3 0.11572388E-01 0.13367659E+03</pdfrwt>
<pdfrwt beam="2">  1       -3 0.31800887E-01 0.13367659E+03</pdfrwt>
<totfact> 0.12763693E+03</totfact>
</mgrwt>
</event>
<event>
 8    1  0.3572165E-004  0.1708365E+03  0.7546771E-02  0.1183401E+00
          1   -1    0    0  501    0  0.00000000000E+00  0.00000000000E+00  0.86328622158E+03  0.86328622158E+03  0.00000000000E+00 0. -1.
         -1   -1    0    0    0  501 -0.00000000000E+00 -0.00000000000E+00 -0.38662125617E+02  0.38662125617E+02  0.00000000000E+00 0.  1.
         25    2    1    2    0    0  0.11106986682E+03 -0.34983255364E+02  0.21480759176E+03  0.27445841334E+03  0.12499910283E+03 0.  0.
         23    2    1    2    0    0 -0.11106986682E+03  0.34983255364E+02  0.60981650420E+03  0.62748993385E+03  0.91143320185E+02 0.  0.
          5    1    4    4  502    0 -0.34792433519E+02 -0.10432393652E+02  0.58267164779E+02  0.68822240292E+02  0.47000000000E+01 0. -1.
         -5    1    3    3    0  503  0.82732174200E+02  0.21998143692E+02  0.18526080765E+03  0.20413766881E+03  0.47000000000E+01 0.  1.
          5    1    3    3  503    0  0.28337692619E+02 -0.56981399056E+02  0.29546784105E+02  0.70320744537E+02  0.47000000000E+01 0.  1.
         -5    1    4    4    0  502 -0.76277433300E+02  0.45415649017E+02  0.55154933942E+03  0.55866769356E+03  0.47000000000E+01 0.  1.
<mgrwt>
<rscale>  0 0.16478221E+03</rscale>
<asrwt>0</asrwt>
<pdfrwt beam="1">  1        1 0.13281325E+00 0.17083653E+03</pdfrwt>
<pdfrwt beam="2">  1       -1 0.59480200E-02 0.17083653E+03</pdfrwt>
<totfact> 0.27372216E+03</totfact>
</mgrwt>
</event>
<event>
 8    1  0.3572165E-004  0.2382061E+03  0.7546771E-02  0.1124114E+00
         -2   -1    0    0    0  501 -0.00000000000E+00  0.00000000000E+00  0.89298247785E+02  0.89298247785E+02  0.00000000000E+00 0.  1.
          2   -1    0    0  501    0  0.00000000000E+00 -0.00000000000E+00 -0.60328881255E+03  0.60328881255E+03  0.00000000000E+00 0. -1.
         25    2    1    2    0    0  0.12442259089E+03  0.16012086121E+03 -0.32032801056E+03  0.39918941241E+03  0.12498992483E+03 0.  0.
         23    2    1    2    0    0 -0.12442259089E+03 -0.16012086121E+03 -0.19366255421E+03  0.29339764793E+03  0.86355796504E+02 0.  0.
          5    1    3    3  502    0  0.82332756983E+02  0.16139244432E+03 -0.30370729118E+03  0.35367557545E+03  0.47000000000E+01 0. -1.
         -5    1    4    4    0  503 -0.92625523950E+02 -0.14252791260E+03 -0.19234168656E+03  0.25673158736E+03  0.47000000000E+01 0.  1.
          5    1    4    4  503    0 -0.31797066937E+02 -0.17592948610E+02 -0.13208676469E+01  0.36666060572E+02  0.47000000000E+01 0. -1.
         -5    1    3    3    0  502  0.42089833903E+02 -0.12715831069E+01 -0.16620719380E+02  0.45513836954E+02  0.47000000000E+01 0. -1.
<mgrwt>
<rscale>  0 0.23362457E+03</rscale>
<asrwt>0</asrwt>
<pdfrwt beam="1">  1        2 0.92813663E-01 0.23820611E+03</pdfrwt>
<pdfrwt beam="2">  1       -2 0.13738192E-01 0.23820611E+03</pdfrwt>
<totfact> 0.19785831E+03</totfact>
</mgrwt>
</event>
<event>
 8    1  0.3572165E-004  0.1427087E+03  0.7546771E-02  0.1218220E+00
         -1   -1    0    0    0  501 -0.00000000000E+00  0.00000000000E+00  0.91581887242E+02  0.91581887242E+02  0.00000000000E+00 0.  1.
          1   -1    0    0  501    0  0.00000000000E+00 -0.00000000000E+00 -0.23270700354E+03  0.23270700354E+03  0.00000000000E+00 0. -1.
         25    2    1    2    0    0 -0.41827042581E+02 -0.54698587174E+02 -0.14709945147E+03  0.20494881546E+03  0.12499732559E+03 0.  0.
         23    2    1    2    0    0  0.41827042581E+02  0.54698587174E+02  0.59743351781E+01  0.11934007532E+03  0.97287840798E+02 0.  0.
          5    1    3    3  502    0  0.35586977843E+02 -0.53114977593E+02 -0.54431957775E+02  0.84098524743E+02  0.47000000000E+01 0. -1.
         -5    1    4    4    0  503  0.58552470184E+02  0.68226038895E+02  0.21297778996E+02  0.92514158582E+02  0.47000000000E+01 0.  1.
          5    1    4    4  503    0 -0.16725427602E+02 -0.13527451721E+02 -0.15323443817E+02  0.26825916740E+02  0.47000000000E+01 0. -1.
         -5    1    3    3    0  502 -0.77414020424E+02 -0.15836095810E+01 -0.92667493698E+02  0.12085029071E+03  0.47000000000E+01 0. -1.
<mgrwt>
<rscale>  0 0.13642632E+03</rscale>
<asrwt>0</asrwt>
<pdfrwt beam="1">  1        1 0.35801077E-01 0.14270868E+03</pdfrwt>
<pdfrwt beam="2">  1       -1 0.14089521E-01 0.14270868E+03</pdfrwt>
<totfact> 0.41409276E+03</totfact>
</mgrwt>
</event>
<event>
 8    1  0.3572165E-004  0.2101937E+03  0.7546771E-02  0.1145145E+00
          2   -1    0    0  501    0  0.00000000000E+00  0.00000000000E+00  0.12729346015E+04  0.12729346015E+04  0.00000000000E+00 0.  1.
         -2   -1    0    0    0  501 -0.00000000000E+00 -0.00000000000E+00 -0.37284383184E+02  0.37284383184E+02  0.00000000000E+00 0. -1.
         25    2    1    2    0    0 -0.13970178238E+03  0.95072578094E+02  0.89242602224E+03  0.91684545779E+03  0.12500402071E+03 0.  0.
         23    2    1    2    0    0  0.13970178238E+03 -0.95072578094E+02  0.34322419606E+03  0.39337352688E+03  0.91566914224E+02 0.  0.
          5    1    3    3  502    0 -0.12038340816E+03  0.20149708321E+02  0.67622027947E+03  0.68716383205E+03  0.47000000000E+01 0. -1.
         -5    1    4    4    0  503  0.92651236337E+02 -0.27640632946E+02  0.25464064053E+03  0.27241916598E+03  0.47000000000E+01 0.  1.
          5    1    4    4  503    0  0.47050546047E+02 -0.67431945148E+02  0.88583555534E+02  0.12095436090E+03  0.47000000000E+01 0. -1.
         -5    1    3    3    0  502 -0.19318374225E+02  0.74922869773E+02  0.21620574276E+03  0.22968162574E+03  0.47000000000E+01 0. -1.
<mgrwt>
<rscale>  0 0.20554253E+03</rscale>
<asrwt>0</asrwt>
<pdfrwt beam="1">  1        2 0.19583606E+00 0.21019369E+03</pdfrwt>
<pdfrwt beam="2">  1       -2 0.57360599E-02 0.21019369E+03</pdfrwt>
<totfact> 0.28742321E+03</totfact>
</mgrwt>
</event>
<event>
 8    1  0.3572165E-004  0.1300725E+03  0.7546771E-02  0.1240852E+00
         -2   -1    0    0    0  501 -0.00000000000E+00  0.00000000000E+00  0.36789254347E+03  0.36789254347E+03  0.00000000000E+00 0.  1.
          2   -1    0    0  501    0  0.00000000000E+00 -0.00000000000E+00 -0.36945984422E+02  0.36945984422E+02  0.00000000000E+00 0. -1.
         25    2    1    2    0    0 -0.23680368172E+02  0.27070794822E+02  0.14819707169E+03  0.19718323082E+03  0.12500106675E+03 0.  0.
         23    2    1    2    0    0  0.23680368172E+02 -0.27070794822E+02  0.18274948735E+03  0.20765529707E+03  0.91813721768E+02 0.  0.
          5    1    4    4  502    0  0.20522850895E+02 -0.53599905525E+02  0.16616458190E+03  0.17586044342E+03  0.47000000000E+01 0. -1.
         -5    1    3    3    0  503 -0.47116104310E+02  0.28252530610E+02  0.16090273226E+03  0.17008795377E+03  0.47000000000E+01 0.  1.
          5    1    3    3  503    0  0.23435736138E+02 -0.11817357879E+01 -0.12705660563E+02  0.27095277045E+02  0.47000000000E+01 0.  1.
         -5    1    4    4    0  502  0.31575172762E+01  0.26529110703E+02  0.16584905456E+02  0.31794853656E+02  0.47000000000E+01 0.  1.
<mgrwt>
<rscale>  0 0.12137132E+03</rscale>
<asrwt>0</asrwt>
<pdfrwt beam="1">  1        2 0.56839979E-02 0.13007250E+03</pdfrwt>
<pdfrwt beam="2">  1       -2 0.56598850E-01 0.13007250E+03</pdfrwt>
<totfact> 0.37616132E+03</totfact>
</mgrwt>
</event>
<event>
 8    1  0.3572165E-004  0.1386542E+03  0.7546771E-02  0.1224921E+00
          2   -1    0    0  501    0  0.00000000000E+00  0.00000000000E+00  0.73769088814E+03  0.73769088814E+03  0.00000000000E+00 0.  1.
         -2   -1    0    0    0  501 -0.00000000000E+00 -0.00000000000E+00 -0.26281396703E+02  0.26281396703E+02  0.00000000000E+00 0. -1.
         25    2    1    2    0    0  0.60367590069E+01  0.59698091833E+02  0.54842034239E+03  0.56567646143E+03  0.12499872975E+03 0.  0.
         23    2    1    2    0    0 -0.60367590069E+01 -0.59698091833E+02  0.16298914904E+03  0.19829582341E+03  0.95684200622E+02 0.  0.
          5    1    3    3  502    0 -0.11006114143E+02 -0.36296390803E+02  0.10780599434E+03  0.11438000240E+03  0.47000000000E+01 0.  1.
         -5    1    3    3    0  502  0.17042873150E+02  0.95994482635E+02  0.44061434806E+03  0.45129645903E+03  0.47000000000E+01 0.  1.
          5    1    4    4  503    0  0.12955330421E+02 -0.52573220012E+02  0.26935388822E+02  0.60657969136E+02  0.47000000000E+01 0. -1.
         -5    1    4    4    0  503 -0.18992089428E+02 -0.71248718209E+01  0.13605376022E+03  0.13763785427E+03  0.47000000000E+01 0.  1.
<mgrwt>
<rscale>  0 0.13172345E+03</rscale>
<asrwt>0</asrwt>
<pdfrwt beam="1">  1        2 0.11349089E+00 0.13865420E+03</pdfrwt>
<pdfrwt beam="2">  1       -2 0.40432924E-02 0.13865420E+03</pdfrwt>
<totfact> 0.10198821E+04</totfact>
</mgrwt>
</event>
<event>
 8    1  0.3572165E-004  0.1449830E+03  0.7546771E-02  0.1216730E+00
          2   -1    0    0  501    0  0.00000000000E+00  0.00000000000E+00  0.35367136366E+03  0.35367136366E+03  0.00000000000E+00 0. -1.
         -2   -1    0    0    0  501 -0.00000000000E+00 -0.00000000000E+00 -0.53462358459E+02  0.53462358459E+02  0.00000000000E+00 0.  1.
         25    2    1    2    0    0 -0.75301418990E+01 -0.73058770072E+02  0.10360132798E+03  0.17819460982E+03  0.12500318751E+03 0.  0.
         23    2    1    2    0    0  0.75301418990E+01  0.73058770072E+02  0.19660767722E+03  0.22893911230E+03  0.91456281787E+02 0.  0.
          5    1    4    4  502    0 -0.30062953195E+02  0.73189998827E+02  0.13831023096E+03  0.15941256874E+03  0.47000000000E+01 0. -1.
         -5    1    4    4    0  502  0.37593095094E+02 -0.13122875432E+00  0.58297446258E+02  0.69526543563E+02  0.47000000000E+01 0.  1.
          5    1    3    3  503    0  0.51046464603E+02 -0.58662084176E+02  0.84073475546E+02  0.11461858906E+03  0.47000000000E+01 0.  1.
         -5    1    3    3    0  503 -0.58576606502E+02 -0.14396685897E+02  0.19527852435E+02  0.63576020754E+02  0.47000000000E+01 0.  1.
<mgrwt>
<rscale>  0 0.13750214E+03</rscale>
<asrwt>0</asrwt>
<pdfrwt beam="1">  1        2 0.54410978E-01 0.14498305E+03</pdfrwt>
<pdfrwt beam="2">  1       -2 0.82249784E-02 0.14498305E+03</pdfrwt>
<totfact> 0.79078401E+03</totfact>
</mgrwt>
</event>
<event>
 8    1  0.3572165E-004  0.1417751E+03  0.7546771E-02  0.1221131E+00
          2   -1    0    0  501    0  0.00000000000E+00  0.00000000000E+00  0.31264780351E+03  0.31264780351E+03  0.00000000000E+00 0. -1.
         -2   -1    0    0    0  501 -0.00000000000E+00 -0.00000000000E+00 -0.53153912669E+02  0.53153912669E+02  0.00000000000E+00 0.  1.
         25    2    1    2    0    0  0.64663398560E+02  0.17178607495E+02  0.16431634373E+03  0.21702546070E+03  0.12499492032E+03 0.  0.
         23    2    1    2    0    0 -0.64663398560E+02 -0.17178607495E+02  0.95177547107E+02  0.14877625548E+03  0.92731596834E+02 0.  0.
          5    1    4    4  502    0 -0.31771691601E+02  0.86639676326E+01  0.10094993874E+03  0.10628962721E+03  0.47000000000E+01 0. -1.
         -5    1    3    3    0  503  0.37333346040E+02 -0.53531562400E+02  0.84082746572E+02  0.10654297335E+03  0.47000000000E+01 0. -1.
          5    1    3    3  503    0  0.27330052520E+02  0.70710169896E+02  0.80233597161E+02  0.11048248735E+03  0.47000000000E+01 0. -1.
         -5    1    4    4    0  502 -0.32891706960E+02 -0.25842575128E+02 -0.57723916298E+01  0.42486628262E+02  0.47000000000E+01 0.  1.
<mgrwt>
<rscale>  0 0.13435623E+03</rscale>
<asrwt>0</asrwt>
<pdfrwt beam="1">  1        2 0.48099661E-01 0.14177514E+03</pdfrwt>
<pdfrwt beam="2">  1       -2 0.81775252E-02 0.14177514E+03</pdfrwt>
<totfact> 0.90823891E+03</totfact>
</mgrwt>
</event>
<event>
 8    1  0.3572165E-004  0.2014314E+03  0.7546771E-02  0.1152864E+00
          2   -1    0    0  501    0  0.00000000000E+00  0.00000000000E+00  0.20200537591E+02  0.20200537591E+02  0.00000000000E+00 0. -1.
         -2   -1    0    0    0  501 -0.00000000000E+00 -0.00000000000E+00 -0.19556696362E+04  0.19556696362E+04  0.00000000000E+00 0.  1.
         25    2    1    2    0    0  0.12293307825E+03 -0.99180912904E+02 -0.12757022888E+04  0.12915072370E+04  0.12500087323E+03 0.  0.
         23    2    1    2    0    0 -0.12293307825E+03  0.99180912904E+02 -0.65976680977E+03  0.68436293677E+03  0.90061038991E+02 0.  0.
          5    1    4    4  502    0 -0.60344511847E+02  0.40592618327E+02 -0.14287783315E+03  0.16039135257E+03  0.47000000000E+01 0. -1.
         -5    1    3    3    0  503  0.40048483468E+01 -0.29766611384E+02 -0.53267187646E+02  0.61331665910E+02  0.47000000000E+01 0.  1.
          5    1    3    3  503    0  0.11892822990E+03 -0.69414301521E+02 -0.12224351011E+04  0.12301755711E+04  0.47000000000E+01 0.  1.
         -5    1    4    4    0  502 -0.62588566398E+02  0.58588294577E+02 -0.51688897661E+03  0.52397158420E+03  0.47000000000E+01 0.  1.
<mgrwt>
<rscale>  0 0.19634005E+03</rscale>
<asrwt>0</asrwt>
<pdfrwt beam="1">  1        2 0.31077750E-02 0.20143141E+03</pdfrwt>
<pdfrwt beam="2">  1       -2 0.30087225E+00 0.20143141E+03</pdfrwt>
<totfact> 0.10838627E+02</totfact>
</mgrwt>
</event>
<event>
 8    1  0.3572165E-004  0.1537904E+03  0.7546771E-02  0.1204168E+00
          2   -1    0    0  501    0  0.00000000000E+00  0.00000000000E+00  0.12175117498E+03  0.12175117498E+03  0.00000000000E+00 0. -1.
         -2   -1    0    0    0  501 -0.00000000000E+00 -0.00000000000E+00 -0.20404618010E+03  0.20404618010E+03  0.00000000000E+00 0.  1.
         25    2    1    2    0    0  0.85931146732E+02  0.25324998206E+02 -0.11638465804E+03  0.19286495080E+03  0.12500393237E+03 0.  0.
         23    2    1    2    0    0 -0.85931146732E+02 -0.25324998206E+02  0.34089652915E+02  0.13293240427E+03  0.92105386142E+02 0.  0.
          5    1    3    3  502    0 -0.25676337315E+02 -0.19171148218E+02 -0.34908569927E+02  0.47618331305E+02  0.47000000000E+01 0. -1.
         -5    1    4    4    0  503 -0.76543534170E+02  0.56427335691E+01 -0.10531378680E+02  0.77612840447E+02  0.47000000000E+01 0.  1.
          5    1    4    4  503    0 -0.93876125623E+01 -0.30967731775E+02  0.44621031596E+02  0.55319563823E+02  0.47000000000E+01 0. -1.
         -5    1    3    3    0  502  0.11160748405E+03  0.44496146424E+02 -0.81476088112E+02  0.14524661950E+03  0.47000000000E+01 0. -1.
<mgrwt>
<rscale>  0 0.14703199E+03</rscale>
<asrwt>0</asrwt>
<pdfrwt beam="1">  1        2 0.18730950E-01 0.15379044E+03</pdfrwt>
<pdfrwt beam="2">  1       -2 0.31391720E-01 0.15379044E+03</pdfrwt>
<totfact> 0.27378616E+03</totfact>
</mgrwt>
</event>
<event>
 8    1  0.3572165E-004  0.1428992E+03  0.7546771E-02  0.1219953E+00
          4   -1    0    0  501    0  0.00000000000E+00  0.00000000000E+00  0.59850711002E+02  0.59850711002E+02  0.00000000000E+00 0. -1.
         -4   -1    0    0    0  501 -0.00000000000E+00 -0.00000000000E+00 -0.29673423857E+03  0.29673423857E+03  0.00000000000E+00 0.  1.
         25    2    1    2    0    0 -0.31974864355E+02  0.61422659187E+02 -0.84550598316E+02  0.16603912683E+03  0.12500021180E+03 0.  0.
         23    2    1    2    0    0  0.31974864355E+02 -0.61422659187E+02 -0.15233292925E+03  0.19054582275E+03  0.91144139797E+02 0.  0.
          5    1    4    4  502    0 -0.76023508831E+00 -0.60948000686E+02 -0.39068484121E+02  0.72551176396E+02  0.47000000000E+01 0. -1.
         -5    1    3    3    0  503 -0.46034816695E+02 -0.26691779031E+02 -0.35027239920E+02  0.63879988669E+02  0.47000000000E+01 0.  1.
          5    1    3    3  503    0  0.14059952340E+02  0.88114438218E+02 -0.49523358396E+02  0.10215913816E+03  0.47000000000E+01 0.  1.
         -5    1    4    4    0  502  0.32735099443E+02 -0.47465850133E+00 -0.11326444513E+03  0.11799464635E+03  0.47000000000E+01 0.  1.
<mgrwt>
<rscale>  0 0.13518896E+03</rscale>
<asrwt>0</asrwt>
<pdfrwt beam="1">  1        4 0.92078018E-02 0.14289922E+03</pdfrwt>
<pdfrwt beam="2">  1       -4 0.45651421E-01 0.14289922E+03</pdfrwt>
<totfact> 0.68137131E+02</totfact>
</mgrwt>
</event>
<event>
 8    1  0.3572165E-004  0.2214738E+03  0.7546771E-02  0.1136013E+00
          1   -1    0    0  501    0  0.00000000000E+00  0.00000000000E+00  0.11247483082E+03  0.11247483082E+03  0.00000000000E+00 0.  1.
         -1   -1    0    0    0  501 -0.00000000000E+00 -0.00000000000E+00 -0.41845732943E+03  0.41845732943E+03  0.00000000000E+00 0. -1.
         25    2    1    2    0    0 -0.18095432887E+03  0.26015570505E+02 -0.10910037467E+03  0.24688771681E+03  0.12501749443E+03 0.  0.
         23    2    1    2    0    0  0.18095432887E+03 -0.26015570505E+02 -0.19688212395E+03  0.28404444344E+03  0.92181321715E+02 0.  0.
          5    1    4    4  502    0  0.97834243808E+02 -0.44767497096E+02 -0.61517331488E+02  0.12402475612E+03  0.47000000000E+01 0. -1.
         -5    1    4    4    0  502  0.83120085062E+02  0.18751926591E+02 -0.13536479246E+03  0.16001968732E+03  0.47000000000E+01 0.  1.
          5    1    3    3  503    0 -0.13860544417E+03  0.31923129849E+02 -0.14601688482E+02  0.14305892031E+03  0.47000000000E+01 0. -1.
         -5    1    3    3    0  503 -0.42348884699E+02 -0.59075593442E+01 -0.94498686185E+02  0.10382879650E+03  0.47000000000E+01 0. -1.
<mgrwt>
<rscale>  0 0.21716645E+03</rscale>
<asrwt>0</asrwt>
<pdfrwt beam="1">  1        1 0.17303820E-01 0.22147382E+03</pdfrwt>
<pdfrwt beam="2">  1       -1 0.64378052E-01 0.22147382E+03</pdfrwt>
<totfact> 0.78099570E+02</totfact>
</mgrwt>
</event>
<event>
 8    1  0.3572165E-004  0.1349332E+03  0.7546771E-02  0.1233353E+00
         -1   -1    0    0    0  501 -0.00000000000E+00  0.00000000000E+00  0.19267091990E+03  0.19267091990E+03  0.00000000000E+00 0.  1.
          1   -1    0    0  501    0  0.00000000000E+00 -0.00000000000E+00 -0.75931246567E+02  0.75931246567E+02  0.00000000000E+00 0. -1.
         25    2    1    2    0    0  0.43756992419E+02 -0.25830863378E+02  0.41740832809E+02  0.14124190299E+03  0.12500028060E+03 0.  0.
         23    2    1    2    0    0 -0.43756992419E+02  0.25830863378E+02  0.74998840530E+02  0.12736026348E+03  0.89520404066E+02 0.  0.
          5    1    3    3  502    0  0.22708069825E+02  0.41169754465E+02  0.51830342377E+02  0.70136149801E+02  0.47000000000E+01 0. -1.
         -5    1    4    4    0  503 -0.23674352955E+02  0.12922069973E+02  0.93094746206E+02  0.97036985997E+02  0.47000000000E+01 0.  1.
          5    1    4    4  503    0 -0.20082639464E+02  0.12908793405E+02 -0.18095905676E+02  0.30323277482E+02  0.47000000000E+01 0. -1.
         -5    1    3    3    0  502  0.21048922595E+02 -0.67000617843E+02 -0.10089509569E+02  0.71105753192E+02  0.47000000000E+01 0. -1.
<mgrwt>
<rscale>  0 0.12610461E+03</rscale>
<asrwt>0</asrwt>
<pdfrwt beam="1">  1        1 0.11681730E-01 0.13493324E+03</pdfrwt>
<pdfrwt beam="2">  1       -1 0.29641680E-01 0.13493324E+03</pdfrwt>
<totfact> 0.51704143E+03</totfact>
</mgrwt>
</event>
<event>
 8    1  0.3572165E-004  0.1381954E+03  0.7546771E-02  0.1226892E+00
         -2   -1    0    0    0  501 -0.00000000000E+00  0.00000000000E+00  0.18264940112E+02  0.18264940112E+02  0.00000000000E+00 0. -1.
          2   -1    0    0  501    0  0.00000000000E+00 -0.00000000000E+00 -0.11668582384E+04  0.11668582384E+04  0.00000000000E+00 0.  1.
         25    2    1    2    0    0  0.55836881205E+02  0.18882861788E+02 -0.93444306849E+03  0.94460670615E+03  0.12499464501E+03 0.  0.
         23    2    1    2    0    0 -0.55836881205E+02 -0.18882861788E+02 -0.21415022977E+03  0.24051647234E+03  0.92268807197E+02 0.  0.
          5    1    3    3  502    0  0.76614389162E+02 -0.18282574838E+02 -0.79039766136E+03  0.79432648845E+03  0.47000000000E+01 0.  1.
         -5    1    3    3    0  502 -0.20777507957E+02  0.37165436626E+02 -0.14404540712E+03  0.15028021769E+03  0.47000000000E+01 0.  1.
          5    1    4    4  503    0 -0.55972326633E+02 -0.50631752280E+02 -0.12917622437E+03  0.14968320757E+03  0.47000000000E+01 0. -1.
         -5    1    4    4    0  503  0.13544542860E+00  0.31748890492E+02 -0.84974005403E+02  0.90833264761E+02  0.47000000000E+01 0.  1.
<mgrwt>
<rscale>  0 0.13038060E+03</rscale>
<asrwt>0</asrwt>
<pdfrwt beam="1">  1        2 0.17951659E+00 0.13819545E+03</pdfrwt>
<pdfrwt beam="2">  1       -2 0.28099917E-02 0.13819545E+03</pdfrwt>
<totfact> 0.94573137E+03</totfact>
</mgrwt>
</event>
<event>
 8    1  0.3572165E-004  0.1336956E+03  0.7546771E-02  0.1235252E+00
          1   -1    0    0  501    0  0.00000000000E+00  0.00000000000E+00  0.30081238880E+02  0.30081238880E+02  0.00000000000E+00 0. -1.
         -1   -1    0    0    0  501 -0.00000000000E+00 -0.00000000000E+00 -0.46350028785E+03  0.46350028785E+03  0.00000000000E+00 0.  1.
         25    2    1    2    0    0 -0.91337675450E+01  0.46475148815E+02 -0.26449498458E+03  0.29636480694E+03  0.12502454462E+03 0.  0.
         23    2    1    2    0    0  0.91337675450E+01 -0.46475148815E+02 -0.16892406439E+03  0.19721671979E+03  0.90087345772E+02 0.  0.
          5    1    3    3  502    0  0.40215145821E+02  0.45994804370E+02 -0.22436867744E+03  0.23258584092E+03  0.47000000000E+01 0.  1.
         -5    1    3    3    0  502 -0.49348913366E+02  0.48034444555E+00 -0.40126307141E+02  0.63778966015E+02  0.47000000000E+01 0.  1.
          5    1    4    4  503    0 -0.18895793789E+02  0.12192008723E+02 -0.92820263559E+01  0.24777855292E+02  0.47000000000E+01 0. -1.
         -5    1    4    4    0  503  0.28029561334E+02 -0.58667157538E+02 -0.15964203804E+03  0.17243886450E+03  0.47000000000E+01 0.  1.
<mgrwt>
<rscale>  0 0.12488290E+03</rscale>
<asrwt>0</asrwt>
<pdfrwt beam="1">  1        1 0.46278830E-02 0.13369556E+03</pdfrwt>
<pdfrwt beam="2">  1       -1 0.71307735E-01 0.13369556E+03</pdfrwt>
<totfact> 0.36735597E+03</totfact>
</mgrwt>
</event>
<event>
 8    1  0.3572165E-004  0.1755783E+03  0.7546771E-02  0.1178104E+00
         -2   -1    0    0    0  501 -0.00000000000E+00  0.00000000000E+00  0.21212504270E+02  0.21212504270E+02  0.00000000000E+00 0.  1.
          2   -1    0    0  501    0  0.00000000000E+00 -0.00000000000E+00 -0.14850055865E+04  0.14850055865E+04  0.00000000000E+00 0. -1.
         25    2    1    2    0    0  0.11913611343E+03 -0.31775202390E+02 -0.49202018429E+03  0.52240942072E+03  0.12499865640E+03 0.  0.
         23    2    1    2    0    0 -0.11913611343E+03  0.31775202390E+02 -0.97177289799E+03  0.98380867009E+03  0.91289961525E+02 0.  0.
          5    1    3    3  502    0  0.96657073980E+02 -0.35837785496E+02 -0.48794077554E+03  0.49873362354E+03  0.47000000000E+01 0. -1.
         -5    1    4    4    0  503 -0.95291432641E+02 -0.16439344226E+02 -0.53242105847E+03  0.54115153393E+03  0.47000000000E+01 0.  1.
          5    1    4    4  503    0 -0.23844680792E+02  0.48214546616E+02 -0.43935183952E+03  0.44265713616E+03  0.47000000000E+01 0. -1.
         -5    1    3    3    0  502  0.22479039453E+02  0.40625831060E+01 -0.40794087466E+01  0.23675797176E+02  0.47000000000E+01 0. -1.
<mgrwt>
<rscale>  0 0.16975473E+03</rscale>
<asrwt>0</asrwt>
<pdfrwt beam="1">  1        2 0.22846248E+00 0.17557830E+03</pdfrwt>
<pdfrwt beam="2">  1       -2 0.32634610E-02 0.17557830E+03</pdfrwt>
<totfact> 0.51461581E+03</totfact>
</mgrwt>
</event>
<event>
 8    1  0.3572165E-004  0.1295611E+03  0.7546771E-02  0.1241831E+00
         -2   -1    0    0    0  501 -0.00000000000E+00  0.00000000000E+00  0.46852642594E+02  0.46852642594E+02  0.00000000000E+00 0.  1.
          2   -1    0    0  501    0  0.00000000000E+00 -0.00000000000E+00 -0.66818088593E+03  0.66818088593E+03  0.00000000000E+00 0. -1.
         25    2    1    2    0    0 -0.33216889540E+02 -0.76074215503E+01 -0.60140931928E+03  0.61520666494E+03  0.12499934662E+03 0.  0.
         23    2    1    2    0    0  0.33216889540E+02  0.76074215503E+01 -0.19918924053E+02  0.99826863581E+02  0.91691900098E+02 0.  0.
          5    1    3    3  502    0  0.22418472657E+02 -0.38179245764E+02 -0.43104799207E+03  0.43334132528E+03  0.47000000000E+01 0. -1.
         -5    1    3    3    0  502 -0.55635362197E+02  0.30571824214E+02 -0.17036132721E+03  0.18186533966E+03  0.47000000000E+01 0. -1.
          5    1    4    4  503    0  0.81683334681E+01 -0.31265301363E+02 -0.37864616441E+02  0.50000599188E+02  0.47000000000E+01 0. -1.
         -5    1    4    4    0  503  0.25048556072E+02  0.38872722914E+02  0.17945692388E+02  0.49826264392E+02  0.47000000000E+01 0.  1.
<mgrwt>
<rscale>  0 0.12077086E+03</rscale>
<asrwt>0</asrwt>
<pdfrwt beam="1">  1        2 0.10279706E+00 0.12956107E+03</pdfrwt>
<pdfrwt beam="2">  1       -2 0.72080986E-02 0.12956107E+03</pdfrwt>
<totfact> 0.47799093E+03</totfact>
</mgrwt>
</event>
<event>
 8    1  0.3572165E-004  0.1872514E+03  0.7546771E-02  0.1165935E+00
          2   -1    0    0  501    0  0.00000000000E+00  0.00000000000E+00  0.41588733308E+03  0.41588733308E+03  0.00000000000E+00 0. -1.
         -2   -1    0    0    0  501 -0.00000000000E+00 -0.00000000000E+00 -0.75644403367E+02  0.75644403367E+02  0.00000000000E+00 0.  1.
         25    2    1    2    0    0  0.12532370685E+03 -0.61089335801E+02  0.16586847593E+03  0.25015081872E+03  0.12500056940E+03 0.  0.
         23    2    1    2    0    0 -0.12532370685E+03  0.61089335801E+02  0.17437445378E+03  0.24138091772E+03  0.91762513388E+02 0.  0.
          5    1    4    4  502    0 -0.13575863019E+02  0.51759185039E+02  0.68880159333E+02  0.87349205162E+02  0.47000000000E+01 0. -1.
         -5    1    3    3    0  503  0.12084138774E+03 -0.12549226662E+02  0.64637229643E+02  0.13769598954E+03  0.47000000000E+01 0.  1.
          5    1    3    3  503    0  0.44823191151E+01 -0.48540109139E+02  0.10123124629E+03  0.11245482918E+03  0.47000000000E+01 0.  1.
         -5    1    4    4    0  502 -0.11174784383E+03  0.93301507625E+01  0.10549429444E+03  0.15403171256E+03  0.47000000000E+01 0.  1.
<mgrwt>
<rscale>  0 0.18194415E+03</rscale>
<asrwt>0</asrwt>
<pdfrwt beam="1">  1        2 0.63982665E-01 0.18725138E+03</pdfrwt>
<pdfrwt beam="2">  1       -2 0.11637601E-01 0.18725138E+03</pdfrwt>
<totfact> 0.38982648E+03</totfact>
</mgrwt>
</event>
<event>
 8    1  0.3572165E-004  0.1307774E+03  0.7546771E-02  0.1239712E+00
         -2   -1    0    0    0  501 -0.00000000000E+00  0.00000000000E+00  0.15729510631E+02  0.15729510631E+02  0.00000000000E+00 0.  1.
          2   -1    0    0  501    0  0.00000000000E+00 -0.00000000000E+00 -0.84749823425E+03  0.84749823425E+03  0.00000000000E+00 0. -1.
         25    2    1    2    0    0 -0.30361143741E+02 -0.23607180891E+02 -0.50901648689E+03  0.52554782563E+03  0.12499454011E+03 0.  0.
         23    2    1    2    0    0  0.30361143741E+02  0.23607180891E+02 -0.32275223672E+03  0.33767991925E+03  0.91540283562E+02 0.  0.
          5    1    3    3  502    0 -0.59321598562E+02 -0.45219322491E+02 -0.45017154770E+03  0.45633359677E+03  0.47000000000E+01 0.  1.
         -5    1    3    3    0  502  0.28960454822E+02  0.21612141600E+02 -0.58844939190E+02  0.69214228857E+02  0.47000000000E+01 0.  1.
          5    1    4    4  503    0 -0.32177527146E+02  0.12965406935E+02 -0.96433819593E+02  0.10259174719E+03  0.47000000000E+01 0. -1.
         -5    1    4    4    0  503  0.62538670887E+02  0.10641773955E+02 -0.22631841713E+03  0.23508817206E+03  0.47000000000E+01 0.  1.
<mgrwt>
<rscale>  0 0.12207512E+03</rscale>
<asrwt>0</asrwt>
<pdfrwt beam="1">  1        2 0.13038435E+00 0.13077742E+03</pdfrwt>
<pdfrwt beam="2">  1       -2 0.24199246E-02 0.13077742E+03</pdfrwt>
<totfact> 0.18210947E+04</totfact>
</mgrwt>
</event>
<event>
 8    1  0.3572165E-004  0.1354464E+03  0.7546771E-02  0.1231974E+00
         -1   -1    0    0    0  501 -0.00000000000E+00  0.00000000000E+00  0.53563329205E+02  0.53563329205E+02  0.00000000000E+00 0.  1.
          1   -1    0    0  501    0  0.00000000000E+00 -0.00000000000E+00 -0.35295330153E+03  0.35295330153E+03  0.00000000000E+00 0. -1.
         25    2    1    2    0    0  0.32080096891E+02 -0.41131469149E+02 -0.65897968126E+02  0.15062628244E+03  0.12499921755E+03 0.  0.
         23    2    1    2    0    0 -0.32080096891E+02  0.41131469149E+02 -0.23349200420E+03  0.25589034830E+03  0.90776780925E+02 0.  0.
          5    1    4    4  502    0 -0.10147011457E+02 -0.25601649915E+02 -0.11239963015E+03  0.11581957166E+03  0.47000000000E+01 0. -1.
         -5    1    3    3    0  503  0.23314700843E+02  0.39073269973E+00 -0.95664616288E+02  0.98577567210E+02  0.47000000000E+01 0. -1.
          5    1    3    3  503    0  0.87653960481E+01 -0.41522201848E+02  0.29766648162E+02  0.52048715229E+02  0.47000000000E+01 0. -1.
         -5    1    4    4    0  502 -0.21933085434E+02  0.66733119063E+02 -0.12109237405E+03  0.14007077664E+03  0.47000000000E+01 0.  1.
<mgrwt>
<rscale>  0 0.12700145E+03</rscale>
<asrwt>0</asrwt>
<pdfrwt beam="1">  1        1 0.54300508E-01 0.13544643E+03</pdfrwt>
<pdfrwt beam="2">  1       -1 0.82405121E-02 0.13544643E+03</pdfrwt>
<totfact> 0.56109106E+03</totfact>
</mgrwt>
</event>
<event>
 8    1  0.3572165E-004  0.2143103E+03  0.7546771E-02  0.1141807E+00
         -2   -1    0    0    0  501 -0.00000000000E+00  0.00000000000E+00  0.17502033930E+03  0.17502033930E+03  0.00000000000E+00 0.  1.
          2   -1    0    0  501    0  0.00000000000E+00 -0.00000000000E+00 -0.24203801454E+03  0.24203801454E+03  0.00000000000E+00 0. -1.
         25    2    1    2    0    0 -0.16093020293E+03  0.66413710227E+02 -0.21273687560E+02  0.21536358210E+03  0.12497836450E+03 0.  0.
         23    2    1    2    0    0  0.16093020293E+03 -0.66413710227E+02 -0.45743987678E+02  0.20169477173E+03  0.90988776311E+02 0.  0.
          5    1    3    3  502    0 -0.13130862520E+03  0.69800038418E+02 -0.64894350371E+02  0.16231872081E+03  0.47000000000E+01 0. -1.
         -5    1    3    3    0  502 -0.29621577728E+02 -0.33863281909E+01  0.43620662810E+02  0.53044861294E+02  0.47000000000E+01 0. -1.
          5    1    4    4  503    0  0.32170373380E+02  0.95282287507E+01 -0.39451046685E+02  0.52001876418E+02  0.47000000000E+01 0. -1.
         -5    1    4    4    0  503  0.12875982955E+03 -0.75941938978E+02 -0.62929409939E+01  0.14969289531E+03  0.47000000000E+01 0.  1.
<mgrwt>
<rscale>  0 0.20969554E+03</rscale>
<asrwt>0</asrwt>
<pdfrwt beam="1">  1        2 0.37236618E-01 0.21431030E+03</pdfrwt>
<pdfrwt beam="2">  1       -2 0.26926206E-01 0.21431030E+03</pdfrwt>
<totfact> 0.17065803E+03</totfact>
</mgrwt>
</event>
<event>
 8    1  0.3572165E-004  0.1404436E+03  0.7546771E-02  0.1223108E+00
          1   -1    0    0  501    0  0.00000000000E+00  0.00000000000E+00  0.40455838337E+02  0.40455838337E+02  0.00000000000E+00 0. -1.
         -1   -1    0    0    0  501 -0.00000000000E+00 -0.00000000000E+00 -0.46173916133E+03  0.46173916133E+03  0.00000000000E+00 0.  1.
         25    2    1    2    0    0  0.60906668025E+02  0.19686363052E+02 -0.13644373731E+03  0.19580931573E+03  0.12500887798E+03 0.  0.
         23    2    1    2    0    0 -0.60906668025E+02 -0.19686363052E+02 -0.28483958568E+03  0.30638568394E+03  0.92959252639E+02 0.  0.
          5    1    4    4  502    0 -0.58226754192E+02 -0.52842632392E+02 -0.21237362196E+03  0.22651124477E+03  0.47000000000E+01 0. -1.
         -5    1    3    3    0  503  0.25689464670E+02 -0.53037286045E+02 -0.64821198477E+02  0.87731294747E+02  0.47000000000E+01 0.  1.
          5    1    3    3  503    0  0.35217203355E+02  0.72723649097E+02 -0.71622538837E+02  0.10807802098E+03  0.47000000000E+01 0.  1.
         -5    1    4    4    0  502 -0.26799138333E+01  0.33156269340E+02 -0.72465963717E+02  0.79874439166E+02  0.47000000000E+01 0.  1.
<mgrwt>
<rscale>  0 0.13297395E+03</rscale>
<asrwt>0</asrwt>
<pdfrwt beam="1">  1        1 0.62239751E-02 0.14044356E+03</pdfrwt>
<pdfrwt beam="2">  1       -1 0.71036794E-01 0.14044356E+03</pdfrwt>
<totfact> 0.24777262E+03</totfact>
</mgrwt>
</event>
<event>
 8    1  0.3572165E-004  0.1561545E+03  0.7546771E-02  0.1202275E+00
          4   -1    0    0  501    0  0.00000000000E+00  0.00000000000E+00  0.10551339421E+04  0.10551339421E+04  0.00000000000E+00 0.  1.
         -4   -1    0    0    0  501 -0.00000000000E+00 -0.00000000000E+00 -0.19271333541E+02  0.19271333541E+02  0.00000000000E+00 0. -1.
         25    2    1    2    0    0  0.92823180357E+02  0.12045170756E+02  0.61762865250E+03  0.63706308180E+03  0.12499195518E+03 0.  0.
         23    2    1    2    0    0 -0.92823180357E+02 -0.12045170756E+02  0.41823395608E+03  0.43734219385E+03  0.87105244151E+02 0.  0.
          5    1    4    4  502    0 -0.67293936572E+02 -0.47944725061E+02  0.24833308891E+03  0.26176054631E+03  0.47000000000E+01 0. -1.
         -5    1    4    4    0  502 -0.25529243785E+02  0.35899554305E+02  0.16990086717E+03  0.17558164754E+03  0.47000000000E+01 0.  1.
          5    1    3    3  503    0  0.62596522374E+02  0.10826752023E+02  0.59643926096E+03  0.59983116390E+03  0.47000000000E+01 0.  1.
         -5    1    3    3    0  503  0.30226657983E+02  0.12184187328E+01  0.21189391540E+02  0.37231917905E+02  0.47000000000E+01 0.  1.
<mgrwt>
<rscale>  0 0.14854250E+03</rscale>
<asrwt>0</asrwt>
<pdfrwt beam="1">  1        4 0.16232825E+00 0.15615447E+03</pdfrwt>
<pdfrwt beam="2">  1       -4 0.29648214E-02 0.15615447E+03</pdfrwt>
<totfact> 0.24390165E+02</totfact>
</mgrwt>
</event>
<event>
 8    1  0.3572165E-004  0.1271002E+03  0.7546771E-02  0.1246495E+00
          2   -1    0    0  501    0  0.00000000000E+00  0.00000000000E+00  0.15773751255E+02  0.15773751255E+02  0.00000000000E+00 0.  1.
         -2   -1    0    0    0  501 -0.00000000000E+00 -0.00000000000E+00 -0.78835188897E+03  0.78835188897E+03  0.00000000000E+00 0. -1.
         25    2    1    2    0    0  0.31794169779E+01  0.22777734878E+02 -0.39486389661E+03  0.41481555804E+03  0.12500206578E+03 0.  0.
         23    2    1    2    0    0 -0.31794169779E+01 -0.22777734878E+02 -0.37771424111E+03  0.38931008218E+03  0.91462332453E+02 0.  0.
          5    1    4    4  502    0 -0.35124386803E+02  0.14609906678E+02 -0.23916684831E+03  0.24221899854E+03  0.47000000000E+01 0. -1.
         -5    1    3    3    0  503 -0.65366505287E+01  0.54989484466E+02 -0.76028060459E+02  0.94174981705E+02  0.47000000000E+01 0. -1.
          5    1    3    3  503    0  0.97160675067E+01 -0.32211749588E+02 -0.31883583615E+03  0.32064057634E+03  0.47000000000E+01 0. -1.
         -5    1    4    4    0  502  0.31944969825E+02 -0.37387641556E+02 -0.13854739279E+03  0.14709108365E+03  0.47000000000E+01 0.  1.
<mgrwt>
<rscale>  0 0.11796373E+03</rscale>
<asrwt>0</asrwt>
<pdfrwt beam="1">  1        2 0.24267311E-02 0.12710016E+03</pdfrwt>
<pdfrwt beam="2">  1       -2 0.12128490E+00 0.12710016E+03</pdfrwt>
<totfact> 0.21590178E+03</totfact>
</mgrwt>
</event>
<event>
 8    1  0.3572165E-004  0.1250857E+03  0.7546771E-02  0.1251063E+00
          1   -1    0    0  501    0  0.00000000000E+00  0.00000000000E+00  0.74100963136E+02  0.74100963136E+02  0.00000000000E+00 0. -1.
         -1   -1    0    0    0  501 -0.00000000000E+00 -0.00000000000E+00 -0.15864568497E+03  0.15864568497E+03  0.00000000000E+00 0.  1.
         25    2    1    2    0    0 -0.36378568050E+01  0.25918932444E+01 -0.62359351878E+02  0.13976813879E+03  0.12500596762E+03 0.  0.
         23    2    1    2    0    0  0.36378568050E+01 -0.25918932444E+01 -0.22185369955E+02  0.92978509318E+02  0.90182374344E+02 0.  0.
          5    1    3    3  502    0  0.82398249138E+01  0.62717160690E+02 -0.35498446387E+02  0.72688146596E+02  0.47000000000E+01 0.  1.
         -5    1    4    4    0  503  0.31672012533E+02  0.77742431062E+00 -0.45788063974E+02  0.55878059817E+02  0.47000000000E+01 0.  1.
          5    1    4    4  503    0 -0.28034155729E+02 -0.33693175550E+01  0.23602694019E+02  0.37100449501E+02  0.47000000000E+01 0. -1.
         -5    1    3    3    0  502 -0.11877681719E+02 -0.60125267446E+02 -0.26860905491E+02  0.67079992190E+02  0.47000000000E+01 0.  1.
<mgrwt>
<rscale>  0 0.11529734E+03</rscale>
<asrwt>0</asrwt>
<pdfrwt beam="1">  1        1 0.11400148E-01 0.12508575E+03</pdfrwt>
<pdfrwt beam="2">  1       -1 0.24407028E-01 0.12508575E+03</pdfrwt>
<totfact> 0.73240349E+03</totfact>
</mgrwt>
</event>
<event>
 8    1  0.3572165E-004  0.2698332E+03  0.7546771E-02  0.1103068E+00
         -1   -1    0    0    0  501 -0.00000000000E+00  0.00000000000E+00  0.87414138200E+03  0.87414138200E+03  0.00000000000E+00 0.  1.
          1   -1    0    0  501    0  0.00000000000E+00 -0.00000000000E+00 -0.87131917297E+02  0.87131917297E+02  0.00000000000E+00 0. -1.
         25    2    1    2    0    0 -0.27315706361E+02  0.23756864460E+03  0.54108745432E+03  0.60463675714E+03  0.12499986461E+03 0.  0.
         23    2    1    2    0    0  0.27315706361E+02 -0.23756864460E+03  0.24592201039E+03  0.35663654216E+03  0.97606246218E+02 0.  0.
          5    1    4    4  502    0  0.27563304162E+02 -0.94741747612E+01  0.20732496906E+02  0.36075229060E+02  0.47000000000E+01 0. -1.
         -5    1    4    4    0  502 -0.24759780094E+00 -0.22809446984E+03  0.22518951348E+03  0.32056131310E+03  0.47000000000E+01 0.  1.
          5    1    3    3  503    0 -0.42575461810E+02  0.10424268740E+03  0.37211552566E+03  0.38880748741E+03  0.47000000000E+01 0.  1.
         -5    1    3    3    0  503  0.15259755450E+02  0.13332595720E+03  0.16897192866E+03  0.21582926974E+03  0.47000000000E+01 0.  1.
<mgrwt>
<rscale>  0 0.26689907E+03</rscale>
<asrwt>0</asrwt>
<pdfrwt beam="1">  1        1 0.13404911E-01 0.26983324E+03</pdfrwt>
<pdfrwt beam="2">  1       -1 0.13448328E+00 0.26983324E+03</pdfrwt>
<totfact> 0.21711904E+02</totfact>
</mgrwt>
</event>
<event>
 8    1  0.3572165E-004  0.1646279E+03  0.7546771E-02  0.1191446E+00
          2   -1    0    0  501    0  0.00000000000E+00  0.00000000000E+00  0.34038541668E+03  0.34038541668E+03  0.00000000000E+00 0. -1.
         -2   -1    0    0    0  501 -0.00000000000E+00 -0.00000000000E+00 -0.68521704487E+02  0.68521704487E+02  0.00000000000E+00 0.  1.
         25    2    1    2    0    0  0.99919210409E+02  0.38616841270E+02  0.17404259819E+03  0.23956871157E+03  0.12500892984E+03 0.  0.
         23    2    1    2    0    0 -0.99919210409E+02 -0.38616841270E+02  0.97821114009E+02  0.16933840960E+03  0.87357985223E+02 0.  0.
          5    1    4    4  502    0 -0.31473721603E+02  0.28087679383E+02  0.32935884608E+02  0.53724997716E+02  0.47000000000E+01 0. -1.
         -5    1    4    4    0  502 -0.68445488806E+02 -0.66704520653E+02  0.64885229401E+02  0.11561341189E+03  0.47000000000E+01 0.  1.
          5    1    3    3  503    0  0.10816966132E+03  0.71433548300E+02  0.12798598603E+03  0.18222494361E+03  0.47000000000E+01 0.  1.
         -5    1    3    3    0  503 -0.82504509107E+01 -0.32816707030E+02  0.46056612153E+02  0.57343767958E+02  0.47000000000E+01 0.  1.
<mgrwt>
<rscale>  0 0.15758877E+03</rscale>
<asrwt>0</asrwt>
<pdfrwt beam="1">  1        2 0.52366986E-01 0.16462789E+03</pdfrwt>
<pdfrwt beam="2">  1       -2 0.10541801E-01 0.16462789E+03</pdfrwt>
<totfact> 0.56261744E+03</totfact>
</mgrwt>
</event>
<event>
 8    1  0.3572165E-004  0.1389972E+03  0.7546771E-02  0.1225564E+00
          2   -1    0    0  501    0  0.00000000000E+00  0.00000000000E+00  0.24404641275E+02  0.24404641275E+02  0.00000000000E+00 0.  1.
         -2   -1    0    0    0  501 -0.00000000000E+00 -0.00000000000E+00 -0.69042499351E+03  0.69042499351E+03  0.00000000000E+00 0. -1.
         25    2    1    2    0    0 -0.60177977934E+02  0.85961653196E+01 -0.27036273468E+03  0.30400038427E+03  0.12499976900E+03 0.  0.
         23    2    1    2    0    0  0.60177977934E+02 -0.85961653196E+01 -0.39565761756E+03  0.41082925051E+03  0.92414499177E+02 0.  0.
          5    1    4    4  502    0  0.29272171165E+02  0.31474554675E+02 -0.29413515949E+03  0.29729629941E+03  0.47000000000E+01 0. -1.
         -5    1    4    4    0  502  0.30905806769E+02 -0.40070719995E+02 -0.10152245806E+03  0.11353295110E+03  0.47000000000E+01 0.  1.
          5    1    3    3  503    0 -0.40782772125E+02 -0.23220265170E+02 -0.20663716151E+02  0.51492663380E+02  0.47000000000E+01 0. -1.
         -5    1    3    3    0  503 -0.19395205808E+02  0.31816430490E+02 -0.24969901853E+03  0.25250772089E+03  0.47000000000E+01 0. -1.
<mgrwt>
<rscale>  0 0.13128293E+03</rscale>
<asrwt>0</asrwt>
<pdfrwt beam="1">  1        2 0.37545604E-02 0.13899721E+03</pdfrwt>
<pdfrwt beam="2">  1       -2 0.10621923E+00 0.13899721E+03</pdfrwt>
<totfact> 0.16553517E+03</totfact>
</mgrwt>
</event>
<event>
 8    1  0.3572165E-004  0.1493399E+03  0.7546771E-02  0.1210371E+00
          1   -1    0    0  501    0  0.00000000000E+00  0.00000000000E+00  0.11057770911E+04  0.11057770911E+04  0.00000000000E+00 0. -1.
         -1   -1    0    0    0  501 -0.00000000000E+00 -0.00000000000E+00 -0.16760111917E+02  0.16760111917E+02  0.00000000000E+00 0.  1.
         25    2    1    2    0    0  0.41941925778E+02  0.70131139226E+02  0.61211045687E+03  0.63006478106E+03  0.12499966038E+03 0.  0.
         23    2    1    2    0    0 -0.41941925778E+02 -0.70131139226E+02  0.47690652230E+03  0.49247242195E+03  0.91715612280E+02 0.  0.
          5    1    4    4  502    0 -0.10749621717E+02 -0.85688903833E+02  0.30620840599E+03  0.31818834125E+03  0.47000000000E+01 0. -1.
         -5    1    3    3    0  503  0.73103704834E+02  0.48915450335E+02  0.55180046155E+03  0.55878682189E+03  0.47000000000E+01 0. -1.
          5    1    3    3  503    0 -0.31161779056E+02  0.21215688891E+02  0.60309995316E+02  0.71277959174E+02  0.47000000000E+01 0. -1.
         -5    1    4    4    0  502 -0.31192304061E+02  0.15557764607E+02  0.17069811632E+03  0.17428408070E+03  0.47000000000E+01 0.  1.
<mgrwt>
<rscale>  0 0.14222156E+03</rscale>
<asrwt>0</asrwt>
<pdfrwt beam="1">  1        1 0.17011950E+00 0.14933994E+03</pdfrwt>
<pdfrwt beam="2">  1       -1 0.25784796E-02 0.14933994E+03</pdfrwt>
<totfact> 0.61691487E+03</totfact>
</mgrwt>
</event>
<event>
 8    1  0.3572165E-004  0.1391065E+03  0.7546771E-02  0.1227912E+00
          1   -1    0    0  501    0  0.00000000000E+00  0.00000000000E+00  0.17350710558E+03  0.17350710558E+03  0.00000000000E+00 0. -1.
         -1   -1    0    0    0  501 -0.00000000000E+00 -0.00000000000E+00 -0.86494446019E+02  0.86494446019E+02  0.00000000000E+00 0.  1.
         25    2    1    2    0    0  0.20864106692E+02  0.57368922001E+02  0.39137773646E+02  0.14450735422E+03  0.12499642370E+03 0.  0.
         23    2    1    2    0    0 -0.20864106692E+02 -0.57368922001E+02  0.47874885913E+02  0.11549419738E+03  0.85559340617E+02 0.  0.
          5    1    3    3  502    0  0.78834832303E+01 -0.23810432023E+02 -0.28275157501E+02  0.38087537499E+02  0.47000000000E+01 0.  1.
         -5    1    4    4    0  503 -0.32623386948E+02 -0.25189397814E+02 -0.14690362110E+02  0.44007816092E+02  0.47000000000E+01 0.  1.
          5    1    4    4  503    0  0.11759280256E+02 -0.32179524186E+02  0.62565248023E+02  0.71486381285E+02  0.47000000000E+01 0. -1.
         -5    1    3    3    0  502  0.12980623462E+02  0.81179354024E+02  0.67412931147E+02  0.10641981672E+03  0.47000000000E+01 0.  1.
<mgrwt>
<rscale>  0 0.12969271E+03</rscale>
<asrwt>0</asrwt>
<pdfrwt beam="1">  1        1 0.26693401E-01 0.13910647E+03</pdfrwt>
<pdfrwt beam="2">  1       -1 0.13306838E-01 0.13910647E+03</pdfrwt>
<totfact> 0.65127735E+03</totfact>
</mgrwt>
</event>
<event>
 8    1  0.3572165E-004  0.1264755E+03  0.7546771E-02  0.1247544E+00
          1   -1    0    0  501    0  0.00000000000E+00  0.00000000000E+00  0.82601885447E+02  0.82601885447E+02  0.00000000000E+00 0. -1.
         -1   -1    0    0    0  501 -0.00000000000E+00 -0.00000000000E+00 -0.15410935344E+03  0.15410935344E+03  0.00000000000E+00 0.  1.
         25    2    1    2    0    0 -0.84884505971E+01 -0.17206885482E+02 -0.15219489094E+02  0.12738792078E+03  0.12501167470E+03 0.  0.
         23    2    1    2    0    0  0.84884505971E+01  0.17206885482E+02 -0.56287978902E+02  0.10932331811E+03  0.91733966510E+02 0.  0.
          5    1    4    4  502    0  0.31305335160E+02  0.18617599606E+02  0.10809444620E+02  0.38282804463E+02  0.47000000000E+01 0. -1.
         -5    1    4    4    0  502 -0.22816884563E+02 -0.14107141248E+01 -0.67097423522E+02  0.71040513644E+02  0.47000000000E+01 0.  1.
          5    1    3    3  503    0 -0.38263964341E+02 -0.61492632139E+02 -0.13269161136E+02  0.73780996278E+02  0.47000000000E+01 0.  1.
         -5    1    3    3    0  503  0.29775513744E+02  0.44285746658E+02 -0.19503279585E+01  0.53606924505E+02  0.47000000000E+01 0.  1.
<mgrwt>
<rscale>  0 0.11734422E+03</rscale>
<asrwt>0</asrwt>
<pdfrwt beam="1">  1        1 0.12707983E-01 0.12647549E+03</pdfrwt>
<pdfrwt beam="2">  1       -1 0.23709131E-01 0.12647549E+03</pdfrwt>
<totfact> 0.66672350E+03</totfact>
</mgrwt>
</event>
<event>
 8    1  0.3572165E-004  0.3113227E+03  0.7546771E-02  0.1081285E+00
         -2   -1    0    0    0  501 -0.00000000000E+00  0.00000000000E+00  0.13778753952E+03  0.13778753952E+03  0.00000000000E+00 0.  1.
          2   -1    0    0  501    0  0.00000000000E+00 -0.00000000000E+00 -0.68493284690E+03  0.68493284690E+03  0.00000000000E+00 0. -1.
         25    2    1    2    0    0 -0.42266430180E+02  0.28197538335E+03 -0.22871377742E+03  0.38630535993E+03  0.12500108478E+03 0.  0.
         23    2    1    2    0    0  0.42266430180E+02 -0.28197538335E+03 -0.31843152996E+03  0.43641502649E+03  0.88107140113E+02 0.  0.
          5    1    3    3  502    0  0.42270628738E+02  0.60176232368E+02 -0.48033432628E+02  0.87961841988E+02  0.47000000000E+01 0.  1.
         -5    1    4    4    0  503  0.47560149788E+02 -0.83229594034E+02 -0.73340579026E+02  0.12078933605E+03  0.47000000000E+01 0.  1.
          5    1    4    4  503    0 -0.52937196078E+01 -0.19874578932E+03 -0.24509095094E+03  0.31562569044E+03  0.47000000000E+01 0. -1.
         -5    1    3    3    0  502 -0.84537058918E+02  0.22179915098E+03 -0.18068034479E+03  0.29834351795E+03  0.47000000000E+01 0.  1.
<mgrwt>
<rscale>  0 0.30804780E+03</rscale>
<asrwt>0</asrwt>
<pdfrwt beam="1">  1        2 0.10537428E+00 0.31132273E+03</pdfrwt>
<pdfrwt beam="2">  1       -2 0.21198083E-01 0.31132273E+03</pdfrwt>
<totfact> 0.82031075E+02</totfact>
</mgrwt>
</event>
<event>
 8    1  0.3572165E-004  0.1310207E+03  0.7546771E-02  0.1239473E+00
          1   -1    0    0  501    0  0.00000000000E+00  0.00000000000E+00  0.22557558600E+02  0.22557558600E+02  0.00000000000E+00 0. -1.
         -1   -1    0    0    0  501 -0.00000000000E+00 -0.00000000000E+00 -0.61819463977E+03  0.61819463977E+03  0.00000000000E+00 0.  1.
         25    2    1    2    0    0 -0.54248912273E+01 -0.38886436075E+02 -0.26618176670E+03  0.29668022212E+03  0.12499934768E+03 0.  0.
         23    2    1    2    0    0  0.54248912273E+01  0.38886436075E+02 -0.32945531447E+03  0.34407197624E+03  0.91121546570E+02 0.  0.
          5    1    3    3  502    0  0.11144914100E+02  0.28967371433E+02 -0.12962661709E+02  0.33962307292E+02  0.47000000000E+01 0.  1.
         -5    1    3    3    0  502 -0.16569805328E+02 -0.67853807508E+02 -0.25321910499E+03  0.26271791483E+03  0.47000000000E+01 0.  1.
          5    1    4    4  503    0 -0.39021093681E+02  0.36161548956E+02 -0.15420595137E+03  0.16319273517E+03  0.47000000000E+01 0. -1.
         -5    1    4    4    0  503  0.44445984909E+02  0.27248871190E+01 -0.17524936310E+03  0.18087924107E+03  0.47000000000E+01 0.  1.
<mgrwt>
<rscale>  0 0.12222367E+03</rscale>
<asrwt>0</asrwt>
<pdfrwt beam="1">  1        1 0.34703932E-02 0.13102069E+03</pdfrwt>
<pdfrwt beam="2">  1       -1 0.95106880E-01 0.13102069E+03</pdfrwt>
<totfact> 0.30067677E+03</totfact>
</mgrwt>
</event>
<event>
 8    1  0.3572165E-004  0.1621017E+03  0.7546771E-02  0.1193781E+00
          1   -1    0    0  501    0  0.00000000000E+00  0.00000000000E+00  0.36872705283E+03  0.36872705283E+03  0.00000000000E+00 0. -1.
         -1   -1    0    0    0  501 -0.00000000000E+00 -0.00000000000E+00 -0.68709429254E+02  0.68709429254E+02  0.00000000000E+00 0.  1.
         25    2    1    2    0    0 -0.94987979384E+02  0.40361346389E+02  0.87271299531E+02  0.18410116359E+03  0.12500081682E+03 0.  0.
         23    2    1    2    0    0  0.94987979384E+02 -0.40361346389E+02  0.21274632404E+03  0.25333531849E+03  0.90917713841E+02 0.  0.
          5    1    4    4  502    0  0.23010861126E+02 -0.50266480462E+02  0.13918434721E+03  0.14983521381E+03  0.47000000000E+01 0. -1.
         -5    1    3    3    0  503 -0.75790276149E+02 -0.30939298456E+02  0.70724552726E+02  0.10828415630E+03  0.47000000000E+01 0.  1.
          5    1    3    3  503    0 -0.19197703234E+02  0.71300644846E+02  0.16546746806E+02  0.75817007292E+02  0.47000000000E+01 0.  1.
         -5    1    4    4    0  502  0.71977118258E+02  0.99051340731E+01  0.73561976831E+02  0.10350010468E+03  0.47000000000E+01 0.  1.
<mgrwt>
<rscale>  0 0.15557845E+03</rscale>
<asrwt>0</asrwt>
<pdfrwt beam="1">  1        1 0.56727238E-01 0.16210169E+03</pdfrwt>
<pdfrwt beam="2">  1       -1 0.10570682E-01 0.16210169E+03</pdfrwt>
<totfact> 0.36679460E+03</totfact>
</mgrwt>
</event>
<event>
 8    1  0.3572165E-004  0.1836952E+03  0.7546771E-02  0.1169189E+00
         -1   -1    0    0    0  501 -0.00000000000E+00  0.00000000000E+00  0.11711798464E+03  0.11711798464E+03  0.00000000000E+00 0.  1.
          1   -1    0    0  501    0  0.00000000000E+00 -0.00000000000E+00 -0.25900941290E+03  0.25900941290E+03  0.00000000000E+00 0. -1.
         25    2    1    2    0    0  0.57170717092E+02  0.12186376957E+03 -0.64069347866E+02  0.19454771500E+03  0.12499865139E+03 0.  0.
         23    2    1    2    0    0 -0.57170717092E+02 -0.12186376957E+03 -0.77822080393E+02  0.18157968253E+03  0.93785050445E+02 0.  0.
          5    1    4    4  502    0 -0.39578185515E+02 -0.95536595013E+01 -0.49623541852E+02  0.64360633034E+02  0.47000000000E+01 0. -1.
         -5    1    4    4    0  502 -0.17592531576E+02 -0.11231011006E+03 -0.28198538541E+02  0.11721904950E+03  0.47000000000E+01 0.  1.
          5    1    3    3  503    0  0.32161030369E+02 -0.13380683242E+01 -0.60504143403E+02  0.68694713554E+02  0.47000000000E+01 0. -1.
         -5    1    3    3    0  503  0.25009686723E+02  0.12320183789E+03 -0.35652044632E+01  0.12585300144E+03  0.47000000000E+01 0. -1.
<mgrwt>
<rscale>  0 0.17857575E+03</rscale>
<asrwt>0</asrwt>
<pdfrwt beam="1">  1        1 0.39847602E-01 0.18369522E+03</pdfrwt>
<pdfrwt beam="2">  1       -1 0.18018152E-01 0.18369522E+03</pdfrwt>
<totfact> 0.24840921E+03</totfact>
</mgrwt>
</event>
<event>
 8    1  0.3572165E-004  0.1268557E+03  0.7546771E-02  0.1246188E+00
         -4   -1    0    0    0  501 -0.00000000000E+00  0.00000000000E+00  0.21428998260E+03  0.21428998260E+03  0.00000000000E+00 0.  1.
          4   -1    0    0  501    0  0.00000000000E+00 -0.00000000000E+00 -0.80755082596E+02  0.80755082596E+02  0.00000000000E+00 0. -1.
         25    2    1    2    0    0  0.88451443113E+01 -0.19689672051E+02  0.15184657872E+03  0.19786297927E+03  0.12500582120E+03 0.  0.
         23    2    1    2    0    0 -0.88451443113E+01  0.19689672051E+02 -0.18311678717E+02  0.97182085921E+02  0.92968384320E+02 0.  0.
          5    1    4    4  502    0 -0.91052955803E+01 -0.28754621448E+02 -0.34332579853E+02  0.45940730312E+02  0.47000000000E+01 0. -1.
         -5    1    3    3    0  503  0.40995969673E+02 -0.41093110288E+02  0.14766112117E+03  0.15872999070E+03  0.47000000000E+01 0.  1.
          5    1    3    3  503    0 -0.32150825362E+02  0.21403438236E+02  0.41854575510E+01  0.39132988574E+02  0.47000000000E+01 0.  1.
         -5    1    4    4    0  502  0.26015126894E+00  0.48444293500E+02  0.16020901136E+02  0.51241355608E+02  0.47000000000E+01 0.  1.
<mgrwt>
<rscale>  0 0.11814535E+03</rscale>
<asrwt>0</asrwt>
<pdfrwt beam="1">  1        4 0.12423859E-01 0.12685573E+03</pdfrwt>
<pdfrwt beam="2">  1       -4 0.32967689E-01 0.12685573E+03</pdfrwt>
<totfact> 0.75764582E+02</totfact>
</mgrwt>
</event>
<event>
 8    1  0.3572165E-004  0.1320169E+03  0.7546771E-02  0.1237590E+00
         -1   -1    0    0    0  501 -0.00000000000E+00  0.00000000000E+00  0.37384248356E+03  0.37384248356E+03  0.00000000000E+00 0.  1.
          1   -1    0    0  501    0  0.00000000000E+00 -0.00000000000E+00 -0.42065618444E+02  0.42065618444E+02  0.00000000000E+00 0. -1.
         25    2    1    2    0    0  0.21545370879E+02  0.36572272198E+02  0.10829390166E+03  0.17075135457E+03  0.12500688720E+03 0.  0.
         23    2    1    2    0    0 -0.21545370879E+02 -0.36572272198E+02  0.22348296345E+03  0.24515674744E+03  0.91408214953E+02 0.  0.
          5    1    4    4  502    0 -0.36293015948E+02 -0.95210752706E+01  0.27613967913E+02  0.46823659669E+02  0.47000000000E+01 0. -1.
         -5    1    3    3    0  503  0.14428602584E+02 -0.46092694628E+02  0.33704462299E+02  0.59083008128E+02  0.47000000000E+01 0.  1.
          5    1    3    3  503    0  0.71167682951E+01  0.82664966826E+02  0.74589439365E+02  0.11166834644E+03  0.47000000000E+01 0.  1.
         -5    1    4    4    0  502  0.14747645069E+02 -0.27051196928E+02  0.19586899554E+03  0.19833308777E+03  0.47000000000E+01 0.  1.
<mgrwt>
<rscale>  0 0.12340104E+03</rscale>
<asrwt>0</asrwt>
<pdfrwt beam="1">  1        1 0.64716339E-02 0.13201688E+03</pdfrwt>
<pdfrwt beam="2">  1       -1 0.57514226E-01 0.13201688E+03</pdfrwt>
<totfact> 0.35203900E+03</totfact>
</mgrwt>
</event>
<event>
 8    1  0.3572165E-004  0.1345413E+03  0.7546771E-02  0.1233330E+00
         -2   -1    0    0    0  501 -0.00000000000E+00  0.00000000000E+00  0.83184507919E+02  0.83184507919E+02  0.00000000000E+00 0.  1.
          2   -1    0    0  501    0  0.00000000000E+00 -0.00000000000E+00 -0.17395929811E+03  0.17395929811E+03  0.00000000000E+00 0. -1.
         25    2    1    2    0    0 -0.12720285577E+02 -0.48118165820E+02 -0.34067445475E+02  0.13878743615E+03  0.12499679214E+03 0.  0.
         23    2    1    2    0    0  0.12720285577E+02  0.48118165820E+02 -0.56707344719E+02  0.11835636988E+03  0.91188506944E+02 0.  0.
          5    1    3    3  502    0  0.26165530094E+01  0.35951677328E+02 -0.38674448449E+02  0.53077042261E+02  0.47000000000E+01 0.  1.
         -5    1    3    3    0  502 -0.15336838586E+02 -0.84069843148E+02  0.46070029740E+01  0.85710393893E+02  0.47000000000E+01 0.  1.
          5    1    4    4  503    0 -0.11278062231E+02 -0.22310324896E+02 -0.29599663978E+02  0.39027879680E+02  0.47000000000E+01 0. -1.
         -5    1    4    4    0  503  0.23998347808E+02  0.70428490717E+02 -0.27107680741E+02  0.79328490199E+02  0.47000000000E+01 0.  1.
<mgrwt>
<rscale>  0 0.12611943E+03</rscale>
<asrwt>0</asrwt>
<pdfrwt beam="1">  1        2 0.26762969E-01 0.13454130E+03</pdfrwt>
<pdfrwt beam="2">  1       -2 0.12797617E-01 0.13454130E+03</pdfrwt>
<totfact> 0.83772204E+03</totfact>
</mgrwt>
</event>
<event>
 8    1  0.3572165E-004  0.1342717E+03  0.7546771E-02  0.1238286E+00
         -2   -1    0    0    0  501 -0.00000000000E+00  0.00000000000E+00  0.41985323641E+02  0.41985323641E+02  0.00000000000E+00 0. -1.
          2   -1    0    0  501    0  0.00000000000E+00 -0.00000000000E+00 -0.31541938820E+03  0.31541938820E+03  0.00000000000E+00 0.  1.
         25    2    1    2    0    0 -0.48849277320E+02  0.42115244546E+01 -0.17991193956E+03  0.22449321252E+03  0.12499963054E+03 0.  0.
         23    2    1    2    0    0  0.48849277320E+02 -0.42115244546E+01 -0.93522124995E+02  0.13291149933E+03  0.80716107169E+02 0.  0.
          5    1    3    3  502    0 -0.44942532287E+02 -0.56589907962E+02 -0.85716582311E+02  0.11221261682E+03  0.47000000000E+01 0.  1.
         -5    1    3    3    0  502 -0.39067450329E+01  0.60801432417E+02 -0.94195357253E+02  0.11228059569E+03  0.47000000000E+01 0.  1.
          5    1    4    4  503    0  0.37361664556E+02  0.32880602697E+02 -0.73717824295E+02  0.89069835695E+02  0.47000000000E+01 0. -1.
         -5    1    4    4    0  503  0.11487612763E+02 -0.37092127151E+02 -0.19804300700E+02  0.43841663630E+02  0.47000000000E+01 0.  1.
<mgrwt>
<rscale>  0 0.12296413E+03</rscale>
<asrwt>0</asrwt>
<pdfrwt beam="1">  1        2 0.48526058E-01 0.13427173E+03</pdfrwt>
<pdfrwt beam="2">  1       -2 0.64592808E-02 0.13427173E+03</pdfrwt>
<totfact> 0.12871327E+04</totfact>
</mgrwt>
</event>
<event>
 8    1  0.3572165E-004  0.1934754E+03  0.7546771E-02  0.1160328E+00
         -1   -1    0    0    0  501 -0.00000000000E+00  0.00000000000E+00  0.97810683653E+02  0.97810683653E+02  0.00000000000E+00 0.  1.
          1   -1    0    0  501    0  0.00000000000E+00 -0.00000000000E+00 -0.35940073353E+03  0.35940073353E+03  0.00000000000E+00 0. -1.
         25    2    1    2    0    0  0.10190151304E+03  0.10688711645E+03 -0.18831318771E+03  0.26998995372E+03  0.12499577761E+03 0.  0.
         23    2    1    2    0    0 -0.10190151304E+03 -0.10688711645E+03 -0.73276862166E+02  0.18722146346E+03  0.88733329865E+02 0.  0.
          5    1    4    4  502    0 -0.73715998391E+02 -0.99960020089E+02 -0.89946273103E+02  0.15342254098E+03  0.47000000000E+01 0. -1.
         -5    1    4    4    0  502 -0.28185514651E+02 -0.69270963609E+01  0.16669410937E+02  0.33798922484E+02  0.47000000000E+01 0.  1.
          5    1    3    3  503    0  0.73028849927E+02 -0.62857281142E+01 -0.96937253242E+02  0.12162090431E+03  0.47000000000E+01 0.  1.
         -5    1    3    3    0  503  0.28872663115E+02  0.11317284456E+03 -0.91375934465E+02  0.14836904940E+03  0.47000000000E+01 0.  1.
<mgrwt>
<rscale>  0 0.18794536E+03</rscale>
<asrwt>0</asrwt>
<pdfrwt beam="1">  1        1 0.55292419E-01 0.19347537E+03</pdfrwt>
<pdfrwt beam="2">  1       -1 0.15047798E-01 0.19347537E+03</pdfrwt>
<totfact> 0.21988639E+03</totfact>
</mgrwt>
</event>
<event>
 8    1  0.3572165E-004  0.1793310E+03  0.7546771E-02  0.1174009E+00
         -1   -1    0    0    0  501 -0.00000000000E+00  0.00000000000E+00  0.68898810204E+03  0.68898810204E+03  0.00000000000E+00 0.  1.
          1   -1    0    0  501    0  0.00000000000E+00 -0.00000000000E+00 -0.41549846393E+02  0.41549846393E+02  0.00000000000E+00 0. -1.
         25    2    1    2    0    0  0.55313319484E+02 -0.11607691768E+03  0.31480354283E+03  0.36229943646E+03  0.12500478773E+03 0.  0.
         23    2    1    2    0    0 -0.55313319484E+02  0.11607691768E+03  0.33263471282E+03  0.36823851197E+03  0.91762385520E+02 0.  0.
          5    1    4    4  502    0 -0.31677441762E+02  0.84057717197E+02  0.11033457495E+03  0.14235507917E+03  0.47000000000E+01 0. -1.
         -5    1    3    3    0  503  0.75197441725E+02 -0.55584427052E+02  0.94896815112E+02  0.13331083711E+03  0.47000000000E+01 0.  1.
          5    1    3    3  503    0 -0.19884122240E+02 -0.60492490624E+02  0.21990672772E+03  0.22898859935E+03  0.47000000000E+01 0.  1.
         -5    1    4    4    0  502 -0.23635877722E+02  0.32019200478E+02  0.22230013788E+03  0.22588343280E+03  0.47000000000E+01 0.  1.
<mgrwt>
<rscale>  0 0.17373348E+03</rscale>
<asrwt>0</asrwt>
<pdfrwt beam="1">  1        1 0.63922846E-02 0.17933101E+03</pdfrwt>
<pdfrwt beam="2">  1       -1 0.10599816E+00 0.17933101E+03</pdfrwt>
<totfact> 0.10359725E+03</totfact>
</mgrwt>
</event>
<event>
 8    1  0.3572165E-004  0.1297502E+03  0.7546771E-02  0.1241157E+00
          1   -1    0    0  501    0  0.00000000000E+00  0.00000000000E+00  0.61348540648E+03  0.61348540648E+03  0.00000000000E+00 0. -1.
         -1   -1    0    0    0  501 -0.00000000000E+00 -0.00000000000E+00 -0.34076021713E+02  0.34076021713E+02  0.00000000000E+00 0.  1.
         25    2    1    2    0    0 -0.32101249433E+02 -0.13369442497E+02  0.11694253137E+03  0.17467302282E+03  0.12500350815E+03 0.  0.
         23    2    1    2    0    0  0.32101249433E+02  0.13369442497E+02  0.46246685340E+03  0.47288840537E+03  0.92404660253E+02 0.  0.
          5    1    3    3  502    0 -0.43296224675E+02 -0.49207551082E+02  0.11989212541E+03  0.13671926671E+03  0.47000000000E+01 0.  1.
         -5    1    4    4    0  503  0.52417664275E+02 -0.19551929247E+02  0.33243857353E+03  0.33714593967E+03  0.47000000000E+01 0.  1.
          5    1    4    4  503    0 -0.20316414842E+02  0.32921371745E+02  0.13002827986E+03  0.13574246570E+03  0.47000000000E+01 0. -1.
         -5    1    3    3    0  502  0.11194975242E+02  0.35838108584E+02 -0.29495940440E+01  0.37953756106E+02  0.47000000000E+01 0.  1.
<mgrwt>
<rscale>  0 0.12118381E+03</rscale>
<asrwt>0</asrwt>
<pdfrwt beam="1">  1        1 0.94382362E-01 0.12975018E+03</pdfrwt>
<pdfrwt beam="2">  1       -1 0.52424653E-02 0.12975018E+03</pdfrwt>
<totfact> 0.53836269E+03</totfact>
</mgrwt>
</event>
<event>
 8    1  0.3572165E-004  0.1604430E+03  0.7546771E-02  0.1195623E+00
         -1   -1    0    0    0  501 -0.00000000000E+00  0.00000000000E+00  0.26976035821E+03  0.26976035821E+03  0.00000000000E+00 0.  1.
          1   -1    0    0  501    0  0.00000000000E+00 -0.00000000000E+00 -0.11979070468E+03  0.11979070468E+03  0.00000000000E+00 0. -1.
         25    2    1    2    0    0  0.41310336784E+01  0.10050077052E+03  0.18891627371E+03  0.24785342920E+03  0.12499797430E+03 0.  0.
         23    2    1    2    0    0 -0.41310336784E+01 -0.10050077052E+03 -0.38946620182E+02  0.14169763369E+03  0.91890749566E+02 0.  0.
          5    1    3    3  502    0 -0.43193188813E+02  0.53716304568E+02  0.16163076078E+03  0.17577737558E+03  0.47000000000E+01 0.  1.
         -5    1    4    4    0  503  0.33312053605E+02 -0.38895888445E+02  0.12602090155E+02  0.52947953026E+02  0.47000000000E+01 0.  1.
          5    1    4    4  503    0 -0.37443087284E+02 -0.61604882076E+02 -0.51548710338E+02  0.88749680667E+02  0.47000000000E+01 0. -1.
         -5    1    3    3    0  502  0.47324222491E+02  0.46784465953E+02  0.27285512925E+02  0.72076053613E+02  0.47000000000E+01 0.  1.
<mgrwt>
<rscale>  0 0.15401638E+03</rscale>
<asrwt>0</asrwt>
<pdfrwt beam="1">  1        1 0.18429339E-01 0.16044302E+03</pdfrwt>
<pdfrwt beam="2">  1       -1 0.41501593E-01 0.16044302E+03</pdfrwt>
<totfact> 0.16156659E+03</totfact>
</mgrwt>
</event>
<event>
 8    1  0.3572165E-004  0.1524910E+03  0.7546771E-02  0.1206036E+00
          1   -1    0    0  501    0  0.00000000000E+00  0.00000000000E+00  0.37781705751E+03  0.37781705751E+03  0.00000000000E+00 0. -1.
         -1   -1    0    0    0  501 -0.00000000000E+00 -0.00000000000E+00 -0.62728883307E+02  0.62728883307E+02  0.00000000000E+00 0.  1.
         25    2    1    2    0    0  0.11409841599E+02 -0.86598098600E+02  0.26224205104E+03  0.30335525632E+03  0.12499641209E+03 0.  0.
         23    2    1    2    0    0 -0.11409841599E+02  0.86598098600E+02  0.52846123166E+02  0.13719068450E+03  0.91646909460E+02 0.  0.
          5    1    4    4  502    0 -0.41805711784E+02  0.17662544807E+02  0.39881618795E+02  0.60599641456E+02  0.47000000000E+01 0. -1.
         -5    1    4    4    0  502  0.30395870185E+02  0.68935553793E+02  0.12964504371E+02  0.76591043045E+02  0.47000000000E+01 0.  1.
          5    1    3    3  503    0  0.61123343019E+02 -0.33690797064E+02  0.75410121248E+02  0.10285868585E+03  0.47000000000E+01 0.  1.
         -5    1    3    3    0  503 -0.49713501420E+02 -0.52907301536E+02  0.18683192979E+03  0.20049657047E+03  0.47000000000E+01 0.  1.
<mgrwt>
<rscale>  0 0.14556102E+03</rscale>
<asrwt>0</asrwt>
<pdfrwt beam="1">  1        1 0.58125699E-01 0.15249104E+03</pdfrwt>
<pdfrwt beam="2">  1       -1 0.96505977E-02 0.15249104E+03</pdfrwt>
<totfact> 0.40784786E+03</totfact>
</mgrwt>
</event>
<event>
 8    1  0.3572165E-004  0.1363973E+03  0.7546771E-02  0.1229941E+00
         -2   -1    0    0    0  501 -0.00000000000E+00  0.00000000000E+00  0.24148774637E+02  0.24148774637E+02  0.00000000000E+00 0. -1.
          2   -1    0    0  501    0  0.00000000000E+00 -0.00000000000E+00 -0.61504750476E+03  0.61504750476E+03  0.00000000000E+00 0.  1.
         25    2    1    2    0    0  0.51580202490E+02 -0.17877475680E+02 -0.31217658511E+03  0.34067352437E+03  0.12499643390E+03 0.  0.
         23    2    1    2    0    0 -0.51580202490E+02  0.17877475680E+02 -0.27872214501E+03  0.29852275503E+03  0.91922139465E+02 0.  0.
          5    1    3    3  502    0  0.69037235673E+02 -0.45389577797E+02 -0.28846995827E+03  0.30010558226E+03  0.47000000000E+01 0. -1.
         -5    1    3    3    0  502 -0.17457033183E+02  0.27512102117E+02 -0.23706626844E+02  0.40567942107E+02  0.47000000000E+01 0. -1.
          5    1    4    4  503    0  0.23699111253E+01  0.20613835868E+02 -0.84941464350E+01  0.22908235017E+02  0.47000000000E+01 0. -1.
         -5    1    4    4    0  503 -0.53950113615E+02 -0.27363601876E+01 -0.27022799858E+03  0.27561452001E+03  0.47000000000E+01 0.  1.
<mgrwt>
<rscale>  0 0.12833917E+03</rscale>
<asrwt>0</asrwt>
<pdfrwt beam="1">  1        2 0.94622698E-01 0.13639732E+03</pdfrwt>
<pdfrwt beam="2">  1       -2 0.37151959E-02 0.13639732E+03</pdfrwt>
<totfact> 0.14302592E+04</totfact>
</mgrwt>
</event>
<event>
 8    1  0.3572165E-004  0.1356922E+03  0.7546771E-02  0.1232874E+00
          1   -1    0    0  501    0  0.00000000000E+00  0.00000000000E+00  0.20840699391E+03  0.20840699391E+03  0.00000000000E+00 0. -1.
         -1   -1    0    0    0  501 -0.00000000000E+00 -0.00000000000E+00 -0.68996888288E+02  0.68996888288E+02  0.00000000000E+00 0.  1.
         25    2    1    2    0    0 -0.48177844963E+02 -0.21580757457E+02  0.62029275415E+02  0.14919783951E+03  0.12500212185E+03 0.  0.
         23    2    1    2    0    0  0.48177844963E+02  0.21580757457E+02  0.77380830203E+02  0.12820604269E+03  0.87533780113E+02 0.  0.
          5    1    4    4  502    0  0.25149420559E+02 -0.20500996480E+02  0.72734735137E+02  0.79782303217E+02  0.47000000000E+01 0. -1.
         -5    1    3    3    0  503 -0.78199293801E+02  0.21921863062E+02  0.27429803521E+02  0.85849762681E+02  0.47000000000E+01 0.  1.
          5    1    3    3  503    0  0.30021448838E+02 -0.43502620519E+02  0.34599471893E+02  0.63348076826E+02  0.47000000000E+01 0.  1.
         -5    1    4    4    0  502  0.23028424404E+02  0.42081753936E+02  0.46460950660E+01  0.48423739470E+02  0.47000000000E+01 0.  1.
<mgrwt>
<rscale>  0 0.12641552E+03</rscale>
<asrwt>0</asrwt>
<pdfrwt beam="1">  1        1 0.32062614E-01 0.13569217E+03</pdfrwt>
<pdfrwt beam="2">  1       -1 0.10614906E-01 0.13569217E+03</pdfrwt>
<totfact> 0.73333503E+03</totfact>
</mgrwt>
</event>
<event>
 8    1  0.3572165E-004  0.2423929E+03  0.7546771E-02  0.1121339E+00
          3   -1    0    0  501    0  0.00000000000E+00  0.00000000000E+00  0.12024860149E+04  0.12024860149E+04  0.00000000000E+00 0. -1.
         -3   -1    0    0    0  501 -0.00000000000E+00 -0.00000000000E+00 -0.45539358173E+02  0.45539358173E+02  0.00000000000E+00 0.  1.
         25    2    1    2    0    0 -0.10318929905E+02 -0.20741664570E+03  0.65073228263E+03  0.69441113409E+03  0.12500469699E+03 0.  0.
         23    2    1    2    0    0  0.10318929905E+02  0.20741664570E+03  0.50621437410E+03  0.55361423898E+03  0.84306511205E+02 0.  0.
          5    1    4    4  502    0  0.33119070164E+02  0.18724893281E+03  0.46297247700E+03  0.50052436515E+03  0.47000000000E+01 0. -1.
         -5    1    3    3    0  503 -0.58186426216E+02 -0.50727861286E+02  0.17815311954E+03  0.19421534468E+03  0.47000000000E+01 0. -1.
          5    1    3    3  503    0  0.47867496311E+02 -0.15668878441E+03  0.47257916309E+03  0.50019578941E+03  0.47000000000E+01 0. -1.
         -5    1    4    4    0  502 -0.22800140259E+02  0.20167712884E+02  0.43241897099E+02  0.53089873832E+02  0.47000000000E+01 0.  1.
<mgrwt>
<rscale>  0 0.23769307E+03</rscale>
<asrwt>0</asrwt>
<pdfrwt beam="1">  1        3 0.18499782E+00 0.24239290E+03</pdfrwt>
<pdfrwt beam="2">  1       -3 0.70060560E-02 0.24239290E+03</pdfrwt>
<totfact> 0.65403541E+01</totfact>
</mgrwt>
</event>
<event>
 8    1  0.3572165E-004  0.1386288E+03  0.7546771E-02  0.1227116E+00
          1   -1    0    0  501    0  0.00000000000E+00  0.00000000000E+00  0.31764359440E+03  0.31764359440E+03  0.00000000000E+00 0. -1.
         -1   -1    0    0    0  501 -0.00000000000E+00 -0.00000000000E+00 -0.48113043772E+02  0.48113043772E+02  0.00000000000E+00 0.  1.
         25    2    1    2    0    0 -0.58130698188E+02  0.14583437216E+02  0.16465341585E+03  0.21524103186E+03  0.12500439886E+03 0.  0.
         23    2    1    2    0    0  0.58130698188E+02 -0.14583437216E+02  0.10487713478E+03  0.15051560631E+03  0.89799107068E+02 0.  0.
          5    1    4    4  502    0  0.87849912614E+01 -0.34307816298E+02  0.87329978245E+02  0.94354742493E+02  0.47000000000E+01 0. -1.
         -5    1    4    4    0  502  0.49345706927E+02  0.19724379082E+02  0.17547156537E+02  0.56160863818E+02  0.47000000000E+01 0.  1.
          5    1    3    3  503    0 -0.14381601652E+02  0.39284965981E+02  0.15898409041E+03  0.16446327865E+03  0.47000000000E+01 0. -1.
         -5    1    3    3    0  503 -0.43749096536E+02 -0.24701528765E+02  0.56693254348E+01  0.50777753219E+02  0.47000000000E+01 0. -1.
<mgrwt>
<rscale>  0 0.13022898E+03</rscale>
<asrwt>0</asrwt>
<pdfrwt beam="1">  1        1 0.48868244E-01 0.13862884E+03</pdfrwt>
<pdfrwt beam="2">  1       -1 0.74020069E-02 0.13862884E+03</pdfrwt>
<totfact> 0.75312146E+03</totfact>
</mgrwt>
</event>
<event>
 8    1  0.3572165E-004  0.2109630E+03  0.7546771E-02  0.1144228E+00
          1   -1    0    0  501    0  0.00000000000E+00  0.00000000000E+00  0.19683213524E+04  0.19683213524E+04  0.00000000000E+00 0. -1.
         -1   -1    0    0    0  501 -0.00000000000E+00 -0.00000000000E+00 -0.30594703332E+02  0.30594703332E+02  0.00000000000E+00 0.  1.
         25    2    1    2    0    0 -0.11199270512E+03  0.12782816114E+03  0.43260784779E+03  0.48130544214E+03  0.12499189527E+03 0.  0.
         23    2    1    2    0    0  0.11199270512E+03 -0.12782816114E+03  0.15051188013E+04  0.15176106136E+04  0.94217640293E+02 0.  0.
          5    1    3    3  502    0 -0.71141004414E+02  0.25495282817E+02  0.29706728839E+03  0.30656502701E+03  0.47000000000E+01 0.  1.
         -5    1    4    4    0  503  0.81972695053E+02 -0.11717277315E+03  0.14089132576E+04  0.14161594681E+04  0.47000000000E+01 0.  1.
          5    1    4    4  503    0  0.30020010067E+02 -0.10655387993E+02  0.96205543698E+02  0.10145114556E+03  0.47000000000E+01 0. -1.
         -5    1    3    3    0  502 -0.40851700706E+02  0.10233287833E+03  0.13554055940E+03  0.17474041513E+03  0.47000000000E+01 0.  1.
<mgrwt>
<rscale>  0 0.20667254E+03</rscale>
<asrwt>0</asrwt>
<pdfrwt beam="1">  1        1 0.30281857E+00 0.21096298E+03</pdfrwt>
<pdfrwt beam="2">  1       -1 0.47068790E-02 0.21096298E+03</pdfrwt>
<totfact> 0.68712785E+02</totfact>
</mgrwt>
</event>
<event>
 8    1  0.3572165E-004  0.1287808E+03  0.7546771E-02  0.1243544E+00
         -2   -1    0    0    0  501 -0.00000000000E+00  0.00000000000E+00  0.17732765323E+02  0.17732765323E+02  0.00000000000E+00 0.  1.
          2   -1    0    0  501    0  0.00000000000E+00 -0.00000000000E+00 -0.71754196807E+03  0.71754196807E+03  0.00000000000E+00 0. -1.
         25    2    1    2    0    0 -0.30900949080E+02  0.43058363509E+00 -0.42687357754E+03  0.44587614293E+03  0.12501771707E+03 0.  0.
         23    2    1    2    0    0  0.30900949080E+02 -0.43058363509E+00 -0.27293562521E+03  0.28939859046E+03  0.91118793858E+02 0.  0.
          5    1    4    4  502    0  0.55073160027E+02  0.14734122115E+01 -0.96303890954E+02  0.11104842778E+03  0.47000000000E+01 0. -1.
         -5    1    4    4    0  502 -0.24172210946E+02 -0.19039958466E+01 -0.17663173425E+03  0.17835016268E+03  0.47000000000E+01 0.  1.
          5    1    3    3  503    0  0.38982052887E+02  0.24442597838E+02 -0.92691793281E+02  0.10359005540E+03  0.47000000000E+01 0.  1.
         -5    1    3    3    0  503 -0.69883001967E+02 -0.24012014203E+02 -0.33418178426E+03  0.34228608753E+03  0.47000000000E+01 0.  1.
<mgrwt>
<rscale>  0 0.11972947E+03</rscale>
<asrwt>0</asrwt>
<pdfrwt beam="1">  1        2 0.11039108E+00 0.12878076E+03</pdfrwt>
<pdfrwt beam="2">  1       -2 0.27281176E-02 0.12878076E+03</pdfrwt>
<totfact> 0.18737495E+04</totfact>
</mgrwt>
</event>
<event>
 8    1  0.3572165E-004  0.1958173E+03  0.7546771E-02  0.1157665E+00
          1   -1    0    0  501    0  0.00000000000E+00  0.00000000000E+00  0.11950821602E+04  0.11950821602E+04  0.00000000000E+00 0. -1.
         -1   -1    0    0    0  501 -0.00000000000E+00 -0.00000000000E+00 -0.31866436547E+02  0.31866436547E+02  0.00000000000E+00 0.  1.
         25    2    1    2    0    0 -0.14707243996E+03 -0.33036810793E+02  0.79084599912E+03  0.81472806281E+03  0.12499075379E+03 0.  0.
         23    2    1    2    0    0  0.14707243996E+03  0.33036810793E+02  0.37236972456E+03  0.41222053397E+03  0.92438213925E+02 0.  0.
          5    1    3    3  502    0 -0.77448739259E+02 -0.74295463324E+02  0.33728620317E+03  0.35398050219E+03  0.47000000000E+01 0. -1.
         -5    1    3    3    0  502 -0.69623700701E+02  0.41258652531E+02  0.45355979595E+03  0.46074756061E+03  0.47000000000E+01 0. -1.
          5    1    4    4  503    0  0.12737720107E+03  0.61508049303E+02  0.30865137379E+03  0.33955257623E+03  0.47000000000E+01 0. -1.
         -5    1    4    4    0  503  0.19695238889E+02 -0.28471238510E+02  0.63718350772E+02  0.72667957741E+02  0.47000000000E+01 0.  1.
<mgrwt>
<rscale>  0 0.19088567E+03</rscale>
<asrwt>0</asrwt>
<pdfrwt beam="1">  1        1 0.18385876E+00 0.19581732E+03</pdfrwt>
<pdfrwt beam="2">  1       -1 0.49025296E-02 0.19581732E+03</pdfrwt>
<totfact> 0.20881888E+03</totfact>
</mgrwt>
</event>
<event>
 8    1  0.3572165E-004  0.1426751E+03  0.7546771E-02  0.1220676E+00
         -2   -1    0    0    0  501 -0.00000000000E+00  0.00000000000E+00  0.17718571154E+03  0.17718571154E+03  0.00000000000E+00 0.  1.
          2   -1    0    0  501    0  0.00000000000E+00 -0.00000000000E+00 -0.10040470292E+03  0.10040470292E+03  0.00000000000E+00 0. -1.
         25    2    1    2    0    0  0.60388628328E+02 -0.32930329619E+02  0.35747788753E+01  0.14271985792E+03  0.12499994304E+03 0.  0.
         23    2    1    2    0    0 -0.60388628328E+02  0.32930329619E+02  0.73206229744E+02  0.13487055654E+03  0.89998455026E+02 0.  0.
          5    1    4    4  502    0 -0.80372018165E+02  0.40875254592E+02  0.51452008573E+02  0.10392231198E+03  0.47000000000E+01 0. -1.
         -5    1    4    4    0  502  0.19983389836E+02 -0.79449249727E+01  0.21754221170E+02  0.30948244553E+02  0.47000000000E+01 0.  1.
          5    1    3    3  503    0 -0.14188434700E+02 -0.27184897804E+02  0.46840434923E+02  0.56182263141E+02  0.47000000000E+01 0. -1.
         -5    1    3    3    0  503  0.74577063028E+02 -0.57454318148E+01 -0.43265656048E+02  0.86537594778E+02  0.47000000000E+01 0. -1.
<mgrwt>
<rscale>  0 0.13467696E+03</rscale>
<asrwt>0</asrwt>
<pdfrwt beam="1">  1        2 0.15446877E-01 0.14267508E+03</pdfrwt>
<pdfrwt beam="2">  1       -2 0.27259340E-01 0.14267508E+03</pdfrwt>
<totfact> 0.43890071E+03</totfact>
</mgrwt>
</event>
<event>
 8    1  0.3572165E-004  0.1341022E+03  0.7546771E-02  0.1234289E+00
          3   -1    0    0  501    0  0.00000000000E+00  0.00000000000E+00  0.25733545510E+02  0.25733545510E+02  0.00000000000E+00 0. -1.
         -3   -1    0    0    0  501 -0.00000000000E+00 -0.00000000000E+00 -0.55428717451E+03  0.55428717451E+03  0.00000000000E+00 0.  1.
         25    2    1    2    0    0  0.18265739710E+02 -0.45003146014E+02 -0.26243948098E+03  0.29471662214E+03  0.12499794315E+03 0.  0.
         23    2    1    2    0    0 -0.18265739710E+02  0.45003146014E+02 -0.26611414802E+03  0.28530409788E+03  0.90679479992E+02 0.  0.
          5    1    3    3  502    0 -0.36700692805E+02 -0.29635393261E+02 -0.31823630617E+02  0.57096679866E+02  0.47000000000E+01 0.  1.
         -5    1    4    4    0  503 -0.14653470099E+02  0.72775125366E+02 -0.18729182310E+03  0.20152235623E+03  0.47000000000E+01 0.  1.
          5    1    4    4  503    0 -0.36122696117E+01 -0.27771979352E+02 -0.78822324914E+02  0.83781741649E+02  0.47000000000E+01 0. -1.
         -5    1    3    3    0  502  0.54966432516E+02 -0.15367752753E+02 -0.23061585036E+03  0.23761994227E+03  0.47000000000E+01 0.  1.
<mgrwt>
<rscale>  0 0.12550076E+03</rscale>
<asrwt>0</asrwt>
<pdfrwt beam="1">  1        3 0.39590071E-02 0.13410222E+03</pdfrwt>
<pdfrwt beam="2">  1       -3 0.85274947E-01 0.13410222E+03</pdfrwt>
<totfact> 0.98475696E+02</totfact>
</mgrwt>
</event>
<event>
 8    1  0.3572165E-004  0.1330568E+03  0.7546771E-02  0.1237801E+00
          3   -1    0    0  501    0  0.00000000000E+00  0.00000000000E+00  0.34045452719E+03  0.34045452719E+03  0.00000000000E+00 0. -1.
         -3   -1    0    0    0  501 -0.00000000000E+00 -0.00000000000E+00 -0.39371767412E+02  0.39371767412E+02  0.00000000000E+00 0.  1.
         25    2    1    2    0    0 -0.39160549186E+02 -0.23351738852E+02  0.18537607329E+03  0.22818500010E+03  0.12500101362E+03 0.  0.
         23    2    1    2    0    0  0.39160549186E+02  0.23351738852E+02  0.11570668649E+03  0.15164129450E+03  0.86765157627E+02 0.  0.
          5    1    3    3  502    0 -0.72734922932E+02 -0.46805802739E+02  0.15279445742E+03  0.17563993965E+03  0.47000000000E+01 0.  1.
         -5    1    3    3    0  502  0.33574373746E+02  0.23454063887E+02  0.32581615871E+02  0.52545060453E+02  0.47000000000E+01 0.  1.
          5    1    4    4  503    0  0.62638399947E+02  0.11601300360E+02  0.51286288937E+02  0.81917841469E+02  0.47000000000E+01 0. -1.
         -5    1    4    4    0  503 -0.23477850761E+02  0.11750438492E+02  0.64420397555E+02  0.69723453029E+02  0.47000000000E+01 0.  1.
<mgrwt>
<rscale>  0 0.12326832E+03</rscale>
<asrwt>0</asrwt>
<pdfrwt beam="1">  1        3 0.52377618E-01 0.13305678E+03</pdfrwt>
<pdfrwt beam="2">  1       -3 0.60571952E-02 0.13305678E+03</pdfrwt>
<totfact> 0.13989780E+03</totfact>
</mgrwt>
</event>
<event>
 8    1  0.3572165E-004  0.1601881E+03  0.7546771E-02  0.1196527E+00
          1   -1    0    0  501    0  0.00000000000E+00  0.00000000000E+00  0.64656533355E+03  0.64656533355E+03  0.00000000000E+00 0. -1.
         -1   -1    0    0    0  501 -0.00000000000E+00 -0.00000000000E+00 -0.33904841896E+02  0.33904841896E+02  0.00000000000E+00 0.  1.
         25    2    1    2    0    0  0.10746010567E+01  0.10016999063E+03  0.29658553764E+03  0.33708041575E+03  0.12500017502E+03 0.  0.
         23    2    1    2    0    0 -0.10746010567E+01 -0.10016999063E+03  0.31607495401E+03  0.34338975969E+03  0.89319475590E+02 0.  0.
          5    1    4    4  502    0  0.27927297126E+02 -0.42710924037E+02  0.23095019987E+03  0.23656762622E+03  0.47000000000E+01 0. -1.
         -5    1    3    3    0  503 -0.28570613933E+02 -0.19354337948E+02  0.90352427545E+02  0.96832440541E+02  0.47000000000E+01 0.  1.
          5    1    3    3  503    0  0.29645214990E+02  0.11952432857E+03  0.20623311010E+03  0.24024797521E+03  0.47000000000E+01 0.  1.
         -5    1    4    4    0  502 -0.29001898183E+02 -0.57459066589E+02  0.85124754139E+02  0.10682213347E+03  0.47000000000E+01 0.  1.
<mgrwt>
<rscale>  0 0.15325738E+03</rscale>
<asrwt>0</asrwt>
<pdfrwt beam="1">  1        1 0.99471580E-01 0.16018809E+03</pdfrwt>
<pdfrwt beam="2">  1       -1 0.52161300E-02 0.16018809E+03</pdfrwt>
<totfact> 0.50957817E+03</totfact>
</mgrwt>
</event>
<event>
 8    1  0.3572165E-004  0.1484094E+03  0.7546771E-02  0.1211687E+00
         -1   -1    0    0    0  501 -0.00000000000E+00  0.00000000000E+00  0.18076855254E+03  0.18076855254E+03  0.00000000000E+00 0. -1.
          1   -1    0    0  501    0  0.00000000000E+00 -0.00000000000E+00 -0.10712041108E+03  0.10712041108E+03  0.00000000000E+00 0.  1.
         25    2    1    2    0    0  0.28894730812E+02 -0.74573783631E+02  0.74777243998E+02  0.16618360572E+03  0.12501679854E+03 0.  0.
         23    2    1    2    0    0 -0.28894730812E+02  0.74573783631E+02 -0.11291025395E+01  0.12170535790E+03  0.91732026008E+02 0.  0.
          5    1    4    4  502    0  0.72163087169E+01  0.82215118209E+02  0.89708083881E+01  0.83150262638E+02  0.47000000000E+01 0. -1.
         -5    1    3    3    0  503  0.32472528081E+02  0.21531205669E+02 -0.69905510428E+01  0.39862459801E+02  0.47000000000E+01 0.  1.
          5    1    3    3  503    0 -0.35777972686E+01 -0.96104989300E+02  0.81767795041E+02  0.12632114592E+03  0.47000000000E+01 0.  1.
         -5    1    4    4    0  502 -0.36111039529E+02 -0.76413345777E+01 -0.10099910928E+02  0.38555095263E+02  0.47000000000E+01 0.  1.
<mgrwt>
<rscale>  0 0.14122736E+03</rscale>
<asrwt>0</asrwt>
<pdfrwt beam="1">  1        1 0.16480063E-01 0.14840942E+03</pdfrwt>
<pdfrwt beam="2">  1       -1 0.27810546E-01 0.14840942E+03</pdfrwt>
<totfact> 0.36955456E+03</totfact>
</mgrwt>
</event>
<event>
 8    1  0.3572165E-004  0.1302937E+03  0.7546771E-02  0.1240841E+00
         -2   -1    0    0    0  501 -0.00000000000E+00  0.00000000000E+00  0.12203423169E+03  0.12203423169E+03  0.00000000000E+00 0.  1.
          2   -1    0    0  501    0  0.00000000000E+00 -0.00000000000E+00 -0.11000914891E+03  0.11000914891E+03  0.00000000000E+00 0. -1.
         25    2    1    2    0    0  0.14639925536E+02 -0.33725748683E+02  0.26186038943E+02  0.13289908704E+03  0.12499882062E+03 0.  0.
         23    2    1    2    0    0 -0.14639925536E+02  0.33725748683E+02 -0.14160956158E+02  0.99144293562E+02  0.90979694013E+02 0.  0.
          5    1    4    4  502    0 -0.30310964245E+02 -0.53026751571E+01 -0.39135528597E+02  0.50005524854E+02  0.47000000000E+01 0. -1.
         -5    1    3    3    0  503  0.18782441110E+02  0.28971758658E+02 -0.31869175976E+02  0.47221576331E+02  0.47000000000E+01 0. -1.
          5    1    3    3  503    0 -0.41425155737E+01 -0.62697507341E+02  0.58055214919E+02  0.85677510710E+02  0.47000000000E+01 0. -1.
         -5    1    4    4    0  502  0.15671038710E+02  0.39028423840E+02  0.24974572439E+02  0.49138768709E+02  0.47000000000E+01 0.  1.
<mgrwt>
<rscale>  0 0.12137819E+03</rscale>
<asrwt>0</asrwt>
<pdfrwt beam="1">  1        2 0.16924485E-01 0.13029374E+03</pdfrwt>
<pdfrwt beam="2">  1       -2 0.18774497E-01 0.13029374E+03</pdfrwt>
<totfact> 0.74565240E+03</totfact>
</mgrwt>
</event>
<event>
 8    1  0.3572165E-004  0.1329331E+03  0.7546771E-02  0.1236163E+00
          1   -1    0    0  501    0  0.00000000000E+00  0.00000000000E+00  0.12746958030E+03  0.12746958030E+03  0.00000000000E+00 0. -1.
         -1   -1    0    0    0  501 -0.00000000000E+00 -0.00000000000E+00 -0.12303654888E+03  0.12303654888E+03  0.00000000000E+00 0.  1.
         25    2    1    2    0    0 -0.31509518040E+02 -0.32440611565E+02  0.46051510671E+02  0.14068384014E+03  0.12500383288E+03 0.  0.
         23    2    1    2    0    0  0.31509518040E+02  0.32440611565E+02 -0.41618479253E+02  0.10982228904E+03  0.91014253546E+02 0.  0.
          5    1    3    3  502    0 -0.47876038859E+02  0.37416290784E+02  0.18597837696E+02  0.63718627417E+02  0.47000000000E+01 0. -1.
         -5    1    4    4    0  503  0.49035732708E+02 -0.13919078591E+02 -0.27329812823E+02  0.58028032019E+02  0.47000000000E+01 0.  1.
          5    1    4    4  503    0 -0.17526214668E+02  0.46359690155E+02 -0.14288666431E+02  0.51794257020E+02  0.47000000000E+01 0. -1.
         -5    1    3    3    0  502  0.16366520819E+02 -0.69856902349E+02  0.27453672974E+02  0.76965212721E+02  0.47000000000E+01 0. -1.
<mgrwt>
<rscale>  0 0.12430288E+03</rscale>
<asrwt>0</asrwt>
<pdfrwt beam="1">  1        1 0.19610705E-01 0.13293307E+03</pdfrwt>
<pdfrwt beam="2">  1       -1 0.18928700E-01 0.13293307E+03</pdfrwt>
<totfact> 0.55010356E+03</totfact>
</mgrwt>
</event>
<event>
 8    1  0.3572165E-004  0.1583111E+03  0.7546771E-02  0.1198326E+00
         -2   -1    0    0    0  501 -0.00000000000E+00  0.00000000000E+00  0.12585324153E+03  0.12585324153E+03  0.00000000000E+00 0.  1.
          2   -1    0    0  501    0  0.00000000000E+00 -0.00000000000E+00 -0.16937757404E+03  0.16937757404E+03  0.00000000000E+00 0. -1.
         25    2    1    2    0    0 -0.89635016053E+02  0.37447332907E+02 -0.23081629671E+02  0.15998493968E+03  0.12500272177E+03 0.  0.
         23    2    1    2    0    0  0.89635016053E+02 -0.37447332907E+02 -0.20442702841E+02  0.13524587589E+03  0.91852076739E+02 0.  0.
          5    1    3    3  502    0  0.18184737437E+01  0.26727934486E+02  0.39927849084E+02  0.48311618283E+02  0.47000000000E+01 0.  1.
         -5    1    4    4    0  503  0.81588593780E+02 -0.72891891129E+01  0.19502734389E+02  0.84334320188E+02  0.47000000000E+01 0.  1.
          5    1    4    4  503    0  0.80464222725E+01 -0.30158143794E+02 -0.39945437230E+02  0.50911555702E+02  0.47000000000E+01 0. -1.
         -5    1    3    3    0  502 -0.91453489797E+02  0.10719398421E+02 -0.63009478755E+02  0.11167332140E+03  0.47000000000E+01 0.  1.
<mgrwt>
<rscale>  0 0.15176092E+03</rscale>
<asrwt>0</asrwt>
<pdfrwt beam="1">  1        2 0.26058088E-01 0.15831115E+03</pdfrwt>
<pdfrwt beam="2">  1       -2 0.19362037E-01 0.15831115E+03</pdfrwt>
<totfact> 0.44093195E+03</totfact>
</mgrwt>
</event>
<event>
 8    1  0.3572165E-004  0.1491036E+03  0.7546771E-02  0.1210871E+00
         -2   -1    0    0    0  501 -0.00000000000E+00  0.00000000000E+00  0.63213730841E+02  0.63213730841E+02  0.00000000000E+00 0.  1.
          2   -1    0    0  501    0  0.00000000000E+00 -0.00000000000E+00 -0.36163002390E+03  0.36163002390E+03  0.00000000000E+00 0. -1.
         25    2    1    2    0    0 -0.12450106011E+02 -0.80323848954E+02 -0.67592155902E+02  0.16370883385E+03  0.12499982756E+03 0.  0.
         23    2    1    2    0    0  0.12450106011E+02  0.80323848954E+02 -0.23082413716E+03  0.26113492090E+03  0.91130339427E+02 0.  0.
          5    1    4    4  502    0 -0.13718345907E+02 -0.14647488020E+02 -0.65104623630E+02  0.68289413072E+02  0.47000000000E+01 0. -1.
         -5    1    3    3    0  503  0.41536226088E+02 -0.74567552124E+02 -0.67967806025E+02  0.10921213560E+03  0.47000000000E+01 0.  1.
          5    1    3    3  503    0 -0.53986332099E+02 -0.57562968301E+01  0.37565012271E+00  0.54496698246E+02  0.47000000000E+01 0.  1.
         -5    1    4    4    0  502  0.26168451918E+02  0.94971336974E+02 -0.16571951353E+03  0.19284550782E+03  0.47000000000E+01 0.  1.
<mgrwt>
<rscale>  0 0.14184266E+03</rscale>
<asrwt>0</asrwt>
<pdfrwt beam="1">  1        2 0.55635390E-01 0.14910360E+03</pdfrwt>
<pdfrwt beam="2">  1       -2 0.97251891E-02 0.14910360E+03</pdfrwt>
<totfact> 0.59562153E+03</totfact>
</mgrwt>
</event>
<event>
 8    1  0.3572165E-004  0.1498145E+03  0.7546771E-02  0.1209437E+00
          2   -1    0    0  501    0  0.00000000000E+00  0.00000000000E+00  0.10702907875E+04  0.10702907875E+04  0.00000000000E+00 0. -1.
         -2   -1    0    0    0  501 -0.00000000000E+00 -0.00000000000E+00 -0.26967874341E+02  0.26967874341E+02  0.00000000000E+00 0.  1.
         25    2    1    2    0    0 -0.49480583643E+02  0.66111169505E+02  0.22980541601E+03  0.27432630019E+03  0.12500149941E+03 0.  0.
         23    2    1    2    0    0  0.49480583643E+02 -0.66111169505E+02  0.81351749719E+03  0.82293236170E+03  0.92671132504E+02 0.  0.
          5    1    3    3  502    0 -0.51697922387E+02  0.10146250695E+03  0.17939079282E+03  0.21253343748E+03  0.47000000000E+01 0. -1.
         -5    1    3    3    0  502  0.22173387440E+01 -0.35351337450E+02  0.50414623189E+02  0.61792862710E+02  0.47000000000E+01 0. -1.
          5    1    4    4  503    0  0.72894741434E+02 -0.26397798021E+02  0.52641487768E+03  0.53211389807E+03  0.47000000000E+01 0. -1.
         -5    1    4    4    0  503 -0.23414157790E+02 -0.39713371484E+02  0.28710261951E+03  0.29081846363E+03  0.47000000000E+01 0.  1.
<mgrwt>
<rscale>  0 0.14293218E+03</rscale>
<asrwt>0</asrwt>
<pdfrwt beam="1">  1        2 0.16466009E+00 0.14981452E+03</pdfrwt>
<pdfrwt beam="2">  1       -2 0.41489046E-02 0.14981452E+03</pdfrwt>
<totfact> 0.60541518E+03</totfact>
</mgrwt>
</event>
<event>
 8    1  0.3572165E-004  0.1536106E+03  0.7546771E-02  0.1203857E+00
         -2   -1    0    0    0  501 -0.00000000000E+00  0.00000000000E+00  0.79938017426E+02  0.79938017426E+02  0.00000000000E+00 0.  1.
          2   -1    0    0  501    0  0.00000000000E+00 -0.00000000000E+00 -0.25165969146E+03  0.25165969146E+03  0.00000000000E+00 0. -1.
         25    2    1    2    0    0  0.88658172095E+02 -0.10564997196E+02 -0.10002021343E+03  0.18330376644E+03  0.12499734817E+03 0.  0.
         23    2    1    2    0    0 -0.88658172095E+02  0.10564997196E+02 -0.71701460599E+02  0.14829394245E+03  0.94223687414E+02 0.  0.
          5    1    3    3  502    0  0.17985380733E+02 -0.43529392829E+02 -0.93635779054E+02  0.10491916450E+03  0.47000000000E+01 0.  1.
         -5    1    3    3    0  502  0.70672791362E+02  0.32964395634E+02 -0.63844343796E+01  0.78384601936E+02  0.47000000000E+01 0.  1.
          5    1    4    4  503    0 -0.58536039425E+02  0.51235989522E+02 -0.52458602232E+02  0.93944608584E+02  0.47000000000E+01 0. -1.
         -5    1    4    4    0  503 -0.30122132671E+02 -0.40670992326E+02 -0.19242858367E+02  0.54349333865E+02  0.47000000000E+01 0.  1.
<mgrwt>
<rscale>  0 0.14727904E+03</rscale>
<asrwt>0</asrwt>
<pdfrwt beam="1">  1        2 0.38716875E-01 0.15361064E+03</pdfrwt>
<pdfrwt beam="2">  1       -2 0.12298157E-01 0.15361064E+03</pdfrwt>
<totfact> 0.60470098E+03</totfact>
</mgrwt>
</event>
<event>
 8    1  0.3572165E-004  0.1577849E+03  0.7546771E-02  0.1201543E+00
         -2   -1    0    0    0  501 -0.00000000000E+00  0.00000000000E+00  0.25182075089E+02  0.25182075089E+02  0.00000000000E+00 0.  1.
          2   -1    0    0  501    0  0.00000000000E+00 -0.00000000000E+00 -0.86361317480E+03  0.86361317480E+03  0.00000000000E+00 0. -1.
         25    2    1    2    0    0 -0.93304816749E+02  0.23768250889E+02 -0.34199336812E+03  0.37663713844E+03  0.12500140652E+03 0.  0.
         23    2    1    2    0    0  0.93304816749E+02 -0.23768250889E+02 -0.49643773159E+03  0.51215811146E+03  0.81146726380E+02 0.  0.
          5    1    3    3  502    0 -0.90255770570E+02 -0.28852897492E+02 -0.27716648675E+03  0.29295382774E+03  0.47000000000E+01 0. -1.
         -5    1    3    3    0  502 -0.30490461790E+01  0.52621148381E+02 -0.64826881375E+02  0.83683310692E+02  0.47000000000E+01 0. -1.
          5    1    4    4  503    0  0.90427111979E+02  0.78695019423E+01 -0.31296179937E+03  0.32589288042E+03  0.47000000000E+01 0. -1.
         -5    1    4    4    0  503  0.28777047704E+01 -0.31637752831E+02 -0.18347593222E+03  0.18626523104E+03  0.47000000000E+01 0.  1.
<mgrwt>
<rscale>  0 0.14913225E+03</rscale>
<asrwt>0</asrwt>
<pdfrwt beam="1">  1        2 0.13286353E+00 0.15778489E+03</pdfrwt>
<pdfrwt beam="2">  1       -2 0.38741663E-02 0.15778489E+03</pdfrwt>
<totfact> 0.89945333E+03</totfact>
</mgrwt>
</event>
<event>
 8    1  0.3572165E-004  0.1532172E+03  0.7546771E-02  0.1205217E+00
         -2   -1    0    0    0  501 -0.00000000000E+00  0.00000000000E+00  0.35796503718E+02  0.35796503718E+02  0.00000000000E+00 0.  1.
          2   -1    0    0  501    0  0.00000000000E+00 -0.00000000000E+00 -0.71904176877E+03  0.71904176877E+03  0.00000000000E+00 0. -1.
         25    2    1    2    0    0  0.81832796686E+02  0.33956073383E+02 -0.54916339951E+03  0.57013677118E+03  0.12500350775E+03 0.  0.
         23    2    1    2    0    0 -0.81832796686E+02 -0.33956073383E+02 -0.13408186554E+03  0.18470150131E+03  0.91033380621E+02 0.  0.
          5    1    4    4  502    0 -0.39368950267E+02 -0.20275427865E+02 -0.13253319441E+03  0.13981468034E+03  0.47000000000E+01 0. -1.
         -5    1    4    4    0  502 -0.42463846420E+02 -0.13680645518E+02 -0.15486711371E+01  0.44886820970E+02  0.47000000000E+01 0.  1.
          5    1    3    3  503    0 -0.59523451430E+01 -0.38339904518E+02 -0.12499121655E+03  0.13095905049E+03  0.47000000000E+01 0.  1.
         -5    1    3    3    0  503  0.87785141829E+02  0.72295977901E+02 -0.42417218296E+03  0.43917772069E+03  0.47000000000E+01 0.  1.
<mgrwt>
<rscale>  0 0.14620337E+03</rscale>
<asrwt>0</asrwt>
<pdfrwt beam="1">  1        2 0.11062181E+00 0.15321716E+03</pdfrwt>
<pdfrwt beam="2">  1       -2 0.55071546E-02 0.15321716E+03</pdfrwt>
<totfact> 0.66539570E+03</totfact>
</mgrwt>
</event>
<event>
 8    1  0.3572165E-004  0.2076765E+03  0.7546771E-02  0.1147540E+00
         -1   -1    0    0    0  501 -0.00000000000E+00  0.00000000000E+00  0.11341044388E+03  0.11341044388E+03  0.00000000000E+00 0.  1.
          1   -1    0    0  501    0  0.00000000000E+00 -0.00000000000E+00 -0.61907683050E+03  0.61907683050E+03  0.00000000000E+00 0. -1.
         25    2    1    2    0    0  0.12686880647E+03  0.10681214859E+03 -0.16462743731E+02  0.20832803066E+03  0.12500006914E+03 0.  0.
         23    2    1    2    0    0 -0.12686880647E+03 -0.10681214859E+03 -0.48920364289E+03  0.52415924373E+03  0.88984152670E+02 0.  0.
          5    1    3    3  502    0  0.74601273224E+01  0.18802268910E+02  0.43544668099E+02  0.48243206109E+02  0.47000000000E+01 0. -1.
         -5    1    4    4    0  503 -0.30464035136E+02 -0.77853929072E+02 -0.17136124538E+03  0.19072508521E+03  0.47000000000E+01 0.  1.
          5    1    4    4  503    0 -0.96404771337E+02 -0.28958219518E+02 -0.31784239751E+03  0.33343415852E+03  0.47000000000E+01 0. -1.
         -5    1    3    3    0  502  0.11940867915E+03  0.88009879681E+02 -0.60007411830E+02  0.16008482455E+03  0.47000000000E+01 0. -1.
<mgrwt>
<rscale>  0 0.20262863E+03</rscale>
<asrwt>0</asrwt>
<pdfrwt beam="1">  1        1 0.95242589E-01 0.20767654E+03</pdfrwt>
<pdfrwt beam="2">  1       -1 0.17447761E-01 0.20767654E+03</pdfrwt>
<totfact> 0.85080221E+02</totfact>
</mgrwt>
</event>
<event>
 8    1  0.3572165E-004  0.1478934E+03  0.7546771E-02  0.1214488E+00
          2   -1    0    0  501    0  0.00000000000E+00  0.00000000000E+00  0.38723233275E+03  0.38723233275E+03  0.00000000000E+00 0. -1.
         -2   -1    0    0    0  501 -0.00000000000E+00 -0.00000000000E+00 -0.71703700265E+02  0.71703700265E+02  0.00000000000E+00 0.  1.
         25    2    1    2    0    0 -0.73748959404E+01  0.78694837535E+02  0.30157316680E+02  0.15093683220E+03  0.12500078808E+03 0.  0.
         23    2    1    2    0    0  0.73748959404E+01 -0.78694837535E+02  0.28537131581E+03  0.30799920082E+03  0.84731654500E+02 0.  0.
          5    1    4    4  502    0 -0.35283577899E+02 -0.29417126533E+02  0.78745534356E+02  0.91286622151E+02  0.47000000000E+01 0. -1.
         -5    1    4    4    0  502  0.42658473840E+02 -0.49277711002E+02  0.20662578145E+03  0.21671257867E+03  0.47000000000E+01 0.  1.
          5    1    3    3  503    0  0.40802219225E+02  0.45750428222E+01  0.45086500368E+02  0.61160727807E+02  0.47000000000E+01 0.  1.
         -5    1    3    3    0  503 -0.48177115166E+02  0.74119794713E+02 -0.14929183688E+02  0.89776104391E+02  0.47000000000E+01 0.  1.
<mgrwt>
<rscale>  0 0.13914188E+03</rscale>
<asrwt>0</asrwt>
<pdfrwt beam="1">  1        2 0.59574204E-01 0.14789342E+03</pdfrwt>
<pdfrwt beam="2">  1       -2 0.11031339E-01 0.14789342E+03</pdfrwt>
<totfact> 0.45353297E+03</totfact>
</mgrwt>
</event>
<event>
 8    1  0.3572165E-004  0.1324460E+03  0.7546771E-02  0.1237988E+00
         -1   -1    0    0    0  501 -0.00000000000E+00  0.00000000000E+00  0.53003887163E+03  0.53003887163E+03  0.00000000000E+00 0.  1.
          1   -1    0    0  501    0  0.00000000000E+00 -0.00000000000E+00 -0.26211584996E+02  0.26211584996E+02  0.00000000000E+00 0. -1.
         25    2    1    2    0    0 -0.27027501804E+02 -0.34454121331E+02  0.23470001615E+03  0.26949220196E+03  0.12499750800E+03 0.  0.
         23    2    1    2    0    0  0.27027501804E+02  0.34454121331E+02  0.26912727049E+03  0.28675825467E+03  0.88787592427E+02 0.  0.
          5    1    4    4  502    0  0.47483679315E+02 -0.61761282994E+01  0.18327880764E+03  0.18948893290E+03  0.47000000000E+01 0.  1.
         -5    1    4    4    0  502 -0.20456177511E+02  0.40630249630E+02  0.85848462844E+02  0.97269321762E+02  0.47000000000E+01 0. -1.
          5    1    3    3  503    0  0.10809435154E+02 -0.21635485676E+02 -0.60785820821E+01  0.25376707605E+02  0.47000000000E+01 0.  1.
         -5    1    3    3    0  503 -0.37836936957E+02 -0.12818635655E+02  0.24077859823E+03  0.24411549435E+03  0.47000000000E+01 0.  1.
<mgrwt>
<rscale>  0 0.12315071E+03</rscale>
<asrwt>0</asrwt>
<pdfrwt beam="1">  1        1 0.40325519E-02 0.13244602E+03</pdfrwt>
<pdfrwt beam="2">  1       -1 0.81544434E-01 0.13244602E+03</pdfrwt>
<totfact> 0.33831557E+03</totfact>
</mgrwt>
</event>
<event>
 8    1  0.3572165E-004  0.1506423E+03  0.7546771E-02  0.1208867E+00
          2   -1    0    0  501    0  0.00000000000E+00  0.00000000000E+00  0.40992467312E+03  0.40992467312E+03  0.00000000000E+00 0. -1.
         -2   -1    0    0    0  501 -0.00000000000E+00 -0.00000000000E+00 -0.87537373794E+02  0.87537373794E+02  0.00000000000E+00 0.  1.
         25    2    1    2    0    0  0.15227523776E+01  0.84061348827E+02 -0.16556126856E+01  0.15065140271E+03  0.12499789976E+03 0.  0.
         23    2    1    2    0    0 -0.15227523776E+01 -0.84061348827E+02  0.32404291201E+03  0.34681064420E+03  0.90582476054E+02 0.  0.
          5    1    4    4  502    0 -0.29832449969E+02 -0.36039723216E+02  0.24793445650E+03  0.25235376248E+03  0.47000000000E+01 0. -1.
         -5    1    3    3    0  503 -0.31155343728E+02 -0.22630361799E+02 -0.35275393229E+01  0.38952820843E+02  0.47000000000E+01 0.  1.
          5    1    3    3  503    0  0.32678096106E+02  0.10669171063E+03  0.18719266373E+01  0.11169858187E+03  0.47000000000E+01 0.  1.
         -5    1    4    4    0  502  0.28309697591E+02 -0.48021625611E+02  0.76108455512E+02  0.94456881720E+02  0.47000000000E+01 0.  1.
<mgrwt>
<rscale>  0 0.14336847E+03</rscale>
<asrwt>0</asrwt>
<pdfrwt beam="1">  1        2 0.63065333E-01 0.15064231E+03</pdfrwt>
<pdfrwt beam="2">  1       -2 0.13467288E-01 0.15064231E+03</pdfrwt>
<totfact> 0.31014286E+03</totfact>
</mgrwt>
</event>
<event>
 8    1  0.3572165E-004  0.2221458E+03  0.7546771E-02  0.1135574E+00
          3   -1    0    0  501    0  0.00000000000E+00  0.00000000000E+00  0.31572701856E+03  0.31572701856E+03  0.00000000000E+00 0. -1.
         -3   -1    0    0    0  501 -0.00000000000E+00 -0.00000000000E+00 -0.14579934783E+03  0.14579934783E+03  0.00000000000E+00 0.  1.
         25    2    1    2    0    0 -0.10299186917E+03  0.15204393083E+03  0.66706159991E+02  0.23194493977E+03  0.12499624510E+03 0.  0.
         23    2    1    2    0    0  0.10299186917E+03 -0.15204393083E+03  0.10322151074E+03  0.22958142661E+03  0.91259351020E+02 0.  0.
          5    1    3    3  502    0 -0.12109086670E+03  0.76686616934E+02  0.54162728477E+02  0.15329555235E+03  0.47000000000E+01 0. -1.
         -5    1    4    4    0  503  0.67068715342E+02 -0.23101851461E+02  0.33598461252E+02  0.78631130712E+02  0.47000000000E+01 0.  1.
          5    1    4    4  503    0  0.35923153832E+02 -0.12894207936E+03  0.69623049490E+02  0.15095029590E+03  0.47000000000E+01 0. -1.
         -5    1    3    3    0  502  0.18098997523E+02  0.75357313891E+02  0.12543431514E+02  0.78649387425E+02  0.47000000000E+01 0. -1.
<mgrwt>
<rscale>  0 0.21774746E+03</rscale>
<asrwt>0</asrwt>
<pdfrwt beam="1">  1        3 0.48573387E-01 0.22214577E+03</pdfrwt>
<pdfrwt beam="2">  1       -3 0.22430669E-01 0.22214577E+03</pdfrwt>
<totfact> 0.19112124E+02</totfact>
</mgrwt>
</event>
<event>
 8    1  0.3572165E-004  0.1667430E+03  0.7546771E-02  0.1186164E+00
          3   -1    0    0  501    0  0.00000000000E+00  0.00000000000E+00  0.22555553715E+03  0.22555553715E+03  0.00000000000E+00 0. -1.
         -3   -1    0    0    0  501 -0.00000000000E+00 -0.00000000000E+00 -0.12696568270E+03  0.12696568270E+03  0.00000000000E+00 0.  1.
         25    2    1    2    0    0 -0.63849345223E+02  0.90008073845E+02 -0.11033291718E+02  0.16710767730E+03  0.12500020017E+03 0.  0.
         23    2    1    2    0    0  0.63849345223E+02 -0.90008073845E+02  0.10962314617E+03  0.18541354256E+03  0.10090963950E+03 0.  0.
          5    1    4    4  502    0  0.40083164698E+02 -0.40766292794E+02  0.11674265460E+03  0.13007493272E+03  0.47000000000E+01 0. -1.
         -5    1    3    3    0  503 -0.45387563804E+02  0.11951885695E+03  0.59921246925E+01  0.12807335270E+03  0.47000000000E+01 0.  1.
          5    1    3    3  503    0 -0.18461781419E+02 -0.29510783105E+02 -0.17025416410E+02  0.39034324595E+02  0.47000000000E+01 0.  1.
         -5    1    4    4    0  502  0.23766180526E+02 -0.49241781051E+02 -0.71195084280E+01  0.55338609832E+02  0.47000000000E+01 0.  1.
<mgrwt>
<rscale>  0 0.16226396E+03</rscale>
<asrwt>0</asrwt>
<pdfrwt beam="1">  1        3 0.34700852E-01 0.16674304E+03</pdfrwt>
<pdfrwt beam="2">  1       -3 0.19533182E-01 0.16674304E+03</pdfrwt>
<totfact> 0.45593824E+02</totfact>
</mgrwt>
</event>
<event>
 8    1  0.3572165E-004  0.1479788E+03  0.7546771E-02  0.1212537E+00
          2   -1    0    0  501    0  0.00000000000E+00  0.00000000000E+00  0.50292568607E+03  0.50292568607E+03  0.00000000000E+00 0. -1.
         -2   -1    0    0    0  501 -0.00000000000E+00 -0.00000000000E+00 -0.57916100925E+02  0.57916100925E+02  0.00000000000E+00 0.  1.
         25    2    1    2    0    0 -0.79027837739E+02 -0.53785595865E+01  0.64024987962E+02  0.16123564932E+03  0.12499362979E+03 0.  0.
         23    2    1    2    0    0  0.79027837739E+02  0.53785595865E+01  0.38098459718E+03  0.39960613767E+03  0.90892650603E+02 0.  0.
          5    1    4    4  502    0  0.56193188071E+02  0.31895327999E+02  0.33716051097E+03  0.34332824890E+03  0.47000000000E+01 0. -1.
         -5    1    3    3    0  503 -0.20052132795E+02  0.41989539886E+02 -0.17489417812E+02  0.49931745662E+02  0.47000000000E+01 0. -1.
          5    1    3    3  503    0 -0.58975704944E+02 -0.47368099472E+02  0.81514405775E+02  0.11130390366E+03  0.47000000000E+01 0. -1.
         -5    1    4    4    0  502  0.22834649668E+02 -0.26516768413E+02  0.43824086214E+02  0.56277888775E+02  0.47000000000E+01 0.  1.
<mgrwt>
<rscale>  0 0.14059005E+03</rscale>
<asrwt>0</asrwt>
<pdfrwt beam="1">  1        2 0.77373180E-01 0.14797883E+03</pdfrwt>
<pdfrwt beam="2">  1       -2 0.89101697E-02 0.14797883E+03</pdfrwt>
<totfact> 0.47810449E+03</totfact>
</mgrwt>
</event>
<event>
 8    1  0.3572165E-004  0.1619315E+03  0.7546771E-02  0.1193886E+00
          2   -1    0    0  501    0  0.00000000000E+00  0.00000000000E+00  0.12238117834E+02  0.12238117834E+02  0.00000000000E+00 0. -1.
         -2   -1    0    0    0  501 -0.00000000000E+00 -0.00000000000E+00 -0.19040945468E+04  0.19040945468E+04  0.00000000000E+00 0.  1.
         25    2    1    2    0    0 -0.77084787864E+02  0.68200573545E+02 -0.12036222491E+04  0.12144662713E+04  0.12501369034E+03 0.  0.
         23    2    1    2    0    0  0.77084787864E+02 -0.68200573545E+02 -0.68823417981E+03  0.70186639330E+03  0.91415343596E+02 0.  0.
          5    1    4    4  502    0 -0.60014608702E+01 -0.47709254757E+02 -0.33027872733E+03  0.33379382596E+03  0.47000000000E+01 0. -1.
         -5    1    4    4    0  502  0.83086248734E+02 -0.20491318788E+02 -0.35795545248E+03  0.36807256735E+03  0.47000000000E+01 0.  1.
          5    1    3    3  503    0 -0.66764203227E+02 -0.22301298913E+02 -0.49713048235E+03  0.50211115626E+03  0.47000000000E+01 0. -1.
         -5    1    3    3    0  503 -0.10320584637E+02  0.90501872458E+02 -0.70649176678E+03  0.71235511503E+03  0.47000000000E+01 0. -1.
<mgrwt>
<rscale>  0 0.15548913E+03</rscale>
<asrwt>0</asrwt>
<pdfrwt beam="1">  1        2 0.18827862E-02 0.16193148E+03</pdfrwt>
<pdfrwt beam="2">  1       -2 0.29293780E+00 0.16193148E+03</pdfrwt>
<totfact> 0.23913767E+02</totfact>
</mgrwt>
</event>
<event>
 8    1  0.3572165E-004  0.1572248E+03  0.7546771E-02  0.1201057E+00
          2   -1    0    0  501    0  0.00000000000E+00  0.00000000000E+00  0.47318147160E+03  0.47318147160E+03  0.00000000000E+00 0. -1.
         -2   -1    0    0    0  501 -0.00000000000E+00 -0.00000000000E+00 -0.43904271056E+02  0.43904271056E+02  0.00000000000E+00 0.  1.
         25    2    1    2    0    0 -0.65832996106E+02 -0.68998476590E+02  0.20245334272E+03  0.25633373413E+03  0.12499941650E+03 0.  0.
         23    2    1    2    0    0  0.65832996106E+02  0.68998476590E+02  0.22682385782E+03  0.26075200852E+03  0.86300488558E+02 0.  0.
          5    1    4    4  502    0  0.21016459511E+02 -0.19519395772E+02  0.58016909075E+02  0.64890292959E+02  0.47000000000E+01 0. -1.
         -5    1    4    4    0  502  0.44816536596E+02  0.88517872362E+02  0.16880694874E+03  0.19586171556E+03  0.47000000000E+01 0.  1.
          5    1    3    3  503    0 -0.84776319814E+02 -0.33969645511E+02  0.19523255724E+03  0.21558943069E+03  0.47000000000E+01 0.  1.
         -5    1    3    3    0  503  0.18943323708E+02 -0.35028831080E+02  0.72207854806E+01  0.40744303441E+02  0.47000000000E+01 0.  1.
<mgrwt>
<rscale>  0 0.14952576E+03</rscale>
<asrwt>0</asrwt>
<pdfrwt beam="1">  1        2 0.72797146E-01 0.15722477E+03</pdfrwt>
<pdfrwt beam="2">  1       -2 0.67545036E-02 0.15722477E+03</pdfrwt>
<totfact> 0.78703210E+03</totfact>
</mgrwt>
</event>
<event>
 8    1  0.3572165E-004  0.1255754E+03  0.7546771E-02  0.1249232E+00
          1   -1    0    0  501    0  0.00000000000E+00  0.00000000000E+00  0.64282642627E+03  0.64282642627E+03  0.00000000000E+00 0. -1.
         -1   -1    0    0    0  501 -0.00000000000E+00 -0.00000000000E+00 -0.18646360121E+02  0.18646360121E+02  0.00000000000E+00 0.  1.
         25    2    1    2    0    0 -0.14938462991E+01 -0.11918009298E+02  0.33062041834E+03  0.35366515449E+03  0.12499963983E+03 0.  0.
         23    2    1    2    0    0  0.14938462991E+01  0.11918009298E+02  0.29355964780E+03  0.30780763189E+03  0.91782356203E+02 0.  0.
          5    1    4    4  502    0 -0.34675468278E+02 -0.14901649547E+02  0.69560564108E+02  0.79279312172E+02  0.47000000000E+01 0. -1.
         -5    1    4    4    0  502  0.36169314577E+02  0.26819658845E+02  0.22399908370E+03  0.22852831972E+03  0.47000000000E+01 0.  1.
          5    1    3    3  503    0 -0.27687210548E+02 -0.62416956478E+02  0.18522517759E+03  0.19746623634E+03  0.47000000000E+01 0.  1.
         -5    1    3    3    0  503  0.26193364249E+02  0.50498947180E+02  0.14539524075E+03  0.15619891815E+03  0.47000000000E+01 0.  1.
<mgrwt>
<rscale>  0 0.11635635E+03</rscale>
<asrwt>0</asrwt>
<pdfrwt beam="1">  1        1 0.98896356E-01 0.12557540E+03</pdfrwt>
<pdfrwt beam="2">  1       -1 0.28686713E-02 0.12557540E+03</pdfrwt>
<totfact> 0.12185847E+04</totfact>
</mgrwt>
</event>
<event>
 8    1  0.3572165E-004  0.1776455E+03  0.7546771E-02  0.1176174E+00
          2   -1    0    0  501    0  0.00000000000E+00  0.00000000000E+00  0.35278638154E+03  0.35278638154E+03  0.00000000000E+00 0. -1.
         -2   -1    0    0    0  501 -0.00000000000E+00 -0.00000000000E+00 -0.83854330326E+02  0.83854330326E+02  0.00000000000E+00 0.  1.
         25    2    1    2    0    0 -0.12107509766E+03 -0.35714394190E+02  0.19926802798E+03  0.26695632953E+03  0.12499295050E+03 0.  0.
         23    2    1    2    0    0  0.12107509766E+03  0.35714394190E+02  0.69664023234E+02  0.16968438233E+03  0.89470756384E+02 0.  0.
          5    1    3    3  502    0 -0.69148517056E+00  0.32327880743E+02  0.71554074720E+02  0.78661589319E+02  0.47000000000E+01 0. -1.
         -5    1    4    4    0  503  0.93274777136E+02  0.35945046290E+01  0.68550485582E+01  0.93713319246E+02  0.47000000000E+01 0.  1.
          5    1    4    4  503    0  0.27800320528E+02  0.32119889561E+02  0.62808974676E+02  0.75971063088E+02  0.47000000000E+01 0. -1.
         -5    1    3    3    0  502 -0.12038361249E+03 -0.68042274933E+02  0.12771395326E+03  0.18829474022E+03  0.47000000000E+01 0. -1.
<mgrwt>
<rscale>  0 0.17161513E+03</rscale>
<asrwt>0</asrwt>
<pdfrwt beam="1">  1        2 0.54274827E-01 0.17764553E+03</pdfrwt>
<pdfrwt beam="2">  1       -2 0.12900666E-01 0.17764553E+03</pdfrwt>
<totfact> 0.39334613E+03</totfact>
</mgrwt>
</event>
<event>
 8    1  0.3572165E-004  0.1848873E+03  0.7546771E-02  0.1168555E+00
          1   -1    0    0  501    0  0.00000000000E+00  0.00000000000E+00  0.80057213418E+02  0.80057213418E+02  0.00000000000E+00 0. -1.
         -1   -1    0    0    0  501 -0.00000000000E+00 -0.00000000000E+00 -0.39061272260E+03  0.39061272260E+03  0.00000000000E+00 0.  1.
         25    2    1    2    0    0  0.98577787996E+02  0.94019687769E+02 -0.12325407681E+03  0.22220457533E+03  0.12500409543E+03 0.  0.
         23    2    1    2    0    0 -0.98577787996E+02 -0.94019687769E+02 -0.18730143238E+03  0.24846536069E+03  0.89977368921E+02 0.  0.
          5    1    4    4  502    0 -0.84560175285E+02 -0.56376507514E+02 -0.67684596768E+02  0.12219667951E+03  0.47000000000E+01 0. -1.
         -5    1    4    4    0  502 -0.14017612711E+02 -0.37643180256E+02 -0.11961683561E+03  0.12626868118E+03  0.47000000000E+01 0.  1.
          5    1    3    3  503    0 -0.24332908551E+02 -0.14382616255E+01 -0.20794754744E+01  0.24911307740E+02  0.47000000000E+01 0. -1.
         -5    1    3    3    0  503  0.12291069655E+03  0.95457949395E+02 -0.12117460133E+03  0.19729326759E+03  0.47000000000E+01 0. -1.
<mgrwt>
<rscale>  0 0.17922515E+03</rscale>
<asrwt>0</asrwt>
<pdfrwt beam="1">  1        1 0.12316494E-01 0.18488728E+03</pdfrwt>
<pdfrwt beam="2">  1       -1 0.60094266E-01 0.18488728E+03</pdfrwt>
<totfact> 0.13888322E+03</totfact>
</mgrwt>
</event>
<event>
 8    1  0.3572165E-004  0.1445511E+03  0.7546771E-02  0.1217778E+00
          1   -1    0    0  501    0  0.00000000000E+00  0.00000000000E+00  0.98971615352E+03  0.98971615352E+03  0.00000000000E+00 0. -1.
         -1   -1    0    0    0  501 -0.00000000000E+00 -0.00000000000E+00 -0.17238917029E+02  0.17238917029E+02  0.00000000000E+00 0.  1.
         25    2    1    2    0    0  0.69063036240E+02  0.22391411020E+02  0.58169433261E+03  0.59938577428E+03  0.12499572615E+03 0.  0.
         23    2    1    2    0    0 -0.69063036240E+02 -0.22391411020E+02  0.39078290388E+03  0.40756929627E+03  0.90168592281E+02 0.  0.
          5    1    3    3  502    0  0.62669777592E+01  0.41299755759E+02  0.58280659757E+02  0.71858681714E+02  0.47000000000E+01 0.  1.
         -5    1    3    3    0  502  0.62796058481E+02 -0.18908344739E+02  0.52341367285E+03  0.52752709257E+03  0.47000000000E+01 0.  1.
          5    1    4    4  503    0  0.21429416249E+02 -0.57236117312E+01  0.10003888864E+03  0.10257606374E+03  0.47000000000E+01 0. -1.
         -5    1    4    4    0  503 -0.90492452489E+02 -0.16667799289E+02  0.29074401524E+03  0.30499323253E+03  0.47000000000E+01 0.  1.
<mgrwt>
<rscale>  0 0.13674453E+03</rscale>
<asrwt>0</asrwt>
<pdfrwt beam="1">  1        1 0.15226398E+00 0.14455106E+03</pdfrwt>
<pdfrwt beam="2">  1       -1 0.26521418E-02 0.14455106E+03</pdfrwt>
<totfact> 0.71685757E+03</totfact>
</mgrwt>
</event>
<event>
 8    1  0.3572165E-004  0.1717322E+03  0.7546771E-02  0.1182393E+00
          3   -1    0    0  501    0  0.00000000000E+00  0.00000000000E+00  0.18054401886E+03  0.18054401886E+03  0.00000000000E+00 0. -1.
         -3   -1    0    0    0  501 -0.00000000000E+00 -0.00000000000E+00 -0.14394937456E+03  0.14394937456E+03  0.00000000000E+00 0.  1.
         25    2    1    2    0    0 -0.65731300183E+02  0.97704165693E+02  0.36644389835E+02  0.17559833262E+03  0.12500102117E+03 0.  0.
         23    2    1    2    0    0  0.65731300183E+02 -0.97704165693E+02 -0.49745535424E-01  0.14889506080E+03  0.91120957185E+02 0.  0.
          5    1    3    3  502    0 -0.82031435522E+02  0.11175324003E+02  0.10231742526E+02  0.83551318574E+02  0.47000000000E+01 0.  1.
         -5    1    3    3    0  502  0.16300135339E+02  0.86528841690E+02  0.26412647309E+02  0.92047014043E+02  0.47000000000E+01 0.  1.
          5    1    4    4  503    0  0.19175777765E+02 -0.62093118233E+02  0.41180148978E+02  0.77078923543E+02  0.47000000000E+01 0. -1.
         -5    1    4    4    0  503  0.46555522418E+02 -0.35611047461E+02 -0.41229894513E+02  0.71816137256E+02  0.47000000000E+01 0.  1.
<mgrwt>
<rscale>  0 0.16571390E+03</rscale>
<asrwt>0</asrwt>
<pdfrwt beam="1">  1        3 0.27776003E-01 0.17173224E+03</pdfrwt>
<pdfrwt beam="2">  1       -3 0.22146058E-01 0.17173224E+03</pdfrwt>
<totfact> 0.55475215E+02</totfact>
</mgrwt>
</event>
<event>
 8    1  0.3572165E-004  0.1824936E+03  0.7546771E-02  0.1171380E+00
          2   -1    0    0  501    0  0.00000000000E+00  0.00000000000E+00  0.41120623938E+03  0.41120623938E+03  0.00000000000E+00 0. -1.
         -2   -1    0    0    0  501 -0.00000000000E+00 -0.00000000000E+00 -0.71059116561E+02  0.71059116561E+02  0.00000000000E+00 0.  1.
         25    2    1    2    0    0  0.71112011861E+02 -0.11234726890E+03  0.17267420446E+03  0.25123752873E+03  0.12500035158E+03 0.  0.
         23    2    1    2    0    0 -0.71112011861E+02  0.11234726890E+03  0.16747291836E+03  0.23102782721E+03  0.87451995416E+02 0.  0.
          5    1    3    3  502    0  0.63397547353E+02 -0.17678618578E+02  0.13246164052E+03  0.14798634658E+03  0.47000000000E+01 0.  1.
         -5    1    4    4    0  503 -0.32262382155E+02  0.72097723995E+02  0.15423934068E+03  0.17335168681E+03  0.47000000000E+01 0.  1.
          5    1    4    4  503    0 -0.38849629706E+02  0.40249544906E+02  0.13233577683E+02  0.57676140402E+02  0.47000000000E+01 0. -1.
         -5    1    3    3    0  502  0.77144645083E+01 -0.94668650323E+02  0.40212563941E+02  0.10325118215E+03  0.47000000000E+01 0.  1.
<mgrwt>
<rscale>  0 0.17635307E+03</rscale>
<asrwt>0</asrwt>
<pdfrwt beam="1">  1        2 0.63262497E-01 0.18249360E+03</pdfrwt>
<pdfrwt beam="2">  1       -2 0.10932172E-01 0.18249360E+03</pdfrwt>
<totfact> 0.43564930E+03</totfact>
</mgrwt>
</event>
<event>
 8    1  0.3572165E-004  0.1736257E+03  0.7546771E-02  0.1180244E+00
         -3   -1    0    0    0  501 -0.00000000000E+00  0.00000000000E+00  0.26698145224E+02  0.26698145224E+02  0.00000000000E+00 0. -1.
          3   -1    0    0  501    0  0.00000000000E+00 -0.00000000000E+00 -0.10911774336E+04  0.10911774336E+04  0.00000000000E+00 0.  1.
         25    2    1    2    0    0 -0.11999846826E+03  0.11023820717E+02 -0.73706461601E+03  0.75723848642E+03  0.12499888058E+03 0.  0.
         23    2    1    2    0    0  0.11999846826E+03 -0.11023820717E+02 -0.32741467233E+03  0.36063709236E+03  0.91310392187E+02 0.  0.
          5    1    4    4  502    0  0.10697249127E+03  0.11421160925E+02 -0.17147441555E+03  0.20248239922E+03  0.47000000000E+01 0. -1.
         -5    1    4    4    0  502  0.13025976987E+02 -0.22444981642E+02 -0.15594025678E+03  0.15815469314E+03  0.47000000000E+01 0.  1.
          5    1    3    3  503    0 -0.91783455109E+02 -0.33881191087E+02 -0.27129507591E+03  0.28843586108E+03  0.47000000000E+01 0.  1.
         -5    1    3    3    0  503 -0.28215013151E+02  0.44905011805E+02 -0.46576954010E+03  0.46880262535E+03  0.47000000000E+01 0.  1.
<mgrwt>
<rscale>  0 0.16772277E+03</rscale>
<asrwt>0</asrwt>
<pdfrwt beam="1">  1        3 0.16787347E+00 0.17362568E+03</pdfrwt>
<pdfrwt beam="2">  1       -3 0.41074065E-02 0.17362568E+03</pdfrwt>
<totfact> 0.19351208E+02</totfact>
</mgrwt>
</event>
<event>
 8    1  0.3572165E-004  0.1297600E+03  0.7546771E-02  0.1242764E+00
          1   -1    0    0  501    0  0.00000000000E+00  0.00000000000E+00  0.33709369241E+03  0.33709369241E+03  0.00000000000E+00 0. -1.
         -1   -1    0    0    0  501 -0.00000000000E+00 -0.00000000000E+00 -0.39867135541E+02  0.39867135541E+02  0.00000000000E+00 0.  1.
         25    2    1    2    0    0 -0.33581483936E+02  0.91715855547E+01  0.12594386249E+03  0.18083003851E+03  0.12500324909E+03 0.  0.
         23    2    1    2    0    0  0.33581483936E+02 -0.91715855547E+01  0.17128269438E+03  0.19613078945E+03  0.88981408898E+02 0.  0.
          5    1    3    3  502    0  0.36866760141E+02 -0.24478877266E+02  0.19124878922E+02  0.48437840882E+02  0.47000000000E+01 0. -1.
         -5    1    3    3    0  502 -0.70448244078E+02  0.33650462820E+02  0.10681898357E+03  0.13239219763E+03  0.47000000000E+01 0. -1.
          5    1    4    4  503    0  0.28664723417E+01 -0.27140366904E+02  0.15367570650E+03  0.15615098126E+03  0.47000000000E+01 0. -1.
         -5    1    4    4    0  503  0.30715011595E+02  0.17968781349E+02  0.17606987877E+02  0.39979808185E+02  0.47000000000E+01 0.  1.
<mgrwt>
<rscale>  0 0.12020196E+03</rscale>
<asrwt>0</asrwt>
<pdfrwt beam="1">  1        1 0.51860566E-01 0.12975996E+03</pdfrwt>
<pdfrwt beam="2">  1       -1 0.61334057E-02 0.12975996E+03</pdfrwt>
<totfact> 0.92254654E+03</totfact>
</mgrwt>
</event>
<event>
 8    1  0.3572165E-004  0.1341042E+03  0.7546771E-02  0.1236998E+00
         -2   -1    0    0    0  501 -0.00000000000E+00  0.00000000000E+00  0.10970442495E+02  0.10970442495E+02  0.00000000000E+00 0. -1.
          2   -1    0    0  501    0  0.00000000000E+00 -0.00000000000E+00 -0.12236263091E+04  0.12236263091E+04  0.00000000000E+00 0.  1.
         25    2    1    2    0    0  0.43003738634E+02 -0.22571797265E+02 -0.67141477094E+03  0.68467636329E+03  0.12500048099E+03 0.  0.
         23    2    1    2    0    0 -0.43003738634E+02  0.22571797265E+02 -0.54124109564E+03  0.54992038828E+03  0.84330909310E+02 0.  0.
          5    1    3    3  502    0  0.41207397606E+02  0.42415561306E+02 -0.44915972121E+03  0.45306034324E+03  0.47000000000E+01 0. -1.
         -5    1    4    4    0  503 -0.19797377948E+02 -0.31783381618E+02 -0.23153888152E+03  0.23459425223E+03  0.47000000000E+01 0.  1.
          5    1    4    4  503    0 -0.23206360686E+02  0.54355178884E+02 -0.30970221412E+03  0.31532613606E+03  0.47000000000E+01 0. -1.
         -5    1    3    3    0  502  0.17963410278E+01 -0.64987358572E+02 -0.22225504973E+03  0.23161602006E+03  0.47000000000E+01 0. -1.
<mgrwt>
<rscale>  0 0.12377370E+03</rscale>
<asrwt>0</asrwt>
<pdfrwt beam="1">  1        2 0.18825011E+00 0.13410417E+03</pdfrwt>
<pdfrwt beam="2">  1       -2 0.16877612E-02 0.13410417E+03</pdfrwt>
<totfact> 0.18442081E+04</totfact>
</mgrwt>
</event>
<event>
 8    1  0.3572165E-004  0.1562041E+03  0.7546771E-02  0.1201466E+00
          1   -1    0    0  501    0  0.00000000000E+00  0.00000000000E+00  0.73944438494E+03  0.73944438494E+03  0.00000000000E+00 0. -1.
         -1   -1    0    0    0  501 -0.00000000000E+00 -0.00000000000E+00 -0.29261810758E+02  0.29261810758E+02  0.00000000000E+00 0.  1.
         25    2    1    2    0    0 -0.15489131318E+02  0.92385626111E+02  0.47449287274E+03  0.49954300667E+03  0.12499884851E+03 0.  0.
         23    2    1    2    0    0  0.15489131318E+02 -0.92385626111E+02  0.23568970144E+03  0.26916318903E+03  0.90134176992E+02 0.  0.
          5    1    4    4  502    0  0.34508533665E+02 -0.23463015448E+00  0.49899712983E+02  0.60851995060E+02  0.47000000000E+01 0. -1.
         -5    1    4    4    0  502 -0.19019402347E+02 -0.92150995956E+02  0.18578998845E+03  0.20831119397E+03  0.47000000000E+01 0.  1.
          5    1    3    3  503    0  0.28246273078E+02  0.95692829145E+02  0.22491876828E+03  0.24610061320E+03  0.47000000000E+01 0. -1.
         -5    1    3    3    0  503 -0.43735404396E+02 -0.33072030344E+01  0.24957410446E+03  0.25344239347E+03  0.47000000000E+01 0. -1.
<mgrwt>
<rscale>  0 0.14919443E+03</rscale>
<asrwt>0</asrwt>
<pdfrwt beam="1">  1        1 0.11376066E+00 0.15620413E+03</pdfrwt>
<pdfrwt beam="2">  1       -1 0.45018176E-02 0.15620413E+03</pdfrwt>
<totfact> 0.52254318E+03</totfact>
</mgrwt>
</event>
<event>
 8    1  0.3572165E-004  0.1270308E+03  0.7546771E-02  0.1245464E+00
         -1   -1    0    0    0  501 -0.00000000000E+00  0.00000000000E+00  0.36272107479E+02  0.36272107479E+02  0.00000000000E+00 0.  1.
          1   -1    0    0  501    0  0.00000000000E+00 -0.00000000000E+00 -0.34459411152E+03  0.34459411152E+03  0.00000000000E+00 0. -1.
         25    2    1    2    0    0  0.21649482332E+02  0.65820194764E+01 -0.16890488776E+03  0.21134259350E+03  0.12499923060E+03 0.  0.
         23    2    1    2    0    0 -0.21649482332E+02 -0.65820194764E+01 -0.13941711628E+03  0.16952362551E+03  0.93750222543E+02 0.  0.
          5    1    4    4  502    0 -0.34149670969E+02  0.36510541397E+02 -0.86186111621E+02  0.99746456061E+02  0.47000000000E+01 0. -1.
         -5    1    4    4    0  502  0.12500188637E+02 -0.43092560874E+02 -0.53231004663E+02  0.69777169447E+02  0.47000000000E+01 0.  1.
          5    1    3    3  503    0  0.19206484076E+02  0.57436846019E+02 -0.13999384326E+03  0.15260487038E+03  0.47000000000E+01 0. -1.
         -5    1    3    3    0  503  0.24429982558E+01 -0.50854826543E+02 -0.28911044500E+02  0.58737723120E+02  0.47000000000E+01 0. -1.
<mgrwt>
<rscale>  0 0.11857654E+03</rscale>
<asrwt>0</asrwt>
<pdfrwt beam="1">  1        1 0.53014477E-01 0.12703083E+03</pdfrwt>
<pdfrwt beam="2">  1       -1 0.55803244E-02 0.12703083E+03</pdfrwt>
<totfact> 0.10313068E+04</totfact>
</mgrwt>
</event>
<event>
 8    1  0.3572165E-004  0.1425678E+03  0.7546771E-02  0.1220405E+00
          1   -1    0    0  501    0  0.00000000000E+00  0.00000000000E+00  0.98886579554E+02  0.98886579554E+02  0.00000000000E+00 0. -1.
         -1   -1    0    0    0  501 -0.00000000000E+00 -0.00000000000E+00 -0.16752844080E+03  0.16752844080E+03  0.00000000000E+00 0.  1.
         25    2    1    2    0    0 -0.23337390915E+02  0.64469073383E+02 -0.28510196306E+02  0.14539049899E+03  0.12499868265E+03 0.  0.
         23    2    1    2    0    0  0.23337390915E+02 -0.64469073383E+02 -0.40131664935E+02  0.12102452136E+03  0.91298899245E+02 0.  0.
          5    1    4    4  502    0 -0.48191767921E+01 -0.78094819404E+02 -0.13214535460E+02  0.79490497735E+02  0.47000000000E+01 0. -1.
         -5    1    3    3    0  503  0.20759189029E+01  0.81775848890E+02 -0.59671308940E+02  0.10136248819E+03  0.47000000000E+01 0.  1.
          5    1    3    3  503    0 -0.25413309818E+02 -0.17306775506E+02  0.31161112634E+02  0.44028010799E+02  0.47000000000E+01 0.  1.
         -5    1    4    4    0  502  0.28156567707E+02  0.13625746021E+02 -0.26917129475E+02  0.41534023629E+02  0.47000000000E+01 0.  1.
<mgrwt>
<rscale>  0 0.13486853E+03</rscale>
<asrwt>0</asrwt>
<pdfrwt beam="1">  1        1 0.15213320E-01 0.14256776E+03</pdfrwt>
<pdfrwt beam="2">  1       -1 0.25773606E-01 0.14256776E+03</pdfrwt>
<totfact> 0.46384749E+03</totfact>
</mgrwt>
</event>
<event>
 8    1  0.3572165E-004  0.1940138E+03  0.7546771E-02  0.1159286E+00
         -2   -1    0    0    0  501 -0.00000000000E+00  0.00000000000E+00  0.20017855899E+02  0.20017855899E+02  0.00000000000E+00 0.  1.
          2   -1    0    0  501    0  0.00000000000E+00 -0.00000000000E+00 -0.17933940546E+04  0.17933940546E+04  0.00000000000E+00 0. -1.
         25    2    1    2    0    0 -0.63299501001E+02  0.13419648296E+03 -0.11353374738E+04  0.11517953551E+04  0.12500335168E+03 0.  0.
         23    2    1    2    0    0  0.63299501001E+02 -0.13419648296E+03 -0.63803872492E+03  0.66161655534E+03  0.92884492426E+02 0.  0.
          5    1    4    4  502    0 -0.33374247792E+01 -0.99044488557E+02 -0.38296964732E+03  0.39561191828E+03  0.47000000000E+01 0. -1.
         -5    1    3    3    0  503 -0.27277738065E+01  0.10319678010E+03 -0.92313145465E+03  0.92889762016E+03  0.47000000000E+01 0. -1.
          5    1    3    3  503    0 -0.60571727195E+02  0.30999702864E+02 -0.21220601911E+03  0.22289773498E+03  0.47000000000E+01 0. -1.
         -5    1    4    4    0  502  0.66636925780E+02 -0.35151994407E+02 -0.25506907760E+03  0.26600463706E+03  0.47000000000E+01 0.  1.
<mgrwt>
<rscale>  0 0.18908888E+03</rscale>
<asrwt>0</asrwt>
<pdfrwt beam="1">  1        2 0.27590680E+00 0.19401382E+03</pdfrwt>
<pdfrwt beam="2">  1       -2 0.30796699E-02 0.19401382E+03</pdfrwt>
<totfact> 0.38773253E+03</totfact>
</mgrwt>
</event>
<event>
 8    1  0.3572165E-004  0.1300131E+03  0.7546771E-02  0.1242057E+00
         -1   -1    0    0    0  501 -0.00000000000E+00  0.00000000000E+00  0.60386158640E+02  0.60386158640E+02  0.00000000000E+00 0.  1.
          1   -1    0    0  501    0  0.00000000000E+00 -0.00000000000E+00 -0.21261892687E+03  0.21261892687E+03  0.00000000000E+00 0. -1.
         25    2    1    2    0    0  0.13258475222E+02 -0.33221617498E+02 -0.81094856007E+02  0.15323116048E+03  0.12499579928E+03 0.  0.
         23    2    1    2    0    0 -0.13258475222E+02  0.33221617498E+02 -0.71137912219E+02  0.11977392502E+03  0.89474731214E+02 0.  0.
          5    1    3    3  502    0 -0.49930115885E+02 -0.29016284813E+02 -0.11595324831E+02  0.59088939867E+02  0.47000000000E+01 0. -1.
         -5    1    4    4    0  503 -0.10987304064E+02 -0.25899240348E+02 -0.19101121087E+01  0.28587235429E+02  0.47000000000E+01 0.  1.
          5    1    4    4  503    0 -0.22711711572E+01  0.59120857846E+02 -0.69227800110E+02  0.91186689593E+02  0.47000000000E+01 0. -1.
         -5    1    3    3    0  502  0.63188591106E+02 -0.42053326852E+01 -0.69499531176E+02  0.94142220617E+02  0.47000000000E+01 0. -1.
<mgrwt>
<rscale>  0 0.12063248E+03</rscale>
<asrwt>0</asrwt>
<pdfrwt beam="1">  1        1 0.32710604E-01 0.13001313E+03</pdfrwt>
<pdfrwt beam="2">  1       -1 0.92901782E-02 0.13001313E+03</pdfrwt>
<totfact> 0.87389165E+03</totfact>
</mgrwt>
</event>
<event>
 8    1  0.3572165E-004  0.1643443E+03  0.7546771E-02  0.1191456E+00
         -1   -1    0    0    0  501 -0.00000000000E+00  0.00000000000E+00  0.42793521288E+02  0.42793521288E+02  0.00000000000E+00 0.  1.
          1   -1    0    0  501    0  0.00000000000E+00 -0.00000000000E+00 -0.55060257067E+03  0.55060257067E+03  0.00000000000E+00 0. -1.
         25    2    1    2    0    0  0.36333759149E+02 -0.10032047712E+03 -0.22865537564E+03  0.28158896487E+03  0.12499889656E+03 0.  0.
         23    2    1    2    0    0 -0.36333759149E+02  0.10032047712E+03 -0.27915367374E+03  0.31180712709E+03  0.88952632103E+02 0.  0.
          5    1    4    4  502    0  0.13474926330E+02  0.36632937813E+02 -0.17767451014E+03  0.18197216086E+03  0.47000000000E+01 0. -1.
         -5    1    3    3    0  503  0.17089474951E+02  0.23393196067E+02 -0.12825533724E+02  0.32029300518E+02  0.47000000000E+01 0. -1.
          5    1    3    3  503    0  0.19244284198E+02 -0.12371367319E+03 -0.21582984192E+03  0.24955966435E+03  0.47000000000E+01 0. -1.
         -5    1    4    4    0  502 -0.49808685479E+02  0.63687539310E+02 -0.10147916359E+03  0.12983496623E+03  0.47000000000E+01 0.  1.
<mgrwt>
<rscale>  0 0.15758035E+03</rscale>
<asrwt>0</asrwt>
<pdfrwt beam="1">  1        1 0.84708090E-01 0.16434435E+03</pdfrwt>
<pdfrwt beam="2">  1       -1 0.65836185E-02 0.16434435E+03</pdfrwt>
<totfact> 0.44878778E+03</totfact>
</mgrwt>
</event>
<event>
 8    1  0.3572165E-004  0.1330487E+03  0.7546771E-02  0.1231508E+00
          1   -1    0    0  501    0  0.00000000000E+00  0.00000000000E+00  0.81772513020E+02  0.81772513020E+02  0.00000000000E+00 0. -1.
         -1   -1    0    0    0  501 -0.00000000000E+00 -0.00000000000E+00 -0.18302979564E+03  0.18302979564E+03  0.00000000000E+00 0.  1.
         25    2    1    2    0    0  0.19649780191E+02 -0.41116251370E+02 -0.51239886934E+02  0.14257448057E+03  0.12500118603E+03 0.  0.
         23    2    1    2    0    0 -0.19649780191E+02  0.41116251370E+02 -0.50017395690E+02  0.12222782809E+03  0.10179018666E+03 0.  0.
          5    1    4    4  502    0 -0.14875575064E+02  0.66051539870E+02 -0.22231232097E+01  0.67905234920E+02  0.47000000000E+01 0. -1.
         -5    1    4    4    0  502 -0.47742051273E+01 -0.24935288500E+02 -0.47794272480E+02  0.54322593174E+02  0.47000000000E+01 0.  1.
          5    1    3    3  503    0 -0.19768226032E+02  0.28326407202E+02  0.15736792047E+02  0.38247937583E+02  0.47000000000E+01 0. -1.
         -5    1    3    3    0  503  0.39418006224E+02 -0.69442658572E+02 -0.66976678981E+02  0.10432654299E+03  0.47000000000E+01 0. -1.
<mgrwt>
<rscale>  0 0.12730673E+03</rscale>
<asrwt>0</asrwt>
<pdfrwt beam="1">  1        1 0.12580387E-01 0.13304870E+03</pdfrwt>
<pdfrwt beam="2">  1       -1 0.28158430E-01 0.13304870E+03</pdfrwt>
<totfact> 0.51073929E+03</totfact>
</mgrwt>
</event>
<event>
 8    1  0.3572165E-004  0.1377980E+03  0.7546771E-02  0.1228285E+00
         -2   -1    0    0    0  501 -0.00000000000E+00  0.00000000000E+00  0.94378709158E+03  0.94378709158E+03  0.00000000000E+00 0.  1.
          2   -1    0    0  501    0  0.00000000000E+00 -0.00000000000E+00 -0.16099444769E+02  0.16099444769E+02  0.00000000000E+00 0. -1.
         25    2    1    2    0    0 -0.36260427620E+02 -0.45267727676E+02  0.46954106861E+03  0.48934353913E+03  0.12499719358E+03 0.  0.
         23    2    1    2    0    0  0.36260427620E+02  0.45267727676E+02  0.45814657820E+03  0.47054299722E+03  0.90268706259E+02 0.  0.
          5    1    3    3  502    0 -0.53610552017E+02 -0.33338789345E+02  0.46225964164E+03  0.46657435898E+03  0.47000000000E+01 0. -1.
         -5    1    3    3    0  502  0.17350124398E+02 -0.11928938331E+02  0.72814269637E+01  0.22769180155E+02  0.47000000000E+01 0. -1.
          5    1    4    4  503    0  0.11325182415E+02 -0.27533136833E+02  0.13593632658E+03  0.13923759645E+03  0.47000000000E+01 0. -1.
         -5    1    4    4    0  503  0.24935245205E+02  0.72800864510E+02  0.32221025162E+03  0.33130540077E+03  0.47000000000E+01 0.  1.
<mgrwt>
<rscale>  0 0.12944283E+03</rscale>
<asrwt>0</asrwt>
<pdfrwt beam="1">  1        2 0.24768384E-02 0.13779798E+03</pdfrwt>
<pdfrwt beam="2">  1       -2 0.14519797E+00 0.13779798E+03</pdfrwt>
<totfact> 0.13548687E+03</totfact>
</mgrwt>
</event>
<event>
 8    1  0.3572165E-004  0.1299598E+03  0.7546771E-02  0.1241484E+00
         -4   -1    0    0    0  501 -0.00000000000E+00  0.00000000000E+00  0.18373975360E+02  0.18373975360E+02  0.00000000000E+00 0.  1.
          4   -1    0    0  501    0  0.00000000000E+00 -0.00000000000E+00 -0.81453861117E+03  0.81453861117E+03  0.00000000000E+00 0. -1.
         25    2    1    2    0    0  0.35445012651E+02  0.22766715233E+01 -0.59868936087E+03  0.61263244118E+03  0.12501209945E+03 0.  0.
         23    2    1    2    0    0 -0.35445012651E+02 -0.22766715233E+01 -0.19747527494E+03  0.22028014535E+03  0.90913838706E+02 0.  0.
          5    1    4    4  502    0 -0.26921598703E+02  0.43172788762E+02 -0.10067371635E+03  0.11289795981E+03  0.47000000000E+01 0. -1.
         -5    1    3    3    0  503  0.43793486440E+02 -0.50797375838E+02 -0.21772364687E+03  0.22786820589E+03  0.47000000000E+01 0.  1.
          5    1    3    3  503    0 -0.83484737884E+01  0.53074047361E+02 -0.38096571400E+03  0.38476423529E+03  0.47000000000E+01 0.  1.
         -5    1    4    4    0  502 -0.85234139480E+01 -0.45449460285E+02 -0.96801558589E+02  0.10738218554E+03  0.47000000000E+01 0.  1.
<mgrwt>
<rscale>  0 0.12098334E+03</rscale>
<asrwt>0</asrwt>
<pdfrwt beam="1">  1        4 0.12531365E+00 0.12995983E+03</pdfrwt>
<pdfrwt beam="2">  1       -4 0.28267650E-02 0.12995983E+03</pdfrwt>
<totfact> 0.48820411E+02</totfact>
</mgrwt>
</event>
<event>
 8    1  0.3572165E-004  0.1263068E+03  0.7546771E-02  0.1248211E+00
          2   -1    0    0  501    0  0.00000000000E+00  0.00000000000E+00  0.44748811542E+03  0.44748811542E+03  0.00000000000E+00 0. -1.
         -2   -1    0    0    0  501 -0.00000000000E+00 -0.00000000000E+00 -0.37563227407E+02  0.37563227407E+02  0.00000000000E+00 0.  1.
         25    2    1    2    0    0  0.15777541350E+02  0.89215066083E+01  0.98769527704E+02  0.16033969028E+03  0.12499949033E+03 0.  0.
         23    2    1    2    0    0 -0.15777541350E+02 -0.89215066083E+01  0.31115536031E+03  0.32471165255E+03  0.91057536552E+02 0.  0.
          5    1    4    4  502    0 -0.24985276917E+02 -0.46516203964E+02  0.20044028644E+03  0.20733166599E+03  0.47000000000E+01 0. -1.
         -5    1    4    4    0  502  0.92077355676E+01  0.37594697356E+02  0.11071507387E+03  0.11737998656E+03  0.47000000000E+01 0.  1.
          5    1    3    3  503    0  0.69850351833E+00 -0.57173258776E+02  0.35342621926E+02  0.67382938129E+02  0.47000000000E+01 0.  1.
         -5    1    3    3    0  503  0.15079037831E+02  0.66094765384E+02  0.63426905777E+02  0.92956752146E+02  0.47000000000E+01 0.  1.
<mgrwt>
<rscale>  0 0.11695218E+03</rscale>
<asrwt>0</asrwt>
<pdfrwt beam="1">  1        2 0.68844322E-01 0.12630676E+03</pdfrwt>
<pdfrwt beam="2">  1       -2 0.57789584E-02 0.12630676E+03</pdfrwt>
<totfact> 0.10448284E+04</totfact>
</mgrwt>
</event>
<event>
 8    1  0.3572165E-004  0.1462337E+03  0.7546771E-02  0.1215211E+00
          2   -1    0    0  501    0  0.00000000000E+00  0.00000000000E+00  0.11059701475E+04  0.11059701475E+04  0.00000000000E+00 0. -1.
         -2   -1    0    0    0  501 -0.00000000000E+00 -0.00000000000E+00 -0.17413986662E+02  0.17413986662E+02  0.00000000000E+00 0.  1.
         25    2    1    2    0    0 -0.87971548479E+01  0.75367851676E+02  0.42614047829E+03  0.45053303007E+03  0.12500640365E+03 0.  0.
         23    2    1    2    0    0  0.87971548479E+01 -0.75367851676E+02  0.66241568259E+03  0.67285110413E+03  0.90423275666E+02 0.  0.
          5    1    3    3  502    0 -0.45302878325E+02  0.91975180696E+02  0.25924972408E+03  0.27882663805E+03  0.47000000000E+01 0.  1.
         -5    1    4    4    0  503 -0.39786135589E+02 -0.22330755308E+02  0.27107230697E+03  0.27492523498E+03  0.47000000000E+01 0.  1.
          5    1    4    4  503    0  0.48583290437E+02 -0.53037096368E+02  0.39134337562E+03  0.39792586916E+03  0.47000000000E+01 0. -1.
         -5    1    3    3    0  502  0.36505723477E+02 -0.16607329019E+02  0.16689075420E+03  0.17170639202E+03  0.47000000000E+01 0.  1.
<mgrwt>
<rscale>  0 0.13861027E+03</rscale>
<asrwt>0</asrwt>
<pdfrwt beam="1">  1        2 0.17014920E+00 0.14623373E+03</pdfrwt>
<pdfrwt beam="2">  1       -2 0.26790757E-02 0.14623373E+03</pdfrwt>
<totfact> 0.11012342E+04</totfact>
</mgrwt>
</event>
<event>
 8    1  0.3572165E-004  0.2801990E+03  0.7546771E-02  0.1097790E+00
          2   -1    0    0  501    0  0.00000000000E+00  0.00000000000E+00  0.31961901908E+03  0.31961901908E+03  0.00000000000E+00 0. -1.
         -2   -1    0    0    0  501 -0.00000000000E+00 -0.00000000000E+00 -0.25800341994E+03  0.25800341994E+03  0.00000000000E+00 0.  1.
         25    2    1    2    0    0  0.22891088162E+03  0.10240023419E+03  0.12314541370E+03  0.30606578583E+03  0.12500189060E+03 0.  0.
         23    2    1    2    0    0 -0.22891088162E+03 -0.10240023419E+03 -0.61529814563E+02  0.27155665319E+03  0.84089821775E+02 0.  0.
          5    1    4    4  502    0 -0.88214705458E+02 -0.45214710429E+02  0.16732781100E+02  0.10063935742E+03  0.47000000000E+01 0. -1.
         -5    1    3    3    0  503  0.31949481828E+02 -0.19924737461E+02  0.50265320167E+02  0.62979813936E+02  0.47000000000E+01 0.  1.
          5    1    3    3  503    0  0.19696139979E+03  0.12232497165E+03  0.72880093533E+02  0.24308597189E+03  0.47000000000E+01 0.  1.
         -5    1    4    4    0  502 -0.14069617616E+03 -0.57185523759E+02 -0.78262595663E+02  0.17091729577E+03  0.47000000000E+01 0.  1.
<mgrwt>
<rscale>  0 0.27618742E+03</rscale>
<asrwt>0</asrwt>
<pdfrwt beam="1">  1        2 0.49172157E-01 0.28019899E+03</pdfrwt>
<pdfrwt beam="2">  1       -2 0.39692834E-01 0.28019899E+03</pdfrwt>
<totfact> 0.61931152E+02</totfact>
</mgrwt>
</event>
<event>
 8    1  0.3572165E-004  0.1554968E+03  0.7546771E-02  0.1202281E+00
          1   -1    0    0  501    0  0.00000000000E+00  0.00000000000E+00  0.93262318426E+02  0.93262318426E+02  0.00000000000E+00 0. -1.
         -1   -1    0    0    0  501 -0.00000000000E+00 -0.00000000000E+00 -0.25387892744E+03  0.25387892744E+03  0.00000000000E+00 0.  1.
         25    2    1    2    0    0  0.92019301493E+02 -0.92521567139E+01 -0.21298453162E+02  0.15694866257E+03  0.12500441722E+03 0.  0.
         23    2    1    2    0    0 -0.92019301493E+02  0.92521567139E+01 -0.13931815585E+03  0.19019258329E+03  0.90611897344E+02 0.  0.
          5    1    4    4  502    0  0.12856078827E+02 -0.16141622795E+02 -0.27861153368E+02  0.34988063911E+02  0.47000000000E+01 0. -1.
         -5    1    4    4    0  502 -0.10487538032E+03  0.25393779509E+02 -0.11145700248E+03  0.15520451938E+03  0.47000000000E+01 0.  1.
          5    1    3    3  503    0  0.11718290432E+02  0.39029698924E+02  0.29249775521E+02  0.50381297093E+02  0.47000000000E+01 0. -1.
         -5    1    3    3    0  503  0.80301011061E+02 -0.48281855638E+02 -0.50548228683E+02  0.10656736547E+03  0.47000000000E+01 0. -1.
<mgrwt>
<rscale>  0 0.14853789E+03</rscale>
<asrwt>0</asrwt>
<pdfrwt beam="1">  1        1 0.14348049E-01 0.15549681E+03</pdfrwt>
<pdfrwt beam="2">  1       -1 0.39058296E-01 0.15549681E+03</pdfrwt>
<totfact> 0.24824242E+03</totfact>
</mgrwt>
</event>
<event>
 8    1  0.3572165E-004  0.1501578E+03  0.7546771E-02  0.1209382E+00
          2   -1    0    0  501    0  0.00000000000E+00  0.00000000000E+00  0.65556377939E+03  0.65556377939E+03  0.00000000000E+00 0. -1.
         -2   -1    0    0    0  501 -0.00000000000E+00 -0.00000000000E+00 -0.32086319129E+02  0.32086319129E+02  0.00000000000E+00 0.  1.
         25    2    1    2    0    0 -0.38913290789E+02 -0.73592500300E+02  0.45261987067E+03  0.47687746320E+03  0.12496906530E+03 0.  0.
         23    2    1    2    0    0  0.38913290789E+02  0.73592500300E+02  0.17085758959E+03  0.21077263532E+03  0.91119084599E+02 0.  0.
          5    1    4    4  502    0  0.12664139968E+02 -0.20507215940E+02  0.46253480308E+02  0.52367936634E+02  0.47000000000E+01 0. -1.
         -5    1    4    4    0  502  0.26249150821E+02  0.94099716240E+02  0.12460410929E+03  0.15840469869E+03  0.47000000000E+01 0.  1.
          5    1    3    3  503    0 -0.40885567367E+02 -0.10769971937E+03  0.36202331819E+03  0.37993924789E+03  0.47000000000E+01 0. -1.
         -5    1    3    3    0  503  0.19722765782E+01  0.34107219065E+02  0.90596552477E+02  0.96938215312E+02  0.47000000000E+01 0. -1.
<mgrwt>
<rscale>  0 0.14297443E+03</rscale>
<asrwt>0</asrwt>
<pdfrwt beam="1">  1        2 0.10085596E+00 0.15015781E+03</pdfrwt>
<pdfrwt beam="2">  1       -2 0.49363573E-02 0.15015781E+03</pdfrwt>
<totfact> 0.87477999E+03</totfact>
</mgrwt>
</event>
<event>
 8    1  0.3572165E-004  0.1410165E+03  0.7546771E-02  0.1222183E+00
         -1   -1    0    0    0  501 -0.00000000000E+00  0.00000000000E+00  0.54898872295E+02  0.54898872295E+02  0.00000000000E+00 0.  1.
          1   -1    0    0  501    0  0.00000000000E+00 -0.00000000000E+00 -0.35708901240E+03  0.35708901240E+03  0.00000000000E+00 0. -1.
         25    2    1    2    0    0 -0.55720156582E+02 -0.33966767104E+02 -0.24972955982E+03  0.28679347818E+03  0.12500867553E+03 0.  0.
         23    2    1    2    0    0  0.55720156582E+02  0.33966767104E+02 -0.52460580281E+02  0.12519440652E+03  0.93075506032E+02 0.  0.
          5    1    4    4  502    0 -0.11880100971E+02 -0.19177588296E+02 -0.26779976640E+02  0.35329503829E+02  0.47000000000E+01 0. -1.
         -5    1    3    3    0  503 -0.82530250686E+02 -0.15172307752E+02 -0.87883709817E+02  0.12160212848E+03  0.47000000000E+01 0. -1.
          5    1    3    3  503    0  0.26810094104E+02 -0.18794459351E+02 -0.16184585001E+03  0.16519134969E+03  0.47000000000E+01 0. -1.
         -5    1    4    4    0  502  0.67600257553E+02  0.53144355400E+02 -0.25680603641E+02  0.89864902690E+02  0.47000000000E+01 0.  1.
<mgrwt>
<rscale>  0 0.13361851E+03</rscale>
<asrwt>0</asrwt>
<pdfrwt beam="1">  1        1 0.54936771E-01 0.14101647E+03</pdfrwt>
<pdfrwt beam="2">  1       -1 0.84459803E-02 0.14101647E+03</pdfrwt>
<totfact> 0.53399080E+03</totfact>
</mgrwt>
</event>
<event>
 8    1  0.3572165E-004  0.2256446E+03  0.7546771E-02  0.1132963E+00
         -1   -1    0    0    0  501 -0.00000000000E+00  0.00000000000E+00  0.25070398569E+02  0.25070398569E+02  0.00000000000E+00 0.  1.
          1   -1    0    0  501    0  0.00000000000E+00 -0.00000000000E+00 -0.19445258834E+04  0.19445258834E+04  0.00000000000E+00 0. -1.
         25    2    1    2    0    0  0.96840630607E+02 -0.16097948362E+03 -0.81671423066E+03  0.84731199703E+03  0.12499193519E+03 0.  0.
         23    2    1    2    0    0 -0.96840630607E+02  0.16097948362E+03 -0.11027412541E+04  0.11222842849E+04  0.90505473260E+02 0.  0.
          5    1    4    4  502    0 -0.16087201588E+01  0.88290931329E+02 -0.44385134810E+03  0.45257483994E+03  0.47000000000E+01 0. -1.
         -5    1    3    3    0  503 -0.15516764993E+02 -0.92034847826E+02 -0.31787786753E+03  0.33133006486E+03  0.47000000000E+01 0. -1.
          5    1    3    3  503    0  0.11235739560E+03 -0.68944635793E+02 -0.49883636313E+03  0.51598193218E+03  0.47000000000E+01 0. -1.
         -5    1    4    4    0  502 -0.95231910448E+02  0.72688552291E+02 -0.65888990603E+03  0.66970944496E+03  0.47000000000E+01 0.  1.
<mgrwt>
<rscale>  0 0.22123792E+03</rscale>
<asrwt>0</asrwt>
<pdfrwt beam="1">  1        1 0.29915788E+00 0.22564460E+03</pdfrwt>
<pdfrwt beam="2">  1       -1 0.38569837E-02 0.22564460E+03</pdfrwt>
<totfact> 0.95569542E+02</totfact>
</mgrwt>
</event>
<event>
 8    1  0.3572165E-004  0.1416922E+03  0.7546771E-02  0.1222068E+00
         -1   -1    0    0    0  501 -0.00000000000E+00  0.00000000000E+00  0.32295826543E+02  0.32295826543E+02  0.00000000000E+00 0.  1.
          1   -1    0    0  501    0  0.00000000000E+00 -0.00000000000E+00 -0.50002562602E+03  0.50002562602E+03  0.00000000000E+00 0. -1.
         25    2    1    2    0    0 -0.21104941343E+02 -0.63288249688E+02 -0.26957699460E+03  0.30454625534E+03  0.12500337807E+03 0.  0.
         23    2    1    2    0    0  0.21104941343E+02  0.63288249688E+02 -0.19815280488E+03  0.22777519722E+03  0.90366947998E+02 0.  0.
          5    1    4    4  502    0 -0.10610331954E+02  0.53858262654E+02 -0.18293977486E+03  0.19105586310E+03  0.47000000000E+01 0. -1.
         -5    1    3    3    0  503 -0.32450007080E+02 -0.25247669904E+02 -0.26022281468E+03  0.26349279131E+03  0.47000000000E+01 0.  1.
          5    1    3    3  503    0  0.11345065737E+02 -0.38040579784E+02 -0.93541799226E+01  0.41053464031E+02  0.47000000000E+01 0.  1.
         -5    1    4    4    0  502  0.31715273297E+02  0.94299870340E+01 -0.15213030019E+02  0.36719334119E+02  0.47000000000E+01 0.  1.
<mgrwt>
<rscale>  0 0.13369922E+03</rscale>
<asrwt>0</asrwt>
<pdfrwt beam="1">  1        1 0.76927017E-01 0.14169215E+03</pdfrwt>
<pdfrwt beam="2">  1       -1 0.49685889E-02 0.14169215E+03</pdfrwt>
<totfact> 0.76959199E+03</totfact>
</mgrwt>
</event>
<event>
 8    1  0.3572165E-004  0.1322212E+03  0.7546771E-02  0.1236990E+00
         -2   -1    0    0    0  501 -0.00000000000E+00  0.00000000000E+00  0.34802188099E+02  0.34802188099E+02  0.00000000000E+00 0.  1.
          2   -1    0    0  501    0  0.00000000000E+00 -0.00000000000E+00 -0.40815234386E+03  0.40815234386E+03  0.00000000000E+00 0. -1.
         25    2    1    2    0    0 -0.35248286201E+02 -0.24785643878E+02 -0.16731921343E+03  0.21325612764E+03  0.12500274784E+03 0.  0.
         23    2    1    2    0    0  0.35248286201E+02  0.24785643878E+02 -0.20603094232E+03  0.22969840432E+03  0.91955630223E+02 0.  0.
          5    1    4    4  502    0  0.36553873509E+02 -0.26989441479E+02 -0.12817201236E+03  0.13606899122E+03  0.47000000000E+01 0. -1.
         -5    1    3    3    0  503  0.27058025655E+01  0.32326140825E+02 -0.44518749975E+00  0.32780923417E+02  0.47000000000E+01 0.  1.
          5    1    3    3  503    0 -0.37954088766E+02 -0.57111784703E+02 -0.16687402593E+03  0.18047520422E+03  0.47000000000E+01 0.  1.
         -5    1    4    4    0  502 -0.13055873081E+01  0.51775085357E+02 -0.77858929967E+02  0.93629413101E+02  0.47000000000E+01 0.  1.
<mgrwt>
<rscale>  0 0.12377900E+03</rscale>
<asrwt>0</asrwt>
<pdfrwt beam="1">  1        2 0.62792663E-01 0.13222124E+03</pdfrwt>
<pdfrwt beam="2">  1       -2 0.53541832E-02 0.13222124E+03</pdfrwt>
<totfact> 0.12986014E+04</totfact>
</mgrwt>
</event>
<event>
 8    1  0.3572165E-004  0.2262352E+03  0.7546771E-02  0.1132493E+00
          2   -1    0    0  501    0  0.00000000000E+00  0.00000000000E+00  0.19220421820E+04  0.19220421820E+04  0.00000000000E+00 0. -1.
         -2   -1    0    0    0  501 -0.00000000000E+00 -0.00000000000E+00 -0.33888367599E+02  0.33888367599E+02  0.00000000000E+00 0.  1.
         25    2    1    2    0    0 -0.14511818820E+03 -0.12040054868E+03  0.14805358640E+04  0.14977212089E+04  0.12500717624E+03 0.  0.
         23    2    1    2    0    0  0.14511818820E+03  0.12040054868E+03  0.40761795032E+03  0.45820934069E+03  0.90817541286E+02 0.  0.
          5    1    4    4  502    0  0.11044940270E+03  0.70595588773E+02  0.35243669129E+03  0.37605387790E+03  0.47000000000E+01 0. -1.
         -5    1    4    4    0  502  0.34668785496E+02  0.49804959909E+02  0.55181259028E+02  0.82155462796E+02  0.47000000000E+01 0.  1.
          5    1    3    3  503    0  0.51536580086E+01 -0.53975462954E+02  0.22584097855E+03  0.23230615228E+03  0.47000000000E+01 0. -1.
         -5    1    3    3    0  503 -0.15027184621E+03 -0.66425085729E+02  0.12546948855E+04  0.12654150566E+04  0.47000000000E+01 0. -1.
<mgrwt>
<rscale>  0 0.22187514E+03</rscale>
<asrwt>0</asrwt>
<pdfrwt beam="1">  1        2 0.29569871E+00 0.22623522E+03</pdfrwt>
<pdfrwt beam="2">  1       -2 0.52135965E-02 0.22623522E+03</pdfrwt>
<totfact> 0.15052801E+03</totfact>
</mgrwt>
</event>
<event>
 8    1  0.3572165E-004  0.1692253E+03  0.7546771E-02  0.1185094E+00
         -2   -1    0    0    0  501 -0.00000000000E+00  0.00000000000E+00  0.21877440838E+03  0.21877440838E+03  0.00000000000E+00 0.  1.
          2   -1    0    0  501    0  0.00000000000E+00 -0.00000000000E+00 -0.11395859267E+03  0.11395859267E+03  0.00000000000E+00 0. -1.
         25    2    1    2    0    0 -0.19128017592E+02 -0.11245716293E+03  0.59600883402E+02  0.17941419467E+03  0.12499877357E+03 0.  0.
         23    2    1    2    0    0  0.19128017592E+02  0.11245716293E+03  0.45214932310E+02  0.15331880638E+03  0.91922639946E+02 0.  0.
          5    1    4    4  502    0 -0.59632088381E+01  0.90912219831E+02 -0.68213380532E+01  0.91483398642E+02  0.47000000000E+01 0. -1.
         -5    1    3    3    0  503  0.22629015428E+02 -0.11117269780E+03  0.73352602014E+02  0.13518186009E+03  0.47000000000E+01 0.  1.
          5    1    3    3  503    0 -0.41757033019E+02 -0.12844651309E+01 -0.13751718613E+02  0.44232334576E+02  0.47000000000E+01 0.  1.
         -5    1    4    4    0  502  0.25091226430E+02  0.21544943101E+02  0.52036270363E+02  0.61835407739E+02  0.47000000000E+01 0.  1.
<mgrwt>
<rscale>  0 0.16323314E+03</rscale>
<asrwt>0</asrwt>
<pdfrwt beam="1">  1        2 0.17532091E-01 0.16922526E+03</pdfrwt>
<pdfrwt beam="2">  1       -2 0.33657601E-01 0.16922526E+03</pdfrwt>
<totfact> 0.26125441E+03</totfact>
</mgrwt>
</event>
<event>
 8    1  0.3624536E-004  0.2259955E+03  0.7546771E-02  0.1132720E+00
         -2   -1    0    0    0  501 -0.00000000000E+00  0.00000000000E+00  0.94667046907E+02  0.94667046907E+02  0.00000000000E+00 0.  1.
          2   -1    0    0  501    0  0.00000000000E+00 -0.00000000000E+00 -0.51819645794E+03  0.51819645794E+03  0.00000000000E+00 0. -1.
         25    2    1    2    0    0  0.54619630739E+02 -0.18019092607E+03 -0.27840230038E+03  0.35858306809E+03  0.12498760726E+03 0.  0.
         23    2    1    2    0    0 -0.54619630739E+02  0.18019092607E+03 -0.14512711066E+03  0.25428043675E+03  0.90247373188E+02 0.  0.
          5    1    3    3  502    0  0.93523993084E+02 -0.11617258551E+03 -0.20539234049E+03  0.25387183860E+03  0.47000000000E+01 0. -1.
         -5    1    4    4    0  503 -0.68958860808E+02  0.99412559272E+02 -0.11431566868E+03  0.16651829789E+03  0.47000000000E+01 0.  1.
          5    1    4    4  503    0  0.14339230069E+02  0.80778366799E+02 -0.30811441973E+02  0.87762138865E+02  0.47000000000E+01 0. -1.
         -5    1    3    3    0  502 -0.38904362345E+02 -0.64018340565E+02 -0.73009959890E+02  0.10471122949E+03  0.47000000000E+01 0. -1.
<mgrwt>
<rscale>  0 0.22156774E+03</rscale>
<asrwt>0</asrwt>
<pdfrwt beam="1">  1        2 0.79722532E-01 0.22599552E+03</pdfrwt>
<pdfrwt beam="2">  1       -2 0.14564161E-01 0.22599552E+03</pdfrwt>
<totfact> 0.21366688E+03</totfact>
</mgrwt>
</event>
<event>
 8    1  0.3572165E-004  0.1333073E+03  0.7546771E-02  0.1235540E+00
         -1   -1    0    0    0  501 -0.00000000000E+00  0.00000000000E+00  0.62567956030E+02  0.62567956030E+02  0.00000000000E+00 0.  1.
          1   -1    0    0  501    0  0.00000000000E+00 -0.00000000000E+00 -0.25250565811E+03  0.25250565811E+03  0.00000000000E+00 0. -1.
         25    2    1    2    0    0  0.74575993212E+01  0.45719330283E+02 -0.51126523229E+02  0.14277517296E+03  0.12499982275E+03 0.  0.
         23    2    1    2    0    0 -0.74575993212E+01 -0.45719330283E+02 -0.13881117885E+03  0.17229844119E+03  0.90952385956E+02 0.  0.
          5    1    4    4  502    0  0.26271522928E+02  0.14150480842E+02 -0.63016595013E+02  0.69882832456E+02  0.47000000000E+01 0. -1.
         -5    1    4    4    0  502 -0.33729122249E+02 -0.59869811126E+02 -0.75794583842E+02  0.10241560873E+03  0.47000000000E+01 0.  1.
          5    1    3    3  503    0  0.27965994116E+02 -0.34677834118E+02 -0.37789620432E+02  0.58607119178E+02  0.47000000000E+01 0. -1.
         -5    1    3    3    0  503 -0.20508394795E+02  0.80397164401E+02 -0.13336902798E+02  0.84168053780E+02  0.47000000000E+01 0. -1.
<mgrwt>
<rscale>  0 0.12469944E+03</rscale>
<asrwt>0</asrwt>
<pdfrwt beam="1">  1        1 0.38847024E-01 0.13330727E+03</pdfrwt>
<pdfrwt beam="2">  1       -1 0.96258394E-02 0.13330727E+03</pdfrwt>
<totfact> 0.67056402E+03</totfact>
</mgrwt>
</event>
<event>
 8    1  0.3572165E-004  0.2030187E+03  0.7546771E-02  0.1151202E+00
         -2   -1    0    0    0  501 -0.00000000000E+00  0.00000000000E+00  0.30163404554E+03  0.30163404554E+03  0.00000000000E+00 0.  1.
          2   -1    0    0  501    0  0.00000000000E+00 -0.00000000000E+00 -0.12474080940E+03  0.12474080940E+03  0.00000000000E+00 0. -1.
         25    2    1    2    0    0  0.43982471292E+02 -0.15380675481E+03  0.99936919484E+02  0.22628299489E+03  0.12500252116E+03 0.  0.
         23    2    1    2    0    0 -0.43982471292E+02  0.15380675481E+03  0.76956316661E+02  0.20009186004E+03  0.92322815032E+02 0.  0.
          5    1    3    3  502    0  0.86101355928E+02 -0.82780283979E+02  0.49275434364E+02  0.12929105669E+03  0.47000000000E+01 0. -1.
         -5    1    4    4    0  503 -0.15061160557E+01  0.91644013129E+02  0.83887263746E+02  0.12433847573E+03  0.47000000000E+01 0.  1.
          5    1    4    4  503    0 -0.42476355237E+02  0.62162741682E+02 -0.69309470851E+01  0.75753384314E+02  0.47000000000E+01 0. -1.
         -5    1    3    3    0  502 -0.42118884636E+02 -0.71026470832E+02  0.50661485119E+02  0.96991938203E+02  0.47000000000E+01 0. -1.
<mgrwt>
<rscale>  0 0.19827567E+03</rscale>
<asrwt>0</asrwt>
<pdfrwt beam="1">  1        2 0.19190894E-01 0.20301873E+03</pdfrwt>
<pdfrwt beam="2">  1       -2 0.46405237E-01 0.20301873E+03</pdfrwt>
<totfact> 0.12873182E+03</totfact>
</mgrwt>
</event>
<event>
 8    1  0.3572165E-004  0.1323515E+03  0.7546771E-02  0.1238360E+00
          1   -1    0    0  501    0  0.00000000000E+00  0.00000000000E+00  0.25455382513E+03  0.25455382513E+03  0.00000000000E+00 0. -1.
         -1   -1    0    0    0  501 -0.00000000000E+00 -0.00000000000E+00 -0.52564756614E+02  0.52564756614E+02  0.00000000000E+00 0.  1.
         25    2    1    2    0    0 -0.24774362205E+02 -0.35750549385E+02  0.12607981424E+03  0.18279234949E+03  0.12500021068E+03 0.  0.
         23    2    1    2    0    0  0.24774362205E+02  0.35750549385E+02  0.75909254270E+02  0.12432623225E+03  0.88334174232E+02 0.  0.
          5    1    3    3  502    0 -0.62892430066E+02 -0.47674508117E+02  0.11758137620E+03  0.14168904867E+03  0.47000000000E+01 0. -1.
         -5    1    3    3    0  502  0.38118067861E+02  0.11923958732E+02  0.84984380402E+01  0.41103300821E+02  0.47000000000E+01 0. -1.
          5    1    4    4  503    0  0.44225804290E+01 -0.26353308886E+02  0.43398256913E+02  0.51181586630E+02  0.47000000000E+01 0. -1.
         -5    1    4    4    0  503  0.20351781776E+02  0.62103858270E+02  0.32510997357E+02  0.73144645619E+02  0.47000000000E+01 0.  1.
<mgrwt>
<rscale>  0 0.12291759E+03</rscale>
<asrwt>0</asrwt>
<pdfrwt beam="1">  1        1 0.39162126E-01 0.13235151E+03</pdfrwt>
<pdfrwt beam="2">  1       -1 0.80868858E-02 0.13235151E+03</pdfrwt>
<totfact> 0.86401092E+03</totfact>
</mgrwt>
</event>
<event>
 8    1  0.3572165E-004  0.2316456E+03  0.7546771E-02  0.1128042E+00
          2   -1    0    0  501    0  0.00000000000E+00  0.00000000000E+00  0.22880449131E+03  0.22880449131E+03  0.00000000000E+00 0. -1.
         -2   -1    0    0    0  501 -0.00000000000E+00 -0.00000000000E+00 -0.22397266557E+03  0.22397266557E+03  0.00000000000E+00 0.  1.
         25    2    1    2    0    0  0.16259726628E+03  0.10768801413E+03  0.31083649099E+02  0.23372181713E+03  0.12500046069E+03 0.  0.
         23    2    1    2    0    0 -0.16259726628E+03 -0.10768801413E+03 -0.26251823351E+02  0.21905533975E+03  0.96236709484E+02 0.  0.
          5    1    4    4  502    0 -0.39520268030E+02 -0.64420309354E+02  0.23600061811E+02  0.79315072716E+02  0.47000000000E+01 0. -1.
         -5    1    4    4    0  502 -0.12307699825E+03 -0.43267704777E+02 -0.49851885163E+02  0.13974026703E+03  0.47000000000E+01 0.  1.
          5    1    3    3  503    0  0.12476030148E+03  0.12991414158E+03  0.47989518442E+02  0.18646152656E+03  0.47000000000E+01 0.  1.
         -5    1    3    3    0  503  0.37836964804E+02 -0.22226127446E+02 -0.16905869342E+02  0.47260290573E+02  0.47000000000E+01 0.  1.
<mgrwt>
<rscale>  0 0.22801910E+03</rscale>
<asrwt>0</asrwt>
<pdfrwt beam="1">  1        2 0.35200691E-01 0.23164562E+03</pdfrwt>
<pdfrwt beam="2">  1       -2 0.34457333E-01 0.23164562E+03</pdfrwt>
<totfact> 0.11596557E+03</totfact>
</mgrwt>
</event>
<event>
 8    1  0.3572165E-004  0.1884595E+03  0.7546771E-02  0.1164913E+00
          2   -1    0    0  501    0  0.00000000000E+00  0.00000000000E+00  0.96082508456E+02  0.96082508456E+02  0.00000000000E+00 0. -1.
         -2   -1    0    0    0  501 -0.00000000000E+00 -0.00000000000E+00 -0.49143283170E+03  0.49143283170E+03  0.00000000000E+00 0.  1.
         25    2    1    2    0    0 -0.84725351268E+02 -0.11275684159E+03 -0.37366107931E+03  0.41849682552E+03  0.12499800121E+03 0.  0.
         23    2    1    2    0    0  0.84725351268E+02  0.11275684159E+03 -0.21689243926E+02  0.16901851463E+03  0.90577836763E+02 0.  0.
          5    1    4    4  502    0  0.37881716603E+02  0.11390351158E+03 -0.20801908881E+02  0.12191736470E+03  0.47000000000E+01 0. -1.
         -5    1    3    3    0  503 -0.98943328288E+02 -0.50703428519E+02 -0.30538686945E+03  0.32502899856E+03  0.47000000000E+01 0. -1.
          5    1    3    3  503    0  0.14217977020E+02 -0.62053413068E+02 -0.68274209867E+02  0.93467826961E+02  0.47000000000E+01 0. -1.
         -5    1    4    4    0  502  0.46843634665E+02 -0.11466699934E+01 -0.88733504510E+00  0.47101149925E+02  0.47000000000E+01 0.  1.
<mgrwt>
<rscale>  0 0.18301881E+03</rscale>
<asrwt>0</asrwt>
<pdfrwt beam="1">  1        2 0.14781924E-01 0.18845952E+03</pdfrwt>
<pdfrwt beam="2">  1       -2 0.75605051E-01 0.18845952E+03</pdfrwt>
<totfact> 0.63621806E+02</totfact>
</mgrwt>
</event>
<event>
 8    1  0.3572165E-004  0.3146831E+03  0.7546771E-02  0.1079510E+00
          1   -1    0    0  501    0  0.00000000000E+00  0.00000000000E+00  0.26134624366E+04  0.26134624366E+04  0.00000000000E+00 0. -1.
         -1   -1    0    0    0  501 -0.00000000000E+00 -0.00000000000E+00 -0.36773319352E+02  0.36773319352E+02  0.00000000000E+00 0.  1.
         25    2    1    2    0    0  0.11962762250E+03 -0.26284590276E+03  0.14243612215E+04  0.14587084601E+04  0.12500698158E+03 0.  0.
         23    2    1    2    0    0 -0.11962762250E+03  0.26284590276E+03  0.11523278957E+04  0.11915272959E+04  0.92081381902E+02 0.  0.
          5    1    4    4  502    0 -0.86311471662E+02  0.20332336398E+03  0.69935671132E+03  0.73342481561E+03  0.47000000000E+01 0. -1.
         -5    1    3    3    0  503  0.10336403416E+03 -0.22311859359E+03  0.13539736109E+04  0.13761295939E+04  0.47000000000E+01 0. -1.
          5    1    3    3  503    0  0.16263588342E+02 -0.39727309173E+02  0.70387610668E+02  0.82578866154E+02  0.47000000000E+01 0. -1.
         -5    1    4    4    0  502 -0.33316150843E+02  0.59522538788E+02  0.45297118441E+03  0.45810248027E+03  0.47000000000E+01 0.  1.
<mgrwt>
<rscale>  0 0.31174995E+03</rscale>
<asrwt>0</asrwt>
<pdfrwt beam="1">  1        1 0.40207100E+00 0.31468315E+03</pdfrwt>
<pdfrwt beam="2">  1       -1 0.56574358E-02 0.31468315E+03</pdfrwt>
<totfact> 0.19252693E+02</totfact>
</mgrwt>
</event>
<event>
 8    1  0.3572165E-004  0.1861826E+03  0.7546771E-02  0.1166991E+00
         -1   -1    0    0    0  501 -0.00000000000E+00  0.00000000000E+00  0.67401803583E+02  0.67401803583E+02  0.00000000000E+00 0.  1.
          1   -1    0    0  501    0  0.00000000000E+00 -0.00000000000E+00 -0.49007028930E+03  0.49007028930E+03  0.00000000000E+00 0. -1.
         25    2    1    2    0    0  0.10665736699E+03 -0.87528970490E+02 -0.29256586740E+03  0.34678345546E+03  0.12500745419E+03 0.  0.
         23    2    1    2    0    0 -0.10665736699E+03  0.87528970490E+02 -0.13010261831E+03  0.21068863742E+03  0.91792679654E+02 0.  0.
          5    1    3    3  502    0  0.52256726888E+02  0.15214868285E+02 -0.37005577036E+02  0.65983031559E+02  0.47000000000E+01 0.  1.
         -5    1    4    4    0  503 -0.10290625341E+03  0.32269625708E+02 -0.69160451937E+02  0.12820407110E+03  0.47000000000E+01 0.  1.
          5    1    4    4  503    0 -0.37511135825E+01  0.55259344782E+02 -0.60942166376E+02  0.82484566323E+02  0.47000000000E+01 0. -1.
         -5    1    3    3    0  502  0.54400640106E+02 -0.10274383878E+03 -0.25556029036E+03  0.28080042390E+03  0.47000000000E+01 0.  1.
<mgrwt>
<rscale>  0 0.18084142E+03</rscale>
<asrwt>0</asrwt>
<pdfrwt beam="1">  1        1 0.75395431E-01 0.18618265E+03</pdfrwt>
<pdfrwt beam="2">  1       -1 0.10369508E-01 0.18618265E+03</pdfrwt>
<totfact> 0.26365784E+03</totfact>
</mgrwt>
</event>
<event>
 8    1  0.3572165E-004  0.1263372E+03  0.7546771E-02  0.1250699E+00
         -2   -1    0    0    0  501 -0.00000000000E+00  0.00000000000E+00  0.26326809221E+03  0.26326809221E+03  0.00000000000E+00 0.  1.
          2   -1    0    0  501    0  0.00000000000E+00 -0.00000000000E+00 -0.44340360701E+02  0.44340360701E+02  0.00000000000E+00 0. -1.
         25    2    1    2    0    0  0.16020489592E+02  0.89475947830E+01  0.14626858851E+03  0.19327593935E+03  0.12499749281E+03 0.  0.
         23    2    1    2    0    0 -0.16020489592E+02 -0.89475947830E+01  0.72659142995E+02  0.11433251356E+03  0.86347304856E+02 0.  0.
          5    1    4    4  502    0 -0.23541007220E+01 -0.46541551330E+02  0.48213566917E+02  0.67218270025E+02  0.47000000000E+01 0. -1.
         -5    1    3    3    0  503  0.50776358549E+01 -0.43720370286E+02  0.81916581395E+01  0.45016068541E+02  0.47000000000E+01 0. -1.
          5    1    3    3  503    0  0.10942853737E+02  0.52667965069E+02  0.13807693037E+03  0.14825987081E+03  0.47000000000E+01 0. -1.
         -5    1    4    4    0  502 -0.13666388870E+02  0.37593956547E+02  0.24445576079E+02  0.47114243530E+02  0.47000000000E+01 0.  1.
<mgrwt>
<rscale>  0 0.11550707E+03</rscale>
<asrwt>0</asrwt>
<pdfrwt beam="1">  1        2 0.68215941E-02 0.12633720E+03</pdfrwt>
<pdfrwt beam="2">  1       -2 0.40502783E-01 0.12633720E+03</pdfrwt>
<totfact> 0.57220314E+03</totfact>
</mgrwt>
</event>
<event>
 8    1  0.3572165E-004  0.1485304E+03  0.7546771E-02  0.1211817E+00
         -1   -1    0    0    0  501 -0.00000000000E+00  0.00000000000E+00  0.31551129422E+02  0.31551129422E+02  0.00000000000E+00 0.  1.
          1   -1    0    0  501    0  0.00000000000E+00 -0.00000000000E+00 -0.57612561765E+03  0.57612561765E+03  0.00000000000E+00 0. -1.
         25    2    1    2    0    0 -0.77874344205E+02 -0.19328284263E+02 -0.30585124704E+03  0.34000920133E+03  0.12499310229E+03 0.  0.
         23    2    1    2    0    0  0.77874344205E+02  0.19328284263E+02 -0.23872324119E+03  0.26766754574E+03  0.90659434691E+02 0.  0.
          5    1    3    3  502    0 -0.56777842737E+02  0.37219991790E+02 -0.24459733639E+03  0.25388776690E+03  0.47000000000E+01 0.  1.
         -5    1    4    4    0  503  0.49439208198E+02  0.41936556510E+02 -0.72137761608E+02  0.97102300328E+02  0.47000000000E+01 0.  1.
          5    1    4    4  503    0  0.28435136007E+02 -0.22608272247E+02 -0.16658547958E+03  0.17056524541E+03  0.47000000000E+01 0. -1.
         -5    1    3    3    0  502 -0.21096501467E+02 -0.56548276052E+02 -0.61253910647E+02  0.86121434429E+02  0.47000000000E+01 0.  1.
<mgrwt>
<rscale>  0 0.14112942E+03</rscale>
<asrwt>0</asrwt>
<pdfrwt beam="1">  1        1 0.88634699E-01 0.14853037E+03</pdfrwt>
<pdfrwt beam="2">  1       -1 0.48540205E-02 0.14853037E+03</pdfrwt>
<totfact> 0.66190364E+03</totfact>
</mgrwt>
</event>
<event>
 8    1  0.3572165E-004  0.1521998E+03  0.7546771E-02  0.1208477E+00
          4   -1    0    0  501    0  0.00000000000E+00  0.00000000000E+00  0.38855802892E+02  0.38855802892E+02  0.00000000000E+00 0.  1.
         -4   -1    0    0    0  501 -0.00000000000E+00 -0.00000000000E+00 -0.51122753304E+03  0.51122753304E+03  0.00000000000E+00 0. -1.
         25    2    1    2    0    0 -0.65140911859E+02 -0.57459801454E+02 -0.32957231089E+03  0.36301884076E+03  0.12497921213E+03 0.  0.
         23    2    1    2    0    0  0.65140911859E+02  0.57459801454E+02 -0.14279941926E+03  0.18706449517E+03  0.84002881089E+02 0.  0.
          5    1    3    3  502    0 -0.30393383234E+02 -0.54893436819E+02 -0.47689691005E+02  0.78952161328E+02  0.47000000000E+01 0. -1.
         -5    1    4    4    0  503  0.56744651800E+02  0.99771026642E+00 -0.10173304154E+03  0.11658753224E+03  0.47000000000E+01 0.  1.
          5    1    4    4  503    0  0.83962600587E+01  0.56462091188E+02 -0.41066377720E+02  0.70476962926E+02  0.47000000000E+01 0. -1.
         -5    1    3    3    0  502 -0.34747528625E+02 -0.25663646356E+01 -0.28188261988E+03  0.28406667943E+03  0.47000000000E+01 0. -1.
<mgrwt>
<rscale>  0 0.14366799E+03</rscale>
<asrwt>0</asrwt>
<pdfrwt beam="1">  1        4 0.59778160E-02 0.15219977E+03</pdfrwt>
<pdfrwt beam="2">  1       -4 0.78650388E-01 0.15219977E+03</pdfrwt>
<totfact> 0.44776521E+02</totfact>
</mgrwt>
</event>
<event>
 8    1  0.3572165E-004  0.2461801E+03  0.7546771E-02  0.1118447E+00
          1   -1    0    0  501    0  0.00000000000E+00  0.00000000000E+00  0.44734107552E+03  0.44734107552E+03  0.00000000000E+00 0. -1.
         -1   -1    0    0    0  501 -0.00000000000E+00 -0.00000000000E+00 -0.13240589907E+03  0.13240589907E+03  0.00000000000E+00 0.  1.
         25    2    1    2    0    0 -0.37082743068E+02  0.20881243346E+03  0.22262303473E+03  0.33191213101E+03  0.12500753945E+03 0.  0.
         23    2    1    2    0    0  0.37082743068E+02 -0.20881243346E+03  0.92312141724E+02  0.24783484358E+03  0.89010201553E+02 0.  0.
          5    1    4    4  502    0  0.34717378919E+02 -0.94954033302E+02  0.87439271708E+02  0.13375081710E+03  0.47000000000E+01 0. -1.
         -5    1    3    3    0  503 -0.24665463894E+02  0.97985842731E+02  0.23821524398E+02  0.10391903343E+03  0.47000000000E+01 0.  1.
          5    1    3    3  503    0 -0.12417279174E+02  0.11082659073E+03  0.19880151033E+03  0.22799309758E+03  0.47000000000E+01 0.  1.
         -5    1    4    4    0  502  0.23653641488E+01 -0.11385840016E+03  0.48728700158E+01  0.11408402647E+03  0.47000000000E+01 0.  1.
<mgrwt>
<rscale>  0 0.24203171E+03</rscale>
<asrwt>0</asrwt>
<pdfrwt beam="1">  1        1 0.68821703E-01 0.24618011E+03</pdfrwt>
<pdfrwt beam="2">  1       -1 0.20370139E-01 0.24618011E+03</pdfrwt>
<totfact> 0.10254400E+03</totfact>
</mgrwt>
</event>
<event>
 8    1  0.3572165E-004  0.1561027E+03  0.7546771E-02  0.1201320E+00
          2   -1    0    0  501    0  0.00000000000E+00  0.00000000000E+00  0.14491650423E+03  0.14491650423E+03  0.00000000000E+00 0. -1.
         -2   -1    0    0    0  501 -0.00000000000E+00 -0.00000000000E+00 -0.14862052184E+03  0.14862052184E+03  0.00000000000E+00 0.  1.
         25    2    1    2    0    0 -0.92518502347E+02  0.13642314433E+02  0.29158644319E+02  0.15880264095E+03  0.12498906438E+03 0.  0.
         23    2    1    2    0    0  0.92518502347E+02 -0.13642314433E+02 -0.32862661924E+02  0.13473438512E+03  0.91255761276E+02 0.  0.
          5    1    3    3  502    0 -0.13795467266E+02  0.20217159991E+02  0.66706314665E+02  0.71210047686E+02  0.47000000000E+01 0. -1.
         -5    1    4    4    0  503  0.57993800951E+02 -0.32855361836E+02 -0.57314015585E+02  0.88032619707E+02  0.47000000000E+01 0.  1.
          5    1    4    4  503    0  0.34524701396E+02  0.19213047404E+02  0.24451353661E+02  0.46701765415E+02  0.47000000000E+01 0. -1.
         -5    1    3    3    0  502 -0.78723035081E+02 -0.65748455581E+01 -0.37547670346E+02  0.87592593265E+02  0.47000000000E+01 0. -1.
<mgrwt>
<rscale>  0 0.14931306E+03</rscale>
<asrwt>0</asrwt>
<pdfrwt beam="1">  1        2 0.22294847E-01 0.15610270E+03</pdfrwt>
<pdfrwt beam="2">  1       -2 0.22864696E-01 0.15610270E+03</pdfrwt>
<totfact> 0.39437166E+03</totfact>
</mgrwt>
</event>
<event>
 8    1  0.3572165E-004  0.2210162E+03  0.7546771E-02  0.1136572E+00
         -2   -1    0    0    0  501 -0.00000000000E+00  0.00000000000E+00  0.47127814908E+02  0.47127814908E+02  0.00000000000E+00 0. -1.
          2   -1    0    0  501    0  0.00000000000E+00 -0.00000000000E+00 -0.11354107753E+04  0.11354107753E+04  0.00000000000E+00 0.  1.
         25    2    1    2    0    0  0.18225916384E+03  0.22485827963E+01 -0.32767584831E+03  0.39524630022E+03  0.12499886937E+03 0.  0.
         23    2    1    2    0    0 -0.18225916384E+03 -0.22485827963E+01 -0.76060711209E+03  0.78729229000E+03  0.89902791910E+02 0.  0.
          5    1    4    4  502    0 -0.16646954036E+02  0.26938418624E+02 -0.17913619689E+03  0.18197435675E+03  0.47000000000E+01 0. -1.
         -5    1    3    3    0  503  0.73553687228E+02 -0.20809642064E+02 -0.39122025400E+02  0.85998889406E+02  0.47000000000E+01 0. -1.
          5    1    3    3  503    0  0.10870547662E+03  0.23058224860E+02 -0.28855382291E+03  0.30924741082E+03  0.47000000000E+01 0. -1.
         -5    1    4    4    0  502 -0.16561220981E+03 -0.29187001420E+02 -0.58147091520E+03  0.60531793325E+03  0.47000000000E+01 0.  1.
<mgrwt>
<rscale>  0 0.21643114E+03</rscale>
<asrwt>0</asrwt>
<pdfrwt beam="1">  1        2 0.17467855E+00 0.22101624E+03</pdfrwt>
<pdfrwt beam="2">  1       -2 0.72504342E-02 0.22101624E+03</pdfrwt>
<totfact> 0.23968971E+03</totfact>
</mgrwt>
</event>
<event>
 8    1  0.3572165E-004  0.1690404E+03  0.7546771E-02  0.1185276E+00
         -2   -1    0    0    0  501 -0.00000000000E+00  0.00000000000E+00  0.13944091834E+03  0.13944091834E+03  0.00000000000E+00 0.  1.
          2   -1    0    0  501    0  0.00000000000E+00 -0.00000000000E+00 -0.23121365649E+03  0.23121365649E+03  0.00000000000E+00 0. -1.
         25    2    1    2    0    0  0.11164372722E+03 -0.22047441262E+02 -0.13684180988E+03  0.21748637469E+03  0.12499692296E+03 0.  0.
         23    2    1    2    0    0 -0.11164372722E+03  0.22047441262E+02  0.45069071732E+02  0.15316820014E+03  0.92080751601E+02 0.  0.
          5    1    4    4  502    0 -0.79045636724E+02 -0.11501249395E+02 -0.10137884216E+02  0.80655800282E+02  0.47000000000E+01 0. -1.
         -5    1    3    3    0  503  0.92553362044E+02 -0.49077654145E+02 -0.14875527460E+03  0.18200264472E+03  0.47000000000E+01 0. -1.
          5    1    3    3  503    0  0.19090365172E+02  0.27030212883E+02  0.11913464720E+02  0.35483729969E+02  0.47000000000E+01 0. -1.
         -5    1    4    4    0  502 -0.32598090492E+02  0.33548690657E+02  0.55206955948E+02  0.72512399861E+02  0.47000000000E+01 0.  1.
<mgrwt>
<rscale>  0 0.16306800E+03</rscale>
<asrwt>0</asrwt>
<pdfrwt beam="1">  1        2 0.35571331E-01 0.16904036E+03</pdfrwt>
<pdfrwt beam="2">  1       -2 0.21452449E-01 0.16904036E+03</pdfrwt>
<totfact> 0.26468446E+03</totfact>
</mgrwt>
</event>
<event>
 8    1  0.3572165E-004  0.1259767E+03  0.7546771E-02  0.1248374E+00
          1   -1    0    0  501    0  0.00000000000E+00  0.00000000000E+00  0.32466236971E+03  0.32466236971E+03  0.00000000000E+00 0. -1.
         -1   -1    0    0    0  501 -0.00000000000E+00 -0.00000000000E+00 -0.41079166079E+02  0.41079166079E+02  0.00000000000E+00 0.  1.
         25    2    1    2    0    0  0.10899554419E+02  0.11282202350E+02  0.21778965976E+03  0.25159981629E+03  0.12499617307E+03 0.  0.
         23    2    1    2    0    0 -0.10899554419E+02 -0.11282202350E+02  0.65793543874E+02  0.11414171950E+03  0.91942663323E+02 0.  0.
          5    1    4    4  502    0  0.18615501410E+02 -0.37967939986E+02  0.60154276783E+02  0.73679904824E+02  0.47000000000E+01 0. -1.
         -5    1    4    4    0  502 -0.29515055829E+02  0.26685737635E+02  0.56392670901E+01  0.40461814678E+02  0.47000000000E+01 0.  1.
          5    1    3    3  503    0 -0.54777995136E+01 -0.49363414161E+02  0.15428926369E+03  0.16215430872E+03  0.47000000000E+01 0. -1.
         -5    1    3    3    0  503  0.16377353933E+02  0.60645616512E+02  0.63500396070E+02  0.89445507573E+02  0.47000000000E+01 0. -1.
<mgrwt>
<rscale>  0 0.11685700E+03</rscale>
<asrwt>0</asrwt>
<pdfrwt beam="1">  1        1 0.49948055E-01 0.12597671E+03</pdfrwt>
<pdfrwt beam="2">  1       -1 0.63198719E-02 0.12597671E+03</pdfrwt>
<totfact> 0.92234664E+03</totfact>
</mgrwt>
</event>
<event>
 8    1  0.3572165E-004  0.1402136E+03  0.7546771E-02  0.1223870E+00
          1   -1    0    0  501    0  0.00000000000E+00  0.00000000000E+00  0.13612089656E+03  0.13612089656E+03  0.00000000000E+00 0. -1.
         -1   -1    0    0    0  501 -0.00000000000E+00 -0.00000000000E+00 -0.13483355313E+03  0.13483355313E+03  0.00000000000E+00 0.  1.
         25    2    1    2    0    0  0.81175667854E+01  0.62984231082E+02  0.50400011719E+02  0.14899672908E+03  0.12500782311E+03 0.  0.
         23    2    1    2    0    0 -0.81175667854E+01 -0.62984231082E+02 -0.49112668290E+02  0.12195772062E+03  0.91808077943E+02 0.  0.
          5    1    3    3  502    0 -0.52543147525E+02  0.39786485540E+02 -0.93282331067E+00  0.66081063420E+02  0.47000000000E+01 0. -1.
         -5    1    3    3    0  502  0.60660714311E+02  0.23197745542E+02  0.51332835029E+02  0.82915665655E+02  0.47000000000E+01 0. -1.
          5    1    4    4  503    0 -0.33470425631E+02 -0.31240460931E+02  0.12786642758E+02  0.47768441718E+02  0.47000000000E+01 0. -1.
         -5    1    4    4    0  503  0.25352858846E+02 -0.31743770150E+02 -0.61899311049E+02  0.74189278897E+02  0.47000000000E+01 0.  1.
<mgrwt>
<rscale>  0 0.13244622E+03</rscale>
<asrwt>0</asrwt>
<pdfrwt beam="1">  1        1 0.20941676E-01 0.14021364E+03</pdfrwt>
<pdfrwt beam="2">  1       -1 0.20743624E-01 0.14021364E+03</pdfrwt>
<totfact> 0.43834866E+03</totfact>
</mgrwt>
</event>
<event>
 8    1  0.3572165E-004  0.1450893E+03  0.7546771E-02  0.1216289E+00
         -1   -1    0    0    0  501 -0.00000000000E+00  0.00000000000E+00  0.38028113629E+02  0.38028113629E+02  0.00000000000E+00 0.  1.
          1   -1    0    0  501    0  0.00000000000E+00 -0.00000000000E+00 -0.55494127712E+03  0.55494127712E+03  0.00000000000E+00 0. -1.
         25    2    1    2    0    0  0.73355516567E+02  0.67515539624E+01 -0.15521381541E+03  0.21246704274E+03  0.12499720183E+03 0.  0.
         23    2    1    2    0    0 -0.73355516567E+02 -0.67515539624E+01 -0.36169934808E+03  0.38050234801E+03  0.92352602278E+02 0.  0.
          5    1    3    3  502    0 -0.48746769164E+01 -0.29510095569E+02 -0.11177534457E+03  0.11580339317E+03  0.47000000000E+01 0.  1.
         -5    1    3    3    0  502  0.78230193483E+02  0.36261649532E+02 -0.43438470839E+02  0.96663649569E+02  0.47000000000E+01 0.  1.
          5    1    4    4  503    0 -0.51554612874E+02  0.30818445221E+02 -0.29268117835E+03  0.29881769833E+03  0.47000000000E+01 0. -1.
         -5    1    4    4    0  503 -0.21800903693E+02 -0.37569999184E+02 -0.69018169730E+02  0.81684649681E+02  0.47000000000E+01 0.  1.
<mgrwt>
<rscale>  0 0.13782254E+03</rscale>
<asrwt>0</asrwt>
<pdfrwt beam="1">  1        1 0.85375577E-01 0.14508934E+03</pdfrwt>
<pdfrwt beam="2">  1       -1 0.58504793E-02 0.14508934E+03</pdfrwt>
<totfact> 0.52679783E+03</totfact>
</mgrwt>
</event>
<event>
 8    1  0.3572165E-004  0.1592294E+03  0.7546771E-02  0.1195316E+00
         -2   -1    0    0    0  501 -0.00000000000E+00  0.00000000000E+00  0.70695645853E+03  0.70695645853E+03  0.00000000000E+00 0.  1.
          2   -1    0    0  501    0  0.00000000000E+00 -0.00000000000E+00 -0.69025878711E+02  0.69025878711E+02  0.00000000000E+00 0. -1.
         25    2    1    2    0    0 -0.16237568562E+02  0.97293531977E+02  0.61315550554E+03  0.63349323476E+03  0.12499725805E+03 0.  0.
         23    2    1    2    0    0  0.16237568562E+02 -0.97293531977E+02  0.24775074285E+02  0.14248910248E+03  0.99798046189E+02 0.  0.
          5    1    4    4  502    0  0.52040523040E+02 -0.70706584021E+02 -0.59669246755E+01  0.88121116949E+02  0.47000000000E+01 0. -1.
         -5    1    3    3    0  503  0.51520086196E+02  0.66684446328E+02  0.34597852767E+03  0.35612408830E+03  0.47000000000E+01 0. -1.
          5    1    3    3  503    0 -0.67757654758E+02  0.30609085649E+02  0.26717697787E+03  0.27736914646E+03  0.47000000000E+01 0. -1.
         -5    1    4    4    0  502 -0.35802954478E+02 -0.26586947956E+02  0.30741998960E+02  0.54367985534E+02  0.47000000000E+01 0.  1.
<mgrwt>
<rscale>  0 0.15427528E+03</rscale>
<asrwt>0</asrwt>
<pdfrwt beam="1">  1        2 0.10619366E-01 0.15922941E+03</pdfrwt>
<pdfrwt beam="2">  1       -2 0.10876253E+00 0.15922941E+03</pdfrwt>
<totfact> 0.41491553E+02</totfact>
</mgrwt>
</event>
<event>
 8    1  0.3572165E-004  0.1297421E+03  0.7546771E-02  0.1240654E+00
          2   -1    0    0  501    0  0.00000000000E+00  0.00000000000E+00  0.40406645736E+03  0.40406645736E+03  0.00000000000E+00 0.  1.
         -2   -1    0    0    0  501 -0.00000000000E+00 -0.00000000000E+00 -0.32843378861E+02  0.32843378861E+02  0.00000000000E+00 0. -1.
         25    2    1    2    0    0  0.17911623169E+02  0.29773050435E+02  0.19059656685E+03  0.23056465160E+03  0.12500298595E+03 0.  0.
         23    2    1    2    0    0 -0.17911623169E+02 -0.29773050435E+02  0.18062651165E+03  0.20634518462E+03  0.93515441125E+02 0.  0.
          5    1    4    4  502    0  0.10049393327E+02 -0.24354036193E+02  0.36262170159E+01  0.27006459134E+02  0.47000000000E+01 0. -1.
         -5    1    4    4    0  502 -0.27961016496E+02 -0.54190142423E+01  0.17700029463E+03  0.17933872549E+03  0.47000000000E+01 0.  1.
          5    1    3    3  503    0 -0.68700461076E+01 -0.38526586123E+02  0.18181309038E+02  0.43406743372E+02  0.47000000000E+01 0.  1.
         -5    1    3    3    0  503  0.24781669277E+02  0.68299636558E+02  0.17241525781E+03  0.18715790823E+03  0.47000000000E+01 0.  1.
<mgrwt>
<rscale>  0 0.12149310E+03</rscale>
<asrwt>0</asrwt>
<pdfrwt beam="1">  1        2 0.62164067E-01 0.12974208E+03</pdfrwt>
<pdfrwt beam="2">  1       -2 0.50528278E-02 0.12974208E+03</pdfrwt>
<totfact> 0.14298473E+04</totfact>
</mgrwt>
</event>
<event>
 8    1  0.3572165E-004  0.1660823E+03  0.7546771E-02  0.1188720E+00
         -2   -1    0    0    0  501 -0.00000000000E+00  0.00000000000E+00  0.60818384257E+02  0.60818384257E+02  0.00000000000E+00 0.  1.
          2   -1    0    0  501    0  0.00000000000E+00 -0.00000000000E+00 -0.39810915924E+03  0.39810915924E+03  0.00000000000E+00 0. -1.
         25    2    1    2    0    0 -0.76919835345E+02 -0.77737099999E+02 -0.20786660202E+03  0.26606737536E+03  0.12499442471E+03 0.  0.
         23    2    1    2    0    0  0.76919835345E+02  0.77737099999E+02 -0.12942417296E+03  0.19286016814E+03  0.92112486242E+02 0.  0.
          5    1    3    3  502    0 -0.10920286057E+03 -0.66871879580E+02 -0.18395893102E+03  0.22418762530E+03  0.47000000000E+01 0. -1.
         -5    1    3    3    0  502  0.32283025225E+02 -0.10865220419E+02 -0.23907671002E+02  0.41879750061E+02  0.47000000000E+01 0. -1.
          5    1    4    4  503    0 -0.77022170195E+01  0.54031644448E+02 -0.44750781955E+02  0.70735176782E+02  0.47000000000E+01 0. -1.
         -5    1    4    4    0  503  0.84622052364E+02  0.23705455551E+02 -0.84673391009E+02  0.12212499136E+03  0.47000000000E+01 0.  1.
<mgrwt>
<rscale>  0 0.15997950E+03</rscale>
<asrwt>0</asrwt>
<pdfrwt beam="1">  1        2 0.61247562E-01 0.16608228E+03</pdfrwt>
<pdfrwt beam="2">  1       -2 0.93566747E-02 0.16608228E+03</pdfrwt>
<totfact> 0.57443223E+03</totfact>
</mgrwt>
</event>
<event>
 8    1  0.3572165E-004  0.1261598E+03  0.7546771E-02  0.1249771E+00
         -1   -1    0    0    0  501 -0.00000000000E+00  0.00000000000E+00  0.93755357053E+02  0.93755357053E+02  0.00000000000E+00 0.  1.
          1   -1    0    0  501    0  0.00000000000E+00 -0.00000000000E+00 -0.13847255324E+03  0.13847255324E+03  0.00000000000E+00 0. -1.
         25    2    1    2    0    0 -0.44180058241E+01  0.16318783246E+02  0.10139572527E+02  0.12656660995E+03  0.12502189552E+03 0.  0.
         23    2    1    2    0    0  0.44180058241E+01 -0.16318783246E+02 -0.54856768718E+02  0.10566130035E+03  0.88708645889E+02 0.  0.
          5    1    3    3  502    0 -0.29556121621E+02 -0.41508881818E+02 -0.21924051591E+02  0.55671407681E+02  0.47000000000E+01 0. -1.
         -5    1    3    3    0  502  0.25138115797E+02  0.57827665064E+02  0.32063624118E+02  0.70895202265E+02  0.47000000000E+01 0. -1.
          5    1    4    4  503    0  0.12178433538E+02 -0.51914997706E+02 -0.30982694538E+02  0.61850615123E+02  0.47000000000E+01 0. -1.
         -5    1    4    4    0  503 -0.77604277141E+01  0.35596214459E+02 -0.23874074180E+02  0.43810685227E+02  0.47000000000E+01 0.  1.
<mgrwt>
<rscale>  0 0.11604303E+03</rscale>
<asrwt>0</asrwt>
<pdfrwt beam="1">  1        1 0.21303470E-01 0.12615980E+03</pdfrwt>
<pdfrwt beam="2">  1       -1 0.14423901E-01 0.12615980E+03</pdfrwt>
<totfact> 0.75756279E+03</totfact>
</mgrwt>
</event>
<event>
 8    1  0.3572165E-004  0.1268079E+03  0.7546771E-02  0.1246310E+00
         -1   -1    0    0    0  501 -0.00000000000E+00  0.00000000000E+00  0.21259276683E+03  0.21259276683E+03  0.00000000000E+00 0.  1.
          1   -1    0    0  501    0  0.00000000000E+00 -0.00000000000E+00 -0.58311835270E+02  0.58311835270E+02  0.00000000000E+00 0. -1.
         25    2    1    2    0    0 -0.32259518913E+01  0.21092278474E+02  0.97498894542E+02  0.15995707579E+03  0.12499976273E+03 0.  0.
         23    2    1    2    0    0  0.32259518913E+01 -0.21092278474E+02  0.56782037019E+02  0.11094752631E+03  0.92897055333E+02 0.  0.
          5    1    3    3  502    0  0.80436422711E+01  0.51592147927E+02  0.11229153912E+03  0.12392711433E+03  0.47000000000E+01 0.  1.
         -5    1    4    4    0  503  0.36337017297E+02  0.20459284741E+02  0.25912708465E+02  0.49320580067E+02  0.47000000000E+01 0.  1.
          5    1    4    4  503    0 -0.33111065406E+02 -0.41551563215E+02  0.30869328554E+02  0.61626946244E+02  0.47000000000E+01 0. -1.
         -5    1    3    3    0  502 -0.11269594162E+02 -0.30499869453E+02 -0.14792644576E+02  0.36029961460E+02  0.47000000000E+01 0.  1.
<mgrwt>
<rscale>  0 0.11807315E+03</rscale>
<asrwt>0</asrwt>
<pdfrwt beam="1">  1        1 0.89710517E-02 0.12680785E+03</pdfrwt>
<pdfrwt beam="2">  1       -1 0.32706579E-01 0.12680785E+03</pdfrwt>
<totfact> 0.61831024E+03</totfact>
</mgrwt>
</event>
<event>
 8    1  0.3572165E-004  0.1300495E+03  0.7546771E-02  0.1239663E+00
         -1   -1    0    0    0  501 -0.00000000000E+00  0.00000000000E+00  0.12959211697E+02  0.12959211697E+02  0.00000000000E+00 0.  1.
          1   -1    0    0  501    0  0.00000000000E+00 -0.00000000000E+00 -0.10862947749E+04  0.10862947749E+04  0.00000000000E+00 0. -1.
         25    2    1    2    0    0 -0.32867872691E+02  0.14348635695E+02 -0.72417994199E+03  0.73576454131E+03  0.12500676571E+03 0.  0.
         23    2    1    2    0    0  0.32867872691E+02 -0.14348635695E+02 -0.34915562121E+03  0.36348944528E+03  0.94492055786E+02 0.  0.
          5    1    4    4  502    0  0.55280743181E+02 -0.38073337709E+02 -0.25493737258E+03  0.26366777116E+03  0.47000000000E+01 0. -1.
         -5    1    3    3    0  503 -0.27358139783E+02 -0.52386182165E+02 -0.42710252569E+03  0.43119767781E+03  0.47000000000E+01 0. -1.
          5    1    3    3  503    0 -0.55097329076E+01  0.66734817860E+02 -0.29707741630E+03  0.30456686350E+03  0.47000000000E+01 0. -1.
         -5    1    4    4    0  502 -0.22412870490E+02  0.23724702014E+02 -0.94218248632E+02  0.99821674122E+02  0.47000000000E+01 0.  1.
<mgrwt>
<rscale>  0 0.12210570E+03</rscale>
<asrwt>0</asrwt>
<pdfrwt beam="1">  1        1 0.16712227E+00 0.13004950E+03</pdfrwt>
<pdfrwt beam="2">  1       -1 0.19937250E-02 0.13004950E+03</pdfrwt>
<totfact> 0.91790262E+03</totfact>
</mgrwt>
</event>
<event>
 8    1  0.3572165E-004  0.1415316E+03  0.7546771E-02  0.1221602E+00
          1   -1    0    0  501    0  0.00000000000E+00  0.00000000000E+00  0.36256696733E+03  0.36256696733E+03  0.00000000000E+00 0. -1.
         -1   -1    0    0    0  501 -0.00000000000E+00 -0.00000000000E+00 -0.47727975997E+02  0.47727975997E+02  0.00000000000E+00 0.  1.
         25    2    1    2    0    0 -0.50496145322E+02 -0.43084057243E+02  0.22266974296E+03  0.26384278551E+03  0.12500041742E+03 0.  0.
         23    2    1    2    0    0  0.50496145322E+02  0.43084057243E+02  0.92169248367E+02  0.14645215781E+03  0.92449810721E+02 0.  0.
          5    1    3    3  502    0  0.40361592434E+02 -0.45922595249E+01  0.85798443300E+02  0.95045304271E+02  0.47000000000E+01 0.  1.
         -5    1    3    3    0  502 -0.90857737756E+02 -0.38491797718E+02  0.13687129966E+03  0.16879748124E+03  0.47000000000E+01 0.  1.
          5    1    4    4  503    0  0.52149010776E+02 -0.15385069132E+02  0.37201071420E+02  0.66047175503E+02  0.47000000000E+01 0. -1.
         -5    1    4    4    0  503 -0.16528654546E+01  0.58469126375E+02  0.54968176946E+02  0.80404982308E+02  0.47000000000E+01 0.  1.
<mgrwt>
<rscale>  0 0.13402527E+03</rscale>
<asrwt>0</asrwt>
<pdfrwt beam="1">  1        1 0.55779532E-01 0.14153163E+03</pdfrwt>
<pdfrwt beam="2">  1       -1 0.73427658E-02 0.14153163E+03</pdfrwt>
<totfact> 0.64726337E+03</totfact>
</mgrwt>
</event>
<event>
 8    1  0.3572165E-004  0.1602035E+03  0.7546771E-02  0.1196356E+00
         -2   -1    0    0    0  501 -0.00000000000E+00  0.00000000000E+00  0.12970023491E+03  0.12970023491E+03  0.00000000000E+00 0.  1.
          2   -1    0    0  501    0  0.00000000000E+00 -0.00000000000E+00 -0.17538164851E+03  0.17538164851E+03  0.00000000000E+00 0. -1.
         25    2    1    2    0    0  0.99591512259E+02  0.10964995261E+02 -0.56737014310E+02  0.16995368197E+03  0.12500585901E+03 0.  0.
         23    2    1    2    0    0 -0.99591512259E+02 -0.10964995261E+02  0.11055600714E+02  0.13512820145E+03  0.89992800187E+02 0.  0.
          5    1    3    3  502    0  0.12374762255E+03  0.72268225408E+01 -0.20106826366E+02  0.12566652505E+03  0.47000000000E+01 0.  1.
         -5    1    4    4    0  503 -0.29845578674E+02  0.48064794735E+01  0.46123025371E+02  0.55346944637E+02  0.47000000000E+01 0.  1.
          5    1    4    4  503    0 -0.69745933585E+02 -0.15771474735E+02 -0.35067424657E+02  0.79781256815E+02  0.47000000000E+01 0. -1.
         -5    1    3    3    0  502 -0.24156110289E+02  0.37381727203E+01 -0.36630187944E+02  0.44287156924E+02  0.47000000000E+01 0.  1.
<mgrwt>
<rscale>  0 0.15340020E+03</rscale>
<asrwt>0</asrwt>
<pdfrwt beam="1">  1        2 0.26981792E-01 0.16020351E+03</pdfrwt>
<pdfrwt beam="2">  1       -2 0.19953882E-01 0.16020351E+03</pdfrwt>
<totfact> 0.40348995E+03</totfact>
</mgrwt>
</event>
<event>
 8    1  0.3572165E-004  0.1322767E+03  0.7546771E-02  0.1235868E+00
         -1   -1    0    0    0  501 -0.00000000000E+00  0.00000000000E+00  0.18430125976E+03  0.18430125976E+03  0.00000000000E+00 0.  1.
          1   -1    0    0  501    0  0.00000000000E+00 -0.00000000000E+00 -0.86481473345E+02  0.86481473345E+02  0.00000000000E+00 0. -1.
         25    2    1    2    0    0  0.30122584116E+02 -0.31060975926E+02  0.10182803080E+03  0.16693136802E+03  0.12499991790E+03 0.  0.
         23    2    1    2    0    0 -0.30122584116E+02  0.31060975926E+02 -0.40082443867E+01  0.10385136508E+03  0.94323304155E+02 0.  0.
          5    1    3    3  502    0  0.24774557247E+02  0.44054918414E+02  0.17305124644E+02  0.53629953032E+02  0.47000000000E+01 0.  1.
         -5    1    3    3    0  502  0.53480268686E+01 -0.75115894340E+02  0.84522906159E+02  0.11330141499E+03  0.47000000000E+01 0.  1.
          5    1    4    4  503    0 -0.70131913752E+01 -0.29009609749E+02 -0.21389160988E+02  0.37017948604E+02  0.47000000000E+01 0. -1.
         -5    1    4    4    0  503 -0.23109392741E+02  0.60070585674E+02  0.17380916601E+02  0.66833416477E+02  0.47000000000E+01 0.  1.
<mgrwt>
<rscale>  0 0.12449007E+03</rscale>
<asrwt>0</asrwt>
<pdfrwt beam="1">  1        1 0.13304842E-01 0.13227673E+03</pdfrwt>
<pdfrwt beam="2">  1       -1 0.28354040E-01 0.13227673E+03</pdfrwt>
<totfact> 0.46912426E+03</totfact>
</mgrwt>
</event>
<event>
 8    1  0.3572165E-004  0.1268246E+03  0.7546771E-02  0.1245576E+00
         -2   -1    0    0    0  501 -0.00000000000E+00  0.00000000000E+00  0.91003639578E+02  0.91003639578E+02  0.00000000000E+00 0.  1.
          2   -1    0    0  501    0  0.00000000000E+00 -0.00000000000E+00 -0.15656754376E+03  0.15656754376E+03  0.00000000000E+00 0. -1.
         25    2    1    2    0    0 -0.17039470461E+02 -0.13040067170E+02  0.64768530160E+01  0.12698985772E+03  0.12499634968E+03 0.  0.
         23    2    1    2    0    0  0.17039470461E+02  0.13040067170E+02 -0.72040757202E+02  0.12058132562E+03  0.94284667281E+02 0.  0.
          5    1    3    3  502    0  0.52615676561E+02  0.69162453815E+01 -0.48727127437E+01  0.53498385019E+02  0.47000000000E+01 0. -1.
         -5    1    3    3    0  502 -0.69655147022E+02 -0.19956312552E+02  0.11349565760E+02  0.73491472704E+02  0.47000000000E+01 0. -1.
          5    1    4    4  503    0  0.90694181155E+01  0.41729693785E+02 -0.78743024608E+02  0.89700477216E+02  0.47000000000E+01 0. -1.
         -5    1    4    4    0  503  0.79700523456E+01 -0.28689626615E+02  0.67022674060E+01  0.30880848403E+02  0.47000000000E+01 0.  1.
<mgrwt>
<rscale>  0 0.11850971E+03</rscale>
<asrwt>0</asrwt>
<pdfrwt beam="1">  1        2 0.24087314E-01 0.12682458E+03</pdfrwt>
<pdfrwt beam="2">  1       -2 0.14000560E-01 0.12682458E+03</pdfrwt>
<totfact> 0.81012000E+03</totfact>
</mgrwt>
</event>
<event>
 8    1  0.3572165E-004  0.1407151E+03  0.7546771E-02  0.1226242E+00
          2   -1    0    0  501    0  0.00000000000E+00  0.00000000000E+00  0.84233240591E+03  0.84233240591E+03  0.00000000000E+00 0. -1.
         -2   -1    0    0    0  501 -0.00000000000E+00 -0.00000000000E+00 -0.18015955025E+02  0.18015955025E+02  0.00000000000E+00 0.  1.
         25    2    1    2    0    0  0.45313966567E+02  0.46058109665E+02  0.44341337948E+03  0.46520551572E+03  0.12500416681E+03 0.  0.
         23    2    1    2    0    0 -0.45313966567E+02 -0.46058109665E+02  0.38090307141E+03  0.39514284522E+03  0.82921729901E+02 0.  0.
          5    1    4    4  502    0 -0.13981988666E+01 -0.58685323674E+02  0.22856674225E+03  0.23603128572E+03  0.47000000000E+01 0. -1.
         -5    1    4    4    0  502 -0.43915767701E+02  0.12627214009E+02  0.15233632916E+03  0.15911155950E+03  0.47000000000E+01 0.  1.
          5    1    3    3  503    0  0.32692983385E+02  0.82061753120E+02  0.38672490330E+03  0.39671299868E+03  0.47000000000E+01 0.  1.
         -5    1    3    3    0  503  0.12620983182E+02 -0.36003643455E+02  0.56688476178E+02  0.68492517036E+02  0.47000000000E+01 0.  1.
<mgrwt>
<rscale>  0 0.13082158E+03</rscale>
<asrwt>0</asrwt>
<pdfrwt beam="1">  1        2 0.12958957E+00 0.14071513E+03</pdfrwt>
<pdfrwt beam="2">  1       -2 0.27716860E-02 0.14071513E+03</pdfrwt>
<totfact> 0.15128182E+04</totfact>
</mgrwt>
</event>
<event>
 8    1  0.3572165E-004  0.2226035E+03  0.7546771E-02  0.1135041E+00
         -2   -1    0    0    0  501 -0.00000000000E+00  0.00000000000E+00  0.51897675548E+03  0.51897675548E+03  0.00000000000E+00 0.  1.
          2   -1    0    0  501    0  0.00000000000E+00 -0.00000000000E+00 -0.10592007254E+03  0.10592007254E+03  0.00000000000E+00 0. -1.
         25    2    1    2    0    0 -0.16145279422E+03 -0.88659575814E+02  0.33899804267E+03  0.40555145509E+03  0.12499913857E+03 0.  0.
         23    2    1    2    0    0  0.16145279422E+03  0.88659575814E+02  0.74058640260E+02  0.21934537293E+03  0.93274783755E+02 0.  0.
          5    1    3    3  502    0 -0.17913927534E+03 -0.60968428663E+02  0.28348342855E+03  0.34087090449E+03  0.47000000000E+01 0. -1.
         -5    1    4    4    0  503  0.55638316321E+02  0.35936750081E+02  0.76120310403E+02  0.10101219681E+03  0.47000000000E+01 0.  1.
          5    1    4    4  503    0  0.10581447790E+03  0.52722825733E+02 -0.20616701425E+01  0.11833317612E+03  0.47000000000E+01 0. -1.
         -5    1    3    3    0  502  0.17686481118E+02 -0.27691147151E+02  0.55514614121E+02  0.64680550599E+02  0.47000000000E+01 0. -1.
<mgrwt>
<rscale>  0 0.21845423E+03</rscale>
<asrwt>0</asrwt>
<pdfrwt beam="1">  1        2 0.16295396E-01 0.22260348E+03</pdfrwt>
<pdfrwt beam="2">  1       -2 0.79842576E-01 0.22260348E+03</pdfrwt>
<totfact> 0.50469755E+02</totfact>
</mgrwt>
</event>
<event>
 8    1  0.3572165E-004  0.1392530E+03  0.7546771E-02  0.1225944E+00
         -2   -1    0    0    0  501 -0.00000000000E+00  0.00000000000E+00  0.20031792193E+03  0.20031792193E+03  0.00000000000E+00 0.  1.
          2   -1    0    0  501    0  0.00000000000E+00 -0.00000000000E+00 -0.84121907446E+02  0.84121907446E+02  0.00000000000E+00 0. -1.
         25    2    1    2    0    0  0.30088233832E+01  0.61303837768E+02  0.10563869638E+03  0.17478826690E+03  0.12499676207E+03 0.  0.
         23    2    1    2    0    0 -0.30088233832E+01 -0.61303837768E+02  0.10557318099E+02  0.10965156247E+03  0.90248516022E+02 0.  0.
          5    1    3    3  502    0  0.32053450912E+02  0.89459346265E+02  0.55331051633E+02  0.11006367986E+03  0.47000000000E+01 0.  1.
         -5    1    3    3    0  502 -0.29044627529E+02 -0.28155508497E+02  0.50307644749E+02  0.64724587038E+02  0.47000000000E+01 0.  1.
          5    1    4    4  503    0 -0.33596525921E+02 -0.14477837197E+01 -0.15603964594E+02  0.37368386943E+02  0.47000000000E+01 0. -1.
         -5    1    4    4    0  503  0.30587702537E+02 -0.59856054048E+02  0.26161282693E+02  0.72283175531E+02  0.47000000000E+01 0.  1.
<mgrwt>
<rscale>  0 0.13102422E+03</rscale>
<asrwt>0</asrwt>
<pdfrwt beam="1">  1        2 0.12941832E-01 0.13925302E+03</pdfrwt>
<pdfrwt beam="2">  1       -2 0.30818142E-01 0.13925302E+03</pdfrwt>
<totfact> 0.43353917E+03</totfact>
</mgrwt>
</event>
<event>
 8    1  0.3572165E-004  0.2557817E+03  0.7546771E-02  0.1112034E+00
         -2   -1    0    0    0  501 -0.00000000000E+00  0.00000000000E+00  0.48564882885E+03  0.48564882885E+03  0.00000000000E+00 0.  1.
          2   -1    0    0  501    0  0.00000000000E+00 -0.00000000000E+00 -0.14948689992E+03  0.14948689992E+03  0.00000000000E+00 0. -1.
         25    2    1    2    0    0  0.42568192954E+02  0.21906010495E+03  0.49405066440E+02  0.26050938048E+03  0.12499958438E+03 0.  0.
         23    2    1    2    0    0 -0.42568192954E+02 -0.21906010495E+03  0.28675686249E+03  0.37462634828E+03  0.91192225606E+02 0.  0.
          5    1    4    4  502    0  0.18275302911E+02 -0.55405593205E+02  0.11818763381E+03  0.13188697146E+03  0.47000000000E+01 0. -1.
         -5    1    4    4    0  502 -0.60843495865E+02 -0.16365451175E+03  0.16856922868E+03  0.24273937683E+03  0.47000000000E+01 0.  1.
          5    1    3    3  503    0  0.64723717649E+02  0.22214000382E+03  0.52880896667E+02  0.23738959572E+03  0.47000000000E+01 0.  1.
         -5    1    3    3    0  503 -0.22155524695E+02 -0.30798988706E+01 -0.34758302269E+01  0.23119784760E+02  0.47000000000E+01 0.  1.
<mgrwt>
<rscale>  0 0.25202203E+03</rscale>
<asrwt>0</asrwt>
<pdfrwt beam="1">  1        2 0.22997985E-01 0.25578170E+03</pdfrwt>
<pdfrwt beam="2">  1       -2 0.74715204E-01 0.25578170E+03</pdfrwt>
<totfact> 0.39277493E+02</totfact>
</mgrwt>
</event>
<event>
 8    1  0.3572165E-004  0.1674495E+03  0.7546771E-02  0.1186457E+00
          1   -1    0    0  501    0  0.00000000000E+00  0.00000000000E+00  0.82133166280E+02  0.82133166280E+02  0.00000000000E+00 0. -1.
         -1   -1    0    0    0  501 -0.00000000000E+00 -0.00000000000E+00 -0.30356356369E+03  0.30356356369E+03  0.00000000000E+00 0.  1.
         25    2    1    2    0    0 -0.43626310578E+02  0.10252639421E+03 -0.13764693016E+03  0.21676259128E+03  0.12499770843E+03 0.  0.
         23    2    1    2    0    0  0.43626310578E+02 -0.10252639421E+03 -0.83783467245E+02  0.16893413868E+03  0.95415708061E+02 0.  0.
          5    1    4    4  502    0  0.44824879470E+02 -0.67315968809E+02 -0.34448687971E+01  0.81084317825E+02  0.47000000000E+01 0. -1.
         -5    1    3    3    0  503 -0.82896333817E+01  0.43878366431E+02  0.16651026468E+02  0.47889202798E+02  0.47000000000E+01 0. -1.
          5    1    3    3  503    0 -0.35336677196E+02  0.58648027781E+02 -0.15429795663E+03  0.16887338849E+03  0.47000000000E+01 0. -1.
         -5    1    4    4    0  502 -0.11985688922E+01 -0.35210425402E+02 -0.80338598448E+02  0.87849820859E+02  0.47000000000E+01 0.  1.
<mgrwt>
<rscale>  0 0.16200033E+03</rscale>
<asrwt>0</asrwt>
<pdfrwt beam="1">  1        1 0.12635872E-01 0.16744953E+03</pdfrwt>
<pdfrwt beam="2">  1       -1 0.46702087E-01 0.16744953E+03</pdfrwt>
<totfact> 0.21391058E+03</totfact>
</mgrwt>
</event>
<event>
 8    1  0.3572165E-004  0.1502512E+03  0.7546771E-02  0.1209462E+00
         -1   -1    0    0    0  501 -0.00000000000E+00  0.00000000000E+00  0.75855000627E+02  0.75855000627E+02  0.00000000000E+00 0.  1.
          1   -1    0    0  501    0  0.00000000000E+00 -0.00000000000E+00 -0.30416445465E+03  0.30416445465E+03  0.00000000000E+00 0. -1.
         25    2    1    2    0    0  0.75157069279E+02 -0.36104728752E+02 -0.20609402418E+03  0.25504936344E+03  0.12499317775E+03 0.  0.
         23    2    1    2    0    0 -0.75157069279E+02  0.36104728752E+02 -0.22215429841E+02  0.12497009184E+03  0.90398351926E+02 0.  0.
          5    1    4    4  502    0 -0.64218109588E+02  0.14312763042E+02 -0.53569137140E+02  0.84973897397E+02  0.47000000000E+01 0. -1.
         -5    1    4    4    0  502 -0.10938959691E+02  0.21791965710E+02  0.31353707299E+02  0.39996194444E+02  0.47000000000E+01 0.  1.
          5    1    3    3  503    0 -0.11122641491E+02 -0.53262409958E+02 -0.12013156718E+03  0.13196318010E+03  0.47000000000E+01 0.  1.
         -5    1    3    3    0  503  0.86279710770E+02  0.17157681207E+02 -0.85962457005E+02  0.12308618334E+03  0.47000000000E+01 0.  1.
<mgrwt>
<rscale>  0 0.14291304E+03</rscale>
<asrwt>0</asrwt>
<pdfrwt beam="1">  1        1 0.46794532E-01 0.15025123E+03</pdfrwt>
<pdfrwt beam="2">  1       -1 0.11670000E-01 0.15025123E+03</pdfrwt>
<totfact> 0.39916730E+03</totfact>
</mgrwt>
</event>
<event>
 8    1  0.3572165E-004  0.1427560E+03  0.7546771E-02  0.1220289E+00
          1   -1    0    0  501    0  0.00000000000E+00  0.00000000000E+00  0.95353690452E+03  0.95353690452E+03  0.00000000000E+00 0. -1.
         -1   -1    0    0    0  501 -0.00000000000E+00 -0.00000000000E+00 -0.17340063347E+02  0.17340063347E+02  0.00000000000E+00 0.  1.
         25    2    1    2    0    0 -0.59525916480E+02  0.34865019715E+02  0.54764755205E+03  0.56594797133E+03  0.12498144121E+03 0.  0.
         23    2    1    2    0    0  0.59525916480E+02 -0.34865019715E+02  0.38854928912E+03  0.40492899654E+03  0.90763637155E+02 0.  0.
          5    1    3    3  502    0 -0.33899842006E+01  0.56618901493E+02  0.10712334105E+03  0.12130413100E+03  0.47000000000E+01 0.  1.
         -5    1    4    4    0  503  0.25239483845E+02  0.27918605710E+02  0.85832548229E+02  0.93839205160E+02  0.47000000000E+01 0.  1.
          5    1    4    4  503    0  0.34286432635E+02 -0.62783625425E+02  0.30271674089E+03  0.31108979138E+03  0.47000000000E+01 0. -1.
         -5    1    3    3    0  502 -0.56135932280E+02 -0.21753881778E+02  0.44052421100E+03  0.44464384033E+03  0.47000000000E+01 0.  1.
<mgrwt>
<rscale>  0 0.13495092E+03</rscale>
<asrwt>0</asrwt>
<pdfrwt beam="1">  1        1 0.14669794E+00 0.14275596E+03</pdfrwt>
<pdfrwt beam="2">  1       -1 0.26677028E-02 0.14275596E+03</pdfrwt>
<totfact> 0.75569724E+03</totfact>
</mgrwt>
</event>
<event>
 8    1  0.3572165E-004  0.3079905E+03  0.7546771E-02  0.1082770E+00
          2   -1    0    0  501    0  0.00000000000E+00  0.00000000000E+00  0.14208076141E+04  0.14208076141E+04  0.00000000000E+00 0. -1.
         -2   -1    0    0    0  501 -0.00000000000E+00 -0.00000000000E+00 -0.76786935641E+02  0.76786935641E+02  0.00000000000E+00 0.  1.
         25    2    1    2    0    0  0.12459220614E+03 -0.25240434817E+03  0.98576391980E+03  0.10327577962E+04  0.12500794847E+03 0.  0.
         23    2    1    2    0    0 -0.12459220614E+03  0.25240434817E+03  0.35825675871E+03  0.46483675362E+03  0.92163602041E+02 0.  0.
          5    1    4    4  502    0 -0.73627326619E+02  0.22387835062E+03  0.30647171236E+03  0.38663871971E+03  0.47000000000E+01 0. -1.
         -5    1    4    4    0  502 -0.50964879524E+02  0.28525997554E+02  0.51785046355E+02  0.78198033910E+02  0.47000000000E+01 0.  1.
          5    1    3    3  503    0  0.99798670364E+02 -0.74988841331E+02  0.32679700820E+03  0.34985922240E+03  0.47000000000E+01 0. -1.
         -5    1    3    3    0  503  0.24793535779E+02 -0.17741550684E+03  0.65896691159E+03  0.68289857377E+03  0.47000000000E+01 0. -1.
<mgrwt>
<rscale>  0 0.30499563E+03</rscale>
<asrwt>0</asrwt>
<pdfrwt beam="1">  1        2 0.21858577E+00 0.30799052E+03</pdfrwt>
<pdfrwt beam="2">  1       -2 0.11813376E-01 0.30799052E+03</pdfrwt>
<totfact> 0.76312972E+02</totfact>
</mgrwt>
</event>
<event>
 8    1  0.3572165E-004  0.1335700E+03  0.7546771E-02  0.1234964E+00
         -3   -1    0    0    0  501 -0.00000000000E+00  0.00000000000E+00  0.37072796438E+03  0.37072796438E+03  0.00000000000E+00 0.  1.
          3   -1    0    0  501    0  0.00000000000E+00 -0.00000000000E+00 -0.41061895921E+02  0.41061895921E+02  0.00000000000E+00 0. -1.
         25    2    1    2    0    0  0.21808500360E+02  0.41707605416E+02  0.24360068241E+03  0.27781691943E+03  0.12500325281E+03 0.  0.
         23    2    1    2    0    0 -0.21808500360E+02 -0.41707605416E+02  0.86065386044E+02  0.13397294087E+03  0.91248907788E+02 0.  0.
          5    1    4    4  502    0 -0.40074562146E+02  0.14244622493E+02  0.27850131622E+02  0.51054868843E+02  0.47000000000E+01 0. -1.
         -5    1    3    3    0  503  0.60619555738E+02  0.49691964870E+02  0.91527091644E+02  0.12059568987E+03  0.47000000000E+01 0.  1.
          5    1    3    3  503    0 -0.38811055377E+02 -0.79843594546E+01  0.15207359077E+03  0.15722122956E+03  0.47000000000E+01 0.  1.
         -5    1    4    4    0  502  0.18266061786E+02 -0.55952227908E+02  0.58215254422E+02  0.82918072025E+02  0.47000000000E+01 0.  1.
<mgrwt>
<rscale>  0 0.12506751E+03</rscale>
<asrwt>0</asrwt>
<pdfrwt beam="1">  1        3 0.63172150E-02 0.13357001E+03</pdfrwt>
<pdfrwt beam="2">  1       -3 0.57035069E-01 0.13357001E+03</pdfrwt>
<totfact> 0.11007819E+03</totfact>
</mgrwt>
</event>
<event>
 8    1  0.3572165E-004  0.1483126E+03  0.7546771E-02  0.1212081E+00
          2   -1    0    0  501    0  0.00000000000E+00  0.00000000000E+00  0.86324299733E+03  0.86324299733E+03  0.00000000000E+00 0.  1.
         -2   -1    0    0    0  501 -0.00000000000E+00 -0.00000000000E+00 -0.29316425079E+02  0.29316425079E+02  0.00000000000E+00 0. -1.
         25    2    1    2    0    0  0.44584362915E+02 -0.66215959464E+02  0.21042176621E+03  0.25743729459E+03  0.12499728895E+03 0.  0.
         23    2    1    2    0    0 -0.44584362915E+02  0.66215959464E+02  0.62350480604E+03  0.63512212782E+03  0.90827063090E+02 0.  0.
          5    1    4    4  502    0  0.92841939816E+01  0.43320563943E+02  0.11650602065E+03  0.12473415878E+03  0.47000000000E+01 0. -1.
         -5    1    3    3    0  503  0.71281573377E+02 -0.17914247975E+02  0.17945543756E+03  0.19398022335E+03  0.47000000000E+01 0.  1.
          5    1    3    3  503    0 -0.26697210461E+02 -0.48301711489E+02  0.30966328653E+02  0.63457071232E+02  0.47000000000E+01 0.  1.
         -5    1    4    4    0  502 -0.53868556897E+02  0.22895395521E+02  0.50699878539E+03  0.51038796904E+03  0.47000000000E+01 0.  1.
<mgrwt>
<rscale>  0 0.14093181E+03</rscale>
<asrwt>0</asrwt>
<pdfrwt beam="1">  1        2 0.13280660E+00 0.14831265E+03</pdfrwt>
<pdfrwt beam="2">  1       -2 0.45102199E-02 0.14831265E+03</pdfrwt>
<totfact> 0.71491594E+03</totfact>
</mgrwt>
</event>
<event>
 8    1  0.3572165E-004  0.1329851E+03  0.7546771E-02  0.1235419E+00
          2   -1    0    0  501    0  0.00000000000E+00  0.00000000000E+00  0.71915128656E+03  0.71915128656E+03  0.00000000000E+00 0. -1.
         -2   -1    0    0    0  501 -0.00000000000E+00 -0.00000000000E+00 -0.20681234971E+02  0.20681234971E+02  0.00000000000E+00 0.  1.
         25    2    1    2    0    0 -0.42423489809E+02 -0.16124749474E+02  0.48312212951E+03  0.50109083929E+03  0.12500110865E+03 0.  0.
         23    2    1    2    0    0  0.42423489809E+02  0.16124749474E+02  0.21534792208E+03  0.23874168225E+03  0.92537037250E+02 0.  0.
          5    1    4    4  502    0  0.65391863005E+02  0.30076998978E+02  0.18123322797E+03  0.19505972043E+03  0.47000000000E+01 0. -1.
         -5    1    4    4    0  502 -0.22968373196E+02 -0.13952249504E+02  0.34114694116E+02  0.43681961817E+02  0.47000000000E+01 0.  1.
          5    1    3    3  503    0 -0.29266170516E+01  0.37260606580E+02  0.48555812196E+02  0.61454656358E+02  0.47000000000E+01 0. -1.
         -5    1    3    3    0  503 -0.39496872757E+02 -0.53385356054E+02  0.43456631731E+03  0.43963618293E+03  0.47000000000E+01 0. -1.
<mgrwt>
<rscale>  0 0.12477640E+03</rscale>
<asrwt>0</asrwt>
<pdfrwt beam="1">  1        2 0.11063864E+00 0.13298510E+03</pdfrwt>
<pdfrwt beam="2">  1       -2 0.31817290E-02 0.13298510E+03</pdfrwt>
<totfact> 0.14948828E+04</totfact>
</mgrwt>
</event>
<event>
 8    1  0.3572165E-004  0.1928332E+03  0.7546771E-02  0.1160541E+00
         -1   -1    0    0    0  501 -0.00000000000E+00  0.00000000000E+00  0.11012989416E+03  0.11012989416E+03  0.00000000000E+00 0.  1.
          1   -1    0    0  501    0  0.00000000000E+00 -0.00000000000E+00 -0.36069750028E+03  0.36069750028E+03  0.00000000000E+00 0. -1.
         25    2    1    2    0    0 -0.10311412514E+03  0.10453539433E+03 -0.37793942461E+02  0.19650198485E+03  0.12499790595E+03 0.  0.
         23    2    1    2    0    0  0.10311412514E+03 -0.10453539433E+03 -0.21277366366E+03  0.27432540960E+03  0.91769422659E+02 0.  0.
          5    1    4    4  502    0  0.97754745718E+02 -0.69731923405E+02 -0.20550909046E+03  0.23806429323E+03  0.47000000000E+01 0. -1.
         -5    1    3    3    0  503 -0.13238907581E+02  0.10156278260E+03 -0.25172141746E+02  0.10557459071E+03  0.47000000000E+01 0. -1.
          5    1    3    3  503    0 -0.89875217555E+02  0.29726117277E+01 -0.12621800715E+02  0.90927394136E+02  0.47000000000E+01 0. -1.
         -5    1    4    4    0  502  0.53593794190E+01 -0.34803470925E+02 -0.72645731970E+01  0.36261116364E+02  0.47000000000E+01 0.  1.
<mgrwt>
<rscale>  0 0.18771267E+03</rscale>
<asrwt>0</asrwt>
<pdfrwt beam="1">  1        1 0.55491925E-01 0.19283321E+03</pdfrwt>
<pdfrwt beam="2">  1       -1 0.16943060E-01 0.19283321E+03</pdfrwt>
<totfact> 0.18127999E+03</totfact>
</mgrwt>
</event>
<event>
 8    1  0.3572165E-004  0.1340809E+03  0.7546771E-02  0.1234441E+00
         -1   -1    0    0    0  501 -0.00000000000E+00  0.00000000000E+00  0.12452419306E+02  0.12452419306E+02  0.00000000000E+00 0.  1.
          1   -1    0    0  501    0  0.00000000000E+00 -0.00000000000E+00 -0.11249777723E+04  0.11249777723E+04  0.00000000000E+00 0. -1.
         25    2    1    2    0    0  0.18866038743E+02  0.44684521149E+02 -0.61985710343E+03  0.63419281354E+03  0.12500024888E+03 0.  0.
         23    2    1    2    0    0 -0.18866038743E+02 -0.44684521149E+02 -0.49266824957E+03  0.50323737808E+03  0.90405866569E+02 0.  0.
          5    1    3    3  502    0  0.56454393307E+02 -0.19012126950E+02 -0.25889665988E+03  0.26570308615E+03  0.47000000000E+01 0.  1.
         -5    1    3    3    0  502 -0.37588354564E+02  0.63696648099E+02 -0.36096044356E+03  0.36848972739E+03  0.47000000000E+01 0.  1.
          5    1    4    4  503    0 -0.53614831147E+01 -0.62531568772E+02 -0.45377725827E+03  0.45812098044E+03  0.47000000000E+01 0. -1.
         -5    1    4    4    0  503 -0.13504555628E+02  0.17847047623E+02 -0.38890991304E+02  0.45116397642E+02  0.47000000000E+01 0.  1.
<mgrwt>
<rscale>  0 0.12540286E+03</rscale>
<asrwt>0</asrwt>
<pdfrwt beam="1">  1        1 0.17307348E+00 0.13408093E+03</pdfrwt>
<pdfrwt beam="2">  1       -1 0.19157571E-02 0.13408093E+03</pdfrwt>
<totfact> 0.91473225E+03</totfact>
</mgrwt>
</event>
<event>
 8    1  0.3572165E-004  0.1775745E+03  0.7546771E-02  0.1175674E+00
         -1   -1    0    0    0  501 -0.00000000000E+00  0.00000000000E+00  0.61659505989E+02  0.61659505989E+02  0.00000000000E+00 0.  1.
          1   -1    0    0  501    0  0.00000000000E+00 -0.00000000000E+00 -0.46416879590E+03  0.46416879590E+03  0.00000000000E+00 0. -1.
         25    2    1    2    0    0  0.12012007026E+03  0.38392130052E+02 -0.25428301765E+03  0.31014922824E+03  0.12501961361E+03 0.  0.
         23    2    1    2    0    0 -0.12012007026E+03 -0.38392130052E+02 -0.14822627226E+03  0.21567907364E+03  0.92971221844E+02 0.  0.
          5    1    4    4  502    0 -0.95093303630E+02 -0.26004908301E+02 -0.15751098429E+03  0.18587843291E+03  0.47000000000E+01 0. -1.
         -5    1    4    4    0  502 -0.25026766625E+02 -0.12387221751E+02  0.92847120277E+01  0.29800640729E+02  0.47000000000E+01 0.  1.
          5    1    3    3  503    0  0.29187449660E+02 -0.14716112327E+02  0.19500619087E+01  0.33081171701E+02  0.47000000000E+01 0. -1.
         -5    1    3    3    0  503  0.90932620595E+02  0.53108242379E+02 -0.25623307956E+03  0.27706805654E+03  0.47000000000E+01 0. -1.
<mgrwt>
<rscale>  0 0.17210122E+03</rscale>
<asrwt>0</asrwt>
<pdfrwt beam="1">  1        1 0.71410584E-01 0.17757447E+03</pdfrwt>
<pdfrwt beam="2">  1       -1 0.94860779E-02 0.17757447E+03</pdfrwt>
<totfact> 0.32401682E+03</totfact>
</mgrwt>
</event>
<event>
 8    1  0.3572165E-004  0.1991815E+03  0.7546771E-02  0.1154663E+00
          1   -1    0    0  501    0  0.00000000000E+00  0.00000000000E+00  0.53512384219E+03  0.53512384219E+03  0.00000000000E+00 0. -1.
         -1   -1    0    0    0  501 -0.00000000000E+00 -0.00000000000E+00 -0.71883790349E+02  0.71883790349E+02  0.00000000000E+00 0.  1.
         25    2    1    2    0    0 -0.15027952977E+03  0.38234605719E+02  0.31928500895E+03  0.37631928047E+03  0.12500984671E+03 0.  0.
         23    2    1    2    0    0  0.15027952977E+03 -0.38234605719E+02  0.14395504289E+03  0.23068835206E+03  0.91914303907E+02 0.  0.
          5    1    4    4  502    0  0.54495085142E+02 -0.60754380149E+02  0.64543240303E+02  0.10415723153E+03  0.47000000000E+01 0. -1.
         -5    1    4    4    0  502  0.95784444625E+02  0.22519774430E+02  0.79411802582E+02  0.12653112053E+03  0.47000000000E+01 0.  1.
          5    1    3    3  503    0 -0.56564675987E+02  0.66360027137E+02  0.82751637298E+02  0.12030436088E+03  0.47000000000E+01 0.  1.
         -5    1    3    3    0  503 -0.93714853780E+02 -0.28125421418E+02  0.23653337165E+03  0.25601491959E+03  0.47000000000E+01 0.  1.
<mgrwt>
<rscale>  0 0.19427294E+03</rscale>
<asrwt>0</asrwt>
<pdfrwt beam="1">  1        1 0.82326742E-01 0.19918154E+03</pdfrwt>
<pdfrwt beam="2">  1       -1 0.11059045E-01 0.19918154E+03</pdfrwt>
<totfact> 0.21278187E+03</totfact>
</mgrwt>
</event>
<event>
 8    1  0.3572165E-004  0.2067335E+03  0.7546771E-02  0.1148114E+00
         -2   -1    0    0    0  501 -0.00000000000E+00  0.00000000000E+00  0.28116134086E+02  0.28116134086E+02  0.00000000000E+00 0.  1.
          2   -1    0    0  501    0  0.00000000000E+00 -0.00000000000E+00 -0.16312021641E+04  0.16312021641E+04  0.00000000000E+00 0. -1.
         25    2    1    2    0    0  0.35318108240E+02 -0.16082988182E+03 -0.11542634149E+04  0.11726306993E+04  0.12500042475E+03 0.  0.
         23    2    1    2    0    0 -0.35318108240E+02  0.16082988182E+03 -0.44882261511E+03  0.48668759893E+03  0.91156236585E+02 0.  0.
          5    1    4    4  502    0 -0.36416285630E+02  0.45660341345E+02 -0.25084413290E+03  0.25759635409E+03  0.47000000000E+01 0. -1.
         -5    1    4    4    0  502  0.10981773897E+01  0.11516954047E+03 -0.19797848221E+03  0.22909124485E+03  0.47000000000E+01 0.  1.
          5    1    3    3  503    0  0.25019991811E+02 -0.17911175192E+03 -0.10887630075E+04  0.11036910782E+04  0.47000000000E+01 0.  1.
         -5    1    3    3    0  503  0.10298116429E+02  0.18281870106E+02 -0.65500407450E+02  0.68939621066E+02  0.47000000000E+01 0.  1.
<mgrwt>
<rscale>  0 0.20193838E+03</rscale>
<asrwt>0</asrwt>
<pdfrwt beam="1">  1        2 0.25095420E+00 0.20673347E+03</pdfrwt>
<pdfrwt beam="2">  1       -2 0.43255588E-02 0.20673347E+03</pdfrwt>
<totfact> 0.28351495E+03</totfact>
</mgrwt>
</event>
<event>
 8    1  0.3572165E-004  0.1415185E+03  0.7546771E-02  0.1221582E+00
          2   -1    0    0  501    0  0.00000000000E+00  0.00000000000E+00  0.54185772646E+02  0.54185772646E+02  0.00000000000E+00 0. -1.
         -2   -1    0    0    0  501 -0.00000000000E+00 -0.00000000000E+00 -0.36472660310E+03  0.36472660310E+03  0.00000000000E+00 0.  1.
         25    2    1    2    0    0 -0.17181017212E+02 -0.64099001332E+02 -0.25627420754E+03  0.29275240076E+03  0.12499451738E+03 0.  0.
         23    2    1    2    0    0  0.17181017212E+02  0.64099001332E+02 -0.54266622913E+02  0.12615997498E+03  0.92561350474E+02 0.  0.
          5    1    3    3  502    0 -0.57763410161E+02 -0.24839082253E+02 -0.21101833755E+03  0.22023719110E+03  0.47000000000E+01 0.  1.
         -5    1    4    4    0  503 -0.12639290612E+02 -0.20235358156E+02 -0.11779192494E+02  0.27019636613E+02  0.47000000000E+01 0.  1.
          5    1    4    4  503    0  0.29820307824E+02  0.84334359487E+02 -0.42487430419E+02  0.99140338372E+02  0.47000000000E+01 0. -1.
         -5    1    3    3    0  502  0.40582392949E+02 -0.39259919078E+02 -0.45255869985E+02  0.72515209657E+02  0.47000000000E+01 0.  1.
<mgrwt>
<rscale>  0 0.13403977E+03</rscale>
<asrwt>0</asrwt>
<pdfrwt beam="1">  1        2 0.83362728E-02 0.14151855E+03</pdfrwt>
<pdfrwt beam="2">  1       -2 0.56111784E-01 0.14151855E+03</pdfrwt>
<totfact> 0.23643015E+03</totfact>
</mgrwt>
</event>
<event>
 8    1  0.3572165E-004  0.1328727E+03  0.7546771E-02  0.1237004E+00
         -2   -1    0    0    0  501 -0.00000000000E+00  0.00000000000E+00  0.24966860788E+03  0.24966860788E+03  0.00000000000E+00 0.  1.
          2   -1    0    0  501    0  0.00000000000E+00 -0.00000000000E+00 -0.58175419931E+02  0.58175419931E+02  0.00000000000E+00 0. -1.
         25    2    1    2    0    0  0.11959628215E+02  0.43449731390E+02  0.14761217975E+03  0.19860644953E+03  0.12499701725E+03 0.  0.
         23    2    1    2    0    0 -0.11959628215E+02 -0.43449731390E+02  0.43881008197E+02  0.10923757827E+03  0.89310658722E+02 0.  0.
          5    1    3    3  502    0  0.12497033541E+02 -0.17404511511E+02  0.13436992050E+03  0.13614866288E+03  0.47000000000E+01 0. -1.
         -5    1    3    3    0  502 -0.53740532572E+00  0.60854242901E+02  0.13242259244E+02  0.62457786652E+02  0.47000000000E+01 0. -1.
          5    1    4    4  503    0  0.14812576399E+02  0.22810798654E+02  0.61130862188E+01  0.28270210079E+02  0.47000000000E+01 0. -1.
         -5    1    4    4    0  503 -0.26772204614E+02 -0.66260530044E+02  0.37767921979E+02  0.80967368193E+02  0.47000000000E+01 0.  1.
<mgrwt>
<rscale>  0 0.12377034E+03</rscale>
<asrwt>0</asrwt>
<pdfrwt beam="1">  1        2 0.89500647E-02 0.13287274E+03</pdfrwt>
<pdfrwt beam="2">  1       -2 0.38410554E-01 0.13287274E+03</pdfrwt>
<totfact> 0.45132373E+03</totfact>
</mgrwt>
</event>
<event>
 8    1  0.3572165E-004  0.1280422E+03  0.7546771E-02  0.1244597E+00
          1   -1    0    0  501    0  0.00000000000E+00  0.00000000000E+00  0.20401966754E+02  0.20401966754E+02  0.00000000000E+00 0. -1.
         -1   -1    0    0    0  501 -0.00000000000E+00 -0.00000000000E+00 -0.63001239789E+03  0.63001239789E+03  0.00000000000E+00 0.  1.
         25    2    1    2    0    0  0.17262753688E+02  0.21731477762E+02 -0.39860671439E+03  0.41866706647E+03  0.12499816000E+03 0.  0.
         23    2    1    2    0    0 -0.17262753688E+02 -0.21731477762E+02 -0.21100371674E+03  0.23174729817E+03  0.91727759909E+02 0.  0.
          5    1    3    3  502    0 -0.22466993022E+02 -0.25621026919E+02 -0.32415139833E+02  0.47265569776E+02  0.47000000000E+01 0.  1.
         -5    1    3    3    0  502  0.39729746710E+02  0.47352504681E+02 -0.36619157456E+03  0.37140149670E+03  0.47000000000E+01 0.  1.
          5    1    4    4  503    0 -0.26271109484E+01  0.34444988296E+02 -0.53869795819E+02  0.64166999558E+02  0.47000000000E+01 0. -1.
         -5    1    4    4    0  503 -0.14635642740E+02 -0.56176466058E+02 -0.15713392093E+03  0.16758029861E+03  0.47000000000E+01 0.  1.
<mgrwt>
<rscale>  0 0.11909546E+03</rscale>
<asrwt>0</asrwt>
<pdfrwt beam="1">  1        1 0.31387637E-02 0.12804218E+03</pdfrwt>
<pdfrwt beam="2">  1       -1 0.96924996E-01 0.12804218E+03</pdfrwt>
<totfact> 0.33106248E+03</totfact>
</mgrwt>
</event>
<event>
 8    1  0.3572165E-004  0.1538922E+03  0.7546771E-02  0.1201875E+00
         -1   -1    0    0    0  501 -0.00000000000E+00  0.00000000000E+00  0.24807021181E+02  0.24807021181E+02  0.00000000000E+00 0.  1.
          1   -1    0    0  501    0  0.00000000000E+00 -0.00000000000E+00 -0.84571010940E+03  0.84571010940E+03  0.00000000000E+00 0. -1.
         25    2    1    2    0    0 -0.89764313379E+02  0.14622321201E+01 -0.40058970151E+03  0.42913273341E+03  0.12499209515E+03 0.  0.
         23    2    1    2    0    0  0.89764313379E+02 -0.14622321201E+01 -0.42031338672E+03  0.44138439718E+03  0.10048419248E+03 0.  0.
          5    1    3    3  502    0 -0.68291891502E+02  0.59478795790E+02 -0.21137686134E+03  0.23000821095E+03  0.47000000000E+01 0. -1.
         -5    1    4    4    0  503  0.76819330246E+02 -0.30110244497E+02 -0.16959892590E+03  0.18866298521E+03  0.47000000000E+01 0.  1.
          5    1    4    4  503    0  0.12944983134E+02  0.28648012377E+02 -0.25071446082E+03  0.25272141197E+03  0.47000000000E+01 0. -1.
         -5    1    3    3    0  502 -0.21472421878E+02 -0.58016563670E+02 -0.18921284016E+03  0.19912452246E+03  0.47000000000E+01 0. -1.
<mgrwt>
<rscale>  0 0.14886493E+03</rscale>
<asrwt>0</asrwt>
<pdfrwt beam="1">  1        1 0.13010926E+00 0.15389215E+03</pdfrwt>
<pdfrwt beam="2">  1       -1 0.38164646E-02 0.15389215E+03</pdfrwt>
<totfact> 0.54414002E+03</totfact>
</mgrwt>
</event>
<event>
 8    1  0.3572165E-004  0.1875812E+03  0.7546771E-02  0.1165743E+00
          1   -1    0    0  501    0  0.00000000000E+00  0.00000000000E+00  0.14756242369E+03  0.14756242369E+03  0.00000000000E+00 0. -1.
         -1   -1    0    0    0  501 -0.00000000000E+00 -0.00000000000E+00 -0.22061127129E+03  0.22061127129E+03  0.00000000000E+00 0.  1.
         25    2    1    2    0    0 -0.13552284482E+03  0.34571802847E+02 -0.38452831253E+01  0.18762059693E+03  0.12500020468E+03 0.  0.
         23    2    1    2    0    0  0.13552284482E+03 -0.34571802847E+02 -0.69203564476E+02  0.18055309804E+03  0.90822006452E+02 0.  0.
          5    1    4    4  502    0  0.48402826787E+02 -0.18067085519E+02  0.19141071537E+02  0.55296689229E+02  0.47000000000E+01 0. -1.
         -5    1    3    3    0  503 -0.12262187234E+03  0.69881585117E+02 -0.26209692185E+02  0.14362659044E+03  0.47000000000E+01 0.  1.
          5    1    3    3  503    0 -0.12900972478E+02 -0.35309782270E+02  0.22364409059E+02  0.43994006494E+02  0.47000000000E+01 0.  1.
         -5    1    4    4    0  502  0.87120018035E+02 -0.16504717328E+02 -0.88344636014E+02  0.12525640881E+03  0.47000000000E+01 0.  1.
<mgrwt>
<rscale>  0 0.18214517E+03</rscale>
<asrwt>0</asrwt>
<pdfrwt beam="1">  1        1 0.22701911E-01 0.18758119E+03</pdfrwt>
<pdfrwt beam="2">  1       -1 0.33940195E-01 0.18758119E+03</pdfrwt>
<totfact> 0.17664955E+03</totfact>
</mgrwt>
</event>
<event>
 8    1  0.3572165E-004  0.1328659E+03  0.7546771E-02  0.1235588E+00
          2   -1    0    0  501    0  0.00000000000E+00  0.00000000000E+00  0.59348946806E+03  0.59348946806E+03  0.00000000000E+00 0. -1.
         -2   -1    0    0    0  501 -0.00000000000E+00 -0.00000000000E+00 -0.27624036761E+02  0.27624036761E+02  0.00000000000E+00 0.  1.
         25    2    1    2    0    0 -0.26864695876E+02 -0.36133557638E+02  0.43348615483E+03  0.45339122468E+03  0.12500404122E+03 0.  0.
         23    2    1    2    0    0  0.26864695876E+02  0.36133557638E+02  0.13237927648E+03  0.16772228014E+03  0.92623671616E+02 0.  0.
          5    1    4    4  502    0 -0.78528273124E+01  0.19039698227E+02  0.12655685818E+03  0.12830785384E+03  0.47000000000E+01 0. -1.
         -5    1    4    4    0  502  0.34717523188E+02  0.17093859411E+02  0.58224182990E+01  0.39414426302E+02  0.47000000000E+01 0.  1.
          5    1    3    3  503    0  0.51229564809E+01  0.42726615101E+02  0.95990290420E+02  0.10529973493E+03  0.47000000000E+01 0. -1.
         -5    1    3    3    0  503 -0.31987652357E+02 -0.78860172738E+02  0.33749586441E+03  0.34809148976E+03  0.47000000000E+01 0. -1.
<mgrwt>
<rscale>  0 0.12466849E+03</rscale>
<asrwt>0</asrwt>
<pdfrwt beam="1">  1        2 0.91306063E-01 0.13286593E+03</pdfrwt>
<pdfrwt beam="2">  1       -2 0.42498522E-02 0.13286593E+03</pdfrwt>
<totfact> 0.12176532E+04</totfact>
</mgrwt>
</event>
<event>
 8    1  0.3572165E-004  0.1298402E+03  0.7546771E-02  0.1240005E+00
          3   -1    0    0  501    0  0.00000000000E+00  0.00000000000E+00  0.23332060397E+03  0.23332060397E+03  0.00000000000E+00 0. -1.
         -3   -1    0    0    0  501 -0.00000000000E+00 -0.00000000000E+00 -0.57267637163E+02  0.57267637163E+02  0.00000000000E+00 0.  1.
         25    2    1    2    0    0  0.26797000473E+02  0.22725161692E+02  0.89660883974E+02  0.15778956573E+03  0.12499584286E+03 0.  0.
         23    2    1    2    0    0 -0.26797000473E+02 -0.22725161692E+02  0.86392082837E+02  0.13279867540E+03  0.94537738516E+02 0.  0.
          5    1    4    4  502    0 -0.22198567907E+02  0.51610043180E+01  0.98853221229E+02  0.10155521518E+03  0.47000000000E+01 0. -1.
         -5    1    3    3    0  503  0.51937242865E+02 -0.20028864221E+02  0.92311956020E+02  0.10789911873E+03  0.47000000000E+01 0. -1.
          5    1    3    3  503    0 -0.25140242392E+02  0.42754025913E+02 -0.26510720456E+01  0.49890447004E+02  0.47000000000E+01 0. -1.
         -5    1    4    4    0  502 -0.45984325656E+01 -0.27886166010E+02 -0.12461138392E+02  0.31243460225E+02  0.47000000000E+01 0.  1.
<mgrwt>
<rscale>  0 0.12189393E+03</rscale>
<asrwt>0</asrwt>
<pdfrwt beam="1">  1        3 0.35895477E-01 0.12984018E+03</pdfrwt>
<pdfrwt beam="2">  1       -3 0.88104058E-02 0.12984018E+03</pdfrwt>
<totfact> 0.15881544E+03</totfact>
</mgrwt>
</event>
<event>
 8    1  0.3572165E-004  0.1551240E+03  0.7546771E-02  0.1201843E+00
          1   -1    0    0  501    0  0.00000000000E+00  0.00000000000E+00  0.60050242105E+03  0.60050242105E+03  0.00000000000E+00 0. -1.
         -1   -1    0    0    0  501 -0.00000000000E+00 -0.00000000000E+00 -0.34288895926E+02  0.34288895926E+02  0.00000000000E+00 0.  1.
         25    2    1    2    0    0 -0.61499302547E+02 -0.68242620230E+02  0.29410476439E+03  0.33250723498E+03  0.12499691775E+03 0.  0.
         23    2    1    2    0    0  0.61499302547E+02  0.68242620230E+02  0.27210876074E+03  0.30228408200E+03  0.94304131034E+02 0.  0.
          5    1    3    3  502    0 -0.34883429780E+02 -0.41174090610E+01  0.57840439793E+01  0.35907546496E+02  0.47000000000E+01 0. -1.
         -5    1    4    4    0  503  0.85296762200E+02  0.60649895171E+02  0.19917711663E+03  0.22505013045E+03  0.47000000000E+01 0.  1.
          5    1    4    4  503    0 -0.23797459653E+02  0.75927250587E+01  0.72931644115E+02  0.77233951557E+02  0.47000000000E+01 0. -1.
         -5    1    3    3    0  502 -0.26615872767E+02 -0.64125211169E+02  0.28832072041E+03  0.29659968848E+03  0.47000000000E+01 0. -1.
<mgrwt>
<rscale>  0 0.14889044E+03</rscale>
<asrwt>0</asrwt>
<pdfrwt beam="1">  1        1 0.92384980E-01 0.15512398E+03</pdfrwt>
<pdfrwt beam="2">  1       -1 0.52752152E-02 0.15512398E+03</pdfrwt>
<totfact> 0.55422068E+03</totfact>
</mgrwt>
</event>
<event>
 8    1  0.3572165E-004  0.2679531E+03  0.7546771E-02  0.1104561E+00
         -1   -1    0    0    0  501 -0.00000000000E+00  0.00000000000E+00  0.42285952280E+03  0.42285952280E+03  0.00000000000E+00 0.  1.
          1   -1    0    0  501    0  0.00000000000E+00 -0.00000000000E+00 -0.18504256644E+03  0.18504256644E+03  0.00000000000E+00 0. -1.
         25    2    1    2    0    0  0.60622163890E+02  0.22912678307E+03  0.23136165797E+03  0.35401563421E+03  0.12499889203E+03 0.  0.
         23    2    1    2    0    0 -0.60622163890E+02 -0.22912678307E+03  0.64552983911E+01  0.25388645503E+03  0.90788389638E+02 0.  0.
          5    1    4    4  502    0 -0.49937843976E+02 -0.43835430580E+02 -0.10575842681E+02  0.67448288959E+02  0.47000000000E+01 0. -1.
         -5    1    3    3    0  503  0.44819889196E+02  0.16355303088E+02  0.76720560438E+02  0.90467965604E+02  0.47000000000E+01 0.  1.
          5    1    3    3  503    0  0.15802274694E+02  0.21277147998E+03  0.15464109753E+03  0.26354766860E+03  0.47000000000E+01 0.  1.
         -5    1    4    4    0  502 -0.10684319914E+02 -0.18529135249E+03  0.17031141072E+02  0.18643816607E+03  0.47000000000E+01 0.  1.
<mgrwt>
<rscale>  0 0.26434362E+03</rscale>
<asrwt>0</asrwt>
<pdfrwt beam="1">  1        1 0.28468087E-01 0.26795308E+03</pdfrwt>
<pdfrwt beam="2">  1       -1 0.65055311E-01 0.26795308E+03</pdfrwt>
<totfact> 0.40361594E+02</totfact>
</mgrwt>
</event>
<event>
 8    1  0.3572165E-004  0.1566256E+03  0.7546771E-02  0.1200750E+00
          2   -1    0    0  501    0  0.00000000000E+00  0.00000000000E+00  0.46664528523E+03  0.46664528523E+03  0.00000000000E+00 0. -1.
         -2   -1    0    0    0  501 -0.00000000000E+00 -0.00000000000E+00 -0.44440619255E+02  0.44440619255E+02  0.00000000000E+00 0.  1.
         25    2    1    2    0    0 -0.94264178732E+02  0.50399960675E+01  0.24363793184E+03  0.28963946384E+03  0.12498175958E+03 0.  0.
         23    2    1    2    0    0  0.94264178732E+02 -0.50399960675E+01  0.17856673413E+03  0.22144644065E+03  0.90781664364E+02 0.  0.
          5    1    4    4  502    0  0.61228024127E+02 -0.43031274732E+02  0.74276878582E+02  0.10554480677E+03  0.47000000000E+01 0. -1.
         -5    1    4    4    0  502  0.33036154605E+02  0.37991278664E+02  0.10428985555E+03  0.11590163388E+03  0.47000000000E+01 0.  1.
          5    1    3    3  503    0 -0.48752691529E+02  0.38886769239E+02  0.21876670524E+03  0.22753014542E+03  0.47000000000E+01 0.  1.
         -5    1    3    3    0  503 -0.45511487202E+02 -0.33846773172E+02  0.24871226602E+02  0.62109318417E+02  0.47000000000E+01 0.  1.
<mgrwt>
<rscale>  0 0.14977448E+03</rscale>
<asrwt>0</asrwt>
<pdfrwt beam="1">  1        2 0.71791579E-01 0.15662560E+03</pdfrwt>
<pdfrwt beam="2">  1       -2 0.68370186E-02 0.15662560E+03</pdfrwt>
<totfact> 0.78417445E+03</totfact>
</mgrwt>
</event>
<event>
 8    1  0.3572165E-004  0.1250893E+03  0.7546771E-02  0.1249689E+00
         -1   -1    0    0    0  501 -0.00000000000E+00  0.00000000000E+00  0.44733234785E+03  0.44733234785E+03  0.00000000000E+00 0.  1.
          1   -1    0    0  501    0  0.00000000000E+00 -0.00000000000E+00 -0.26893857503E+02  0.26893857503E+02  0.00000000000E+00 0. -1.
         25    2    1    2    0    0  0.42139675735E+01  0.21925314417E+01  0.21373831226E+03  0.24765176988E+03  0.12499907311E+03 0.  0.
         23    2    1    2    0    0 -0.42139675735E+01 -0.21925314417E+01  0.20670017809E+03  0.22657443547E+03  0.92673871573E+02 0.  0.
          5    1    3    3  502    0  0.25018872583E+02 -0.36150544536E+01 -0.63270421228E+01  0.26478936271E+02  0.47000000000E+01 0.  1.
         -5    1    4    4    0  503 -0.20660390600E+01 -0.29320498942E+02  0.19383806569E+03  0.19611029011E+03  0.47000000000E+01 0.  1.
          5    1    4    4  503    0 -0.21479285135E+01  0.27127967500E+02  0.12862112397E+02  0.30464145367E+02  0.47000000000E+01 0. -1.
         -5    1    3    3    0  502 -0.20804905009E+02  0.58075858953E+01  0.22006535438E+03  0.22117283361E+03  0.47000000000E+01 0.  1.
<mgrwt>
<rscale>  0 0.11609056E+03</rscale>
<asrwt>0</asrwt>
<pdfrwt beam="1">  1        1 0.41375169E-02 0.12508930E+03</pdfrwt>
<pdfrwt beam="2">  1       -1 0.68820356E-01 0.12508930E+03</pdfrwt>
<totfact> 0.45731853E+03</totfact>
</mgrwt>
</event>
<event>
 8    1  0.3572165E-004  0.1945755E+03  0.7546771E-02  0.1159197E+00
         -2   -1    0    0    0  501 -0.00000000000E+00  0.00000000000E+00  0.17160976231E+03  0.17160976231E+03  0.00000000000E+00 0.  1.
          2   -1    0    0  501    0  0.00000000000E+00 -0.00000000000E+00 -0.21842433006E+03  0.21842433006E+03  0.00000000000E+00 0. -1.
         25    2    1    2    0    0  0.20039195312E+02  0.14776020044E+03 -0.84443391887E+02  0.21210920421E+03  0.12499992758E+03 0.  0.
         23    2    1    2    0    0 -0.20039195312E+02 -0.14776020044E+03  0.37628824135E+02  0.17792488817E+03  0.89480116462E+02 0.  0.
          5    1    3    3  502    0 -0.24067885593E+02 -0.82945708896E+01 -0.32937795060E+02  0.41893333199E+02  0.47000000000E+01 0. -1.
         -5    1    4    4    0  503  0.17529427842E+02 -0.49698793769E+02  0.49103427384E+02  0.72183706772E+02  0.47000000000E+01 0.  1.
          5    1    4    4  503    0 -0.37568623155E+02 -0.98061406666E+02 -0.11474603248E+02  0.10574118139E+03  0.47000000000E+01 0. -1.
         -5    1    3    3    0  502  0.44107080905E+02  0.15605477132E+03 -0.51505596827E+02  0.17021587101E+03  0.47000000000E+01 0. -1.
<mgrwt>
<rscale>  0 0.18918698E+03</rscale>
<asrwt>0</asrwt>
<pdfrwt beam="1">  1        2 0.33603743E-01 0.19457551E+03</pdfrwt>
<pdfrwt beam="2">  1       -2 0.26401502E-01 0.19457551E+03</pdfrwt>
<totfact> 0.19697771E+03</totfact>
</mgrwt>
</event>
<event>
 8    1  0.3572165E-004  0.1614132E+03  0.7546771E-02  0.1195037E+00
          2   -1    0    0  501    0  0.00000000000E+00  0.00000000000E+00  0.93047172629E+03  0.93047172629E+03  0.00000000000E+00 0. -1.
         -2   -1    0    0    0  501 -0.00000000000E+00 -0.00000000000E+00 -0.24263698888E+02  0.24263698888E+02  0.00000000000E+00 0.  1.
         25    2    1    2    0    0  0.96012367975E+02 -0.34795677307E+02  0.56478436316E+03  0.58739732107E+03  0.12500048788E+03 0.  0.
         23    2    1    2    0    0 -0.96012367975E+02  0.34795677307E+02  0.34142366425E+03  0.36733810411E+03  0.89095736481E+02 0.  0.
          5    1    4    4  502    0 -0.86702588994E+02  0.90871480586E+01  0.32160178047E+03  0.33324121954E+03  0.47000000000E+01 0. -1.
         -5    1    4    4    0  502 -0.93097789811E+01  0.25708529248E+02  0.19821883771E+02  0.34096884565E+02  0.47000000000E+01 0.  1.
          5    1    3    3  503    0  0.21739360064E+01  0.39891236402E+02  0.11320161578E+03  0.12013630823E+03  0.47000000000E+01 0.  1.
         -5    1    3    3    0  503  0.93838431969E+02 -0.74686913709E+02  0.45158274738E+03  0.46726101284E+03  0.47000000000E+01 0.  1.
<mgrwt>
<rscale>  0 0.15451108E+03</rscale>
<asrwt>0</asrwt>
<pdfrwt beam="1">  1        2 0.14314947E+00 0.16141325E+03</pdfrwt>
<pdfrwt beam="2">  1       -2 0.37328775E-02 0.16141325E+03</pdfrwt>
<totfact> 0.86290564E+03</totfact>
</mgrwt>
</event>
<event>
 8    1  0.3572165E-004  0.1735760E+03  0.7546771E-02  0.1181015E+00
         -1   -1    0    0    0  501 -0.00000000000E+00  0.00000000000E+00  0.73935205362E+03  0.73935205362E+03  0.00000000000E+00 0.  1.
          1   -1    0    0  501    0  0.00000000000E+00 -0.00000000000E+00 -0.38251760463E+02  0.38251760463E+02  0.00000000000E+00 0. -1.
         25    2    1    2    0    0 -0.31581297488E+02  0.11621464866E+03  0.48624904375E+03  0.51630103761E+03  0.12500162392E+03 0.  0.
         23    2    1    2    0    0  0.31581297488E+02 -0.11621464866E+03  0.21485124941E+03  0.26130277647E+03  0.87263157758E+02 0.  0.
          5    1    4    4  502    0  0.56046705277E+02 -0.94338650988E+02  0.12988818546E+03  0.17010010277E+03  0.47000000000E+01 0. -1.
         -5    1    4    4    0  502 -0.24465407789E+02 -0.21875997676E+02  0.84963063954E+02  0.91202673695E+02  0.47000000000E+01 0.  1.
          5    1    3    3  503    0  0.28470148324E+02  0.83010306463E+02  0.15679974794E+03  0.17974846669E+03  0.47000000000E+01 0.  1.
         -5    1    3    3    0  503 -0.60051445813E+02  0.33204342201E+02  0.32944929581E+03  0.33655257092E+03  0.47000000000E+01 0.  1.
<mgrwt>
<rscale>  0 0.16699778E+03</rscale>
<asrwt>0</asrwt>
<pdfrwt beam="1">  1        1 0.58848868E-02 0.17357600E+03</pdfrwt>
<pdfrwt beam="2">  1       -1 0.11374646E+00 0.17357600E+03</pdfrwt>
<totfact> 0.98638459E+02</totfact>
</mgrwt>
</event>
<event>
 8    1  0.3572165E-004  0.1478055E+03  0.7546771E-02  0.1212655E+00
          2   -1    0    0  501    0  0.00000000000E+00  0.00000000000E+00  0.21733321766E+03  0.21733321766E+03  0.00000000000E+00 0.  1.
         -2   -1    0    0    0  501 -0.00000000000E+00 -0.00000000000E+00 -0.91672213166E+02  0.91672213166E+02  0.00000000000E+00 0. -1.
         25    2    1    2    0    0 -0.58865158348E+02  0.52503042276E+02  0.21062053095E+02  0.14929865725E+03  0.12499921064E+03 0.  0.
         23    2    1    2    0    0  0.58865158348E+02 -0.52503042276E+02  0.10459895140E+03  0.15970677357E+03  0.91343508666E+02 0.  0.
          5    1    4    4  502    0 -0.53561657234E+01 -0.42483109028E+02  0.89967265519E+01  0.44006069497E+02  0.47000000000E+01 0. -1.
         -5    1    3    3    0  503 -0.36254724749E+02  0.32347724508E+02 -0.51238404633E+02  0.70768951221E+02  0.47000000000E+01 0.  1.
          5    1    3    3  503    0 -0.22610433598E+02  0.20155317769E+02  0.72300457728E+02  0.78529706033E+02  0.47000000000E+01 0.  1.
         -5    1    4    4    0  502  0.64221324071E+02 -0.10019933248E+02  0.95602224843E+02  0.11570070407E+03  0.47000000000E+01 0.  1.
<mgrwt>
<rscale>  0 0.14050217E+03</rscale>
<asrwt>0</asrwt>
<pdfrwt beam="1">  1        2 0.33435880E-01 0.14780554E+03</pdfrwt>
<pdfrwt beam="2">  1       -2 0.14103417E-01 0.14780554E+03</pdfrwt>
<totfact> 0.56590557E+03</totfact>
</mgrwt>
</event>
<event>
 8    1  0.3572165E-004  0.1500111E+03  0.7546771E-02  0.1209438E+00
         -4   -1    0    0    0  501 -0.00000000000E+00  0.00000000000E+00  0.55867791097E+03  0.55867791097E+03  0.00000000000E+00 0.  1.
          4   -1    0    0  501    0  0.00000000000E+00 -0.00000000000E+00 -0.36477620999E+02  0.36477620999E+02  0.00000000000E+00 0. -1.
         25    2    1    2    0    0  0.30245726779E+02  0.77230181274E+02  0.19968738870E+03  0.24975667455E+03  0.12499615350E+03 0.  0.
         23    2    1    2    0    0 -0.30245726779E+02 -0.77230181274E+02  0.32251290128E+03  0.34539885742E+03  0.91686936535E+02 0.  0.
          5    1    3    3  502    0  0.41673823598E+02  0.12017512340E+02  0.48146329360E+01  0.43890760605E+02  0.47000000000E+01 0.  1.
         -5    1    4    4    0  503 -0.93273850332E+01 -0.80006817011E+02  0.31019506856E+03  0.32051702208E+03  0.47000000000E+01 0.  1.
          5    1    4    4  503    0 -0.20918341746E+02  0.27766357371E+01  0.12317832712E+02  0.24881835345E+02  0.47000000000E+01 0. -1.
         -5    1    3    3    0  502 -0.11428096819E+02  0.65212668934E+02  0.19487275576E+03  0.20586591394E+03  0.47000000000E+01 0.  1.
<mgrwt>
<rscale>  0 0.14293173E+03</rscale>
<asrwt>0</asrwt>
<pdfrwt beam="1">  1        4 0.56119421E-02 0.15001114E+03</pdfrwt>
<pdfrwt beam="2">  1       -4 0.85950441E-01 0.15001114E+03</pdfrwt>
<totfact> 0.40608550E+02</totfact>
</mgrwt>
</event>
<event>
 8    1  0.3572165E-004  0.1555643E+03  0.7546771E-02  0.1202194E+00
         -2   -1    0    0    0  501 -0.00000000000E+00  0.00000000000E+00  0.17456163077E+03  0.17456163077E+03  0.00000000000E+00 0.  1.
          2   -1    0    0  501    0  0.00000000000E+00 -0.00000000000E+00 -0.11863431878E+03  0.11863431878E+03  0.00000000000E+00 0. -1.
         25    2    1    2    0    0  0.37826231215E+02  0.84521642878E+02  0.10523118460E+02  0.15591984475E+03  0.12500212030E+03 0.  0.
         23    2    1    2    0    0 -0.37826231215E+02 -0.84521642878E+02  0.45404193524E+02  0.13727610481E+03  0.90600531337E+02 0.  0.
          5    1    3    3  502    0  0.33469567642E+02  0.10526977295E+02 -0.49201970809E+02  0.60613143300E+02  0.47000000000E+01 0.  1.
         -5    1    3    3    0  502  0.43566635728E+01  0.73994665583E+02  0.59725089270E+02  0.95306701446E+02  0.47000000000E+01 0.  1.
          5    1    4    4  503    0 -0.41688248692E+02 -0.17112212714E+02 -0.13789264235E+02  0.47360022288E+02  0.47000000000E+01 0. -1.
         -5    1    4    4    0  503  0.38620174766E+01 -0.67409430164E+02  0.59193457759E+02  0.89916082519E+02  0.47000000000E+01 0.  1.
<mgrwt>
<rscale>  0 0.14860788E+03</rscale>
<asrwt>0</asrwt>
<pdfrwt beam="1">  1        2 0.18251434E-01 0.15556433E+03</pdfrwt>
<pdfrwt beam="2">  1       -2 0.26855635E-01 0.15556433E+03</pdfrwt>
<totfact> 0.37338563E+03</totfact>
</mgrwt>
</event>
<event>
 8    1  0.3572165E-004  0.1373445E+03  0.7546771E-02  0.1229538E+00
         -4   -1    0    0    0  501 -0.00000000000E+00  0.00000000000E+00  0.86663245058E+02  0.86663245058E+02  0.00000000000E+00 0. -1.
          4   -1    0    0  501    0  0.00000000000E+00 -0.00000000000E+00 -0.17374249461E+03  0.17374249461E+03  0.00000000000E+00 0.  1.
         25    2    1    2    0    0 -0.47431442197E+02 -0.31465570026E+02 -0.30801235142E+02  0.14075589618E+03  0.12499472955E+03 0.  0.
         23    2    1    2    0    0  0.47431442197E+02  0.31465570026E+02 -0.56278014411E+02  0.11964984349E+03  0.88932819226E+02 0.  0.
          5    1    3    3  502    0  0.27009537483E+02  0.21246773382E+02  0.15920672400E+02  0.38164097053E+02  0.47000000000E+01 0.  1.
         -5    1    3    3    0  502 -0.74440979680E+02 -0.52712343408E+02 -0.46721907541E+02  0.10259179912E+03  0.47000000000E+01 0.  1.
          5    1    4    4  503    0  0.40511729681E+02 -0.29975027106E+01  0.12079801205E+02  0.42640319668E+02  0.47000000000E+01 0. -1.
         -5    1    4    4    0  503  0.69197125163E+01  0.34463072737E+02 -0.68357815616E+02  0.77009523824E+02  0.47000000000E+01 0.  1.
<mgrwt>
<rscale>  0 0.12860631E+03</rscale>
<asrwt>0</asrwt>
<pdfrwt beam="1">  1        4 0.26729615E-01 0.13734448E+03</pdfrwt>
<pdfrwt beam="2">  1       -4 0.13332807E-01 0.13734448E+03</pdfrwt>
<totfact> 0.10133989E+03</totfact>
</mgrwt>
</event>
<event>
 8    1  0.3572165E-004  0.4452762E+03  0.7546771E-02  0.1029770E+00
         -2   -1    0    0    0  501 -0.00000000000E+00  0.00000000000E+00  0.13062807204E+03  0.13062807204E+03  0.00000000000E+00 0.  1.
          2   -1    0    0  501    0  0.00000000000E+00 -0.00000000000E+00 -0.16598940219E+04  0.16598940219E+04  0.00000000000E+00 0. -1.
         25    2    1    2    0    0  0.37180711449E+03 -0.21072643441E+03 -0.10576141240E+04  0.11475271318E+04  0.12499888961E+03 0.  0.
         23    2    1    2    0    0 -0.37180711449E+03  0.21072643441E+03 -0.47165182582E+03  0.64299496209E+03  0.91328615054E+02 0.  0.
          5    1    3    3  502    0  0.80561663998E+02 -0.76227013544E+02 -0.41049085947E+03  0.42523590512E+03  0.47000000000E+01 0. -1.
         -5    1    4    4    0  503 -0.14360992907E+03  0.67238679810E+02 -0.23916646630E+03  0.28699745712E+03  0.47000000000E+01 0.  1.
          5    1    4    4  503    0 -0.22819718542E+03  0.14348775460E+03 -0.23248535952E+03  0.35599750497E+03  0.47000000000E+01 0. -1.
         -5    1    3    3    0  502  0.29124545049E+03 -0.13449942087E+03 -0.64712326454E+03  0.72229122669E+03  0.47000000000E+01 0. -1.
<mgrwt>
<rscale>  0 0.44319780E+03</rscale>
<asrwt>0</asrwt>
<pdfrwt beam="1">  1        2 0.25536831E+00 0.44527619E+03</pdfrwt>
<pdfrwt beam="2">  1       -2 0.20096626E-01 0.44527619E+03</pdfrwt>
<totfact> 0.22894433E+02</totfact>
</mgrwt>
</event>
<event>
 8    1  0.3572165E-004  0.2602598E+03  0.7546771E-02  0.1109234E+00
         -2   -1    0    0    0  501 -0.00000000000E+00  0.00000000000E+00  0.28394655334E+02  0.28394655334E+02  0.00000000000E+00 0. -1.
          2   -1    0    0  501    0  0.00000000000E+00 -0.00000000000E+00 -0.23070411637E+04  0.23070411637E+04  0.00000000000E+00 0.  1.
         25    2    1    2    0    0  0.22815480579E+03  0.73986241944E+01 -0.13478869308E+04  0.13727834342E+04  0.12500329506E+03 0.  0.
         23    2    1    2    0    0 -0.22815480579E+03 -0.73986241944E+01 -0.93075957754E+03  0.96265238487E+03  0.90977293163E+02 0.  0.
          5    1    4    4  502    0 -0.18751163229E+03 -0.38741920615E+02 -0.78573640312E+03  0.80874305799E+03  0.47000000000E+01 0. -1.
         -5    1    4    4    0  502 -0.40643173496E+02  0.31343296421E+02 -0.14502317442E+03  0.15390932688E+03  0.47000000000E+01 0.  1.
          5    1    3    3  503    0  0.50471857284E+02  0.55609377045E+02 -0.44305842874E+03  0.44940257283E+03  0.47000000000E+01 0. -1.
         -5    1    3    3    0  503  0.17768294850E+03 -0.48210752851E+02 -0.90482850208E+03  0.92338086132E+03  0.47000000000E+01 0. -1.
<mgrwt>
<rscale>  0 0.25655034E+03</rscale>
<asrwt>0</asrwt>
<pdfrwt beam="1">  1        2 0.35492928E+00 0.26025983E+03</pdfrwt>
<pdfrwt beam="2">  1       -2 0.43684101E-02 0.26025983E+03</pdfrwt>
<totfact> 0.12288858E+03</totfact>
</mgrwt>
</event>
<event>
 8    1  0.3572165E-004  0.2267528E+03  0.7546771E-02  0.1131979E+00
         -1   -1    0    0    0  501 -0.00000000000E+00  0.00000000000E+00  0.25853863613E+03  0.25853863613E+03  0.00000000000E+00 0.  1.
          1   -1    0    0  501    0  0.00000000000E+00 -0.00000000000E+00 -0.18565075659E+03  0.18565075659E+03  0.00000000000E+00 0. -1.
         25    2    1    2    0    0 -0.15112110086E+03 -0.11381524570E+03  0.23389372535E+02  0.22795591538E+03  0.12500135733E+03 0.  0.
         23    2    1    2    0    0  0.15112110086E+03  0.11381524570E+03  0.49498507010E+02  0.21623347733E+03  0.92278476615E+02 0.  0.
          5    1    3    3  502    0 -0.54283006884E+02 -0.61755596037E+02 -0.49381322829E+02  0.96026056477E+02  0.47000000000E+01 0.  1.
         -5    1    3    3    0  502 -0.96838093972E+02 -0.52059649661E+02  0.72770695364E+02  0.13192985891E+03  0.47000000000E+01 0.  1.
          5    1    4    4  503    0  0.10526443517E+03  0.27743447713E+02  0.53888857620E+01  0.10909367669E+03  0.47000000000E+01 0. -1.
         -5    1    4    4    0  503  0.45856665682E+02  0.86071797985E+02  0.44109621248E+02  0.10713980065E+03  0.47000000000E+01 0.  1.
<mgrwt>
<rscale>  0 0.22257343E+03</rscale>
<asrwt>0</asrwt>
<pdfrwt beam="1">  1        1 0.28561655E-01 0.22675281E+03</pdfrwt>
<pdfrwt beam="2">  1       -1 0.39775175E-01 0.22675281E+03</pdfrwt>
<totfact> 0.10045309E+03</totfact>
</mgrwt>
</event>
<event>
 8    1  0.3572165E-004  0.1855998E+03  0.7546771E-02  0.1167322E+00
          4   -1    0    0  501    0  0.00000000000E+00  0.00000000000E+00  0.50959282073E+03  0.50959282073E+03  0.00000000000E+00 0. -1.
         -4   -1    0    0    0  501 -0.00000000000E+00 -0.00000000000E+00 -0.79671473815E+02  0.79671473815E+02  0.00000000000E+00 0.  1.
         25    2    1    2    0    0 -0.13298006699E+03 -0.33760570599E+02  0.36785057638E+03  0.41202104720E+03  0.12499528971E+03 0.  0.
         23    2    1    2    0    0  0.13298006699E+03  0.33760570599E+02  0.62070770540E+02  0.17724324735E+03  0.93482157817E+02 0.  0.
          5    1    3    3  502    0 -0.10255177684E+03  0.31437384779E+02  0.16615326142E+03  0.19782358903E+03  0.47000000000E+01 0. -1.
         -5    1    4    4    0  503  0.34388668382E+02  0.38521183650E+02 -0.12630130813E+02  0.53367333710E+02  0.47000000000E+01 0.  1.
          5    1    4    4  503    0  0.98591398611E+02 -0.47606130506E+01  0.74700901353E+02  0.12387591364E+03  0.47000000000E+01 0. -1.
         -5    1    3    3    0  502 -0.30428290157E+02 -0.65197955379E+02  0.20169731496E+03  0.21419745817E+03  0.47000000000E+01 0. -1.
<mgrwt>
<rscale>  0 0.18049816E+03</rscale>
<asrwt>0</asrwt>
<pdfrwt beam="1">  1        4 0.78398894E-01 0.18559983E+03</pdfrwt>
<pdfrwt beam="2">  1       -4 0.12257150E-01 0.18559983E+03</pdfrwt>
<totfact> 0.14006860E+02</totfact>
</mgrwt>
</event>
<event>
 8    1  0.3572165E-004  0.1306102E+03  0.7546771E-02  0.1243076E+00
          2   -1    0    0  501    0  0.00000000000E+00  0.00000000000E+00  0.98811874518E+03  0.98811874518E+03  0.00000000000E+00 0. -1.
         -2   -1    0    0    0  501 -0.00000000000E+00 -0.00000000000E+00 -0.14382196677E+02  0.14382196677E+02  0.00000000000E+00 0.  1.
         25    2    1    2    0    0  0.76915404564E+01 -0.37081569790E+02  0.72988525375E+03  0.74147926505E+03  0.12499925695E+03 0.  0.
         23    2    1    2    0    0 -0.76915404564E+01  0.37081569790E+02  0.24385129475E+03  0.26102167681E+03  0.85056799845E+02 0.  0.
          5    1    3    3  502    0  0.54378252376E+02 -0.25821112239E+02  0.59804837695E+03  0.60108874165E+03  0.47000000000E+01 0.  1.
         -5    1    3    3    0  502 -0.46686711920E+02 -0.11260457552E+02  0.13183687680E+03  0.14039052339E+03  0.47000000000E+01 0.  1.
          5    1    4    4  503    0 -0.35061321794E+02  0.43496904990E+02  0.20686259934E+03  0.21432569149E+03  0.47000000000E+01 0. -1.
         -5    1    4    4    0  503  0.27369781338E+02 -0.64153351994E+01  0.36988695415E+02  0.46695985317E+02  0.47000000000E+01 0.  1.
<mgrwt>
<rscale>  0 0.12001292E+03</rscale>
<asrwt>0</asrwt>
<pdfrwt beam="1">  1        2 0.15201822E+00 0.13061017E+03</pdfrwt>
<pdfrwt beam="2">  1       -2 0.22126464E-02 0.13061017E+03</pdfrwt>
<totfact> 0.16951921E+04</totfact>
</mgrwt>
</event>
<event>
 8    1  0.3572165E-004  0.1314830E+03  0.7546771E-02  0.1240621E+00
          1   -1    0    0  501    0  0.00000000000E+00  0.00000000000E+00  0.12887196397E+04  0.12887196397E+04  0.00000000000E+00 0. -1.
         -1   -1    0    0    0  501 -0.00000000000E+00 -0.00000000000E+00 -0.10124454477E+02  0.10124454477E+02  0.00000000000E+00 0.  1.
         25    2    1    2    0    0 -0.77533726094E+01  0.39955968504E+02  0.79988991639E+03  0.81062423697E+03  0.12502472161E+03 0.  0.
         23    2    1    2    0    0  0.77533726094E+01 -0.39955968504E+02  0.47870526882E+03  0.48821985719E+03  0.86852175316E+02 0.  0.
          5    1    4    4  502    0  0.32919018119E+02 -0.54069493903E+02  0.38041119279E+03  0.38567076312E+03  0.47000000000E+01 0. -1.
         -5    1    4    4    0  502 -0.25165645510E+02  0.14113525399E+02  0.98294076026E+02  0.10254909407E+03  0.47000000000E+01 0.  1.
          5    1    3    3  503    0 -0.29763087184E+02 -0.36176003505E+02  0.41286994529E+03  0.41554569702E+03  0.47000000000E+01 0. -1.
         -5    1    3    3    0  503  0.22009714575E+02  0.76131972009E+02  0.38701997111E+03  0.39507853995E+03  0.47000000000E+01 0. -1.
<mgrwt>
<rscale>  0 0.12151364E+03</rscale>
<asrwt>0</asrwt>
<pdfrwt beam="1">  1        1 0.19826443E+00 0.13148298E+03</pdfrwt>
<pdfrwt beam="2">  1       -1 0.15576094E-02 0.13148298E+03</pdfrwt>
<totfact> 0.95120152E+03</totfact>
</mgrwt>
</event>
<event>
 8    1  0.3572165E-004  0.1483348E+03  0.7546771E-02  0.1211813E+00
         -2   -1    0    0    0  501 -0.00000000000E+00  0.00000000000E+00  0.15885211991E+02  0.15885211991E+02  0.00000000000E+00 0.  1.
          2   -1    0    0  501    0  0.00000000000E+00 -0.00000000000E+00 -0.11933145277E+04  0.11933145277E+04  0.00000000000E+00 0. -1.
         25    2    1    2    0    0 -0.66872519008E+02  0.43707645060E+02 -0.76417204202E+03  0.77843568183E+03  0.12498363455E+03 0.  0.
         23    2    1    2    0    0  0.66872519008E+02 -0.43707645060E+02 -0.41325727368E+03  0.43076405785E+03  0.91617723460E+02 0.  0.
          5    1    4    4  502    0  0.60926702148E+02  0.11568087908E+02 -0.26893884423E+03  0.27603636649E+03  0.47000000000E+01 0. -1.
         -5    1    3    3    0  503 -0.54215188408E+02  0.83616061696E+02 -0.62861973193E+03  0.63648706963E+03  0.47000000000E+01 0.  1.
          5    1    3    3  503    0 -0.12657330600E+02 -0.39908416636E+02 -0.13555231009E+03  0.14194861220E+03  0.47000000000E+01 0.  1.
         -5    1    4    4    0  502  0.59458168601E+01 -0.55275732969E+02 -0.14431842945E+03  0.15472769136E+03  0.47000000000E+01 0.  1.
<mgrwt>
<rscale>  0 0.14113255E+03</rscale>
<asrwt>0</asrwt>
<pdfrwt beam="1">  1        2 0.18358690E+00 0.14833476E+03</pdfrwt>
<pdfrwt beam="2">  1       -2 0.24438781E-02 0.14833476E+03</pdfrwt>
<totfact> 0.11255354E+04</totfact>
</mgrwt>
</event>
<event>
 8    1  0.3572165E-004  0.1495251E+03  0.7546771E-02  0.1210061E+00
         -1   -1    0    0    0  501 -0.00000000000E+00  0.00000000000E+00  0.17681662080E+02  0.17681662080E+02  0.00000000000E+00 0.  1.
          1   -1    0    0  501    0  0.00000000000E+00 -0.00000000000E+00 -0.12196719216E+04  0.12196719216E+04  0.00000000000E+00 0. -1.
         25    2    1    2    0    0 -0.67531117617E+02 -0.46597746670E+02 -0.42227876039E+03  0.44796998801E+03  0.12500382729E+03 0.  0.
         23    2    1    2    0    0  0.67531117617E+02  0.46597746670E+02 -0.77971149908E+03  0.78938359562E+03  0.91894708221E+02 0.  0.
          5    1    3    3  502    0 -0.74769268194E+02 -0.25030091183E+01 -0.11401284840E+03  0.13644679593E+03  0.47000000000E+01 0. -1.
         -5    1    4    4    0  503 -0.21784786877E+02 -0.63125212196E-01 -0.13481288148E+03  0.13664254073E+03  0.47000000000E+01 0.  1.
          5    1    4    4  503    0  0.89315904494E+02  0.46660871882E+02 -0.64489861760E+03  0.65274105490E+03  0.47000000000E+01 0. -1.
         -5    1    3    3    0  502  0.72381505767E+01 -0.44094737552E+02 -0.30826591200E+03  0.31152319208E+03  0.47000000000E+01 0. -1.
<mgrwt>
<rscale>  0 0.14245636E+03</rscale>
<asrwt>0</asrwt>
<pdfrwt beam="1">  1        1 0.18764184E+00 0.14952511E+03</pdfrwt>
<pdfrwt beam="2">  1       -1 0.27202556E-02 0.14952511E+03</pdfrwt>
<totfact> 0.47577145E+03</totfact>
</mgrwt>
</event>
<event>
 8    1  0.3572165E-004  0.2064055E+03  0.7546771E-02  0.1148205E+00
         -2   -1    0    0    0  501 -0.00000000000E+00  0.00000000000E+00  0.13626122287E+03  0.13626122287E+03  0.00000000000E+00 0.  1.
          2   -1    0    0  501    0  0.00000000000E+00 -0.00000000000E+00 -0.31220070034E+03  0.31220070034E+03  0.00000000000E+00 0. -1.
         25    2    1    2    0    0 -0.19161570860E+02  0.16312612703E+03 -0.15596745220E+03  0.25870657914E+03  0.12500379524E+03 0.  0.
         23    2    1    2    0    0  0.19161570860E+02 -0.16312612703E+03 -0.19972025274E+02  0.18975534408E+03  0.92902689385E+02 0.  0.
          5    1    3    3  502    0 -0.22821432176E+02  0.10074731387E+01  0.11104736898E+02  0.25830949465E+02  0.47000000000E+01 0. -1.
         -5    1    3    3    0  502  0.36598613159E+01  0.16211865389E+03 -0.16707218910E+03  0.23287562967E+03  0.47000000000E+01 0. -1.
          5    1    4    4  503    0  0.57676748960E+01 -0.63997055940E+02 -0.53923515807E+02  0.84016217481E+02  0.47000000000E+01 0. -1.
         -5    1    4    4    0  503  0.13393895964E+02 -0.99129071089E+02  0.33951490533E+02  0.10573912660E+03  0.47000000000E+01 0.  1.
<mgrwt>
<rscale>  0 0.20182956E+03</rscale>
<asrwt>0</asrwt>
<pdfrwt beam="1">  1        2 0.48030877E-01 0.20640554E+03</pdfrwt>
<pdfrwt beam="2">  1       -2 0.20963265E-01 0.20640554E+03</pdfrwt>
<totfact> 0.20088329E+03</totfact>
</mgrwt>
</event>
<event>
 8    1  0.3572165E-004  0.1471840E+03  0.7546771E-02  0.1212402E+00
         -2   -1    0    0    0  501 -0.00000000000E+00  0.00000000000E+00  0.81775836936E+02  0.81775836936E+02  0.00000000000E+00 0. -1.
          2   -1    0    0  501    0  0.00000000000E+00 -0.00000000000E+00 -0.31611887530E+03  0.31611887530E+03  0.00000000000E+00 0.  1.
         25    2    1    2    0    0  0.62794795876E+02 -0.45774872189E+02 -0.23229272087E+03  0.27499645248E+03  0.12499846156E+03 0.  0.
         23    2    1    2    0    0 -0.62794795876E+02  0.45774872189E+02 -0.20503174918E+01  0.12289825976E+03  0.95190614753E+02 0.  0.
          5    1    3    3  502    0  0.87792057060E+02 -0.54816442812E+02 -0.22392921193E+03  0.24673603231E+03  0.47000000000E+01 0. -1.
         -5    1    4    4    0  503 -0.27541706191E+02 -0.26720069092E+02  0.12943166380E+02  0.40769145541E+02  0.47000000000E+01 0. -1.
          5    1    4    4  503    0 -0.35253089685E+02  0.72494941281E+02 -0.14993483872E+02  0.82129114218E+02  0.47000000000E+01 0.  1.
         -5    1    3    3    0  502 -0.24997261185E+02  0.90415706226E+01 -0.83635089422E+01  0.28260420165E+02  0.47000000000E+01 0. -1.
<mgrwt>
<rscale>  0 0.14069117E+03</rscale>
<asrwt>0</asrwt>
<pdfrwt beam="1">  1        2 0.48633674E-01 0.14718404E+03</pdfrwt>
<pdfrwt beam="2">  1       -2 0.12580898E-01 0.14718404E+03</pdfrwt>
<totfact> 0.45627477E+03</totfact>
</mgrwt>
</event>
<event>
 8    1  0.3572165E-004  0.2223497E+03  0.7546771E-02  0.1135468E+00
          1   -1    0    0  501    0  0.00000000000E+00  0.00000000000E+00  0.26382908707E+03  0.26382908707E+03  0.00000000000E+00 0. -1.
         -1   -1    0    0    0  501 -0.00000000000E+00 -0.00000000000E+00 -0.17325891374E+03  0.17325891374E+03  0.00000000000E+00 0.  1.
         25    2    1    2    0    0 -0.12188181382E+03 -0.13769310685E+03  0.54139771598E+02  0.22884605330E+03  0.12499933210E+03 0.  0.
         23    2    1    2    0    0  0.12188181382E+03  0.13769310685E+03  0.36430401729E+02  0.20824194751E+03  0.90680572984E+02 0.  0.
          5    1    3    3  502    0 -0.19106856354E+01 -0.32479455874E+02  0.60744352130E+02  0.69069038571E+02  0.47000000000E+01 0. -1.
         -5    1    4    4    0  503  0.12359860938E+03  0.10805793299E+03  0.43734002570E+01  0.16429957319E+03  0.47000000000E+01 0.  1.
          5    1    4    4  503    0 -0.17167955567E+01  0.29635173867E+02  0.32057001472E+02  0.43942374316E+02  0.47000000000E+01 0. -1.
         -5    1    3    3    0  502 -0.11997112819E+03 -0.10521365098E+03 -0.66045805315E+01  0.15977701473E+03  0.47000000000E+01 0. -1.
<mgrwt>
<rscale>  0 0.21788739E+03</rscale>
<asrwt>0</asrwt>
<pdfrwt beam="1">  1        1 0.40589091E-01 0.22234973E+03</pdfrwt>
<pdfrwt beam="2">  1       -1 0.26655217E-01 0.22234973E+03</pdfrwt>
<totfact> 0.12850491E+03</totfact>
</mgrwt>
</event>
<event>
 8    1  0.3572165E-004  0.1334493E+03  0.7546771E-02  0.1238315E+00
          2   -1    0    0  501    0  0.00000000000E+00  0.00000000000E+00  0.17843584001E+03  0.17843584001E+03  0.00000000000E+00 0.  1.
         -2   -1    0    0    0  501 -0.00000000000E+00 -0.00000000000E+00 -0.74559891340E+02  0.74559891340E+02  0.00000000000E+00 0. -1.
         25    2    1    2    0    0  0.45225182345E+02 -0.11769508452E+02  0.72459821682E+02  0.15185239964E+03  0.12499954829E+03 0.  0.
         23    2    1    2    0    0 -0.45225182345E+02  0.11769508452E+02  0.31416126986E+02  0.10114333170E+03  0.84018819712E+02 0.  0.
          5    1    3    3  502    0 -0.37411581267E+02 -0.29194938045E+01 -0.49973398229E+01  0.38147257598E+02  0.47000000000E+01 0.  1.
         -5    1    3    3    0  502  0.82636763612E+02 -0.88500146479E+01  0.77457161505E+02  0.11370514205E+03  0.47000000000E+01 0.  1.
          5    1    4    4  503    0  0.39148172160E+01  0.24946484841E+02 -0.16961957315E+02  0.30780690306E+02  0.47000000000E+01 0. -1.
         -5    1    4    4    0  503 -0.49139999561E+02 -0.13176976389E+02  0.48378084301E+02  0.70362641396E+02  0.47000000000E+01 0.  1.
<mgrwt>
<rscale>  0 0.12294587E+03</rscale>
<asrwt>0</asrwt>
<pdfrwt beam="1">  1        2 0.27451668E-01 0.13344934E+03</pdfrwt>
<pdfrwt beam="2">  1       -2 0.11470753E-01 0.13344934E+03</pdfrwt>
<totfact> 0.96988121E+03</totfact>
</mgrwt>
</event>
<event>
 8    1  0.3572165E-004  0.1330405E+03  0.7546771E-02  0.1235824E+00
          1   -1    0    0  501    0  0.00000000000E+00  0.00000000000E+00  0.52615731107E+03  0.52615731107E+03  0.00000000000E+00 0. -1.
         -1   -1    0    0    0  501 -0.00000000000E+00 -0.00000000000E+00 -0.30592960833E+02  0.30592960833E+02  0.00000000000E+00 0.  1.
         25    2    1    2    0    0 -0.20053121292E+02  0.40900938266E+02  0.37966712044E+03  0.40230198775E+03  0.12499901029E+03 0.  0.
         23    2    1    2    0    0  0.20053121292E+02 -0.40900938266E+02  0.11589722979E+03  0.15444828415E+03  0.91362411199E+02 0.  0.
          5    1    4    4  502    0 -0.24201128500E+02 -0.18821964298E+01  0.46766894923E+00  0.24729456086E+02  0.47000000000E+01 0. -1.
         -5    1    3    3    0  503  0.47768813152E+02 -0.86820508272E+01  0.13127825974E+03  0.14004752407E+03  0.47000000000E+01 0.  1.
          5    1    3    3  503    0 -0.67821934444E+02  0.49582989093E+02  0.24838886070E+03  0.26225446368E+03  0.47000000000E+01 0.  1.
         -5    1    4    4    0  502  0.44254249792E+02 -0.39018741836E+02  0.11542956084E+03  0.12971882807E+03  0.47000000000E+01 0.  1.
<mgrwt>
<rscale>  0 0.12451804E+03</rscale>
<asrwt>0</asrwt>
<pdfrwt beam="1">  1        1 0.80947272E-01 0.13304047E+03</pdfrwt>
<pdfrwt beam="2">  1       -1 0.47066098E-02 0.13304047E+03</pdfrwt>
<totfact> 0.77683311E+03</totfact>
</mgrwt>
</event>
<event>
 8    1  0.3572165E-004  0.1282968E+03  0.7546771E-02  0.1245771E+00
         -1   -1    0    0    0  501 -0.00000000000E+00  0.00000000000E+00  0.26658985506E+02  0.26658985506E+02  0.00000000000E+00 0.  1.
          1   -1    0    0  501    0  0.00000000000E+00 -0.00000000000E+00 -0.67043235932E+03  0.67043235932E+03  0.00000000000E+00 0. -1.
         25    2    1    2    0    0  0.24807234856E+02  0.14812630216E+02 -0.55085977044E+03  0.56560281421E+03  0.12500097534E+03 0.  0.
         23    2    1    2    0    0 -0.24807234856E+02 -0.14812630216E+02 -0.92913603376E+02  0.13148853062E+03  0.88439149009E+02 0.  0.
          5    1    4    4  502    0 -0.44032721566E+02 -0.31299671713E+02 -0.90647950587E+02  0.10562997190E+03  0.47000000000E+01 0. -1.
         -5    1    3    3    0  503 -0.99671412123E+01 -0.47791909985E+02 -0.32315751932E+03  0.32685819992E+03  0.47000000000E+01 0.  1.
          5    1    3    3  503    0  0.34774376068E+02  0.62604540201E+02 -0.22770225113E+03  0.23874461429E+03  0.47000000000E+01 0.  1.
         -5    1    4    4    0  502  0.19225486710E+02  0.16487041498E+02 -0.22656527888E+01  0.25858558721E+02  0.47000000000E+01 0.  1.
<mgrwt>
<rscale>  0 0.11839361E+03</rscale>
<asrwt>0</asrwt>
<pdfrwt beam="1">  1        1 0.10314343E+00 0.12829675E+03</pdfrwt>
<pdfrwt beam="2">  1       -1 0.41013827E-02 0.12829675E+03</pdfrwt>
<totfact> 0.68307566E+03</totfact>
</mgrwt>
</event>
<event>
 8    1  0.3572165E-004  0.1502789E+03  0.7546771E-02  0.1208213E+00
          2   -1    0    0  501    0  0.00000000000E+00  0.00000000000E+00  0.21547756060E+04  0.21547756060E+04  0.00000000000E+00 0. -1.
         -2   -1    0    0    0  501 -0.00000000000E+00 -0.00000000000E+00 -0.91031512290E+01  0.91031512290E+01  0.00000000000E+00 0.  1.
         25    2    1    2    0    0 -0.77608134673E+02  0.30591683556E+02  0.13357603949E+04  0.13441873336E+04  0.12499952562E+03 0.  0.
         23    2    1    2    0    0  0.77608134673E+02 -0.30591683556E+02  0.80991205985E+03  0.81969142367E+03  0.94750259465E+02 0.  0.
          5    1    3    3  502    0 -0.35353705020E+02 -0.48439397290E+02  0.58387167015E+03  0.58696207447E+03  0.47000000000E+01 0. -1.
         -5    1    3    3    0  502 -0.42254429653E+02  0.79031080846E+02  0.75188872479E+03  0.75722525911E+03  0.47000000000E+01 0. -1.
          5    1    4    4  503    0  0.81648853073E+02 -0.93120226301E+01  0.76689958932E+03  0.77130429732E+03  0.47000000000E+01 0. -1.
         -5    1    4    4    0  503 -0.40407184003E+01 -0.21279660926E+02  0.43012470536E+02  0.48387126345E+02  0.47000000000E+01 0.  1.
<mgrwt>
<rscale>  0 0.14387079E+03</rscale>
<asrwt>0</asrwt>
<pdfrwt beam="1">  1        2 0.33150353E+00 0.15027892E+03</pdfrwt>
<pdfrwt beam="2">  1       -2 0.14004865E-02 0.15027892E+03</pdfrwt>
<totfact> 0.79549518E+03</totfact>
</mgrwt>
</event>
<event>
 8    1  0.3572165E-004  0.1810388E+03  0.7546771E-02  0.1172094E+00
         -1   -1    0    0    0  501 -0.00000000000E+00  0.00000000000E+00  0.23698526819E+02  0.23698526819E+02  0.00000000000E+00 0. -1.
          1   -1    0    0  501    0  0.00000000000E+00 -0.00000000000E+00 -0.16090392391E+04  0.16090392391E+04  0.00000000000E+00 0.  1.
         25    2    1    2    0    0  0.82834705522E+02  0.10143240764E+03 -0.12251745696E+04  0.12384780030E+04  0.12499966373E+03 0.  0.
         23    2    1    2    0    0 -0.82834705522E+02 -0.10143240764E+03 -0.36016614260E+03  0.39425976294E+03  0.92579634013E+02 0.  0.
          5    1    4    4  502    0 -0.66502736404E+02 -0.77199547040E+02 -0.34732987598E+03  0.36199795132E+03  0.47000000000E+01 0. -1.
         -5    1    3    3    0  503  0.10808150355E+03  0.79205253785E+02 -0.11189846175E+04  0.11269887967E+04  0.47000000000E+01 0.  1.
          5    1    3    3  503    0 -0.25246798025E+02  0.22227153850E+02 -0.10618995213E+03  0.11148920626E+03  0.47000000000E+01 0.  1.
         -5    1    4    4    0  502 -0.16331969118E+02 -0.24232860596E+02 -0.12836266628E+02  0.32261811618E+02  0.47000000000E+01 0.  1.
<mgrwt>
<rscale>  0 0.17563656E+03</rscale>
<asrwt>0</asrwt>
<pdfrwt beam="1">  1        1 0.24754453E+00 0.18103877E+03</pdfrwt>
<pdfrwt beam="2">  1       -1 0.36459267E-02 0.18103877E+03</pdfrwt>
<totfact> 0.17157982E+03</totfact>
</mgrwt>
</event>
<event>
 8    1  0.3572165E-004  0.2039716E+03  0.7546771E-02  0.1150464E+00
         -1   -1    0    0    0  501 -0.00000000000E+00  0.00000000000E+00  0.12254237362E+03  0.12254237362E+03  0.00000000000E+00 0.  1.
          1   -1    0    0  501    0  0.00000000000E+00 -0.00000000000E+00 -0.45262188491E+03  0.45262188491E+03  0.00000000000E+00 0. -1.
         25    2    1    2    0    0 -0.15984419099E+02 -0.16040462499E+03 -0.86786694838E+01  0.20415610003E+03  0.12497699189E+03 0.  0.
         23    2    1    2    0    0  0.15984419099E+02  0.16040462499E+03 -0.32140084181E+03  0.37100815850E+03  0.91451665846E+02 0.  0.
          5    1    3    3  502    0  0.20463422620E+02 -0.14689825060E+03 -0.40369995975E+02  0.15378450595E+03  0.47000000000E+01 0.  1.
         -5    1    4    4    0  503 -0.37364860653E+02  0.62583330886E+02 -0.14400529614E+03  0.16146956813E+03  0.47000000000E+01 0.  1.
          5    1    4    4  503    0  0.53349279752E+02  0.97821294104E+02 -0.17739554567E+03  0.20953859037E+03  0.47000000000E+01 0. -1.
         -5    1    3    3    0  502 -0.36447841719E+02 -0.13506374388E+02  0.31691326492E+02  0.50371594077E+02  0.47000000000E+01 0.  1.
<mgrwt>
<rscale>  0 0.19914333E+03</rscale>
<asrwt>0</asrwt>
<pdfrwt beam="1">  1        1 0.69634136E-01 0.20397155E+03</pdfrwt>
<pdfrwt beam="2">  1       -1 0.18852673E-01 0.20397155E+03</pdfrwt>
<totfact> 0.11434253E+03</totfact>
</mgrwt>
</event>
<event>
 8    1  0.3572165E-004  0.1313103E+03  0.7546771E-02  0.1239004E+00
         -3   -1    0    0    0  501 -0.00000000000E+00  0.00000000000E+00  0.35576035959E+02  0.35576035959E+02  0.00000000000E+00 0.  1.
          3   -1    0    0  501    0  0.00000000000E+00 -0.00000000000E+00 -0.50659867184E+03  0.50659867184E+03  0.00000000000E+00 0. -1.
         25    2    1    2    0    0  0.16825559959E+02  0.36531356917E+02 -0.12198271725E+03  0.17922659034E+03  0.12499899148E+03 0.  0.
         23    2    1    2    0    0 -0.16825559959E+02 -0.36531356917E+02 -0.34903991863E+03  0.36294811746E+03  0.91021050657E+02 0.  0.
          5    1    3    3  502    0  0.63264929101E+02 -0.10398501923E+02 -0.70197947418E+02  0.95186248577E+02  0.47000000000E+01 0.  1.
         -5    1    3    3    0  502 -0.46439369142E+02  0.46929858840E+02 -0.51784769829E+02  0.84040341760E+02  0.47000000000E+01 0.  1.
          5    1    4    4  503    0 -0.52600279631E+02 -0.30187404238E+02 -0.25159423057E+03  0.25884322600E+03  0.47000000000E+01 0. -1.
         -5    1    4    4    0  503  0.35774719672E+02 -0.63439526782E+01 -0.97445688063E+02  0.10410489146E+03  0.47000000000E+01 0.  1.
<mgrwt>
<rscale>  0 0.12251576E+03</rscale>
<asrwt>0</asrwt>
<pdfrwt beam="1">  1        3 0.77938254E-01 0.13131027E+03</pdfrwt>
<pdfrwt beam="2">  1       -3 0.54732365E-02 0.13131027E+03</pdfrwt>
<totfact> 0.71766929E+02</totfact>
</mgrwt>
</event>
<event>
 8    1  0.3866397E-004  0.1479250E+03  0.7546771E-02  0.1212832E+00
          2   -1    0    0  501    0  0.00000000000E+00  0.00000000000E+00  0.83389156375E+03  0.83389156375E+03  0.00000000000E+00 0. -1.
         -2   -1    0    0    0  501 -0.00000000000E+00 -0.00000000000E+00 -0.21962809285E+02  0.21962809285E+02  0.00000000000E+00 0.  1.
         25    2    1    2    0    0 -0.46180079877E+02 -0.64236553626E+02  0.38647675056E+03  0.41381889704E+03  0.12499146458E+03 0.  0.
         23    2    1    2    0    0  0.46180079877E+02  0.64236553626E+02  0.42545200390E+03  0.44203547600E+03  0.90149985129E+02 0.  0.
          5    1    4    4  502    0  0.45343911638E+02 -0.79691062880E+01  0.19863933550E+03  0.20395894829E+03  0.47000000000E+01 0. -1.
         -5    1    4    4    0  502  0.83616823947E+00  0.72205659914E+02  0.22681266840E+03  0.23807652772E+03  0.47000000000E+01 0.  1.
          5    1    3    3  503    0 -0.30760064471E+02 -0.34979401024E+02  0.37586507592E+03  0.37876956762E+03  0.47000000000E+01 0.  1.
         -5    1    3    3    0  503 -0.15420015407E+02 -0.29257152602E+02  0.10611674645E+02  0.35049329413E+02  0.47000000000E+01 0.  1.
<mgrwt>
<rscale>  0 0.14036974E+03</rscale>
<asrwt>0</asrwt>
<pdfrwt beam="1">  1        2 0.12829099E+00 0.14792498E+03</pdfrwt>
<pdfrwt beam="2">  1       -2 0.33788944E-02 0.14792498E+03</pdfrwt>
<totfact> 0.11482038E+04</totfact>
</mgrwt>
</event>
<event>
 8    1  0.3572165E-004  0.1919846E+03  0.7546771E-02  0.1161003E+00
         -1   -1    0    0    0  501 -0.00000000000E+00  0.00000000000E+00  0.11184620050E+03  0.11184620050E+03  0.00000000000E+00 0.  1.
          1   -1    0    0  501    0  0.00000000000E+00 -0.00000000000E+00 -0.30347903037E+03  0.30347903037E+03  0.00000000000E+00 0. -1.
         25    2    1    2    0    0 -0.88081482467E+02  0.11608054621E+03 -0.74567800682E+02  0.20595739798E+03  0.12500020848E+03 0.  0.
         23    2    1    2    0    0  0.88081482467E+02 -0.11608054621E+03 -0.11706502918E+03  0.20936783289E+03  0.94327236947E+02 0.  0.
          5    1    3    3  502    0 -0.99153383332E+02  0.49059699165E+02 -0.81539048959E+02  0.13750983243E+03  0.47000000000E+01 0.  1.
         -5    1    4    4    0  503 -0.17412194083E+02 -0.20992318000E+02 -0.44023084996E+01  0.28023779865E+02  0.47000000000E+01 0.  1.
          5    1    4    4  503    0  0.10549367655E+03 -0.95088228210E+02 -0.11266272068E+03  0.18134405303E+03  0.47000000000E+01 0. -1.
         -5    1    3    3    0  502  0.11071900865E+02  0.67020847044E+02  0.69712482770E+01  0.68447565550E+02  0.47000000000E+01 0.  1.
<mgrwt>
<rscale>  0 0.18720865E+03</rscale>
<asrwt>0</asrwt>
<pdfrwt beam="1">  1        1 0.46689080E-01 0.19198462E+03</pdfrwt>
<pdfrwt beam="2">  1       -1 0.17207108E-01 0.19198462E+03</pdfrwt>
<totfact> 0.21973007E+03</totfact>
</mgrwt>
</event>
<event>
 8    1  0.3572165E-004  0.2128068E+03  0.7546771E-02  0.1142997E+00
         -3   -1    0    0    0  501 -0.00000000000E+00  0.00000000000E+00  0.56200861182E+02  0.56200861182E+02  0.00000000000E+00 0.  1.
          3   -1    0    0  501    0  0.00000000000E+00 -0.00000000000E+00 -0.76207415252E+03  0.76207415252E+03  0.00000000000E+00 0. -1.
         25    2    1    2    0    0 -0.16806737807E+03 -0.37602427005E+02 -0.29789258211E+03  0.36609659603E+03  0.12500456416E+03 0.  0.
         23    2    1    2    0    0  0.16806737807E+03  0.37602427005E+02 -0.40798070922E+03  0.45217841767E+03  0.91413763847E+02 0.  0.
          5    1    3    3  502    0 -0.11163789904E+03 -0.35416644074E+02 -0.82406011677E+02  0.14328363458E+03  0.47000000000E+01 0. -1.
         -5    1    3    3    0  502 -0.56429479032E+02 -0.21857829312E+01 -0.21548657044E+03  0.22281296145E+03  0.47000000000E+01 0. -1.
          5    1    4    4  503    0  0.30435429283E+02  0.94083126320E+01 -0.19064733774E+03  0.19334768964E+03  0.47000000000E+01 0. -1.
         -5    1    4    4    0  503  0.13763194879E+03  0.28194114373E+02 -0.21733337148E+03  0.25883072803E+03  0.47000000000E+01 0.  1.
<mgrwt>
<rscale>  0 0.20820273E+03</rscale>
<asrwt>0</asrwt>
<pdfrwt beam="1">  1        3 0.11724217E+00 0.21280678E+03</pdfrwt>
<pdfrwt beam="2">  1       -3 0.86462870E-02 0.21280678E+03</pdfrwt>
<totfact> 0.14452108E+02</totfact>
</mgrwt>
</event>
<event>
 8    1  0.3572165E-004  0.1322846E+03  0.7546771E-02  0.1236030E+00
         -1   -1    0    0    0  501 -0.00000000000E+00  0.00000000000E+00  0.19004683681E+02  0.19004683681E+02  0.00000000000E+00 0.  1.
          1   -1    0    0  501    0  0.00000000000E+00 -0.00000000000E+00 -0.78378344252E+03  0.78378344252E+03  0.00000000000E+00 0. -1.
         25    2    1    2    0    0  0.37738549847E+02  0.21070250530E+02 -0.52971040314E+03  0.54597831541E+03  0.12502422204E+03 0.  0.
         23    2    1    2    0    0 -0.37738549847E+02 -0.21070250530E+02 -0.23506835569E+03  0.25680981079E+03  0.93946758685E+02 0.  0.
          5    1    4    4  502    0 -0.35918748778E+02  0.32491264834E+02 -0.94378881984E+02  0.10618522576E+03  0.47000000000E+01 0. -1.
         -5    1    3    3    0  503 -0.28301208756E+01 -0.42895433635E+02 -0.32096894406E+03  0.32386907982E+03  0.47000000000E+01 0. -1.
          5    1    3    3  503    0  0.40568670723E+02  0.63965684165E+02 -0.20874145908E+03  0.22210923559E+03  0.47000000000E+01 0. -1.
         -5    1    4    4    0  502 -0.18198010696E+01 -0.53561515364E+02 -0.14068947371E+03  0.15062458503E+03  0.47000000000E+01 0.  1.
<mgrwt>
<rscale>  0 0.12438705E+03</rscale>
<asrwt>0</asrwt>
<pdfrwt beam="1">  1        1 0.12058203E+00 0.13228458E+03</pdfrwt>
<pdfrwt beam="2">  1       -1 0.29237983E-02 0.13228458E+03</pdfrwt>
<totfact> 0.89497263E+03</totfact>
</mgrwt>
</event>
<event>
 8    1  0.3572165E-004  0.1270059E+03  0.7546771E-02  0.1246307E+00
          2   -1    0    0  501    0  0.00000000000E+00  0.00000000000E+00  0.23281337087E+03  0.23281337087E+03  0.00000000000E+00 0. -1.
         -2   -1    0    0    0  501 -0.00000000000E+00 -0.00000000000E+00 -0.65735695021E+02  0.65735695021E+02  0.00000000000E+00 0.  1.
         25    2    1    2    0    0  0.16711741027E+02 -0.15076178152E+02  0.27777279472E+02  0.13000798002E+03  0.12499569664E+03 0.  0.
         23    2    1    2    0    0 -0.16711741027E+02  0.15076178152E+02  0.13930039637E+03  0.16854108587E+03  0.92167910682E+02 0.  0.
          5    1    3    3  502    0  0.29458176459E+02  0.15728143946E+02 -0.41206676409E+02  0.53246960974E+02  0.47000000000E+01 0. -1.
         -5    1    3    3    0  502 -0.12746435432E+02 -0.30804322098E+02  0.68983955881E+02  0.76761019047E+02  0.47000000000E+01 0. -1.
          5    1    4    4  503    0  0.23494031555E+02  0.37144255436E+02  0.94156486292E+02  0.10401537935E+03  0.47000000000E+01 0. -1.
         -5    1    4    4    0  503 -0.40205772582E+02 -0.22068077284E+02  0.45143910082E+02  0.64525706517E+02  0.47000000000E+01 0.  1.
<mgrwt>
<rscale>  0 0.11807481E+03</rscale>
<asrwt>0</asrwt>
<pdfrwt beam="1">  1        2 0.35817441E-01 0.12700590E+03</pdfrwt>
<pdfrwt beam="2">  1       -2 0.10113184E-01 0.12700590E+03</pdfrwt>
<totfact> 0.88487988E+03</totfact>
</mgrwt>
</event>
<event>
 8    1  0.3572165E-004  0.1545031E+03  0.7546771E-02  0.1203206E+00
         -1   -1    0    0    0  501 -0.00000000000E+00  0.00000000000E+00  0.19787494742E+02  0.19787494742E+02  0.00000000000E+00 0.  1.
          1   -1    0    0  501    0  0.00000000000E+00 -0.00000000000E+00 -0.10224037948E+04  0.10224037948E+04  0.00000000000E+00 0. -1.
         25    2    1    2    0    0 -0.14526648836E+02 -0.89637575096E+02 -0.51207900390E+03  0.53487953176E+03  0.12500115546E+03 0.  0.
         23    2    1    2    0    0  0.14526648836E+02  0.89637575096E+02 -0.49053729617E+03  0.50731175780E+03  0.92154556399E+02 0.  0.
          5    1    4    4  502    0  0.52617859109E+02  0.38689334905E+02 -0.25895074884E+03  0.26710126180E+03  0.47000000000E+01 0. -1.
         -5    1    3    3    0  503 -0.30733486899E+02 -0.11580857906E+03 -0.35383238362E+03  0.37359820650E+03  0.47000000000E+01 0.  1.
          5    1    3    3  503    0  0.16206838063E+02  0.26171003963E+02 -0.15824662028E+03  0.16128132527E+03  0.47000000000E+01 0.  1.
         -5    1    4    4    0  502 -0.38091210273E+02  0.50948240190E+02 -0.23158654734E+03  0.24021049599E+03  0.47000000000E+01 0.  1.
<mgrwt>
<rscale>  0 0.14779750E+03</rscale>
<asrwt>0</asrwt>
<pdfrwt beam="1">  1        1 0.15729288E+00 0.15450310E+03</pdfrwt>
<pdfrwt beam="2">  1       -1 0.30442302E-02 0.15450310E+03</pdfrwt>
<totfact> 0.55648987E+03</totfact>
</mgrwt>
</event>
<event>
 8    1  0.3572165E-004  0.1310791E+03  0.7546771E-02  0.1237965E+00
         -2   -1    0    0    0  501 -0.00000000000E+00  0.00000000000E+00  0.12288220705E+03  0.12288220705E+03  0.00000000000E+00 0.  1.
          2   -1    0    0  501    0  0.00000000000E+00 -0.00000000000E+00 -0.14124041013E+03  0.14124041013E+03  0.00000000000E+00 0. -1.
         25    2    1    2    0    0  0.28534637288E+02  0.27275442227E+02  0.50975471329E+02  0.14064217163E+03  0.12499418582E+03 0.  0.
         23    2    1    2    0    0 -0.28534637288E+02 -0.27275442227E+02 -0.69333674406E+02  0.12348044556E+03  0.94244823491E+02 0.  0.
          5    1    4    4  502    0  0.26960802316E+02 -0.36146049858E+02 -0.36645206094E+02  0.58295650880E+02  0.47000000000E+01 0. -1.
         -5    1    4    4    0  502 -0.55495439604E+02  0.88706076313E+01 -0.32688468312E+02  0.65184794678E+02  0.47000000000E+01 0.  1.
          5    1    3    3  503    0  0.67150285441E+02  0.18949690116E+02 -0.70541246240E+01  0.70285861057E+02  0.47000000000E+01 0. -1.
         -5    1    3    3    0  503 -0.38615648153E+02  0.83257521112E+01  0.58029595953E+02  0.70356310569E+02  0.47000000000E+01 0. -1.
<mgrwt>
<rscale>  0 0.12316546E+03</rscale>
<asrwt>0</asrwt>
<pdfrwt beam="1">  1        2 0.21729294E-01 0.13107907E+03</pdfrwt>
<pdfrwt beam="2">  1       -2 0.18904955E-01 0.13107907E+03</pdfrwt>
<totfact> 0.55522732E+03</totfact>
</mgrwt>
</event>
<event>
 8    1  0.3572165E-004  0.1499815E+03  0.7546771E-02  0.1209024E+00
         -2   -1    0    0    0  501 -0.00000000000E+00  0.00000000000E+00  0.31377091939E+03  0.31377091939E+03  0.00000000000E+00 0. -1.
          2   -1    0    0  501    0  0.00000000000E+00 -0.00000000000E+00 -0.10026937858E+03  0.10026937858E+03  0.00000000000E+00 0.  1.
         25    2    1    2    0    0 -0.56518535732E+02  0.60637961382E+02  0.24321814546E+03  0.28574380140E+03  0.12499258583E+03 0.  0.
         23    2    1    2    0    0  0.56518535732E+02 -0.60637961382E+02 -0.29716604650E+02  0.12829649657E+03  0.93303843426E+02 0.  0.
          5    1    3    3  502    0 -0.84473170466E+02  0.72474620795E+02  0.22207888949E+03  0.24845404071E+03  0.47000000000E+01 0. -1.
         -5    1    4    4    0  503  0.44607646835E+02  0.74382505544E+01 -0.37034020859E+02  0.58641098459E+02  0.47000000000E+01 0.  1.
          5    1    4    4  503    0  0.11910888897E+02 -0.68076211937E+02  0.73174162088E+01  0.69655398110E+02  0.47000000000E+01 0. -1.
         -5    1    3    3    0  502  0.27954634734E+02 -0.11836659413E+02  0.21139255975E+02  0.37289760690E+02  0.47000000000E+01 0. -1.
<mgrwt>
<rscale>  0 0.14324797E+03</rscale>
<asrwt>0</asrwt>
<pdfrwt beam="1">  1        2 0.15426058E-01 0.14998151E+03</pdfrwt>
<pdfrwt beam="2">  1       -2 0.48272449E-01 0.14998151E+03</pdfrwt>
<totfact> 0.15188663E+03</totfact>
</mgrwt>
</event>
<event>
 8    1  0.3572165E-004  0.1290632E+03  0.7546771E-02  0.1243588E+00
         -2   -1    0    0    0  501 -0.00000000000E+00  0.00000000000E+00  0.18740857870E+02  0.18740857870E+02  0.00000000000E+00 0.  1.
          2   -1    0    0  501    0  0.00000000000E+00 -0.00000000000E+00 -0.67332767975E+03  0.67332767975E+03  0.00000000000E+00 0. -1.
         25    2    1    2    0    0 -0.10658868344E+02  0.30274486727E+02 -0.36589988097E+03  0.38799487269E+03  0.12500856897E+03 0.  0.
         23    2    1    2    0    0  0.10658868344E+02 -0.30274486727E+02 -0.28868694091E+03  0.30407366494E+03  0.89947139105E+02 0.  0.
          5    1    4    4  502    0 -0.33964506324E+02 -0.83309699463E+01 -0.56797626595E+02  0.66865934054E+02  0.47000000000E+01 0.  1.
         -5    1    4    4    0  502  0.44623374668E+02 -0.21943516781E+02 -0.23188931432E+03  0.23720773088E+03  0.47000000000E+01 0. -1.
          5    1    3    3  503    0  0.44360475622E+02 -0.23848984053E+02 -0.12002028983E+03  0.13024433119E+03  0.47000000000E+01 0.  1.
         -5    1    3    3    0  503 -0.55019343966E+02  0.54123470781E+02 -0.24587959114E+03  0.25775054149E+03  0.47000000000E+01 0.  1.
<mgrwt>
<rscale>  0 0.11970296E+03</rscale>
<asrwt>0</asrwt>
<pdfrwt beam="1">  1        2 0.10358888E+00 0.12906316E+03</pdfrwt>
<pdfrwt beam="2">  1       -2 0.28832087E-02 0.12906316E+03</pdfrwt>
<totfact> 0.18632815E+04</totfact>
</mgrwt>
</event>
<event>
 8    1  0.3572165E-004  0.1740954E+03  0.7546771E-02  0.1180196E+00
          1   -1    0    0  501    0  0.00000000000E+00  0.00000000000E+00  0.19182288924E+03  0.19182288924E+03  0.00000000000E+00 0. -1.
         -1   -1    0    0    0  501 -0.00000000000E+00 -0.00000000000E+00 -0.14630520358E+03  0.14630520358E+03  0.00000000000E+00 0.  1.
         25    2    1    2    0    0 -0.20070122410E+02  0.11950625516E+03  0.66852155033E+02  0.18648976784E+03  0.12499867215E+03 0.  0.
         23    2    1    2    0    0  0.20070122410E+02 -0.11950625516E+03 -0.21334469379E+02  0.15163832498E+03  0.88625431930E+02 0.  0.
          5    1    3    3  502    0 -0.42010416025E+02  0.28873952296E+01  0.51583397647E+02  0.66754393253E+02  0.47000000000E+01 0.  1.
         -5    1    4    4    0  503  0.47911383793E+02 -0.60260306010E+02 -0.34840302077E+02  0.84632983087E+02  0.47000000000E+01 0.  1.
          5    1    4    4  503    0 -0.27841261383E+02 -0.59245949147E+02  0.13505832698E+02  0.67005341896E+02  0.47000000000E+01 0. -1.
         -5    1    3    3    0  502  0.21940293615E+02  0.11661885993E+03  0.15268757386E+02  0.11973537458E+03  0.47000000000E+01 0.  1.
<mgrwt>
<rscale>  0 0.16776735E+03</rscale>
<asrwt>0</asrwt>
<pdfrwt beam="1">  1        1 0.29511214E-01 0.17409544E+03</pdfrwt>
<pdfrwt beam="2">  1       -1 0.22508493E-01 0.17409544E+03</pdfrwt>
<totfact> 0.25172904E+03</totfact>
</mgrwt>
</event>
<event>
 8    1  0.3572165E-004  0.1802834E+03  0.7546771E-02  0.1173143E+00
          2   -1    0    0  501    0  0.00000000000E+00  0.00000000000E+00  0.13868543845E+04  0.13868543845E+04  0.00000000000E+00 0. -1.
         -2   -1    0    0    0  501 -0.00000000000E+00 -0.00000000000E+00 -0.21668927924E+02  0.21668927924E+02  0.00000000000E+00 0.  1.
         25    2    1    2    0    0 -0.22871375799E+02  0.12788174993E+03  0.87314605502E+03  0.89156386306E+03  0.12500098691E+03 0.  0.
         23    2    1    2    0    0  0.22871375799E+02 -0.12788174993E+03  0.49203940156E+03  0.51695944937E+03  0.90925561879E+02 0.  0.
          5    1    4    4  502    0  0.23611390441E+02 -0.28032854505E+02  0.28126792781E+03  0.28368481790E+03  0.47000000000E+01 0. -1.
         -5    1    3    3    0  503  0.23497318434E+02  0.66776178391E+02  0.16970991234E+03  0.18394218201E+03  0.47000000000E+01 0.  1.
          5    1    3    3  503    0 -0.46368694233E+02  0.61105571542E+02  0.70343614268E+03  0.70762168106E+03  0.47000000000E+01 0.  1.
         -5    1    4    4    0  502 -0.74001464265E+00 -0.99848895428E+02  0.21077147375E+03  0.23327463147E+03  0.47000000000E+01 0.  1.
<mgrwt>
<rscale>  0 0.17459093E+03</rscale>
<asrwt>0</asrwt>
<pdfrwt beam="1">  1        2 0.21336214E+00 0.18028336E+03</pdfrwt>
<pdfrwt beam="2">  1       -2 0.33336823E-02 0.18028336E+03</pdfrwt>
<totfact> 0.56263886E+03</totfact>
</mgrwt>
</event>
<event>
 8    1  0.3572165E-004  0.1614330E+03  0.7546771E-02  0.1194598E+00
         -1   -1    0    0    0  501 -0.00000000000E+00  0.00000000000E+00  0.19867641100E+02  0.19867641100E+02  0.00000000000E+00 0.  1.
          1   -1    0    0  501    0  0.00000000000E+00 -0.00000000000E+00 -0.11237260391E+04  0.11237260391E+04  0.00000000000E+00 0. -1.
         25    2    1    2    0    0 -0.99165134616E+02 -0.24526031212E+02 -0.63396182969E+03  0.65419280081E+03  0.12500147595E+03 0.  0.
         23    2    1    2    0    0  0.99165134616E+02  0.24526031212E+02 -0.46989656826E+03  0.48940087935E+03  0.90968047745E+02 0.  0.
          5    1    3    3  502    0  0.22787358419E+02 -0.12097022349E+02 -0.40963154141E+02  0.48638170716E+02  0.47000000000E+01 0. -1.
         -5    1    4    4    0  503  0.65283094608E+02  0.27495127260E+02 -0.13301831437E+03  0.15077740687E+03  0.47000000000E+01 0.  1.
          5    1    4    4  503    0  0.33882040008E+02 -0.29690960480E+01 -0.33687825390E+03  0.33862347248E+03  0.47000000000E+01 0. -1.
         -5    1    3    3    0  502 -0.12195249303E+03 -0.12429008864E+02 -0.59299867555E+03  0.60555463009E+03  0.47000000000E+01 0. -1.
<mgrwt>
<rscale>  0 0.15488336E+03</rscale>
<asrwt>0</asrwt>
<pdfrwt beam="1">  1        1 0.17288094E+00 0.16143302E+03</pdfrwt>
<pdfrwt beam="2">  1       -1 0.30565600E-02 0.16143302E+03</pdfrwt>
<totfact> 0.46887782E+03</totfact>
</mgrwt>
</event>
<event>
 8    1  0.3572165E-004  0.1410092E+03  0.7546771E-02  0.1222653E+00
         -2   -1    0    0    0  501 -0.00000000000E+00  0.00000000000E+00  0.94232099844E+02  0.94232099844E+02  0.00000000000E+00 0.  1.
          2   -1    0    0  501    0  0.00000000000E+00 -0.00000000000E+00 -0.25195311233E+03  0.25195311233E+03  0.00000000000E+00 0. -1.
         25    2    1    2    0    0  0.51917097099E+02 -0.39532638408E+02  0.13085037930E+02  0.14161505092E+03  0.12500155983E+03 0.  0.
         23    2    1    2    0    0 -0.51917097099E+02  0.39532638408E+02 -0.17080605042E+03  0.20457016125E+03  0.91738920553E+02 0.  0.
          5    1    4    4  502    0  0.18180797905E+02  0.21770253904E+02 -0.96856667304E+02  0.10103360515E+03  0.47000000000E+01 0. -1.
         -5    1    4    4    0  502 -0.70097895004E+02  0.17762384504E+02 -0.73949383113E+02  0.10353655610E+03  0.47000000000E+01 0.  1.
          5    1    3    3  503    0  0.58994663708E+02  0.32273502344E+02 -0.32428017308E+01  0.67487443741E+02  0.47000000000E+01 0. -1.
         -5    1    3    3    0  503 -0.70775666096E+01 -0.71806140752E+02  0.16327839661E+02  0.74127607184E+02  0.47000000000E+01 0. -1.
<mgrwt>
<rscale>  0 0.13329103E+03</rscale>
<asrwt>0</asrwt>
<pdfrwt beam="1">  1        2 0.38762016E-01 0.14100924E+03</pdfrwt>
<pdfrwt beam="2">  1       -2 0.14497246E-01 0.14100924E+03</pdfrwt>
<totfact> 0.46055756E+03</totfact>
</mgrwt>
</event>
<event>
 8    1  0.3572165E-004  0.1252484E+03  0.7546771E-02  0.1245289E+00
         -2   -1    0    0    0  501 -0.00000000000E+00  0.00000000000E+00  0.70764496277E+02  0.70764496277E+02  0.00000000000E+00 0.  1.
          2   -1    0    0  501    0  0.00000000000E+00 -0.00000000000E+00 -0.19338682223E+03  0.19338682223E+03  0.00000000000E+00 0. -1.
         25    2    1    2    0    0  0.42421791153E+01  0.66447820999E+01 -0.10097843899E+03  0.16088446001E+03  0.12500006047E+03 0.  0.
         23    2    1    2    0    0 -0.42421791153E+01 -0.66447820999E+01 -0.21643886963E+02  0.10326685850E+03  0.10066497409E+03 0.  0.
          5    1    3    3  502    0 -0.42984546589E+02 -0.81897402513E+01  0.45339061211E+01  0.44242393646E+02  0.47000000000E+01 0. -1.
         -5    1    3    3    0  502  0.47226725704E+02  0.14834522351E+02 -0.10551234511E+03  0.11664206636E+03  0.47000000000E+01 0. -1.
          5    1    4    4  503    0 -0.47099780268E+02 -0.43752054545E+00 -0.33657062331E+02  0.58081568249E+02  0.47000000000E+01 0. -1.
         -5    1    4    4    0  503  0.42857601153E+02 -0.62072615545E+01  0.12013175367E+02  0.45185290250E+02  0.47000000000E+01 0.  1.
<mgrwt>
<rscale>  0 0.11868086E+03</rscale>
<asrwt>0</asrwt>
<pdfrwt beam="1">  1        2 0.29751818E-01 0.12524841E+03</pdfrwt>
<pdfrwt beam="2">  1       -2 0.10886846E-01 0.12524841E+03</pdfrwt>
<totfact> 0.96055496E+03</totfact>
</mgrwt>
</event>
<event>
 8    1  0.3572165E-004  0.1993693E+03  0.7546771E-02  0.1154933E+00
         -2   -1    0    0    0  501 -0.00000000000E+00  0.00000000000E+00  0.17268210050E+03  0.17268210050E+03  0.00000000000E+00 0.  1.
          2   -1    0    0  501    0  0.00000000000E+00 -0.00000000000E+00 -0.20693214352E+03  0.20693214352E+03  0.00000000000E+00 0. -1.
         25    2    1    2    0    0 -0.37749923327E+02 -0.15066023328E+03 -0.14112582073E+02  0.19986820465E+03  0.12499828661E+03 0.  0.
         23    2    1    2    0    0  0.37749923327E+02  0.15066023328E+03 -0.20137460954E+02  0.17974603936E+03  0.88201806839E+02 0.  0.
          5    1    3    3  502    0 -0.69212966322E+02 -0.13949870719E+03 -0.35702113900E+02  0.15983446109E+03  0.47000000000E+01 0. -1.
         -5    1    3    3    0  502  0.31463042995E+02 -0.11161526089E+02  0.21589531828E+02  0.40033743563E+02  0.47000000000E+01 0. -1.
          5    1    4    4  503    0 -0.99598150572E+01  0.10494711707E+03 -0.36243665337E+02  0.11157413936E+03  0.47000000000E+01 0. -1.
         -5    1    4    4    0  503  0.47709738384E+02  0.45713116215E+02  0.16106204382E+02  0.68171900006E+02  0.47000000000E+01 0.  1.
<mgrwt>
<rscale>  0 0.19396480E+03</rscale>
<asrwt>0</asrwt>
<pdfrwt beam="1">  1        2 0.31835714E-01 0.19936934E+03</pdfrwt>
<pdfrwt beam="2">  1       -2 0.26566477E-01 0.19936934E+03</pdfrwt>
<totfact> 0.20677038E+03</totfact>
</mgrwt>
</event>
<event>
 8    1  0.3572165E-004  0.1578256E+03  0.7546771E-02  0.1199003E+00
         -2   -1    0    0    0  501 -0.00000000000E+00  0.00000000000E+00  0.14095679103E+02  0.14095679103E+02  0.00000000000E+00 0.  1.
          2   -1    0    0  501    0  0.00000000000E+00 -0.00000000000E+00 -0.15988125671E+04  0.15988125671E+04  0.00000000000E+00 0. -1.
         25    2    1    2    0    0 -0.48429542886E+02  0.83305596266E+02 -0.10561121206E+04  0.10678397458E+04  0.12499467384E+03 0.  0.
         23    2    1    2    0    0  0.48429542886E+02 -0.83305596266E+02 -0.52860476740E+03  0.54506850038E+03  0.91604732407E+02 0.  0.
          5    1    3    3  502    0 -0.89994025476E+02  0.63001674640E+02 -0.67418121152E+03  0.68308896316E+03  0.47000000000E+01 0.  1.
         -5    1    3    3    0  502  0.41564482590E+02  0.20303921626E+02 -0.38193090909E+03  0.38475078267E+03  0.47000000000E+01 0.  1.
          5    1    4    4  503    0 -0.20101006825E+02 -0.42530958581E+02 -0.27946961174E+03  0.28344009384E+03  0.47000000000E+01 0. -1.
         -5    1    4    4    0  503  0.68530549711E+02 -0.40774637685E+02 -0.24913515566E+03  0.26162840654E+03  0.47000000000E+01 0.  1.
<mgrwt>
<rscale>  0 0.15120219E+03</rscale>
<asrwt>0</asrwt>
<pdfrwt beam="1">  1        2 0.24597099E+00 0.15782557E+03</pdfrwt>
<pdfrwt beam="2">  1       -2 0.21685675E-02 0.15782557E+03</pdfrwt>
<totfact> 0.81643376E+03</totfact>
</mgrwt>
</event>
<event>
 8    1  0.3572165E-004  0.1630328E+03  0.7546771E-02  0.1192652E+00
         -1   -1    0    0    0  501 -0.00000000000E+00  0.00000000000E+00  0.49276911620E+02  0.49276911620E+02  0.00000000000E+00 0.  1.
          1   -1    0    0  501    0  0.00000000000E+00 -0.00000000000E+00 -0.49015399552E+03  0.49015399552E+03  0.00000000000E+00 0. -1.
         25    2    1    2    0    0  0.10035892964E+03  0.29718256585E+02 -0.17232608843E+03  0.23722556516E+03  0.12499839391E+03 0.  0.
         23    2    1    2    0    0 -0.10035892964E+03 -0.29718256585E+02 -0.26855099547E+03  0.30220534198E+03  0.90847905974E+02 0.  0.
          5    1    4    4  502    0 -0.35247714849E+02 -0.48223871837E+02 -0.18563381310E+03  0.19506395306E+03  0.47000000000E+01 0. -1.
         -5    1    4    4    0  502 -0.65111214790E+02  0.18505615252E+02 -0.82917182365E+02  0.10714138892E+03  0.47000000000E+01 0.  1.
          5    1    3    3  503    0  0.43646873528E+02 -0.59872096074E+01 -0.16358500002E+03  0.16947872575E+03  0.47000000000E+01 0.  1.
         -5    1    3    3    0  503  0.56712056110E+02  0.35705466192E+02 -0.87410884070E+01  0.67746839415E+02  0.47000000000E+01 0.  1.
<mgrwt>
<rscale>  0 0.15654626E+03</rscale>
<asrwt>0</asrwt>
<pdfrwt beam="1">  1        1 0.75408308E-01 0.16303278E+03</pdfrwt>
<pdfrwt beam="2">  1       -1 0.75810633E-02 0.16303278E+03</pdfrwt>
<totfact> 0.42305590E+03</totfact>
</mgrwt>
</event>
<event>
 8    1  0.3572165E-004  0.1613098E+03  0.7546771E-02  0.1194927E+00
          1   -1    0    0  501    0  0.00000000000E+00  0.00000000000E+00  0.16190940101E+02  0.16190940101E+02  0.00000000000E+00 0. -1.
         -1   -1    0    0    0  501 -0.00000000000E+00 -0.00000000000E+00 -0.13675813454E+04  0.13675813454E+04  0.00000000000E+00 0.  1.
         25    2    1    2    0    0 -0.24221676066E+02  0.99042597708E+02 -0.75699843009E+03  0.77399450181E+03  0.12499895964E+03 0.  0.
         23    2    1    2    0    0  0.24221676066E+02 -0.99042597708E+02 -0.59439197517E+03  0.60977778366E+03  0.90172055231E+02 0.  0.
          5    1    4    4  502    0 -0.11593267853E+02 -0.82821236253E+02 -0.26268914519E+03  0.27571985426E+03  0.47000000000E+01 0. -1.
         -5    1    3    3    0  503 -0.62290188290E+02  0.24185123310E+02 -0.20611776349E+03  0.21672934774E+03  0.47000000000E+01 0.  1.
          5    1    3    3  503    0  0.38068512225E+02  0.74857474398E+02 -0.55088066661E+03  0.55726515407E+03  0.47000000000E+01 0.  1.
         -5    1    4    4    0  502  0.35814943918E+02 -0.16221361455E+02 -0.33170282998E+03  0.33405792940E+03  0.47000000000E+01 0.  1.
<mgrwt>
<rscale>  0 0.15460433E+03</rscale>
<asrwt>0</asrwt>
<pdfrwt beam="1">  1        1 0.24909139E-02 0.16130984E+03</pdfrwt>
<pdfrwt beam="2">  1       -1 0.21039713E+00 0.16130984E+03</pdfrwt>
<totfact> 0.62677281E+02</totfact>
</mgrwt>
</event>
<event>
 8    1  0.3572165E-004  0.1366443E+03  0.7546771E-02  0.1229687E+00
          1   -1    0    0  501    0  0.00000000000E+00  0.00000000000E+00  0.12817159441E+02  0.12817159441E+02  0.00000000000E+00 0. -1.
         -1   -1    0    0    0  501 -0.00000000000E+00 -0.00000000000E+00 -0.11583560859E+04  0.11583560859E+04  0.00000000000E+00 0.  1.
         25    2    1    2    0    0 -0.52939961126E+02  0.15634326963E+02 -0.66371297365E+03  0.67763307724E+03  0.12499841725E+03 0.  0.
         23    2    1    2    0    0  0.52939961126E+02 -0.15634326963E+02 -0.48182595283E+03  0.49354016812E+03  0.91534567601E+02 0.  0.
          5    1    3    3  502    0 -0.75531076250E+02 -0.26956204715E+02 -0.29466182310E+03  0.30541653597E+03  0.47000000000E+01 0. -1.
         -5    1    4    4    0  503  0.63004013383E+02  0.20536460452E+02 -0.25145939135E+03  0.26008684589E+03  0.47000000000E+01 0.  1.
          5    1    4    4  503    0 -0.10064052258E+02 -0.36170787415E+02 -0.23036656148E+03  0.23345332223E+03  0.47000000000E+01 0. -1.
         -5    1    3    3    0  502  0.22591115124E+02  0.42590531678E+02 -0.36905115056E+03  0.37221654127E+03  0.47000000000E+01 0. -1.
<mgrwt>
<rscale>  0 0.12850761E+03</rscale>
<asrwt>0</asrwt>
<pdfrwt beam="1">  1        1 0.19718707E-02 0.13664434E+03</pdfrwt>
<pdfrwt beam="2">  1       -1 0.17820863E+00 0.13664434E+03</pdfrwt>
<totfact> 0.14172460E+03</totfact>
</mgrwt>
</event>
<event>
 8    1  0.3572165E-004  0.1571960E+03  0.7546771E-02  0.1201333E+00
          2   -1    0    0  501    0  0.00000000000E+00  0.00000000000E+00  0.32528566827E+03  0.32528566827E+03  0.00000000000E+00 0.  1.
         -2   -1    0    0    0  501 -0.00000000000E+00 -0.00000000000E+00 -0.63472239191E+02  0.63472239191E+02  0.00000000000E+00 0. -1.
         25    2    1    2    0    0 -0.95146278777E+02  0.57042329696E+01  0.11992003813E+03  0.19771541017E+03  0.12500086093E+03 0.  0.
         23    2    1    2    0    0  0.95146278777E+02 -0.57042329696E+01  0.14189339095E+03  0.19104249729E+03  0.85312066784E+02 0.  0.
          5    1    4    4  502    0  0.72374674785E+02  0.28717734814E+02  0.57263518048E+02  0.96767775330E+02  0.47000000000E+01 0. -1.
         -5    1    4    4    0  502  0.22771603992E+02 -0.34421967784E+02  0.84629872899E+02  0.94274721964E+02  0.47000000000E+01 0.  1.
          5    1    3    3  503    0 -0.66613331352E+02 -0.64958482603E+01 -0.65462749300E+01  0.67412726350E+02  0.47000000000E+01 0. -1.
         -5    1    3    3    0  503 -0.28532947425E+02  0.12200081230E+02  0.12646631306E+03  0.13030268382E+03  0.47000000000E+01 0. -1.
<mgrwt>
<rscale>  0 0.14930197E+03</rscale>
<asrwt>0</asrwt>
<pdfrwt beam="1">  1        2 0.50043948E-01 0.15719595E+03</pdfrwt>
<pdfrwt beam="2">  1       -2 0.97649600E-02 0.15719595E+03</pdfrwt>
<totfact> 0.66466008E+03</totfact>
</mgrwt>
</event>
<event>
 8    1  0.3572165E-004  0.1552436E+03  0.7546771E-02  0.1205385E+00
         -1   -1    0    0    0  501 -0.00000000000E+00  0.00000000000E+00  0.44872244721E+02  0.44872244721E+02  0.00000000000E+00 0.  1.
          1   -1    0    0  501    0  0.00000000000E+00 -0.00000000000E+00 -0.44476064055E+03  0.44476064055E+03  0.00000000000E+00 0. -1.
         25    2    1    2    0    0  0.54723119707E+02  0.74039074750E+02 -0.17498954695E+03  0.23392714301E+03  0.12499664906E+03 0.  0.
         23    2    1    2    0    0 -0.54723119707E+02 -0.74039074750E+02 -0.22489884887E+03  0.25570574225E+03  0.79558343223E+02 0.  0.
          5    1    4    4  502    0 -0.75240351070E+02 -0.60004494005E+02 -0.18036072545E+03  0.20448406054E+03  0.47000000000E+01 0. -1.
         -5    1    3    3    0  503  0.72930380673E+01  0.70489318531E+02 -0.23081568058E+02  0.74677849562E+02  0.47000000000E+01 0. -1.
          5    1    3    3  503    0  0.47430081639E+02  0.35497562192E+01 -0.15190797889E+03  0.15924929345E+03  0.47000000000E+01 0. -1.
         -5    1    4    4    0  502  0.20517231363E+02 -0.14034580745E+02 -0.44538123420E+02  0.51221681710E+02  0.47000000000E+01 0.  1.
<mgrwt>
<rscale>  0 0.14607123E+03</rscale>
<asrwt>0</asrwt>
<pdfrwt beam="1">  1        1 0.68424712E-01 0.15524357E+03</pdfrwt>
<pdfrwt beam="2">  1       -1 0.69034225E-02 0.15524357E+03</pdfrwt>
<totfact> 0.55123682E+03</totfact>
</mgrwt>
</event>
<event>
 8    1  0.3572165E-004  0.1578720E+03  0.7546771E-02  0.1198744E+00
         -2   -1    0    0    0  501 -0.00000000000E+00  0.00000000000E+00  0.22697084895E+03  0.22697084895E+03  0.00000000000E+00 0.  1.
          2   -1    0    0  501    0  0.00000000000E+00 -0.00000000000E+00 -0.98533733549E+02  0.98533733549E+02  0.00000000000E+00 0. -1.
         25    2    1    2    0    0 -0.49520347959E+02  0.82739320514E+02  0.10571640636E+03  0.18999876316E+03  0.12500204562E+03 0.  0.
         23    2    1    2    0    0  0.49520347959E+02 -0.82739320514E+02  0.22720709045E+02  0.13550581933E+03  0.92452887638E+02 0.  0.
          5    1    4    4  502    0 -0.34763991114E+01 -0.34487044623E+02 -0.30261592008E+02  0.46252519375E+02  0.47000000000E+01 0. -1.
         -5    1    4    4    0  502  0.52996747071E+02 -0.48252275891E+02  0.52982301053E+02  0.89253299959E+02  0.47000000000E+01 0.  1.
          5    1    3    3  503    0 -0.18103228320E+02  0.11223330982E+03  0.84569841597E+02  0.14176808815E+03  0.47000000000E+01 0. -1.
         -5    1    3    3    0  503 -0.31417119640E+02 -0.29493989307E+02  0.21146564759E+02  0.48230675019E+02  0.47000000000E+01 0. -1.
<mgrwt>
<rscale>  0 0.15141547E+03</rscale>
<asrwt>0</asrwt>
<pdfrwt beam="1">  1        2 0.15159036E-01 0.15787201E+03</pdfrwt>
<pdfrwt beam="2">  1       -2 0.34918592E-01 0.15787201E+03</pdfrwt>
<totfact> 0.28820860E+03</totfact>
</mgrwt>
</event>
<event>
 8    1  0.3572165E-004  0.1813703E+03  0.7546771E-02  0.1172299E+00
          3   -1    0    0  501    0  0.00000000000E+00  0.00000000000E+00  0.15226095292E+03  0.15226095292E+03  0.00000000000E+00 0. -1.
         -3   -1    0    0    0  501 -0.00000000000E+00 -0.00000000000E+00 -0.19032545920E+03  0.19032545920E+03  0.00000000000E+00 0.  1.
         25    2    1    2    0    0  0.13110013606E+03 -0.91488828180E+01 -0.12697142423E+02  0.18181415367E+03  0.12499688523E+03 0.  0.
         23    2    1    2    0    0 -0.13110013606E+03  0.91488828180E+01 -0.25367363864E+02  0.16077225845E+03  0.89068895838E+02 0.  0.
          5    1    3    3  502    0  0.78196906073E+02 -0.53043371572E+02 -0.46101033060E+02  0.10524139222E+03  0.47000000000E+01 0. -1.
         -5    1    3    3    0  502  0.52903229988E+02  0.43894488754E+02  0.33403890637E+02  0.76572761449E+02  0.47000000000E+01 0. -1.
          5    1    4    4  503    0 -0.69760238085E+02 -0.11452382209E+02  0.28578379139E+02  0.76396738348E+02  0.47000000000E+01 0. -1.
         -5    1    4    4    0  503 -0.61339897976E+02  0.20601265027E+02 -0.53945743003E+02  0.84375520102E+02  0.47000000000E+01 0.  1.
<mgrwt>
<rscale>  0 0.17543195E+03</rscale>
<asrwt>0</asrwt>
<pdfrwt beam="1">  1        3 0.23424762E-01 0.18137025E+03</pdfrwt>
<pdfrwt beam="2">  1       -3 0.29280840E-01 0.18137025E+03</pdfrwt>
<totfact> 0.45811881E+02</totfact>
</mgrwt>
</event>
<event>
 8    1  0.3572165E-004  0.1910159E+03  0.7546771E-02  0.1161237E+00
          3   -1    0    0  501    0  0.00000000000E+00  0.00000000000E+00  0.31841144514E+03  0.31841144514E+03  0.00000000000E+00 0. -1.
         -3   -1    0    0    0  501 -0.00000000000E+00 -0.00000000000E+00 -0.10555515130E+03  0.10555515130E+03  0.00000000000E+00 0.  1.
         25    2    1    2    0    0  0.10825002553E+03 -0.95625513222E+02  0.10155321577E+03  0.21633337496E+03  0.12499906673E+03 0.  0.
         23    2    1    2    0    0 -0.10825002553E+03  0.95625513222E+02  0.11130307807E+03  0.20763322148E+03  0.99301926800E+02 0.  0.
          5    1    4    4  502    0 -0.45167959825E+02  0.80320964763E+02  0.10858639250E+03  0.14249454941E+03  0.47000000000E+01 0. -1.
         -5    1    3    3    0  503  0.63528065617E+02 -0.10198785107E+03  0.11757270479E+03  0.16817481321E+03  0.47000000000E+01 0. -1.
          5    1    3    3  503    0  0.44721959918E+02  0.63623378495E+01 -0.16019489022E+02  0.48158561755E+02  0.47000000000E+01 0. -1.
         -5    1    4    4    0  502 -0.63082065709E+02  0.15304548459E+02  0.27166855619E+01  0.65138672063E+02  0.47000000000E+01 0.  1.
<mgrwt>
<rscale>  0 0.18695428E+03</rscale>
<asrwt>0</asrwt>
<pdfrwt beam="1">  1        3 0.48986376E-01 0.19101590E+03</pdfrwt>
<pdfrwt beam="2">  1       -3 0.16239254E-01 0.19101590E+03</pdfrwt>
<totfact> 0.32735616E+02</totfact>
</mgrwt>
</event>
<event>
 8    1  0.3572165E-004  0.1251215E+03  0.7546771E-02  0.1250806E+00
          1   -1    0    0  501    0  0.00000000000E+00  0.00000000000E+00  0.41055631001E+03  0.41055631001E+03  0.00000000000E+00 0.  1.
         -1   -1    0    0    0  501 -0.00000000000E+00 -0.00000000000E+00 -0.31228475432E+02  0.31228475432E+02  0.00000000000E+00 0. -1.
         25    2    1    2    0    0  0.58300086758E+01 -0.58797532488E+00  0.15096057102E+03  0.19607264622E+03  0.12498421451E+03 0.  0.
         23    2    1    2    0    0 -0.58300086758E+01  0.58797532488E+00  0.22836726355E+03  0.24571213921E+03  0.90490406006E+02 0.  0.
          5    1    4    4  502    0 -0.42396848213E+02 -0.21013937721E+02  0.13171028091E+03  0.14003130512E+03  0.47000000000E+01 0. -1.
         -5    1    3    3    0  503 -0.51147241984E+02 -0.79613433576E+01  0.25268890772E+02  0.57792994311E+02  0.47000000000E+01 0.  1.
          5    1    3    3  503    0  0.56977250660E+02  0.73733680328E+01  0.12569168025E+03  0.13827965191E+03  0.47000000000E+01 0.  1.
         -5    1    4    4    0  502  0.36566839537E+02  0.21601913046E+02  0.96656982644E+02  0.10568083409E+03  0.47000000000E+01 0.  1.
<mgrwt>
<rscale>  0 0.11544543E+03</rscale>
<asrwt>0</asrwt>
<pdfrwt beam="1">  1        1 0.63162506E-01 0.12512150E+03</pdfrwt>
<pdfrwt beam="2">  1       -1 0.48043811E-02 0.12512150E+03</pdfrwt>
<totfact> 0.10324043E+04</totfact>
</mgrwt>
</event>
<event>
 8    1  0.3572165E-004  0.1383796E+03  0.7546771E-02  0.1227215E+00
          2   -1    0    0  501    0  0.00000000000E+00  0.00000000000E+00  0.97399437961E+03  0.97399437961E+03  0.00000000000E+00 0. -1.
         -2   -1    0    0    0  501 -0.00000000000E+00 -0.00000000000E+00 -0.15886241313E+02  0.15886241313E+02  0.00000000000E+00 0.  1.
         25    2    1    2    0    0 -0.56519061414E+02 -0.18207026304E+02  0.59980677553E+03  0.61556241671E+03  0.12499208287E+03 0.  0.
         23    2    1    2    0    0  0.56519061414E+02  0.18207026304E+02  0.35830136277E+03  0.37431820422E+03  0.90599952188E+02 0.  0.
          5    1    4    4  502    0  0.38691772203E+02 -0.33888570645E+02  0.14312366497E+03  0.15215768772E+03  0.47000000000E+01 0. -1.
         -5    1    4    4    0  502  0.17827289211E+02  0.52095596949E+02  0.21517769780E+03  0.22216051650E+03  0.47000000000E+01 0.  1.
          5    1    3    3  503    0 -0.66684062541E+02 -0.53627206202E+02  0.52597971181E+03  0.53291593022E+03  0.47000000000E+01 0.  1.
         -5    1    3    3    0  503  0.10165001127E+02  0.35420179898E+02  0.73827063718E+02  0.82646486490E+02  0.47000000000E+01 0.  1.
<mgrwt>
<rscale>  0 0.13016255E+03</rscale>
<asrwt>0</asrwt>
<pdfrwt beam="1">  1        2 0.14984524E+00 0.13837963E+03</pdfrwt>
<pdfrwt beam="2">  1       -2 0.24440379E-02 0.13837963E+03</pdfrwt>
<totfact> 0.15012951E+04</totfact>
</mgrwt>
</event>
<event>
 8    1  0.3572165E-004  0.1426475E+03  0.7546771E-02  0.1220856E+00
          1   -1    0    0  501    0  0.00000000000E+00  0.00000000000E+00  0.14975790972E+02  0.14975790972E+02  0.00000000000E+00 0. -1.
         -1   -1    0    0    0  501 -0.00000000000E+00 -0.00000000000E+00 -0.11401434567E+04  0.11401434567E+04  0.00000000000E+00 0.  1.
         25    2    1    2    0    0 -0.68738921737E+02  0.62694837972E+00 -0.74518215163E+03  0.75871256810E+03  0.12499155755E+03 0.  0.
         23    2    1    2    0    0  0.68738921737E+02 -0.62694837972E+00 -0.37998551407E+03  0.39640667954E+03  0.89575846397E+02 0.  0.
          5    1    3    3  502    0 -0.89777235083E+02  0.36714826456E+02 -0.58998274274E+03  0.59792111281E+03  0.47000000000E+01 0.  1.
         -5    1    3    3    0  502  0.21038313346E+02 -0.36087878076E+02 -0.15519940890E+03  0.16079145529E+03  0.47000000000E+01 0.  1.
          5    1    4    4  503    0  0.22933402384E+02 -0.13710174075E+02 -0.21168723254E+02  0.34410967181E+02  0.47000000000E+01 0. -1.
         -5    1    4    4    0  503  0.45805519353E+02  0.13083225695E+02 -0.35881679082E+03  0.36199571236E+03  0.47000000000E+01 0.  1.
<mgrwt>
<rscale>  0 0.13455005E+03</rscale>
<asrwt>0</asrwt>
<pdfrwt beam="1">  1        1 0.23039673E-02 0.14264754E+03</pdfrwt>
<pdfrwt beam="2">  1       -1 0.17540673E+00 0.14264754E+03</pdfrwt>
<totfact> 0.11949883E+03</totfact>
</mgrwt>
</event>
<event>
 8    1  0.3572165E-004  0.1271152E+03  0.7546771E-02  0.1246744E+00
          1   -1    0    0  501    0  0.00000000000E+00  0.00000000000E+00  0.39863803964E+03  0.39863803964E+03  0.00000000000E+00 0. -1.
         -1   -1    0    0    0  501 -0.00000000000E+00 -0.00000000000E+00 -0.32457269136E+02  0.32457269136E+02  0.00000000000E+00 0.  1.
         25    2    1    2    0    0  0.22392617787E+02 -0.55812934255E+01  0.15822431631E+03  0.20296110726E+03  0.12500278646E+03 0.  0.
         23    2    1    2    0    0 -0.22392617787E+02  0.55812934255E+01  0.20795645420E+03  0.22813420152E+03  0.90921652485E+02 0.  0.
          5    1    3    3  502    0  0.50389004027E+02  0.42556975907E+02  0.11361060176E+03  0.13145191805E+03  0.47000000000E+01 0. -1.
         -5    1    3    3    0  502 -0.27996386240E+02 -0.48138269333E+02  0.44613714544E+02  0.71509189216E+02  0.47000000000E+01 0. -1.
          5    1    4    4  503    0 -0.17496266274E+02 -0.38907385377E+02  0.62062564173E+02  0.75456980076E+02  0.47000000000E+01 0. -1.
         -5    1    4    4    0  503 -0.48963515124E+01  0.44488678803E+02  0.14589389003E+03  0.15267722144E+03  0.47000000000E+01 0.  1.
<mgrwt>
<rscale>  0 0.11781601E+03</rscale>
<asrwt>0</asrwt>
<pdfrwt beam="1">  1        1 0.61328926E-01 0.12711521E+03</pdfrwt>
<pdfrwt beam="2">  1       -1 0.49934263E-02 0.12711521E+03</pdfrwt>
<totfact> 0.10133271E+04</totfact>
</mgrwt>
</event>
<event>
 8    1  0.3572165E-004  0.1328139E+03  0.7546771E-02  0.1235010E+00
          2   -1    0    0  501    0  0.00000000000E+00  0.00000000000E+00  0.91874146745E+03  0.91874146745E+03  0.00000000000E+00 0. -1.
         -2   -1    0    0    0  501 -0.00000000000E+00 -0.00000000000E+00 -0.15878056204E+02  0.15878056204E+02  0.00000000000E+00 0.  1.
         25    2    1    2    0    0 -0.12690866500E+02 -0.43049301866E+02  0.59195371649E+03  0.60667019751E+03  0.12500090239E+03 0.  0.
         23    2    1    2    0    0  0.12690866500E+02  0.43049301866E+02  0.31090969475E+03  0.32794932614E+03  0.94189286757E+02 0.  0.
          5    1    3    3  502    0 -0.60085909357E+02 -0.53788894952E+02  0.42980486443E+03  0.43733039365E+03  0.47000000000E+01 0.  1.
         -5    1    3    3    0  502  0.47395042857E+02  0.10739593085E+02  0.16214885207E+03  0.16933980387E+03  0.47000000000E+01 0.  1.
          5    1    4    4  503    0  0.14352911981E+02  0.72586432079E+02  0.21107413385E+03  0.22371673202E+03  0.47000000000E+01 0. -1.
         -5    1    4    4    0  503 -0.16620454808E+01 -0.29537130212E+02  0.99835560897E+02  0.10423259411E+03  0.47000000000E+01 0.  1.
<mgrwt>
<rscale>  0 0.12503763E+03</rscale>
<asrwt>0</asrwt>
<pdfrwt beam="1">  1        2 0.14134480E+00 0.13281388E+03</pdfrwt>
<pdfrwt beam="2">  1       -2 0.24427786E-02 0.13281388E+03</pdfrwt>
<totfact> 0.16200205E+04</totfact>
</mgrwt>
</event>
<event>
 8    1  0.3572165E-004  0.1258659E+03  0.7546771E-02  0.1248176E+00
          2   -1    0    0  501    0  0.00000000000E+00  0.00000000000E+00  0.83409522119E+03  0.83409522119E+03  0.00000000000E+00 0.  1.
         -2   -1    0    0    0  501 -0.00000000000E+00 -0.00000000000E+00 -0.15055140641E+02  0.15055140641E+02  0.00000000000E+00 0. -1.
         25    2    1    2    0    0 -0.25267435479E+01 -0.14440765931E+02  0.54933658748E+03  0.56357156623E+03  0.12500921474E+03 0.  0.
         23    2    1    2    0    0  0.25267435479E+01  0.14440765931E+02  0.26970349307E+03  0.28557879560E+03  0.92738094479E+02 0.  0.
          5    1    4    4  502    0 -0.23509777602E+01  0.36753299170E+02  0.39545793635E+02  0.54242897144E+02  0.47000000000E+01 0. -1.
         -5    1    4    4    0  502  0.48777213081E+01 -0.22312533239E+02  0.23015769943E+03  0.23133589845E+03  0.47000000000E+01 0.  1.
          5    1    3    3  503    0  0.53699067334E+02  0.21622220646E+02  0.28752406318E+03  0.29333136069E+03  0.47000000000E+01 0. -1.
         -5    1    3    3    0  503 -0.56225810882E+02 -0.36062986577E+02  0.26181252430E+03  0.27024020554E+03  0.47000000000E+01 0. -1.
<mgrwt>
<rscale>  0 0.11697297E+03</rscale>
<asrwt>0</asrwt>
<pdfrwt beam="1">  1        2 0.12832231E+00 0.12586590E+03</pdfrwt>
<pdfrwt beam="2">  1       -2 0.23161761E-02 0.12586590E+03</pdfrwt>
<totfact> 0.19747651E+04</totfact>
</mgrwt>
</event>
<event>
 8    1  0.3572165E-004  0.1369214E+03  0.7546771E-02  0.1229615E+00
          1   -1    0    0  501    0  0.00000000000E+00  0.00000000000E+00  0.42252685849E+03  0.42252685849E+03  0.00000000000E+00 0. -1.
         -1   -1    0    0    0  501 -0.00000000000E+00 -0.00000000000E+00 -0.35033408606E+02  0.35033408606E+02  0.00000000000E+00 0.  1.
         25    2    1    2    0    0 -0.55492575433E+02 -0.65744691223E+01  0.21617558367E+03  0.25588933223E+03  0.12499927120E+03 0.  0.
         23    2    1    2    0    0  0.55492575433E+02  0.65744691223E+01  0.17131786621E+03  0.20167093486E+03  0.90546701286E+02 0.  0.
          5    1    3    3  502    0 -0.87128315990E+02  0.13783896489E+02  0.19083126022E+03  0.21028551811E+03  0.47000000000E+01 0.  1.
         -5    1    3    3    0  502  0.31635740557E+02 -0.20358365611E+02  0.25344323450E+02  0.45603814118E+02  0.47000000000E+01 0.  1.
          5    1    4    4  503    0 -0.10810271450E+02  0.32793631626E+02  0.52103489581E+02  0.62682915301E+02  0.47000000000E+01 0. -1.
         -5    1    4    4    0  503  0.66302846883E+02 -0.26219162504E+02  0.11921437663E+03  0.13898801956E+03  0.47000000000E+01 0.  1.
<mgrwt>
<rscale>  0 0.12855553E+03</rscale>
<asrwt>0</asrwt>
<pdfrwt beam="1">  1        1 0.65004129E-01 0.13692139E+03</pdfrwt>
<pdfrwt beam="2">  1       -1 0.53897555E-02 0.13692139E+03</pdfrwt>
<totfact> 0.84532123E+03</totfact>
</mgrwt>
</event>
<event>
 8    1  0.3572165E-004  0.1496762E+03  0.7546771E-02  0.1209781E+00
         -3   -1    0    0    0  501 -0.00000000000E+00  0.00000000000E+00  0.43335511150E+02  0.43335511150E+02  0.00000000000E+00 0.  1.
          3   -1    0    0  501    0  0.00000000000E+00 -0.00000000000E+00 -0.43347484524E+03  0.43347484524E+03  0.00000000000E+00 0. -1.
         25    2    1    2    0    0 -0.76589404562E+02  0.30202868193E+02 -0.19457946540E+03  0.24548753691E+03  0.12499924914E+03 0.  0.
         23    2    1    2    0    0  0.76589404562E+02 -0.30202868193E+02 -0.19555986868E+03  0.23132281947E+03  0.92132700115E+02 0.  0.
          5    1    3    3  502    0 -0.10939982061E+03  0.88898947942E+01 -0.13496097903E+03  0.17402271932E+03  0.47000000000E+01 0.  1.
         -5    1    3    3    0  502  0.32810416049E+02  0.21312973398E+02 -0.59618486373E+02  0.71464817594E+02  0.47000000000E+01 0.  1.
          5    1    4    4  503    0  0.47165303059E+02  0.20770919774E+01 -0.17765976558E+03  0.18388573199E+03  0.47000000000E+01 0. -1.
         -5    1    4    4    0  503  0.29424101503E+02 -0.32279960170E+02 -0.17900103108E+02  0.47437087486E+02  0.47000000000E+01 0.  1.
<mgrwt>
<rscale>  0 0.14266987E+03</rscale>
<asrwt>0</asrwt>
<pdfrwt beam="1">  1        3 0.66688436E-01 0.14967619E+03</pdfrwt>
<pdfrwt beam="2">  1       -3 0.66670019E-02 0.14967619E+03</pdfrwt>
<totfact> 0.74373217E+02</totfact>
</mgrwt>
</event>
<event>
 8    1  0.3572165E-004  0.2108127E+03  0.7546771E-02  0.1144753E+00
         -3   -1    0    0    0  501 -0.00000000000E+00  0.00000000000E+00  0.74933243348E+02  0.74933243348E+02  0.00000000000E+00 0.  1.
          3   -1    0    0  501    0  0.00000000000E+00 -0.00000000000E+00 -0.55285562569E+03  0.55285562569E+03  0.00000000000E+00 0. -1.
         25    2    1    2    0    0 -0.14347072047E+02 -0.16916258790E+03 -0.29333823122E+03  0.36123302957E+03  0.12498065503E+03 0.  0.
         23    2    1    2    0    0  0.14347072047E+02  0.16916258790E+03 -0.18458415112E+03  0.26655583947E+03  0.90326558048E+02 0.  0.
          5    1    4    4  502    0  0.23773783830E+02  0.41956861120E+01 -0.11280363124E+02  0.27057959490E+02  0.47000000000E+01 0. -1.
         -5    1    3    3    0  503  0.30910197493E+02 -0.15661224136E+02 -0.12122253653E+03  0.12616539785E+03  0.47000000000E+01 0.  1.
          5    1    3    3  503    0 -0.45257269540E+02 -0.15350136377E+03 -0.17211569469E+03  0.23506763172E+03  0.47000000000E+01 0.  1.
         -5    1    4    4    0  502 -0.94267117829E+01  0.16496690179E+03 -0.17330378800E+03  0.23949787998E+03  0.47000000000E+01 0.  1.
<mgrwt>
<rscale>  0 0.20602477E+03</rscale>
<asrwt>0</asrwt>
<pdfrwt beam="1">  1        3 0.85054716E-01 0.21081267E+03</pdfrwt>
<pdfrwt beam="2">  1       -3 0.11528191E-01 0.21081267E+03</pdfrwt>
<totfact> 0.18622419E+02</totfact>
</mgrwt>
</event>
<event>
 8    1  0.3572165E-004  0.1351090E+03  0.7546771E-02  0.1233014E+00
         -1   -1    0    0    0  501 -0.00000000000E+00  0.00000000000E+00  0.36169460147E+02  0.36169460147E+02  0.00000000000E+00 0.  1.
          1   -1    0    0  501    0  0.00000000000E+00 -0.00000000000E+00 -0.40089786418E+03  0.40089786418E+03  0.00000000000E+00 0. -1.
         25    2    1    2    0    0  0.27953310121E+02 -0.43017648576E+02 -0.23721077887E+03  0.27298973082E+03  0.12499013515E+03 0.  0.
         23    2    1    2    0    0 -0.27953310121E+02  0.43017648576E+02 -0.12751762516E+03  0.16407759350E+03  0.89603606669E+02 0.  0.
          5    1    4    4  502    0  0.11812521021E+02  0.26403719547E+02 -0.11540101488E+03  0.11906374887E+03  0.47000000000E+01 0. -1.
         -5    1    4    4    0  502 -0.39765831142E+02  0.16613929029E+02 -0.12116610275E+02  0.45013844634E+02  0.47000000000E+01 0.  1.
          5    1    3    3  503    0  0.65492160992E+02 -0.55665693918E+01 -0.64298285257E+02  0.92068286251E+02  0.47000000000E+01 0.  1.
         -5    1    3    3    0  503 -0.37538850871E+02 -0.37451079184E+02 -0.17291249362E+03  0.18092144457E+03  0.47000000000E+01 0.  1.
<mgrwt>
<rscale>  0 0.12632417E+03</rscale>
<asrwt>0</asrwt>
<pdfrwt beam="1">  1        1 0.61676595E-01 0.13510899E+03</pdfrwt>
<pdfrwt beam="2">  1       -1 0.55645323E-02 0.13510899E+03</pdfrwt>
<totfact> 0.86085497E+03</totfact>
</mgrwt>
</event>
<event>
 8    1  0.3572165E-004  0.1628969E+03  0.7546771E-02  0.1192376E+00
          2   -1    0    0  501    0  0.00000000000E+00  0.00000000000E+00  0.37819339868E+03  0.37819339868E+03  0.00000000000E+00 0.  1.
         -2   -1    0    0    0  501 -0.00000000000E+00 -0.00000000000E+00 -0.94468845736E+02  0.94468845736E+02  0.00000000000E+00 0. -1.
         25    2    1    2    0    0 -0.30676259881E+02 -0.99847356379E+02  0.74861285028E+01  0.16306881452E+03  0.12499947461E+03 0.  0.
         23    2    1    2    0    0  0.30676259881E+02  0.99847356379E+02  0.27623842444E+03  0.30959342990E+03  0.92897240002E+02 0.  0.
          5    1    4    4  502    0  0.13131229390E+02  0.59401585166E+02  0.49527599686E+02  0.78587852981E+02  0.47000000000E+01 0. -1.
         -5    1    3    3    0  503 -0.32732541335E+02 -0.12453692310E+03  0.26422242423E+02  0.13153360549E+03  0.47000000000E+01 0. -1.
          5    1    3    3  503    0  0.20562814541E+01  0.24689566723E+02 -0.18936113920E+02  0.31535209033E+02  0.47000000000E+01 0. -1.
         -5    1    4    4    0  502  0.17545030491E+02  0.40445771214E+02  0.22671082476E+03  0.23100557691E+03  0.47000000000E+01 0.  1.
<mgrwt>
<rscale>  0 0.15678386E+03</rscale>
<asrwt>0</asrwt>
<pdfrwt beam="1">  1        2 0.58183599E-01 0.16289689E+03</pdfrwt>
<pdfrwt beam="2">  1       -2 0.14533669E-01 0.16289689E+03</pdfrwt>
<totfact> 0.29965404E+03</totfact>
</mgrwt>
</event>
<event>
 8    1  0.3572165E-004  0.1306914E+03  0.7546771E-02  0.1240535E+00
          1   -1    0    0  501    0  0.00000000000E+00  0.00000000000E+00  0.55873953411E+03  0.55873953411E+03  0.00000000000E+00 0. -1.
         -1   -1    0    0    0  501 -0.00000000000E+00 -0.00000000000E+00 -0.35380367433E+02  0.35380367433E+02  0.00000000000E+00 0.  1.
         25    2    1    2    0    0  0.35845320930E+02 -0.13048660608E+02  0.11461716726E+03  0.17383134916E+03  0.12500035338E+03 0.  0.
         23    2    1    2    0    0 -0.35845320930E+02  0.13048660608E+02  0.40874199942E+03  0.42028855238E+03  0.90096007668E+02 0.  0.
          5    1    3    3  502    0  0.12434129719E+02 -0.61850925367E+02  0.22997188399E+02  0.67313484718E+02  0.47000000000E+01 0.  1.
         -5    1    3    3    0  502  0.23411191211E+02  0.48802264759E+02  0.91619978856E+02  0.10651786444E+03  0.47000000000E+01 0.  1.
          5    1    4    4  503    0 -0.55644458466E+02  0.33231337654E+02  0.33351728257E+03  0.33978889819E+03  0.47000000000E+01 0. -1.
         -5    1    4    4    0  503  0.19799137536E+02 -0.20182677046E+02  0.75224716845E+02  0.80499654188E+02  0.47000000000E+01 0.  1.
<mgrwt>
<rscale>  0 0.12156628E+03</rscale>
<asrwt>0</asrwt>
<pdfrwt beam="1">  1        1 0.85959922E-01 0.13069140E+03</pdfrwt>
<pdfrwt beam="2">  1       -1 0.54431338E-02 0.13069140E+03</pdfrwt>
<totfact> 0.57796328E+03</totfact>
</mgrwt>
</event>
<event>
 8    1  0.3572165E-004  0.2013084E+03  0.7546771E-02  0.1152800E+00
          3   -1    0    0  501    0  0.00000000000E+00  0.00000000000E+00  0.97966450599E+03  0.97966450599E+03  0.00000000000E+00 0. -1.
         -3   -1    0    0    0  501 -0.00000000000E+00 -0.00000000000E+00 -0.40779466259E+02  0.40779466259E+02  0.00000000000E+00 0.  1.
         25    2    1    2    0    0  0.12151662322E+03  0.10067860332E+03  0.34793568836E+03  0.40197550872E+03  0.12499038159E+03 0.  0.
         23    2    1    2    0    0 -0.12151662322E+03 -0.10067860332E+03  0.59094935137E+03  0.61846846353E+03  0.91540338701E+02 0.  0.
          5    1    4    4  502    0 -0.84023248172E+02 -0.97787424934E+02  0.53863312956E+03  0.55386823791E+03  0.47000000000E+01 0. -1.
         -5    1    3    3    0  503  0.10952450657E+03  0.12701069595E+03  0.32082549369E+03  0.36204754084E+03  0.47000000000E+01 0.  1.
          5    1    3    3  503    0  0.11992116649E+02 -0.26332092631E+02  0.27110194673E+02  0.39927967883E+02  0.47000000000E+01 0.  1.
         -5    1    4    4    0  502 -0.37493375051E+02 -0.28911783856E+01  0.52316221806E+02  0.64600225613E+02  0.47000000000E+01 0.  1.
<mgrwt>
<rscale>  0 0.19641414E+03</rscale>
<asrwt>0</asrwt>
<pdfrwt beam="1">  1        3 0.15071760E+00 0.20130839E+03</pdfrwt>
<pdfrwt beam="2">  1       -3 0.62737648E-02 0.20130839E+03</pdfrwt>
<totfact> 0.13158624E+02</totfact>
</mgrwt>
</event>
<event>
 8    1  0.3572165E-004  0.1791976E+03  0.7546771E-02  0.1174187E+00
         -1   -1    0    0    0  501 -0.00000000000E+00  0.00000000000E+00  0.10371186572E+03  0.10371186572E+03  0.00000000000E+00 0.  1.
          1   -1    0    0  501    0  0.00000000000E+00 -0.00000000000E+00 -0.35352547674E+03  0.35352547674E+03  0.00000000000E+00 0. -1.
         25    2    1    2    0    0 -0.11489053804E+03  0.57279099286E+02 -0.22526071881E+02  0.18060790377E+03  0.12502423783E+03 0.  0.
         23    2    1    2    0    0  0.11489053804E+03 -0.57279099286E+02 -0.22728753914E+03  0.27662943868E+03  0.91561399903E+02 0.  0.
          5    1    4    4  502    0  0.95623482350E+02  0.10775675098E+01 -0.12979235784E+03  0.16128595004E+03  0.47000000000E+01 0. -1.
         -5    1    3    3    0  503 -0.92323957987E+02  0.95300672162E+02 -0.28353838509E+02  0.13576436017E+03  0.47000000000E+01 0.  1.
          5    1    3    3  503    0 -0.22566580052E+02 -0.38021572876E+02  0.58277666278E+01  0.44843543605E+02  0.47000000000E+01 0.  1.
         -5    1    4    4    0  502  0.19267055689E+02 -0.58356666796E+02 -0.97495181303E+02  0.11534348864E+03  0.47000000000E+01 0.  1.
<mgrwt>
<rscale>  0 0.17355857E+03</rscale>
<asrwt>0</asrwt>
<pdfrwt beam="1">  1        1 0.54388535E-01 0.17919763E+03</pdfrwt>
<pdfrwt beam="2">  1       -1 0.15955672E-01 0.17919763E+03</pdfrwt>
<totfact> 0.20416387E+03</totfact>
</mgrwt>
</event>
<event>
 8    1  0.3572165E-004  0.2960170E+03  0.7546771E-02  0.1088881E+00
          1   -1    0    0  501    0  0.00000000000E+00  0.00000000000E+00  0.89063561790E+03  0.89063561790E+03  0.00000000000E+00 0.  1.
         -1   -1    0    0    0  501 -0.00000000000E+00 -0.00000000000E+00 -0.94604651863E+02  0.94604651863E+02  0.00000000000E+00 0. -1.
         25    2    1    2    0    0  0.13643204865E+03  0.23105475374E+03  0.37685477428E+03  0.47921353718E+03  0.12500436073E+03 0.  0.
         23    2    1    2    0    0 -0.13643204865E+03 -0.23105475374E+03  0.41917619176E+03  0.50602673257E+03  0.91402249537E+02 0.  0.
          5    1    3    3  502    0  0.12219946505E+03  0.10779687622E+03  0.15482765944E+03  0.22482564335E+03  0.47000000000E+01 0.  1.
         -5    1    3    3    0  502  0.14232583604E+02  0.12325787752E+03  0.22202711484E+03  0.25438789383E+03  0.47000000000E+01 0.  1.
          5    1    4    4  503    0 -0.12886095074E+03 -0.17307222407E+03  0.26953452435E+03  0.34529710277E+03  0.47000000000E+01 0. -1.
         -5    1    4    4    0  503 -0.75710979119E+01 -0.57982529668E+02  0.14964166741E+03  0.16072962980E+03  0.47000000000E+01 0.  1.
<mgrwt>
<rscale>  0 0.29282876E+03</rscale>
<asrwt>0</asrwt>
<pdfrwt beam="1">  1        1 0.13702086E+00 0.29601705E+03</pdfrwt>
<pdfrwt beam="2">  1       -1 0.14554562E-01 0.29601705E+03</pdfrwt>
<totfact> 0.65662097E+02</totfact>
</mgrwt>
</event>
<event>
 8    1  0.3572165E-004  0.2051169E+03  0.7546771E-02  0.1149204E+00
          2   -1    0    0  501    0  0.00000000000E+00  0.00000000000E+00  0.14720599208E+04  0.14720599208E+04  0.00000000000E+00 0. -1.
         -2   -1    0    0    0  501 -0.00000000000E+00 -0.00000000000E+00 -0.30400433947E+02  0.30400433947E+02  0.00000000000E+00 0.  1.
         25    2    1    2    0    0 -0.54804332366E+02 -0.15311158062E+03  0.10267759588E+04  0.10470634207E+04  0.12500506594E+03 0.  0.
         23    2    1    2    0    0  0.54804332366E+02  0.15311158062E+03  0.41488352803E+03  0.45539693399E+03  0.93868816371E+02 0.  0.
          5    1    3    3  502    0 -0.50200275671E+02 -0.17428789046E+03  0.94899874132E+03  0.96618685432E+03  0.47000000000E+01 0.  1.
         -5    1    3    3    0  502 -0.46040566950E+01  0.21176309834E+02  0.77777217483E+02  0.80876566419E+02  0.47000000000E+01 0.  1.
          5    1    4    4  503    0  0.61384183856E+02  0.12737367575E+03  0.40065120360E+03  0.42489474961E+03  0.47000000000E+01 0. -1.
         -5    1    4    4    0  503 -0.65798514896E+01  0.25737904875E+02  0.14232324430E+02  0.30502184376E+02  0.47000000000E+01 0.  1.
<mgrwt>
<rscale>  0 0.20063575E+03</rscale>
<asrwt>0</asrwt>
<pdfrwt beam="1">  1        2 0.22647070E+00 0.20511689E+03</pdfrwt>
<pdfrwt beam="2">  1       -2 0.46769910E-02 0.20511689E+03</pdfrwt>
<totfact> 0.30571484E+03</totfact>
</mgrwt>
</event>
<event>
 8    1  0.3572165E-004  0.1964501E+03  0.7546771E-02  0.1157290E+00
         -2   -1    0    0    0  501 -0.00000000000E+00  0.00000000000E+00  0.15354470568E+02  0.15354470568E+02  0.00000000000E+00 0.  1.
          2   -1    0    0  501    0  0.00000000000E+00 -0.00000000000E+00 -0.24684109646E+04  0.24684109646E+04  0.00000000000E+00 0. -1.
         25    2    1    2    0    0 -0.78138134776E+02 -0.12985508065E+03 -0.16408247516E+04  0.16525430447E+04  0.12499895603E+03 0.  0.
         23    2    1    2    0    0  0.78138134776E+02  0.12985508065E+03 -0.81223174245E+03  0.83122239050E+03  0.90787383173E+02 0.  0.
          5    1    4    4  502    0  0.44116494372E+02  0.59291095020E+02 -0.60695451653E+03  0.61145529204E+03  0.47000000000E+01 0. -1.
         -5    1    3    3    0  503  0.33273434858E+02 -0.16639140782E+02 -0.30001513565E+03  0.30234939076E+03  0.47000000000E+01 0. -1.
          5    1    3    3  503    0 -0.11141156963E+03 -0.11321593987E+03 -0.13408096159E+04  0.13501936539E+04  0.47000000000E+01 0. -1.
         -5    1    4    4    0  502  0.34021640404E+02  0.70563985633E+02 -0.20527722592E+03  0.21976709846E+03  0.47000000000E+01 0.  1.
<mgrwt>
<rscale>  0 0.19130503E+03</rscale>
<asrwt>0</asrwt>
<pdfrwt beam="1">  1        2 0.37975557E+00 0.19645012E+03</pdfrwt>
<pdfrwt beam="2">  1       -2 0.23622260E-02 0.19645012E+03</pdfrwt>
<totfact> 0.25367222E+03</totfact>
</mgrwt>
</event>
<event>
 8    1  0.3572165E-004  0.1294089E+03  0.7546771E-02  0.1241682E+00
         -2   -1    0    0    0  501 -0.00000000000E+00  0.00000000000E+00  0.16122414014E+02  0.16122414014E+02  0.00000000000E+00 0. -1.
          2   -1    0    0  501    0  0.00000000000E+00 -0.00000000000E+00 -0.90430562485E+03  0.90430562485E+03  0.00000000000E+00 0.  1.
         25    2    1    2    0    0 -0.18323675307E+02 -0.28035097515E+02 -0.64892404054E+03  0.66170165687E+03  0.12499979417E+03 0.  0.
         23    2    1    2    0    0  0.18323675307E+02  0.28035097515E+02 -0.23925917029E+03  0.25872638199E+03  0.92588694769E+02 0.  0.
          5    1    4    4  502    0 -0.19089395014E+02  0.16113784689E+02 -0.12103454830E+02  0.28153910524E+02  0.47000000000E+01 0. -1.
         -5    1    4    4    0  502  0.37413070321E+02  0.11921312826E+02 -0.22715571546E+03  0.23057247146E+03  0.47000000000E+01 0.  1.
          5    1    3    3  503    0 -0.47921798454E+02 -0.65514029543E+02 -0.42141643178E+03  0.42918817063E+03  0.47000000000E+01 0. -1.
         -5    1    3    3    0  503  0.29598123147E+02  0.37478932028E+02 -0.22750760876E+03  0.23251348624E+03  0.47000000000E+01 0. -1.
<mgrwt>
<rscale>  0 0.12086158E+03</rscale>
<asrwt>0</asrwt>
<pdfrwt beam="1">  1        2 0.13912398E+00 0.12940893E+03</pdfrwt>
<pdfrwt beam="2">  1       -2 0.24803708E-02 0.12940893E+03</pdfrwt>
<totfact> 0.16145956E+04</totfact>
</mgrwt>
</event>
<event>
 8    1  0.3572165E-004  0.1715414E+03  0.7546771E-02  0.1181699E+00
          1   -1    0    0  501    0  0.00000000000E+00  0.00000000000E+00  0.13451275638E+04  0.13451275638E+04  0.00000000000E+00 0. -1.
         -1   -1    0    0    0  501 -0.00000000000E+00 -0.00000000000E+00 -0.19750565381E+02  0.19750565381E+02  0.00000000000E+00 0.  1.
         25    2    1    2    0    0  0.64151395753E+02  0.98448997892E+02  0.61489151472E+03  0.63837139654E+03  0.12497543072E+03 0.  0.
         23    2    1    2    0    0 -0.64151395753E+02 -0.98448997892E+02  0.71048548365E+03  0.72650673259E+03  0.95993766777E+02 0.  0.
          5    1    4    4  502    0  0.87728696417E+01 -0.66575301158E+02  0.41642283577E+03  0.42182852217E+03  0.47000000000E+01 0. -1.
         -5    1    3    3    0  503 -0.36194791042E+02  0.10803511261E+02  0.12537980846E+03  0.13103039771E+03  0.47000000000E+01 0.  1.
          5    1    3    3  503    0  0.10034618680E+03  0.87645486630E+02  0.48951170626E+03  0.50734099883E+03  0.47000000000E+01 0.  1.
         -5    1    4    4    0  502 -0.72924265395E+02 -0.31873696734E+02  0.29406264788E+03  0.30467821042E+03  0.47000000000E+01 0.  1.
<mgrwt>
<rscale>  0 0.16635874E+03</rscale>
<asrwt>0</asrwt>
<pdfrwt beam="1">  1        1 0.20694263E+00 0.17154144E+03</pdfrwt>
<pdfrwt beam="2">  1       -1 0.30385496E-02 0.17154144E+03</pdfrwt>
<totfact> 0.33418445E+03</totfact>
</mgrwt>
</event>
<event>
 8    1  0.3572165E-004  0.1481089E+03  0.7546771E-02  0.1212449E+00
          3   -1    0    0  501    0  0.00000000000E+00  0.00000000000E+00  0.39757189319E+03  0.39757189319E+03  0.00000000000E+00 0. -1.
         -3   -1    0    0    0  501 -0.00000000000E+00 -0.00000000000E+00 -0.71369078972E+02  0.71369078972E+02  0.00000000000E+00 0.  1.
         25    2    1    2    0    0 -0.56266704434E+02 -0.56074185262E+02  0.32701245177E+02  0.15167600778E+03  0.12500393442E+03 0.  0.
         23    2    1    2    0    0  0.56266704434E+02  0.56074185262E+02  0.29350156904E+03  0.31726496438E+03  0.90573894205E+02 0.  0.
          5    1    3    3  502    0  0.37460671366E+02  0.18110103629E+01  0.10064617479E+02  0.39114807717E+02  0.47000000000E+01 0. -1.
         -5    1    3    3    0  502 -0.93727375800E+02 -0.57885195625E+02  0.22636627698E+02  0.11256120007E+03  0.47000000000E+01 0. -1.
          5    1    4    4  503    0  0.80774639587E+01  0.38342912410E+02  0.23900411920E+03  0.24224054853E+03  0.47000000000E+01 0. -1.
         -5    1    4    4    0  503  0.48189240475E+02  0.17731272852E+02  0.54497449839E+02  0.75024415849E+02  0.47000000000E+01 0.  1.
<mgrwt>
<rscale>  0 0.14065617E+03</rscale>
<asrwt>0</asrwt>
<pdfrwt beam="1">  1        3 0.61164906E-01 0.14810888E+03</pdfrwt>
<pdfrwt beam="2">  1       -3 0.10979858E-01 0.14810888E+03</pdfrwt>
<totfact> 0.39276792E+02</totfact>
</mgrwt>
</event>
<event>
 8    1  0.3572165E-004  0.1328840E+03  0.7546771E-02  0.1236514E+00
          1   -1    0    0  501    0  0.00000000000E+00  0.00000000000E+00  0.76723435571E+03  0.76723435571E+03  0.00000000000E+00 0. -1.
         -1   -1    0    0    0  501 -0.00000000000E+00 -0.00000000000E+00 -0.19065232612E+02  0.19065232612E+02  0.00000000000E+00 0.  1.
         25    2    1    2    0    0  0.29747414355E+02  0.33885241962E+02  0.32241607718E+03  0.34872665978E+03  0.12500015252E+03 0.  0.
         23    2    1    2    0    0 -0.29747414355E+02 -0.33885241962E+02  0.42575304592E+03  0.43757292855E+03  0.90395206760E+02 0.  0.
          5    1    3    3  502    0 -0.83660660870E+01 -0.28668762137E+02  0.22358544530E+03  0.22562010179E+03  0.47000000000E+01 0.  1.
         -5    1    3    3    0  502  0.38113480442E+02  0.62554004098E+02  0.98830631886E+02  0.12310655799E+03  0.47000000000E+01 0.  1.
          5    1    4    4  503    0  0.78183003308E+01 -0.47612169941E+02  0.33222982622E+03  0.33574810793E+03  0.47000000000E+01 0. -1.
         -5    1    4    4    0  503 -0.37565714686E+02  0.13726927979E+02  0.93523219700E+02  0.10182482062E+03  0.47000000000E+01 0.  1.
<mgrwt>
<rscale>  0 0.12408035E+03</rscale>
<asrwt>0</asrwt>
<pdfrwt beam="1">  1        1 0.11803603E+00 0.13288400E+03</pdfrwt>
<pdfrwt beam="2">  1       -1 0.29331133E-02 0.13288400E+03</pdfrwt>
<totfact> 0.91979347E+03</totfact>
</mgrwt>
</event>
<event>
 8    1  0.3572165E-004  0.1369301E+03  0.7546771E-02  0.1229448E+00
         -2   -1    0    0    0  501 -0.00000000000E+00  0.00000000000E+00  0.56457168351E+02  0.56457168351E+02  0.00000000000E+00 0.  1.
          2   -1    0    0  501    0  0.00000000000E+00 -0.00000000000E+00 -0.44628771751E+03  0.44628771751E+03  0.00000000000E+00 0. -1.
         25    2    1    2    0    0 -0.55410649980E+02 -0.72617062717E+01 -0.36952673186E+03  0.39408102738E+03  0.12500711207E+03 0.  0.
         23    2    1    2    0    0  0.55410649980E+02  0.72617062717E+01 -0.20303817294E+02  0.10866385848E+03  0.90953376154E+02 0.  0.
          5    1    4    4  502    0  0.73922746942E+02 -0.73681727381E+01 -0.33041403456E+02  0.81441309096E+02  0.47000000000E+01 0. -1.
         -5    1    3    3    0  503 -0.66828846868E+02 -0.44487955632E+02 -0.14193530710E+03  0.16313489624E+03  0.47000000000E+01 0. -1.
          5    1    3    3  503    0  0.11418196888E+02  0.37226249360E+02 -0.22759142476E+03  0.23094613113E+03  0.47000000000E+01 0. -1.
         -5    1    4    4    0  502 -0.18512096961E+02  0.14629879010E+02  0.12737586162E+02  0.27222549384E+02  0.47000000000E+01 0.  1.
<mgrwt>
<rscale>  0 0.12866673E+03</rscale>
<asrwt>0</asrwt>
<pdfrwt beam="1">  1        2 0.68659651E-01 0.13693009E+03</pdfrwt>
<pdfrwt beam="2">  1       -2 0.86857180E-02 0.13693009E+03</pdfrwt>
<totfact> 0.56448879E+03</totfact>
</mgrwt>
</event>
<event>
 8    1  0.3572165E-004  0.2547352E+03  0.7546771E-02  0.1112930E+00
          1   -1    0    0  501    0  0.00000000000E+00  0.00000000000E+00  0.23571566830E+03  0.23571566830E+03  0.00000000000E+00 0. -1.
         -1   -1    0    0    0  501 -0.00000000000E+00 -0.00000000000E+00 -0.31938793129E+03  0.31938793129E+03  0.00000000000E+00 0.  1.
         25    2    1    2    0    0 -0.17167663249E+03  0.14068380728E+03  0.78591364732E+02  0.26658323952E+03  0.12500088484E+03 0.  0.
         23    2    1    2    0    0  0.17167663249E+03 -0.14068380728E+03 -0.16226362772E+03  0.28852036006E+03  0.87462640678E+02 0.  0.
          5    1    4    4  502    0  0.13693052374E+03 -0.85808033550E+02 -0.15328936900E+03  0.22278399315E+03  0.47000000000E+01 0.  1.
         -5    1    4    4    0  502  0.34746108751E+02 -0.54875773727E+02 -0.89742587214E+01  0.65736366914E+02  0.47000000000E+01 0. -1.
          5    1    3    3  503    0 -0.22925453784E+01  0.71494251081E+02  0.20648366046E+02  0.74599790364E+02  0.47000000000E+01 0.  1.
         -5    1    3    3    0  503 -0.16938408711E+03  0.69189556197E+02  0.57942998686E+02  0.19198344916E+03  0.47000000000E+01 0.  1.
<mgrwt>
<rscale>  0 0.25059338E+03</rscale>
<asrwt>0</asrwt>
<pdfrwt beam="1">  1        1 0.36263949E-01 0.25473520E+03</pdfrwt>
<pdfrwt beam="2">  1       -1 0.49136605E-01 0.25473520E+03</pdfrwt>
<totfact> 0.50728200E+02</totfact>
</mgrwt>
</event>
<event>
 8    1  0.3572165E-004  0.1353598E+03  0.7546771E-02  0.1232953E+00
         -1   -1    0    0    0  501 -0.00000000000E+00  0.00000000000E+00  0.18112019837E+02  0.18112019837E+02  0.00000000000E+00 0.  1.
          1   -1    0    0  501    0  0.00000000000E+00 -0.00000000000E+00 -0.81714208110E+03  0.81714208110E+03  0.00000000000E+00 0. -1.
         25    2    1    2    0    0  0.51348709463E+02 -0.80778202281E+01 -0.53649439114E+03  0.55330688484E+03  0.12498134239E+03 0.  0.
         23    2    1    2    0    0 -0.51348709463E+02  0.80778202281E+01 -0.26253567012E+03  0.28194721609E+03  0.88697877280E+02 0.  0.
          5    1    4    4  502    0 -0.27089685605E+02 -0.18868534316E+02 -0.23179188556E+03  0.23417822457E+03  0.47000000000E+01 0. -1.
         -5    1    3    3    0  503 -0.57906386417E+01 -0.50097072814E+02 -0.35142778381E+03  0.35505890417E+03  0.47000000000E+01 0.  1.
          5    1    3    3  503    0  0.57139348105E+02  0.42019252585E+02 -0.18506660734E+03  0.19824798067E+03  0.47000000000E+01 0.  1.
         -5    1    4    4    0  502 -0.24259023858E+02  0.26946354544E+02 -0.30743784564E+02  0.47768991522E+02  0.47000000000E+01 0.  1.
<mgrwt>
<rscale>  0 0.12636385E+03</rscale>
<asrwt>0</asrwt>
<pdfrwt beam="1">  1        1 0.12571419E+00 0.13535981E+03</pdfrwt>
<pdfrwt beam="2">  1       -1 0.27864641E-02 0.13535981E+03</pdfrwt>
<totfact> 0.90261950E+03</totfact>
</mgrwt>
</event>
<event>
 8    1  0.3572165E-004  0.1502954E+03  0.7546771E-02  0.1208890E+00
          1   -1    0    0  501    0  0.00000000000E+00  0.00000000000E+00  0.52973109137E+03  0.52973109137E+03  0.00000000000E+00 0. -1.
         -1   -1    0    0    0  501 -0.00000000000E+00 -0.00000000000E+00 -0.36461071659E+02  0.36461071659E+02  0.00000000000E+00 0.  1.
         25    2    1    2    0    0 -0.33977905783E+02  0.76200456834E+02  0.31250273465E+03  0.34676600538E+03  0.12501078202E+03 0.  0.
         23    2    1    2    0    0  0.33977905783E+02 -0.76200456834E+02  0.18076728506E+03  0.21942615765E+03  0.92249767532E+02 0.  0.
          5    1    3    3  502    0 -0.79861887643E+01  0.10315868704E+03  0.16753425296E+03  0.19696525033E+03  0.47000000000E+01 0.  1.
         -5    1    3    3    0  502 -0.25991717018E+02 -0.26958230209E+02  0.14496848169E+03  0.14980075504E+03  0.47000000000E+01 0.  1.
          5    1    4    4  503    0  0.26615366320E+02  0.13922796948E+02  0.70298829941E+02  0.76591366943E+02  0.47000000000E+01 0. -1.
         -5    1    4    4    0  503  0.73625394631E+01 -0.90123253782E+02  0.11046845512E+03  0.14283479070E+03  0.47000000000E+01 0.  1.
<mgrwt>
<rscale>  0 0.14335047E+03</rscale>
<asrwt>0</asrwt>
<pdfrwt beam="1">  1        1 0.81497085E-01 0.15029539E+03</pdfrwt>
<pdfrwt beam="2">  1       -1 0.56093960E-02 0.15029539E+03</pdfrwt>
<totfact> 0.59778599E+03</totfact>
</mgrwt>
</event>
<event>
 8    1  0.3572165E-004  0.1365152E+03  0.7546771E-02  0.1229244E+00
         -1   -1    0    0    0  501 -0.00000000000E+00  0.00000000000E+00  0.10636906575E+02  0.10636906575E+02  0.00000000000E+00 0.  1.
          1   -1    0    0  501    0  0.00000000000E+00 -0.00000000000E+00 -0.15452031029E+04  0.15452031029E+04  0.00000000000E+00 0. -1.
         25    2    1    2    0    0  0.20216949060E+02 -0.51048813896E+02 -0.10792093070E+04  0.10878093281E+04  0.12498679679E+03 0.  0.
         23    2    1    2    0    0 -0.20216949060E+02  0.51048813896E+02 -0.45535688928E+03  0.46803068142E+03  0.93210062240E+02 0.  0.
          5    1    4    4  502    0  0.30628546980E+02  0.35111258504E+02 -0.30207232397E+03  0.30568069496E+03  0.47000000000E+01 0. -1.
         -5    1    3    3    0  503 -0.23926310132E+02  0.31766938930E+02 -0.23510379831E+03  0.23849002643E+03  0.47000000000E+01 0. -1.
          5    1    3    3  503    0  0.44143259192E+02 -0.82815752826E+02 -0.84410550873E+03  0.84931930163E+03  0.47000000000E+01 0. -1.
         -5    1    4    4    0  502 -0.50845496040E+02  0.15937555393E+02 -0.15328456531E+03  0.16234998645E+03  0.47000000000E+01 0.  1.
<mgrwt>
<rscale>  0 0.12880186E+03</rscale>
<asrwt>0</asrwt>
<pdfrwt beam="1">  1        1 0.23772350E+00 0.13651522E+03</pdfrwt>
<pdfrwt beam="2">  1       -1 0.16364476E-02 0.13651522E+03</pdfrwt>
<totfact> 0.60260785E+03</totfact>
</mgrwt>
</event>
<event>
 8    1  0.3572165E-004  0.1539273E+03  0.7546771E-02  0.1204928E+00
         -1   -1    0    0    0  501 -0.00000000000E+00  0.00000000000E+00  0.30830945788E+02  0.30830945788E+02  0.00000000000E+00 0.  1.
          1   -1    0    0  501    0  0.00000000000E+00 -0.00000000000E+00 -0.72781853170E+03  0.72781853170E+03  0.00000000000E+00 0. -1.
         25    2    1    2    0    0  0.12020540141E+02  0.89013048400E+02 -0.51315865340E+03  0.53574753045E+03  0.12500318656E+03 0.  0.
         23    2    1    2    0    0 -0.12020540141E+02 -0.89013048400E+02 -0.18382893251E+03  0.22290194704E+03  0.88455556047E+02 0.  0.
          5    1    4    4  502    0 -0.42604001608E+02 -0.27251911388E+02 -0.45098328648E+02  0.67924346696E+02  0.47000000000E+01 0. -1.
         -5    1    4    4    0  502  0.30583461466E+02 -0.61761137012E+02 -0.13873060386E+03  0.15497760034E+03  0.47000000000E+01 0.  1.
          5    1    3    3  503    0 -0.23045373256E+02  0.10781147889E+03 -0.42170791862E+03  0.43590602523E+03  0.47000000000E+01 0. -1.
         -5    1    3    3    0  503  0.35065913398E+02 -0.18798430489E+02 -0.91450734785E+02  0.99841505217E+02  0.47000000000E+01 0. -1.
<mgrwt>
<rscale>  0 0.14643158E+03</rscale>
<asrwt>0</asrwt>
<pdfrwt beam="1">  1        1 0.11197208E+00 0.15392730E+03</pdfrwt>
<pdfrwt beam="2">  1       -1 0.47432226E-02 0.15392730E+03</pdfrwt>
<totfact> 0.49466837E+03</totfact>
</mgrwt>
</event>
<event>
 8    1  0.3572165E-004  0.1301599E+03  0.7546771E-02  0.1240845E+00
         -2   -1    0    0    0  501 -0.00000000000E+00  0.00000000000E+00  0.16787474609E+03  0.16787474609E+03  0.00000000000E+00 0.  1.
          2   -1    0    0  501    0  0.00000000000E+00 -0.00000000000E+00 -0.79448407046E+02  0.79448407046E+02  0.00000000000E+00 0. -1.
         25    2    1    2    0    0  0.79916697334E+01  0.35397608654E+02  0.32638601120E+02  0.13418972337E+03  0.12499898436E+03 0.  0.
         23    2    1    2    0    0 -0.79916697334E+01 -0.35397608654E+02  0.55787737920E+02  0.11313342977E+03  0.91487943166E+02 0.  0.
          5    1    4    4  502    0 -0.25913395297E+02  0.14226805559E+02 -0.72463249178E+01  0.30797812861E+02  0.47000000000E+01 0. -1.
         -5    1    4    4    0  502  0.17921725564E+02 -0.49624414213E+02  0.63034062838E+02  0.82335616905E+02  0.47000000000E+01 0.  1.
          5    1    3    3  503    0 -0.38703219049E+02 -0.29225048865E+02  0.23779494861E+01  0.48783063553E+02  0.47000000000E+01 0.  1.
         -5    1    3    3    0  503  0.46694888782E+02  0.64622657519E+02  0.30260651634E+02  0.85406659814E+02  0.47000000000E+01 0.  1.
<mgrwt>
<rscale>  0 0.12137551E+03</rscale>
<asrwt>0</asrwt>
<pdfrwt beam="1">  1        2 0.12222832E-01 0.13015992E+03</pdfrwt>
<pdfrwt beam="2">  1       -2 0.25826884E-01 0.13015992E+03</pdfrwt>
<totfact> 0.63279519E+03</totfact>
</mgrwt>
</event>
<event>
 8    1  0.3572165E-004  0.1601109E+03  0.7546771E-02  0.1196557E+00
         -2   -1    0    0    0  501 -0.00000000000E+00  0.00000000000E+00  0.53056184627E+02  0.53056184627E+02  0.00000000000E+00 0.  1.
          2   -1    0    0  501    0  0.00000000000E+00 -0.00000000000E+00 -0.43843660533E+03  0.43843660533E+03  0.00000000000E+00 0. -1.
         25    2    1    2    0    0 -0.44626602961E+02  0.89548601965E+02 -0.27242622983E+03  0.31599297400E+03  0.12500009246E+03 0.  0.
         23    2    1    2    0    0  0.44626602961E+02 -0.89548601965E+02 -0.11295419087E+03  0.17549981595E+03  0.89616127779E+02 0.  0.
          5    1    4    4  502    0  0.54479013208E+02 -0.61191349312E+02 -0.11896650741E+03  0.14452495977E+03  0.47000000000E+01 0. -1.
         -5    1    4    4    0  502 -0.98524102473E+01 -0.28357252653E+02  0.60123165343E+01  0.30974856187E+02  0.47000000000E+01 0.  1.
          5    1    3    3  503    0  0.33274764360E+02  0.72776259556E+02 -0.14275519310E+03  0.16372149845E+03  0.47000000000E+01 0.  1.
         -5    1    3    3    0  503 -0.77901367321E+02  0.16772342409E+02 -0.12967103673E+03  0.15227147555E+03  0.47000000000E+01 0.  1.
<mgrwt>
<rscale>  0 0.15323216E+03</rscale>
<asrwt>0</asrwt>
<pdfrwt beam="1">  1        2 0.67451781E-01 0.16011093E+03</pdfrwt>
<pdfrwt beam="2">  1       -2 0.81624905E-02 0.16011093E+03</pdfrwt>
<totfact> 0.63931637E+03</totfact>
</mgrwt>
</event>
<event>
 8    1  0.3572165E-004  0.1893743E+03  0.7546771E-02  0.1163898E+00
          2   -1    0    0  501    0  0.00000000000E+00  0.00000000000E+00  0.28164095286E+03  0.28164095286E+03  0.00000000000E+00 0. -1.
         -2   -1    0    0    0  501 -0.00000000000E+00 -0.00000000000E+00 -0.11553636967E+03  0.11553636967E+03  0.00000000000E+00 0.  1.
         25    2    1    2    0    0 -0.11886487235E+03  0.78156750165E+02  0.10993369557E+03  0.21897039894E+03  0.12500113086E+03 0.  0.
         23    2    1    2    0    0  0.11886487235E+03 -0.78156750165E+02  0.56170887627E+02  0.17820692359E+03  0.91461486550E+02 0.  0.
          5    1    3    3  502    0 -0.11906051057E+03  0.11338461521E+02  0.52356271845E+02  0.13064162846E+03  0.47000000000E+01 0.  1.
         -5    1    4    4    0  503  0.45149868297E+02 -0.59433778080E+02 -0.12266094327E+02  0.75785431675E+02  0.47000000000E+01 0.  1.
          5    1    4    4  503    0  0.73715004054E+02 -0.18722972085E+02  0.68436981954E+02  0.10242149191E+03  0.47000000000E+01 0. -1.
         -5    1    3    3    0  502  0.19563821473E+00  0.66818288644E+02  0.57577423721E+02  0.88328770477E+02  0.47000000000E+01 0.  1.
<mgrwt>
<rscale>  0 0.18409471E+03</rscale>
<asrwt>0</asrwt>
<pdfrwt beam="1">  1        2 0.43329377E-01 0.18937428E+03</pdfrwt>
<pdfrwt beam="2">  1       -2 0.17774826E-01 0.18937428E+03</pdfrwt>
<totfact> 0.29605027E+03</totfact>
</mgrwt>
</event>
<event>
 8    1  0.3572165E-004  0.1272390E+03  0.7546771E-02  0.1244114E+00
          1   -1    0    0  501    0  0.00000000000E+00  0.00000000000E+00  0.48307131846E+02  0.48307131846E+02  0.00000000000E+00 0. -1.
         -1   -1    0    0    0  501 -0.00000000000E+00 -0.00000000000E+00 -0.42638041744E+03  0.42638041744E+03  0.00000000000E+00 0.  1.
         25    2    1    2    0    0 -0.25566570958E+01 -0.23612395305E+02 -0.34961229037E+03  0.37204638321E+03  0.12500270388E+03 0.  0.
         23    2    1    2    0    0  0.25566570958E+01  0.23612395305E+02 -0.28460995230E+02  0.10264116608E+03  0.95713630257E+02 0.  0.
          5    1    4    4  502    0  0.41856778804E+02 -0.99836946789E+01  0.30558697895E+00  0.43287959927E+02  0.47000000000E+01 0. -1.
         -5    1    4    4    0  502 -0.39300121708E+02  0.33596089984E+02 -0.28766582209E+02  0.59353206151E+02  0.47000000000E+01 0.  1.
          5    1    3    3  503    0  0.42636200065E+02  0.11156692865E+02 -0.27220735471E+03  0.27579204360E+03  0.47000000000E+01 0. -1.
         -5    1    3    3    0  503 -0.45192857161E+02 -0.34769088170E+02 -0.77404935654E+02  0.96254339612E+02  0.47000000000E+01 0. -1.
<mgrwt>
<rscale>  0 0.11938571E+03</rscale>
<asrwt>0</asrwt>
<pdfrwt beam="1">  1        1 0.74318662E-02 0.12723898E+03</pdfrwt>
<pdfrwt beam="2">  1       -1 0.65596990E-01 0.12723898E+03</pdfrwt>
<totfact> 0.22684642E+03</totfact>
</mgrwt>
</event>
<event>
 8    1  0.3572165E-004  0.1520912E+03  0.7546771E-02  0.1206592E+00
          2   -1    0    0  501    0  0.00000000000E+00  0.00000000000E+00  0.82732175949E+03  0.82732175949E+03  0.00000000000E+00 0. -1.
         -2   -1    0    0    0  501 -0.00000000000E+00 -0.00000000000E+00 -0.53531837119E+02  0.53531837119E+02  0.00000000000E+00 0.  1.
         25    2    1    2    0    0 -0.32410391832E+02  0.80353516834E+02  0.73257739078E+03  0.74819874054E+03  0.12499840276E+03 0.  0.
         23    2    1    2    0    0  0.32410391832E+02 -0.80353516834E+02  0.41212531595E+02  0.13265485608E+03  0.91606314814E+02 0.  0.
          5    1    3    3  502    0  0.22527606650E+02  0.88960710031E+02  0.53741767689E+03  0.54521679214E+03  0.47000000000E+01 0.  1.
         -5    1    4    4    0  503 -0.24116657473E+02 -0.52879353114E+02  0.18321509216E+01  0.58337688765E+02  0.47000000000E+01 0.  1.
          5    1    4    4  503    0  0.56527049305E+02 -0.27474163720E+02  0.39380380674E+02  0.74317167312E+02  0.47000000000E+01 0. -1.
         -5    1    3    3    0  502 -0.54937998482E+02 -0.86071931964E+01  0.19515971389E+03  0.20298194840E+03  0.47000000000E+01 0.  1.
<mgrwt>
<rscale>  0 0.14512715E+03</rscale>
<asrwt>0</asrwt>
<pdfrwt beam="1">  1        2 0.12728026E+00 0.15209116E+03</pdfrwt>
<pdfrwt beam="2">  1       -2 0.82356678E-02 0.15209116E+03</pdfrwt>
<totfact> 0.30207210E+03</totfact>
</mgrwt>
</event>
<event>
 8    1  0.3572165E-004  0.1298446E+03  0.7546771E-02  0.1243299E+00
         -2   -1    0    0    0  501 -0.00000000000E+00  0.00000000000E+00  0.34779498180E+03  0.34779498180E+03  0.00000000000E+00 0.  1.
          2   -1    0    0  501    0  0.00000000000E+00 -0.00000000000E+00 -0.38551664348E+02  0.38551664348E+02  0.00000000000E+00 0. -1.
         25    2    1    2    0    0 -0.33178223164E+01  0.34983241903E+02  0.22545608291E+03  0.26017314006E+03  0.12499912931E+03 0.  0.
         23    2    1    2    0    0  0.33178223164E+01 -0.34983241903E+02  0.83787234536E+02  0.12617350608E+03  0.87547802985E+02 0.  0.
          5    1    3    3  502    0  0.29215147600E+02 -0.13516199410E+02  0.60631042957E+01  0.33091747151E+02  0.47000000000E+01 0. -1.
         -5    1    3    3    0  502 -0.32532969916E+02  0.48499441314E+02  0.21939297862E+03  0.22708139291E+03  0.47000000000E+01 0. -1.
          5    1    4    4  503    0  0.24990627516E+02 -0.44897505396E+02  0.15779263552E+02  0.53957322142E+02  0.47000000000E+01 0. -1.
         -5    1    4    4    0  503 -0.21672805200E+02  0.99142634930E+01  0.68007970985E+02  0.72216183943E+02  0.47000000000E+01 0.  1.
<mgrwt>
<rscale>  0 0.11987767E+03</rscale>
<asrwt>0</asrwt>
<pdfrwt beam="1">  1        2 0.59310255E-02 0.12984459E+03</pdfrwt>
<pdfrwt beam="2">  1       -2 0.53506918E-01 0.12984459E+03</pdfrwt>
<totfact> 0.39872651E+03</totfact>
</mgrwt>
</event>
<event>
 8    1  0.3572165E-004  0.1283908E+03  0.7546771E-02  0.1243699E+00
          1   -1    0    0  501    0  0.00000000000E+00  0.00000000000E+00  0.19159467399E+03  0.19159467399E+03  0.00000000000E+00 0. -1.
         -1   -1    0    0    0  501 -0.00000000000E+00 -0.00000000000E+00 -0.69514691334E+02  0.69514691334E+02  0.00000000000E+00 0.  1.
         25    2    1    2    0    0 -0.29313819855E+02 -0.14726382734E+00  0.40805715542E+02  0.13471935162E+03  0.12499950223E+03 0.  0.
         23    2    1    2    0    0  0.29313819855E+02  0.14726382734E+00  0.81274267114E+02  0.12639001371E+03  0.92247533021E+02 0.  0.
          5    1    4    4  502    0  0.52047452789E+02 -0.28562116903E+02  0.45137362107E+02  0.74727527202E+02  0.47000000000E+01 0. -1.
         -5    1    3    3    0  503 -0.47746968122E+02 -0.51966474703E+02  0.35856612398E+02  0.79297377703E+02  0.47000000000E+01 0. -1.
          5    1    3    3  503    0  0.18433148266E+02  0.51819210875E+02  0.49491031437E+01  0.55421973915E+02  0.47000000000E+01 0. -1.
         -5    1    4    4    0  502 -0.22733632933E+02  0.28709380730E+02  0.36136905007E+02  0.51662486503E+02  0.47000000000E+01 0.  1.
<mgrwt>
<rscale>  0 0.11963594E+03</rscale>
<asrwt>0</asrwt>
<pdfrwt beam="1">  1        1 0.29476103E-01 0.12839080E+03</pdfrwt>
<pdfrwt beam="2">  1       -1 0.10694568E-01 0.12839080E+03</pdfrwt>
<totfact> 0.80159397E+03</totfact>
</mgrwt>
</event>
<event>
 8    1  0.3572165E-004  0.1495303E+03  0.7546771E-02  0.1209705E+00
          2   -1    0    0  501    0  0.00000000000E+00  0.00000000000E+00  0.10445998526E+04  0.10445998526E+04  0.00000000000E+00 0.  1.
         -2   -1    0    0    0  501 -0.00000000000E+00 -0.00000000000E+00 -0.18379484349E+02  0.18379484349E+02  0.00000000000E+00 0. -1.
         25    2    1    2    0    0 -0.64280225970E+02 -0.51019242108E+02  0.47605460930E+03  0.49898627364E+03  0.12499759890E+03 0.  0.
         23    2    1    2    0    0  0.64280225970E+02  0.51019242108E+02  0.55016575898E+03  0.56399306334E+03  0.93117681572E+02 0.  0.
          5    1    3    3  502    0 -0.32865357996E+02 -0.43935976800E+02  0.45890910757E+03  0.46220142884E+03  0.47000000000E+01 0.  1.
         -5    1    3    3    0  502 -0.31414867974E+02 -0.70832653085E+01  0.17145501730E+02  0.36784844798E+02  0.47000000000E+01 0.  1.
          5    1    4    4  503    0  0.52211818915E+02 -0.98741893040E+01  0.35910154569E+03  0.36304212396E+03  0.47000000000E+01 0. -1.
         -5    1    4    4    0  503  0.12068407054E+02  0.60893431412E+02  0.19106421329E+03  0.20095093938E+03  0.47000000000E+01 0.  1.
<mgrwt>
<rscale>  0 0.14272744E+03</rscale>
<asrwt>0</asrwt>
<pdfrwt beam="1">  1        2 0.16070762E+00 0.14953030E+03</pdfrwt>
<pdfrwt beam="2">  1       -2 0.28276138E-02 0.14953030E+03</pdfrwt>
<totfact> 0.11055843E+04</totfact>
</mgrwt>
</event>
<event>
 8    1  0.3572165E-004  0.1260989E+03  0.7546771E-02  0.1248419E+00
          1   -1    0    0  501    0  0.00000000000E+00  0.00000000000E+00  0.22854854982E+03  0.22854854982E+03  0.00000000000E+00 0. -1.
         -1   -1    0    0    0  501 -0.00000000000E+00 -0.00000000000E+00 -0.55394002468E+02  0.55394002468E+02  0.00000000000E+00 0.  1.
         25    2    1    2    0    0  0.13714122906E+02  0.94288701275E+01  0.13126303967E+03  0.18201902208E+03  0.12499583215E+03 0.  0.
         23    2    1    2    0    0 -0.13714122906E+02 -0.94288701275E+01  0.41891507677E+02  0.10192353021E+03  0.91414040695E+02 0.  0.
          5    1    4    4  502    0  0.32687591065E+02  0.12735456051E+02 -0.56776216820E-01  0.35394401732E+02  0.47000000000E+01 0. -1.
         -5    1    4    4    0  502 -0.46401713971E+02 -0.22164326179E+02  0.41948283894E+02  0.66529128478E+02  0.47000000000E+01 0.  1.
          5    1    3    3  503    0 -0.46903025020E+02  0.15788408110E+02  0.17192312229E+02  0.52600695684E+02  0.47000000000E+01 0.  1.
         -5    1    3    3    0  503  0.60617147927E+02 -0.63595379821E+01  0.11407072744E+03  0.12941832639E+03  0.47000000000E+01 0.  1.
<mgrwt>
<rscale>  0 0.11683069E+03</rscale>
<asrwt>0</asrwt>
<pdfrwt beam="1">  1        1 0.35161315E-01 0.12609892E+03</pdfrwt>
<pdfrwt beam="2">  1       -1 0.85221543E-02 0.12609892E+03</pdfrwt>
<totfact> 0.90858904E+03</totfact>
</mgrwt>
</event>
<event>
 8    1  0.3572165E-004  0.1404708E+03  0.7546771E-02  0.1223900E+00
         -1   -1    0    0    0  501 -0.00000000000E+00  0.00000000000E+00  0.21519919419E+02  0.21519919419E+02  0.00000000000E+00 0.  1.
          1   -1    0    0  501    0  0.00000000000E+00 -0.00000000000E+00 -0.75365835094E+03  0.75365835094E+03  0.00000000000E+00 0. -1.
         25    2    1    2    0    0  0.47076535959E+02 -0.43477885119E+02 -0.34633605467E+03  0.37373883888E+03  0.12500212075E+03 0.  0.
         23    2    1    2    0    0 -0.47076535959E+02  0.43477885119E+02 -0.38580237686E+03  0.40143943148E+03  0.90573817564E+02 0.  0.
          5    1    3    3  502    0 -0.36947040609E+02 -0.29303406512E+02 -0.18786140896E+03  0.19374667073E+03  0.47000000000E+01 0. -1.
         -5    1    3    3    0  502  0.84023576568E+02 -0.14174478606E+02 -0.15847464571E+03  0.17999216815E+03  0.47000000000E+01 0. -1.
          5    1    4    4  503    0  0.83794831367E+01  0.53468815380E+02 -0.19673435733E+03  0.20409710265E+03  0.47000000000E+01 0. -1.
         -5    1    4    4    0  503 -0.55456019096E+02 -0.99909302613E+01 -0.18906801953E+03  0.19734232884E+03  0.47000000000E+01 0.  1.
<mgrwt>
<rscale>  0 0.13242577E+03</rscale>
<asrwt>0</asrwt>
<pdfrwt beam="1">  1        1 0.11594743E+00 0.14047084E+03</pdfrwt>
<pdfrwt beam="2">  1       -1 0.33107570E-02 0.14047084E+03</pdfrwt>
<totfact> 0.79404608E+03</totfact>
</mgrwt>
</event>
<event>
 8    1  0.3572165E-004  0.2675713E+03  0.7546771E-02  0.1104783E+00
         -2   -1    0    0    0  501 -0.00000000000E+00  0.00000000000E+00  0.74747864519E+02  0.74747864519E+02  0.00000000000E+00 0.  1.
          2   -1    0    0  501    0  0.00000000000E+00 -0.00000000000E+00 -0.99868556650E+03  0.99868556650E+03  0.00000000000E+00 0. -1.
         25    2    1    2    0    0  0.19005282502E+03  0.14091043434E+03 -0.31159390007E+03  0.41071299609E+03  0.12497431653E+03 0.  0.
         23    2    1    2    0    0 -0.19005282502E+03 -0.14091043434E+03 -0.61234380192E+03  0.66272043494E+03  0.90871427465E+02 0.  0.
          5    1    3    3  502    0  0.12984157792E+03  0.62833834204E+02 -0.26457331238E+03  0.30137692961E+03  0.47000000000E+01 0.  1.
         -5    1    4    4    0  503 -0.10690183733E+03 -0.95604623935E+02 -0.47218394921E+03  0.49350584478E+03  0.47000000000E+01 0.  1.
          5    1    4    4  503    0 -0.83150987686E+02 -0.45305810404E+02 -0.14015985271E+03  0.16921459016E+03  0.47000000000E+01 0. -1.
         -5    1    3    3    0  502  0.60211247098E+02  0.78076600135E+02 -0.47020587682E+02  0.10933606647E+03  0.47000000000E+01 0.  1.
<mgrwt>
<rscale>  0 0.26396711E+03</rscale>
<asrwt>0</asrwt>
<pdfrwt beam="1">  1        2 0.15364395E+00 0.26757131E+03</pdfrwt>
<pdfrwt beam="2">  1       -2 0.11499670E-01 0.26757131E+03</pdfrwt>
<totfact> 0.13943086E+03</totfact>
</mgrwt>
</event>
<event>
 8    1  0.3572165E-004  0.1457929E+03  0.7546771E-02  0.1215735E+00
         -2   -1    0    0    0  501 -0.00000000000E+00  0.00000000000E+00  0.50842428539E+03  0.50842428539E+03  0.00000000000E+00 0.  1.
          2   -1    0    0  501    0  0.00000000000E+00 -0.00000000000E+00 -0.35205657304E+02  0.35205657304E+02  0.00000000000E+00 0. -1.
         25    2    1    2    0    0  0.21252728054E-01  0.75020106400E+02  0.30744219357E+03  0.34025912027E+03  0.12501019848E+03 0.  0.
         23    2    1    2    0    0 -0.21252728054E-01 -0.75020106400E+02  0.16577643451E+03  0.20337082242E+03  0.90828675845E+02 0.  0.
          5    1    3    3  502    0  0.45293371565E+02 -0.81927591538E+01  0.63836376276E+02  0.78840241922E+02  0.47000000000E+01 0.  1.
         -5    1    3    3    0  502 -0.45272118837E+02  0.83212865554E+02  0.24360581730E+03  0.26141887835E+03  0.47000000000E+01 0.  1.
          5    1    4    4  503    0 -0.12726423616E+02  0.18620207576E+02  0.36677484647E+02  0.43312837223E+02  0.47000000000E+01 0. -1.
         -5    1    4    4    0  503  0.12705170888E+02 -0.93640313976E+02  0.12909894987E+03  0.16005798520E+03  0.47000000000E+01 0.  1.
<mgrwt>
<rscale>  0 0.13822691E+03</rscale>
<asrwt>0</asrwt>
<pdfrwt beam="1">  1        2 0.54162553E-02 0.14579289E+03</pdfrwt>
<pdfrwt beam="2">  1       -2 0.78219116E-01 0.14579289E+03</pdfrwt>
<totfact> 0.20439425E+03</totfact>
</mgrwt>
</event>
<event>
 8    1  0.3572165E-004  0.1370395E+03  0.7546771E-02  0.1229856E+00
          1   -1    0    0  501    0  0.00000000000E+00  0.00000000000E+00  0.84620365350E+02  0.84620365350E+02  0.00000000000E+00 0. -1.
         -1   -1    0    0    0  501 -0.00000000000E+00 -0.00000000000E+00 -0.17619277359E+03  0.17619277359E+03  0.00000000000E+00 0.  1.
         25    2    1    2    0    0 -0.34053526265E+02 -0.44669456920E+02 -0.66280180244E+02  0.15222639132E+03  0.12499923555E+03 0.  0.
         23    2    1    2    0    0  0.34053526265E+02  0.44669456920E+02 -0.25292227992E+02  0.10858674761E+03  0.89422491176E+02 0.  0.
          5    1    4    4  502    0 -0.20165869690E+02  0.52777049803E+01  0.18605892740E+02  0.28333473399E+02  0.47000000000E+01 0. -1.
         -5    1    3    3    0  503  0.88318421882E+01 -0.58425105907E+02  0.13222599631E+02  0.60732376684E+02  0.47000000000E+01 0.  1.
          5    1    3    3  503    0 -0.42885368453E+02  0.13755648987E+02 -0.79502779875E+02  0.91494014636E+02  0.47000000000E+01 0.  1.
         -5    1    4    4    0  502  0.54219395955E+02  0.39391751940E+02 -0.43898120731E+02  0.80253274216E+02  0.47000000000E+01 0.  1.
<mgrwt>
<rscale>  0 0.12839565E+03</rscale>
<asrwt>0</asrwt>
<pdfrwt beam="1">  1        1 0.13018518E-01 0.13703945E+03</pdfrwt>
<pdfrwt beam="2">  1       -1 0.27106580E-01 0.13703945E+03</pdfrwt>
<totfact> 0.52128261E+03</totfact>
</mgrwt>
</event>
<event>
 8    1  0.3572165E-004  0.1341541E+03  0.7546771E-02  0.1232877E+00
          1   -1    0    0  501    0  0.00000000000E+00  0.00000000000E+00  0.32503013729E+03  0.32503013729E+03  0.00000000000E+00 0. -1.
         -1   -1    0    0    0  501 -0.00000000000E+00 -0.00000000000E+00 -0.66569318248E+02  0.66569318248E+02  0.00000000000E+00 0.  1.
         25    2    1    2    0    0 -0.48668887765E+02 -0.16945363625E+01  0.25218057570E+03  0.28564375175E+03  0.12500311222E+03 0.  0.
         23    2    1    2    0    0  0.48668887765E+02  0.16945363625E+01  0.62802433516E+01  0.10595570379E+03  0.93891626996E+02 0.  0.
          5    1    3    3  502    0 -0.55449820577E+02 -0.31743953950E+02  0.50517187140E+02  0.81586992903E+02  0.47000000000E+01 0. -1.
         -5    1    3    3    0  502  0.67809328129E+01  0.30049417587E+02  0.20166338856E+03  0.20405675885E+03  0.47000000000E+01 0. -1.
          5    1    4    4  503    0  0.61547544547E+02 -0.22745091812E+02  0.26995873680E+02  0.71107711516E+02  0.47000000000E+01 0. -1.
         -5    1    4    4    0  503 -0.12878656783E+02  0.24439628175E+02 -0.20715630328E+02  0.34847992277E+02  0.47000000000E+01 0.  1.
<mgrwt>
<rscale>  0 0.12641333E+03</rscale>
<asrwt>0</asrwt>
<pdfrwt beam="1">  1        1 0.50004636E-01 0.13415405E+03</pdfrwt>
<pdfrwt beam="2">  1       -1 0.10241434E-01 0.13415405E+03</pdfrwt>
<totfact> 0.44663084E+03</totfact>
</mgrwt>
</event>
<event>
 8    1  0.3572165E-004  0.1298173E+03  0.7546771E-02  0.1242709E+00
          1   -1    0    0  501    0  0.00000000000E+00  0.00000000000E+00  0.56187789563E+02  0.56187789563E+02  0.00000000000E+00 0. -1.
         -1   -1    0    0    0  501 -0.00000000000E+00 -0.00000000000E+00 -0.23423172089E+03  0.23423172089E+03  0.00000000000E+00 0.  1.
         25    2    1    2    0    0 -0.20024718946E+02  0.28755728901E+02 -0.75077969288E+02  0.14996412503E+03  0.12499862403E+03 0.  0.
         23    2    1    2    0    0  0.20024718946E+02 -0.28755728901E+02 -0.10296596204E+03  0.14045538542E+03  0.88869818516E+02 0.  0.
          5    1    4    4  502    0  0.32055674672E+02  0.18757302087E+02 -0.16410432452E+02  0.40875358757E+02  0.47000000000E+01 0. -1.
         -5    1    3    3    0  503  0.92813351048E+01  0.71150695361E+02 -0.20547465982E+02  0.74785379520E+02  0.47000000000E+01 0. -1.
          5    1    3    3  503    0 -0.29306054050E+02 -0.42394966460E+02 -0.54530503306E+02  0.75178745507E+02  0.47000000000E+01 0. -1.
         -5    1    4    4    0  502 -0.12030955726E+02 -0.47513030988E+02 -0.86555529586E+02  0.99580026668E+02  0.47000000000E+01 0.  1.
<mgrwt>
<rscale>  0 0.12023556E+03</rscale>
<asrwt>0</asrwt>
<pdfrwt beam="1">  1        1 0.86442752E-02 0.12981732E+03</pdfrwt>
<pdfrwt beam="2">  1       -1 0.36035650E-01 0.12981732E+03</pdfrwt>
<totfact> 0.55142931E+03</totfact>
</mgrwt>
</event>
<event>
 8    1  0.3572165E-004  0.1302650E+03  0.7546771E-02  0.1242176E+00
          2   -1    0    0  501    0  0.00000000000E+00  0.00000000000E+00  0.56100187026E+03  0.56100187026E+03  0.00000000000E+00 0. -1.
         -2   -1    0    0    0  501 -0.00000000000E+00 -0.00000000000E+00 -0.30491545485E+02  0.30491545485E+02  0.00000000000E+00 0.  1.
         25    2    1    2    0    0 -0.94753258847E+01  0.35428829610E+02  0.44354094615E+03  0.46227431313E+03  0.12499594353E+03 0.  0.
         23    2    1    2    0    0  0.94753258847E+01 -0.35428829610E+02  0.86969378623E+02  0.12921910262E+03  0.88254857627E+02 0.  0.
          5    1    3    3  502    0  0.61639715460E+01 -0.46256780208E+02  0.16663677900E+03  0.17311149694E+03  0.47000000000E+01 0. -1.
         -5    1    3    3    0  502 -0.15639297431E+02  0.81685609817E+02  0.27690416716E+03  0.28916281619E+03  0.47000000000E+01 0. -1.
          5    1    4    4  503    0  0.32381174152E+02  0.13933159247E+02  0.56259763101E+02  0.66557676569E+02  0.47000000000E+01 0. -1.
         -5    1    4    4    0  503 -0.22905848267E+02 -0.49361988857E+02  0.30709615522E+02  0.62661426047E+02  0.47000000000E+01 0.  1.
<mgrwt>
<rscale>  0 0.12055989E+03</rscale>
<asrwt>0</asrwt>
<pdfrwt beam="1">  1        2 0.86307972E-01 0.13026500E+03</pdfrwt>
<pdfrwt beam="2">  1       -2 0.46910074E-02 0.13026500E+03</pdfrwt>
<totfact> 0.11179769E+04</totfact>
</mgrwt>
</event>
<event>
 8    1  0.3572165E-004  0.1297651E+03  0.7546771E-02  0.1237659E+00
         -2   -1    0    0    0  501 -0.00000000000E+00  0.00000000000E+00  0.20815458099E+03  0.20815458099E+03  0.00000000000E+00 0.  1.
          2   -1    0    0  501    0  0.00000000000E+00 -0.00000000000E+00 -0.69239609009E+02  0.69239609009E+02  0.00000000000E+00 0. -1.
         25    2    1    2    0    0 -0.17348845668E+02 -0.30242252154E+02  0.10241961084E+03  0.16531414257E+03  0.12499365099E+03 0.  0.
         23    2    1    2    0    0  0.17348845668E+02  0.30242252154E+02  0.36495361142E+02  0.11208004743E+03  0.10007222085E+03 0.  0.
          5    1    4    4  502    0 -0.27287317844E+02 -0.22905830079E+02  0.74729948418E+01  0.36704365117E+02  0.47000000000E+01 0. -1.
         -5    1    3    3    0  503 -0.17034152806E+02  0.37844145512E+02 -0.56177575196E+00  0.41770172412E+02  0.47000000000E+01 0. -1.
          5    1    3    3  503    0 -0.31469286181E+00 -0.68086397665E+02  0.10298138659E+03  0.12354397016E+03  0.47000000000E+01 0. -1.
         -5    1    4    4    0  502  0.44636163512E+02  0.53148082233E+02  0.29022366300E+02  0.75375682311E+02  0.47000000000E+01 0.  1.
<mgrwt>
<rscale>  0 0.12335765E+03</rscale>
<asrwt>0</asrwt>
<pdfrwt beam="1">  1        2 0.10652248E-01 0.12976513E+03</pdfrwt>
<pdfrwt beam="2">  1       -2 0.32023781E-01 0.12976513E+03</pdfrwt>
<totfact> 0.50891082E+03</totfact>
</mgrwt>
</event>
<event>
 8    1  0.3572165E-004  0.1283878E+03  0.7546771E-02  0.1244272E+00
          2   -1    0    0  501    0  0.00000000000E+00  0.00000000000E+00  0.23555641419E+03  0.23555641419E+03  0.00000000000E+00 0. -1.
         -2   -1    0    0    0  501 -0.00000000000E+00 -0.00000000000E+00 -0.54935846400E+02  0.54935846400E+02  0.00000000000E+00 0.  1.
         25    2    1    2    0    0 -0.59094084128E+00  0.29369214655E+02  0.12798998032E+03  0.18128668733E+03  0.12498211055E+03 0.  0.
         23    2    1    2    0    0  0.59094084128E+00 -0.29369214655E+02  0.52630587469E+02  0.10920557327E+03  0.91065792231E+02 0.  0.
          5    1    3    3  502    0  0.54073165440E+02  0.14925650832E+01  0.21714573683E+02  0.58478608751E+02  0.47000000000E+01 0.  1.
         -5    1    4    4    0  503 -0.24598584064E+02 -0.35774035135E+02 -0.67765887350E+01  0.44191448072E+02  0.47000000000E+01 0.  1.
          5    1    4    4  503    0  0.25189524905E+02  0.64048204799E+01  0.59407176204E+02  0.65014125195E+02  0.47000000000E+01 0. -1.
         -5    1    3    3    0  502 -0.54664106281E+02  0.27876649572E+02  0.10627540664E+03  0.12280807857E+03  0.47000000000E+01 0.  1.
<mgrwt>
<rscale>  0 0.11929035E+03</rscale>
<asrwt>0</asrwt>
<pdfrwt beam="1">  1        2 0.36239448E-01 0.12838780E+03</pdfrwt>
<pdfrwt beam="2">  1       -2 0.84516688E-02 0.12838780E+03</pdfrwt>
<totfact> 0.11570348E+04</totfact>
</mgrwt>
</event>
<event>
 8    1  0.3572165E-004  0.1275372E+03  0.7546771E-02  0.1245888E+00
          1   -1    0    0  501    0  0.00000000000E+00  0.00000000000E+00  0.53478679371E+03  0.53478679371E+03  0.00000000000E+00 0. -1.
         -1   -1    0    0    0  501 -0.00000000000E+00 -0.00000000000E+00 -0.24333075808E+02  0.24333075808E+02  0.00000000000E+00 0.  1.
         25    2    1    2    0    0 -0.24995504712E+02 -0.46144559210E+01  0.22755084042E+03  0.26085457862E+03  0.12497862917E+03 0.  0.
         23    2    1    2    0    0  0.24995504712E+02  0.46144559210E+01  0.28290287748E+03  0.29826529090E+03  0.91005918541E+02 0.  0.
          5    1    3    3  502    0  0.21527934890E+02 -0.26359874967E+02  0.19893085324E+03  0.20187587612E+03  0.47000000000E+01 0. -1.
         -5    1    3    3    0  502 -0.46523439602E+02  0.21745419046E+02  0.28619987182E+02  0.58978702497E+02  0.47000000000E+01 0. -1.
          5    1    4    4  503    0 -0.31232998233E+02  0.95495550104E+00  0.15844602966E+03  0.16156622925E+03  0.47000000000E+01 0. -1.
         -5    1    4    4    0  503  0.56228502946E+02  0.36595004199E+01  0.12445684782E+03  0.13669906165E+03  0.47000000000E+01 0.  1.
<mgrwt>
<rscale>  0 0.11832396E+03</rscale>
<asrwt>0</asrwt>
<pdfrwt beam="1">  1        1 0.82274883E-01 0.12753716E+03</pdfrwt>
<pdfrwt beam="2">  1       -1 0.37435505E-02 0.12753716E+03</pdfrwt>
<totfact> 0.10612261E+04</totfact>
</mgrwt>
</event>
<event>
 8    1  0.3572165E-004  0.1261858E+03  0.7546771E-02  0.1243597E+00
          1   -1    0    0  501    0  0.00000000000E+00  0.00000000000E+00  0.10914338786E+03  0.10914338786E+03  0.00000000000E+00 0. -1.
         -1   -1    0    0    0  501 -0.00000000000E+00 -0.00000000000E+00 -0.14714326527E+03  0.14714326527E+03  0.00000000000E+00 0.  1.
         25    2    1    2    0    0 -0.21258320773E+01  0.17145315170E+02 -0.75973454234E+02  0.14729162485E+03  0.12499750401E+03 0.  0.
         23    2    1    2    0    0  0.21258320773E+01 -0.17145315170E+02  0.37973576821E+02  0.10899502829E+03  0.10069479957E+03 0.  0.
          5    1    4    4  502    0  0.36597118090E+01 -0.57947674360E+02  0.34605177197E+02  0.67756436913E+02  0.47000000000E+01 0. -1.
         -5    1    4    4    0  502 -0.15338797318E+01  0.40802359190E+02  0.33683996236E+01  0.41238591374E+02  0.47000000000E+01 0.  1.
          5    1    3    3  503    0  0.55569971973E+02 -0.17686715276E+02 -0.38485028819E+02  0.70028773554E+02  0.47000000000E+01 0. -1.
         -5    1    3    3    0  503 -0.57695804050E+02  0.34832030446E+02 -0.37488425415E+02  0.77262851294E+02  0.47000000000E+01 0. -1.
<mgrwt>
<rscale>  0 0.11969738E+03</rscale>
<asrwt>0</asrwt>
<pdfrwt beam="1">  1        1 0.16791290E-01 0.12618580E+03</pdfrwt>
<pdfrwt beam="2">  1       -1 0.22637425E-01 0.12618580E+03</pdfrwt>
<totfact> 0.50118036E+03</totfact>
</mgrwt>
</event>
<event>
 8    1  0.3572165E-004  0.1251418E+03  0.7546771E-02  0.1249963E+00
         -1   -1    0    0    0  501 -0.00000000000E+00  0.00000000000E+00  0.14876605973E+02  0.14876605973E+02  0.00000000000E+00 0.  1.
          1   -1    0    0  501    0  0.00000000000E+00 -0.00000000000E+00 -0.84605534503E+03  0.84605534503E+03  0.00000000000E+00 0. -1.
         25    2    1    2    0    0 -0.28276595110E+01  0.52621295471E+01 -0.36873595611E+03  0.38939268588E+03  0.12499909128E+03 0.  0.
         23    2    1    2    0    0  0.28276595110E+01 -0.52621295471E+01 -0.46244278295E+03  0.47153926512E+03  0.91979700964E+02 0.  0.
          5    1    3    3  502    0 -0.10595620227E+02  0.55878437043E+02 -0.28851229504E+03  0.29410219530E+03  0.47000000000E+01 0.  1.
         -5    1    3    3    0  502  0.77679607160E+01 -0.50616307496E+02 -0.80223661073E+02  0.95290490575E+02  0.47000000000E+01 0.  1.
          5    1    4    4  503    0 -0.34499069343E+02  0.87781808248E+01 -0.35545037748E+03  0.35725943388E+03  0.47000000000E+01 0. -1.
         -5    1    4    4    0  503  0.37326728855E+02 -0.14040310372E+02 -0.10699240547E+03  0.11427983125E+03  0.47000000000E+01 0.  1.
<mgrwt>
<rscale>  0 0.11593196E+03</rscale>
<asrwt>0</asrwt>
<pdfrwt beam="1">  1        1 0.13016233E+00 0.12514175E+03</pdfrwt>
<pdfrwt beam="2">  1       -1 0.22887091E-02 0.12514175E+03</pdfrwt>
<totfact> 0.11324472E+04</totfact>
</mgrwt>
</event>
<event>
 8    1  0.3572165E-004  0.1406957E+03  0.7546771E-02  0.1223271E+00
          3   -1    0    0  501    0  0.00000000000E+00  0.00000000000E+00  0.66819282513E+02  0.66819282513E+02  0.00000000000E+00 0. -1.
         -3   -1    0    0    0  501 -0.00000000000E+00 -0.00000000000E+00 -0.24955027567E+03  0.24955027567E+03  0.00000000000E+00 0.  1.
         25    2    1    2    0    0 -0.45716900613E+02  0.45608354914E+02 -0.13414411285E+03  0.19439631376E+03  0.12500050700E+03 0.  0.
         23    2    1    2    0    0  0.45716900613E+02 -0.45608354914E+02 -0.48586880302E+02  0.12197324442E+03  0.91359894795E+02 0.  0.
          5    1    4    4  502    0 -0.20689338635E+02 -0.17586383662E+02  0.96417991078E+01  0.29195614628E+02  0.47000000000E+01 0. -1.
         -5    1    3    3    0  503 -0.20115861044E+02 -0.28682414192E+02 -0.10444066589E+03  0.11026001741E+03  0.47000000000E+01 0.  1.
          5    1    3    3  503    0 -0.25601039569E+02  0.74290769106E+02 -0.29703446968E+02  0.84136296348E+02  0.47000000000E+01 0.  1.
         -5    1    4    4    0  502  0.66406239248E+02 -0.28021971252E+02 -0.58228679410E+02  0.92777629791E+02  0.47000000000E+01 0.  1.
<mgrwt>
<rscale>  0 0.13286092E+03</rscale>
<asrwt>0</asrwt>
<pdfrwt beam="1">  1        3 0.10279890E-01 0.14069571E+03</pdfrwt>
<pdfrwt beam="2">  1       -3 0.38392350E-01 0.14069571E+03</pdfrwt>
<totfact> 0.10978751E+03</totfact>
</mgrwt>
</event>
<event>
 8    1  0.3572165E-004  0.1270970E+03  0.7546771E-02  0.1247040E+00
         -2   -1    0    0    0  501 -0.00000000000E+00  0.00000000000E+00  0.27461755296E+02  0.27461755296E+02  0.00000000000E+00 0.  1.
          2   -1    0    0  501    0  0.00000000000E+00 -0.00000000000E+00 -0.48716588481E+03  0.48716588481E+03  0.00000000000E+00 0. -1.
         25    2    1    2    0    0 -0.21540360277E+02  0.79415242838E+01 -0.18448552093E+03  0.22402803059E+03  0.12500638436E+03 0.  0.
         23    2    1    2    0    0  0.21540360277E+02 -0.79415242838E+01 -0.27521860858E+03  0.29059960951E+03  0.90420106218E+02 0.  0.
          5    1    3    3  502    0 -0.31466369129E+02  0.59823791339E+02 -0.13701395831E+03  0.15285265182E+03  0.47000000000E+01 0. -1.
         -5    1    4    4    0  503  0.48400025804E+02  0.88866281819E+01 -0.90483499846E+02  0.10310619963E+03  0.47000000000E+01 0.  1.
          5    1    4    4  503    0 -0.26859665527E+02 -0.16828152466E+02 -0.18473510873E+03  0.18749340987E+03  0.47000000000E+01 0. -1.
         -5    1    3    3    0  502  0.99260088520E+01 -0.51882267055E+02 -0.47471562623E+02  0.71175378779E+02  0.47000000000E+01 0. -1.
<mgrwt>
<rscale>  0 0.11764113E+03</rscale>
<asrwt>0</asrwt>
<pdfrwt beam="1">  1        2 0.74948596E-01 0.12709701E+03</pdfrwt>
<pdfrwt beam="2">  1       -2 0.42248855E-02 0.12709701E+03</pdfrwt>
<totfact> 0.15242641E+04</totfact>
</mgrwt>
</event>
<event>
 8    1  0.3572165E-004  0.1617161E+03  0.7546771E-02  0.1194789E+00
         -2   -1    0    0    0  501 -0.00000000000E+00  0.00000000000E+00  0.35532785256E+03  0.35532785256E+03  0.00000000000E+00 0.  1.
          2   -1    0    0  501    0  0.00000000000E+00 -0.00000000000E+00 -0.62155780805E+02  0.62155780805E+02  0.00000000000E+00 0. -1.
         25    2    1    2    0    0 -0.45805056672E+02 -0.91806445111E+02  0.16129699047E+03  0.22840491983E+03  0.12500224672E+03 0.  0.
         23    2    1    2    0    0  0.45805056672E+02  0.91806445111E+02  0.13187508128E+03  0.18907871354E+03  0.88505345999E+02 0.  0.
          5    1    3    3  502    0 -0.45942367223E+02 -0.47715701276E+02  0.57405803034E+01  0.66652333167E+02  0.47000000000E+01 0.  1.
         -5    1    4    4    0  503  0.70123981879E+02  0.49599436346E+02  0.92015879720E+02  0.12596225244E+03  0.47000000000E+01 0.  1.
          5    1    4    4  503    0 -0.24318925207E+02  0.42207008765E+02  0.39859201563E+02  0.63116461096E+02  0.47000000000E+01 0. -1.
         -5    1    3    3    0  502  0.13731055129E+00 -0.44090743834E+02  0.15555641017E+03  0.16175258666E+03  0.47000000000E+01 0.  1.
<mgrwt>
<rscale>  0 0.15472061E+03</rscale>
<asrwt>0</asrwt>
<pdfrwt beam="1">  1        2 0.95624280E-02 0.16171607E+03</pdfrwt>
<pdfrwt beam="2">  1       -2 0.54665822E-01 0.16171607E+03</pdfrwt>
<totfact> 0.21160956E+03</totfact>
</mgrwt>
</event>
<event>
 8    1  0.3572165E-004  0.1461544E+03  0.7546771E-02  0.1215061E+00
          1   -1    0    0  501    0  0.00000000000E+00  0.00000000000E+00  0.19856603796E+03  0.19856603796E+03  0.00000000000E+00 0. -1.
         -1   -1    0    0    0  501 -0.00000000000E+00 -0.00000000000E+00 -0.11472279880E+03  0.11472279880E+03  0.00000000000E+00 0.  1.
         25    2    1    2    0    0  0.22366627107E+02  0.72357933513E+02 -0.29643813667E+02  0.14913038352E+03  0.12500071619E+03 0.  0.
         23    2    1    2    0    0 -0.22366627107E+02 -0.72357933513E+02  0.11348705282E+03  0.16415845324E+03  0.91283898159E+02 0.  0.
          5    1    4    4  502    0 -0.32191588218E+01 -0.20132411896E+02  0.10575208318E+03  0.10780199483E+03  0.47000000000E+01 0. -1.
         -5    1    4    4    0  502 -0.19147468285E+02 -0.52225521617E+02  0.77349696428E+01  0.56356458417E+02  0.47000000000E+01 0.  1.
          5    1    3    3  503    0 -0.37118019433E+02  0.51498285840E+02  0.22162033563E+02  0.67402274018E+02  0.47000000000E+01 0. -1.
         -5    1    3    3    0  503  0.59484646540E+02  0.20859647673E+02 -0.51805847231E+02  0.81728109499E+02  0.47000000000E+01 0. -1.
<mgrwt>
<rscale>  0 0.13872051E+03</rscale>
<asrwt>0</asrwt>
<pdfrwt beam="1">  1        1 0.30548621E-01 0.14615442E+03</pdfrwt>
<pdfrwt beam="2">  1       -1 0.17649661E-01 0.14615442E+03</pdfrwt>
<totfact> 0.35405530E+03</totfact>
</mgrwt>
</event>
<event>
 8    1  0.3572165E-004  0.1470599E+03  0.7546771E-02  0.1213909E+00
         -1   -1    0    0    0  501 -0.00000000000E+00  0.00000000000E+00  0.19625858731E+03  0.19625858731E+03  0.00000000000E+00 0.  1.
          1   -1    0    0  501    0  0.00000000000E+00 -0.00000000000E+00 -0.95876264658E+02  0.95876264658E+02  0.00000000000E+00 0. -1.
         25    2    1    2    0    0 -0.61342929502E+02  0.47284514038E+02  0.20338224202E+02  0.14845964530E+03  0.12501137009E+03 0.  0.
         23    2    1    2    0    0  0.61342929502E+02 -0.47284514038E+02  0.80044098448E+02  0.14367520666E+03  0.90756416006E+02 0.  0.
          5    1    4    4  502    0  0.67926719124E+02  0.25232707500E+01  0.38141837735E+02  0.78085183307E+02  0.47000000000E+01 0. -1.
         -5    1    3    3    0  503  0.18366215636E+02  0.58292451382E+02 -0.10439820904E+02  0.62180444076E+02  0.47000000000E+01 0. -1.
          5    1    3    3  503    0 -0.79709145138E+02 -0.11007937345E+02  0.30778045106E+02  0.86279201224E+02  0.47000000000E+01 0. -1.
         -5    1    4    4    0  502 -0.65837896224E+01 -0.49807784788E+02  0.41902260713E+02  0.65590023358E+02  0.47000000000E+01 0.  1.
<mgrwt>
<rscale>  0 0.13957010E+03</rscale>
<asrwt>0</asrwt>
<pdfrwt beam="1">  1        1 0.14750195E-01 0.14705993E+03</pdfrwt>
<pdfrwt beam="2">  1       -1 0.30193629E-01 0.14705993E+03</pdfrwt>
<totfact> 0.37150037E+03</totfact>
</mgrwt>
</event>
<event>
 8    1  0.3572165E-004  0.1382843E+03  0.7546771E-02  0.1226823E+00
         -4   -1    0    0    0  501 -0.00000000000E+00  0.00000000000E+00  0.21676226228E+03  0.21676226228E+03  0.00000000000E+00 0.  1.
          4   -1    0    0  501    0  0.00000000000E+00 -0.00000000000E+00 -0.84595507510E+02  0.84595507510E+02  0.00000000000E+00 0. -1.
         25    2    1    2    0    0  0.41469238124E+02  0.42168622790E+02  0.13307941577E+03  0.19191838263E+03  0.12499857692E+03 0.  0.
         23    2    1    2    0    0 -0.41469238124E+02 -0.42168622790E+02 -0.91266099874E+00  0.10943938716E+03  0.92077445953E+02 0.  0.
          5    1    3    3  502    0  0.74019397509E+02  0.52449197140E+02  0.12819429011E+03  0.15711669391E+03  0.47000000000E+01 0. -1.
         -5    1    3    3    0  502 -0.32550159384E+02 -0.10280574351E+02  0.48851256553E+01  0.34801688718E+02  0.47000000000E+01 0. -1.
          5    1    4    4  503    0 -0.12818842723E+02 -0.41516551939E+02  0.40014795956E+02  0.59255554247E+02  0.47000000000E+01 0.  1.
         -5    1    4    4    0  503 -0.28650395401E+02 -0.65207085061E+00 -0.40927456955E+02  0.50183832913E+02  0.47000000000E+01 0. -1.
<mgrwt>
<rscale>  0 0.13042750E+03</rscale>
<asrwt>0</asrwt>
<pdfrwt beam="1">  1        4 0.13014694E-01 0.13828425E+03</pdfrwt>
<pdfrwt beam="2">  1       -4 0.33348040E-01 0.13828425E+03</pdfrwt>
<totfact> 0.69651681E+02</totfact>
</mgrwt>
</event>
<event>
 8    1  0.3572165E-004  0.1692903E+03  0.7546771E-02  0.1185121E+00
         -1   -1    0    0    0  501 -0.00000000000E+00  0.00000000000E+00  0.11275582244E+03  0.11275582244E+03  0.00000000000E+00 0.  1.
          1   -1    0    0  501    0  0.00000000000E+00 -0.00000000000E+00 -0.22647132706E+03  0.22647132706E+03  0.00000000000E+00 0. -1.
         25    2    1    2    0    0  0.10973106964E+03 -0.31537759103E+02 -0.34004048981E+02  0.17267160739E+03  0.12499468293E+03 0.  0.
         23    2    1    2    0    0 -0.10973106964E+03  0.31537759103E+02 -0.79711455644E+02  0.16655554211E+03  0.91385417623E+02 0.  0.
          5    1    3    3  502    0  0.64066680774E+02  0.31767367064E+02 -0.56549513768E+02  0.91288787389E+02  0.47000000000E+01 0. -1.
         -5    1    3    3    0  502  0.45664388862E+02 -0.63305126167E+02  0.22545464787E+02  0.81382820003E+02  0.47000000000E+01 0. -1.
          5    1    4    4  503    0 -0.13595467665E+02  0.41459254254E+02 -0.47273618799E+02  0.64502647533E+02  0.47000000000E+01 0. -1.
         -5    1    4    4    0  503 -0.96135601972E+02 -0.99214951512E+01 -0.32437836844E+02  0.10205289458E+03  0.47000000000E+01 0.  1.
<mgrwt>
<rscale>  0 0.16320835E+03</rscale>
<asrwt>0</asrwt>
<pdfrwt beam="1">  1        1 0.34841742E-01 0.16929031E+03</pdfrwt>
<pdfrwt beam="2">  1       -1 0.17347050E-01 0.16929031E+03</pdfrwt>
<totfact> 0.31105303E+03</totfact>
</mgrwt>
</event>
<event>
 8    1  0.3572165E-004  0.3150072E+03  0.7546771E-02  0.1079391E+00
         -1   -1    0    0    0  501 -0.00000000000E+00  0.00000000000E+00  0.31277154210E+02  0.31277154210E+02  0.00000000000E+00 0.  1.
          1   -1    0    0  501    0  0.00000000000E+00 -0.00000000000E+00 -0.30872868119E+04  0.30872868119E+04  0.00000000000E+00 0. -1.
         25    2    1    2    0    0 -0.28886903525E+03 -0.12639157358E+02 -0.13959099119E+04  0.14310115340E+04  0.12499784132E+03 0.  0.
         23    2    1    2    0    0  0.28886903525E+03  0.12639157358E+02 -0.16600997458E+04  0.16875524321E+04  0.91087746110E+02 0.  0.
          5    1    4    4  502    0  0.22547572424E+03 -0.15312442170E+02 -0.14094594979E+04  0.14274704688E+04  0.47000000000E+01 0. -1.
         -5    1    4    4    0  502  0.63393311006E+02  0.27951599528E+02 -0.25064024787E+03  0.26008196333E+03  0.47000000000E+01 0.  1.
          5    1    3    3  503    0 -0.20286537783E+03  0.38198737255E+02 -0.10829252563E+04  0.11024348987E+04  0.47000000000E+01 0. -1.
         -5    1    3    3    0  503 -0.86003657421E+02 -0.50837894613E+02 -0.31298465562E+03  0.32857663531E+03  0.47000000000E+01 0. -1.
<mgrwt>
<rscale>  0 0.31200101E+03</rscale>
<asrwt>0</asrwt>
<pdfrwt beam="1">  1        1 0.47496721E+00 0.31500719E+03</pdfrwt>
<pdfrwt beam="2">  1       -1 0.48118698E-02 0.31500719E+03</pdfrwt>
<totfact> 0.11567556E+02</totfact>
</mgrwt>
</event>
<event>
 8    1  0.3572165E-004  0.1502387E+03  0.7546771E-02  0.1209159E+00
         -1   -1    0    0    0  501 -0.00000000000E+00  0.00000000000E+00  0.52812381096E+02  0.52812381096E+02  0.00000000000E+00 0.  1.
          1   -1    0    0  501    0  0.00000000000E+00 -0.00000000000E+00 -0.36350597210E+03  0.36350597210E+03  0.00000000000E+00 0. -1.
         25    2    1    2    0    0  0.20962718027E+01  0.83310359703E+02 -0.13927991336E+03  0.20486714790E+03  0.12500657436E+03 0.  0.
         23    2    1    2    0    0 -0.20962718027E+01 -0.83310359703E+02 -0.17141367765E+03  0.21145120530E+03  0.91563928207E+02 0.  0.
          5    1    3    3  502    0 -0.49224827620E+02  0.31456178260E+01 -0.75089788984E+02  0.89964131605E+02  0.47000000000E+01 0. -1.
         -5    1    3    3    0  502  0.51321099423E+02  0.80164741877E+02 -0.64190124373E+02  0.11490301629E+03  0.47000000000E+01 0. -1.
          5    1    4    4  503    0 -0.24049244519E+02 -0.48152615303E+02 -0.15899996108E+03  0.16792890801E+03  0.47000000000E+01 0. -1.
         -5    1    4    4    0  503  0.21952972716E+02 -0.35157744400E+02 -0.12413716571E+02  0.43522297291E+02  0.47000000000E+01 0.  1.
<mgrwt>
<rscale>  0 0.14314473E+03</rscale>
<asrwt>0</asrwt>
<pdfrwt beam="1">  1        1 0.55923997E-01 0.15023866E+03</pdfrwt>
<pdfrwt beam="2">  1       -1 0.81249815E-02 0.15023866E+03</pdfrwt>
<totfact> 0.55573226E+03</totfact>
</mgrwt>
</event>
<event>
 8    1  0.3572165E-004  0.2281974E+03  0.7546771E-02  0.1130995E+00
          1   -1    0    0  501    0  0.00000000000E+00  0.00000000000E+00  0.97406438915E+03  0.97406438915E+03  0.00000000000E+00 0. -1.
         -1   -1    0    0    0  501 -0.00000000000E+00 -0.00000000000E+00 -0.50127683809E+02  0.50127683809E+02  0.00000000000E+00 0.  1.
         25    2    1    2    0    0 -0.48344767095E+02 -0.18469446987E+03  0.53008101421E+03  0.57711346343E+03  0.12499921737E+03 0.  0.
         23    2    1    2    0    0  0.48344767095E+02  0.18469446987E+03  0.39385569113E+03  0.44707860952E+03  0.91146661777E+02 0.  0.
          5    1    3    3  502    0 -0.43126978186E+01 -0.11840256645E+03  0.16353953568E+03  0.20200256641E+03  0.47000000000E+01 0. -1.
         -5    1    3    3    0  502 -0.44032069277E+02 -0.66291903419E+02  0.36654147853E+03  0.37511089702E+03  0.47000000000E+01 0. -1.
          5    1    4    4  503    0  0.41412810236E+02  0.14782740577E+03  0.37414297086E+03  0.40444160938E+03  0.47000000000E+01 0. -1.
         -5    1    4    4    0  503  0.69319568596E+01  0.36867064102E+02  0.19712720266E+02  0.42637000148E+02  0.47000000000E+01 0.  1.
<mgrwt>
<rscale>  0 0.22391885E+03</rscale>
<asrwt>0</asrwt>
<pdfrwt beam="1">  1        1 0.14985605E+00 0.22819743E+03</pdfrwt>
<pdfrwt beam="2">  1       -1 0.77119521E-02 0.22819743E+03</pdfrwt>
<totfact> 0.15238128E+03</totfact>
</mgrwt>
</event>
<event>
 8    1  0.3572165E-004  0.1316349E+03  0.7546771E-02  0.1240073E+00
         -2   -1    0    0    0  501 -0.00000000000E+00  0.00000000000E+00  0.54032213878E+02  0.54032213878E+02  0.00000000000E+00 0.  1.
          2   -1    0    0  501    0  0.00000000000E+00 -0.00000000000E+00 -0.24375464254E+03  0.24375464254E+03  0.00000000000E+00 0. -1.
         25    2    1    2    0    0  0.18035034255E+02 -0.37108968972E+02 -0.12450255544E+03  0.18118673518E+03  0.12500163461E+03 0.  0.
         23    2    1    2    0    0 -0.18035034255E+02  0.37108968972E+02 -0.65219873222E+02  0.11660012124E+03  0.87404910454E+02 0.  0.
          5    1    3    3  502    0  0.13290901931E+01  0.27556485392E+02 -0.10890072949E+03  0.11243925138E+03  0.47000000000E+01 0.  1.
         -5    1    4    4    0  503 -0.28139058927E+02 -0.12640009057E+02  0.30974048742E+01  0.31356983006E+02  0.47000000000E+01 0.  1.
          5    1    4    4  503    0  0.10104024672E+02  0.49748978030E+02 -0.68317278097E+02  0.85243138235E+02  0.47000000000E+01 0. -1.
         -5    1    3    3    0  502  0.16705944062E+02 -0.64665454364E+02 -0.15601825949E+02  0.68747483795E+02  0.47000000000E+01 0.  1.
<mgrwt>
<rscale>  0 0.12185210E+03</rscale>
<asrwt>0</asrwt>
<pdfrwt beam="1">  1        2 0.37500714E-01 0.13163490E+03</pdfrwt>
<pdfrwt beam="2">  1       -2 0.83126483E-02 0.13163490E+03</pdfrwt>
<totfact> 0.11469495E+04</totfact>
</mgrwt>
</event>
<event>
 8    1  0.3572165E-004  0.1979955E+03  0.7546771E-02  0.1156394E+00
          1   -1    0    0  501    0  0.00000000000E+00  0.00000000000E+00  0.37611182211E+03  0.37611182211E+03  0.00000000000E+00 0. -1.
         -1   -1    0    0    0  501 -0.00000000000E+00 -0.00000000000E+00 -0.93185258451E+02  0.93185258451E+02  0.00000000000E+00 0.  1.
         25    2    1    2    0    0 -0.12005854442E+03  0.95704660141E+02  0.15758305634E+03  0.25305068052E+03  0.12501516390E+03 0.  0.
         23    2    1    2    0    0  0.12005854442E+03 -0.95704660141E+02  0.12534350731E+03  0.21624640004E+03  0.86475861624E+02 0.  0.
          5    1    3    3  502    0 -0.62971463666E+02 -0.18854798793E+02  0.78609613702E+02  0.10257909163E+03  0.47000000000E+01 0. -1.
         -5    1    4    4    0  503  0.98533894729E+02 -0.10639515301E+03  0.82517762908E+02  0.16691353507E+03  0.47000000000E+01 0.  1.
          5    1    4    4  503    0  0.21524649686E+02  0.10690492870E+02  0.42825744403E+02  0.49332864964E+02  0.47000000000E+01 0. -1.
         -5    1    3    3    0  502 -0.57087080749E+02  0.11455945893E+03  0.78973442641E+02  0.15047158889E+03  0.47000000000E+01 0. -1.
<mgrwt>
<rscale>  0 0.19231000E+03</rscale>
<asrwt>0</asrwt>
<pdfrwt beam="1">  1        1 0.57863356E-01 0.19799552E+03</pdfrwt>
<pdfrwt beam="2">  1       -1 0.14336194E-01 0.19799552E+03</pdfrwt>
<totfact> 0.22422655E+03</totfact>
</mgrwt>
</event>
<event>
 8    1  0.3572165E-004  0.1350753E+03  0.7546771E-02  0.1231767E+00
          2   -1    0    0  501    0  0.00000000000E+00  0.00000000000E+00  0.85151315129E+03  0.85151315129E+03  0.00000000000E+00 0. -1.
         -2   -1    0    0    0  501 -0.00000000000E+00 -0.00000000000E+00 -0.26277687777E+02  0.26277687777E+02  0.00000000000E+00 0.  1.
         25    2    1    2    0    0 -0.48021483259E+02  0.17763253821E+02  0.70356495649E+03  0.71641398346E+03  0.12499500648E+03 0.  0.
         23    2    1    2    0    0  0.48021483259E+02 -0.17763253821E+02  0.12167050702E+03  0.16137685561E+03  0.92828773597E+02 0.  0.
          5    1    4    4  502    0  0.45394791676E+02 -0.47401107852E+02  0.11171221402E+03  0.12965053373E+03  0.47000000000E+01 0. -1.
         -5    1    4    4    0  502  0.26266915828E+01  0.29637854031E+02  0.99582930009E+01  0.31726321875E+02  0.47000000000E+01 0.  1.
          5    1    3    3  503    0 -0.55045201937E+02 -0.45045919162E+02  0.34421456954E+03  0.35151794971E+03  0.47000000000E+01 0. -1.
         -5    1    3    3    0  503  0.70237186782E+01  0.62809172983E+02  0.35935038696E+03  0.36489603374E+03  0.47000000000E+01 0. -1.
<mgrwt>
<rscale>  0 0.12713699E+03</rscale>
<asrwt>0</asrwt>
<pdfrwt beam="1">  1        2 0.13100200E+00 0.13507534E+03</pdfrwt>
<pdfrwt beam="2">  1       -2 0.40427218E-02 0.13507534E+03</pdfrwt>
<totfact> 0.85247962E+03</totfact>
</mgrwt>
</event>
<event>
 8    1  0.3572165E-004  0.1558489E+03  0.7546771E-02  0.1202444E+00
          1   -1    0    0  501    0  0.00000000000E+00  0.00000000000E+00  0.15807338769E+03  0.15807338769E+03  0.00000000000E+00 0. -1.
         -1   -1    0    0    0  501 -0.00000000000E+00 -0.00000000000E+00 -0.12838378315E+03  0.12838378315E+03  0.00000000000E+00 0.  1.
         25    2    1    2    0    0 -0.11258257227E+02  0.92407927911E+02  0.27715874515E+02  0.15829421267E+03  0.12499165799E+03 0.  0.
         23    2    1    2    0    0  0.11258257227E+02 -0.92407927911E+02  0.19737300214E+01  0.12816295817E+03  0.88067444275E+02 0.  0.
          5    1    3    3  502    0  0.75698245131E+01 -0.25378120394E+02 -0.15849216537E+02  0.31219207273E+02  0.47000000000E+01 0. -1.
         -5    1    4    4    0  503  0.45503758810E+02 -0.47467789284E+02 -0.17515677952E+02  0.68210498162E+02  0.47000000000E+01 0.  1.
          5    1    4    4  503    0 -0.34245501582E+02 -0.44940138627E+02  0.19489407974E+02  0.59952460013E+02  0.47000000000E+01 0. -1.
         -5    1    3    3    0  502 -0.18828081740E+02  0.11778604831E+03  0.43565091053E+02  0.12707500539E+03  0.47000000000E+01 0. -1.
<mgrwt>
<rscale>  0 0.14840742E+03</rscale>
<asrwt>0</asrwt>
<pdfrwt beam="1">  1        1 0.24318983E-01 0.15584893E+03</pdfrwt>
<pdfrwt beam="2">  1       -1 0.19751351E-01 0.15584893E+03</pdfrwt>
<totfact> 0.39491433E+03</totfact>
</mgrwt>
</event>
<event>
 8    1  0.3572165E-004  0.2210699E+03  0.7546771E-02  0.1136402E+00
         -2   -1    0    0    0  501 -0.00000000000E+00  0.00000000000E+00  0.34628125929E+03  0.34628125929E+03  0.00000000000E+00 0.  1.
          2   -1    0    0  501    0  0.00000000000E+00 -0.00000000000E+00 -0.24100268398E+03  0.24100268398E+03  0.00000000000E+00 0. -1.
         25    2    1    2    0    0 -0.85320192998E+02  0.16114085826E+03 -0.14504686328E+03  0.26440592387E+03  0.12500395392E+03 0.  0.
         23    2    1    2    0    0  0.85320192998E+02 -0.16114085826E+03  0.25032543860E+03  0.32287801939E+03  0.91331695835E+02 0.  0.
          5    1    3    3  502    0  0.18004151591E+02  0.89976016650E+02 -0.85277587292E+02  0.12535625210E+03  0.47000000000E+01 0.  1.
         -5    1    3    3    0  502 -0.10332434459E+03  0.71164841614E+02 -0.59769275992E+02  0.13904967177E+03  0.47000000000E+01 0.  1.
          5    1    4    4  503    0  0.39873732421E+02 -0.95531696468E+02  0.68413180422E+02  0.12417194861E+03  0.47000000000E+01 0. -1.
         -5    1    4    4    0  503  0.45446460576E+02 -0.65609161796E+02  0.18191225817E+03  0.19870607078E+03  0.47000000000E+01 0.  1.
<mgrwt>
<rscale>  0 0.21665435E+03</rscale>
<asrwt>0</asrwt>
<pdfrwt beam="1">  1        2 0.37077336E-01 0.22106990E+03</pdfrwt>
<pdfrwt beam="2">  1       -2 0.53274040E-01 0.22106990E+03</pdfrwt>
<totfact> 0.47085317E+02</totfact>
</mgrwt>
</event>
<event>
 8    1  0.3572165E-004  0.2451268E+03  0.7546771E-02  0.1119090E+00
          1   -1    0    0  501    0  0.00000000000E+00  0.00000000000E+00  0.80475279802E+03  0.80475279802E+03  0.00000000000E+00 0. -1.
         -1   -1    0    0    0  501 -0.00000000000E+00 -0.00000000000E+00 -0.80212775917E+02  0.80212775917E+02  0.00000000000E+00 0.  1.
         25    2    1    2    0    0  0.98561113576E+02 -0.18640828275E+03  0.53135234325E+03  0.58516872804E+03  0.12499914644E+03 0.  0.
         23    2    1    2    0    0 -0.98561113576E+02  0.18640828275E+03  0.19318767885E+03  0.29979684589E+03  0.89968486505E+02 0.  0.
          5    1    4    4  502    0  0.67616281332E+01  0.76487819638E+02  0.66478048446E+02  0.10167363027E+03  0.47000000000E+01 0. -1.
         -5    1    4    4    0  502 -0.10532274171E+03  0.10992046311E+03  0.12670963040E+03  0.19812321562E+03  0.47000000000E+01 0.  1.
          5    1    3    3  503    0  0.11907687422E+03 -0.10802047909E+03  0.30691547938E+03  0.34650674937E+03  0.47000000000E+01 0.  1.
         -5    1    3    3    0  503 -0.20515760646E+02 -0.78387803659E+02  0.22443686388E+03  0.23866197867E+03  0.47000000000E+01 0.  1.
<mgrwt>
<rscale>  0 0.24105798E+03</rscale>
<asrwt>0</asrwt>
<pdfrwt beam="1">  1        1 0.12380812E+00 0.24512676E+03</pdfrwt>
<pdfrwt beam="2">  1       -1 0.12340428E-01 0.24512676E+03</pdfrwt>
<totfact> 0.10028976E+03</totfact>
</mgrwt>
</event>
<event>
 8    1  0.3572165E-004  0.2213153E+03  0.7546771E-02  0.1136168E+00
          3   -1    0    0  501    0  0.00000000000E+00  0.00000000000E+00  0.62072009025E+02  0.62072009025E+02  0.00000000000E+00 0. -1.
         -3   -1    0    0    0  501 -0.00000000000E+00 -0.00000000000E+00 -0.77670213689E+03  0.77670213689E+03  0.00000000000E+00 0.  1.
         25    2    1    2    0    0  0.11623075765E+03  0.14087311615E+03 -0.47343307145E+03  0.52260822469E+03  0.12500263794E+03 0.  0.
         23    2    1    2    0    0 -0.11623075765E+03 -0.14087311615E+03 -0.24119705642E+03  0.31616592123E+03  0.91815281114E+02 0.  0.
          5    1    3    3  502    0  0.11601398763E+02  0.10234576097E+03 -0.29125061427E+03  0.30896319774E+03  0.47000000000E+01 0.  1.
         -5    1    3    3    0  502  0.10462935888E+03  0.38527355176E+02 -0.18218245718E+03  0.21364502695E+03  0.47000000000E+01 0.  1.
          5    1    4    4  503    0 -0.52537386693E+02 -0.11061953752E+03 -0.99630554349E+02  0.15794048386E+03  0.47000000000E+01 0. -1.
         -5    1    4    4    0  503 -0.63693370953E+02 -0.30253578627E+02 -0.14156650207E+03  0.15822543737E+03  0.47000000000E+01 0.  1.
<mgrwt>
<rscale>  0 0.21696318E+03</rscale>
<asrwt>0</asrwt>
<pdfrwt beam="1">  1        3 0.95495405E-02 0.22131535E+03</pdfrwt>
<pdfrwt beam="2">  1       -3 0.11949263E+00 0.22131535E+03</pdfrwt>
<totfact> 0.11726133E+02</totfact>
</mgrwt>
</event>
<event>
 8    1  0.3572165E-004  0.1598706E+03  0.7546771E-02  0.1196687E+00
         -2   -1    0    0    0  501 -0.00000000000E+00  0.00000000000E+00  0.27242808201E+02  0.27242808201E+02  0.00000000000E+00 0.  1.
          2   -1    0    0  501    0  0.00000000000E+00 -0.00000000000E+00 -0.88675040398E+03  0.88675040398E+03  0.00000000000E+00 0. -1.
         25    2    1    2    0    0 -0.88780677175E+02  0.45290679525E+02 -0.31675039578E+03  0.35480899450E+03  0.12500142024E+03 0.  0.
         23    2    1    2    0    0  0.88780677175E+02 -0.45290679525E+02 -0.54275719999E+03  0.55918421767E+03  0.90378962464E+02 0.  0.
          5    1    3    3  502    0 -0.87693364428E+02  0.12100796115E+02 -0.30749247056E+03  0.32001603847E+03  0.47000000000E+01 0. -1.
         -5    1    4    4    0  503  0.90394775028E+02 -0.61229268106E+01 -0.30629687510E+03  0.31945042069E+03  0.47000000000E+01 0.  1.
          5    1    4    4  503    0 -0.16140978531E+01 -0.39167752715E+02 -0.23646032489E+03  0.23973379698E+03  0.47000000000E+01 0. -1.
         -5    1    3    3    0  502 -0.10873127473E+01  0.33189883411E+02 -0.92579252214E+01  0.34792956029E+02  0.47000000000E+01 0. -1.
<mgrwt>
<rscale>  0 0.15312324E+03</rscale>
<asrwt>0</asrwt>
<pdfrwt beam="1">  1        2 0.13642314E+00 0.15987060E+03</pdfrwt>
<pdfrwt beam="2">  1       -2 0.41912013E-02 0.15987060E+03</pdfrwt>
<totfact> 0.77335057E+03</totfact>
</mgrwt>
</event>
<event>
 8    1  0.3572165E-004  0.1310081E+03  0.7546771E-02  0.1239701E+00
          1   -1    0    0  501    0  0.00000000000E+00  0.00000000000E+00  0.56536618473E+03  0.56536618473E+03  0.00000000000E+00 0. -1.
         -1   -1    0    0    0  501 -0.00000000000E+00 -0.00000000000E+00 -0.39995650992E+02  0.39995650992E+02  0.00000000000E+00 0.  1.
         25    2    1    2    0    0 -0.21155614110E+02  0.33054500051E+02  0.90048779598E+02  0.15897142079E+03  0.12499187949E+03 0.  0.
         23    2    1    2    0    0  0.21155614110E+02 -0.33054500051E+02  0.43532175414E+03  0.44639041494E+03  0.90659875012E+02 0.  0.
          5    1    3    3  502    0 -0.63290535943E+02  0.36291690436E+02  0.17968159990E+02  0.75284284602E+02  0.47000000000E+01 0. -1.
         -5    1    4    4    0  503  0.21818058800E+02  0.28718428950E+02  0.18241116311E+03  0.18600187708E+03  0.47000000000E+01 0.  1.
          5    1    4    4  503    0 -0.66244469065E+00 -0.61772929000E+02  0.25291059103E+03  0.26038853786E+03  0.47000000000E+01 0. -1.
         -5    1    3    3    0  502  0.42134921834E+02 -0.32371903851E+01  0.72080619609E+02  0.83687136184E+02  0.47000000000E+01 0. -1.
<mgrwt>
<rscale>  0 0.12208194E+03</rscale>
<asrwt>0</asrwt>
<pdfrwt beam="1">  1        1 0.86979407E-01 0.13100813E+03</pdfrwt>
<pdfrwt beam="2">  1       -1 0.61531775E-02 0.13100813E+03</pdfrwt>
<totfact> 0.47422595E+03</totfact>
</mgrwt>
</event>
<event>
 8    1  0.3572165E-004  0.1639734E+03  0.7546771E-02  0.1191245E+00
          1   -1    0    0  501    0  0.00000000000E+00  0.00000000000E+00  0.60865236972E+03  0.60865236972E+03  0.00000000000E+00 0. -1.
         -1   -1    0    0    0  501 -0.00000000000E+00 -0.00000000000E+00 -0.38090213498E+02  0.38090213498E+02  0.00000000000E+00 0.  1.
         25    2    1    2    0    0  0.10504580244E+03 -0.14827998268E+02  0.31249161332E+03  0.35289981638E+03  0.12503112357E+03 0.  0.
         23    2    1    2    0    0 -0.10504580244E+03  0.14827998268E+02  0.25807054290E+03  0.29384276684E+03  0.92134013095E+02 0.  0.
          5    1    4    4  502    0 -0.11361162309E+02 -0.22123004306E+02  0.12139920104E+03  0.12400951310E+03  0.47000000000E+01 0. -1.
         -5    1    3    3    0  503  0.80409426689E+02  0.58082134627E+01  0.66049282964E+02  0.10432645409E+03  0.47000000000E+01 0.  1.
          5    1    3    3  503    0  0.24636375746E+02 -0.20636211731E+02  0.24644233036E+03  0.24857336228E+03  0.47000000000E+01 0.  1.
         -5    1    4    4    0  502 -0.93684640126E+02  0.36951002574E+02  0.13667134187E+03  0.16983325373E+03  0.47000000000E+01 0.  1.
<mgrwt>
<rscale>  0 0.15776372E+03</rscale>
<asrwt>0</asrwt>
<pdfrwt beam="1">  1        1 0.93638819E-01 0.16397339E+03</pdfrwt>
<pdfrwt beam="2">  1       -1 0.58600333E-02 0.16397339E+03</pdfrwt>
<totfact> 0.46631338E+03</totfact>
</mgrwt>
</event>
<event>
 8    1  0.3572165E-004  0.1426841E+03  0.7546771E-02  0.1220342E+00
          1   -1    0    0  501    0  0.00000000000E+00  0.00000000000E+00  0.30251901365E+03  0.30251901365E+03  0.00000000000E+00 0. -1.
         -1   -1    0    0    0  501 -0.00000000000E+00 -0.00000000000E+00 -0.58328053019E+02  0.58328053019E+02  0.00000000000E+00 0.  1.
         25    2    1    2    0    0  0.59806209410E+02 -0.34018787697E+02  0.18094944856E+03  0.23043752339E+03  0.12499875460E+03 0.  0.
         23    2    1    2    0    0 -0.59806209410E+02  0.34018787697E+02  0.63241512075E+02  0.13040954328E+03  0.90956580459E+02 0.  0.
          5    1    4    4  502    0 -0.17635667029E+02  0.23519244599E+02  0.78623322707E+02  0.84070735048E+02  0.47000000000E+01 0. -1.
         -5    1    4    4    0  502 -0.42170542381E+02  0.10499543098E+02 -0.15381810633E+02  0.46338808231E+02  0.47000000000E+01 0.  1.
          5    1    3    3  503    0  0.25723008670E+02 -0.23265209780E+01  0.18176668684E+03  0.18365267306E+03  0.47000000000E+01 0.  1.
         -5    1    3    3    0  503  0.34083200739E+02 -0.31692266719E+02 -0.81723828407E+00  0.46784850335E+02  0.47000000000E+01 0.  1.
<mgrwt>
<rscale>  0 0.13491321E+03</rscale>
<asrwt>0</asrwt>
<pdfrwt beam="1">  1        1 0.46541386E-01 0.14268409E+03</pdfrwt>
<pdfrwt beam="2">  1       -1 0.89735468E-02 0.14268409E+03</pdfrwt>
<totfact> 0.59920699E+03</totfact>
</mgrwt>
</event>
<event>
 8    1  0.3572165E-004  0.1296167E+03  0.7546771E-02  0.1242143E+00
         -2   -1    0    0    0  501 -0.00000000000E+00  0.00000000000E+00  0.82697033293E+02  0.82697033293E+02  0.00000000000E+00 0.  1.
          2   -1    0    0  501    0  0.00000000000E+00 -0.00000000000E+00 -0.15713833826E+03  0.15713833826E+03  0.00000000000E+00 0. -1.
         25    2    1    2    0    0 -0.20053080162E+02  0.27826701540E+02 -0.29866781210E+02  0.13301317713E+03  0.12499611726E+03 0.  0.
         23    2    1    2    0    0  0.20053080162E+02 -0.27826701540E+02 -0.44574523762E+02  0.10682219442E+03  0.90816527737E+02 0.  0.
          5    1    3    3  502    0  0.34114240855E+02 -0.18666921830E+02  0.21743338223E+02  0.44800649067E+02  0.47000000000E+01 0.  1.
         -5    1    3    3    0  502 -0.54167321017E+02  0.46493623370E+02 -0.51610119433E+02  0.88212528068E+02  0.47000000000E+01 0.  1.
          5    1    4    4  503    0 -0.35757761765E+02 -0.16602605383E+02 -0.22085685660E+02  0.45432714458E+02  0.47000000000E+01 0. -1.
         -5    1    4    4    0  503  0.55810841928E+02 -0.11224096158E+02 -0.22488838102E+02  0.61389479965E+02  0.47000000000E+01 0.  1.
<mgrwt>
<rscale>  0 0.12058009E+03</rscale>
<asrwt>0</asrwt>
<pdfrwt beam="1">  1        2 0.24175129E-01 0.12961667E+03</pdfrwt>
<pdfrwt beam="2">  1       -2 0.12722621E-01 0.12961667E+03</pdfrwt>
<totfact> 0.94306910E+03</totfact>
</mgrwt>
</event>
<event>
 8    1  0.3572165E-004  0.1456795E+03  0.7546771E-02  0.1215101E+00
          1   -1    0    0  501    0  0.00000000000E+00  0.00000000000E+00  0.37518291248E+03  0.37518291248E+03  0.00000000000E+00 0. -1.
         -1   -1    0    0    0  501 -0.00000000000E+00 -0.00000000000E+00 -0.46924069971E+02  0.46924069971E+02  0.00000000000E+00 0.  1.
         25    2    1    2    0    0 -0.94955167008E+01 -0.74212477010E+02  0.17791396958E+03  0.22994757840E+03  0.12499940664E+03 0.  0.
         23    2    1    2    0    0  0.94955167008E+01  0.74212477010E+02  0.15034487293E+03  0.19215940405E+03  0.93402350970E+02 0.  0.
          5    1    4    4  502    0  0.33500994399E+02  0.48188506155E+02  0.14441378646E+03  0.15595473853E+03  0.47000000000E+01 0. -1.
         -5    1    3    3    0  503  0.19536511520E+02  0.12894445523E+02 -0.57497146544E+01  0.24557915757E+02  0.47000000000E+01 0.  1.
          5    1    3    3  503    0 -0.29032028220E+02 -0.87106922532E+02  0.18366368423E+03  0.20538966265E+03  0.47000000000E+01 0.  1.
         -5    1    4    4    0  502 -0.24005477698E+02  0.26023970855E+02  0.59310864724E+01  0.36204665518E+02  0.47000000000E+01 0.  1.
<mgrwt>
<rscale>  0 0.13869089E+03</rscale>
<asrwt>0</asrwt>
<pdfrwt beam="1">  1        1 0.57720446E-01 0.14567947E+03</pdfrwt>
<pdfrwt beam="2">  1       -1 0.72190879E-02 0.14567947E+03</pdfrwt>
<totfact> 0.63723775E+03</totfact>
</mgrwt>
</event>
<event>
 8    1  0.3572165E-004  0.1264991E+03  0.7546771E-02  0.1247627E+00
         -1   -1    0    0    0  501 -0.00000000000E+00  0.00000000000E+00  0.17117583587E+02  0.17117583587E+02  0.00000000000E+00 0.  1.
          1   -1    0    0  501    0  0.00000000000E+00 -0.00000000000E+00 -0.80258297587E+03  0.80258297587E+03  0.00000000000E+00 0. -1.
         25    2    1    2    0    0 -0.16211595058E+02  0.10728735399E+02 -0.58468160004E+03  0.59820949611E+03  0.12499642487E+03 0.  0.
         23    2    1    2    0    0  0.16211595058E+02 -0.10728735399E+02 -0.20078379224E+03  0.22149106335E+03  0.91467143495E+02 0.  0.
          5    1    3    3  502    0  0.35111876867E+02  0.29604543059E+02 -0.45573945762E+03  0.45807184600E+03  0.47000000000E+01 0. -1.
         -5    1    3    3    0  502 -0.51323471925E+02 -0.18875807660E+02 -0.12894214242E+03  0.14013765010E+03  0.47000000000E+01 0. -1.
          5    1    4    4  503    0  0.14146493053E+02  0.39146088975E+02 -0.11124748212E+03  0.11887233415E+03  0.47000000000E+01 0.  1.
         -5    1    4    4    0  503  0.20651020053E+01 -0.49874824374E+02 -0.89536310116E+02  0.10261872920E+03  0.47000000000E+01 0. -1.
<mgrwt>
<rscale>  0 0.11729524E+03</rscale>
<asrwt>0</asrwt>
<pdfrwt beam="1">  1        1 0.12347430E+00 0.12649912E+03</pdfrwt>
<pdfrwt beam="2">  1       -1 0.26334745E-02 0.12649912E+03</pdfrwt>
<totfact> 0.10024827E+04</totfact>
</mgrwt>
</event>
<event>
 8    1  0.3572165E-004  0.1251571E+03  0.7546771E-02  0.1251585E+00
          2   -1    0    0  501    0  0.00000000000E+00  0.00000000000E+00  0.21247566344E+03  0.21247566344E+03  0.00000000000E+00 0. -1.
         -2   -1    0    0    0  501 -0.00000000000E+00 -0.00000000000E+00 -0.54095057274E+02  0.54095057274E+02  0.00000000000E+00 0.  1.
         25    2    1    2    0    0 -0.23168084023E+01 -0.56675277229E+01  0.89425834888E+02  0.15382221699E+03  0.12500722388E+03 0.  0.
         23    2    1    2    0    0  0.23168084023E+01  0.56675277229E+01  0.68954771279E+02  0.11274850372E+03  0.88994247782E+02 0.  0.
          5    1    4    4  502    0 -0.88027724356E+01  0.44625025941E+02  0.50054546205E+02  0.67796971456E+02  0.47000000000E+01 0. -1.
         -5    1    4    4    0  502  0.11119580838E+02 -0.38957498218E+02  0.18900225074E+02  0.44951532269E+02  0.47000000000E+01 0.  1.
          5    1    3    3  503    0  0.20740220487E+02  0.16572407819E+02 -0.23858531302E+02  0.36001679998E+02  0.47000000000E+01 0. -1.
         -5    1    3    3    0  503 -0.23057028890E+02 -0.22239935542E+02  0.11328436619E+03  0.11782053699E+03  0.47000000000E+01 0. -1.
<mgrwt>
<rscale>  0 0.11499750E+03</rscale>
<asrwt>0</asrwt>
<pdfrwt beam="1">  1        2 0.32688563E-01 0.12515708E+03</pdfrwt>
<pdfrwt beam="2">  1       -2 0.83223166E-02 0.12515708E+03</pdfrwt>
<totfact> 0.13203383E+04</totfact>
</mgrwt>
</event>
<event>
 8    1  0.3572165E-004  0.1262369E+03  0.7546771E-02  0.1249126E+00
         -2   -1    0    0    0  501 -0.00000000000E+00  0.00000000000E+00  0.14885609651E+02  0.14885609651E+02  0.00000000000E+00 0.  1.
          2   -1    0    0  501    0  0.00000000000E+00 -0.00000000000E+00 -0.90266891925E+03  0.90266891925E+03  0.00000000000E+00 0. -1.
         25    2    1    2    0    0  0.17462598413E+02  0.25101447690E+01 -0.34988886611E+03  0.37196502731E+03  0.12499807897E+03 0.  0.
         23    2    1    2    0    0 -0.17462598413E+02 -0.25101447690E+01 -0.53789444349E+03  0.54558950159E+03  0.89589222214E+02 0.  0.
          5    1    3    3  502    0 -0.17259942732E+02  0.56396504094E+02 -0.20690408138E+03  0.21519725878E+03  0.47000000000E+01 0.  1.
         -5    1    4    4    0  503  0.33629409582E+02 -0.14857736666E+02 -0.17535802922E+03  0.17923230161E+03  0.47000000000E+01 0.  1.
          5    1    4    4  503    0 -0.51092007994E+02  0.12347591897E+02 -0.36253641427E+03  0.36635719998E+03  0.47000000000E+01 0. -1.
         -5    1    3    3    0  502  0.34722541145E+02 -0.53886359325E+02 -0.14298478473E+03  0.15676776853E+03  0.47000000000E+01 0.  1.
<mgrwt>
<rscale>  0 0.11641773E+03</rscale>
<asrwt>0</asrwt>
<pdfrwt beam="1">  1        2 0.13887214E+00 0.12623693E+03</pdfrwt>
<pdfrwt beam="2">  1       -2 0.22900938E-02 0.12623693E+03</pdfrwt>
<totfact> 0.18146397E+04</totfact>
</mgrwt>
</event>
<event>
 8    1  0.3572165E-004  0.1415920E+03  0.7546771E-02  0.1221885E+00
         -2   -1    0    0    0  501 -0.00000000000E+00  0.00000000000E+00  0.10102262176E+02  0.10102262176E+02  0.00000000000E+00 0.  1.
          2   -1    0    0  501    0  0.00000000000E+00 -0.00000000000E+00 -0.16112957305E+04  0.16112957305E+04  0.00000000000E+00 0. -1.
         25    2    1    2    0    0  0.26160730326E+02 -0.61147700592E+02 -0.83581621890E+03  0.84772462578E+03  0.12499945713E+03 0.  0.
         23    2    1    2    0    0 -0.26160730326E+02  0.61147700592E+02 -0.76537724939E+03  0.77367336686E+03  0.91349436808E+02 0.  0.
          5    1    3    3  502    0 -0.20827029445E+02 -0.84341103203E+02 -0.58651170519E+03  0.59292938633E+03  0.47000000000E+01 0.  1.
         -5    1    3    3    0  502  0.46987759771E+02  0.23193402611E+02 -0.24930451371E+03  0.25479523945E+03  0.47000000000E+01 0.  1.
          5    1    4    4  503    0  0.23308650809E+02 -0.10315846132E+02 -0.16765969676E+03  0.16965133009E+03  0.47000000000E+01 0. -1.
         -5    1    4    4    0  503 -0.49469381134E+02  0.71463546724E+02 -0.59771755263E+03  0.60402203677E+03  0.47000000000E+01 0.  1.
<mgrwt>
<rscale>  0 0.13382738E+03</rscale>
<asrwt>0</asrwt>
<pdfrwt beam="1">  1        2 0.24789165E+00 0.14159198E+03</pdfrwt>
<pdfrwt beam="2">  1       -2 0.15541942E-02 0.14159198E+03</pdfrwt>
<totfact> 0.12993726E+04</totfact>
</mgrwt>
</event>
<event>
 8    1  0.3572165E-004  0.1481162E+03  0.7546771E-02  0.1212476E+00
          2   -1    0    0  501    0  0.00000000000E+00  0.00000000000E+00  0.36951182389E+03  0.36951182389E+03  0.00000000000E+00 0. -1.
         -2   -1    0    0    0  501 -0.00000000000E+00 -0.00000000000E+00 -0.51212929552E+02  0.51212929552E+02  0.00000000000E+00 0.  1.
         25    2    1    2    0    0  0.70629006860E+02 -0.36391334712E+02  0.22045461781E+03  0.26559112540E+03  0.12500248607E+03 0.  0.
         23    2    1    2    0    0 -0.70629006860E+02  0.36391334712E+02  0.97844276520E+02  0.15513362804E+03  0.90444205169E+02 0.  0.
          5    1    3    3  502    0 -0.35016023605E+02 -0.21305660023E+02  0.58714998230E+02  0.71760672205E+02  0.47000000000E+01 0.  1.
         -5    1    3    3    0  502  0.10564503047E+03 -0.15085674689E+02  0.16173961958E+03  0.19383045320E+03  0.47000000000E+01 0.  1.
          5    1    4    4  503    0 -0.37889654681E+02  0.11653551251E+02 -0.87068172137E+01  0.40857433284E+02  0.47000000000E+01 0.  1.
         -5    1    4    4    0  503 -0.32739352179E+02  0.24737783461E+02  0.10655109373E+03  0.11427619475E+03  0.47000000000E+01 0. -1.
<mgrwt>
<rscale>  0 0.14063599E+03</rscale>
<asrwt>0</asrwt>
<pdfrwt beam="1">  1        2 0.56847971E-01 0.14811620E+03</pdfrwt>
<pdfrwt beam="2">  1       -2 0.78789125E-02 0.14811620E+03</pdfrwt>
<totfact> 0.80772167E+03</totfact>
</mgrwt>
</event>
<event>
 8    1  0.3572165E-004  0.1447329E+03  0.7546771E-02  0.1216695E+00
         -2   -1    0    0    0  501 -0.00000000000E+00  0.00000000000E+00  0.12026544879E+03  0.12026544879E+03  0.00000000000E+00 0.  1.
          2   -1    0    0  501    0  0.00000000000E+00 -0.00000000000E+00 -0.14445211292E+03  0.14445211292E+03  0.00000000000E+00 0. -1.
         25    2    1    2    0    0 -0.72094050193E+02  0.11522135518E+02 -0.25421460737E+01  0.14475525860E+03  0.12496923904E+03 0.  0.
         23    2    1    2    0    0  0.72094050193E+02 -0.11522135518E+02 -0.21644518062E+02  0.11996230311E+03  0.92693890444E+02 0.  0.
          5    1    4    4  502    0 -0.13223914319E+02  0.22088630170E+02 -0.44220014231E+01  0.26540979433E+02  0.47000000000E+01 0. -1.
         -5    1    3    3    0  503 -0.40892577415E+02 -0.13033397463E+02  0.57936539483E+02  0.72255137840E+02  0.47000000000E+01 0.  1.
          5    1    3    3  503    0 -0.31201472777E+02  0.24555532981E+02 -0.60478685556E+02  0.72500120759E+02  0.47000000000E+01 0.  1.
         -5    1    4    4    0  502  0.85317964511E+02 -0.33610765687E+02 -0.17222516639E+02  0.93421323678E+02  0.47000000000E+01 0.  1.
<mgrwt>
<rscale>  0 0.13752766E+03</rscale>
<asrwt>0</asrwt>
<pdfrwt beam="1">  1        2 0.22223402E-01 0.14473293E+03</pdfrwt>
<pdfrwt beam="2">  1       -2 0.18502377E-01 0.14473293E+03</pdfrwt>
<totfact> 0.56497591E+03</totfact>
</mgrwt>
</event>
<event>
 8    1  0.3572165E-004  0.1397374E+03  0.7546771E-02  0.1224975E+00
          1   -1    0    0  501    0  0.00000000000E+00  0.00000000000E+00  0.70946797463E+03  0.70946797463E+03  0.00000000000E+00 0. -1.
         -1   -1    0    0    0  501 -0.00000000000E+00 -0.00000000000E+00 -0.22798530145E+02  0.22798530145E+02  0.00000000000E+00 0.  1.
         25    2    1    2    0    0  0.38052059778E+02  0.49531308601E+02  0.44994417635E+03  0.47114362105E+03  0.12500096013E+03 0.  0.
         23    2    1    2    0    0 -0.38052059778E+02 -0.49531308601E+02  0.23672526814E+03  0.26112288373E+03  0.90801971616E+02 0.  0.
          5    1    3    3  502    0  0.68443908549E+02  0.67680176846E+02  0.38657117525E+03  0.39840248304E+03  0.47000000000E+01 0. -1.
         -5    1    3    3    0  502 -0.30391848771E+02 -0.18148868245E+02  0.63373001099E+02  0.72741138007E+02  0.47000000000E+01 0. -1.
          5    1    4    4  503    0 -0.20006614966E+02 -0.27829045746E+02  0.22884394311E+03  0.23144407689E+03  0.47000000000E+01 0. -1.
         -5    1    4    4    0  503 -0.18045444812E+02 -0.21702262855E+02  0.78813250293E+01  0.29678806845E+02  0.47000000000E+01 0.  1.
<mgrwt>
<rscale>  0 0.13168615E+03</rscale>
<asrwt>0</asrwt>
<pdfrwt beam="1">  1        1 0.10914890E+00 0.13973743E+03</pdfrwt>
<pdfrwt beam="2">  1       -1 0.35074667E-02 0.13973743E+03</pdfrwt>
<totfact> 0.79654644E+03</totfact>
</mgrwt>
</event>
<event>
 8    1  0.3572165E-004  0.2171711E+03  0.7546771E-02  0.1139593E+00
         -2   -1    0    0    0  501 -0.00000000000E+00  0.00000000000E+00  0.10634250591E+03  0.10634250591E+03  0.00000000000E+00 0.  1.
          2   -1    0    0  501    0  0.00000000000E+00 -0.00000000000E+00 -0.41628371943E+03  0.41628371943E+03  0.00000000000E+00 0. -1.
         25    2    1    2    0    0  0.86458825033E+02 -0.15512184746E+03 -0.19967418989E+03  0.29501369182E+03  0.12500152105E+03 0.  0.
         23    2    1    2    0    0 -0.86458825033E+02  0.15512184746E+03 -0.11026702362E+03  0.22761253353E+03  0.90059607673E+02 0.  0.
          5    1    3    3  502    0  0.11364234748E+02 -0.34550582941E+02  0.13267659733E+02  0.39000120612E+02  0.47000000000E+01 0. -1.
         -5    1    3    3    0  502  0.75094590285E+02 -0.12057126452E+03 -0.21294184963E+03  0.25601357120E+03  0.47000000000E+01 0. -1.
          5    1    4    4  503    0 -0.48086116317E+02  0.50571743804E+02  0.12289551969E+01  0.69952671033E+02  0.47000000000E+01 0. -1.
         -5    1    4    4    0  503 -0.38372708716E+02  0.10455010366E+03 -0.11149597882E+03  0.15765986249E+03  0.47000000000E+01 0.  1.
<mgrwt>
<rscale>  0 0.21251036E+03</rscale>
<asrwt>0</asrwt>
<pdfrwt beam="1">  1        2 0.64043649E-01 0.21717112E+03</pdfrwt>
<pdfrwt beam="2">  1       -2 0.16360386E-01 0.21717112E+03</pdfrwt>
<totfact> 0.22427995E+03</totfact>
</mgrwt>
</event>
<event>
 8    1  0.3572165E-004  0.1335956E+03  0.7546771E-02  0.1235051E+00
         -2   -1    0    0    0  501 -0.00000000000E+00  0.00000000000E+00  0.18616871342E+02  0.18616871342E+02  0.00000000000E+00 0.  1.
          2   -1    0    0  501    0  0.00000000000E+00 -0.00000000000E+00 -0.78960362658E+03  0.78960362658E+03  0.00000000000E+00 0. -1.
         25    2    1    2    0    0  0.33725804848E+02 -0.32929653401E+02 -0.52561333145E+03  0.54232569404E+03  0.12500396886E+03 0.  0.
         23    2    1    2    0    0 -0.33725804848E+02  0.32929653401E+02 -0.24537342379E+03  0.26589480389E+03  0.90940297145E+02 0.  0.
          5    1    4    4  502    0 -0.23770847475E+02  0.13708849271E+02 -0.24187273222E+03  0.24346969900E+03  0.47000000000E+01 0. -1.
         -5    1    3    3    0  503  0.31254341522E+02 -0.79753084393E+02 -0.36471907618E+03  0.37467250081E+03  0.47000000000E+01 0.  1.
          5    1    3    3  503    0  0.24714633258E+01  0.46823430993E+02 -0.16089425527E+03  0.16765319323E+03  0.47000000000E+01 0.  1.
         -5    1    4    4    0  502 -0.99549573729E+01  0.19220804130E+02 -0.35006915681E+01  0.22425104886E+02  0.47000000000E+01 0.  1.
<mgrwt>
<rscale>  0 0.12501181E+03</rscale>
<asrwt>0</asrwt>
<pdfrwt beam="1">  1        2 0.12147747E+00 0.13359560E+03</pdfrwt>
<pdfrwt beam="2">  1       -2 0.28641344E-02 0.13359560E+03</pdfrwt>
<totfact> 0.15577767E+04</totfact>
</mgrwt>
</event>
<event>
 8    1  0.3572165E-004  0.1454638E+03  0.7546771E-02  0.1215929E+00
          1   -1    0    0  501    0  0.00000000000E+00  0.00000000000E+00  0.38140689259E+03  0.38140689259E+03  0.00000000000E+00 0. -1.
         -1   -1    0    0    0  501 -0.00000000000E+00 -0.00000000000E+00 -0.78032786220E+02  0.78032786220E+02  0.00000000000E+00 0.  1.
         25    2    1    2    0    0  0.73845930227E+02 -0.89640282532E+01  0.30864006648E+03  0.34120141885E+03  0.12500456942E+03 0.  0.
         23    2    1    2    0    0 -0.73845930227E+02  0.89640282532E+01 -0.52659601067E+01  0.11823825996E+03  0.91755002965E+02 0.  0.
          5    1    4    4  502    0 -0.65359485878E+02 -0.21017345899E+02  0.26266972957E+02  0.73658910467E+02  0.47000000000E+01 0. -1.
         -5    1    3    3    0  503  0.96357434598E+02  0.23972841347E+02  0.17073937473E+03  0.19756891559E+03  0.47000000000E+01 0.  1.
          5    1    3    3  503    0 -0.22511504370E+02 -0.32936869601E+02  0.13790069174E+03  0.14363250326E+03  0.47000000000E+01 0.  1.
         -5    1    4    4    0  502 -0.84864443493E+01  0.29981374152E+02 -0.31532933063E+02  0.44579349494E+02  0.47000000000E+01 0.  1.
<mgrwt>
<rscale>  0 0.13808545E+03</rscale>
<asrwt>0</asrwt>
<pdfrwt beam="1">  1        1 0.58677982E-01 0.14546380E+03</pdfrwt>
<pdfrwt beam="2">  1       -1 0.12005044E-01 0.14546380E+03</pdfrwt>
<totfact> 0.28758468E+03</totfact>
</mgrwt>
</event>
<event>
 8    1  0.3572165E-004  0.1320110E+03  0.7546771E-02  0.1237398E+00
         -2   -1    0    0    0  501 -0.00000000000E+00  0.00000000000E+00  0.75765967071E+02  0.75765967071E+02  0.00000000000E+00 0.  1.
          2   -1    0    0  501    0  0.00000000000E+00 -0.00000000000E+00 -0.18758158735E+03  0.18758158735E+03  0.00000000000E+00 0. -1.
         25    2    1    2    0    0  0.26956758140E+02 -0.32801735304E+02 -0.90171521284E+02  0.15986812344E+03  0.12499717194E+03 0.  0.
         23    2    1    2    0    0 -0.26956758140E+02  0.32801735304E+02 -0.21644098993E+02  0.10347943098E+03  0.91852626348E+02 0.  0.
          5    1    4    4  502    0 -0.33964591061E+02 -0.83160328671E+01 -0.43617597348E+02  0.56101110924E+02  0.47000000000E+01 0. -1.
         -5    1    3    3    0  503 -0.35303108709E+02  0.24294117210E+02 -0.12181135211E+02  0.44799371318E+02  0.47000000000E+01 0.  1.
          5    1    3    3  503    0  0.62259866849E+02 -0.57095852514E+02 -0.77990386073E+02  0.11506875212E+03  0.47000000000E+01 0.  1.
         -5    1    4    4    0  502  0.70078329206E+01  0.41117768171E+02  0.21973498355E+02  0.47378320059E+02  0.47000000000E+01 0.  1.
<mgrwt>
<rscale>  0 0.12352153E+03</rscale>
<asrwt>0</asrwt>
<pdfrwt beam="1">  1        2 0.28858705E-01 0.13201104E+03</pdfrwt>
<pdfrwt beam="2">  1       -2 0.11656303E-01 0.13201104E+03</pdfrwt>
<totfact> 0.89463943E+03</totfact>
</mgrwt>
</event>
<event>
 8    1  0.3572165E-004  0.2114907E+03  0.7546771E-02  0.1144166E+00
         -1   -1    0    0    0  501 -0.00000000000E+00  0.00000000000E+00  0.94874819253E+02  0.94874819253E+02  0.00000000000E+00 0.  1.
          1   -1    0    0  501    0  0.00000000000E+00 -0.00000000000E+00 -0.56457527493E+03  0.56457527493E+03  0.00000000000E+00 0. -1.
         25    2    1    2    0    0  0.14038460021E+03  0.96935297645E+02 -0.83003785899E+02  0.22719579766E+03  0.12499605631E+03 0.  0.
         23    2    1    2    0    0 -0.14038460021E+03 -0.96935297645E+02 -0.38669666978E+03  0.43225429653E+03  0.90582418509E+02 0.  0.
          5    1    3    3  502    0  0.54265371702E+02  0.64140791484E+02 -0.10277546818E+03  0.13282943408E+03  0.47000000000E+01 0.  1.
         -5    1    4    4    0  503 -0.12838570940E+03 -0.68275773961E+02 -0.22790677770E+03  0.27038502364E+03  0.47000000000E+01 0.  1.
          5    1    4    4  503    0 -0.11998890814E+02 -0.28659523685E+02 -0.15878989208E+03  0.16186927289E+03  0.47000000000E+01 0. -1.
         -5    1    3    3    0  502  0.86119228513E+02  0.32794506161E+02  0.19771682284E+02  0.94366363575E+02  0.47000000000E+01 0.  1.
<mgrwt>
<rscale>  0 0.20675012E+03</rscale>
<asrwt>0</asrwt>
<pdfrwt beam="1">  1        1 0.86857737E-01 0.21149067E+03</pdfrwt>
<pdfrwt beam="2">  1       -1 0.14596126E-01 0.21149067E+03</pdfrwt>
<totfact> 0.12832870E+03</totfact>
</mgrwt>
</event>
<event>
 8    1  0.3572165E-004  0.1391148E+03  0.7546771E-02  0.1225688E+00
         -1   -1    0    0    0  501 -0.00000000000E+00  0.00000000000E+00  0.40127392252E+03  0.40127392252E+03  0.00000000000E+00 0.  1.
          1   -1    0    0  501    0  0.00000000000E+00 -0.00000000000E+00 -0.39111285482E+02  0.39111285482E+02  0.00000000000E+00 0. -1.
         25    2    1    2    0    0 -0.30104908412E+02  0.53119345920E+02  0.22496367451E+03  0.26450253120E+03  0.12499985497E+03 0.  0.
         23    2    1    2    0    0  0.30104908412E+02 -0.53119345920E+02  0.13719896253E+03  0.17588267680E+03  0.91559763313E+02 0.  0.
          5    1    3    3  502    0 -0.71663850344E+02  0.14502388538E+02  0.78570984627E+02  0.10743144951E+03  0.47000000000E+01 0.  1.
         -5    1    3    3    0  502  0.41558941932E+02  0.38616957382E+02  0.14639268988E+03  0.15707108169E+03  0.47000000000E+01 0.  1.
          5    1    4    4  503    0  0.16429932456E+01 -0.38456528937E+02  0.42008371283E+01  0.39004372541E+02  0.47000000000E+01 0. -1.
         -5    1    4    4    0  503  0.28461915166E+02 -0.14662816982E+02  0.13299812540E+03  0.13687830426E+03  0.47000000000E+01 0.  1.
<mgrwt>
<rscale>  0 0.13119832E+03</rscale>
<asrwt>0</asrwt>
<pdfrwt beam="1">  1        1 0.60171211E-02 0.13911482E+03</pdfrwt>
<pdfrwt beam="2">  1       -1 0.61734447E-01 0.13911482E+03</pdfrwt>
<totfact> 0.34076192E+03</totfact>
</mgrwt>
</event>
<event>
 8    1  0.3572165E-004  0.1429828E+03  0.7546771E-02  0.1221341E+00
         -2   -1    0    0    0  501 -0.00000000000E+00  0.00000000000E+00  0.35204677975E+02  0.35204677975E+02  0.00000000000E+00 0.  1.
          2   -1    0    0  501    0  0.00000000000E+00 -0.00000000000E+00 -0.53458131261E+03  0.53458131261E+03  0.00000000000E+00 0. -1.
         25    2    1    2    0    0  0.39728764732E+02 -0.56928396060E+02 -0.16957466449E+03  0.22180992762E+03  0.12499944050E+03 0.  0.
         23    2    1    2    0    0 -0.39728764732E+02  0.56928396060E+02 -0.32980197014E+03  0.34797606297E+03  0.86595518731E+02 0.  0.
          5    1    3    3  502    0  0.56646821039E+02 -0.73187618523E+02 -0.17431342577E+03  0.19741466572E+03  0.47000000000E+01 0.  1.
         -5    1    4    4    0  503 -0.12996469267E+02 -0.21672485837E+02 -0.52171659193E+02  0.58159925024E+02  0.47000000000E+01 0.  1.
          5    1    4    4  503    0 -0.26732295465E+02  0.78600881897E+02 -0.27763031095E+03  0.28981613794E+03  0.47000000000E+01 0. -1.
         -5    1    3    3    0  502 -0.16918056307E+02  0.16259222463E+02  0.47387612784E+01  0.24395261892E+02  0.47000000000E+01 0.  1.
<mgrwt>
<rscale>  0 0.13420860E+03</rscale>
<asrwt>0</asrwt>
<pdfrwt beam="1">  1        2 0.82243275E-01 0.14298279E+03</pdfrwt>
<pdfrwt beam="2">  1       -2 0.54161046E-02 0.14298279E+03</pdfrwt>
<totfact> 0.95668915E+03</totfact>
</mgrwt>
</event>
<event>
 8    1  0.3572165E-004  0.1893558E+03  0.7546771E-02  0.1163986E+00
         -1   -1    0    0    0  501 -0.00000000000E+00  0.00000000000E+00  0.69493575292E+02  0.69493575292E+02  0.00000000000E+00 0.  1.
          1   -1    0    0  501    0  0.00000000000E+00 -0.00000000000E+00 -0.48029728477E+03  0.48029728477E+03  0.00000000000E+00 0. -1.
         25    2    1    2    0    0  0.62126421089E+02 -0.12794786832E+03 -0.16247430938E+03  0.24950658827E+03  0.12500114870E+03 0.  0.
         23    2    1    2    0    0 -0.62126421089E+02  0.12794786832E+03 -0.24832940010E+03  0.30028427179E+03  0.90954954381E+02 0.  0.
          5    1    4    4  502    0 -0.61951547388E+02  0.67849724377E+02 -0.20887793348E+03  0.22824035668E+03  0.47000000000E+01 0. -1.
         -5    1    4    4    0  502 -0.17487370129E+00  0.60098143943E+02 -0.39451466617E+02  0.72043915110E+02  0.47000000000E+01 0.  1.
          5    1    3    3  503    0  0.62593196812E+02 -0.90618921781E+02 -0.17753746505E+03  0.20897688573E+03  0.47000000000E+01 0. -1.
         -5    1    3    3    0  503 -0.46677572306E+00 -0.37328946539E+02  0.15063155673E+02  0.40529702541E+02  0.47000000000E+01 0. -1.
<mgrwt>
<rscale>  0 0.18400120E+03</rscale>
<asrwt>0</asrwt>
<pdfrwt beam="1">  1        1 0.73891893E-01 0.18935585E+03</pdfrwt>
<pdfrwt beam="2">  1       -1 0.10691319E-01 0.18935585E+03</pdfrwt>
<totfact> 0.25837849E+03</totfact>
</mgrwt>
</event>
<event>
 8    1  0.3572165E-004  0.2181783E+03  0.7546771E-02  0.1138816E+00
         -2   -1    0    0    0  501 -0.00000000000E+00  0.00000000000E+00  0.33944596888E+02  0.33944596888E+02  0.00000000000E+00 0.  1.
          2   -1    0    0  501    0  0.00000000000E+00 -0.00000000000E+00 -0.13061988510E+04  0.13061988510E+04  0.00000000000E+00 0. -1.
         25    2    1    2    0    0 -0.17373486218E+03 -0.42349117228E+02 -0.74114292944E+03  0.77258954737E+03  0.12499806708E+03 0.  0.
         23    2    1    2    0    0  0.17373486218E+03  0.42349117228E+02 -0.53111132470E+03  0.56755390055E+03  0.89782741875E+02 0.  0.
          5    1    4    4  502    0  0.82991165516E+02  0.22424181898E+01 -0.12993463044E+03  0.15426490262E+03  0.47000000000E+01 0.  1.
         -5    1    3    3    0  503  0.88976714957E+01  0.22193097747E+02 -0.88235229758E+02  0.91538231991E+02  0.47000000000E+01 0.  1.
          5    1    3    3  503    0 -0.18263253367E+03 -0.64542214975E+02 -0.65290769968E+03  0.68105131537E+03  0.47000000000E+01 0.  1.
         -5    1    4    4    0  502  0.90743696663E+02  0.40106699038E+02 -0.40117669426E+03  0.41328899793E+03  0.47000000000E+01 0. -1.
<mgrwt>
<rscale>  0 0.21350987E+03</rscale>
<asrwt>0</asrwt>
<pdfrwt beam="1">  1        2 0.20095366E+00 0.21817829E+03</pdfrwt>
<pdfrwt beam="2">  1       -2 0.52222458E-02 0.21817829E+03</pdfrwt>
<totfact> 0.31806065E+03</totfact>
</mgrwt>
</event>
<event>
 8    1  0.3572165E-004  0.1322970E+03  0.7546771E-02  0.1237393E+00
          2   -1    0    0  501    0  0.00000000000E+00  0.00000000000E+00  0.60186436893E+02  0.60186436893E+02  0.00000000000E+00 0. -1.
         -2   -1    0    0    0  501 -0.00000000000E+00 -0.00000000000E+00 -0.23826860203E+03  0.23826860203E+03  0.00000000000E+00 0.  1.
         25    2    1    2    0    0  0.64099848391E+01 -0.42823938978E+02 -0.13515463514E+03  0.18912766313E+03  0.12501007922E+03 0.  0.
         23    2    1    2    0    0 -0.64099848391E+01  0.42823938978E+02 -0.42927529997E+02  0.10932737579E+03  0.90745383415E+02 0.  0.
          5    1    3    3  502    0  0.28794064333E+02 -0.54792194071E+02 -0.14785572120E+03  0.16035799626E+03  0.47000000000E+01 0. -1.
         -5    1    3    3    0  502 -0.22384079494E+02  0.11968255093E+02  0.12701086061E+02  0.28769666872E+02  0.47000000000E+01 0. -1.
          5    1    4    4  503    0 -0.45651464794E+02  0.55643315739E+01 -0.20066492008E+02  0.50396151889E+02  0.47000000000E+01 0. -1.
         -5    1    4    4    0  503  0.39241479955E+02  0.37259607404E+02 -0.22861037989E+02  0.58931223905E+02  0.47000000000E+01 0.  1.
<mgrwt>
<rscale>  0 0.12352498E+03</rscale>
<asrwt>0</asrwt>
<pdfrwt beam="1">  1        2 0.92594520E-02 0.13229701E+03</pdfrwt>
<pdfrwt beam="2">  1       -2 0.36656707E-01 0.13229701E+03</pdfrwt>
<totfact> 0.47207921E+03</totfact>
</mgrwt>
</event>
<event>
 8    1  0.3572165E-004  0.2349597E+03  0.7546771E-02  0.1126388E+00
          1   -1    0    0  501    0  0.00000000000E+00  0.00000000000E+00  0.25897805826E+03  0.25897805826E+03  0.00000000000E+00 0. -1.
         -1   -1    0    0    0  501 -0.00000000000E+00 -0.00000000000E+00 -0.20060978510E+03  0.20060978510E+03  0.00000000000E+00 0.  1.
         25    2    1    2    0    0  0.14122536041E+03 -0.14012837520E+03  0.65589779948E+00  0.23496061643E+03  0.12500198842E+03 0.  0.
         23    2    1    2    0    0 -0.14122536041E+03  0.14012837520E+03  0.57712375361E+02  0.22462722693E+03  0.86868342031E+02 0.  0.
          5    1    3    3  502    0  0.49929668974E+02 -0.11750810105E+03 -0.37801488809E+02  0.13323726285E+03  0.47000000000E+01 0.  1.
         -5    1    3    3    0  502  0.91295691439E+02 -0.22620274152E+02  0.38457386608E+02  0.10172335358E+03  0.47000000000E+01 0.  1.
          5    1    4    4  503    0 -0.98017173421E+02  0.54216663963E+02  0.62261683090E+02  0.12823969790E+03  0.47000000000E+01 0. -1.
         -5    1    4    4    0  503 -0.43208186993E+02  0.85911711237E+02 -0.45493077290E+01  0.96387529026E+02  0.47000000000E+01 0.  1.
<mgrwt>
<rscale>  0 0.23035804E+03</rscale>
<asrwt>0</asrwt>
<pdfrwt beam="1">  1        1 0.39842778E-01 0.23495970E+03</pdfrwt>
<pdfrwt beam="2">  1       -1 0.30863044E-01 0.23495970E+03</pdfrwt>
<totfact> 0.10272836E+03</totfact>
</mgrwt>
</event>
<event>
 8    1  0.3572165E-004  0.1800537E+03  0.7546771E-02  0.1173371E+00
          2   -1    0    0  501    0  0.00000000000E+00  0.00000000000E+00  0.85572517275E+03  0.85572517275E+03  0.00000000000E+00 0. -1.
         -2   -1    0    0    0  501 -0.00000000000E+00 -0.00000000000E+00 -0.35055176395E+02  0.35055176395E+02  0.00000000000E+00 0.  1.
         25    2    1    2    0    0 -0.12339391824E+03 -0.39598446358E+02  0.34053143558E+03  0.38520253017E+03  0.12500093846E+03 0.  0.
         23    2    1    2    0    0  0.12339391824E+03  0.39598446358E+02  0.48013856077E+03  0.50557781898E+03  0.91004381695E+02 0.  0.
          5    1    3    3  502    0 -0.12703057478E+03 -0.59697522648E+02  0.20766945723E+03  0.25069753610E+03  0.47000000000E+01 0.  1.
         -5    1    3    3    0  502  0.36366565381E+01  0.20099076289E+02  0.13286197835E+03  0.13450499407E+03  0.47000000000E+01 0.  1.
          5    1    4    4  503    0  0.90516769229E+02  0.56175741687E+02  0.43099851317E+03  0.44399415291E+03  0.47000000000E+01 0. -1.
         -5    1    4    4    0  503  0.32877149012E+02 -0.16577295329E+02  0.49140047605E+02  0.61583666066E+02  0.47000000000E+01 0.  1.
<mgrwt>
<rscale>  0 0.17436470E+03</rscale>
<asrwt>0</asrwt>
<pdfrwt beam="1">  1        2 0.13165001E+00 0.18005369E+03</pdfrwt>
<pdfrwt beam="2">  1       -2 0.53931047E-02 0.18005369E+03</pdfrwt>
<totfact> 0.55688581E+03</totfact>
</mgrwt>
</event>
<event>
 8    1  0.3572165E-004  0.1660660E+03  0.7546771E-02  0.1188725E+00
          2   -1    0    0  501    0  0.00000000000E+00  0.00000000000E+00  0.26222599481E+02  0.26222599481E+02  0.00000000000E+00 0. -1.
         -2   -1    0    0    0  501 -0.00000000000E+00 -0.00000000000E+00 -0.93722158513E+03  0.93722158513E+03  0.00000000000E+00 0.  1.
         25    2    1    2    0    0  0.42948085995E+02 -0.10054082718E+03 -0.40776282542E+03  0.44028223333E+03  0.12499970867E+03 0.  0.
         23    2    1    2    0    0 -0.42948085995E+02  0.10054082718E+03 -0.50323616023E+03  0.52316195129E+03  0.92188927153E+02 0.  0.
          5    1    3    3  502    0 -0.21042395671E+02 -0.88402402349E+02 -0.16006527113E+03  0.18412155815E+03  0.47000000000E+01 0.  1.
         -5    1    3    3    0  502  0.63990481666E+02 -0.12138424833E+02 -0.24769755429E+03  0.25616067517E+03  0.47000000000E+01 0.  1.
          5    1    4    4  503    0 -0.16819653581E+02  0.50093045513E+02 -0.79290284531E+02  0.95400488345E+02  0.47000000000E+01 0. -1.
         -5    1    4    4    0  503 -0.26128432413E+02  0.50447781668E+02 -0.42394587570E+03  0.42776146294E+03  0.47000000000E+01 0.  1.
<mgrwt>
<rscale>  0 0.15997496E+03</rscale>
<asrwt>0</asrwt>
<pdfrwt beam="1">  1        2 0.40342463E-02 0.16606602E+03</pdfrwt>
<pdfrwt beam="2">  1       -2 0.14418793E+00 0.16606602E+03</pdfrwt>
<totfact> 0.72262159E+02</totfact>
</mgrwt>
</event>
<event>
 8    1  0.3572165E-004  0.1310773E+03  0.7546771E-02  0.1239104E+00
          1   -1    0    0  501    0  0.00000000000E+00  0.00000000000E+00  0.59244233475E+02  0.59244233475E+02  0.00000000000E+00 0. -1.
         -1   -1    0    0    0  501 -0.00000000000E+00 -0.00000000000E+00 -0.23935761973E+03  0.23935761973E+03  0.00000000000E+00 0.  1.
         25    2    1    2    0    0 -0.27443076097E+02  0.28372700738E+02 -0.65273290236E+02  0.14643036882E+03  0.12499247146E+03 0.  0.
         23    2    1    2    0    0  0.27443076097E+02 -0.28372700738E+02 -0.11484009602E+03  0.15217148438E+03  0.91704855014E+02 0.  0.
          5    1    3    3  502    0  0.46786881061E+02  0.31518642985E+02 -0.26819342600E+02  0.62640276440E+02  0.47000000000E+01 0. -1.
         -5    1    4    4    0  503  0.40526445439E+01  0.21299935499E+02 -0.88232271756E+02  0.90978761034E+02  0.47000000000E+01 0.  1.
          5    1    4    4  503    0  0.23390431553E+02 -0.49672636237E+02 -0.26607824263E+02  0.61192723350E+02  0.47000000000E+01 0. -1.
         -5    1    3    3    0  502 -0.74229957158E+02 -0.31459422474E+01 -0.38453947636E+02  0.83790092380E+02  0.47000000000E+01 0. -1.
<mgrwt>
<rscale>  0 0.12245346E+03</rscale>
<asrwt>0</asrwt>
<pdfrwt beam="1">  1        1 0.91144977E-02 0.13107727E+03</pdfrwt>
<pdfrwt beam="2">  1       -1 0.36824248E-01 0.13107727E+03</pdfrwt>
<totfact> 0.49535454E+03</totfact>
</mgrwt>
</event>
<event>
 8    1  0.3572165E-004  0.1296163E+03  0.7546771E-02  0.1242161E+00
         -2   -1    0    0    0  501 -0.00000000000E+00  0.00000000000E+00  0.86404627101E+02  0.86404627101E+02  0.00000000000E+00 0.  1.
          2   -1    0    0  501    0  0.00000000000E+00 -0.00000000000E+00 -0.17311329979E+03  0.17311329979E+03  0.00000000000E+00 0. -1.
         25    2    1    2    0    0  0.26421604302E+02 -0.21853867400E+02 -0.35653307104E+00  0.12961675539E+03  0.12499873386E+03 0.  0.
         23    2    1    2    0    0 -0.26421604302E+02  0.21853867400E+02 -0.86352139620E+02  0.12990117151E+03  0.90785073926E+02 0.  0.
          5    1    3    3  502    0  0.39930689772E+02 -0.68868786145E+02 -0.68831509821E+01  0.80042722706E+02  0.47000000000E+01 0. -1.
         -5    1    4    4    0  503  0.32778387906E+02  0.10340398170E+02 -0.19711158697E+02  0.39899452693E+02  0.47000000000E+01 0.  1.
          5    1    4    4  503    0 -0.59199992208E+02  0.11513469230E+02 -0.66640980923E+02  0.90001718814E+02  0.47000000000E+01 0. -1.
         -5    1    3    3    0  502 -0.13509085470E+02  0.47014918744E+02  0.65266179111E+01  0.49574032680E+02  0.47000000000E+01 0. -1.
<mgrwt>
<rscale>  0 0.12056945E+03</rscale>
<asrwt>0</asrwt>
<pdfrwt beam="1">  1        2 0.26632815E-01 0.12961627E+03</pdfrwt>
<pdfrwt beam="2">  1       -2 0.13293020E-01 0.12961627E+03</pdfrwt>
<totfact> 0.79007563E+03</totfact>
</mgrwt>
</event>
<event>
 8    1  0.3572165E-004  0.1311475E+03  0.7546771E-02  0.1239730E+00
          2   -1    0    0  501    0  0.00000000000E+00  0.00000000000E+00  0.81728519001E+03  0.81728519001E+03  0.00000000000E+00 0. -1.
         -2   -1    0    0    0  501 -0.00000000000E+00 -0.00000000000E+00 -0.16251467523E+02  0.16251467523E+02  0.00000000000E+00 0.  1.
         25    2    1    2    0    0  0.18183181380E+02  0.35283651709E+02  0.49419723966E+03  0.51130281255E+03  0.12499636102E+03 0.  0.
         23    2    1    2    0    0 -0.18183181380E+02 -0.35283651709E+02  0.30683648283E+03  0.32223384499E+03  0.90058089579E+02 0.  0.
          5    1    3    3  502    0 -0.41679746713E+02  0.25233313922E+02  0.36740040715E+03  0.37064682731E+03  0.47000000000E+01 0.  1.
         -5    1    3    3    0  502  0.59862928094E+02  0.10050337787E+02  0.12679683251E+03  0.14065598524E+03  0.47000000000E+01 0.  1.
          5    1    4    4  503    0  0.23866865140E+02  0.71874299052E+01  0.18187983320E+03  0.18364000143E+03  0.47000000000E+01 0. -1.
         -5    1    4    4    0  503 -0.42050046521E+02 -0.42471081614E+02  0.12495664962E+03  0.13859384355E+03  0.47000000000E+01 0.  1.
<mgrwt>
<rscale>  0 0.12206414E+03</rscale>
<asrwt>0</asrwt>
<pdfrwt beam="1">  1        2 0.12573615E+00 0.13114745E+03</pdfrwt>
<pdfrwt beam="2">  1       -2 0.25002264E-02 0.13114745E+03</pdfrwt>
<totfact> 0.18181494E+04</totfact>
</mgrwt>
</event>
<event>
 8    1  0.3572165E-004  0.1305110E+03  0.7546771E-02  0.1240146E+00
         -2   -1    0    0    0  501 -0.00000000000E+00  0.00000000000E+00  0.50855196431E+02  0.50855196431E+02  0.00000000000E+00 0.  1.
          2   -1    0    0  501    0  0.00000000000E+00 -0.00000000000E+00 -0.25923119104E+03  0.25923119104E+03  0.00000000000E+00 0. -1.
         25    2    1    2    0    0  0.11331026961E+01 -0.37514460345E+02 -0.12300392491E+03  0.17934073483E+03  0.12499805987E+03 0.  0.
         23    2    1    2    0    0 -0.11331026961E+01  0.37514460345E+02 -0.85372069703E+02  0.13074565264E+03  0.91637419990E+02 0.  0.
          5    1    4    4  502    0 -0.17700971383E+02 -0.20781284739E+02 -0.57602546499E+02  0.63916582719E+02  0.47000000000E+01 0. -1.
         -5    1    3    3    0  503 -0.16108309072E+01  0.33934812699E+02  0.29574935796E+01  0.34423873364E+02  0.47000000000E+01 0.  1.
          5    1    3    3  503    0  0.27439336033E+01 -0.71449273044E+02 -0.12596141849E+03  0.14491686147E+03  0.47000000000E+01 0.  1.
         -5    1    4    4    0  502  0.16567868687E+02  0.58295745084E+02 -0.27769523204E+02  0.66829069922E+02  0.47000000000E+01 0.  1.
<mgrwt>
<rscale>  0 0.12180697E+03</rscale>
<asrwt>0</asrwt>
<pdfrwt beam="1">  1        2 0.39881721E-01 0.13051105E+03</pdfrwt>
<pdfrwt beam="2">  1       -2 0.78238764E-02 0.13051105E+03</pdfrwt>
<totfact> 0.11787394E+04</totfact>
</mgrwt>
</event>
<event>
 8    1  0.3572165E-004  0.1526868E+03  0.7546771E-02  0.1205520E+00
         -1   -1    0    0    0  501 -0.00000000000E+00  0.00000000000E+00  0.19614656703E+03  0.19614656703E+03  0.00000000000E+00 0.  1.
          1   -1    0    0  501    0  0.00000000000E+00 -0.00000000000E+00 -0.12115865693E+03  0.12115865693E+03  0.00000000000E+00 0. -1.
         25    2    1    2    0    0  0.60447047764E+02  0.63514139315E+02  0.10623221034E+03  0.18600684787E+03  0.12500149386E+03 0.  0.
         23    2    1    2    0    0 -0.60447047764E+02 -0.63514139315E+02 -0.31244300235E+02  0.13129837608E+03  0.92602191055E+02 0.  0.
          5    1    3    3  502    0  0.78879798463E+02 -0.44201472343E+01  0.37742565481E+02  0.87682105108E+02  0.47000000000E+01 0.  1.
         -5    1    3    3    0  502 -0.18432750699E+02  0.67934286550E+02  0.68489644856E+02  0.98324742765E+02  0.47000000000E+01 0.  1.
          5    1    4    4  503    0 -0.30860142016E+02 -0.80197854453E+02 -0.41451015233E+02  0.95521311172E+02  0.47000000000E+01 0. -1.
         -5    1    4    4    0  503 -0.29586905748E+02  0.16683715138E+02  0.10206714998E+02  0.35777064910E+02  0.47000000000E+01 0.  1.
<mgrwt>
<rscale>  0 0.14596591E+03</rscale>
<asrwt>0</asrwt>
<pdfrwt beam="1">  1        1 0.18639793E-01 0.15268682E+03</pdfrwt>
<pdfrwt beam="2">  1       -1 0.30176395E-01 0.15268682E+03</pdfrwt>
<totfact> 0.27547265E+03</totfact>
</mgrwt>
</event>
<event>
 8    1  0.3572165E-004  0.1362418E+03  0.7546771E-02  0.1229768E+00
          1   -1    0    0  501    0  0.00000000000E+00  0.00000000000E+00  0.60570887228E+03  0.60570887228E+03  0.00000000000E+00 0. -1.
         -1   -1    0    0    0  501 -0.00000000000E+00 -0.00000000000E+00 -0.33243152466E+02  0.33243152466E+02  0.00000000000E+00 0.  1.
         25    2    1    2    0    0  0.49083148986E+02 -0.23011590972E+02  0.14849699897E+03  0.20152710313E+03  0.12499250281E+03 0.  0.
         23    2    1    2    0    0 -0.49083148986E+02  0.23011590972E+02  0.42396872085E+03  0.43742492162E+03  0.93018261464E+02 0.  0.
          5    1    4    4  502    0 -0.29428029419E+02  0.57194209669E+02  0.31273550014E+03  0.31931609665E+03  0.47000000000E+01 0. -1.
         -5    1    4    4    0  502 -0.19655119567E+02 -0.34182618697E+02  0.11123322071E+03  0.11810882497E+03  0.47000000000E+01 0.  1.
          5    1    3    3  503    0  0.46728500095E+02  0.34842062410E+02  0.22270664387E+02  0.62574711556E+02  0.47000000000E+01 0. -1.
         -5    1    3    3    0  503  0.23546488910E+01 -0.57853653381E+02  0.12622633458E+03  0.13895239157E+03  0.47000000000E+01 0. -1.
<mgrwt>
<rscale>  0 0.12845416E+03</rscale>
<asrwt>0</asrwt>
<pdfrwt beam="1">  1        1 0.93185972E-01 0.13624175E+03</pdfrwt>
<pdfrwt beam="2">  1       -1 0.51143316E-02 0.13624175E+03</pdfrwt>
<totfact> 0.56971616E+03</totfact>
</mgrwt>
</event>
<event>
 8    1  0.3572165E-004  0.2447367E+03  0.7546771E-02  0.1119071E+00
         -2   -1    0    0    0  501 -0.00000000000E+00  0.00000000000E+00  0.24802016575E+03  0.24802016575E+03  0.00000000000E+00 0.  1.
          2   -1    0    0  501    0  0.00000000000E+00 -0.00000000000E+00 -0.27915948485E+03  0.27915948485E+03  0.00000000000E+00 0. -1.
         25    2    1    2    0    0 -0.19886182605E+03 -0.68738928305E+02  0.97270639870E+02  0.26335836659E+03  0.12499994299E+03 0.  0.
         23    2    1    2    0    0  0.19886182605E+03  0.68738928305E+02 -0.12840995896E+03  0.26382128401E+03  0.94029177461E+02 0.  0.
          5    1    4    4  502    0  0.19399672397E+03  0.36459374188E+02 -0.11155525186E+03  0.22678333073E+03  0.47000000000E+01 0.  1.
         -5    1    3    3    0  503 -0.16296991638E+03 -0.10180138735E+03  0.94682337436E+02  0.21426514214E+03  0.47000000000E+01 0.  1.
          5    1    3    3  503    0 -0.35891909664E+02  0.33062459046E+02  0.25883024343E+01  0.49093224451E+02  0.47000000000E+01 0.  1.
         -5    1    4    4    0  502  0.48651020774E+01  0.32279554117E+02 -0.16854707101E+02  0.37037953286E+02  0.47000000000E+01 0. -1.
<mgrwt>
<rscale>  0 0.24108710E+03</rscale>
<asrwt>0</asrwt>
<pdfrwt beam="1">  1        2 0.42947613E-01 0.24473670E+03</pdfrwt>
<pdfrwt beam="2">  1       -2 0.38156948E-01 0.24473670E+03</pdfrwt>
<totfact> 0.77241372E+02</totfact>
</mgrwt>
</event>
<event>
 8    1  0.3572165E-004  0.1326509E+03  0.7546771E-02  0.1236625E+00
          2   -1    0    0  501    0  0.00000000000E+00  0.00000000000E+00  0.65110830289E+03  0.65110830289E+03  0.00000000000E+00 0. -1.
         -2   -1    0    0    0  501 -0.00000000000E+00 -0.00000000000E+00 -0.21598067211E+02  0.21598067211E+02  0.00000000000E+00 0.  1.
         25    2    1    2    0    0 -0.21370452528E+02  0.38920675974E+02  0.41038228428E+03  0.43128863235E+03  0.12499899952E+03 0.  0.
         23    2    1    2    0    0  0.21370452528E+02 -0.38920675974E+02  0.21912795139E+03  0.24141773775E+03  0.91071124722E+02 0.  0.
          5    1    4    4  502    0 -0.11141627739E+02 -0.43044286588E+02  0.19599202206E+03  0.20102713545E+03  0.47000000000E+01 0. -1.
         -5    1    3    3    0  503  0.48463990076E+02 -0.64749656657E+01  0.16049838772E+03  0.16784667401E+03  0.47000000000E+01 0.  1.
          5    1    3    3  503    0 -0.69834442604E+02  0.45395641640E+02  0.24988389656E+03  0.26344195834E+03  0.47000000000E+01 0.  1.
         -5    1    4    4    0  502  0.32512080266E+02  0.41236106138E+01  0.23135929331E+02  0.40390602295E+02  0.47000000000E+01 0.  1.
<mgrwt>
<rscale>  0 0.12400952E+03</rscale>
<asrwt>0</asrwt>
<pdfrwt beam="1">  1        2 0.10017049E+00 0.13265091E+03</pdfrwt>
<pdfrwt beam="2">  1       -2 0.33227801E-02 0.13265091E+03</pdfrwt>
<totfact> 0.15762813E+04</totfact>
</mgrwt>
</event>
<event>
 8    1  0.3572165E-004  0.2387399E+03  0.7546771E-02  0.1123873E+00
          2   -1    0    0  501    0  0.00000000000E+00  0.00000000000E+00  0.45094384892E+03  0.45094384892E+03  0.00000000000E+00 0. -1.
         -2   -1    0    0    0  501 -0.00000000000E+00 -0.00000000000E+00 -0.11693844361E+03  0.11693844361E+03  0.00000000000E+00 0.  1.
         25    2    1    2    0    0 -0.94795220658E+02  0.17995395113E+03  0.18376932270E+03  0.30127709871E+03  0.12500867112E+03 0.  0.
         23    2    1    2    0    0  0.94795220658E+02 -0.17995395113E+03  0.15023608261E+03  0.26660519383E+03  0.84486037139E+02 0.  0.
          5    1    3    3  502    0  0.30046575553E+02  0.23089098969E+02  0.27921970808E+02  0.47303590217E+02  0.47000000000E+01 0.  1.
         -5    1    4    4    0  503  0.70250524508E+02 -0.64674265311E+02  0.35303688895E+02  0.10191338105E+03  0.47000000000E+01 0.  1.
          5    1    4    4  503    0  0.24544696150E+02 -0.11527968582E+03  0.11493239372E+03  0.16469181278E+03  0.47000000000E+01 0. -1.
         -5    1    3    3    0  502 -0.12484179621E+03  0.15686485216E+03  0.15584735189E+03  0.25397350849E+03  0.47000000000E+01 0.  1.
<mgrwt>
<rscale>  0 0.23397517E+03</rscale>
<asrwt>0</asrwt>
<pdfrwt beam="1">  1        2 0.69375976E-01 0.23873987E+03</pdfrwt>
<pdfrwt beam="2">  1       -2 0.17990530E-01 0.23873987E+03</pdfrwt>
<totfact> 0.17555911E+03</totfact>
</mgrwt>
</event>
<event>
 8    1  0.3572165E-004  0.1255531E+03  0.7546771E-02  0.1248873E+00
         -2   -1    0    0    0  501 -0.00000000000E+00  0.00000000000E+00  0.71562449701E+02  0.71562449701E+02  0.00000000000E+00 0.  1.
          2   -1    0    0  501    0  0.00000000000E+00 -0.00000000000E+00 -0.28025614731E+03  0.28025614731E+03  0.00000000000E+00 0. -1.
         25    2    1    2    0    0 -0.96698022000E+01  0.66891711401E+01 -0.22448376311E+03  0.25720915405E+03  0.12500135576E+03 0.  0.
         23    2    1    2    0    0  0.96698022000E+01 -0.66891711401E+01  0.15790065494E+02  0.94609442968E+02  0.92538480889E+02 0.  0.
          5    1    3    3  502    0  0.43976073051E+02 -0.11243731242E+02 -0.17826360348E+03  0.18401173554E+03  0.47000000000E+01 0.  1.
         -5    1    3    3    0  502 -0.53645875251E+02  0.17932902382E+02 -0.46220159631E+02  0.73197418504E+02  0.47000000000E+01 0.  1.
          5    1    4    4  503    0 -0.33888306871E+02  0.18540492512E+02 -0.63315651070E+01  0.39425193999E+02  0.47000000000E+01 0. -1.
         -5    1    4    4    0  503  0.43558109071E+02 -0.25229663652E+02  0.22121630601E+02  0.55184248969E+02  0.47000000000E+01 0.  1.
<mgrwt>
<rscale>  0 0.11656567E+03</rscale>
<asrwt>0</asrwt>
<pdfrwt beam="1">  1        2 0.43116330E-01 0.12555313E+03</pdfrwt>
<pdfrwt beam="2">  1       -2 0.11009608E-01 0.12555313E+03</pdfrwt>
<totfact> 0.63516982E+03</totfact>
</mgrwt>
</event>
<event>
 8    1  0.3572165E-004  0.1787475E+03  0.7546771E-02  0.1174739E+00
          2   -1    0    0  501    0  0.00000000000E+00  0.00000000000E+00  0.19877493654E+03  0.19877493654E+03  0.00000000000E+00 0. -1.
         -2   -1    0    0    0  501 -0.00000000000E+00 -0.00000000000E+00 -0.14479637724E+03  0.14479637724E+03  0.00000000000E+00 0.  1.
         25    2    1    2    0    0  0.10853188904E+03  0.67434836311E+02  0.36051250189E+01  0.17878389366E+03  0.12499622241E+03 0.  0.
         23    2    1    2    0    0 -0.10853188904E+03 -0.67434836311E+02  0.50373434280E+02  0.16478742013E+03  0.91053736128E+02 0.  0.
          5    1    3    3  502    0 -0.20745445346E+02  0.38113767938E+02  0.13723932631E+02  0.45754443892E+02  0.47000000000E+01 0. -1.
         -5    1    3    3    0  502  0.12927733439E+03  0.29321068373E+02 -0.10118807612E+02  0.13302944976E+03  0.47000000000E+01 0. -1.
          5    1    4    4  503    0 -0.50440672858E+02 -0.40573151285E+02  0.72124297184E+02  0.97028069794E+02  0.47000000000E+01 0. -1.
         -5    1    4    4    0  503 -0.58091216184E+02 -0.26861685027E+02 -0.21750862904E+02  0.67759350331E+02  0.47000000000E+01 0.  1.
<mgrwt>
<rscale>  0 0.17301564E+03</rscale>
<asrwt>0</asrwt>
<pdfrwt beam="1">  1        2 0.30580760E-01 0.17874754E+03</pdfrwt>
<pdfrwt beam="2">  1       -2 0.22276366E-01 0.17874754E+03</pdfrwt>
<totfact> 0.29287940E+03</totfact>
</mgrwt>
</event>
<event>
 8    1  0.3572165E-004  0.1630730E+03  0.7546771E-02  0.1191981E+00
         -1   -1    0    0    0  501 -0.00000000000E+00  0.00000000000E+00  0.84822013801E+03  0.84822013801E+03  0.00000000000E+00 0.  1.
          1   -1    0    0  501    0  0.00000000000E+00 -0.00000000000E+00 -0.27910290930E+02  0.27910290930E+02  0.00000000000E+00 0. -1.
         25    2    1    2    0    0 -0.18157365018E+02  0.10313520954E+03  0.36866728712E+03  0.40312326732E+03  0.12500495476E+03 0.  0.
         23    2    1    2    0    0  0.18157365018E+02 -0.10313520954E+03  0.45164255996E+03  0.47300716162E+03  0.93745461877E+02 0.  0.
          5    1    3    3  502    0  0.26826207132E+02  0.11257702394E+03  0.24192579191E+03  0.26822268827E+03  0.47000000000E+01 0.  1.
         -5    1    3    3    0  502 -0.44983572151E+02 -0.94418144021E+01  0.12674149521E+03  0.13490057906E+03  0.47000000000E+01 0.  1.
          5    1    4    4  503    0 -0.26365871318E+02 -0.75138346941E+02  0.18959091361E+03  0.20568844128E+03  0.47000000000E+01 0. -1.
         -5    1    4    4    0  503  0.44523236337E+02 -0.27996862596E+02  0.26205164635E+03  0.26731872034E+03  0.47000000000E+01 0.  1.
<mgrwt>
<rscale>  0 0.15712509E+03</rscale>
<asrwt>0</asrwt>
<pdfrwt beam="1">  1        1 0.42938915E-02 0.16307299E+03</pdfrwt>
<pdfrwt beam="2">  1       -1 0.13049539E+00 0.16307299E+03</pdfrwt>
<totfact> 0.10956419E+03</totfact>
</mgrwt>
</event>
<event>
 8    1  0.3572165E-004  0.1531560E+03  0.7546771E-02  0.1204716E+00
          2   -1    0    0  501    0  0.00000000000E+00  0.00000000000E+00  0.16322760282E+04  0.16322760282E+04  0.00000000000E+00 0.  1.
         -2   -1    0    0    0  501 -0.00000000000E+00 -0.00000000000E+00 -0.13278722467E+02  0.13278722467E+02  0.00000000000E+00 0. -1.
         25    2    1    2    0    0 -0.14055623852E+02 -0.87372808169E+02  0.11126429685E+04  0.11231345165E+04  0.12500079462E+03 0.  0.
         23    2    1    2    0    0  0.14055623852E+02  0.87372808169E+02  0.50635433731E+03  0.52242023423E+03  0.93255659636E+02 0.  0.
          5    1    3    3  502    0 -0.26999529668E+02  0.15489893853E+02  0.92164130581E+02  0.97392137156E+02  0.47000000000E+01 0. -1.
         -5    1    4    4    0  503 -0.26676178125E+02  0.57594234530E+02  0.39477703738E+03  0.39987462231E+03  0.47000000000E+01 0.  1.
          5    1    4    4  503    0  0.40731801977E+02  0.29778573639E+02  0.11157729993E+03  0.12254561192E+03  0.47000000000E+01 0. -1.
         -5    1    3    3    0  502  0.12943905816E+02 -0.10286270202E+03  0.10204788379E+04  0.10257423793E+04  0.47000000000E+01 0. -1.
<mgrwt>
<rscale>  0 0.14659822E+03</rscale>
<asrwt>0</asrwt>
<pdfrwt beam="1">  1        2 0.25111923E+00 0.15315602E+03</pdfrwt>
<pdfrwt beam="2">  1       -2 0.20428817E-02 0.15315602E+03</pdfrwt>
<totfact> 0.85504953E+03</totfact>
</mgrwt>
</event>
<event>
 8    1  0.3572165E-004  0.1714122E+03  0.7546771E-02  0.1182792E+00
          2   -1    0    0  501    0  0.00000000000E+00  0.00000000000E+00  0.48873117991E+03  0.48873117991E+03  0.00000000000E+00 0. -1.
         -2   -1    0    0    0  501 -0.00000000000E+00 -0.00000000000E+00 -0.53109807642E+02  0.53109807642E+02  0.00000000000E+00 0.  1.
         25    2    1    2    0    0 -0.87403144302E+02  0.78214893007E+02  0.26622421775E+03  0.31663460160E+03  0.12500103075E+03 0.  0.
         23    2    1    2    0    0  0.87403144302E+02 -0.78214893007E+02  0.16939715451E+03  0.22520638595E+03  0.90915571795E+02 0.  0.
          5    1    4    4  502    0  0.13305189464E+01 -0.53647990167E+02  0.92802049170E+02  0.10730418193E+03  0.47000000000E+01 0. -1.
         -5    1    3    3    0  503 -0.46061281052E+02  0.91728247232E+02  0.24944635337E+03  0.26978006998E+03  0.47000000000E+01 0. -1.
          5    1    3    3  503    0 -0.41341863250E+02 -0.13513354225E+02  0.16777864386E+02  0.46854531614E+02  0.47000000000E+01 0. -1.
         -5    1    4    4    0  502  0.86072625356E+02 -0.24566902840E+02  0.76595105343E+02  0.11790220402E+03  0.47000000000E+01 0.  1.
<mgrwt>
<rscale>  0 0.16534446E+03</rscale>
<asrwt>0</asrwt>
<pdfrwt beam="1">  1        2 0.75189409E-01 0.17141218E+03</pdfrwt>
<pdfrwt beam="2">  1       -2 0.81707400E-02 0.17141218E+03</pdfrwt>
<totfact> 0.56883201E+03</totfact>
</mgrwt>
</event>
<event>
 8    1  0.3572165E-004  0.1438518E+03  0.7546771E-02  0.1219137E+00
         -2   -1    0    0    0  501 -0.00000000000E+00  0.00000000000E+00  0.31341037291E+02  0.31341037291E+02  0.00000000000E+00 0.  1.
          2   -1    0    0  501    0  0.00000000000E+00 -0.00000000000E+00 -0.59409696371E+03  0.59409696371E+03  0.00000000000E+00 0. -1.
         25    2    1    2    0    0 -0.56635013250E+02 -0.43132753485E+02 -0.41167040985E+03  0.43608010982E+03  0.12500150673E+03 0.  0.
         23    2    1    2    0    0  0.56635013250E+02  0.43132753485E+02 -0.15108551657E+03  0.18935789119E+03  0.89227901954E+02 0.  0.
          5    1    4    4  502    0  0.29296347326E+02  0.45076569306E+02 -0.15224449043E+03  0.16152599770E+03  0.47000000000E+01 0. -1.
         -5    1    3    3    0  503  0.17683682042E+02  0.29480767016E+02 -0.59566357721E+02  0.68935253728E+02  0.47000000000E+01 0.  1.
          5    1    3    3  503    0 -0.74318695291E+02 -0.72613520501E+02 -0.35210405213E+03  0.36714485609E+03  0.47000000000E+01 0.  1.
         -5    1    4    4    0  502  0.27338665924E+02 -0.19438158202E+01  0.11589738587E+01  0.27831893483E+02  0.47000000000E+01 0.  1.
<mgrwt>
<rscale>  0 0.13576966E+03</rscale>
<asrwt>0</asrwt>
<pdfrwt beam="1">  1        2 0.91399527E-01 0.14385178E+03</pdfrwt>
<pdfrwt beam="2">  1       -2 0.48216983E-02 0.14385178E+03</pdfrwt>
<totfact> 0.10124675E+04</totfact>
</mgrwt>
</event>
<event>
 8    1  0.3572165E-004  0.1661920E+03  0.7546771E-02  0.1188752E+00
         -2   -1    0    0    0  501 -0.00000000000E+00  0.00000000000E+00  0.61417130056E+02  0.61417130056E+02  0.00000000000E+00 0.  1.
          2   -1    0    0  501    0  0.00000000000E+00 -0.00000000000E+00 -0.41870408919E+03  0.41870408919E+03  0.00000000000E+00 0. -1.
         25    2    1    2    0    0  0.97721615489E+02  0.49453183225E+02 -0.25598492391E+03  0.30520168499E+03  0.12499862313E+03 0.  0.
         23    2    1    2    0    0 -0.97721615489E+02 -0.49453183225E+02 -0.10130203523E+03  0.17491953426E+03  0.91321463308E+02 0.  0.
          5    1    4    4  502    0 -0.65688118756E+02 -0.21593297626E+02 -0.11124196283E+03  0.13106511260E+03  0.47000000000E+01 0. -1.
         -5    1    4    4    0  502 -0.32033496733E+02 -0.27859885599E+02  0.99399275988E+01  0.43854421661E+02  0.47000000000E+01 0.  1.
          5    1    3    3  503    0  0.16091680262E+02 -0.39588787231E+02 -0.46429859358E+02  0.63277453236E+02  0.47000000000E+01 0. -1.
         -5    1    3    3    0  503  0.81629935228E+02  0.89041970456E+02 -0.20955506455E+03  0.24192423175E+03  0.47000000000E+01 0. -1.
<mgrwt>
<rscale>  0 0.15995118E+03</rscale>
<asrwt>0</asrwt>
<pdfrwt beam="1">  1        2 0.64416015E-01 0.16619202E+03</pdfrwt>
<pdfrwt beam="2">  1       -2 0.94487891E-02 0.16619202E+03</pdfrwt>
<totfact> 0.53573231E+03</totfact>
</mgrwt>
</event>
<event>
 8    1  0.3572165E-004  0.1756287E+03  0.7546771E-02  0.1178361E+00
          3   -1    0    0  501    0  0.00000000000E+00  0.00000000000E+00  0.89642120727E+02  0.89642120727E+02  0.00000000000E+00 0. -1.
         -3   -1    0    0    0  501 -0.00000000000E+00 -0.00000000000E+00 -0.31771835666E+03  0.31771835666E+03  0.00000000000E+00 0.  1.
         25    2    1    2    0    0  0.10450289857E+03  0.65579033480E+02 -0.73800119733E+02  0.19050428583E+03  0.12499583915E+03 0.  0.
         23    2    1    2    0    0 -0.10450289857E+03 -0.65579033480E+02 -0.15427611620E+03  0.21685619155E+03  0.89465201857E+02 0.  0.
          5    1    3    3  502    0  0.10103655282E+03  0.41377808000E+02 -0.10434581648E+03  0.15109813837E+03  0.47000000000E+01 0. -1.
         -5    1    4    4    0  503 -0.71946454049E+02 -0.82433682227E+02 -0.13875909608E+03  0.17677041879E+03  0.47000000000E+01 0.  1.
          5    1    4    4  503    0 -0.32556444522E+02  0.16854648747E+02 -0.15517020121E+02  0.40085772760E+02  0.47000000000E+01 0. -1.
         -5    1    3    3    0  502  0.34663457466E+01  0.24201225480E+02  0.30545696752E+02  0.39406147460E+02  0.47000000000E+01 0. -1.
<mgrwt>
<rscale>  0 0.16950876E+03</rscale>
<asrwt>0</asrwt>
<pdfrwt beam="1">  1        3 0.13791095E-01 0.17562866E+03</pdfrwt>
<pdfrwt beam="2">  1       -3 0.48879748E-01 0.17562866E+03</pdfrwt>
<totfact> 0.43090398E+02</totfact>
</mgrwt>
</event>
<event>
 8    1  0.3572165E-004  0.1559802E+03  0.7546771E-02  0.1201881E+00
          1   -1    0    0  501    0  0.00000000000E+00  0.00000000000E+00  0.11667883797E+03  0.11667883797E+03  0.00000000000E+00 0. -1.
         -1   -1    0    0    0  501 -0.00000000000E+00 -0.00000000000E+00 -0.30168672719E+03  0.30168672719E+03  0.00000000000E+00 0.  1.
         25    2    1    2    0    0  0.24872866599E+02  0.89918417527E+02  0.37997433391E+02  0.16054164708E+03  0.12500333676E+03 0.  0.
         23    2    1    2    0    0 -0.24872866599E+02 -0.89918417527E+02 -0.22300532262E+03  0.25782391808E+03  0.89653876180E+02 0.  0.
          5    1    4    4  502    0 -0.46116094413E+02 -0.14718294174E+02 -0.62037543255E+02  0.78829367119E+02  0.47000000000E+01 0. -1.
         -5    1    4    4    0  502  0.21243227814E+02 -0.75200123353E+02 -0.16096777936E+03  0.17899455096E+03  0.47000000000E+01 0.  1.
          5    1    3    3  503    0 -0.19172823403E+02  0.10521038837E+03  0.14199200364E+02  0.10798393523E+03  0.47000000000E+01 0. -1.
         -5    1    3    3    0  503  0.44045690002E+02 -0.15291970838E+02  0.23798233027E+02  0.52557711852E+02  0.47000000000E+01 0. -1.
<mgrwt>
<rscale>  0 0.14885976E+03</rscale>
<asrwt>0</asrwt>
<pdfrwt beam="1">  1        1 0.17950590E-01 0.15598018E+03</pdfrwt>
<pdfrwt beam="2">  1       -1 0.46413343E-01 0.15598018E+03</pdfrwt>
<totfact> 0.13670772E+03</totfact>
</mgrwt>
</event>
<event>
 8    1  0.3572165E-004  0.1829090E+03  0.7546771E-02  0.1170416E+00
          1   -1    0    0  501    0  0.00000000000E+00  0.00000000000E+00  0.56294677636E+03  0.56294677636E+03  0.00000000000E+00 0. -1.
         -1   -1    0    0    0  501 -0.00000000000E+00 -0.00000000000E+00 -0.52933760367E+02  0.52933760367E+02  0.00000000000E+00 0.  1.
         25    2    1    2    0    0 -0.15753172613E+02 -0.13259774065E+03  0.25035620832E+03  0.31005470289E+03  0.12500145786E+03 0.  0.
         23    2    1    2    0    0  0.15753172613E+02  0.13259774065E+03  0.25965680767E+03  0.30582583384E+03  0.90980545160E+02 0.  0.
          5    1    4    4  502    0 -0.18160114791E+02  0.12318873435E+02  0.10278728126E+03  0.10520864793E+03  0.47000000000E+01 0. -1.
         -5    1    4    4    0  502  0.33913287404E+02  0.12027886722E+03  0.15686952642E+03  0.20061718590E+03  0.47000000000E+01 0.  1.
          5    1    3    3  503    0  0.45509800621E+02 -0.10231771626E+03  0.13067476653E+03  0.17215702606E+03  0.47000000000E+01 0. -1.
         -5    1    3    3    0  503 -0.61262973234E+02 -0.30280024391E+02  0.11968144179E+03  0.13789767683E+03  0.47000000000E+01 0. -1.
<mgrwt>
<rscale>  0 0.17732603E+03</rscale>
<asrwt>0</asrwt>
<pdfrwt beam="1">  1        1 0.86607192E-01 0.18290896E+03</pdfrwt>
<pdfrwt beam="2">  1       -1 0.81436558E-02 0.18290896E+03</pdfrwt>
<totfact> 0.31713231E+03</totfact>
</mgrwt>
</event>
<event>
 8    1  0.3572165E-004  0.1414903E+03  0.7546771E-02  0.1221876E+00
         -1   -1    0    0    0  501 -0.00000000000E+00  0.00000000000E+00  0.38085769707E+03  0.38085769707E+03  0.00000000000E+00 0.  1.
          1   -1    0    0  501    0  0.00000000000E+00 -0.00000000000E+00 -0.50763798284E+02  0.50763798284E+02  0.00000000000E+00 0. -1.
         25    2    1    2    0    0  0.62501259783E+02  0.22126930263E+02  0.94295313917E+02  0.17003269935E+03  0.12499401627E+03 0.  0.
         23    2    1    2    0    0 -0.62501259783E+02 -0.22126930263E+02  0.23579858487E+03  0.26158879601E+03  0.91824381574E+02 0.  0.
          5    1    4    4  502    0 -0.16648428409E+02 -0.44427256030E+02  0.50943575035E+02  0.69773125802E+02  0.47000000000E+01 0. -1.
         -5    1    4    4    0  502 -0.45852831374E+02  0.22300325767E+02  0.18485500984E+03  0.19181567021E+03  0.47000000000E+01 0.  1.
          5    1    3    3  503    0  0.17421858995E+02  0.71747970643E+02  0.43845096207E+02  0.85998691407E+02  0.47000000000E+01 0. -1.
         -5    1    3    3    0  503  0.45079400788E+02 -0.49621040381E+02  0.50450217710E+02  0.84034007942E+02  0.47000000000E+01 0. -1.
<mgrwt>
<rscale>  0 0.13383317E+03</rscale>
<asrwt>0</asrwt>
<pdfrwt beam="1">  1        1 0.78098154E-02 0.14149033E+03</pdfrwt>
<pdfrwt beam="2">  1       -1 0.58593490E-01 0.14149033E+03</pdfrwt>
<totfact> 0.26479658E+03</totfact>
</mgrwt>
</event>
<event>
 8    1  0.3572165E-004  0.1404310E+03  0.7546771E-02  0.1224317E+00
         -3   -1    0    0    0  501 -0.00000000000E+00  0.00000000000E+00  0.62628777439E+02  0.62628777439E+02  0.00000000000E+00 0.  1.
          3   -1    0    0  501    0  0.00000000000E+00 -0.00000000000E+00 -0.25174037890E+03  0.25174037890E+03  0.00000000000E+00 0. -1.
         25    2    1    2    0    0  0.61051763313E+02 -0.19212015197E+02 -0.95064016753E+02  0.16958194752E+03  0.12499780123E+03 0.  0.
         23    2    1    2    0    0 -0.61051763313E+02  0.19212015197E+02 -0.94047584709E+02  0.14478720882E+03  0.89565441534E+02 0.  0.
          5    1    3    3  502    0  0.93490255633E+02 -0.38076213384E+02 -0.79941301273E+02  0.12885234795E+03  0.47000000000E+01 0.  1.
         -5    1    4    4    0  503 -0.14067998375E+02  0.37732500706E+02 -0.31111673531E+01  0.40662261990E+02  0.47000000000E+01 0.  1.
          5    1    4    4  503    0 -0.46983764938E+02 -0.18520485509E+02 -0.90936417355E+02  0.10412494683E+03  0.47000000000E+01 0. -1.
         -5    1    3    3    0  502 -0.32438492319E+02  0.18864198187E+02 -0.15122715480E+02  0.40729599564E+02  0.47000000000E+01 0.  1.
<mgrwt>
<rscale>  0 0.13213805E+03</rscale>
<asrwt>0</asrwt>
<pdfrwt beam="1">  1        3 0.38729289E-01 0.14043101E+03</pdfrwt>
<pdfrwt beam="2">  1       -3 0.96351965E-02 0.14043101E+03</pdfrwt>
<totfact> 0.12016655E+03</totfact>
</mgrwt>
</event>
<event>
 8    1  0.3572165E-004  0.2140296E+03  0.7546771E-02  0.1142029E+00
          2   -1    0    0  501    0  0.00000000000E+00  0.00000000000E+00  0.81874588832E+02  0.81874588832E+02  0.00000000000E+00 0. -1.
         -2   -1    0    0    0  501 -0.00000000000E+00 -0.00000000000E+00 -0.51443446048E+03  0.51443446048E+03  0.00000000000E+00 0.  1.
         25    2    1    2    0    0  0.45966151573E+02 -0.16754561471E+03 -0.23635568686E+03  0.31886152983E+03  0.12499697756E+03 0.  0.
         23    2    1    2    0    0 -0.45966151573E+02  0.16754561471E+03 -0.19620418479E+03  0.27744751947E+03  0.91085804794E+02 0.  0.
          5    1    3    3  502    0 -0.38587223326E+02 -0.19535285907E+02 -0.48336673895E+02  0.65031724895E+02  0.47000000000E+01 0. -1.
         -5    1    4    4    0  503 -0.56132872246E+02  0.44208098485E+02 -0.60663722589E+02  0.93847922495E+02  0.47000000000E+01 0.  1.
          5    1    4    4  503    0  0.10166720673E+02  0.12333751623E+03 -0.13554046220E+03  0.18359959698E+03  0.47000000000E+01 0. -1.
         -5    1    3    3    0  502  0.84553374899E+02 -0.14801032881E+03 -0.18801901296E+03  0.25382980494E+03  0.47000000000E+01 0. -1.
<mgrwt>
<rscale>  0 0.20941665E+03</rscale>
<asrwt>0</asrwt>
<pdfrwt beam="1">  1        2 0.12596090E-01 0.21402959E+03</pdfrwt>
<pdfrwt beam="2">  1       -2 0.79143764E-01 0.21402959E+03</pdfrwt>
<totfact> 0.69905432E+02</totfact>
</mgrwt>
</event>
<event>
 8    1  0.3572165E-004  0.1253752E+03  0.7546771E-02  0.1250112E+00
          2   -1    0    0  501    0  0.00000000000E+00  0.00000000000E+00  0.16634149383E+03  0.16634149383E+03  0.00000000000E+00 0. -1.
         -2   -1    0    0    0  501 -0.00000000000E+00 -0.00000000000E+00 -0.71988014708E+02  0.71988014708E+02  0.00000000000E+00 0.  1.
         25    2    1    2    0    0 -0.30733507805E+01  0.91312531313E+01  0.70677916644E+02  0.14392463914E+03  0.12500443425E+03 0.  0.
         23    2    1    2    0    0  0.30733507805E+01 -0.91312531313E+01  0.23675562479E+02  0.94404869401E+02  0.90878610460E+02 0.  0.
          5    1    3    3  502    0  0.57510594307E+02 -0.15508739105E+02  0.35797385902E+02  0.69652941672E+02  0.47000000000E+01 0. -1.
         -5    1    3    3    0  502 -0.60583945087E+02  0.24639992236E+02  0.34880530742E+02  0.74271697467E+02  0.47000000000E+01 0. -1.
          5    1    4    4  503    0  0.16972525997E+02  0.38019780598E+02  0.13136728209E+02  0.43911661133E+02  0.47000000000E+01 0. -1.
         -5    1    4    4    0  503 -0.13899175217E+02 -0.47151033729E+02  0.10538834270E+02  0.50493208268E+02  0.47000000000E+01 0.  1.
<mgrwt>
<rscale>  0 0.11584594E+03</rscale>
<asrwt>0</asrwt>
<pdfrwt beam="1">  1        2 0.25590999E-01 0.12537517E+03</pdfrwt>
<pdfrwt beam="2">  1       -2 0.11075079E-01 0.12537517E+03</pdfrwt>
<totfact> 0.11016562E+04</totfact>
</mgrwt>
</event>
<event>
 8    1  0.3572165E-004  0.1946011E+03  0.7546771E-02  0.1158817E+00
          3   -1    0    0  501    0  0.00000000000E+00  0.00000000000E+00  0.20751885448E+03  0.20751885448E+03  0.00000000000E+00 0. -1.
         -3   -1    0    0    0  501 -0.00000000000E+00 -0.00000000000E+00 -0.19090769045E+03  0.19090769045E+03  0.00000000000E+00 0.  1.
         25    2    1    2    0    0  0.12903835798E+03  0.74788083212E+02  0.82112220751E+02  0.21121554217E+03  0.12500173293E+03 0.  0.
         23    2    1    2    0    0 -0.12903835798E+03 -0.74788083212E+02 -0.65501056720E+02  0.18721100276E+03  0.92268173837E+02 0.  0.
          5    1    4    4  502    0 -0.55780937101E+02  0.72194845596E+01  0.47447115138E+01  0.56641294022E+02  0.47000000000E+01 0. -1.
         -5    1    3    3    0  503 -0.60001038841E+01  0.57575585099E+02  0.19131202115E+02  0.61147707565E+02  0.47000000000E+01 0. -1.
          5    1    3    3  503    0  0.13503846186E+03  0.17212498114E+02  0.62981018636E+02  0.15006783460E+03  0.47000000000E+01 0. -1.
         -5    1    4    4    0  502 -0.73257420878E+02 -0.82007567772E+02 -0.70245768234E+02  0.13056970874E+03  0.47000000000E+01 0.  1.
<mgrwt>
<rscale>  0 0.18960639E+03</rscale>
<asrwt>0</asrwt>
<pdfrwt beam="1">  1        3 0.31925978E-01 0.19460110E+03</pdfrwt>
<pdfrwt beam="2">  1       -3 0.29370414E-01 0.19460110E+03</pdfrwt>
<totfact> 0.25985474E+02</totfact>
</mgrwt>
</event>
<event>
 8    1  0.3572165E-004  0.2243463E+03  0.7546771E-02  0.1133611E+00
          2   -1    0    0  501    0  0.00000000000E+00  0.00000000000E+00  0.71490884505E+03  0.71490884505E+03  0.00000000000E+00 0. -1.
         -2   -1    0    0    0  501 -0.00000000000E+00 -0.00000000000E+00 -0.75442516324E+02  0.75442516324E+02  0.00000000000E+00 0.  1.
         25    2    1    2    0    0 -0.17882305858E+03  0.52233934433E+02  0.47219117437E+03  0.52277699645E+03  0.12500085068E+03 0.  0.
         23    2    1    2    0    0  0.17882305858E+03 -0.52233934433E+02  0.16727515435E+03  0.26757436492E+03  0.94387463768E+02 0.  0.
          5    1    4    4  502    0  0.55738533524E+02 -0.53897410651E+02  0.30361174718E+02  0.83400275326E+02  0.47000000000E+01 0. -1.
         -5    1    4    4    0  502  0.12308452505E+03  0.16634762180E+01  0.13691397963E+03  0.18417408960E+03  0.47000000000E+01 0.  1.
          5    1    3    3  503    0 -0.17384443980E+03  0.81851345161E+02  0.38254685554E+03  0.42811881369E+03  0.47000000000E+01 0. -1.
         -5    1    3    3    0  503 -0.49786187802E+01 -0.29617410728E+02  0.89644318831E+02  0.94658182752E+02  0.47000000000E+01 0. -1.
<mgrwt>
<rscale>  0 0.22036561E+03</rscale>
<asrwt>0</asrwt>
<pdfrwt beam="1">  1        2 0.10998597E+00 0.22434635E+03</pdfrwt>
<pdfrwt beam="2">  1       -2 0.11606541E-01 0.22434635E+03</pdfrwt>
<totfact> 0.21237990E+03</totfact>
</mgrwt>
</event>
<event>
 8    1  0.3572165E-004  0.1611040E+03  0.7546771E-02  0.1195306E+00
          4   -1    0    0  501    0  0.00000000000E+00  0.00000000000E+00  0.17106080741E+03  0.17106080741E+03  0.00000000000E+00 0. -1.
         -4   -1    0    0    0  501 -0.00000000000E+00 -0.00000000000E+00 -0.14872670944E+03  0.14872670944E+03  0.00000000000E+00 0.  1.
         25    2    1    2    0    0 -0.46602596895E+02  0.90323051552E+02  0.70663290802E+02  0.17591990045E+03  0.12499782009E+03 0.  0.
         23    2    1    2    0    0  0.46602596895E+02 -0.90323051552E+02 -0.48329192840E+02  0.14386761640E+03  0.89622120536E+02 0.  0.
          5    1    3    3  502    0  0.42799563085E+02  0.22988497581E+02  0.16782033016E+02  0.51613954058E+02  0.47000000000E+01 0.  1.
         -5    1    4    4    0  503 -0.10269111232E+02 -0.73530000800E+02 -0.37846141014E+02  0.83465777734E+02  0.47000000000E+01 0.  1.
          5    1    4    4  503    0  0.56871708126E+02 -0.16793050753E+02 -0.10483051825E+02  0.60401838667E+02  0.47000000000E+01 0. -1.
         -5    1    3    3    0  502 -0.89402159980E+02  0.67334553971E+02  0.53881257786E+02  0.12430594639E+03  0.47000000000E+01 0.  1.
<mgrwt>
<rscale>  0 0.15428381E+03</rscale>
<asrwt>0</asrwt>
<pdfrwt beam="1">  1        4 0.26317047E-01 0.16110404E+03</pdfrwt>
<pdfrwt beam="2">  1       -4 0.22881032E-01 0.16110404E+03</pdfrwt>
<totfact> 0.41195655E+02</totfact>
</mgrwt>
</event>
<event>
 8    1  0.3572165E-004  0.2735171E+03  0.7546771E-02  0.1101193E+00
         -2   -1    0    0    0  501 -0.00000000000E+00  0.00000000000E+00  0.61942197319E+02  0.61942197319E+02  0.00000000000E+00 0.  1.
          2   -1    0    0  501    0  0.00000000000E+00 -0.00000000000E+00 -0.18672158378E+04  0.18672158378E+04  0.00000000000E+00 0. -1.
         25    2    1    2    0    0 -0.18977188949E+02  0.24253652043E+03 -0.31874566507E+03  0.42001235273E+03  0.12500991962E+03 0.  0.
         23    2    1    2    0    0  0.18977188949E+02 -0.24253652043E+03 -0.14865279754E+04  0.15091456824E+04  0.92580621878E+02 0.  0.
          5    1    3    3  502    0  0.21205284964E+02  0.14883308521E+03 -0.26488212504E+03  0.30460725784E+03  0.47000000000E+01 0. -1.
         -5    1    3    3    0  502 -0.40182473913E+02  0.93703435221E+02 -0.53863540028E+02  0.11540509489E+03  0.47000000000E+01 0. -1.
          5    1    4    4  503    0 -0.29941137789E+02 -0.16913621880E+03 -0.95851737686E+03  0.97379730128E+03  0.47000000000E+01 0. -1.
         -5    1    4    4    0  503  0.48918326738E+02 -0.73400301635E+02 -0.52801059856E+03  0.53534838112E+03  0.47000000000E+01 0.  1.
<mgrwt>
<rscale>  0 0.27015076E+03</rscale>
<asrwt>0</asrwt>
<pdfrwt beam="1">  1        2 0.28726401E+00 0.27351705E+03</pdfrwt>
<pdfrwt beam="2">  1       -2 0.95295677E-02 0.27351705E+03</pdfrwt>
<totfact> 0.62615351E+02</totfact>
</mgrwt>
</event>
<event>
 8    1  0.3572165E-004  0.2114812E+03  0.7546771E-02  0.1144268E+00
         -2   -1    0    0    0  501 -0.00000000000E+00  0.00000000000E+00  0.72573078960E+03  0.72573078960E+03  0.00000000000E+00 0.  1.
          2   -1    0    0  501    0  0.00000000000E+00 -0.00000000000E+00 -0.56300438714E+02  0.56300438714E+02  0.00000000000E+00 0. -1.
         25    2    1    2    0    0 -0.15766861913E+03 -0.65107443551E+02  0.34244294956E+03  0.40248163240E+03  0.12500367215E+03 0.  0.
         23    2    1    2    0    0  0.15766861913E+03  0.65107443551E+02  0.32698740133E+03  0.37954959592E+03  0.89659146046E+02 0.  0.
          5    1    3    3  502    0 -0.15038580863E+03 -0.43967852753E+02  0.18104844839E+03  0.23947796178E+03  0.47000000000E+01 0.  1.
         -5    1    3    3    0  502 -0.72828105030E+01 -0.21139590799E+02  0.16139450117E+03  0.16300367062E+03  0.47000000000E+01 0.  1.
          5    1    4    4  503    0  0.91628564706E+02  0.40812444255E+00  0.10744449549E+03  0.14128825162E+03  0.47000000000E+01 0. -1.
         -5    1    4    4    0  503  0.66040054427E+02  0.64699319109E+02  0.21954290583E+03  0.23826134429E+03  0.47000000000E+01 0.  1.
<mgrwt>
<rscale>  0 0.20662356E+03</rscale>
<asrwt>0</asrwt>
<pdfrwt beam="1">  1        2 0.86616065E-02 0.21148118E+03</pdfrwt>
<pdfrwt beam="2">  1       -2 0.11165088E+00 0.21148118E+03</pdfrwt>
<totfact> 0.50523996E+02</totfact>
</mgrwt>
</event>
<event>
 8    1  0.3572165E-004  0.1310909E+03  0.7546771E-02  0.1239201E+00
          2   -1    0    0  501    0  0.00000000000E+00  0.00000000000E+00  0.46830056040E+03  0.46830056040E+03  0.00000000000E+00 0. -1.
         -2   -1    0    0    0  501 -0.00000000000E+00 -0.00000000000E+00 -0.29553644834E+02  0.29553644834E+02  0.00000000000E+00 0.  1.
         25    2    1    2    0    0  0.35550388462E+02 -0.17174804500E+02  0.19968827196E+03  0.23887281767E+03  0.12500405208E+03 0.  0.
         23    2    1    2    0    0 -0.35550388462E+02  0.17174804500E+02  0.23905864361E+03  0.25898138756E+03  0.91452282585E+02 0.  0.
          5    1    4    4  502    0 -0.42434821451E+02 -0.52031132722E+01  0.22910954698E+03  0.23311169206E+03  0.47000000000E+01 0. -1.
         -5    1    4    4    0  502  0.68844329884E+01  0.22377917772E+02  0.99490966268E+01  0.25869695497E+02  0.47000000000E+01 0.  1.
          5    1    3    3  503    0 -0.18567283222E+02 -0.44859904450E+02  0.27030669293E+02  0.55766496356E+02  0.47000000000E+01 0.  1.
         -5    1    3    3    0  503  0.54117671684E+02  0.27685099949E+02  0.17265760266E+03  0.18310632131E+03  0.47000000000E+01 0.  1.
<mgrwt>
<rscale>  0 0.12239284E+03</rscale>
<asrwt>0</asrwt>
<pdfrwt beam="1">  1        2 0.72046235E-01 0.13109087E+03</pdfrwt>
<pdfrwt beam="2">  1       -2 0.45467149E-02 0.13109087E+03</pdfrwt>
<totfact> 0.14299333E+04</totfact>
</mgrwt>
</event>
<event>
 8    1  0.3572165E-004  0.1685457E+03  0.7546771E-02  0.1185926E+00
         -1   -1    0    0    0  501 -0.00000000000E+00  0.00000000000E+00  0.60626042641E+02  0.60626042641E+02  0.00000000000E+00 0.  1.
          1   -1    0    0  501    0  0.00000000000E+00 -0.00000000000E+00 -0.40856332800E+03  0.40856332800E+03  0.00000000000E+00 0. -1.
         25    2    1    2    0    0 -0.10041923448E+03 -0.51947213700E+02 -0.17148123445E+03  0.24044429723E+03  0.12500044255E+03 0.  0.
         23    2    1    2    0    0  0.10041923448E+03  0.51947213700E+02 -0.17645605091E+03  0.22874507341E+03  0.91678978187E+02 0.  0.
          5    1    3    3  502    0 -0.26174876341E+00 -0.65033448240E+02 -0.48692880376E+02  0.81378771813E+02  0.47000000000E+01 0.  1.
         -5    1    3    3    0  502 -0.10015748572E+03  0.13086234541E+02 -0.12278835408E+03  0.15906552542E+03  0.47000000000E+01 0.  1.
          5    1    4    4  503    0  0.38989437394E+02  0.60495076834E+02 -0.13773941323E+03  0.15548011611E+03  0.47000000000E+01 0. -1.
         -5    1    4    4    0  503  0.61429797091E+02 -0.85478631340E+01 -0.38716637680E+02  0.73264957299E+02  0.47000000000E+01 0.  1.
<mgrwt>
<rscale>  0 0.16247942E+03</rscale>
<asrwt>0</asrwt>
<pdfrwt beam="1">  1        1 0.62855896E-01 0.16854568E+03</pdfrwt>
<pdfrwt beam="2">  1       -1 0.93270835E-02 0.16854568E+03</pdfrwt>
<totfact> 0.39094413E+03</totfact>
</mgrwt>
</event>
<event>
 8    1  0.3572165E-004  0.1659849E+03  0.7546771E-02  0.1188833E+00
         -2   -1    0    0    0  501 -0.00000000000E+00  0.00000000000E+00  0.36962465522E+02  0.36962465522E+02  0.00000000000E+00 0.  1.
          2   -1    0    0  501    0  0.00000000000E+00 -0.00000000000E+00 -0.68034372389E+03  0.68034372389E+03  0.00000000000E+00 0. -1.
         25    2    1    2    0    0  0.10699593258E+03  0.21844771650E+02 -0.26324584222E+03  0.31120628891E+03  0.12500262867E+03 0.  0.
         23    2    1    2    0    0 -0.10699593258E+03 -0.21844771650E+02 -0.38013541615E+03  0.40609990051E+03  0.92135069010E+02 0.  0.
          5    1    3    3  502    0  0.26624352098E+02  0.67823869465E+02 -0.12463217298E+03  0.14444445969E+03  0.47000000000E+01 0.  1.
         -5    1    3    3    0  502  0.80371580478E+02 -0.45979097814E+02 -0.13861366923E+03  0.16676182922E+03  0.47000000000E+01 0.  1.
          5    1    4    4  503    0 -0.83482196718E+02  0.25687053219E+02 -0.20069364037E+03  0.21892722342E+03  0.47000000000E+01 0. -1.
         -5    1    4    4    0  503 -0.23513735859E+02 -0.47531824870E+02 -0.17944177579E+03  0.18717267709E+03  0.47000000000E+01 0.  1.
<mgrwt>
<rscale>  0 0.15987955E+03</rscale>
<asrwt>0</asrwt>
<pdfrwt beam="1">  1        2 0.10466826E+00 0.16598488E+03</pdfrwt>
<pdfrwt beam="2">  1       -2 0.56865335E-02 0.16598488E+03</pdfrwt>
<totfact> 0.67984142E+03</totfact>
</mgrwt>
</event>
<event>
 8    1  0.3572165E-004  0.1314303E+03  0.7546771E-02  0.1239273E+00
         -2   -1    0    0    0  501 -0.00000000000E+00  0.00000000000E+00  0.22830966077E+02  0.22830966077E+02  0.00000000000E+00 0.  1.
          2   -1    0    0  501    0  0.00000000000E+00 -0.00000000000E+00 -0.85621728622E+03  0.85621728622E+03  0.00000000000E+00 0. -1.
         25    2    1    2    0    0  0.80215096894E+01  0.39829121922E+02 -0.20886477591E+03  0.24677603142E+03  0.12499284577E+03 0.  0.
         23    2    1    2    0    0 -0.80215096894E+01 -0.39829121922E+02 -0.62452154423E+03  0.63227222088E+03  0.89946086736E+02 0.  0.
          5    1    4    4  502    0  0.25167479504E+02 -0.55139703312E+02 -0.34255406064E+03  0.34790683145E+03  0.47000000000E+01 0. -1.
         -5    1    4    4    0  502 -0.33188989193E+02  0.15310581390E+02 -0.28196748359E+03  0.28436538943E+03  0.47000000000E+01 0.  1.
          5    1    3    3  503    0  0.19440943569E+02 -0.11262154306E+02  0.74767126899E+01  0.24140787873E+02  0.47000000000E+01 0.  1.
         -5    1    3    3    0  503 -0.11419433880E+02  0.51091276229E+02 -0.21634148860E+03  0.22263524354E+03  0.47000000000E+01 0.  1.
<mgrwt>
<rscale>  0 0.12234803E+03</rscale>
<asrwt>0</asrwt>
<pdfrwt beam="1">  1        2 0.13172575E+00 0.13143027E+03</pdfrwt>
<pdfrwt beam="2">  1       -2 0.35124558E-02 0.13143027E+03</pdfrwt>
<totfact> 0.10409260E+04</totfact>
</mgrwt>
</event>
<event>
 8    1  0.3572165E-004  0.1284386E+03  0.7546771E-02  0.1243665E+00
         -2   -1    0    0    0  501 -0.00000000000E+00  0.00000000000E+00  0.64511768723E+02  0.64511768723E+02  0.00000000000E+00 0.  1.
          2   -1    0    0  501    0  0.00000000000E+00 -0.00000000000E+00 -0.22038797600E+03  0.22038797600E+03  0.00000000000E+00 0. -1.
         25    2    1    2    0    0  0.80860570915E+01 -0.28340891050E+02 -0.41251732034E+02  0.13490058126E+03  0.12501148348E+03 0.  0.
         23    2    1    2    0    0 -0.80860570915E+01  0.28340891050E+02 -0.11462447524E+03  0.14999916347E+03  0.92154155042E+02 0.  0.
          5    1    3    3  502    0  0.50756772830E+02  0.25331695019E+02 -0.48511507383E+01  0.57127650259E+02  0.47000000000E+01 0. -1.
         -5    1    4    4    0  503 -0.25113454856E+02  0.24570291439E+01  0.51622591409E+01  0.26181320181E+02  0.47000000000E+01 0.  1.
          5    1    4    4  503    0  0.17027397764E+02  0.25883861907E+02 -0.11978673438E+03  0.12381784328E+03  0.47000000000E+01 0. -1.
         -5    1    3    3    0  502 -0.42670715739E+02 -0.53672586069E+02 -0.36400581296E+02  0.77772930996E+02  0.47000000000E+01 0. -1.
<mgrwt>
<rscale>  0 0.11965661E+03</rscale>
<asrwt>0</asrwt>
<pdfrwt beam="1">  1        2 0.33905842E-01 0.12843855E+03</pdfrwt>
<pdfrwt beam="2">  1       -2 0.99248876E-02 0.12843855E+03</pdfrwt>
<totfact> 0.96725936E+03</totfact>
</mgrwt>
</event>
<event>
 8    1  0.3572165E-004  0.1778450E+03  0.7546771E-02  0.1175693E+00
         -2   -1    0    0    0  501 -0.00000000000E+00  0.00000000000E+00  0.49199709051E+02  0.49199709051E+02  0.00000000000E+00 0. -1.
          2   -1    0    0  501    0  0.00000000000E+00 -0.00000000000E+00 -0.82228013462E+03  0.82228013462E+03  0.00000000000E+00 0.  1.
         25    2    1    2    0    0  0.96189449820E+02 -0.82172192669E+02 -0.64695547972E+03  0.67095472548E+03  0.12499668553E+03 0.  0.
         23    2    1    2    0    0 -0.96189449820E+02  0.82172192669E+02 -0.12612494584E+03  0.20052511819E+03  0.91094135687E+02 0.  0.
          5    1    4    4  502    0 -0.58020924752E+02 -0.35844804384E+01 -0.28148864992E+02  0.64758974740E+02  0.47000000000E+01 0. -1.
         -5    1    3    3    0  503  0.88875233401E+02 -0.11160688713E+03 -0.46462287799E+03  0.48605700604E+03  0.47000000000E+01 0. -1.
          5    1    3    3  503    0  0.73142164191E+01  0.29434694458E+02 -0.18233260173E+03  0.18489771944E+03  0.47000000000E+01 0. -1.
         -5    1    4    4    0  502 -0.38168525068E+02  0.85756673108E+02 -0.97976080852E+02  0.13576614345E+03  0.47000000000E+01 0.  1.
<mgrwt>
<rscale>  0 0.17208316E+03</rscale>
<asrwt>0</asrwt>
<pdfrwt beam="1">  1        2 0.12650463E+00 0.17784502E+03</pdfrwt>
<pdfrwt beam="2">  1       -2 0.75691861E-02 0.17784502E+03</pdfrwt>
<totfact> 0.34848954E+03</totfact>
</mgrwt>
</event>
<event>
 8    1  0.3572165E-004  0.1273088E+03  0.7546771E-02  0.1245742E+00
          1   -1    0    0  501    0  0.00000000000E+00  0.00000000000E+00  0.43160004171E+03  0.43160004171E+03  0.00000000000E+00 0. -1.
         -1   -1    0    0    0  501 -0.00000000000E+00 -0.00000000000E+00 -0.46667953367E+02  0.46667953367E+02  0.00000000000E+00 0.  1.
         25    2    1    2    0    0  0.15353184424E+02 -0.18633857291E+02  0.62057063223E+02  0.14162843359E+03  0.12499837277E+03 0.  0.
         23    2    1    2    0    0 -0.15353184424E+02  0.18633857291E+02  0.32287502512E+03  0.33663956148E+03  0.92168170231E+02 0.  0.
          5    1    3    3  502    0  0.39277687213E+02 -0.16643260145E+02  0.92857422360E+02  0.10229528683E+03  0.47000000000E+01 0.  1.
         -5    1    3    3    0  502 -0.23924502789E+02 -0.19905971462E+01 -0.30800359136E+02  0.39333146755E+02  0.47000000000E+01 0.  1.
          5    1    4    4  503    0 -0.44570184556E+02  0.38824414090E+02  0.21054626948E+03  0.21873650375E+03  0.47000000000E+01 0. -1.
         -5    1    4    4    0  503  0.29217000132E+02 -0.20190556799E+02  0.11232875563E+03  0.11790305773E+03  0.47000000000E+01 0.  1.
<mgrwt>
<rscale>  0 0.11841101E+03</rscale>
<asrwt>0</asrwt>
<pdfrwt beam="1">  1        1 0.66400004E-01 0.12730881E+03</pdfrwt>
<pdfrwt beam="2">  1       -1 0.71796854E-02 0.12730881E+03</pdfrwt>
<totfact> 0.53416292E+03</totfact>
</mgrwt>
</event>
<event>
 8    1  0.3572165E-004  0.4964073E+03  0.7546771E-02  0.1015215E+00
          1   -1    0    0  501    0  0.00000000000E+00  0.00000000000E+00  0.26265410344E+03  0.26265410344E+03  0.00000000000E+00 0. -1.
         -1   -1    0    0    0  501 -0.00000000000E+00 -0.00000000000E+00 -0.92557622164E+03  0.92557622164E+03  0.00000000000E+00 0.  1.
         25    2    1    2    0    0 -0.20727787426E+03 -0.43339433096E+03 -0.31089589349E+03  0.58572733095E+03  0.12500194546E+03 0.  0.
         23    2    1    2    0    0  0.20727787426E+03  0.43339433096E+03 -0.35202622472E+03  0.60250299414E+03  0.91063888520E+02 0.  0.
          5    1    3    3  502    0 -0.13662824488E+03 -0.17147686867E+03 -0.95013142279E+02  0.23900037865E+03  0.47000000000E+01 0.  1.
         -5    1    3    3    0  502 -0.70649629385E+02 -0.26191746229E+03 -0.21588275121E+03  0.34672695230E+03  0.47000000000E+01 0.  1.
          5    1    4    4  503    0  0.17717741750E+03  0.34712314049E+03 -0.32393268804E+03  0.50679462144E+03  0.47000000000E+01 0. -1.
         -5    1    4    4    0  503  0.30100456760E+02  0.86271190467E+02 -0.28093536671E+02  0.95708372698E+02  0.47000000000E+01 0.  1.
<mgrwt>
<rscale>  0 0.49453637E+03</rscale>
<asrwt>0</asrwt>
<pdfrwt beam="1">  1        1 0.40408323E-01 0.49640734E+03</pdfrwt>
<pdfrwt beam="2">  1       -1 0.14239634E+00 0.49640734E+03</pdfrwt>
<totfact> 0.43744515E+01</totfact>
</mgrwt>
</event>
<event>
 8    1  0.3572165E-004  0.2156620E+03  0.7546771E-02  0.1140589E+00
         -2   -1    0    0    0  501 -0.00000000000E+00  0.00000000000E+00  0.10665499576E+03  0.10665499576E+03  0.00000000000E+00 0.  1.
          2   -1    0    0  501    0  0.00000000000E+00 -0.00000000000E+00 -0.52015759856E+03  0.52015759856E+03  0.00000000000E+00 0. -1.
         25    2    1    2    0    0 -0.17203996253E+03  0.35874521808E+02 -0.36259462830E+03  0.42188266620E+03  0.12500155818E+03 0.  0.
         23    2    1    2    0    0  0.17203996253E+03 -0.35874521808E+02 -0.50907974491E+02  0.20492992812E+03  0.92303431952E+02 0.  0.
          5    1    4    4  502    0  0.57836445161E+02 -0.31247140133E+02  0.21762087452E+02  0.69405450835E+02  0.47000000000E+01 0. -1.
         -5    1    4    4    0  502  0.11420351737E+03 -0.46273816756E+01 -0.72670061942E+02  0.13552447728E+03  0.47000000000E+01 0.  1.
          5    1    3    3  503    0 -0.10685207655E+03  0.82729414782E+02 -0.22407693793E+03  0.26171374906E+03  0.47000000000E+01 0. -1.
         -5    1    3    3    0  503 -0.65187885974E+02 -0.46854892974E+02 -0.13851769038E+03  0.16016891715E+03  0.47000000000E+01 0. -1.
<mgrwt>
<rscale>  0 0.21123882E+03</rscale>
<asrwt>0</asrwt>
<pdfrwt beam="1">  1        2 0.80024246E-01 0.21566205E+03</pdfrwt>
<pdfrwt beam="2">  1       -2 0.16408461E-01 0.21566205E+03</pdfrwt>
<totfact> 0.17443838E+03</totfact>
</mgrwt>
</event>
<event>
 8    1  0.3572165E-004  0.1265522E+03  0.7546771E-02  0.1247387E+00
         -1   -1    0    0    0  501 -0.00000000000E+00  0.00000000000E+00  0.60872983332E+03  0.60872983332E+03  0.00000000000E+00 0.  1.
          1   -1    0    0  501    0  0.00000000000E+00 -0.00000000000E+00 -0.23210153889E+02  0.23210153889E+02  0.00000000000E+00 0. -1.
         25    2    1    2    0    0 -0.29326683359E+01 -0.19531446688E+02  0.21279298121E+03  0.24758092617E+03  0.12500153679E+03 0.  0.
         23    2    1    2    0    0  0.29326683359E+01  0.19531446688E+02  0.37272669822E+03  0.38435906104E+03  0.91742129261E+02 0.  0.
          5    1    3    3  502    0  0.25494391484E+02 -0.56618278941E+02  0.55458399379E+02  0.83386555086E+02  0.47000000000E+01 0.  1.
         -5    1    3    3    0  502 -0.28427059820E+02  0.37086832253E+02  0.15733458183E+03  0.16419437109E+03  0.47000000000E+01 0.  1.
          5    1    4    4  503    0  0.21656697935E+02  0.44257827136E+02  0.12170463531E+03  0.13138445907E+03  0.47000000000E+01 0. -1.
         -5    1    4    4    0  503 -0.18724029599E+02 -0.24726380447E+02  0.25102206291E+03  0.25297460197E+03  0.47000000000E+01 0.  1.
<mgrwt>
<rscale>  0 0.11743672E+03</rscale>
<asrwt>0</asrwt>
<pdfrwt beam="1">  1        1 0.35707934E-02 0.12655221E+03</pdfrwt>
<pdfrwt beam="2">  1       -1 0.93650732E-01 0.12655221E+03</pdfrwt>
<totfact> 0.29821640E+03</totfact>
</mgrwt>
</event>
<event>
 8    1  0.3572165E-004  0.1306522E+03  0.7546771E-02  0.1238314E+00
          2   -1    0    0  501    0  0.00000000000E+00  0.00000000000E+00  0.79468310349E+02  0.79468310349E+02  0.00000000000E+00 0. -1.
         -2   -1    0    0    0  501 -0.00000000000E+00 -0.00000000000E+00 -0.18551667314E+03  0.18551667314E+03  0.00000000000E+00 0.  1.
         25    2    1    2    0    0 -0.32423413932E+02  0.19830633725E+02 -0.95822756326E+02  0.16202465242E+03  0.12500182221E+03 0.  0.
         23    2    1    2    0    0  0.32423413932E+02 -0.19830633725E+02 -0.10225606465E+02  0.10296033107E+03  0.95140606165E+02 0.  0.
          5    1    4    4  502    0  0.64165871070E+02 -0.63005307797E+01  0.52372706686E+01  0.64857341160E+02  0.47000000000E+01 0. -1.
         -5    1    3    3    0  503 -0.59162475962E+02  0.33138809790E+01  0.16890275928E+01  0.59465310756E+02  0.47000000000E+01 0. -1.
          5    1    3    3  503    0  0.26739062030E+02  0.16516752746E+02 -0.97511783918E+02  0.10255934166E+03  0.47000000000E+01 0. -1.
         -5    1    4    4    0  502 -0.31742457138E+02 -0.13530102945E+02 -0.15462877134E+02  0.38102989910E+02  0.47000000000E+01 0.  1.
<mgrwt>
<rscale>  0 0.12294668E+03</rscale>
<asrwt>0</asrwt>
<pdfrwt beam="1">  1        2 0.12225894E-01 0.13065216E+03</pdfrwt>
<pdfrwt beam="2">  1       -2 0.28541026E-01 0.13065216E+03</pdfrwt>
<totfact> 0.53033691E+03</totfact>
</mgrwt>
</event>
<event>
 8    1  0.3572165E-004  0.3398814E+03  0.7546771E-02  0.1068032E+00
         -1   -1    0    0    0  501 -0.00000000000E+00  0.00000000000E+00  0.66234963033E+03  0.66234963033E+03  0.00000000000E+00 0.  1.
          1   -1    0    0  501    0  0.00000000000E+00 -0.00000000000E+00 -0.17103486504E+03  0.17103486504E+03  0.00000000000E+00 0. -1.
         25    2    1    2    0    0  0.31149286632E+03  0.53535390420E+02  0.29682243431E+03  0.45124594337E+03  0.12500200039E+03 0.  0.
         23    2    1    2    0    0 -0.31149286632E+03 -0.53535390420E+02  0.19449233097E+03  0.38213855200E+03  0.91152412601E+02 0.  0.
          5    1    3    3  502    0  0.27994084264E+03  0.79423202771E+02  0.28756292660E+03  0.40913255465E+03  0.47000000000E+01 0. -1.
         -5    1    4    4    0  503 -0.27519242984E+02  0.11819785940E+02  0.45900382931E+02  0.55008646841E+02  0.47000000000E+01 0.  1.
          5    1    4    4  503    0 -0.28397362333E+03 -0.65355176359E+02  0.14859194804E+03  0.32712990516E+03  0.47000000000E+01 0. -1.
         -5    1    3    3    0  502  0.31552023675E+02 -0.25887812352E+02  0.92595077094E+01  0.42113388719E+02  0.47000000000E+01 0. -1.
<mgrwt>
<rscale>  0 0.33711279E+03</rscale>
<asrwt>0</asrwt>
<pdfrwt beam="1">  1        1 0.26313056E-01 0.33988137E+03</pdfrwt>
<pdfrwt beam="2">  1       -1 0.10189994E+00 0.33988137E+03</pdfrwt>
<totfact> 0.17303520E+02</totfact>
</mgrwt>
</event>
<event>
 8    1  0.3572165E-004  0.2165300E+03  0.7546771E-02  0.1139939E+00
          1   -1    0    0  501    0  0.00000000000E+00  0.00000000000E+00  0.22852752047E+03  0.22852752047E+03  0.00000000000E+00 0. -1.
         -1   -1    0    0    0  501 -0.00000000000E+00 -0.00000000000E+00 -0.19053790715E+03  0.19053790715E+03  0.00000000000E+00 0.  1.
         25    2    1    2    0    0  0.91253887267E+02 -0.15142280665E+03  0.38015461054E+02  0.21984178815E+03  0.12501639181E+03 0.  0.
         23    2    1    2    0    0 -0.91253887267E+02  0.15142280665E+03 -0.25847734739E-01  0.19922363947E+03  0.91836373736E+02 0.  0.
          5    1    3    3  502    0  0.87572862343E+02 -0.53795803443E+02  0.60674089426E+02  0.11944216096E+03  0.47000000000E+01 0.  1.
         -5    1    4    4    0  503 -0.30734999001E+02  0.29688783975E+02 -0.38658417274E+02  0.57815458864E+02  0.47000000000E+01 0.  1.
          5    1    4    4  503    0 -0.60518888266E+02  0.12173402267E+03  0.38632569539E+02  0.14140818061E+03  0.47000000000E+01 0. -1.
         -5    1    3    3    0  502  0.36810249232E+01 -0.97627003206E+02 -0.22658628372E+02  0.10039962719E+03  0.47000000000E+01 0.  1.
<mgrwt>
<rscale>  0 0.21206732E+03</rscale>
<asrwt>0</asrwt>
<pdfrwt beam="1">  1        1 0.35158080E-01 0.21652999E+03</pdfrwt>
<pdfrwt beam="2">  1       -1 0.29313524E-01 0.21652999E+03</pdfrwt>
<totfact> 0.13105256E+03</totfact>
</mgrwt>
</event>
<event>
 8    1  0.3572165E-004  0.1334828E+03  0.7546771E-02  0.1234477E+00
         -1   -1    0    0    0  501 -0.00000000000E+00  0.00000000000E+00  0.25937500903E+03  0.25937500903E+03  0.00000000000E+00 0.  1.
          1   -1    0    0  501    0  0.00000000000E+00 -0.00000000000E+00 -0.85897904996E+02  0.85897904996E+02  0.00000000000E+00 0. -1.
         25    2    1    2    0    0 -0.46368906973E+02 -0.64576341260E+01  0.19773629291E+03  0.23857346696E+03  0.12500352407E+03 0.  0.
         23    2    1    2    0    0  0.46368906973E+02  0.64576341260E+01 -0.24259188876E+02  0.10669944707E+03  0.92760375093E+02 0.  0.
          5    1    3    3  502    0 -0.60697447644E+02 -0.49011770014E+02  0.16572319971E+03  0.18322828022E+03  0.47000000000E+01 0.  1.
         -5    1    4    4    0  503  0.35092392938E+02  0.42967270408E+02  0.82842181862E+01  0.56288370374E+02  0.47000000000E+01 0.  1.
          5    1    4    4  503    0  0.11276514035E+02 -0.36509636282E+02 -0.32543407062E+02  0.50411076694E+02  0.47000000000E+01 0. -1.
         -5    1    3    3    0  502  0.14328540670E+02  0.42554135888E+02  0.32013093206E+02  0.55345186742E+02  0.47000000000E+01 0.  1.
<mgrwt>
<rscale>  0 0.12537997E+03</rscale>
<asrwt>0</asrwt>
<pdfrwt beam="1">  1        1 0.13215062E-01 0.13348280E+03</pdfrwt>
<pdfrwt beam="2">  1       -1 0.39903847E-01 0.13348280E+03</pdfrwt>
<totfact> 0.26430717E+03</totfact>
</mgrwt>
</event>
<event>
 8    1  0.3572165E-004  0.1520361E+03  0.7546771E-02  0.1206825E+00
          2   -1    0    0  501    0  0.00000000000E+00  0.00000000000E+00  0.33716671397E+03  0.33716671397E+03  0.00000000000E+00 0. -1.
         -2   -1    0    0    0  501 -0.00000000000E+00 -0.00000000000E+00 -0.57156809825E+02  0.57156809825E+02  0.00000000000E+00 0.  1.
         25    2    1    2    0    0  0.86534165361E+02 -0.93746826302E+00  0.15493031139E+03  0.21706770880E+03  0.12500379272E+03 0.  0.
         23    2    1    2    0    0 -0.86534165361E+02  0.93746826302E+00  0.12507959275E+03  0.17725581500E+03  0.91025704090E+02 0.  0.
          5    1    4    4  502    0 -0.77514510435E+02  0.21785241450E+02  0.13052028093E+03  0.15342988564E+03  0.47000000000E+01 0. -1.
         -5    1    4    4    0  502 -0.90196549263E+01 -0.20847773187E+02 -0.54406881782E+01  0.23825929356E+02  0.47000000000E+01 0.  1.
          5    1    3    3  503    0 -0.21294224429E+02  0.15848294316E+01  0.86561149632E+02  0.89279775447E+02  0.47000000000E+01 0. -1.
         -5    1    3    3    0  503  0.10782838979E+03 -0.25222976946E+01  0.68369161760E+02  0.12778793335E+03  0.47000000000E+01 0. -1.
<mgrwt>
<rscale>  0 0.14494570E+03</rscale>
<asrwt>0</asrwt>
<pdfrwt beam="1">  1        2 0.51871801E-01 0.15203614E+03</pdfrwt>
<pdfrwt beam="2">  1       -2 0.87933556E-02 0.15203614E+03</pdfrwt>
<totfact> 0.75230689E+03</totfact>
</mgrwt>
</event>
<event>
 8    1  0.3572165E-004  0.1369209E+03  0.7546771E-02  0.1233350E+00
          1   -1    0    0  501    0  0.00000000000E+00  0.00000000000E+00  0.10865883162E+04  0.10865883162E+04  0.00000000000E+00 0. -1.
         -1   -1    0    0    0  501 -0.00000000000E+00 -0.00000000000E+00 -0.14566131113E+02  0.14566131113E+02  0.00000000000E+00 0.  1.
         25    2    1    2    0    0 -0.41744963224E+02  0.37140721674E+02  0.42063880104E+03  0.44236220501E+03  0.12500097725E+03 0.  0.
         23    2    1    2    0    0  0.41744963224E+02 -0.37140721674E+02  0.65138338403E+03  0.65879224229E+03  0.81146967622E+02 0.  0.
          5    1    3    3  502    0 -0.27139766964E+02 -0.43138243769E+02  0.11298595440E+03  0.12403786082E+03  0.47000000000E+01 0.  1.
         -5    1    4    4    0  503  0.15701661340E+02 -0.60788375914E+02  0.40415052495E+03  0.40902506724E+03  0.47000000000E+01 0.  1.
          5    1    4    4  503    0  0.26043301884E+02  0.23647654240E+02  0.24723285908E+03  0.24976717505E+03  0.47000000000E+01 0. -1.
         -5    1    3    3    0  502 -0.14605196260E+02  0.80278965442E+02  0.30765284664E+03  0.31832434418E+03  0.47000000000E+01 0.  1.
<mgrwt>
<rscale>  0 0.12610645E+03</rscale>
<asrwt>0</asrwt>
<pdfrwt beam="1">  1        1 0.16716737E+00 0.13692085E+03</pdfrwt>
<pdfrwt beam="2">  1       -1 0.22409441E-02 0.13692085E+03</pdfrwt>
<totfact> 0.77707460E+03</totfact>
</mgrwt>
</event>
<event>
 8    1  0.3572165E-004  0.2861137E+03  0.7546771E-02  0.1094164E+00
          2   -1    0    0  501    0  0.00000000000E+00  0.00000000000E+00  0.10414341391E+04  0.10414341391E+04  0.00000000000E+00 0. -1.
         -2   -1    0    0    0  501 -0.00000000000E+00 -0.00000000000E+00 -0.75079461588E+02  0.75079461588E+02  0.00000000000E+00 0.  1.
         25    2    1    2    0    0 -0.22092641383E+03 -0.13201284664E+03  0.49791375065E+03  0.57426400048E+03  0.12500066860E+03 0.  0.
         23    2    1    2    0    0  0.22092641383E+03  0.13201284664E+03  0.46844092688E+03  0.54224960023E+03  0.91443178898E+02 0.  0.
          5    1    4    4  502    0  0.55726647565E+02  0.18439777887E+02  0.19137634506E+03  0.20023106679E+03  0.47000000000E+01 0. -1.
         -5    1    3    3    0  503 -0.18293008583E+03 -0.13436375662E+03  0.48189971134E+03  0.53269734108E+03  0.47000000000E+01 0. -1.
          5    1    3    3  503    0 -0.37996327997E+02  0.23509099778E+01  0.16014039310E+02  0.41566659404E+02  0.47000000000E+01 0. -1.
         -5    1    4    4    0  502  0.16519976626E+03  0.11357306876E+03  0.27706458182E+03  0.34201853344E+03  0.47000000000E+01 0.  1.
<mgrwt>
<rscale>  0 0.28280994E+03</rscale>
<asrwt>0</asrwt>
<pdfrwt beam="1">  1        2 0.16022063E+00 0.28611368E+03</pdfrwt>
<pdfrwt beam="2">  1       -2 0.11550687E-01 0.28611368E+03</pdfrwt>
<totfact> 0.13033815E+03</totfact>
</mgrwt>
</event>
<event>
 8    1  0.3572165E-004  0.1263167E+03  0.7546771E-02  0.1247383E+00
         -1   -1    0    0    0  501 -0.00000000000E+00  0.00000000000E+00  0.95950427133E+02  0.95950427133E+02  0.00000000000E+00 0.  1.
          1   -1    0    0  501    0  0.00000000000E+00 -0.00000000000E+00 -0.14813780228E+03  0.14813780228E+03  0.00000000000E+00 0. -1.
         25    2    1    2    0    0 -0.17153800771E+02  0.59595533449E+01 -0.75119280358E+02  0.14696533744E+03  0.12500453980E+03 0.  0.
         23    2    1    2    0    0  0.17153800771E+02 -0.59595533449E+01  0.22931905207E+02  0.97122891979E+02  0.92613253442E+02 0.  0.
          5    1    4    4  502    0  0.83896849543E+01  0.20856215935E+02 -0.29507097715E+02  0.37391541454E+02  0.47000000000E+01 0. -1.
         -5    1    3    3    0  503 -0.45003315549E+02 -0.47375859284E+02 -0.32879551731E+02  0.73300241305E+02  0.47000000000E+01 0.  1.
          5    1    3    3  503    0  0.27849514779E+02  0.53335412629E+02 -0.42239728628E+02  0.73665096133E+02  0.47000000000E+01 0.  1.
         -5    1    4    4    0  502  0.87641158162E+01 -0.26815769280E+02  0.52439002922E+02  0.59731350525E+02  0.47000000000E+01 0.  1.
<mgrwt>
<rscale>  0 0.11743887E+03</rscale>
<asrwt>0</asrwt>
<pdfrwt beam="1">  1        1 0.22790431E-01 0.12631668E+03</pdfrwt>
<pdfrwt beam="2">  1       -1 0.14761604E-01 0.12631668E+03</pdfrwt>
<totfact> 0.67114800E+03</totfact>
</mgrwt>
</event>
<event>
 8    1  0.3572165E-004  0.1584504E+03  0.7546771E-02  0.1197971E+00
          2   -1    0    0  501    0  0.00000000000E+00  0.00000000000E+00  0.41335781293E+03  0.41335781293E+03  0.00000000000E+00 0. -1.
         -2   -1    0    0    0  501 -0.00000000000E+00 -0.00000000000E+00 -0.52064271183E+02  0.52064271183E+02  0.00000000000E+00 0.  1.
         25    2    1    2    0    0  0.94908805468E+02  0.21774118667E+02  0.20998438316E+03  0.26305885147E+03  0.12499889825E+03 0.  0.
         23    2    1    2    0    0 -0.94908805468E+02 -0.21774118667E+02  0.15130915859E+03  0.20236323265E+03  0.92599259480E+02 0.  0.
          5    1    3    3  502    0  0.11525668688E+03  0.44943203643E+02  0.14283370973E+03  0.18901733798E+03  0.47000000000E+01 0. -1.
         -5    1    3    3    0  502 -0.20347881408E+02 -0.23169084976E+02  0.67150673435E+02  0.74041513486E+02  0.47000000000E+01 0. -1.
          5    1    4    4  503    0 -0.66019132431E+01 -0.33733492518E+02  0.83075452695E+02  0.90028632204E+02  0.47000000000E+01 0. -1.
         -5    1    4    4    0  503 -0.88306892225E+02  0.11959373851E+02  0.68233705895E+02  0.11233460045E+03  0.47000000000E+01 0.  1.
<mgrwt>
<rscale>  0 0.15205436E+03</rscale>
<asrwt>0</asrwt>
<pdfrwt beam="1">  1        2 0.63593508E-01 0.15845036E+03</pdfrwt>
<pdfrwt beam="2">  1       -2 0.80098881E-02 0.15845036E+03</pdfrwt>
<totfact> 0.70117282E+03</totfact>
</mgrwt>
</event>
<event>
 8    1  0.3572165E-004  0.1703156E+03  0.7546771E-02  0.1184062E+00
          2   -1    0    0  501    0  0.00000000000E+00  0.00000000000E+00  0.27505445503E+02  0.27505445503E+02  0.00000000000E+00 0. -1.
         -2   -1    0    0    0  501 -0.00000000000E+00 -0.00000000000E+00 -0.91724890339E+03  0.91724890339E+03  0.00000000000E+00 0.  1.
         25    2    1    2    0    0 -0.11517414891E+03 -0.10804687672E+02 -0.45667899360E+03  0.48740446287E+03  0.12500232549E+03 0.  0.
         23    2    1    2    0    0  0.11517414891E+03  0.10804687672E+02 -0.43306446429E+03  0.45734988602E+03  0.90786905225E+02 0.  0.
          5    1    3    3  502    0 -0.95187064832E+02  0.94657872501E+01 -0.44673635255E+03  0.45688689753E+03  0.47000000000E+01 0. -1.
         -5    1    4    4    0  503  0.12130549286E+01 -0.25083467071E+02 -0.51498703907E+02  0.57487897219E+02  0.47000000000E+01 0.  1.
          5    1    4    4  503    0  0.11396109399E+03  0.35888154743E+02 -0.38156576039E+03  0.39986198881E+03  0.47000000000E+01 0. -1.
         -5    1    3    3    0  502 -0.19987084082E+02 -0.20270474922E+02 -0.99426410481E+01  0.30517565347E+02  0.47000000000E+01 0. -1.
<mgrwt>
<rscale>  0 0.16417539E+03</rscale>
<asrwt>0</asrwt>
<pdfrwt beam="1">  1        2 0.42316075E-02 0.17031561E+03</pdfrwt>
<pdfrwt beam="2">  1       -2 0.14111520E+00 0.17031561E+03</pdfrwt>
<totfact> 0.71686411E+02</totfact>
</mgrwt>
</event>
<event>
 8    1  0.3572165E-004  0.1355731E+03  0.7546771E-02  0.1232432E+00
         -2   -1    0    0    0  501 -0.00000000000E+00  0.00000000000E+00  0.37815397422E+02  0.37815397422E+02  0.00000000000E+00 0.  1.
          2   -1    0    0  501    0  0.00000000000E+00 -0.00000000000E+00 -0.41408055534E+03  0.41408055534E+03  0.00000000000E+00 0. -1.
         25    2    1    2    0    0 -0.42921393537E+02 -0.30253593536E+02 -0.27769977995E+03  0.30902624614E+03  0.12499010790E+03 0.  0.
         23    2    1    2    0    0  0.42921393537E+02  0.30253593536E+02 -0.98565377971E+02  0.14286970663E+03  0.89101590287E+02 0.  0.
          5    1    3    3  502    0  0.37421603503E+02 -0.38570201853E+02 -0.12695091447E+03  0.13793716527E+03  0.47000000000E+01 0.  1.
         -5    1    3    3    0  502 -0.80342997040E+02  0.83166083165E+01 -0.15074886548E+03  0.17108908086E+03  0.47000000000E+01 0.  1.
          5    1    4    4  503    0 -0.62549534363E+01  0.25187005010E+02 -0.88307304940E+02  0.92161704464E+02  0.47000000000E+01 0. -1.
         -5    1    4    4    0  503  0.49176346973E+02  0.50665885262E+01 -0.10258073030E+02  0.50708002161E+02  0.47000000000E+01 0.  1.
<mgrwt>
<rscale>  0 0.12670269E+03</rscale>
<asrwt>0</asrwt>
<pdfrwt beam="1">  1        2 0.63704705E-01 0.13557305E+03</pdfrwt>
<pdfrwt beam="2">  1       -2 0.58177531E-02 0.13557305E+03</pdfrwt>
<totfact> 0.11301957E+04</totfact>
</mgrwt>
</event>
<event>
 8    1  0.3572165E-004  0.1260378E+03  0.7546771E-02  0.1248426E+00
          1   -1    0    0  501    0  0.00000000000E+00  0.00000000000E+00  0.15381257335E+03  0.15381257335E+03  0.00000000000E+00 0. -1.
         -1   -1    0    0    0  501 -0.00000000000E+00 -0.00000000000E+00 -0.79319198293E+02  0.79319198293E+02  0.00000000000E+00 0.  1.
         25    2    1    2    0    0 -0.10589218060E+02  0.12209376135E+02  0.27947326460E+02  0.12909910433E+03  0.12499730108E+03 0.  0.
         23    2    1    2    0    0  0.10589218060E+02 -0.12209376135E+02  0.46546048599E+02  0.10403266732E+03  0.91624564527E+02 0.  0.
          5    1    3    3  502    0 -0.55061649660E+02 -0.29912623493E+02  0.24892687667E+02  0.67589098284E+02  0.47000000000E+01 0.  1.
         -5    1    4    4    0  503 -0.24337539231E+01 -0.44185525352E+02  0.52348919801E+02  0.68707955967E+02  0.47000000000E+01 0.  1.
          5    1    4    4  503    0  0.13022971983E+02  0.31976149217E+02 -0.58028712020E+01  0.35324711353E+02  0.47000000000E+01 0. -1.
         -5    1    3    3    0  502  0.44472431601E+02  0.42121999628E+02  0.30546387933E+01  0.61510006042E+02  0.47000000000E+01 0.  1.
<mgrwt>
<rscale>  0 0.11682664E+03</rscale>
<asrwt>0</asrwt>
<pdfrwt beam="1">  1        1 0.23663473E-01 0.12603779E+03</pdfrwt>
<pdfrwt beam="2">  1       -1 0.12202954E-01 0.12603779E+03</pdfrwt>
<totfact> 0.85999049E+03</totfact>
</mgrwt>
</event>
<event>
 8    1  0.3572165E-004  0.1357311E+03  0.7546771E-02  0.1231455E+00
         -2   -1    0    0    0  501 -0.00000000000E+00  0.00000000000E+00  0.36627657432E+02  0.36627657432E+02  0.00000000000E+00 0.  1.
          2   -1    0    0  501    0  0.00000000000E+00 -0.00000000000E+00 -0.42287346670E+03  0.42287346670E+03  0.00000000000E+00 0. -1.
         25    2    1    2    0    0 -0.32013564100E+02 -0.42136464539E+02 -0.15866453065E+03  0.20879978888E+03  0.12499027410E+03 0.  0.
         23    2    1    2    0    0  0.32013564100E+02  0.42136464539E+02 -0.22758127861E+03  0.25070133525E+03  0.90871179091E+02 0.  0.
          5    1    4    4  502    0 -0.64875686557E+01  0.52795282923E+02 -0.18310731608E+03  0.19073491985E+03  0.47000000000E+01 0. -1.
         -5    1    3    3    0  503 -0.58645343731E+02 -0.36228736110E+02 -0.16630234137E+03  0.18008430361E+03  0.47000000000E+01 0.  1.
          5    1    3    3  503    0  0.26631779630E+02 -0.59077284288E+01  0.76378107229E+01  0.28715485267E+02  0.47000000000E+01 0.  1.
         -5    1    4    4    0  502  0.38501132756E+02 -0.10658818384E+02 -0.44473962530E+02  0.59966415401E+02  0.47000000000E+01 0.  1.
<mgrwt>
<rscale>  0 0.12734110E+03</rscale>
<asrwt>0</asrwt>
<pdfrwt beam="1">  1        2 0.65057460E-01 0.13573105E+03</pdfrwt>
<pdfrwt beam="2">  1       -2 0.56350239E-02 0.13573105E+03</pdfrwt>
<totfact> 0.11597253E+04</totfact>
</mgrwt>
</event>
<event>
 8    1  0.3572165E-004  0.1354912E+03  0.7546771E-02  0.1229932E+00
         -1   -1    0    0    0  501 -0.00000000000E+00  0.00000000000E+00  0.14618548820E+02  0.14618548820E+02  0.00000000000E+00 0.  1.
          1   -1    0    0  501    0  0.00000000000E+00 -0.00000000000E+00 -0.10232886983E+04  0.10232886983E+04  0.00000000000E+00 0. -1.
         25    2    1    2    0    0  0.51503172206E+02 -0.87431988423E+01 -0.55041334726E+03  0.56684451600E+03  0.12501532789E+03 0.  0.
         23    2    1    2    0    0 -0.51503172206E+02  0.87431988423E+01 -0.45825680226E+03  0.47106273116E+03  0.95769408452E+02 0.  0.
          5    1    4    4  502    0  0.11517541009E+02  0.25939651190E+02 -0.27411776318E+03  0.27562321627E+03  0.47000000000E+01 0. -1.
         -5    1    4    4    0  502 -0.63020713215E+02 -0.17196452348E+02 -0.18413903909E+03  0.19543951490E+03  0.47000000000E+01 0.  1.
          5    1    3    3  503    0  0.27125476714E+02 -0.66837224309E+02 -0.28777594346E+03  0.29671550292E+03  0.47000000000E+01 0.  1.
         -5    1    3    3    0  503  0.24377695491E+02  0.58094025467E+02 -0.26263740381E+03  0.27012901309E+03  0.47000000000E+01 0.  1.
<mgrwt>
<rscale>  0 0.12834537E+03</rscale>
<asrwt>0</asrwt>
<pdfrwt beam="1">  1        1 0.15742902E+00 0.13549115E+03</pdfrwt>
<pdfrwt beam="2">  1       -1 0.22490077E-02 0.13549115E+03</pdfrwt>
<totfact> 0.85764522E+03</totfact>
</mgrwt>
</event>
<event>
 8    1  0.3572165E-004  0.1544854E+03  0.7546771E-02  0.1203594E+00
         -1   -1    0    0    0  501 -0.00000000000E+00  0.00000000000E+00  0.93951609274E+02  0.93951609274E+02  0.00000000000E+00 0.  1.
          1   -1    0    0  501    0  0.00000000000E+00 -0.00000000000E+00 -0.21687970654E+03  0.21687970654E+03  0.00000000000E+00 0. -1.
         25    2    1    2    0    0  0.38205110274E+02  0.82343912177E+02 -0.45945217120E+02  0.16117289758E+03  0.12500235843E+03 0.  0.
         23    2    1    2    0    0 -0.38205110274E+02 -0.82343912177E+02 -0.76982880144E+02  0.14965841824E+03  0.90725564148E+02 0.  0.
          5    1    4    4  502    0 -0.44725800052E+02 -0.26262889383E+02 -0.77055579263E+02  0.93004241003E+02  0.47000000000E+01 0. -1.
         -5    1    3    3    0  503  0.61499766959E+02  0.41388148748E+02 -0.75049838672E+02  0.10559246411E+03  0.47000000000E+01 0. -1.
          5    1    3    3  503    0 -0.23294656685E+02  0.40955763430E+02  0.29104621552E+02  0.55580433463E+02  0.47000000000E+01 0. -1.
         -5    1    4    4    0  502  0.65206897783E+01 -0.56081022794E+02  0.72699118389E-01  0.56654177233E+02  0.47000000000E+01 0.  1.
<mgrwt>
<rscale>  0 0.14748794E+03</rscale>
<asrwt>0</asrwt>
<pdfrwt beam="1">  1        1 0.33366109E-01 0.15448540E+03</pdfrwt>
<pdfrwt beam="2">  1       -1 0.14454094E-01 0.15448540E+03</pdfrwt>
<totfact> 0.43609407E+03</totfact>
</mgrwt>
</event>
<event>
 8    1  0.3572165E-004  0.2206487E+03  0.7546771E-02  0.1137114E+00
          2   -1    0    0  501    0  0.00000000000E+00  0.00000000000E+00  0.56169670236E+02  0.56169670236E+02  0.00000000000E+00 0. -1.
         -2   -1    0    0    0  501 -0.00000000000E+00 -0.00000000000E+00 -0.80998327832E+03  0.80998327832E+03  0.00000000000E+00 0.  1.
         25    2    1    2    0    0 -0.17735318305E+03  0.40064840806E+02 -0.33186623146E+03  0.39852359790E+03  0.12500607783E+03 0.  0.
         23    2    1    2    0    0  0.17735318305E+03 -0.40064840806E+02 -0.42194737662E+03  0.46762935065E+03  0.87053305205E+02 0.  0.
          5    1    3    3  502    0 -0.11229577085E+03 -0.33399077930E+02 -0.13723307148E+03  0.18050164671E+03  0.47000000000E+01 0. -1.
         -5    1    3    3    0  502 -0.65057412200E+02  0.73463918735E+02 -0.19463315998E+03  0.21802195119E+03  0.47000000000E+01 0. -1.
          5    1    4    4  503    0  0.11820028785E+03 -0.12256060958E+02 -0.17115833870E+03  0.20841973511E+03  0.47000000000E+01 0. -1.
         -5    1    4    4    0  503  0.59152895203E+02 -0.27808779847E+02 -0.25078903792E+03  0.25920961554E+03  0.47000000000E+01 0.  1.
<mgrwt>
<rscale>  0 0.21572084E+03</rscale>
<asrwt>0</asrwt>
<pdfrwt beam="1">  1        2 0.86414885E-02 0.22064873E+03</pdfrwt>
<pdfrwt beam="2">  1       -2 0.12461280E+00 0.22064873E+03</pdfrwt>
<totfact> 0.38905884E+02</totfact>
</mgrwt>
</event>
<event>
 8    1  0.3572165E-004  0.1547996E+03  0.7546771E-02  0.1201543E+00
          2   -1    0    0  501    0  0.00000000000E+00  0.00000000000E+00  0.77843353982E+02  0.77843353982E+02  0.00000000000E+00 0. -1.
         -2   -1    0    0    0  501 -0.00000000000E+00 -0.00000000000E+00 -0.33260761533E+03  0.33260761533E+03  0.00000000000E+00 0.  1.
         25    2    1    2    0    0 -0.32102951828E+01  0.91250414678E+02 -0.22617138991E+03  0.27407372061E+03  0.12500385011E+03 0.  0.
         23    2    1    2    0    0  0.32102951828E+01 -0.91250414678E+02 -0.28592871437E+02  0.13637724870E+03  0.97181569711E+02 0.  0.
          5    1    3    3  502    0 -0.60067765059E+02  0.72458039895E+02 -0.12726576083E+03  0.15835708959E+03  0.47000000000E+01 0. -1.
         -5    1    3    3    0  502  0.56857469877E+02  0.18792374782E+02 -0.98905629075E+02  0.11571663102E+03  0.47000000000E+01 0. -1.
          5    1    4    4  503    0  0.36876046238E+02 -0.65048233838E+02 -0.48309679038E+02  0.89146119379E+02  0.47000000000E+01 0.  1.
         -5    1    4    4    0  503 -0.33665751055E+02 -0.26202180840E+02  0.19716807601E+02  0.47231129320E+02  0.47000000000E+01 0.  1.
<mgrwt>
<rscale>  0 0.14913255E+03</rscale>
<asrwt>0</asrwt>
<pdfrwt beam="1">  1        2 0.11975901E-01 0.15479957E+03</pdfrwt>
<pdfrwt beam="2">  1       -2 0.51170403E-01 0.15479957E+03</pdfrwt>
<totfact> 0.18308827E+03</totfact>
</mgrwt>
</event>
<event>
 8    1  0.3572165E-004  0.1583153E+03  0.7546771E-02  0.1198601E+00
         -2   -1    0    0    0  501 -0.00000000000E+00  0.00000000000E+00  0.42495832195E+02  0.42495832195E+02  0.00000000000E+00 0.  1.
          2   -1    0    0  501    0  0.00000000000E+00 -0.00000000000E+00 -0.56033846571E+03  0.56033846571E+03  0.00000000000E+00 0. -1.
         25    2    1    2    0    0  0.65317565519E+02  0.71908869996E+02 -0.37856430768E+03  0.41033481926E+03  0.12500583547E+03 0.  0.
         23    2    1    2    0    0 -0.65317565519E+02 -0.71908869996E+02 -0.13927832584E+03  0.19249947865E+03  0.90666020541E+02 0.  0.
          5    1    3    3  502    0  0.34575366079E+02  0.97969264103E+02 -0.18191992820E+03  0.20954804443E+03  0.47000000000E+01 0. -1.
         -5    1    4    4    0  503 -0.41809782316E+02 -0.42298876721E+01 -0.82409262933E+01  0.43080769645E+02  0.47000000000E+01 0.  1.
          5    1    4    4  503    0 -0.23507783203E+02 -0.67678982323E+02 -0.13103739955E+03  0.14941870900E+03  0.47000000000E+01 0. -1.
         -5    1    3    3    0  502  0.30742199439E+02 -0.26060394107E+02 -0.19664437948E+03  0.20078677483E+03  0.47000000000E+01 0. -1.
<mgrwt>
<rscale>  0 0.15153347E+03</rscale>
<asrwt>0</asrwt>
<pdfrwt beam="1">  1        2 0.86205908E-01 0.15831528E+03</pdfrwt>
<pdfrwt beam="2">  1       -2 0.65378211E-02 0.15831528E+03</pdfrwt>
<totfact> 0.68602683E+03</totfact>
</mgrwt>
</event>
<event>
 8    1  0.3572165E-004  0.1345912E+03  0.7546771E-02  0.1232384E+00
          1   -1    0    0  501    0  0.00000000000E+00  0.00000000000E+00  0.27565097959E+03  0.27565097959E+03  0.00000000000E+00 0. -1.
         -1   -1    0    0    0  501 -0.00000000000E+00 -0.00000000000E+00 -0.55193183436E+02  0.55193183436E+02  0.00000000000E+00 0.  1.
         25    2    1    2    0    0 -0.41347905707E+02 -0.27889767485E+02  0.15962278629E+03  0.20879227459E+03  0.12500916602E+03 0.  0.
         23    2    1    2    0    0  0.41347905707E+02  0.27889767485E+02  0.60835009861E+02  0.12205188843E+03  0.93318147263E+02 0.  0.
          5    1    4    4  502    0  0.18000665310E+02 -0.14940215756E+02  0.68421072415E+02  0.72462177367E+02  0.47000000000E+01 0. -1.
         -5    1    3    3    0  503 -0.93438378942E+01 -0.29454594941E+02 -0.12489649069E+02  0.33659497970E+02  0.47000000000E+01 0. -1.
          5    1    3    3  503    0 -0.32004067812E+02  0.15648274554E+01  0.17211243536E+03  0.17513277662E+03  0.47000000000E+01 0. -1.
         -5    1    4    4    0  502  0.23347240396E+02  0.42829983241E+02 -0.75860625534E+01  0.49589711066E+02  0.47000000000E+01 0.  1.
<mgrwt>
<rscale>  0 0.12673429E+03</rscale>
<asrwt>0</asrwt>
<pdfrwt beam="1">  1        1 0.42407842E-01 0.13459116E+03</pdfrwt>
<pdfrwt beam="2">  1       -1 0.84912592E-02 0.13459116E+03</pdfrwt>
<totfact> 0.72831825E+03</totfact>
</mgrwt>
</event>
<event>
 8    1  0.3572165E-004  0.1251955E+03  0.7546771E-02  0.1250034E+00
          1   -1    0    0  501    0  0.00000000000E+00  0.00000000000E+00  0.21996636197E+03  0.21996636197E+03  0.00000000000E+00 0. -1.
         -1   -1    0    0    0  501 -0.00000000000E+00 -0.00000000000E+00 -0.79229587178E+02  0.79229587178E+02  0.00000000000E+00 0.  1.
         25    2    1    2    0    0  0.11649473346E+01 -0.69247419042E+01  0.16210452237E+03  0.20482136427E+03  0.12499842374E+03 0.  0.
         23    2    1    2    0    0 -0.11649473346E+01  0.69247419042E+01 -0.21367747577E+02  0.94374584876E+02  0.91655182512E+02 0.  0.
          5    1    4    4  502    0 -0.43664845142E+02  0.13243006137E+02  0.63202391924E+00  0.45874670212E+02  0.47000000000E+01 0. -1.
         -5    1    3    3    0  503  0.29786048542E+02  0.44854992041E+02  0.12130294964E+03  0.13279937722E+03  0.47000000000E+01 0.  1.
          5    1    3    3  503    0 -0.28621101207E+02 -0.51779733945E+02  0.40801572730E+02  0.72021987053E+02  0.47000000000E+01 0.  1.
         -5    1    4    4    0  502  0.42499897807E+02 -0.63182642332E+01 -0.21999771497E+02  0.48499914664E+02  0.47000000000E+01 0.  1.
<mgrwt>
<rscale>  0 0.11589068E+03</rscale>
<asrwt>0</asrwt>
<pdfrwt beam="1">  1        1 0.33840979E-01 0.12519551E+03</pdfrwt>
<pdfrwt beam="2">  1       -1 0.12189167E-01 0.12519551E+03</pdfrwt>
<totfact> 0.55163169E+03</totfact>
</mgrwt>
</event>
<event>
 8    1  0.3572165E-004  0.1420607E+03  0.7546771E-02  0.1220161E+00
         -2   -1    0    0    0  501 -0.00000000000E+00  0.00000000000E+00  0.82546971363E+02  0.82546971363E+02  0.00000000000E+00 0.  1.
          2   -1    0    0  501    0  0.00000000000E+00 -0.00000000000E+00 -0.27858844704E+03  0.27858844704E+03  0.00000000000E+00 0. -1.
         25    2    1    2    0    0 -0.42914310836E+02  0.52112531591E+02 -0.10669075871E+02  0.14246078942E+03  0.12499557319E+03 0.  0.
         23    2    1    2    0    0  0.42914310836E+02 -0.52112531591E+02 -0.18537239980E+03  0.21867462898E+03  0.94330868381E+02 0.  0.
          5    1    3    3  502    0 -0.85048161409E+02  0.17816333212E+02 -0.68609999056E+00  0.87023974980E+02  0.47000000000E+01 0.  1.
         -5    1    3    3    0  502  0.42133850573E+02  0.34296198379E+02 -0.99829758800E+01  0.55436814436E+02  0.47000000000E+01 0.  1.
          5    1    4    4  503    0  0.44238722936E+02 -0.35894572651E+01 -0.15482355335E+03  0.16112843164E+03  0.47000000000E+01 0. -1.
         -5    1    4    4    0  503 -0.13244121005E+01 -0.48523074326E+02 -0.30548846455E+02  0.57546197348E+02  0.47000000000E+01 0.  1.
<mgrwt>
<rscale>  0 0.13504194E+03</rscale>
<asrwt>0</asrwt>
<pdfrwt beam="1">  1        2 0.42859761E-01 0.14206072E+03</pdfrwt>
<pdfrwt beam="2">  1       -2 0.12699534E-01 0.14206072E+03</pdfrwt>
<totfact> 0.51298178E+03</totfact>
</mgrwt>
</event>
<event>
 8    1  0.3572165E-004  0.1354754E+03  0.7546771E-02  0.1231126E+00
         -2   -1    0    0    0  501 -0.00000000000E+00  0.00000000000E+00  0.73107743614E+03  0.73107743614E+03  0.00000000000E+00 0. -1.
          2   -1    0    0  501    0  0.00000000000E+00 -0.00000000000E+00 -0.20461225193E+02  0.20461225193E+02  0.00000000000E+00 0.  1.
         25    2    1    2    0    0  0.48885821834E+02 -0.18370475981E+02  0.45188529461E+03  0.47175617745E+03  0.12500509394E+03 0.  0.
         23    2    1    2    0    0 -0.48885821834E+02  0.18370475981E+02  0.25873091633E+03  0.27978248388E+03  0.92786061760E+02 0.  0.
          5    1    4    4  502    0 -0.45623155491E+02 -0.12797214628E+02  0.23607186061E+03  0.24082619125E+03  0.47000000000E+01 0. -1.
         -5    1    4    4    0  502 -0.32626663439E+01  0.31167690609E+02  0.22659055721E+02  0.38956292633E+02  0.47000000000E+01 0.  1.
          5    1    3    3  503    0 -0.34630806770E+02  0.24743940425E+01  0.52118361677E+02  0.62799912638E+02  0.47000000000E+01 0. -1.
         -5    1    3    3    0  503  0.83516628605E+02 -0.20844870023E+02  0.39976693293E+03  0.40895626481E+03  0.47000000000E+01 0. -1.
<mgrwt>
<rscale>  0 0.12755731E+03</rscale>
<asrwt>0</asrwt>
<pdfrwt beam="1">  1        2 0.31478814E-02 0.13547535E+03</pdfrwt>
<pdfrwt beam="2">  1       -2 0.11247343E+00 0.13547535E+03</pdfrwt>
<totfact> 0.18282250E+03</totfact>
</mgrwt>
</event>
<event>
 8    1  0.3572165E-004  0.2118902E+03  0.7546771E-02  0.1143875E+00
          1   -1    0    0  501    0  0.00000000000E+00  0.00000000000E+00  0.72511579783E+03  0.72511579783E+03  0.00000000000E+00 0. -1.
         -1   -1    0    0    0  501 -0.00000000000E+00 -0.00000000000E+00 -0.56913691263E+02  0.56913691263E+02  0.00000000000E+00 0.  1.
         25    2    1    2    0    0  0.16300694160E+03  0.51968062057E+02  0.37663600927E+03  0.43214828407E+03  0.12500205384E+03 0.  0.
         23    2    1    2    0    0 -0.16300694160E+03 -0.51968062057E+02  0.29156609730E+03  0.34988120502E+03  0.90189389904E+02 0.  0.
          5    1    4    4  502    0 -0.76014470000E+02  0.19064357739E+02  0.14810793342E+03  0.16762964931E+03  0.47000000000E+01 0. -1.
         -5    1    3    3    0  503  0.14725202920E+03  0.11759416874E+02  0.35300687930E+03  0.38269751870E+03  0.47000000000E+01 0. -1.
          5    1    3    3  503    0  0.15754912402E+02  0.40208645183E+02  0.23629129967E+02  0.49450765366E+02  0.47000000000E+01 0. -1.
         -5    1    4    4    0  502 -0.86992471598E+02 -0.71032419797E+02  0.14345816388E+03  0.18225155572E+03  0.47000000000E+01 0.  1.
<mgrwt>
<rscale>  0 0.20710992E+03</rscale>
<asrwt>0</asrwt>
<pdfrwt beam="1">  1        1 0.11155627E+00 0.21189020E+03</pdfrwt>
<pdfrwt beam="2">  1       -1 0.87559530E-02 0.21189020E+03</pdfrwt>
<totfact> 0.19950765E+03</totfact>
</mgrwt>
</event>
<event>
 8    1  0.3572165E-004  0.1894444E+03  0.7546771E-02  0.1163960E+00
          1   -1    0    0  501    0  0.00000000000E+00  0.00000000000E+00  0.66796970062E+02  0.66796970062E+02  0.00000000000E+00 0. -1.
         -1   -1    0    0    0  501 -0.00000000000E+00 -0.00000000000E+00 -0.51767108537E+03  0.51767108537E+03  0.00000000000E+00 0.  1.
         25    2    1    2    0    0 -0.29073905773E+02  0.13933988850E+03 -0.31621718956E+03  0.36862240654E+03  0.12501308372E+03 0.  0.
         23    2    1    2    0    0  0.29073905773E+02 -0.13933988850E+03 -0.13465692575E+03  0.21584564890E+03  0.90531541312E+02 0.  0.
          5    1    4    4  502    0  0.37930258422E+02 -0.60303277058E+02 -0.16398903282E+02  0.73254377048E+02  0.47000000000E+01 0. -1.
         -5    1    4    4    0  502 -0.88563526487E+01 -0.79036611442E+02 -0.11825802246E+03  0.14259127185E+03  0.47000000000E+01 0.  1.
          5    1    3    3  503    0 -0.70205994783E+02  0.38400157127E+02 -0.12592956333E+03  0.14927758938E+03  0.47000000000E+01 0. -1.
         -5    1    3    3    0  503  0.41132089010E+02  0.10093973137E+03 -0.19028762623E+03  0.21934481715E+03  0.47000000000E+01 0. -1.
<mgrwt>
<rscale>  0 0.18402831E+03</rscale>
<asrwt>0</asrwt>
<pdfrwt beam="1">  1        1 0.10276457E-01 0.18944437E+03</pdfrwt>
<pdfrwt beam="2">  1       -1 0.79641703E-01 0.18944437E+03</pdfrwt>
<totfact> 0.10110647E+03</totfact>
</mgrwt>
</event>
<event>
 8    1  0.3572165E-004  0.1312161E+03  0.7546771E-02  0.1234997E+00
          3   -1    0    0  501    0  0.00000000000E+00  0.00000000000E+00  0.89300606108E+02  0.89300606108E+02  0.00000000000E+00 0. -1.
         -3   -1    0    0    0  501 -0.00000000000E+00 -0.00000000000E+00 -0.17035208703E+03  0.17035208703E+03  0.00000000000E+00 0.  1.
         25    2    1    2    0    0  0.24344557588E+02  0.31620901544E+02 -0.75277620370E+02  0.15127582041E+03  0.12500045926E+03 0.  0.
         23    2    1    2    0    0 -0.24344557588E+02 -0.31620901544E+02 -0.57738605513E+01  0.10837687272E+03  0.10059657140E+03 0.  0.
          5    1    3    3  502    0  0.68516134141E+02  0.47362561579E+02 -0.40699332126E+02  0.92823480394E+02  0.47000000000E+01 0. -1.
         -5    1    3    3    0  502 -0.44171576553E+02 -0.15741660035E+02 -0.34578288244E+02  0.58452340019E+02  0.47000000000E+01 0. -1.
          5    1    4    4  503    0 -0.21210289692E+02 -0.67492491507E+02  0.31854180927E+01  0.70974288916E+02  0.47000000000E+01 0. -1.
         -5    1    4    4    0  503 -0.31342678957E+01  0.35871589963E+02 -0.89592786440E+01  0.37402583808E+02  0.47000000000E+01 0.  1.
<mgrwt>
<rscale>  0 0.12504608E+03</rscale>
<asrwt>0</asrwt>
<pdfrwt beam="1">  1        3 0.13738555E-01 0.13121606E+03</pdfrwt>
<pdfrwt beam="2">  1       -3 0.26208013E-01 0.13121606E+03</pdfrwt>
<totfact> 0.13606205E+03</totfact>
</mgrwt>
</event>
<event>
 8    1  0.3572165E-004  0.1301300E+03  0.7546771E-02  0.1241308E+00
          1   -1    0    0  501    0  0.00000000000E+00  0.00000000000E+00  0.67421604042E+02  0.67421604042E+02  0.00000000000E+00 0. -1.
         -1   -1    0    0    0  501 -0.00000000000E+00 -0.00000000000E+00 -0.20806692492E+03  0.20806692492E+03  0.00000000000E+00 0.  1.
         25    2    1    2    0    0 -0.35241022123E+02 -0.82591871160E+01 -0.11723030814E+03  0.17514784438E+03  0.12499471361E+03 0.  0.
         23    2    1    2    0    0  0.35241022123E+02  0.82591871160E+01 -0.23415012735E+02  0.10034068458E+03  0.90608202438E+02 0.  0.
          5    1    4    4  502    0  0.59522027971E+02  0.11441757354E+01  0.74200772084E+01  0.60177475003E+02  0.47000000000E+01 0. -1.
         -5    1    4    4    0  502 -0.24281005848E+02  0.71150113806E+01 -0.30835089943E+02  0.40163209580E+02  0.47000000000E+01 0.  1.
          5    1    3    3  503    0 -0.21109494150E+02  0.21826618429E+02  0.18137153470E+02  0.35679943264E+02  0.47000000000E+01 0. -1.
         -5    1    3    3    0  503 -0.14131527973E+02 -0.30085805545E+02 -0.13536746161E+03  0.13946790111E+03  0.47000000000E+01 0. -1.
<mgrwt>
<rscale>  0 0.12109123E+03</rscale>
<asrwt>0</asrwt>
<pdfrwt beam="1">  1        1 0.10372555E-01 0.13013002E+03</pdfrwt>
<pdfrwt beam="2">  1       -1 0.32010296E-01 0.13013002E+03</pdfrwt>
<totfact> 0.52996584E+03</totfact>
</mgrwt>
</event>
<event>
 8    1  0.3572165E-004  0.1658937E+03  0.7546771E-02  0.1189387E+00
          1   -1    0    0  501    0  0.00000000000E+00  0.00000000000E+00  0.56902254636E+02  0.56902254636E+02  0.00000000000E+00 0. -1.
         -1   -1    0    0    0  501 -0.00000000000E+00 -0.00000000000E+00 -0.41816014077E+03  0.41816014077E+03  0.00000000000E+00 0.  1.
         25    2    1    2    0    0  0.45538041869E+02  0.99107241570E+02 -0.17367595277E+03  0.24017507273E+03  0.12499908160E+03 0.  0.
         23    2    1    2    0    0 -0.45538041869E+02 -0.99107241570E+02 -0.18758193336E+03  0.23488732267E+03  0.89939502110E+02 0.  0.
          5    1    4    4  502    0 -0.31677906408E+02  0.63438920698E+01 -0.27764026984E+02  0.42856340433E+02  0.47000000000E+01 0. -1.
         -5    1    4    4    0  502 -0.13860135461E+02 -0.10545113364E+03 -0.15981790638E+03  0.19203098224E+03  0.47000000000E+01 0.  1.
          5    1    3    3  503    0  0.18021685210E+02  0.96655669782E+01  0.17467507454E+02  0.27302163641E+02  0.47000000000E+01 0. -1.
         -5    1    3    3    0  503  0.27516356659E+02  0.89441674592E+02 -0.19114346023E+03  0.21287290909E+03  0.47000000000E+01 0. -1.
<mgrwt>
<rscale>  0 0.15938986E+03</rscale>
<asrwt>0</asrwt>
<pdfrwt beam="1">  1        1 0.87541933E-02 0.16589373E+03</pdfrwt>
<pdfrwt beam="2">  1       -1 0.64332327E-01 0.16589373E+03</pdfrwt>
<totfact> 0.19125894E+03</totfact>
</mgrwt>
</event>
<event>
 8    1  0.3572165E-004  0.1571264E+03  0.7546771E-02  0.1199897E+00
          1   -1    0    0  501    0  0.00000000000E+00  0.00000000000E+00  0.16903237012E+03  0.16903237012E+03  0.00000000000E+00 0. -1.
         -1   -1    0    0    0  501 -0.00000000000E+00 -0.00000000000E+00 -0.12750835720E+03  0.12750835720E+03  0.00000000000E+00 0.  1.
         25    2    1    2    0    0  0.55035981431E+02 -0.77683525208E+02 -0.28297868707E+01  0.15715186927E+03  0.12500005192E+03 0.  0.
         23    2    1    2    0    0 -0.55035981431E+02  0.77683525208E+02  0.44353799790E+02  0.13938885804E+03  0.91642265633E+02 0.  0.
          5    1    4    4  502    0 -0.32008810421E+02  0.24321335246E+02  0.65808242693E+02  0.77258695945E+02  0.47000000000E+01 0. -1.
         -5    1    3    3    0  503  0.73130938161E+02 -0.92552808108E+01  0.29063006797E+02  0.79375957968E+02  0.47000000000E+01 0. -1.
          5    1    3    3  503    0 -0.18094956730E+02 -0.68428244397E+02 -0.31892793668E+02  0.77775911298E+02  0.47000000000E+01 0. -1.
         -5    1    4    4    0  502 -0.23027171010E+02  0.53362189962E+02 -0.21454442903E+02  0.62130162100E+02  0.47000000000E+01 0.  1.
<mgrwt>
<rscale>  0 0.15046953E+03</rscale>
<asrwt>0</asrwt>
<pdfrwt beam="1">  1        1 0.26004980E-01 0.15712639E+03</pdfrwt>
<pdfrwt beam="2">  1       -1 0.19616670E-01 0.15712639E+03</pdfrwt>
<totfact> 0.36710411E+03</totfact>
</mgrwt>
</event>
<event>
 8    1  0.3572165E-004  0.1976995E+03  0.7546771E-02  0.1156453E+00
         -2   -1    0    0    0  501 -0.00000000000E+00  0.00000000000E+00  0.31373486364E+02  0.31373486364E+02  0.00000000000E+00 0. -1.
          2   -1    0    0  501    0  0.00000000000E+00 -0.00000000000E+00 -0.11191542392E+04  0.11191542392E+04  0.00000000000E+00 0.  1.
         25    2    1    2    0    0  0.13488548891E+03 -0.72603483631E+02 -0.55135443915E+03  0.58572758690E+03  0.12497890834E+03 0.  0.
         23    2    1    2    0    0 -0.13488548891E+03  0.72603483631E+02 -0.53642631366E+03  0.56480013864E+03  0.88207968268E+02 0.  0.
          5    1    4    4  502    0 -0.27576036920E+02 -0.19915985200E+02 -0.86438293750E+02  0.93009423744E+02  0.47000000000E+01 0. -1.
         -5    1    3    3    0  503 -0.32087297825E+01 -0.58523340386E+02 -0.16125791198E+03  0.17164347204E+03  0.47000000000E+01 0.  1.
          5    1    3    3  503    0  0.13809421870E+03 -0.14080143246E+02 -0.39009652717E+03  0.41408411486E+03  0.47000000000E+01 0.  1.
         -5    1    4    4    0  502 -0.10730945199E+03  0.92519468831E+02 -0.44998801991E+03  0.47179071490E+03  0.47000000000E+01 0.  1.
<mgrwt>
<rscale>  0 0.19224430E+03</rscale>
<asrwt>0</asrwt>
<pdfrwt beam="1">  1        2 0.17217759E+00 0.19769949E+03</pdfrwt>
<pdfrwt beam="2">  1       -2 0.48266899E-02 0.19769949E+03</pdfrwt>
<totfact> 0.45586746E+03</totfact>
</mgrwt>
</event>
<event>
 8    1  0.3572165E-004  0.1755200E+03  0.7546771E-02  0.1178111E+00
         -3   -1    0    0    0  501 -0.00000000000E+00  0.00000000000E+00  0.24207347413E+02  0.24207347413E+02  0.00000000000E+00 0.  1.
          3   -1    0    0  501    0  0.00000000000E+00 -0.00000000000E+00 -0.11623384118E+04  0.11623384118E+04  0.00000000000E+00 0. -1.
         25    2    1    2    0    0 -0.44289617964E+01 -0.12313469731E+03 -0.49040038689E+03  0.52086448015E+03  0.12500199135E+03 0.  0.
         23    2    1    2    0    0  0.44289617964E+01  0.12313469731E+03 -0.64773067753E+03  0.66568127909E+03  0.91622952004E+02 0.  0.
          5    1    3    3  502    0  0.56368421213E+02 -0.74046558540E+02 -0.21004887110E+03  0.22978883783E+03  0.47000000000E+01 0.  1.
         -5    1    3    3    0  502 -0.60797383009E+02 -0.49088138767E+02 -0.28035151578E+03  0.29107564232E+03  0.47000000000E+01 0.  1.
          5    1    4    4  503    0 -0.22651253722E+01  0.46383635897E+02 -0.46474060069E+03  0.46707867475E+03  0.47000000000E+01 0. -1.
         -5    1    4    4    0  503  0.66940871686E+01  0.76751061410E+02 -0.18299007684E+03  0.19860260434E+03  0.47000000000E+01 0.  1.
<mgrwt>
<rscale>  0 0.16974811E+03</rscale>
<asrwt>0</asrwt>
<pdfrwt beam="1">  1        3 0.17882127E+00 0.17551999E+03</pdfrwt>
<pdfrwt beam="2">  1       -3 0.37242078E-02 0.17551999E+03</pdfrwt>
<totfact> 0.19149570E+02</totfact>
</mgrwt>
</event>
<event>
 8    1  0.3572165E-004  0.2132789E+03  0.7546771E-02  0.1142614E+00
          1   -1    0    0  501    0  0.00000000000E+00  0.00000000000E+00  0.14286947932E+04  0.14286947932E+04  0.00000000000E+00 0. -1.
         -1   -1    0    0    0  501 -0.00000000000E+00 -0.00000000000E+00 -0.37575443222E+02  0.37575443222E+02  0.00000000000E+00 0.  1.
         25    2    1    2    0    0  0.16387420001E+03  0.54850854211E+02  0.37401826599E+03  0.43055494078E+03  0.12499809637E+03 0.  0.
         23    2    1    2    0    0 -0.16387420001E+03 -0.54850854211E+02  0.10171010840E+04  0.10357152957E+04  0.91368424232E+02 0.  0.
          5    1    3    3  502    0  0.26649675466E+02 -0.31145521937E+02  0.13981466186E+03  0.14577543829E+03  0.47000000000E+01 0.  1.
         -5    1    4    4    0  503 -0.12024454513E+03 -0.75546211173E+02  0.84681860714E+03  0.85865582398E+03  0.47000000000E+01 0.  1.
          5    1    4    4  503    0 -0.43629654886E+02  0.20695356962E+02  0.17028247687E+03  0.17705947169E+03  0.47000000000E+01 0. -1.
         -5    1    3    3    0  502  0.13722452454E+03  0.85996376148E+02  0.23420360414E+03  0.28477950249E+03  0.47000000000E+01 0.  1.
<mgrwt>
<rscale>  0 0.20868214E+03</rscale>
<asrwt>0</asrwt>
<pdfrwt beam="1">  1        1 0.21979916E+00 0.21327891E+03</pdfrwt>
<pdfrwt beam="2">  1       -1 0.57808385E-02 0.21327891E+03</pdfrwt>
<totfact> 0.11327907E+03</totfact>
</mgrwt>
</event>
<event>
 8    1  0.3572165E-004  0.1463044E+03  0.7546771E-02  0.1214835E+00
         -4   -1    0    0    0  501 -0.00000000000E+00  0.00000000000E+00  0.62523598621E+03  0.62523598621E+03  0.00000000000E+00 0.  1.
          4   -1    0    0  501    0  0.00000000000E+00 -0.00000000000E+00 -0.32636215142E+02  0.32636215142E+02  0.00000000000E+00 0. -1.
         25    2    1    2    0    0 -0.26912756344E+02 -0.71111133898E+02  0.20075468040E+03  0.24840978987E+03  0.12499556865E+03 0.  0.
         23    2    1    2    0    0  0.26912756344E+02  0.71111133898E+02  0.39184509066E+03  0.40946241148E+03  0.91300610721E+02 0.  0.
          5    1    3    3  502    0 -0.57671831701E+02 -0.91603630794E+02  0.13832594726E+03  0.17570834651E+03  0.47000000000E+01 0.  1.
         -5    1    4    4    0  503  0.12355797869E+02  0.88512825218E+02  0.24568516032E+03  0.26147748272E+03  0.47000000000E+01 0.  1.
          5    1    4    4  503    0  0.14556958475E+02 -0.17401691321E+02  0.14615993035E+03  0.14798492876E+03  0.47000000000E+01 0. -1.
         -5    1    3    3    0  502  0.30759075357E+02  0.20492496896E+02  0.62428733139E+02  0.72701443364E+02  0.47000000000E+01 0.  1.
<mgrwt>
<rscale>  0 0.13888664E+03</rscale>
<asrwt>0</asrwt>
<pdfrwt beam="1">  1        4 0.50209566E-02 0.14630442E+03</pdfrwt>
<pdfrwt beam="2">  1       -4 0.96190143E-01 0.14630442E+03</pdfrwt>
<totfact> 0.37481248E+02</totfact>
</mgrwt>
</event>
<event>
 8    1  0.3572165E-004  0.1801184E+03  0.7546771E-02  0.1173329E+00
          2   -1    0    0  501    0  0.00000000000E+00  0.00000000000E+00  0.29827207943E+03  0.29827207943E+03  0.00000000000E+00 0.  1.
         -2   -1    0    0    0  501 -0.00000000000E+00 -0.00000000000E+00 -0.10428520290E+03  0.10428520290E+03  0.00000000000E+00 0. -1.
         25    2    1    2    0    0  0.92026732148E+02  0.91366622026E+02  0.46157165846E+02  0.18593844245E+03  0.12500336544E+03 0.  0.
         23    2    1    2    0    0 -0.92026732148E+02 -0.91366622026E+02  0.14782971069E+03  0.21661883989E+03  0.90847781377E+02 0.  0.
          5    1    3    3  502    0 -0.70077013023E+01  0.76180802175E+02  0.28871539669E+01  0.76701030995E+02  0.47000000000E+01 0. -1.
         -5    1    3    3    0  502  0.99034433450E+02  0.15185819850E+02  0.43270011880E+02  0.10923741146E+03  0.47000000000E+01 0. -1.
          5    1    4    4  503    0 -0.37536707580E+02 -0.81269805619E+02  0.46395190704E+02  0.10093755219E+03  0.47000000000E+01 0. -1.
         -5    1    4    4    0  503 -0.54490024568E+02 -0.10096816406E+02  0.10143451998E+03  0.11568128770E+03  0.47000000000E+01 0.  1.
<mgrwt>
<rscale>  0 0.17440662E+03</rscale>
<asrwt>0</asrwt>
<pdfrwt beam="1">  1        2 0.45888012E-01 0.18011835E+03</pdfrwt>
<pdfrwt beam="2">  1       -2 0.16043878E-01 0.18011835E+03</pdfrwt>
<totfact> 0.32961268E+03</totfact>
</mgrwt>
</event>
<event>
 8    1  0.3572165E-004  0.1647169E+03  0.7546771E-02  0.1190189E+00
         -1   -1    0    0    0  501 -0.00000000000E+00  0.00000000000E+00  0.40840873788E+03  0.40840873788E+03  0.00000000000E+00 0.  1.
          1   -1    0    0  501    0  0.00000000000E+00 -0.00000000000E+00 -0.13006532591E+03  0.13006532591E+03  0.00000000000E+00 0. -1.
         25    2    1    2    0    0 -0.18987712501E+02  0.10557169358E+03  0.34455325009E+03  0.38190130646E+03  0.12500300003E+03 0.  0.
         23    2    1    2    0    0  0.18987712501E+02 -0.10557169358E+03 -0.66209838117E+02  0.15657275733E+03  0.92872869900E+02 0.  0.
          5    1    4    4  502    0 -0.81354578531E+00 -0.11796133275E+03 -0.54879015180E+02  0.13018960860E+03  0.47000000000E+01 0. -1.
         -5    1    3    3    0  503  0.14265731193E+02  0.42764026496E+02  0.28636813917E+03  0.28993287875E+03  0.47000000000E+01 0. -1.
          5    1    3    3  503    0 -0.33253443693E+02  0.62807667085E+02  0.58185110915E+02  0.91968427704E+02  0.47000000000E+01 0. -1.
         -5    1    4    4    0  502  0.19801258286E+02  0.12389639169E+02 -0.11330822937E+02  0.26383148729E+02  0.47000000000E+01 0.  1.
<mgrwt>
<rscale>  0 0.15868563E+03</rscale>
<asrwt>0</asrwt>
<pdfrwt beam="1">  1        1 0.20010050E-01 0.16471693E+03</pdfrwt>
<pdfrwt beam="2">  1       -1 0.62832113E-01 0.16471693E+03</pdfrwt>
<totfact> 0.67699467E+02</totfact>
</mgrwt>
</event>
<event>
 8    1  0.3572165E-004  0.1303139E+03  0.7546771E-02  0.1240419E+00
         -1   -1    0    0    0  501 -0.00000000000E+00  0.00000000000E+00  0.25636194171E+02  0.25636194171E+02  0.00000000000E+00 0.  1.
          1   -1    0    0  501    0  0.00000000000E+00 -0.00000000000E+00 -0.83446996534E+03  0.83446996534E+03  0.00000000000E+00 0. -1.
         25    2    1    2    0    0 -0.71600835285E+01  0.36132947604E+02 -0.70402767548E+03  0.71598651368E+03  0.12499945293E+03 0.  0.
         23    2    1    2    0    0  0.71600835285E+01 -0.36132947604E+02 -0.10480609569E+03  0.14411964583E+03  0.91811208041E+02 0.  0.
          5    1    4    4  502    0 -0.35012789974E+02 -0.23356811628E+02 -0.86229576821E+02  0.96068028136E+02  0.47000000000E+01 0. -1.
         -5    1    3    3    0  503  0.54586258841E+02  0.70075638916E+01 -0.43047598000E+03  0.43400509785E+03  0.47000000000E+01 0. -1.
          5    1    3    3  503    0 -0.61746342370E+02  0.29125383712E+02 -0.27355169548E+03  0.28198141583E+03  0.47000000000E+01 0. -1.
         -5    1    4    4    0  502  0.42172873503E+02 -0.12776135976E+02 -0.18576518873E+02  0.48051617698E+02  0.47000000000E+01 0.  1.
<mgrwt>
<rscale>  0 0.12163810E+03</rscale>
<asrwt>0</asrwt>
<pdfrwt beam="1">  1        1 0.12837998E+00 0.13031393E+03</pdfrwt>
<pdfrwt beam="2">  1       -1 0.39440302E-02 0.13031393E+03</pdfrwt>
<totfact> 0.52543711E+03</totfact>
</mgrwt>
</event>
<event>
 8    1  0.3572165E-004  0.1668048E+03  0.7546771E-02  0.1188243E+00
         -2   -1    0    0    0  501 -0.00000000000E+00  0.00000000000E+00  0.47409036151E+02  0.47409036151E+02  0.00000000000E+00 0.  1.
          2   -1    0    0  501    0  0.00000000000E+00 -0.00000000000E+00 -0.71727236293E+03  0.71727236293E+03  0.00000000000E+00 0. -1.
         25    2    1    2    0    0 -0.87129353743E+02 -0.67863944487E+02 -0.56093611943E+03  0.58521206644E+03  0.12500717333E+03 0.  0.
         23    2    1    2    0    0  0.87129353743E+02  0.67863944487E+02 -0.10892720735E+03  0.17946933264E+03  0.90261096893E+02 0.  0.
          5    1    4    4  502    0  0.39763854380E+02  0.68759022890E+02 -0.10494217123E+03  0.13169630460E+03  0.47000000000E+01 0. -1.
         -5    1    4    4    0  502  0.47365499363E+02 -0.89507840284E+00 -0.39850361261E+01  0.47773028041E+02  0.47000000000E+01 0.  1.
          5    1    3    3  503    0 -0.86613005532E+02 -0.98252825465E+02 -0.38734552668E+03  0.40891817944E+03  0.47000000000E+01 0.  1.
         -5    1    3    3    0  503 -0.51634821093E+00  0.30388880978E+02 -0.17359059275E+03  0.17629388700E+03  0.47000000000E+01 0.  1.
<mgrwt>
<rscale>  0 0.16040252E+03</rscale>
<asrwt>0</asrwt>
<pdfrwt beam="1">  1        2 0.11034959E+00 0.16680477E+03</pdfrwt>
<pdfrwt beam="2">  1       -2 0.72936982E-02 0.16680477E+03</pdfrwt>
<totfact> 0.43610976E+03</totfact>
</mgrwt>
</event>
<event>
 8    1  0.3572165E-004  0.1279477E+03  0.7546771E-02  0.1244802E+00
         -1   -1    0    0    0  501 -0.00000000000E+00  0.00000000000E+00  0.12718879334E+03  0.12718879334E+03  0.00000000000E+00 0.  1.
          1   -1    0    0  501    0  0.00000000000E+00 -0.00000000000E+00 -0.11328719554E+03  0.11328719554E+03  0.00000000000E+00 0. -1.
         25    2    1    2    0    0  0.12225152029E+02 -0.24557465926E+02  0.51198810028E+02  0.13781125843E+03  0.12497240226E+03 0.  0.
         23    2    1    2    0    0 -0.12225152029E+02  0.24557465926E+02 -0.37297212227E+02  0.10266473045E+03  0.91632097887E+02 0.  0.
          5    1    3    3  502    0  0.37994514690E+02 -0.34005228766E+02 -0.24782796206E+02  0.56887746640E+02  0.47000000000E+01 0. -1.
         -5    1    3    3    0  502 -0.25769362661E+02  0.94477628397E+01  0.75981606233E+02  0.80923511790E+02  0.47000000000E+01 0. -1.
          5    1    4    4  503    0 -0.49655218578E+02  0.16287722220E+02 -0.36717515354E+02  0.64040585263E+02  0.47000000000E+01 0. -1.
         -5    1    4    4    0  503  0.37430066549E+02  0.82697437058E+01 -0.57969687280E+00  0.38624145185E+02  0.47000000000E+01 0.  1.
<mgrwt>
<rscale>  0 0.11897233E+03</rscale>
<asrwt>0</asrwt>
<pdfrwt beam="1">  1        1 0.17428799E-01 0.12794774E+03</pdfrwt>
<pdfrwt beam="2">  1       -1 0.19567507E-01 0.12794774E+03</pdfrwt>
<totfact> 0.60481526E+03</totfact>
</mgrwt>
</event>
<event>
 8    1  0.3572165E-004  0.1382853E+03  0.7546771E-02  0.1226842E+00
         -3   -1    0    0    0  501 -0.00000000000E+00  0.00000000000E+00  0.12989616410E+02  0.12989616410E+02  0.00000000000E+00 0.  1.
          3   -1    0    0  501    0  0.00000000000E+00 -0.00000000000E+00 -0.11880912005E+04  0.11880912005E+04  0.00000000000E+00 0. -1.
         25    2    1    2    0    0  0.43565619289E+02  0.40019308217E+02 -0.70298589095E+03  0.71645795434E+03  0.12499331680E+03 0.  0.
         23    2    1    2    0    0 -0.43565619289E+02 -0.40019308217E+02 -0.47211569317E+03  0.48462286261E+03  0.92014036997E+02 0.  0.
          5    1    3    3  502    0 -0.28303641286E+02  0.57336315570E+02 -0.33948312250E+03  0.34548434068E+03  0.47000000000E+01 0.  1.
         -5    1    4    4    0  503 -0.48892712252E+02  0.79159555192E+01 -0.13185885668E+03  0.14093263550E+03  0.47000000000E+01 0.  1.
          5    1    4    4  503    0  0.53270929627E+01 -0.47935263737E+02 -0.34025683650E+03  0.34369022711E+03  0.47000000000E+01 0. -1.
         -5    1    3    3    0  502  0.71869260576E+02 -0.17317007353E+02 -0.36350276845E+03  0.37097361366E+03  0.47000000000E+01 0.  1.
<mgrwt>
<rscale>  0 0.13041459E+03</rscale>
<asrwt>0</asrwt>
<pdfrwt beam="1">  1        3 0.18278334E+00 0.13828535E+03</pdfrwt>
<pdfrwt beam="2">  1       -3 0.19984017E-02 0.13828535E+03</pdfrwt>
<totfact> 0.45970927E+02</totfact>
</mgrwt>
</event>
<event>
 8    1  0.3572165E-004  0.2020023E+03  0.7546771E-02  0.1152073E+00
          2   -1    0    0  501    0  0.00000000000E+00  0.00000000000E+00  0.11486127648E+04  0.11486127648E+04  0.00000000000E+00 0. -1.
         -2   -1    0    0    0  501 -0.00000000000E+00 -0.00000000000E+00 -0.53545480764E+02  0.53545480764E+02  0.00000000000E+00 0.  1.
         25    2    1    2    0    0  0.15854262878E+03 -0.65733034200E+01  0.94093588483E+03  0.96237481648E+03  0.12500389825E+03 0.  0.
         23    2    1    2    0    0 -0.15854262878E+03  0.65733034200E+01  0.15413139917E+03  0.23978342905E+03  0.92523679015E+02 0.  0.
          5    1    4    4  502    0 -0.12028409093E+03  0.42868415626E+02  0.12752694512E+03  0.18053026150E+03  0.47000000000E+01 0. -1.
         -5    1    3    3    0  503  0.58689785800E+02 -0.63474816524E+02  0.37433442860E+03  0.38421595194E+03  0.47000000000E+01 0.  1.
          5    1    3    3  503    0  0.99852842979E+02  0.56901513104E+02  0.56660145623E+03  0.57815886454E+03  0.47000000000E+01 0.  1.
         -5    1    4    4    0  502 -0.38258537854E+02 -0.36295112206E+02  0.26604454056E+02  0.59253167547E+02  0.47000000000E+01 0.  1.
<mgrwt>
<rscale>  0 0.19725808E+03</rscale>
<asrwt>0</asrwt>
<pdfrwt beam="1">  1        2 0.17670964E+00 0.20200235E+03</pdfrwt>
<pdfrwt beam="2">  1       -2 0.82377671E-02 0.20200235E+03</pdfrwt>
<totfact> 0.19297059E+03</totfact>
</mgrwt>
</event>
<event>
 8    1  0.3572165E-004  0.1588701E+03  0.7546771E-02  0.1197456E+00
          1   -1    0    0  501    0  0.00000000000E+00  0.00000000000E+00  0.18393155557E+04  0.18393155557E+04  0.00000000000E+00 0. -1.
         -1   -1    0    0    0  501 -0.00000000000E+00 -0.00000000000E+00 -0.12642643542E+02  0.12642643542E+02  0.00000000000E+00 0.  1.
         25    2    1    2    0    0  0.89727821424E+02 -0.39566700204E+02  0.12315899046E+04  0.12417944259E+04  0.12499238936E+03 0.  0.
         23    2    1    2    0    0 -0.89727821424E+02  0.39566700204E+02  0.59508300753E+03  0.61016377330E+03  0.92517234620E+02 0.  0.
          5    1    4    4  502    0 -0.86648736854E+02 -0.15377701981E+01  0.30424977580E+03  0.31638644790E+03  0.47000000000E+01 0.  1.
         -5    1    4    4    0  502 -0.30790845696E+01  0.41104470402E+02  0.29083323172E+03  0.29377732541E+03  0.47000000000E+01 0. -1.
          5    1    3    3  503    0  0.10913448395E+03  0.47512719979E+01  0.91156740809E+03  0.91810137766E+03  0.47000000000E+01 0. -1.
         -5    1    3    3    0  503 -0.19406662521E+02 -0.44317972202E+02  0.32002249654E+03  0.32369304828E+03  0.47000000000E+01 0. -1.
<mgrwt>
<rscale>  0 0.15248215E+03</rscale>
<asrwt>0</asrwt>
<pdfrwt beam="1">  1        1 0.28297141E+00 0.15887008E+03</pdfrwt>
<pdfrwt beam="2">  1       -1 0.19450235E-02 0.15887008E+03</pdfrwt>
<totfact> 0.30530328E+03</totfact>
</mgrwt>
</event>
<event>
 8    1  0.3572165E-004  0.1263862E+03  0.7546771E-02  0.1251498E+00
          3   -1    0    0  501    0  0.00000000000E+00  0.00000000000E+00  0.71257117665E+02  0.71257117665E+02  0.00000000000E+00 0. -1.
         -3   -1    0    0    0  501 -0.00000000000E+00 -0.00000000000E+00 -0.24154830765E+03  0.24154830765E+03  0.00000000000E+00 0.  1.
         25    2    1    2    0    0 -0.14979837988E+02  0.11130906709E+02 -0.54330897797E+01  0.12650289381E+03  0.12500068418E+03 0.  0.
         23    2    1    2    0    0  0.14979837988E+02 -0.11130906709E+02 -0.16485810021E+03  0.18630253151E+03  0.84747551077E+02 0.  0.
          5    1    3    3  502    0  0.36048650259E+02  0.30635360191E+02 -0.39621260436E+02  0.61886709059E+02  0.47000000000E+01 0. -1.
         -5    1    4    4    0  503  0.33676058287E+02  0.25339147055E+02 -0.10823997715E+03  0.11625029862E+03  0.47000000000E+01 0.  1.
          5    1    4    4  503    0 -0.18696220299E+02 -0.36470053764E+02 -0.56618123058E+02  0.70052232896E+02  0.47000000000E+01 0. -1.
         -5    1    3    3    0  502 -0.51028488247E+02 -0.19504453482E+02  0.34188170657E+02  0.64616184747E+02  0.47000000000E+01 0. -1.
<mgrwt>
<rscale>  0 0.11504751E+03</rscale>
<asrwt>0</asrwt>
<pdfrwt beam="1">  1        3 0.10962634E-01 0.12638617E+03</pdfrwt>
<pdfrwt beam="2">  1       -3 0.37161277E-01 0.12638617E+03</pdfrwt>
<totfact> 0.10321875E+03</totfact>
</mgrwt>
</event>
<event>
 8    1  0.3572165E-004  0.1361243E+03  0.7546771E-02  0.1227920E+00
         -1   -1    0    0    0  501 -0.00000000000E+00  0.00000000000E+00  0.10251727692E+04  0.10251727692E+04  0.00000000000E+00 0.  1.
          1   -1    0    0  501    0  0.00000000000E+00 -0.00000000000E+00 -0.15486749471E+02  0.15486749471E+02  0.00000000000E+00 0. -1.
         25    2    1    2    0    0 -0.56038524881E+01  0.53641923858E+02  0.46333882927E+03  0.48292100278E+03  0.12498385921E+03 0.  0.
         23    2    1    2    0    0  0.56038524881E+01 -0.53641923858E+02  0.54634719043E+03  0.55773851586E+03  0.98326702486E+02 0.  0.
          5    1    3    3  502    0  0.59176925069E+02  0.18151183617E+02  0.21664720733E+03  0.22536520665E+03  0.47000000000E+01 0. -1.
         -5    1    3    3    0  502 -0.64780777557E+02  0.35490740241E+02  0.24669162194E+03  0.25755579613E+03  0.47000000000E+01 0. -1.
          5    1    4    4  503    0  0.48061491469E+02 -0.22370194177E+02  0.18392543850E+03  0.19147059689E+03  0.47000000000E+01 0. -1.
         -5    1    4    4    0  503 -0.42457638981E+02 -0.31271729681E+02  0.36242175194E+03  0.36626791897E+03  0.47000000000E+01 0.  1.
<mgrwt>
<rscale>  0 0.12968772E+03</rscale>
<asrwt>0</asrwt>
<pdfrwt beam="1">  1        1 0.23825777E-02 0.13612430E+03</pdfrwt>
<pdfrwt beam="2">  1       -1 0.15771883E+00 0.13612430E+03</pdfrwt>
<totfact> 0.15213384E+03</totfact>
</mgrwt>
</event>
<event>
 8    1  0.3572165E-004  0.1291677E+03  0.7546771E-02  0.1241624E+00
          1   -1    0    0  501    0  0.00000000000E+00  0.00000000000E+00  0.36388919569E+03  0.36388919569E+03  0.00000000000E+00 0. -1.
         -1   -1    0    0    0  501 -0.00000000000E+00 -0.00000000000E+00 -0.42879973368E+02  0.42879973368E+02  0.00000000000E+00 0.  1.
         25    2    1    2    0    0  0.85164692886E+01  0.31431759067E+02  0.96140503502E+02  0.16101956374E+03  0.12499527098E+03 0.  0.
         23    2    1    2    0    0 -0.85164692886E+01 -0.31431759067E+02  0.22486871882E+03  0.24574960531E+03  0.93629280048E+02 0.  0.
          5    1    3    3  502    0  0.36058048999E+02  0.68770039515E+02  0.38265378449E+02  0.86693889175E+02  0.47000000000E+01 0. -1.
         -5    1    4    4    0  503 -0.26481325364E+02 -0.58679841119E+02  0.12677915329E+03  0.14226604674E+03  0.47000000000E+01 0.  1.
          5    1    4    4  503    0  0.17964856076E+02  0.27248082052E+02  0.98089565528E+02  0.10348355857E+03  0.47000000000E+01 0. -1.
         -5    1    3    3    0  502 -0.27541579711E+02 -0.37338280448E+02  0.57875125054E+02  0.74325674566E+02  0.47000000000E+01 0. -1.
<mgrwt>
<rscale>  0 0.12089762E+03</rscale>
<asrwt>0</asrwt>
<pdfrwt beam="1">  1        1 0.55982951E-01 0.12916773E+03</pdfrwt>
<pdfrwt beam="2">  1       -1 0.65969192E-02 0.12916773E+03</pdfrwt>
<totfact> 0.75211210E+03</totfact>
</mgrwt>
</event>
<event>
 8    1  0.3572165E-004  0.1357654E+03  0.7546771E-02  0.1230736E+00
          1   -1    0    0  501    0  0.00000000000E+00  0.00000000000E+00  0.27068121328E+03  0.27068121328E+03  0.00000000000E+00 0. -1.
         -1   -1    0    0    0  501 -0.00000000000E+00 -0.00000000000E+00 -0.55618387246E+02  0.55618387246E+02  0.00000000000E+00 0.  1.
         25    2    1    2    0    0  0.47662269385E+01  0.52769197400E+02  0.14532211360E+03  0.19887374226E+03  0.12499977419E+03 0.  0.
         23    2    1    2    0    0 -0.47662269385E+01 -0.52769197400E+02  0.69740712436E+02  0.12742585827E+03  0.92554185591E+02 0.  0.
          5    1    3    3  502    0 -0.37372878752E+02  0.16823278918E+02  0.13649182651E+03  0.14258984355E+03  0.47000000000E+01 0. -1.
         -5    1    3    3    0  502  0.42139105691E+02  0.35945918482E+02  0.88302870899E+01  0.56283898710E+02  0.47000000000E+01 0. -1.
          5    1    4    4  503    0  0.34306795478E+02 -0.41017712633E+01  0.51571707021E+02  0.62253607996E+02  0.47000000000E+01 0. -1.
         -5    1    4    4    0  503 -0.39073022416E+02 -0.48667426137E+02  0.18169005415E+02  0.65172250270E+02  0.47000000000E+01 0.  1.
<mgrwt>
<rscale>  0 0.12781418E+03</rscale>
<asrwt>0</asrwt>
<pdfrwt beam="1">  1        1 0.41643263E-01 0.13576542E+03</pdfrwt>
<pdfrwt beam="2">  1       -1 0.85566751E-02 0.13576542E+03</pdfrwt>
<totfact> 0.73669959E+03</totfact>
</mgrwt>
</event>
<event>
 8    1  0.3572165E-004  0.2186301E+03  0.7546771E-02  0.1138181E+00
          2   -1    0    0  501    0  0.00000000000E+00  0.00000000000E+00  0.39911013628E+03  0.39911013628E+03  0.00000000000E+00 0. -1.
         -2   -1    0    0    0  501 -0.00000000000E+00 -0.00000000000E+00 -0.11101558018E+03  0.11101558018E+03  0.00000000000E+00 0.  1.
         25    2    1    2    0    0 -0.30086313666E+02 -0.17682071305E+03  0.13836639368E+03  0.25873613635E+03  0.12501351336E+03 0.  0.
         23    2    1    2    0    0  0.30086313666E+02  0.17682071305E+03  0.14972816242E+03  0.25138958010E+03  0.92776330662E+02 0.  0.
          5    1    4    4  502    0  0.39885837770E+02  0.10798934023E+03  0.13954929984E+03  0.18096594913E+03  0.47000000000E+01 0. -1.
         -5    1    3    3    0  503  0.15407546674E+01 -0.18481812598E+03  0.12496897577E+03  0.22315790042E+03  0.47000000000E+01 0. -1.
          5    1    3    3  503    0 -0.31627068333E+02  0.79974129361E+01  0.13397417910E+02  0.35578235927E+02  0.47000000000E+01 0. -1.
         -5    1    4    4    0  502 -0.97995241040E+01  0.68831372813E+02  0.10178862577E+02  0.70423630972E+02  0.47000000000E+01 0.  1.
<mgrwt>
<rscale>  0 0.21433150E+03</rscale>
<asrwt>0</asrwt>
<pdfrwt beam="1">  1        2 0.61401559E-01 0.21863012E+03</pdfrwt>
<pdfrwt beam="2">  1       -2 0.17079320E-01 0.21863012E+03</pdfrwt>
<totfact> 0.21855278E+03</totfact>
</mgrwt>
</event>
<event>
 8    1  0.3572165E-004  0.1570410E+03  0.7546771E-02  0.1199957E+00
         -1   -1    0    0    0  501 -0.00000000000E+00  0.00000000000E+00  0.28444337970E+03  0.28444337970E+03  0.00000000000E+00 0.  1.
          1   -1    0    0  501    0  0.00000000000E+00 -0.00000000000E+00 -0.92250982793E+02  0.92250982793E+02  0.00000000000E+00 0. -1.
         25    2    1    2    0    0  0.21264854792E+02 -0.92640488382E+02  0.18728710525E+03  0.24441426151E+03  0.12500966882E+03 0.  0.
         23    2    1    2    0    0 -0.21264854792E+02  0.92640488382E+02  0.49052916585E+01  0.13228010099E+03  0.91866800825E+02 0.  0.
          5    1    4    4  502    0 -0.17165769509E+02  0.34690234945E+02 -0.42115973742E+02  0.57392693678E+02  0.47000000000E+01 0. -1.
         -5    1    3    3    0  503  0.32722992193E+02 -0.20191726690E+02 -0.45263615790E+01  0.39000999909E+02  0.47000000000E+01 0. -1.
          5    1    3    3  503    0 -0.11458137401E+02 -0.72448761692E+02  0.19181346683E+03  0.20541326160E+03  0.47000000000E+01 0. -1.
         -5    1    4    4    0  502 -0.40990852826E+01  0.57950253437E+02  0.47021265401E+02  0.74887407309E+02  0.47000000000E+01 0.  1.
<mgrwt>
<rscale>  0 0.15042108E+03</rscale>
<asrwt>0</asrwt>
<pdfrwt beam="1">  1        1 0.14192459E-01 0.15704099E+03</pdfrwt>
<pdfrwt beam="2">  1       -1 0.43760519E-01 0.15704099E+03</pdfrwt>
<totfact> 0.20600996E+03</totfact>
</mgrwt>
</event>
<event>
 8    1  0.3572165E-004  0.1294787E+03  0.7546771E-02  0.1242275E+00
          2   -1    0    0  501    0  0.00000000000E+00  0.00000000000E+00  0.33728971074E+03  0.33728971074E+03  0.00000000000E+00 0. -1.
         -2   -1    0    0    0  501 -0.00000000000E+00 -0.00000000000E+00 -0.46083723430E+02  0.46083723430E+02  0.00000000000E+00 0.  1.
         25    2    1    2    0    0 -0.27057861408E+02 -0.20361060242E+02  0.24207043025E+03  0.27452290270E+03  0.12497211796E+03 0.  0.
         23    2    1    2    0    0  0.27057861408E+02  0.20361060242E+02  0.49135557067E+02  0.10885053148E+03  0.91035348060E+02 0.  0.
          5    1    3    3  502    0  0.10116660250E+02 -0.38235837094E+02  0.22682678810E+03  0.23029721634E+03  0.47000000000E+01 0. -1.
         -5    1    3    3    0  502 -0.37174521658E+02  0.17874776852E+02  0.15243642147E+02  0.44225686359E+02  0.47000000000E+01 0. -1.
          5    1    4    4  503    0  0.26886634244E+01 -0.20733206250E+02  0.56366100318E+02  0.60301923829E+02  0.47000000000E+01 0. -1.
         -5    1    4    4    0  503  0.24369197983E+02  0.41094266492E+02 -0.72305432514E+01  0.48548607648E+02  0.47000000000E+01 0.  1.
<mgrwt>
<rscale>  0 0.12049984E+03</rscale>
<asrwt>0</asrwt>
<pdfrwt beam="1">  1        2 0.51890723E-01 0.12947869E+03</pdfrwt>
<pdfrwt beam="2">  1       -2 0.70898038E-02 0.12947869E+03</pdfrwt>
<totfact> 0.10370678E+04</totfact>
</mgrwt>
</event>
<event>
 8    1  0.3572165E-004  0.2204197E+03  0.7546771E-02  0.1137367E+00
         -1   -1    0    0    0  501 -0.00000000000E+00  0.00000000000E+00  0.68091601765E+02  0.68091601765E+02  0.00000000000E+00 0.  1.
          1   -1    0    0  501    0  0.00000000000E+00 -0.00000000000E+00 -0.67352451568E+03  0.67352451568E+03  0.00000000000E+00 0. -1.
         25    2    1    2    0    0 -0.12747361897E+02 -0.18110233196E+03 -0.24998994297E+03  0.33328637215E+03  0.12499713757E+03 0.  0.
         23    2    1    2    0    0  0.12747361897E+02  0.18110233196E+03 -0.35544297095E+03  0.40832974529E+03  0.86214415382E+02 0.  0.
          5    1    3    3  502    0 -0.62228951287E+02 -0.14697303129E+03 -0.19076217783E+03  0.24876859286E+03  0.47000000000E+01 0.  1.
         -5    1    3    3    0  502  0.49481589390E+02 -0.34129300663E+02 -0.59227765144E+02  0.84517779291E+02  0.47000000000E+01 0.  1.
          5    1    4    4  503    0 -0.59981321348E+00  0.14666271440E+03 -0.19743327998E+03  0.24599248284E+03  0.47000000000E+01 0.  1.
         -5    1    4    4    0  503  0.13347175110E+02  0.34439617557E+02 -0.15800969096E+03  0.16233726245E+03  0.47000000000E+01 0. -1.
<mgrwt>
<rscale>  0 0.21539056E+03</rscale>
<asrwt>0</asrwt>
<pdfrwt beam="1">  1        1 0.10361916E+00 0.22041968E+03</pdfrwt>
<pdfrwt beam="2">  1       -1 0.10475631E-01 0.22041968E+03</pdfrwt>
<totfact> 0.16859242E+03</totfact>
</mgrwt>
</event>
<event>
 8    1  0.3572165E-004  0.1778881E+03  0.7546771E-02  0.1175654E+00
          1   -1    0    0  501    0  0.00000000000E+00  0.00000000000E+00  0.60677596378E+02  0.60677596378E+02  0.00000000000E+00 0.  1.
         -1   -1    0    0    0  501 -0.00000000000E+00 -0.00000000000E+00 -0.46131912150E+03  0.46131912150E+03  0.00000000000E+00 0. -1.
         25    2    1    2    0    0 -0.11736013230E+03  0.47429380826E+02 -0.19532833613E+03  0.26419183171E+03  0.12498487199E+03 0.  0.
         23    2    1    2    0    0  0.11736013230E+03 -0.47429380826E+02 -0.20531318899E+03  0.25780488617E+03  0.91032449935E+02 0.  0.
          5    1    3    3  502    0 -0.93148721917E+02 -0.16354661033E+02 -0.16309419259E+03  0.18858940848E+03  0.47000000000E+01 0.  1.
         -5    1    3    3    0  502 -0.24211410382E+02  0.63784041860E+02 -0.32234143539E+02  0.75602423230E+02  0.47000000000E+01 0.  1.
          5    1    4    4  503    0  0.37623121336E+02 -0.34949632435E+02 -0.15313586352E+03  0.16158483457E+03  0.47000000000E+01 0. -1.
         -5    1    4    4    0  503  0.79737010962E+02 -0.12479748392E+02 -0.52177325471E+02  0.96220051603E+02  0.47000000000E+01 0.  1.
<mgrwt>
<rscale>  0 0.17212062E+03</rscale>
<asrwt>0</asrwt>
<pdfrwt beam="1">  1        1 0.93350150E-02 0.17788807E+03</pdfrwt>
<pdfrwt beam="2">  1       -1 0.70972171E-01 0.17788807E+03</pdfrwt>
<totfact> 0.14498661E+03</totfact>
</mgrwt>
</event>
<event>
 8    1  0.3572165E-004  0.1330500E+03  0.7546771E-02  0.1234453E+00
         -1   -1    0    0    0  501 -0.00000000000E+00  0.00000000000E+00  0.99576529861E+01  0.99576529861E+01  0.00000000000E+00 0.  1.
          1   -1    0    0  501    0  0.00000000000E+00 -0.00000000000E+00 -0.14599288931E+04  0.14599288931E+04  0.00000000000E+00 0. -1.
         25    2    1    2    0    0 -0.33982275546E+02  0.30365626623E+02 -0.69128887754E+03  0.70397628333E+03  0.12500171574E+03 0.  0.
         23    2    1    2    0    0  0.33982275546E+02 -0.30365626623E+02 -0.75868236258E+03  0.76591026278E+03  0.94566045685E+02 0.  0.
          5    1    3    3  502    0  0.20389705924E+02 -0.39035166259E+02 -0.20379896241E+03  0.20855596705E+03  0.47000000000E+01 0.  1.
         -5    1    3    3    0  502 -0.54371981470E+02  0.69400792881E+02 -0.48748991513E+03  0.49542031627E+03  0.47000000000E+01 0.  1.
          5    1    4    4  503    0 -0.12538922370E+02 -0.50540137867E+02 -0.31423560582E+03  0.31855554630E+03  0.47000000000E+01 0. -1.
         -5    1    4    4    0  503  0.46521197916E+02  0.20174511244E+02 -0.44444675676E+03  0.44735471648E+03  0.47000000000E+01 0.  1.
<mgrwt>
<rscale>  0 0.12539547E+03</rscale>
<asrwt>0</asrwt>
<pdfrwt beam="1">  1        1 0.22460428E+00 0.13304997E+03</pdfrwt>
<pdfrwt beam="2">  1       -1 0.15319477E-02 0.13304997E+03</pdfrwt>
<totfact> 0.75163779E+03</totfact>
</mgrwt>
</event>
<event>
 8    1  0.3572165E-004  0.1567917E+03  0.7546771E-02  0.1200223E+00
          1   -1    0    0  501    0  0.00000000000E+00  0.00000000000E+00  0.52209931276E+02  0.52209931276E+02  0.00000000000E+00 0. -1.
         -1   -1    0    0    0  501 -0.00000000000E+00 -0.00000000000E+00 -0.40303585007E+03  0.40303585007E+03  0.00000000000E+00 0.  1.
         25    2    1    2    0    0 -0.77932708079E+02  0.53698702800E+02 -0.16905877318E+03  0.23057427656E+03  0.12500628206E+03 0.  0.
         23    2    1    2    0    0  0.77932708079E+02 -0.53698702800E+02 -0.18176714562E+03  0.22467150479E+03  0.92091976661E+02 0.  0.
          5    1    4    4  502    0  0.33624186094E+02 -0.42135909949E+02 -0.22014287769E+02  0.58418658524E+02  0.47000000000E+01 0. -1.
         -5    1    3    3    0  503  0.14545167404E+02  0.55216897467E+02 -0.33398404871E+02  0.66317502280E+02  0.47000000000E+01 0.  1.
          5    1    3    3  503    0 -0.92477875483E+02 -0.15181946669E+01 -0.13566036831E+03  0.16425677429E+03  0.47000000000E+01 0.  1.
         -5    1    4    4    0  502  0.44308521985E+02 -0.11562792851E+02 -0.15975285785E+03  0.16625284626E+03  0.47000000000E+01 0.  1.
<mgrwt>
<rscale>  0 0.15020324E+03</rscale>
<asrwt>0</asrwt>
<pdfrwt beam="1">  1        1 0.80322972E-02 0.15679167E+03</pdfrwt>
<pdfrwt beam="2">  1       -1 0.62005515E-01 0.15679167E+03</pdfrwt>
<totfact> 0.23001851E+03</totfact>
</mgrwt>
</event>
<event>
 8    1  0.3572165E-004  0.1279826E+03  0.7546771E-02  0.1244931E+00
          2   -1    0    0  501    0  0.00000000000E+00  0.00000000000E+00  0.47704888935E+03  0.47704888935E+03  0.00000000000E+00 0. -1.
         -2   -1    0    0    0  501 -0.00000000000E+00 -0.00000000000E+00 -0.26291018804E+02  0.26291018804E+02  0.00000000000E+00 0.  1.
         25    2    1    2    0    0 -0.27326388538E+02  0.39455112870E+01  0.23880049373E+03  0.27093398859E+03  0.12496900334E+03 0.  0.
         23    2    1    2    0    0  0.27326388538E+02 -0.39455112870E+01  0.21195737681E+03  0.23240591957E+03  0.91237510346E+02 0.  0.
          5    1    4    4  502    0 -0.11389346746E+02 -0.19890013729E+02  0.17440230222E+03  0.17596472057E+03  0.47000000000E+01 0. -1.
         -5    1    4    4    0  502  0.38715735283E+02  0.15944502442E+02  0.37555074597E+02  0.56441199000E+02  0.47000000000E+01 0.  1.
          5    1    3    3  503    0  0.15629957457E+02  0.39824594750E+02  0.19504107778E+03  0.19973333707E+03  0.47000000000E+01 0.  1.
         -5    1    3    3    0  503 -0.42956345995E+02 -0.35879083463E+02  0.43759415953E+02  0.71200651513E+02  0.47000000000E+01 0.  1.
<mgrwt>
<rscale>  0 0.11889492E+03</rscale>
<asrwt>0</asrwt>
<pdfrwt beam="1">  1        2 0.73392130E-01 0.12798262E+03</pdfrwt>
<pdfrwt beam="2">  1       -2 0.40447725E-02 0.12798262E+03</pdfrwt>
<totfact> 0.16647590E+04</totfact>
</mgrwt>
</event>
<event>
 8    1  0.3572165E-004  0.1960565E+03  0.7546771E-02  0.1157618E+00
         -2   -1    0    0    0  501 -0.00000000000E+00  0.00000000000E+00  0.19283126914E+03  0.19283126914E+03  0.00000000000E+00 0.  1.
          2   -1    0    0  501    0  0.00000000000E+00 -0.00000000000E+00 -0.18073771676E+03  0.18073771676E+03  0.00000000000E+00 0. -1.
         25    2    1    2    0    0  0.15101781989E+03 -0.63013863510E-01 -0.69049488337E+01  0.19617809023E+03  0.12502711255E+03 0.  0.
         23    2    1    2    0    0 -0.15101781989E+03  0.63013863510E-01  0.18998501216E+02  0.17739089567E+03  0.91105438503E+02 0.  0.
          5    1    4    4  502    0 -0.69988684576E+02 -0.39396071792E+02  0.31262308645E+02  0.86312735926E+02  0.47000000000E+01 0. -1.
         -5    1    4    4    0  502 -0.81029135314E+02  0.39459085655E+02 -0.12263807429E+02  0.91078159748E+02  0.47000000000E+01 0.  1.
          5    1    3    3  503    0  0.97970322015E+01 -0.28551883288E+02 -0.37962139438E+02  0.48727876108E+02  0.47000000000E+01 0.  1.
         -5    1    3    3    0  503  0.14122078769E+03  0.28488869425E+02  0.31057190604E+02  0.14745021412E+03  0.47000000000E+01 0.  1.
<mgrwt>
<rscale>  0 0.19093807E+03</rscale>
<asrwt>0</asrwt>
<pdfrwt beam="1">  1        2 0.27805802E-01 0.19605653E+03</pdfrwt>
<pdfrwt beam="2">  1       -2 0.29666349E-01 0.19605653E+03</pdfrwt>
<totfact> 0.19667155E+03</totfact>
</mgrwt>
</event>
<event>
 8    1  0.3572165E-004  0.1703778E+03  0.7546771E-02  0.1184154E+00
          2   -1    0    0  501    0  0.00000000000E+00  0.00000000000E+00  0.28436628934E+03  0.28436628934E+03  0.00000000000E+00 0. -1.
         -2   -1    0    0    0  501 -0.00000000000E+00 -0.00000000000E+00 -0.89145524717E+02  0.89145524717E+02  0.00000000000E+00 0.  1.
         25    2    1    2    0    0 -0.76185754931E+02  0.87177123174E+02  0.87012799558E+02  0.19131077795E+03  0.12499786563E+03 0.  0.
         23    2    1    2    0    0  0.76185754931E+02 -0.87177123174E+02  0.10820796507E+03  0.18220103611E+03  0.89911811217E+02 0.  0.
          5    1    3    3  502    0 -0.23701551369E+02  0.90868493391E+02  0.99638852010E+02  0.13699940678E+03  0.47000000000E+01 0.  1.
         -5    1    3    3    0  502 -0.52484203562E+02 -0.36913702170E+01 -0.12626052452E+02  0.54311371167E+02  0.47000000000E+01 0.  1.
          5    1    4    4  503    0  0.94516900344E+02 -0.75523318396E+02  0.10393911661E+03  0.15957019156E+03  0.47000000000E+01 0. -1.
         -5    1    4    4    0  503 -0.18331145413E+02 -0.11653804778E+02  0.42688484562E+01  0.22630844552E+02  0.47000000000E+01 0.  1.
<mgrwt>
<rscale>  0 0.16409103E+03</rscale>
<asrwt>0</asrwt>
<pdfrwt beam="1">  1        2 0.43748659E-01 0.17037778E+03</pdfrwt>
<pdfrwt beam="2">  1       -2 0.13714696E-01 0.17037778E+03</pdfrwt>
<totfact> 0.44758415E+03</totfact>
</mgrwt>
</event>
<event>
 8    1  0.3572165E-004  0.1579645E+03  0.7546771E-02  0.1199194E+00
         -2   -1    0    0    0  501 -0.00000000000E+00  0.00000000000E+00  0.17105837483E+03  0.17105837483E+03  0.00000000000E+00 0.  1.
          2   -1    0    0  501    0  0.00000000000E+00 -0.00000000000E+00 -0.12296407321E+03  0.12296407321E+03  0.00000000000E+00 0. -1.
         25    2    1    2    0    0 -0.68210478473E+02 -0.68377658995E+02  0.28751586897E+02  0.16055978043E+03  0.12499846287E+03 0.  0.
         23    2    1    2    0    0  0.68210478473E+02  0.68377658995E+02  0.19342714723E+02  0.13346266761E+03  0.90055368571E+02 0.  0.
          5    1    3    3  502    0 -0.82077575416E+02 -0.95040293644E+02  0.32797068982E+02  0.12987349051E+03  0.47000000000E+01 0.  1.
         -5    1    3    3    0  502  0.13867096943E+02  0.26662634650E+02 -0.40454820847E+01  0.30686289926E+02  0.47000000000E+01 0.  1.
          5    1    4    4  503    0  0.13948689133E+01  0.42109277258E+02 -0.24739624500E+02  0.49084375425E+02  0.47000000000E+01 0. -1.
         -5    1    4    4    0  503  0.66815609560E+02  0.26268381737E+02  0.44082339223E+02  0.84378292180E+02  0.47000000000E+01 0.  1.
<mgrwt>
<rscale>  0 0.15104529E+03</rscale>
<asrwt>0</asrwt>
<pdfrwt beam="1">  1        2 0.18917550E-01 0.15796452E+03</pdfrwt>
<pdfrwt beam="2">  1       -2 0.26316673E-01 0.15796452E+03</pdfrwt>
<totfact> 0.37176209E+03</totfact>
</mgrwt>
</event>
<event>
 8    1  0.3572165E-004  0.1468576E+03  0.7546771E-02  0.1213582E+00
          4   -1    0    0  501    0  0.00000000000E+00  0.00000000000E+00  0.42083747398E+03  0.42083747398E+03  0.00000000000E+00 0. -1.
         -4   -1    0    0    0  501 -0.00000000000E+00 -0.00000000000E+00 -0.43720231014E+02  0.43720231014E+02  0.00000000000E+00 0.  1.
         25    2    1    2    0    0 -0.12694351054E+02  0.76035898931E+02  0.16802457378E+03  0.22315785046E+03  0.12499825740E+03 0.  0.
         23    2    1    2    0    0  0.12694351054E+02 -0.76035898931E+02  0.20909266919E+03  0.24139985454E+03  0.92798388925E+02 0.  0.
          5    1    3    3  502    0 -0.22614602775E+01  0.20017079183E+02  0.16458406713E+03  0.16587887995E+03  0.47000000000E+01 0. -1.
         -5    1    3    3    0  502 -0.10432890776E+02  0.56018819748E+02  0.34405066474E+01  0.57278970503E+02  0.47000000000E+01 0. -1.
          5    1    4    4  503    0  0.50514990077E+02 -0.24346702024E+02  0.91714759908E+02  0.10760210642E+03  0.47000000000E+01 0. -1.
         -5    1    4    4    0  503 -0.37820639023E+02 -0.51689196906E+02  0.11737790928E+03  0.13379774811E+03  0.47000000000E+01 0.  1.
<mgrwt>
<rscale>  0 0.13981242E+03</rscale>
<asrwt>0</asrwt>
<pdfrwt beam="1">  1        4 0.64744224E-01 0.14685765E+03</pdfrwt>
<pdfrwt beam="2">  1       -4 0.67261897E-02 0.14685765E+03</pdfrwt>
<totfact> 0.55945918E+02</totfact>
</mgrwt>
</event>
<event>
 8    1  0.3572165E-004  0.1291954E+03  0.7546771E-02  0.1242362E+00
         -2   -1    0    0    0  501 -0.00000000000E+00  0.00000000000E+00  0.27260318492E+02  0.27260318492E+02  0.00000000000E+00 0.  1.
          2   -1    0    0  501    0  0.00000000000E+00 -0.00000000000E+00 -0.51759999577E+03  0.51759999577E+03  0.00000000000E+00 0. -1.
         25    2    1    2    0    0  0.14965511927E+02 -0.29049863873E+02 -0.35670471467E+03  0.37938067359E+03  0.12499432342E+03 0.  0.
         23    2    1    2    0    0 -0.14965511927E+02  0.29049863873E+02 -0.13363496260E+03  0.16547964067E+03  0.91963835868E+02 0.  0.
          5    1    4    4  502    0  0.25720770319E+02 -0.12077051773E+02 -0.85026068340E+02  0.89771574024E+02  0.47000000000E+01 0. -1.
         -5    1    4    4    0  502 -0.40686282246E+02  0.41126915646E+02 -0.48608894262E+02  0.75708066644E+02  0.47000000000E+01 0.  1.
          5    1    3    3  503    0  0.21523831837E+02 -0.56604245426E+02 -0.76370549260E+02  0.97580052939E+02  0.47000000000E+01 0.  1.
         -5    1    3    3    0  503 -0.65583199100E+01  0.27554381554E+02 -0.28033416541E+03  0.28180062065E+03  0.47000000000E+01 0.  1.
<mgrwt>
<rscale>  0 0.12044659E+03</rscale>
<asrwt>0</asrwt>
<pdfrwt beam="1">  1        2 0.79630770E-01 0.12919536E+03</pdfrwt>
<pdfrwt beam="2">  1       -2 0.41938951E-02 0.12919536E+03</pdfrwt>
<totfact> 0.14438978E+04</totfact>
</mgrwt>
</event>
<event>
 8    1  0.3572165E-004  0.1434472E+03  0.7546771E-02  0.1219138E+00
         -2   -1    0    0    0  501 -0.00000000000E+00  0.00000000000E+00  0.14980044255E+02  0.14980044255E+02  0.00000000000E+00 0.  1.
          2   -1    0    0  501    0  0.00000000000E+00 -0.00000000000E+00 -0.11956469341E+04  0.11956469341E+04  0.00000000000E+00 0. -1.
         25    2    1    2    0    0  0.68871792595E+02 -0.14450805822E+02 -0.49506352882E+03  0.51542700200E+03  0.12499978888E+03 0.  0.
         23    2    1    2    0    0 -0.68871792595E+02  0.14450805822E+02 -0.68560336099E+03  0.69519997631E+03  0.91098237461E+02 0.  0.
          5    1    4    4  502    0 -0.62586149231E+02 -0.29624291168E+02 -0.45891400843E+03  0.46413228916E+03  0.47000000000E+01 0. -1.
         -5    1    3    3    0  503 -0.28945747106E+02 -0.17341566029E+02 -0.55866181671E+02  0.65434749502E+02  0.47000000000E+01 0.  1.
          5    1    3    3  503    0  0.97817539700E+02  0.28907602070E+01 -0.43919734715E+03  0.44999225250E+03  0.47000000000E+01 0.  1.
         -5    1    4    4    0  502 -0.62856433642E+01  0.44075096990E+02 -0.22668935255E+03  0.23106768716E+03  0.47000000000E+01 0.  1.
<mgrwt>
<rscale>  0 0.13576889E+03</rscale>
<asrwt>0</asrwt>
<pdfrwt beam="1">  1        2 0.18394562E+00 0.14344719E+03</pdfrwt>
<pdfrwt beam="2">  1       -2 0.23046230E-02 0.14344719E+03</pdfrwt>
<totfact> 0.12204944E+04</totfact>
</mgrwt>
</event>
<event>
 8    1  0.3572165E-004  0.1532301E+03  0.7546771E-02  0.1206460E+00
         -1   -1    0    0    0  501 -0.00000000000E+00  0.00000000000E+00  0.35402209294E+02  0.35402209294E+02  0.00000000000E+00 0.  1.
          1   -1    0    0  501    0  0.00000000000E+00 -0.00000000000E+00 -0.54166832047E+03  0.54166832047E+03  0.00000000000E+00 0. -1.
         25    2    1    2    0    0 -0.27493699643E+02  0.84254834150E+02 -0.28692576175E+03  0.32527809854E+03  0.12499867215E+03 0.  0.
         23    2    1    2    0    0  0.27493699643E+02 -0.84254834150E+02 -0.21934034942E+03  0.25179243122E+03  0.86223308536E+02 0.  0.
          5    1    4    4  502    0  0.47354747845E+02 -0.14746820874E+02 -0.10831814266E+03  0.11922604958E+03  0.47000000000E+01 0. -1.
         -5    1    4    4    0  502 -0.19861048202E+02 -0.69508013276E+02 -0.11102220676E+03  0.13256638163E+03  0.47000000000E+01 0.  1.
          5    1    3    3  503    0 -0.37428117129E+02  0.51960663645E+02 -0.39232103397E+02  0.75246411577E+02  0.47000000000E+01 0.  1.
         -5    1    3    3    0  503  0.99344174857E+01  0.32294170505E+02 -0.24769365835E+03  0.25003168697E+03  0.47000000000E+01 0.  1.
<mgrwt>
<rscale>  0 0.14522995E+03</rscale>
<asrwt>0</asrwt>
<pdfrwt beam="1">  1        1 0.83333589E-01 0.15323005E+03</pdfrwt>
<pdfrwt beam="2">  1       -1 0.54464937E-02 0.15323005E+03</pdfrwt>
<totfact> 0.60701591E+03</totfact>
</mgrwt>
</event>
<event>
 8    1  0.3572165E-004  0.1403761E+03  0.7546771E-02  0.1223247E+00
          1   -1    0    0  501    0  0.00000000000E+00  0.00000000000E+00  0.13526263544E+03  0.13526263544E+03  0.00000000000E+00 0. -1.
         -1   -1    0    0    0  501 -0.00000000000E+00 -0.00000000000E+00 -0.13189915288E+03  0.13189915288E+03  0.00000000000E+00 0.  1.
         25    2    1    2    0    0 -0.25481929123E+02  0.58573711884E+02 -0.40691507784E+02  0.14615484794E+03  0.12500092934E+03 0.  0.
         23    2    1    2    0    0  0.25481929123E+02 -0.58573711884E+02  0.44054990343E+02  0.12100694038E+03  0.92852727528E+02 0.  0.
          5    1    3    3  502    0 -0.70573699065E+02  0.59870727158E+02 -0.39635469508E+02  0.10078795272E+03  0.47000000000E+01 0. -1.
         -5    1    3    3    0  502  0.45091769942E+02 -0.12970152746E+01 -0.10560382761E+01  0.45366895221E+02  0.47000000000E+01 0. -1.
          5    1    4    4  503    0 -0.22791726988E+02 -0.84008890846E+01  0.44846901893E+02  0.51218867285E+02  0.47000000000E+01 0. -1.
         -5    1    4    4    0  503  0.48273656111E+02 -0.50172822799E+02 -0.79191155013E+00  0.69788073092E+02  0.47000000000E+01 0.  1.
<mgrwt>
<rscale>  0 0.13287801E+03</rscale>
<asrwt>0</asrwt>
<pdfrwt beam="1">  1        1 0.20809636E-01 0.14037607E+03</pdfrwt>
<pdfrwt beam="2">  1       -1 0.20292177E-01 0.14037607E+03</pdfrwt>
<totfact> 0.45785501E+03</totfact>
</mgrwt>
</event>
<event>
 8    1  0.3572165E-004  0.1994584E+03  0.7546771E-02  0.1154059E+00
          2   -1    0    0  501    0  0.00000000000E+00  0.00000000000E+00  0.11242642730E+04  0.11242642730E+04  0.00000000000E+00 0. -1.
         -2   -1    0    0    0  501 -0.00000000000E+00 -0.00000000000E+00 -0.37912033749E+02  0.37912033749E+02  0.00000000000E+00 0.  1.
         25    2    1    2    0    0 -0.25979485469E+02  0.15324524150E+03  0.78627476831E+03  0.81117917313E+03  0.12499840770E+03 0.  0.
         23    2    1    2    0    0  0.25979485469E+02 -0.15324524150E+03  0.30007747095E+03  0.35099713363E+03  0.94833862808E+02 0.  0.
          5    1    4    4  502    0  0.54500592946E+02 -0.11585849280E+03  0.17197049378E+03  0.21445149968E+03  0.47000000000E+01 0. -1.
         -5    1    4    4    0  502 -0.28521107476E+02 -0.37386748709E+02  0.12810697717E+03  0.13654563395E+03  0.47000000000E+01 0.  1.
          5    1    3    3  503    0 -0.62331499770E+02  0.53839587203E+02  0.48144617293E+03  0.48846332968E+03  0.47000000000E+01 0.  1.
         -5    1    3    3    0  503  0.36352014301E+02  0.99405654301E+02  0.30482859538E+03  0.32271584345E+03  0.47000000000E+01 0.  1.
<mgrwt>
<rscale>  0 0.19496369E+03</rscale>
<asrwt>0</asrwt>
<pdfrwt beam="1">  1        2 0.17296371E+00 0.19945837E+03</pdfrwt>
<pdfrwt beam="2">  1       -2 0.58326214E-02 0.19945837E+03</pdfrwt>
<totfact> 0.33962314E+03</totfact>
</mgrwt>
</event>
<event>
 8    1  0.3572165E-004  0.1288865E+03  0.7546771E-02  0.1244110E+00
          2   -1    0    0  501    0  0.00000000000E+00  0.00000000000E+00  0.29041736685E+02  0.29041736685E+02  0.00000000000E+00 0. -1.
         -2   -1    0    0    0  501 -0.00000000000E+00 -0.00000000000E+00 -0.48762257137E+03  0.48762257137E+03  0.00000000000E+00 0.  1.
         25    2    1    2    0    0  0.72657077628E+00  0.31408381877E+02 -0.17301156410E+03  0.21574225067E+03  0.12499881221E+03 0.  0.
         23    2    1    2    0    0 -0.72657077628E+00 -0.31408381877E+02 -0.28556927059E+03  0.30092205739E+03  0.89539164392E+02 0.  0.
          5    1    3    3  502    0 -0.55799478983E+02 -0.41516766365E+00 -0.11778587706E+03  0.13041992583E+03  0.47000000000E+01 0. -1.
         -5    1    3    3    0  502  0.56526049760E+02  0.31823549541E+02 -0.55225687035E+02  0.85322324835E+02  0.47000000000E+01 0. -1.
          5    1    4    4  503    0  0.21962259293E+02 -0.18906632350E+02 -0.23693903534E+02  0.37726550926E+02  0.47000000000E+01 0. -1.
         -5    1    4    4    0  503 -0.22688830069E+02 -0.12501749527E+02 -0.26187536705E+03  0.26319550646E+03  0.47000000000E+01 0.  1.
<mgrwt>
<rscale>  0 0.11938824E+03</rscale>
<asrwt>0</asrwt>
<pdfrwt beam="1">  1        2 0.44679598E-02 0.12888645E+03</pdfrwt>
<pdfrwt beam="2">  1       -2 0.75018853E-01 0.12888645E+03</pdfrwt>
<totfact> 0.28549224E+03</totfact>
</mgrwt>
</event>
<event>
 8    1  0.3572165E-004  0.1552506E+03  0.7546771E-02  0.1202157E+00
         -1   -1    0    0    0  501 -0.00000000000E+00  0.00000000000E+00  0.17974663175E+02  0.17974663175E+02  0.00000000000E+00 0.  1.
          1   -1    0    0  501    0  0.00000000000E+00 -0.00000000000E+00 -0.13077486972E+04  0.13077486972E+04  0.00000000000E+00 0. -1.
         25    2    1    2    0    0  0.17623092096E+02 -0.90373055448E+02 -0.45351948263E+03  0.47935653164E+03  0.12499960310E+03 0.  0.
         23    2    1    2    0    0 -0.17623092096E+02  0.90373055448E+02 -0.83625455139E+03  0.84636682873E+03  0.92397356708E+02 0.  0.
          5    1    4    4  502    0  0.30507251021E+02  0.46659422069E+02 -0.54721411188E+03  0.55006651259E+03  0.47000000000E+01 0. -1.
         -5    1    3    3    0  503 -0.32537257514E+02 -0.59211945129E+02 -0.37462687263E+03  0.38069950259E+03  0.47000000000E+01 0.  1.
          5    1    3    3  503    0  0.50160349610E+02 -0.31161110319E+02 -0.78892610001E+02  0.98657029056E+02  0.47000000000E+01 0.  1.
         -5    1    4    4    0  502 -0.48130343118E+02  0.43713633379E+02 -0.28904043950E+03  0.29630031613E+03  0.47000000000E+01 0.  1.
<mgrwt>
<rscale>  0 0.14863787E+03</rscale>
<asrwt>0</asrwt>
<pdfrwt beam="1">  1        1 0.20119205E+00 0.15525065E+03</pdfrwt>
<pdfrwt beam="2">  1       -1 0.27653336E-02 0.15525065E+03</pdfrwt>
<totfact> 0.40539161E+03</totfact>
</mgrwt>
</event>
<event>
 8    1  0.3572165E-004  0.1814806E+03  0.7546771E-02  0.1172165E+00
          1   -1    0    0  501    0  0.00000000000E+00  0.00000000000E+00  0.18499636903E+04  0.18499636903E+04  0.00000000000E+00 0. -1.
         -1   -1    0    0    0  501 -0.00000000000E+00 -0.00000000000E+00 -0.15664791163E+02  0.15664791163E+02  0.00000000000E+00 0.  1.
         25    2    1    2    0    0 -0.12963933658E+03 -0.22380412188E+02  0.99070066578E+03  0.10071856938E+04  0.12501188824E+03 0.  0.
         23    2    1    2    0    0  0.12963933658E+03  0.22380412188E+02  0.84359823334E+03  0.85844278763E+03  0.89212106321E+02 0.  0.
          5    1    3    3  502    0 -0.13087926129E+03  0.25392464517E+02  0.73961029500E+03  0.75154483350E+03  0.47000000000E+01 0. -1.
         -5    1    3    3    0  502  0.12399247102E+01 -0.47772876705E+02  0.25109037078E+03  0.25564086031E+03  0.47000000000E+01 0. -1.
          5    1    4    4  503    0  0.44773423217E+02 -0.25883064123E+02  0.44570881961E+03  0.44872378399E+03  0.47000000000E+01 0. -1.
         -5    1    4    4    0  503  0.84865913358E+02  0.48263476311E+02  0.39788941372E+03  0.40971900365E+03  0.47000000000E+01 0.  1.
<mgrwt>
<rscale>  0 0.17556576E+03</rscale>
<asrwt>0</asrwt>
<pdfrwt beam="1">  1        1 0.28460963E+00 0.18148061E+03</pdfrwt>
<pdfrwt beam="2">  1       -1 0.24099693E-02 0.18148061E+03</pdfrwt>
<totfact> 0.22025234E+03</totfact>
</mgrwt>
</event>
<event>
 8    1  0.3572165E-004  0.1675934E+03  0.7546771E-02  0.1187096E+00
         -1   -1    0    0    0  501 -0.00000000000E+00  0.00000000000E+00  0.22238509874E+03  0.22238509874E+03  0.00000000000E+00 0.  1.
          1   -1    0    0  501    0  0.00000000000E+00 -0.00000000000E+00 -0.14332793278E+03  0.14332793278E+03  0.00000000000E+00 0. -1.
         25    2    1    2    0    0 -0.36637312297E+02 -0.10545028882E+03 -0.47088840557E+02  0.17408300689E+03  0.12500191326E+03 0.  0.
         23    2    1    2    0    0  0.36637312297E+02  0.10545028882E+03  0.12614600652E+03  0.19163002462E+03  0.91362986548E+02 0.  0.
          5    1    3    3  502    0 -0.64289520406E+02 -0.79942887953E+01 -0.82012469824E+01  0.65470615848E+02  0.47000000000E+01 0.  1.
         -5    1    4    4    0  503  0.43877692244E+02  0.59508868527E+02  0.12447603470E+03  0.14485486021E+03  0.47000000000E+01 0.  1.
          5    1    4    4  503    0 -0.72403799466E+01  0.45941420295E+02  0.16699718199E+01  0.46775164418E+02  0.47000000000E+01 0. -1.
         -5    1    3    3    0  502  0.27652208109E+02 -0.97456000027E+02 -0.38887593574E+02  0.10861239104E+03  0.47000000000E+01 0.  1.
<mgrwt>
<rscale>  0 0.16142644E+03</rscale>
<asrwt>0</asrwt>
<pdfrwt beam="1">  1        1 0.22050451E-01 0.16759336E+03</pdfrwt>
<pdfrwt beam="2">  1       -1 0.34213092E-01 0.16759336E+03</pdfrwt>
<totfact> 0.18017651E+03</totfact>
</mgrwt>
</event>
<event>
 8    1  0.3572165E-004  0.1374632E+03  0.7546771E-02  0.1229981E+00
         -2   -1    0    0    0  501 -0.00000000000E+00  0.00000000000E+00  0.10964585091E+02  0.10964585091E+02  0.00000000000E+00 0.  1.
          2   -1    0    0  501    0  0.00000000000E+00 -0.00000000000E+00 -0.13502500213E+04  0.13502500213E+04  0.00000000000E+00 0. -1.
         25    2    1    2    0    0 -0.36799050936E+02  0.43783051002E+02 -0.83572000894E+03  0.84694986319E+03  0.12500004687E+03 0.  0.
         23    2    1    2    0    0  0.36799050936E+02 -0.43783051002E+02 -0.50356542727E+03  0.51426474320E+03  0.87286659059E+02 0.  0.
          5    1    3    3  502    0  0.41824401503E+02  0.40065532900E+02 -0.39081861152E+03  0.39511492581E+03  0.47000000000E+01 0.  1.
         -5    1    3    3    0  502 -0.78623452439E+02  0.37175181023E+01 -0.44490139741E+03  0.45183493738E+03  0.47000000000E+01 0.  1.
          5    1    4    4  503    0  0.48626124468E+02  0.30319394927E+01 -0.16084484155E+03  0.16812746858E+03  0.47000000000E+01 0. -1.
         -5    1    4    4    0  503 -0.11827073533E+02 -0.46814990495E+02 -0.34272058573E+03  0.34613727462E+03  0.47000000000E+01 0.  1.
<mgrwt>
<rscale>  0 0.12831245E+03</rscale>
<asrwt>0</asrwt>
<pdfrwt beam="1">  1        2 0.20773065E+00 0.13746322E+03</pdfrwt>
<pdfrwt beam="2">  1       -2 0.16868602E-02 0.13746322E+03</pdfrwt>
<totfact> 0.15786861E+04</totfact>
</mgrwt>
</event>
<event>
 8    1  0.3572165E-004  0.1729919E+03  0.7546771E-02  0.1180658E+00
         -2   -1    0    0    0  501 -0.00000000000E+00  0.00000000000E+00  0.64188977646E+02  0.64188977646E+02  0.00000000000E+00 0.  1.
          2   -1    0    0  501    0  0.00000000000E+00 -0.00000000000E+00 -0.41098337482E+03  0.41098337482E+03  0.00000000000E+00 0. -1.
         25    2    1    2    0    0  0.10571133577E+03 -0.55905192864E+02 -0.17302807240E+03  0.24467308735E+03  0.12500371489E+03 0.  0.
         23    2    1    2    0    0 -0.10571133577E+03  0.55905192864E+02 -0.17376632478E+03  0.23049926512E+03  0.92924154526E+02 0.  0.
          5    1    3    3  502    0  0.34925364253E+02  0.73956586126E+01 -0.13916061811E+03  0.14374367627E+03  0.47000000000E+01 0. -1.
         -5    1    3    3    0  502  0.70785971514E+02 -0.63300851476E+02 -0.33867454286E+02  0.10092941108E+03  0.47000000000E+01 0. -1.
          5    1    4    4  503    0 -0.19241967868E+02  0.49535519766E+02 -0.26566990006E+02  0.59597953018E+02  0.47000000000E+01 0. -1.
         -5    1    4    4    0  503 -0.86469367899E+02  0.63696730973E+01 -0.14719933477E+03  0.17090131210E+03  0.47000000000E+01 0.  1.
<mgrwt>
<rscale>  0 0.16733321E+03</rscale>
<asrwt>0</asrwt>
<pdfrwt beam="1">  1        2 0.63228212E-01 0.17299192E+03</pdfrwt>
<pdfrwt beam="2">  1       -2 0.98752273E-02 0.17299192E+03</pdfrwt>
<totfact> 0.51091786E+03</totfact>
</mgrwt>
</event>
<event>
 8    1  0.3572165E-004  0.1325420E+03  0.7546771E-02  0.1235635E+00
          2   -1    0    0  501    0  0.00000000000E+00  0.00000000000E+00  0.72942939905E+03  0.72942939905E+03  0.00000000000E+00 0. -1.
         -2   -1    0    0    0  501 -0.00000000000E+00 -0.00000000000E+00 -0.20534947412E+02  0.20534947412E+02  0.00000000000E+00 0.  1.
         25    2    1    2    0    0  0.28896994893E+02 -0.33283652184E+02  0.49259061722E+03  0.51011066265E+03  0.12499813661E+03 0.  0.
         23    2    1    2    0    0 -0.28896994893E+02  0.33283652184E+02  0.21630383442E+03  0.23985368382E+03  0.93806199364E+02 0.  0.
          5    1    3    3  502    0  0.19350589066E+02  0.29260755323E+02  0.41338697722E+02  0.54420722419E+02  0.47000000000E+01 0.  1.
         -5    1    3    3    0  502  0.95464058278E+01 -0.62544407507E+02  0.45125191950E+03  0.45568994023E+03  0.47000000000E+01 0.  1.
          5    1    4    4  503    0  0.14478770100E+02  0.24652540724E+02  0.18035263975E+03  0.18266512314E+03  0.47000000000E+01 0. -1.
         -5    1    4    4    0  503 -0.43375764993E+02  0.86311114599E+01  0.35951194667E+02  0.57188560672E+02  0.47000000000E+01 0.  1.
<mgrwt>
<rscale>  0 0.12463870E+03</rscale>
<asrwt>0</asrwt>
<pdfrwt beam="1">  1        2 0.11221989E+00 0.13254196E+03</pdfrwt>
<pdfrwt beam="2">  1       -2 0.31592232E-02 0.13254196E+03</pdfrwt>
<totfact> 0.14847376E+04</totfact>
</mgrwt>
</event>
<event>
 8    1  0.3572165E-004  0.1275981E+03  0.7546771E-02  0.1245487E+00
         -2   -1    0    0    0  501 -0.00000000000E+00  0.00000000000E+00  0.23023054802E+02  0.23023054802E+02  0.00000000000E+00 0.  1.
          2   -1    0    0  501    0  0.00000000000E+00 -0.00000000000E+00 -0.59809226250E+03  0.59809226250E+03  0.00000000000E+00 0. -1.
         25    2    1    2    0    0  0.16490862266E+02 -0.19597771450E+02 -0.22830487735E+03  0.26154235367E+03  0.12500105823E+03 0.  0.
         23    2    1    2    0    0 -0.16490862266E+02  0.19597771450E+02 -0.34676433035E+03  0.35957296363E+03  0.91603461653E+02 0.  0.
          5    1    3    3  502    0 -0.44319259230E+02 -0.25892865926E+02 -0.16725394376E+03  0.17501602483E+03  0.47000000000E+01 0.  1.
         -5    1    4    4    0  503  0.20145678238E+02  0.35829820855E+02 -0.82992319644E+02  0.92733163076E+02  0.47000000000E+01 0.  1.
          5    1    4    4  503    0 -0.36636540504E+02 -0.16232049406E+02 -0.26377201071E+03  0.26683980055E+03  0.47000000000E+01 0. -1.
         -5    1    3    3    0  502  0.60810121496E+02  0.62950944758E+01 -0.61050933592E+02  0.86526328844E+02  0.47000000000E+01 0.  1.
<mgrwt>
<rscale>  0 0.11856258E+03</rscale>
<asrwt>0</asrwt>
<pdfrwt beam="1">  1        2 0.92014203E-01 0.12759814E+03</pdfrwt>
<pdfrwt beam="2">  1       -2 0.35420081E-02 0.12759814E+03</pdfrwt>
<totfact> 0.15764471E+04</totfact>
</mgrwt>
</event>
<event>
 8    1  0.3572165E-004  0.2528615E+03  0.7546771E-02  0.1113830E+00
         -4   -1    0    0    0  501 -0.00000000000E+00  0.00000000000E+00  0.67093333139E+02  0.67093333139E+02  0.00000000000E+00 0.  1.
          4   -1    0    0  501    0  0.00000000000E+00 -0.00000000000E+00 -0.93922296113E+03  0.93922296113E+03  0.00000000000E+00 0. -1.
         25    2    1    2    0    0 -0.21948374188E+03  0.11868556552E+02 -0.55200940232E+03  0.60716827116E+03  0.12499981466E+03 0.  0.
         23    2    1    2    0    0  0.21948374188E+03 -0.11868556552E+02 -0.32012022566E+03  0.39914802310E+03  0.92348307421E+02 0.  0.
          5    1    4    4  502    0  0.28051788601E+02  0.30969030956E+02 -0.61923949142E+02  0.74850846351E+02  0.47000000000E+01 0. -1.
         -5    1    4    4    0  502  0.19143195328E+03 -0.42837587508E+02 -0.25819627652E+03  0.32429717675E+03  0.47000000000E+01 0.  1.
          5    1    3    3  503    0 -0.21217576072E+03  0.44457907520E+02 -0.44588217903E+03  0.49581051477E+03  0.47000000000E+01 0. -1.
         -5    1    3    3    0  503 -0.73079811662E+01 -0.32589350968E+02 -0.10612722329E+03  0.11135775640E+03  0.47000000000E+01 0. -1.
<mgrwt>
<rscale>  0 0.24917006E+03</rscale>
<asrwt>0</asrwt>
<pdfrwt beam="1">  1        4 0.14449584E+00 0.25286148E+03</pdfrwt>
<pdfrwt beam="2">  1       -4 0.10322051E-01 0.25286148E+03</pdfrwt>
<totfact> 0.45761995E+01</totfact>
</mgrwt>
</event>
<event>
 8    1  0.3572165E-004  0.1391375E+03  0.7546771E-02  0.1225967E+00
          2   -1    0    0  501    0  0.00000000000E+00  0.00000000000E+00  0.13324597042E+03  0.13324597042E+03  0.00000000000E+00 0. -1.
         -2   -1    0    0    0  501 -0.00000000000E+00 -0.00000000000E+00 -0.13607363632E+03  0.13607363632E+03  0.00000000000E+00 0.  1.
         25    2    1    2    0    0  0.56973903013E+01  0.60831761492E+02  0.50025102692E+02  0.14785722544E+03  0.12500513891E+03 0.  0.
         23    2    1    2    0    0 -0.56973903013E+01 -0.60831761492E+02 -0.52852768584E+02  0.12146238130E+03  0.90701331085E+02 0.  0.
          5    1    4    4  502    0 -0.39018704333E+02 -0.35872083720E+02 -0.58621635653E+02  0.79169765977E+02  0.47000000000E+01 0. -1.
         -5    1    3    3    0  503  0.95622408675E+01  0.93117043864E+02  0.73664686446E+01  0.94013696708E+02  0.47000000000E+01 0.  1.
          5    1    3    3  503    0 -0.38648505662E+01 -0.32285282372E+02  0.42658634048E+02  0.53843528734E+02  0.47000000000E+01 0.  1.
         -5    1    4    4    0  502  0.33321314032E+02 -0.24959677772E+02  0.57688670686E+01  0.42292615319E+02  0.47000000000E+01 0.  1.
<mgrwt>
<rscale>  0 0.13100811E+03</rscale>
<asrwt>0</asrwt>
<pdfrwt beam="1">  1        2 0.20499380E-01 0.13913752E+03</pdfrwt>
<pdfrwt beam="2">  1       -2 0.20934405E-01 0.13913752E+03</pdfrwt>
<totfact> 0.50082115E+03</totfact>
</mgrwt>
</event>
<event>
 8    1  0.3572165E-004  0.1816615E+03  0.7546771E-02  0.1171851E+00
          1   -1    0    0  501    0  0.00000000000E+00  0.00000000000E+00  0.15923963348E+03  0.15923963348E+03  0.00000000000E+00 0. -1.
         -1   -1    0    0    0  501 -0.00000000000E+00 -0.00000000000E+00 -0.19710874827E+03  0.19710874827E+03  0.00000000000E+00 0.  1.
         25    2    1    2    0    0 -0.11548131593E+03  0.63568574331E+02  0.27750236590E+02  0.18376879778E+03  0.12499598968E+03 0.  0.
         23    2    1    2    0    0  0.11548131593E+03 -0.63568574331E+02 -0.65619351380E+02  0.17257958397E+03  0.90005086274E+02 0.  0.
          5    1    4    4  502    0  0.78911729703E+01 -0.23320465849E+02  0.17623237246E+02  0.30639569666E+02  0.47000000000E+01 0. -1.
         -5    1    3    3    0  503 -0.93860207672E+01  0.72214407234E+02 -0.24708922528E+01  0.73015158060E+02  0.47000000000E+01 0. -1.
          5    1    3    3  503    0 -0.10609529517E+03 -0.86458329037E+01  0.30221128843E+02  0.11075363972E+03  0.47000000000E+01 0. -1.
         -5    1    4    4    0  502  0.10759014296E+03 -0.40248108482E+02 -0.83242588626E+02  0.14194001430E+03  0.47000000000E+01 0.  1.
<mgrwt>
<rscale>  0 0.17588039E+03</rscale>
<asrwt>0</asrwt>
<pdfrwt beam="1">  1        1 0.24498405E-01 0.18166149E+03</pdfrwt>
<pdfrwt beam="2">  1       -1 0.30324423E-01 0.18166149E+03</pdfrwt>
<totfact> 0.19418402E+03</totfact>
</mgrwt>
</event>
<event>
 8    1  0.3572165E-004  0.1748523E+03  0.7546771E-02  0.1178909E+00
          1   -1    0    0  501    0  0.00000000000E+00  0.00000000000E+00  0.25342268652E+03  0.25342268652E+03  0.00000000000E+00 0. -1.
         -1   -1    0    0    0  501 -0.00000000000E+00 -0.00000000000E+00 -0.21641277623E+03  0.21641277623E+03  0.00000000000E+00 0.  1.
         25    2    1    2    0    0  0.12023911127E+03 -0.22171688835E+02  0.18692414398E+03  0.25595693931E+03  0.12499716603E+03 0.  0.
         23    2    1    2    0    0 -0.12023911127E+03  0.22171688835E+02 -0.14991423369E+03  0.21387852344E+03  0.91217967877E+02 0.  0.
          5    1    4    4  502    0  0.49439240017E+01  0.20312161414E+02 -0.44235716871E+01  0.21878854456E+02  0.47000000000E+01 0. -1.
         -5    1    3    3    0  503  0.92984249856E+02  0.15400615021E+01  0.34598834864E+02  0.99335853974E+02  0.47000000000E+01 0.  1.
          5    1    3    3  503    0  0.27254861411E+02 -0.23711750337E+02  0.15232530912E+03  0.15662108534E+03  0.47000000000E+01 0.  1.
         -5    1    4    4    0  502 -0.12518303527E+03  0.18595274208E+01 -0.14549066200E+03  0.19199966898E+03  0.47000000000E+01 0.  1.
<mgrwt>
<rscale>  0 0.16898666E+03</rscale>
<asrwt>0</asrwt>
<pdfrwt beam="1">  1        1 0.38988106E-01 0.17485228E+03</pdfrwt>
<pdfrwt beam="2">  1       -1 0.33294273E-01 0.17485228E+03</pdfrwt>
<totfact> 0.92393908E+02</totfact>
</mgrwt>
</event>
<event>
 8    1  0.3572165E-004  0.1278343E+03  0.7546771E-02  0.1245346E+00
          2   -1    0    0  501    0  0.00000000000E+00  0.00000000000E+00  0.19134752262E+02  0.19134752262E+02  0.00000000000E+00 0.  1.
         -2   -1    0    0    0  501 -0.00000000000E+00 -0.00000000000E+00 -0.64997462382E+03  0.64997462382E+03  0.00000000000E+00 0. -1.
         25    2    1    2    0    0 -0.46199924206E+01  0.26340501900E+02 -0.34348573428E+03  0.36650246128E+03  0.12500575228E+03 0.  0.
         23    2    1    2    0    0  0.46199924206E+01 -0.26340501900E+02 -0.28735413728E+03  0.30260691480E+03  0.91013066664E+02 0.  0.
          5    1    3    3  502    0 -0.46323184644E+02 -0.13485485759E+02 -0.59811400140E+02  0.76988241625E+02  0.47000000000E+01 0. -1.
         -5    1    3    3    0  502  0.41703192223E+02  0.39825987660E+02 -0.28367433414E+03  0.28951421966E+03  0.47000000000E+01 0. -1.
          5    1    4    4  503    0  0.25866132190E+02  0.11922466373E+02 -0.22164495459E+03  0.22351684029E+03  0.47000000000E+01 0. -1.
         -5    1    4    4    0  503 -0.21246139770E+02 -0.38262968274E+02 -0.65709182692E+02  0.79090074511E+02  0.47000000000E+01 0.  1.
<mgrwt>
<rscale>  0 0.11864708E+03</rscale>
<asrwt>0</asrwt>
<pdfrwt beam="1">  1        2 0.29438086E-02 0.12783429E+03</pdfrwt>
<pdfrwt beam="2">  1       -2 0.99996078E-01 0.12783429E+03</pdfrwt>
<totfact> 0.26212227E+03</totfact>
</mgrwt>
</event>
<event>
 8    1  0.3572165E-004  0.1855734E+03  0.7546771E-02  0.1167804E+00
         -1   -1    0    0    0  501 -0.00000000000E+00  0.00000000000E+00  0.11837301507E+03  0.11837301507E+03  0.00000000000E+00 0. -1.
          1   -1    0    0  501    0  0.00000000000E+00 -0.00000000000E+00 -0.26048992244E+03  0.26048992244E+03  0.00000000000E+00 0.  1.
         25    2    1    2    0    0 -0.26762461726E+02 -0.13451830045E+03 -0.92008263200E+02  0.20713039085E+03  0.12500430314E+03 0.  0.
         23    2    1    2    0    0  0.26762461726E+02  0.13451830045E+03 -0.50108644171E+02  0.17173254666E+03  0.90386884269E+02 0.  0.
          5    1    4    4  502    0  0.28347813525E+02  0.56496619970E+02  0.20265001644E+02  0.66544923859E+02  0.47000000000E+01 0. -1.
         -5    1    3    3    0  503 -0.56307882576E+02 -0.68304763618E+02  0.15646901979E+01  0.88660344171E+02  0.47000000000E+01 0.  1.
          5    1    3    3  503    0  0.29545420851E+02 -0.66213536833E+02 -0.93572953398E+02  0.11847004668E+03  0.47000000000E+01 0.  1.
         -5    1    4    4    0  502 -0.15853517995E+01  0.78021680481E+02 -0.70373645815E+02  0.10518762280E+03  0.47000000000E+01 0.  1.
<mgrwt>
<rscale>  0 0.17999871E+03</rscale>
<asrwt>0</asrwt>
<pdfrwt beam="1">  1        1 0.40075372E-01 0.18557338E+03</pdfrwt>
<pdfrwt beam="2">  1       -1 0.18211233E-01 0.18557338E+03</pdfrwt>
<totfact> 0.24255848E+03</totfact>
</mgrwt>
</event>
<event>
 8    1  0.3572165E-004  0.1253367E+03  0.7546771E-02  0.1250332E+00
          1   -1    0    0  501    0  0.00000000000E+00  0.00000000000E+00  0.92012099880E+02  0.92012099880E+02  0.00000000000E+00 0. -1.
         -1   -1    0    0    0  501 -0.00000000000E+00 -0.00000000000E+00 -0.12726598065E+03  0.12726598065E+03  0.00000000000E+00 0.  1.
         25    2    1    2    0    0  0.54680196230E+01  0.74899514226E+01 -0.21828680990E+02  0.12722339181E+03  0.12499320581E+03 0.  0.
         23    2    1    2    0    0 -0.54680196230E+01 -0.74899514226E+01 -0.13425199775E+02  0.92054688717E+02  0.90597081161E+02 0.  0.
          5    1    4    4  502    0 -0.44445526501E+02  0.10433811155E+02  0.27204181872E+01  0.45975644817E+02  0.47000000000E+01 0. -1.
         -5    1    4    4    0  502  0.38977506878E+02 -0.17923762577E+02 -0.16145617963E+02  0.46079043900E+02  0.47000000000E+01 0.  1.
          5    1    3    3  503    0  0.11755821214E+02 -0.41158399734E+02  0.32444948932E+02  0.53916397434E+02  0.47000000000E+01 0.  1.
         -5    1    3    3    0  503 -0.62878015912E+01  0.48648351157E+02 -0.54273629922E+02  0.73306994373E+02  0.47000000000E+01 0.  1.
<mgrwt>
<rscale>  0 0.11571861E+03</rscale>
<asrwt>0</asrwt>
<pdfrwt beam="1">  1        1 0.14155708E-01 0.12533675E+03</pdfrwt>
<pdfrwt beam="2">  1       -1 0.19579382E-01 0.12533675E+03</pdfrwt>
<totfact> 0.78865126E+03</totfact>
</mgrwt>
</event>
<event>
 8    1  0.3572165E-004  0.1251189E+03  0.7546771E-02  0.1251101E+00
         -3   -1    0    0    0  501 -0.00000000000E+00  0.00000000000E+00  0.15972492556E+03  0.15972492556E+03  0.00000000000E+00 0.  1.
          3   -1    0    0  501    0  0.00000000000E+00 -0.00000000000E+00 -0.72554163358E+02  0.72554163358E+02  0.00000000000E+00 0. -1.
         25    2    1    2    0    0 -0.53679741510E+01  0.10036139464E+01  0.48772765522E+02  0.13428895036E+03  0.12499966858E+03 0.  0.
         23    2    1    2    0    0  0.53679741510E+01 -0.10036139464E+01  0.38397996683E+02  0.97990138563E+02  0.89987992082E+02 0.  0.
          5    1    3    3  502    0 -0.38204524086E+02 -0.12421568444E+02 -0.28265696514E+02  0.49344914861E+02  0.47000000000E+01 0. -1.
         -5    1    3    3    0  502  0.32836549935E+02  0.13425182390E+02  0.77038462036E+02  0.84944035498E+02  0.47000000000E+01 0. -1.
          5    1    4    4  503    0 -0.91934842632E+00  0.34659954376E+02 -0.10893229606E+02  0.36645737680E+02  0.47000000000E+01 0. -1.
         -5    1    4    4    0  503  0.62873225773E+01 -0.35663568322E+02  0.49291226289E+02  0.61344400883E+02  0.47000000000E+01 0.  1.
<mgrwt>
<rscale>  0 0.11527573E+03</rscale>
<asrwt>0</asrwt>
<pdfrwt beam="1">  1        3 0.11162179E-01 0.12511890E+03</pdfrwt>
<pdfrwt beam="2">  1       -3 0.24573065E-01 0.12511890E+03</pdfrwt>
<totfact> 0.21482806E+03</totfact>
</mgrwt>
</event>
<event>
 8    1  0.3572165E-004  0.1483727E+03  0.7546771E-02  0.1212352E+00
          2   -1    0    0  501    0  0.00000000000E+00  0.00000000000E+00  0.12751740694E+04  0.12751740694E+04  0.00000000000E+00 0. -1.
         -2   -1    0    0    0  501 -0.00000000000E+00 -0.00000000000E+00 -0.15720993036E+02  0.15720993036E+02  0.00000000000E+00 0.  1.
         25    2    1    2    0    0  0.57836703240E+02  0.55177759546E+02  0.89375516630E+03  0.90598716509E+03  0.12499910648E+03 0.  0.
         23    2    1    2    0    0 -0.57836703240E+02 -0.55177759546E+02  0.36569791004E+03  0.38490789732E+03  0.89607246507E+02 0.  0.
          5    1    3    3  502    0 -0.18205534589E+02  0.60660874292E+02  0.25993044755E+03  0.26757636429E+03  0.47000000000E+01 0. -1.
         -5    1    4    4    0  503  0.91272341837E+01 -0.33957066189E+02  0.49088465891E+02  0.60565305510E+02  0.47000000000E+01 0.  1.
          5    1    4    4  503    0 -0.66963937423E+02 -0.21220693357E+02  0.31660944415E+03  0.32434259181E+03  0.47000000000E+01 0. -1.
         -5    1    3    3    0  502  0.76042237829E+02 -0.54831147460E+01  0.63382471875E+03  0.63841080080E+03  0.47000000000E+01 0. -1.
<mgrwt>
<rscale>  0 0.14072874E+03</rscale>
<asrwt>0</asrwt>
<pdfrwt beam="1">  1        2 0.19618054E+00 0.14837266E+03</pdfrwt>
<pdfrwt beam="2">  1       -2 0.24186153E-02 0.14837266E+03</pdfrwt>
<totfact> 0.10301834E+04</totfact>
</mgrwt>
</event>
<event>
 8    1  0.3572165E-004  0.1260365E+03  0.7546771E-02  0.1248426E+00
         -4   -1    0    0    0  501 -0.00000000000E+00  0.00000000000E+00  0.12072495362E+03  0.12072495362E+03  0.00000000000E+00 0.  1.
          4   -1    0    0  501    0  0.00000000000E+00 -0.00000000000E+00 -0.99848507888E+02  0.99848507888E+02  0.00000000000E+00 0. -1.
         25    2    1    2    0    0 -0.34530380171E+01 -0.15787345352E+02  0.19400327834E+02  0.12752086946E+03  0.12499614267E+03 0.  0.
         23    2    1    2    0    0  0.34530380171E+01  0.15787345352E+02  0.14761178943E+01  0.93052592049E+02  0.91626645787E+02 0.  0.
          5    1    4    4  502    0  0.28199887627E+02  0.43463680032E+02 -0.11799698827E+02  0.53344615815E+02  0.47000000000E+01 0. -1.
         -5    1    3    3    0  503  0.59933357048E+02 -0.15035900634E+02  0.38903699968E+01  0.62091147305E+02  0.47000000000E+01 0.  1.
          5    1    3    3  503    0 -0.63386395066E+02 -0.75144471798E+00  0.15509957837E+02  0.65429722150E+02  0.47000000000E+01 0.  1.
         -5    1    4    4    0  502 -0.24746849610E+02 -0.27676334680E+02  0.13275816721E+02  0.39707976233E+02  0.47000000000E+01 0.  1.
<mgrwt>
<rscale>  0 0.11682632E+03</rscale>
<asrwt>0</asrwt>
<pdfrwt beam="1">  1        4 0.15361309E-01 0.12603650E+03</pdfrwt>
<pdfrwt beam="2">  1       -4 0.18573070E-01 0.12603650E+03</pdfrwt>
<totfact> 0.15089432E+03</totfact>
</mgrwt>
</event>
<event>
 8    1  0.3572165E-004  0.1309414E+03  0.7546771E-02  0.1241094E+00
          2   -1    0    0  501    0  0.00000000000E+00  0.00000000000E+00  0.22971083455E+03  0.22971083455E+03  0.00000000000E+00 0. -1.
         -2   -1    0    0    0  501 -0.00000000000E+00 -0.00000000000E+00 -0.56816149898E+02  0.56816149898E+02  0.00000000000E+00 0.  1.
         25    2    1    2    0    0 -0.36542698235E+02  0.13590370214E+02  0.84093856617E+02  0.15561948062E+03  0.12500231627E+03 0.  0.
         23    2    1    2    0    0  0.36542698235E+02 -0.13590370214E+02  0.88800828035E+02  0.13090750382E+03  0.87926790802E+02 0.  0.
          5    1    3    3  502    0 -0.74007599472E-01  0.65536748502E+02  0.30602626688E+02  0.72482285018E+02  0.47000000000E+01 0.  1.
         -5    1    3    3    0  502 -0.36468690636E+02 -0.51946378287E+02  0.53491229929E+02  0.83137195606E+02  0.47000000000E+01 0.  1.
          5    1    4    4  503    0 -0.56232498792E+01 -0.25141905971E+02  0.82413680641E+02  0.86474511458E+02  0.47000000000E+01 0. -1.
         -5    1    4    4    0  503  0.42165948114E+02  0.11551535757E+02  0.63871473941E+01  0.44432992366E+02  0.47000000000E+01 0.  1.
<mgrwt>
<rscale>  0 0.12122226E+03</rscale>
<asrwt>0</asrwt>
<pdfrwt beam="1">  1        2 0.35340128E-01 0.13094138E+03</pdfrwt>
<pdfrwt beam="2">  1       -2 0.87409462E-02 0.13094138E+03</pdfrwt>
<totfact> 0.11299255E+04</totfact>
</mgrwt>
</event>
<event>
 8    1  0.3572165E-004  0.1252418E+03  0.7546771E-02  0.1250538E+00
          2   -1    0    0  501    0  0.00000000000E+00  0.00000000000E+00  0.10434623249E+03  0.10434623249E+03  0.00000000000E+00 0. -1.
         -2   -1    0    0    0  501 -0.00000000000E+00 -0.00000000000E+00 -0.11960524942E+03  0.11960524942E+03  0.00000000000E+00 0.  1.
         25    2    1    2    0    0 -0.22009649431E+01 -0.73595095260E+01  0.19262384032E+02  0.12671442480E+03  0.12500599740E+03 0.  0.
         23    2    1    2    0    0  0.22009649431E+01  0.73595095260E+01 -0.34521400960E+02  0.97237057109E+02  0.90577654661E+02 0.  0.
          5    1    3    3  502    0 -0.57115336832E+02  0.20622818431E+02 -0.30922290558E+01  0.60984540844E+02  0.47000000000E+01 0.  1.
         -5    1    4    4    0  503 -0.28281439368E+02 -0.15205439301E+02 -0.46929761640E+02  0.57057319642E+02  0.47000000000E+01 0.  1.
          5    1    4    4  503    0  0.30482404311E+02  0.22564948827E+02  0.12408360681E+02  0.40179737467E+02  0.47000000000E+01 0. -1.
         -5    1    3    3    0  502  0.54914371889E+02 -0.27982327957E+02  0.22354613088E+02  0.65729883951E+02  0.47000000000E+01 0.  1.
<mgrwt>
<rscale>  0 0.11559958E+03</rscale>
<asrwt>0</asrwt>
<pdfrwt beam="1">  1        2 0.16053267E-01 0.12524179E+03</pdfrwt>
<pdfrwt beam="2">  1       -2 0.18400808E-01 0.12524179E+03</pdfrwt>
<totfact> 0.81716854E+03</totfact>
</mgrwt>
</event>
<event>
 8    1  0.3572165E-004  0.1411307E+03  0.7546771E-02  0.1222390E+00
         -2   -1    0    0    0  501 -0.00000000000E+00  0.00000000000E+00  0.22685123157E+02  0.22685123157E+02  0.00000000000E+00 0.  1.
          2   -1    0    0  501    0  0.00000000000E+00 -0.00000000000E+00 -0.72105446366E+03  0.72105446366E+03  0.00000000000E+00 0. -1.
         25    2    1    2    0    0  0.14170331952E+02 -0.63980888076E+02 -0.34425752166E+03  0.37206332473E+03  0.12499409603E+03 0.  0.
         23    2    1    2    0    0 -0.14170331952E+02  0.63980888076E+02 -0.35411181884E+03  0.37167626209E+03  0.91944065647E+02 0.  0.
          5    1    3    3  502    0 -0.32356016950E+02 -0.48852516976E+02 -0.30069535483E+03  0.30638744534E+03  0.47000000000E+01 0. -1.
         -5    1    4    4    0  503 -0.24311665643E+00  0.79100379261E+02 -0.18501738650E+03  0.20127208552E+03  0.47000000000E+01 0.  1.
          5    1    4    4  503    0 -0.13927215295E+02 -0.15119491185E+02 -0.16909443235E+03  0.17040417656E+03  0.47000000000E+01 0. -1.
         -5    1    3    3    0  502  0.46526348902E+02 -0.15128371100E+02 -0.43562166832E+02  0.65675879388E+02  0.47000000000E+01 0. -1.
<mgrwt>
<rscale>  0 0.13347400E+03</rscale>
<asrwt>0</asrwt>
<pdfrwt beam="1">  1        2 0.11093145E+00 0.14113071E+03</pdfrwt>
<pdfrwt beam="2">  1       -2 0.34900190E-02 0.14113071E+03</pdfrwt>
<totfact> 0.13054888E+04</totfact>
</mgrwt>
</event>
<event>
 8    1  0.3572165E-004  0.1433900E+03  0.7546771E-02  0.1219318E+00
         -1   -1    0    0    0  501 -0.00000000000E+00  0.00000000000E+00  0.10845594156E+03  0.10845594156E+03  0.00000000000E+00 0.  1.
          1   -1    0    0  501    0  0.00000000000E+00 -0.00000000000E+00 -0.16138648828E+03  0.16138648828E+03  0.00000000000E+00 0. -1.
         25    2    1    2    0    0 -0.64608870838E+02 -0.27578350927E+02 -0.58564897637E+02  0.15488876115E+03  0.12500323781E+03 0.  0.
         23    2    1    2    0    0  0.64608870838E+02  0.27578350927E+02  0.56343509182E+01  0.11495366869E+03  0.90817005036E+02 0.  0.
          5    1    3    3  502    0 -0.34190473853E+02  0.24063090815E+02 -0.80550669784E+02  0.90876406424E+02  0.47000000000E+01 0.  1.
         -5    1    4    4    0  503  0.23047761905E+02 -0.29752023044E+01  0.44347803766E+02  0.50287859931E+02  0.47000000000E+01 0.  1.
          5    1    4    4  503    0  0.41561108932E+02  0.30553553231E+02 -0.38713452848E+02  0.64665808757E+02  0.47000000000E+01 0. -1.
         -5    1    3    3    0  502 -0.30418396984E+02 -0.51641441742E+02  0.21985772147E+02  0.64012354723E+02  0.47000000000E+01 0.  1.
<mgrwt>
<rscale>  0 0.13564044E+03</rscale>
<asrwt>0</asrwt>
<pdfrwt beam="1">  1        1 0.24828690E-01 0.14338996E+03</pdfrwt>
<pdfrwt beam="2">  1       -1 0.16685529E-01 0.14338996E+03</pdfrwt>
<totfact> 0.50115920E+03</totfact>
</mgrwt>
</event>
<event>
 8    1  0.3572165E-004  0.1735901E+03  0.7546771E-02  0.1180208E+00
          3   -1    0    0  501    0  0.00000000000E+00  0.00000000000E+00  0.19493880125E+03  0.19493880125E+03  0.00000000000E+00 0. -1.
         -3   -1    0    0    0  501 -0.00000000000E+00 -0.00000000000E+00 -0.17689869969E+03  0.17689869969E+03  0.00000000000E+00 0.  1.
         25    2    1    2    0    0 -0.62414106391E+01 -0.12029293634E+03  0.99320717728E+02  0.19999528331E+03  0.12499665050E+03 0.  0.
         23    2    1    2    0    0  0.62414106391E+01  0.12029293634E+03 -0.81280616169E+02  0.17184221763E+03  0.91727114071E+02 0.  0.
          5    1    3    3  502    0  0.14791390834E+02 -0.63245630967E+02  0.11922138344E+03  0.13584779478E+03  0.47000000000E+01 0.  1.
         -5    1    4    4    0  503 -0.24269371048E+02  0.10965450722E+03 -0.82072830714E+02  0.13918028908E+03  0.47000000000E+01 0.  1.
          5    1    4    4  503    0  0.30510781687E+02  0.10638429116E+02  0.79221454425E+00  0.32661928557E+02  0.47000000000E+01 0. -1.
         -5    1    3    3    0  502 -0.21032801473E+02 -0.57047305373E+02 -0.19900665708E+02  0.64147488523E+02  0.47000000000E+01 0.  1.
<mgrwt>
<rscale>  0 0.16775600E+03</rscale>
<asrwt>0</asrwt>
<pdfrwt beam="1">  1        3 0.29990585E-01 0.17359006E+03</pdfrwt>
<pdfrwt beam="2">  1       -3 0.27215185E-01 0.17359006E+03</pdfrwt>
<totfact> 0.33178425E+02</totfact>
</mgrwt>
</event>
<event>
 8    1  0.3572165E-004  0.1640291E+03  0.7546771E-02  0.1191658E+00
         -2   -1    0    0    0  501 -0.00000000000E+00  0.00000000000E+00  0.15709641656E+03  0.15709641656E+03  0.00000000000E+00 0.  1.
          2   -1    0    0  501    0  0.00000000000E+00 -0.00000000000E+00 -0.14750233818E+03  0.14750233818E+03  0.00000000000E+00 0. -1.
         25    2    1    2    0    0  0.95258010198E+02 -0.46933426611E+02 -0.89530063110E+01  0.16427328695E+03  0.12501488488E+03 0.  0.
         23    2    1    2    0    0 -0.95258010198E+02  0.46933426611E+02  0.18547084695E+02  0.14032546779E+03  0.89835446899E+02 0.  0.
          5    1    4    4  502    0 -0.17536266102E+02 -0.26449364244E+02  0.52612925216E+01  0.32509393976E+02  0.47000000000E+01 0. -1.
         -5    1    4    4    0  502 -0.77721744096E+02  0.73382790855E+02  0.13285792173E+02  0.10781607381E+03  0.47000000000E+01 0.  1.
          5    1    3    3  503    0  0.10416447792E+02  0.19860721288E+02 -0.44868287754E+02  0.50380590317E+02  0.47000000000E+01 0.  1.
         -5    1    3    3    0  503  0.84841562406E+02 -0.66794147899E+02  0.35915281443E+02  0.11389269663E+03  0.47000000000E+01 0.  1.
<mgrwt>
<rscale>  0 0.15740486E+03</rscale>
<asrwt>0</asrwt>
<pdfrwt beam="1">  1        2 0.22692667E-01 0.16402913E+03</pdfrwt>
<pdfrwt beam="2">  1       -2 0.24168680E-01 0.16402913E+03</pdfrwt>
<totfact> 0.35204973E+03</totfact>
</mgrwt>
</event>
<event>
 8    1  0.3572165E-004  0.1538769E+03  0.7546771E-02  0.1204816E+00
          2   -1    0    0  501    0  0.00000000000E+00  0.00000000000E+00  0.19389662920E+03  0.19389662920E+03  0.00000000000E+00 0. -1.
         -2   -1    0    0    0  501 -0.00000000000E+00 -0.00000000000E+00 -0.10354964057E+03  0.10354964057E+03  0.00000000000E+00 0.  1.
         25    2    1    2    0    0  0.38457230603E+02 -0.81033961803E+02  0.27927268619E+02  0.15639060817E+03  0.12503051004E+03 0.  0.
         23    2    1    2    0    0 -0.38457230603E+02  0.81033961803E+02  0.62419720018E+02  0.14105566160E+03  0.89190900165E+02 0.  0.
          5    1    4    4  502    0 -0.68669480166E+01  0.58609297393E+02  0.78946958907E+02  0.98675817891E+02  0.47000000000E+01 0. -1.
         -5    1    4    4    0  502 -0.31590282586E+02  0.22424664410E+02 -0.16527238889E+02  0.42379843712E+02  0.47000000000E+01 0.  1.
          5    1    3    3  503    0 -0.12470590845E+02 -0.35503705572E+02 -0.43319496200E+02  0.57573409629E+02  0.47000000000E+01 0.  1.
         -5    1    3    3    0  503  0.50927821448E+02 -0.45530256231E+02  0.71246764819E+02  0.98817198539E+02  0.47000000000E+01 0.  1.
<mgrwt>
<rscale>  0 0.14651990E+03</rscale>
<asrwt>0</asrwt>
<pdfrwt beam="1">  1        2 0.29830251E-01 0.15387687E+03</pdfrwt>
<pdfrwt beam="2">  1       -2 0.15930714E-01 0.15387687E+03</pdfrwt>
<totfact> 0.52574859E+03</totfact>
</mgrwt>
</event>
<event>
 8    1  0.3572165E-004  0.1355073E+03  0.7546771E-02  0.1231518E+00
          1   -1    0    0  501    0  0.00000000000E+00  0.00000000000E+00  0.14020405941E+03  0.14020405941E+03  0.00000000000E+00 0. -1.
         -1   -1    0    0    0  501 -0.00000000000E+00 -0.00000000000E+00 -0.10388468454E+03  0.10388468454E+03  0.00000000000E+00 0.  1.
         25    2    1    2    0    0  0.42543114049E+02  0.30428878616E+02  0.26662402519E+02  0.13810542948E+03  0.12500557082E+03 0.  0.
         23    2    1    2    0    0 -0.42543114049E+02 -0.30428878616E+02  0.96569723575E+01  0.10598331447E+03  0.91669911224E+02 0.  0.
          5    1    3    3  502    0  0.31353524859E+02 -0.46880718244E+02  0.17911434535E+02  0.59361222623E+02  0.47000000000E+01 0. -1.
         -5    1    3    3    0  502  0.11189589190E+02  0.77309596860E+02  0.87509679835E+01  0.78744206857E+02  0.47000000000E+01 0. -1.
          5    1    4    4  503    0 -0.86761684983E+01 -0.58682207087E+02 -0.38147736164E+01  0.59628179799E+02  0.47000000000E+01 0. -1.
         -5    1    4    4    0  503 -0.33866945551E+02  0.28253328471E+02  0.13471745974E+02  0.46355134669E+02  0.47000000000E+01 0.  1.
<mgrwt>
<rscale>  0 0.12730011E+03</rscale>
<asrwt>0</asrwt>
<pdfrwt beam="1">  1        1 0.21569855E-01 0.13550729E+03</pdfrwt>
<pdfrwt beam="2">  1       -1 0.15982259E-01 0.13550729E+03</pdfrwt>
<totfact> 0.63828694E+03</totfact>
</mgrwt>
</event>
<event>
 8    1  0.3572165E-004  0.1273901E+03  0.7546771E-02  0.1244495E+00
          2   -1    0    0  501    0  0.00000000000E+00  0.00000000000E+00  0.37806118827E+03  0.37806118827E+03  0.00000000000E+00 0. -1.
         -2   -1    0    0    0  501 -0.00000000000E+00 -0.00000000000E+00 -0.34214621743E+02  0.34214621743E+02  0.00000000000E+00 0.  1.
         25    2    1    2    0    0 -0.24491718787E+02 -0.13333439565E+01  0.22483363560E+03  0.25841516745E+03  0.12500645172E+03 0.  0.
         23    2    1    2    0    0  0.24491718787E+02  0.13333439565E+01  0.11901293093E+03  0.15386064257E+03  0.94379009898E+02 0.  0.
          5    1    4    4  502    0  0.27186283453E+02  0.33969551879E+02  0.11171750633E+03  0.11998298081E+03  0.47000000000E+01 0. -1.
         -5    1    3    3    0  503 -0.64969863736E+02 -0.68873374459E+00  0.20079719071E+03  0.21109988002E+03  0.47000000000E+01 0.  1.
          5    1    3    3  503    0  0.40478144950E+02 -0.64461021193E+00  0.24036444894E+02  0.47315287424E+02  0.47000000000E+01 0.  1.
         -5    1    4    4    0  502 -0.26945646662E+01 -0.32636207923E+02  0.72954245926E+01  0.33877661760E+02  0.47000000000E+01 0.  1.
<mgrwt>
<rscale>  0 0.11915676E+03</rscale>
<asrwt>0</asrwt>
<pdfrwt beam="1">  1        2 0.58163257E-01 0.12739009E+03</pdfrwt>
<pdfrwt beam="2">  1       -2 0.52637882E-02 0.12739009E+03</pdfrwt>
<totfact> 0.14411588E+04</totfact>
</mgrwt>
</event>
<event>
 8    1  0.3572165E-004  0.1482540E+03  0.7546771E-02  0.1212509E+00
          1   -1    0    0  501    0  0.00000000000E+00  0.00000000000E+00  0.38040854885E+03  0.38040854885E+03  0.00000000000E+00 0. -1.
         -1   -1    0    0    0  501 -0.00000000000E+00 -0.00000000000E+00 -0.47796620842E+02  0.47796620842E+02  0.00000000000E+00 0.  1.
         25    2    1    2    0    0  0.78898444780E+02 -0.11368747952E+02  0.20580766776E+03  0.25364550511E+03  0.12500013254E+03 0.  0.
         23    2    1    2    0    0 -0.78898444780E+02  0.11368747952E+02  0.12680426024E+03  0.17455966458E+03  0.89652345553E+02 0.  0.
          5    1    4    4  502    0 -0.58174146521E+02 -0.10767826771E+02  0.13078098682E+03  0.14361731766E+03  0.47000000000E+01 0. -1.
         -5    1    4    4    0  502 -0.20724298259E+02  0.22136574723E+02 -0.39767265776E+01  0.30942346922E+02  0.47000000000E+01 0.  1.
          5    1    3    3  503    0  0.92227121540E+02  0.20520421219E+02  0.82567822983E+02  0.12556458508E+03  0.47000000000E+01 0. -1.
         -5    1    3    3    0  503 -0.13328676760E+02 -0.31889169171E+02  0.12323984478E+03  0.12808092003E+03  0.47000000000E+01 0. -1.
<mgrwt>
<rscale>  0 0.14061091E+03</rscale>
<asrwt>0</asrwt>
<pdfrwt beam="1">  1        1 0.58524390E-01 0.14825399E+03</pdfrwt>
<pdfrwt beam="2">  1       -1 0.73533265E-02 0.14825399E+03</pdfrwt>
<totfact> 0.60976104E+03</totfact>
</mgrwt>
</event>
<event>
 8    1  0.3572165E-004  0.1396745E+03  0.7546771E-02  0.1224082E+00
         -2   -1    0    0    0  501 -0.00000000000E+00  0.00000000000E+00  0.45426129466E+02  0.45426129466E+02  0.00000000000E+00 0.  1.
          2   -1    0    0  501    0  0.00000000000E+00 -0.00000000000E+00 -0.36368235660E+03  0.36368235660E+03  0.00000000000E+00 0. -1.
         25    2    1    2    0    0  0.59507859009E+02  0.18506021001E+02 -0.21542963998E+03  0.25674673050E+03  0.12500118297E+03 0.  0.
         23    2    1    2    0    0 -0.59507859009E+02 -0.18506021001E+02 -0.10282658715E+03  0.15236175556E+03  0.93579588778E+02 0.  0.
          5    1    4    4  502    0 -0.49295779010E+02  0.15272158064E+02 -0.10458413254E+03  0.11671865070E+03  0.47000000000E+01 0. -1.
         -5    1    3    3    0  503  0.33495275572E+02  0.30877442682E+02 -0.22212988307E+03  0.22680195084E+03  0.47000000000E+01 0.  1.
          5    1    3    3  503    0  0.26012583437E+02 -0.12371421680E+02  0.67002430906E+01  0.29944779661E+02  0.47000000000E+01 0.  1.
         -5    1    4    4    0  502 -0.10212079998E+02 -0.33778179066E+02  0.17575453906E+01  0.35643104869E+02  0.47000000000E+01 0.  1.
<mgrwt>
<rscale>  0 0.13229991E+03</rscale>
<asrwt>0</asrwt>
<pdfrwt beam="1">  1        2 0.55951133E-01 0.13967446E+03</pdfrwt>
<pdfrwt beam="2">  1       -2 0.69886351E-02 0.13967446E+03</pdfrwt>
<totfact> 0.98404842E+03</totfact>
</mgrwt>
</event>
<event>
 8    1  0.3572165E-004  0.1802653E+03  0.7546771E-02  0.1173030E+00
         -1   -1    0    0    0  501 -0.00000000000E+00  0.00000000000E+00  0.11031694977E+03  0.11031694977E+03  0.00000000000E+00 0.  1.
          1   -1    0    0  501    0  0.00000000000E+00 -0.00000000000E+00 -0.26116506575E+03  0.26116506575E+03  0.00000000000E+00 0. -1.
         25    2    1    2    0    0 -0.39792697853E+02  0.12363834833E+03 -0.74023657153E+02  0.19487196745E+03  0.12500272757E+03 0.  0.
         23    2    1    2    0    0  0.39792697853E+02 -0.12363834833E+03 -0.76824458832E+02  0.17661004807E+03  0.91756262038E+02 0.  0.
          5    1    4    4  502    0 -0.29330033505E+02 -0.28007493321E+02 -0.22623119277E+02  0.46675111927E+02  0.47000000000E+01 0. -1.
         -5    1    3    3    0  503 -0.33128758102E+02  0.14611523736E+03 -0.43467626134E+02  0.15607274497E+03  0.47000000000E+01 0.  1.
          5    1    3    3  503    0 -0.66639397505E+01 -0.22476889028E+02 -0.30556031019E+02  0.38799222479E+02  0.47000000000E+01 0.  1.
         -5    1    4    4    0  502  0.69122731358E+02 -0.95630855011E+02 -0.54201339555E+02  0.12993493614E+03  0.47000000000E+01 0.  1.
<mgrwt>
<rscale>  0 0.17470318E+03</rscale>
<asrwt>0</asrwt>
<pdfrwt beam="1">  1        1 0.40179240E-01 0.18026531E+03</pdfrwt>
<pdfrwt beam="2">  1       -1 0.16971839E-01 0.18026531E+03</pdfrwt>
<totfact> 0.27032980E+03</totfact>
</mgrwt>
</event>
<event>
 8    1  0.3572165E-004  0.1767891E+03  0.7546771E-02  0.1176853E+00
          1   -1    0    0  501    0  0.00000000000E+00  0.00000000000E+00  0.47466305357E+03  0.47466305357E+03  0.00000000000E+00 0. -1.
         -1   -1    0    0    0  501 -0.00000000000E+00 -0.00000000000E+00 -0.69591885511E+02  0.69591885511E+02  0.00000000000E+00 0.  1.
         25    2    1    2    0    0  0.11863075366E+03 -0.39430365372E+02  0.10218034084E+03  0.20419408325E+03  0.12500556848E+03 0.  0.
         23    2    1    2    0    0 -0.11863075366E+03  0.39430365372E+02  0.30289082721E+03  0.34006085583E+03  0.90942416008E+02 0.  0.
          5    1    4    4  502    0 -0.82255779824E+02  0.59730758009E+02  0.26377779149E+03  0.28272705929E+03  0.47000000000E+01 0. -1.
         -5    1    4    4    0  502 -0.36374973837E+02 -0.20300392637E+02  0.39113035719E+02  0.57333796543E+02  0.47000000000E+01 0.  1.
          5    1    3    3  503    0  0.12979462920E+03 -0.67332659154E+02  0.86814826873E+02  0.17011536357E+03  0.47000000000E+01 0. -1.
         -5    1    3    3    0  503 -0.11163875538E+02  0.27902293782E+02  0.15365513969E+02  0.34078719677E+02  0.47000000000E+01 0. -1.
<mgrwt>
<rscale>  0 0.17095748E+03</rscale>
<asrwt>0</asrwt>
<pdfrwt beam="1">  1        1 0.73025083E-01 0.17678914E+03</pdfrwt>
<pdfrwt beam="2">  1       -1 0.10706444E-01 0.17678914E+03</pdfrwt>
<totfact> 0.26126395E+03</totfact>
</mgrwt>
</event>
<event>
 8    1  0.3572165E-004  0.1724967E+03  0.7546771E-02  0.1181344E+00
         -2   -1    0    0    0  501 -0.00000000000E+00  0.00000000000E+00  0.65119409606E+02  0.65119409606E+02  0.00000000000E+00 0. -1.
          2   -1    0    0  501    0  0.00000000000E+00 -0.00000000000E+00 -0.40613998206E+03  0.40613998206E+03  0.00000000000E+00 0.  1.
         25    2    1    2    0    0 -0.76948723440E+02 -0.90603429648E+02 -0.21015722620E+03  0.27188449560E+03  0.12500012689E+03 0.  0.
         23    2    1    2    0    0  0.76948723440E+02  0.90603429648E+02 -0.13086334625E+03  0.19937489606E+03  0.92168575357E+02 0.  0.
          5    1    4    4  502    0  0.32411310767E+01  0.74544787017E+02 -0.62023243110E+02  0.97141149303E+02  0.47000000000E+01 0. -1.
         -5    1    4    4    0  502  0.73707592363E+02  0.16058642631E+02 -0.68840103140E+02  0.10223374675E+03  0.47000000000E+01 0.  1.
          5    1    3    3  503    0 -0.32245560303E+02 -0.11592805165E+03 -0.13756469173E+03  0.18282566485E+03  0.47000000000E+01 0. -1.
         -5    1    3    3    0  503 -0.44703163137E+02  0.25324622002E+02 -0.72592534467E+02  0.89058830749E+02  0.47000000000E+01 0. -1.
<mgrwt>
<rscale>  0 0.16668999E+03</rscale>
<asrwt>0</asrwt>
<pdfrwt beam="1">  1        2 0.62483073E-01 0.17249672E+03</pdfrwt>
<pdfrwt beam="2">  1       -2 0.10018371E-01 0.17249672E+03</pdfrwt>
<totfact> 0.50579722E+03</totfact>
</mgrwt>
</event>
<event>
 8    1  0.3572165E-004  0.1438521E+03  0.7546771E-02  0.1220146E+00
          1   -1    0    0  501    0  0.00000000000E+00  0.00000000000E+00  0.72581301873E+03  0.72581301873E+03  0.00000000000E+00 0. -1.
         -1   -1    0    0    0  501 -0.00000000000E+00 -0.00000000000E+00 -0.22633794084E+02  0.22633794084E+02  0.00000000000E+00 0.  1.
         25    2    1    2    0    0 -0.48692490951E+02  0.51928662041E+02  0.36732050104E+03  0.39448420851E+03  0.12500358259E+03 0.  0.
         23    2    1    2    0    0  0.48692490951E+02 -0.51928662041E+02  0.33585872360E+03  0.35396260430E+03  0.86144636561E+02 0.  0.
          5    1    4    4  502    0  0.28076694605E+02  0.20758480764E+02  0.12750377359E+03  0.13228196242E+03  0.47000000000E+01 0. -1.
         -5    1    3    3    0  503  0.40089279454E+02  0.11153302397E+01  0.12673161377E+03  0.13300897044E+03  0.47000000000E+01 0. -1.
          5    1    3    3  503    0 -0.88781770405E+02  0.50813331801E+02  0.24058888727E+03  0.26147523807E+03  0.47000000000E+01 0. -1.
         -5    1    4    4    0  502  0.20615796347E+02 -0.72687142805E+02  0.20835495002E+03  0.22168064188E+03  0.47000000000E+01 0.  1.
<mgrwt>
<rscale>  0 0.13505193E+03</rscale>
<asrwt>0</asrwt>
<pdfrwt beam="1">  1        1 0.11166352E+00 0.14385215E+03</pdfrwt>
<pdfrwt beam="2">  1       -1 0.34821227E-02 0.14385215E+03</pdfrwt>
<totfact> 0.78028081E+03</totfact>
</mgrwt>
</event>
<event>
 8    1  0.3572165E-004  0.1565285E+03  0.7546771E-02  0.1200573E+00
         -1   -1    0    0    0  501 -0.00000000000E+00  0.00000000000E+00  0.76982436761E+02  0.76982436761E+02  0.00000000000E+00 0.  1.
          1   -1    0    0  501    0  0.00000000000E+00 -0.00000000000E+00 -0.28168340429E+03  0.28168340429E+03  0.00000000000E+00 0. -1.
         25    2    1    2    0    0 -0.89302871347E+02  0.30014041181E+02 -0.14745982013E+03  0.21504782960E+03  0.12500129985E+03 0.  0.
         23    2    1    2    0    0  0.89302871347E+02 -0.30014041181E+02 -0.57241147402E+02  0.14361801145E+03  0.92052912823E+02 0.  0.
          5    1    3    3  502    0 -0.34224547958E+02  0.64531489062E+02 -0.12727749986E+03  0.14682399237E+03  0.47000000000E+01 0. -1.
         -5    1    4    4    0  503  0.38970074071E+02  0.21054537104E+02  0.95031849137E+01  0.45545150448E+02  0.47000000000E+01 0.  1.
          5    1    4    4  503    0  0.50332797276E+02 -0.51068578285E+02 -0.66744332316E+02  0.98072861006E+02  0.47000000000E+01 0. -1.
         -5    1    3    3    0  502 -0.55078323389E+02 -0.34517447881E+02 -0.20182320271E+02  0.68223837235E+02  0.47000000000E+01 0. -1.
<mgrwt>
<rscale>  0 0.14991883E+03</rscale>
<asrwt>0</asrwt>
<pdfrwt beam="1">  1        1 0.43335909E-01 0.15652850E+03</pdfrwt>
<pdfrwt beam="2">  1       -1 0.11843452E-01 0.15652850E+03</pdfrwt>
<totfact> 0.43010120E+03</totfact>
</mgrwt>
</event>
<event>
 8    1  0.3572165E-004  0.1296587E+03  0.7546771E-02  0.1242292E+00
         -1   -1    0    0    0  501 -0.00000000000E+00  0.00000000000E+00  0.30780689385E+02  0.30780689385E+02  0.00000000000E+00 0.  1.
          1   -1    0    0  501    0  0.00000000000E+00 -0.00000000000E+00 -0.41689698317E+03  0.41689698317E+03  0.00000000000E+00 0. -1.
         25    2    1    2    0    0 -0.34331755292E+02  0.29720775038E+01 -0.23066925786E+03  0.26461233904E+03  0.12499552305E+03 0.  0.
         23    2    1    2    0    0  0.34331755292E+02 -0.29720775038E+01 -0.15544703592E+03  0.18306533351E+03  0.90341754972E+02 0.  0.
          5    1    3    3  502    0 -0.55459123543E+02 -0.31265333894E+02 -0.20929366921E+03  0.21881308338E+03  0.47000000000E+01 0.  1.
         -5    1    3    3    0  502  0.21127368251E+02  0.34237411397E+02 -0.21375588649E+02  0.45799255654E+02  0.47000000000E+01 0.  1.
          5    1    4    4  503    0 -0.24852104736E+02  0.59143035224E+01 -0.14228242886E+02  0.29616532404E+02  0.47000000000E+01 0. -1.
         -5    1    4    4    0  503  0.59183860029E+02 -0.88863810262E+01 -0.14121879304E+03  0.15344880111E+03  0.47000000000E+01 0.  1.
<mgrwt>
<rscale>  0 0.12048909E+03</rscale>
<asrwt>0</asrwt>
<pdfrwt beam="1">  1        1 0.64138000E-01 0.12965872E+03</pdfrwt>
<pdfrwt beam="2">  1       -1 0.47354905E-02 0.12965872E+03</pdfrwt>
<totfact> 0.10372067E+04</totfact>
</mgrwt>
</event>
<event>
 8    1  0.3572165E-004  0.1595969E+03  0.7546771E-02  0.1196887E+00
          2   -1    0    0  501    0  0.00000000000E+00  0.00000000000E+00  0.53939870450E+03  0.53939870450E+03  0.00000000000E+00 0.  1.
         -2   -1    0    0    0  501 -0.00000000000E+00 -0.00000000000E+00 -0.51602922337E+02  0.51602922337E+02  0.00000000000E+00 0. -1.
         25    2    1    2    0    0 -0.33544154883E+02  0.93385746705E+02  0.12102066302E+03  0.20029270835E+03  0.12500024050E+03 0.  0.
         23    2    1    2    0    0  0.33544154883E+02 -0.93385746705E+02  0.36677511914E+03  0.39070891849E+03  0.91012982324E+02 0.  0.
          5    1    3    3  502    0  0.27525437384E+00  0.11492615383E+03  0.67888094023E+02  0.13356264414E+03  0.47000000000E+01 0. -1.
         -5    1    3    3    0  502 -0.33819409257E+02 -0.21540407121E+02  0.53132568998E+02  0.66730064212E+02  0.47000000000E+01 0. -1.
          5    1    4    4  503    0 -0.77094983259E+01 -0.51689602372E+02  0.66430425082E+02  0.84654254083E+02  0.47000000000E+01 0. -1.
         -5    1    4    4    0  503  0.41253653209E+02 -0.41696144334E+02  0.30034469406E+03  0.30605466441E+03  0.47000000000E+01 0.  1.
<mgrwt>
<rscale>  0 0.15295598E+03</rscale>
<asrwt>0</asrwt>
<pdfrwt beam="1">  1        2 0.82984412E-01 0.15959689E+03</pdfrwt>
<pdfrwt beam="2">  1       -2 0.79389115E-02 0.15959689E+03</pdfrwt>
<totfact> 0.53122539E+03</totfact>
</mgrwt>
</event>
<event>
 8    1  0.3572165E-004  0.1379168E+03  0.7546771E-02  0.1228874E+00
         -1   -1    0    0    0  501 -0.00000000000E+00  0.00000000000E+00  0.31240740166E+02  0.31240740166E+02  0.00000000000E+00 0.  1.
          1   -1    0    0  501    0  0.00000000000E+00 -0.00000000000E+00 -0.82510970674E+03  0.82510970674E+03  0.00000000000E+00 0. -1.
         25    2    1    2    0    0  0.39146878372E+02 -0.43165096371E+02 -0.14963144099E+03  0.20349596396E+03  0.12500134233E+03 0.  0.
         23    2    1    2    0    0 -0.39146878372E+02  0.43165096371E+02 -0.64423752559E+03  0.65285448295E+03  0.88211580286E+02 0.  0.
          5    1    3    3  502    0  0.27943688375E+02  0.37178676043E+02 -0.94114199566E+02  0.10508413882E+03  0.47000000000E+01 0.  1.
         -5    1    4    4    0  503 -0.64913588180E+02  0.21404231156E+02 -0.34913789359E+03  0.35579667478E+03  0.47000000000E+01 0.  1.
          5    1    4    4  503    0  0.25766709808E+02  0.21760865215E+02 -0.29509963200E+03  0.29705780817E+03  0.47000000000E+01 0. -1.
         -5    1    3    3    0  502  0.11203189997E+02 -0.80343772414E+02 -0.55517241423E+02  0.98411825138E+02  0.47000000000E+01 0.  1.
<mgrwt>
<rscale>  0 0.12904864E+03</rscale>
<asrwt>0</asrwt>
<pdfrwt beam="1">  1        1 0.12693996E+00 0.13791678E+03</pdfrwt>
<pdfrwt beam="2">  1       -1 0.48062675E-02 0.13791678E+03</pdfrwt>
<totfact> 0.40054767E+03</totfact>
</mgrwt>
</event>
<event>
 8    1  0.3572165E-004  0.1334111E+03  0.7546771E-02  0.1234893E+00
         -1   -1    0    0    0  501 -0.00000000000E+00  0.00000000000E+00  0.11975191864E+02  0.11975191864E+02  0.00000000000E+00 0.  1.
          1   -1    0    0  501    0  0.00000000000E+00 -0.00000000000E+00 -0.12149818022E+04  0.12149818022E+04  0.00000000000E+00 0. -1.
         25    2    1    2    0    0  0.21451942792E+02 -0.41386409551E+02 -0.79426460278E+03  0.80539107138E+03  0.12500199151E+03 0.  0.
         23    2    1    2    0    0 -0.21451942792E+02  0.41386409551E+02 -0.40874200756E+03  0.42156592269E+03  0.92058555731E+02 0.  0.
          5    1    4    4  502    0 -0.49899151602E+02  0.14394067306E+02 -0.32277605063E+03  0.32696113433E+03  0.47000000000E+01 0. -1.
         -5    1    4    4    0  502  0.28447208810E+02  0.26992342245E+02 -0.85965956931E+02  0.94604788357E+02  0.47000000000E+01 0.  1.
          5    1    3    3  503    0  0.43771165961E+02  0.30991270670E+02 -0.24058419560E+03  0.24653441747E+03  0.47000000000E+01 0.  1.
         -5    1    3    3    0  503 -0.22319223169E+02 -0.72377680221E+02 -0.55368040718E+03  0.55885665390E+03  0.47000000000E+01 0.  1.
<mgrwt>
<rscale>  0 0.12511271E+03</rscale>
<asrwt>0</asrwt>
<pdfrwt beam="1">  1        1 0.18692029E+00 0.13341109E+03</pdfrwt>
<pdfrwt beam="2">  1       -1 0.18423370E-02 0.13341109E+03</pdfrwt>
<totfact> 0.83864648E+03</totfact>
</mgrwt>
</event>
<event>
 8    1  0.3572165E-004  0.2005703E+03  0.7546771E-02  0.1153458E+00
         -2   -1    0    0    0  501 -0.00000000000E+00  0.00000000000E+00  0.93238958000E+02  0.93238958000E+02  0.00000000000E+00 0.  1.
          2   -1    0    0  501    0  0.00000000000E+00 -0.00000000000E+00 -0.39173211438E+03  0.39173211438E+03  0.00000000000E+00 0. -1.
         25    2    1    2    0    0  0.10369670466E+03 -0.11768435152E+03 -0.15311228358E+03  0.25233274325E+03  0.12500331509E+03 0.  0.
         23    2    1    2    0    0 -0.10369670466E+03  0.11768435152E+03 -0.14538087280E+03  0.23263832913E+03  0.91555343111E+02 0.  0.
          5    1    4    4  502    0  0.81283420304E+01  0.20979270369E+02 -0.54214030586E+02  0.58885064675E+02  0.47000000000E+01 0. -1.
         -5    1    4    4    0  502 -0.11182504669E+03  0.96705081156E+02 -0.91166842211E+02  0.17375326445E+03  0.47000000000E+01 0.  1.
          5    1    3    3  503    0  0.48925605460E+02  0.14192538443E+02 -0.14279864181E+02  0.53114475787E+02  0.47000000000E+01 0.  1.
         -5    1    3    3    0  503  0.54771099201E+02 -0.13187688997E+03 -0.13883241940E+03  0.19921826747E+03  0.47000000000E+01 0.  1.
<mgrwt>
<rscale>  0 0.19565435E+03</rscale>
<asrwt>0</asrwt>
<pdfrwt beam="1">  1        2 0.60266480E-01 0.20057029E+03</pdfrwt>
<pdfrwt beam="2">  1       -2 0.14344455E-01 0.20057029E+03</pdfrwt>
<totfact> 0.29706038E+03</totfact>
</mgrwt>
</event>
<event>
 8    1  0.3572165E-004  0.1276362E+03  0.7546771E-02  0.1246324E+00
          2   -1    0    0  501    0  0.00000000000E+00  0.00000000000E+00  0.21367707776E+02  0.21367707776E+02  0.00000000000E+00 0. -1.
         -2   -1    0    0    0  501 -0.00000000000E+00 -0.00000000000E+00 -0.58186900331E+03  0.58186900331E+03  0.00000000000E+00 0.  1.
         25    2    1    2    0    0  0.24237268227E+02 -0.85589466380E+01 -0.36194146335E+03  0.38378720522E+03  0.12502117925E+03 0.  0.
         23    2    1    2    0    0 -0.24237268227E+02  0.85589466380E+01 -0.19855983218E+03  0.21944950586E+03  0.89840847774E+02 0.  0.
          5    1    3    3  502    0  0.71779865128E+02 -0.70920901031E+01 -0.14979196506E+03  0.16632008170E+03  0.47000000000E+01 0. -1.
         -5    1    4    4    0  503  0.73971110571E+01  0.22695132418E+02 -0.17636203785E+03  0.17803214508E+03  0.47000000000E+01 0.  1.
          5    1    4    4  503    0 -0.31634379284E+02 -0.14136185780E+02 -0.22197794334E+02  0.41417360785E+02  0.47000000000E+01 0. -1.
         -5    1    3    3    0  502 -0.47542596901E+02 -0.14668565349E+01 -0.21214949829E+03  0.21746712352E+03  0.47000000000E+01 0. -1.
<mgrwt>
<rscale>  0 0.11806470E+03</rscale>
<asrwt>0</asrwt>
<pdfrwt beam="1">  1        2 0.32873395E-02 0.12763619E+03</pdfrwt>
<pdfrwt beam="2">  1       -2 0.89518313E-01 0.12763619E+03</pdfrwt>
<totfact> 0.29059068E+03</totfact>
</mgrwt>
</event>
<event>
 8    1  0.3572165E-004  0.1381592E+03  0.7546771E-02  0.1227286E+00
          2   -1    0    0  501    0  0.00000000000E+00  0.00000000000E+00  0.70876601950E+03  0.70876601950E+03  0.00000000000E+00 0. -1.
         -2   -1    0    0    0  501 -0.00000000000E+00 -0.00000000000E+00 -0.34229711073E+02  0.34229711073E+02  0.00000000000E+00 0.  1.
         25    2    1    2    0    0  0.46025144287E+02  0.36651558903E+02  0.58816017125E+03  0.60416915205E+03  0.12500530618E+03 0.  0.
         23    2    1    2    0    0 -0.46025144287E+02 -0.36651558903E+02  0.86376137177E+02  0.13882657852E+03  0.91380146383E+02 0.  0.
          5    1    3    3  502    0  0.64928409762E+02  0.44801701316E+02  0.57237844922E+03  0.57780798711E+03  0.47000000000E+01 0. -1.
         -5    1    3    3    0  502 -0.18903265475E+02 -0.81501424128E+01  0.15781722025E+02  0.26361164941E+02  0.47000000000E+01 0. -1.
          5    1    4    4  503    0 -0.63106874366E+02 -0.94789335415E+01  0.84955806490E+02  0.10635744840E+03  0.47000000000E+01 0. -1.
         -5    1    4    4    0  503  0.17081730079E+02 -0.27172625362E+02  0.14203306865E+01  0.32469130121E+02  0.47000000000E+01 0.  1.
<mgrwt>
<rscale>  0 0.13011438E+03</rscale>
<asrwt>0</asrwt>
<pdfrwt beam="1">  1        2 0.10904091E+00 0.13815925E+03</pdfrwt>
<pdfrwt beam="2">  1       -2 0.52661099E-02 0.13815925E+03</pdfrwt>
<totfact> 0.72041319E+03</totfact>
</mgrwt>
</event>
<event>
 8    1  0.3572165E-004  0.1260527E+03  0.7546771E-02  0.1249251E+00
          1   -1    0    0  501    0  0.00000000000E+00  0.00000000000E+00  0.82405874387E+02  0.82405874387E+02  0.00000000000E+00 0. -1.
         -1   -1    0    0    0  501 -0.00000000000E+00 -0.00000000000E+00 -0.14385219122E+03  0.14385219122E+03  0.00000000000E+00 0.  1.
         25    2    1    2    0    0 -0.15305506716E+02  0.54942821595E+01 -0.30586006527E+02  0.12971036100E+03  0.12499931313E+03 0.  0.
         23    2    1    2    0    0  0.15305506716E+02 -0.54942821595E+01 -0.30860310309E+02  0.96547704608E+02  0.90025856511E+02 0.  0.
          5    1    4    4  502    0 -0.26508618455E+02 -0.10436860994E+02  0.16295482271E+02  0.33155205658E+02  0.47000000000E+01 0. -1.
         -5    1    4    4    0  502  0.41814125170E+02  0.49425788348E+01 -0.47155792580E+02  0.63392498950E+02  0.47000000000E+01 0.  1.
          5    1    3    3  503    0  0.46944577509E+02 -0.17410066023E+02  0.10733713414E+02  0.51421847109E+02  0.47000000000E+01 0.  1.
         -5    1    3    3    0  503 -0.62250084224E+02  0.22904348182E+02 -0.41319719941E+02  0.78288513893E+02  0.47000000000E+01 0.  1.
<mgrwt>
<rscale>  0 0.11634531E+03</rscale>
<asrwt>0</asrwt>
<pdfrwt beam="1">  1        1 0.12677827E-01 0.12605266E+03</pdfrwt>
<pdfrwt beam="2">  1       -1 0.22131106E-01 0.12605266E+03</pdfrwt>
<totfact> 0.74776743E+03</totfact>
</mgrwt>
</event>
<event>
 8    1  0.3572165E-004  0.2559809E+03  0.7546771E-02  0.1111930E+00
          1   -1    0    0  501    0  0.00000000000E+00  0.00000000000E+00  0.16033033654E+03  0.16033033654E+03  0.00000000000E+00 0. -1.
         -1   -1    0    0    0  501 -0.00000000000E+00 -0.00000000000E+00 -0.38550415662E+03  0.38550415662E+03  0.00000000000E+00 0.  1.
         25    2    1    2    0    0 -0.10210177469E+03 -0.19868892755E+03 -0.11050869572E+03  0.27881604735E+03  0.12499661638E+03 0.  0.
         23    2    1    2    0    0  0.10210177469E+03  0.19868892755E+03 -0.11466512435E+03  0.26701844581E+03  0.90822339399E+02 0.  0.
          5    1    4    4  502    0  0.65573072957E+02  0.11577788046E+03 -0.17838164099E+02  0.13433032271E+03  0.47000000000E+01 0. -1.
         -5    1    4    4    0  502  0.36528701733E+02  0.82911047087E+02 -0.96826960253E+02  0.13268812310E+03  0.47000000000E+01 0.  1.
          5    1    3    3  503    0 -0.59040420762E+02 -0.17282276395E+03 -0.13053689032E+03  0.22453384769E+03  0.47000000000E+01 0.  1.
         -5    1    3    3    0  503 -0.43061353927E+02 -0.25866163597E+02  0.20028194599E+02  0.54282199662E+02  0.47000000000E+01 0.  1.
<mgrwt>
<rscale>  0 0.25218839E+03</rscale>
<asrwt>0</asrwt>
<pdfrwt beam="1">  1        1 0.24666206E-01 0.25598089E+03</pdfrwt>
<pdfrwt beam="2">  1       -1 0.59308332E-01 0.25598089E+03</pdfrwt>
<totfact> 0.58015094E+02</totfact>
</mgrwt>
</event>
<event>
 8    1  0.3572165E-004  0.1815903E+03  0.7546771E-02  0.1171903E+00
         -1   -1    0    0    0  501 -0.00000000000E+00  0.00000000000E+00  0.24773660653E+02  0.24773660653E+02  0.00000000000E+00 0.  1.
          1   -1    0    0  501    0  0.00000000000E+00 -0.00000000000E+00 -0.12382009606E+04  0.12382009606E+04  0.00000000000E+00 0. -1.
         25    2    1    2    0    0 -0.13157014066E+03  0.64792170076E+01 -0.50121808663E+03  0.53309905381E+03  0.12498939413E+03 0.  0.
         23    2    1    2    0    0  0.13157014066E+03 -0.64792170076E+01 -0.71220921334E+03  0.72987556747E+03  0.90131560758E+02 0.  0.
          5    1    3    3  502    0 -0.14131860925E+03  0.26976106853E+02 -0.48185572765E+03  0.50289729760E+03  0.47000000000E+01 0.  1.
         -5    1    3    3    0  502  0.97484685879E+01 -0.20496889846E+02 -0.19362358976E+02  0.30201756212E+02  0.47000000000E+01 0.  1.
          5    1    4    4  503    0  0.48836824142E+02 -0.10935696002E+02 -0.49178513801E+03  0.49434738475E+03  0.47000000000E+01 0. -1.
         -5    1    4    4    0  503  0.82733316522E+02  0.44564789945E+01 -0.22042407533E+03  0.23552818272E+03  0.47000000000E+01 0.  1.
<mgrwt>
<rscale>  0 0.17582745E+03</rscale>
<asrwt>0</asrwt>
<pdfrwt beam="1">  1        1 0.19049245E+00 0.18159028E+03</pdfrwt>
<pdfrwt beam="2">  1       -1 0.38113325E-02 0.18159028E+03</pdfrwt>
<totfact> 0.28310661E+03</totfact>
</mgrwt>
</event>
<event>
 8    1  0.3572165E-004  0.1715387E+03  0.7546771E-02  0.1182503E+00
         -2   -1    0    0    0  501 -0.00000000000E+00  0.00000000000E+00  0.33058867705E+02  0.33058867705E+02  0.00000000000E+00 0. -1.
          2   -1    0    0  501    0  0.00000000000E+00 -0.00000000000E+00 -0.78479223103E+03  0.78479223103E+03  0.00000000000E+00 0.  1.
         25    2    1    2    0    0  0.10516132319E+03  0.52302531126E+02 -0.36170836473E+03  0.40032297327E+03  0.12502433025E+03 0.  0.
         23    2    1    2    0    0 -0.10516132319E+03 -0.52302531126E+02 -0.39002499859E+03  0.41752812546E+03  0.91737546113E+02 0.  0.
          5    1    3    3  502    0  0.30274756893E+02 -0.36784503933E+02 -0.16411751581E+03  0.17095704030E+03  0.47000000000E+01 0.  1.
         -5    1    4    4    0  503 -0.27073804786E+02  0.23517088363E+02 -0.14380454154E+03  0.14828310935E+03  0.47000000000E+01 0.  1.
          5    1    4    4  503    0 -0.78087518405E+02 -0.75819619489E+02 -0.24622045705E+03  0.26924501611E+03  0.47000000000E+01 0. -1.
         -5    1    3    3    0  502  0.74886566298E+02  0.89087035059E+02 -0.19759084892E+03  0.22936593297E+03  0.47000000000E+01 0.  1.
<mgrwt>
<rscale>  0 0.16561163E+03</rscale>
<asrwt>0</asrwt>
<pdfrwt beam="1">  1        2 0.12073725E+00 0.17153875E+03</pdfrwt>
<pdfrwt beam="2">  1       -2 0.50859802E-02 0.17153875E+03</pdfrwt>
<totfact> 0.67788018E+03</totfact>
</mgrwt>
</event>
<event>
 8    1  0.3572165E-004  0.1323789E+03  0.7546771E-02  0.1237470E+00
          1   -1    0    0  501    0  0.00000000000E+00  0.00000000000E+00  0.26690139134E+03  0.26690139134E+03  0.00000000000E+00 0. -1.
         -1   -1    0    0    0  501 -0.00000000000E+00 -0.00000000000E+00 -0.67108671081E+02  0.67108671081E+02  0.00000000000E+00 0.  1.
         25    2    1    2    0    0 -0.17912312387E+02 -0.39768419643E+02  0.28271620382E+02  0.13536413765E+03  0.12498714776E+03 0.  0.
         23    2    1    2    0    0  0.17912312387E+02  0.39768419643E+02  0.17152109988E+03  0.19864592478E+03  0.90212735196E+02 0.  0.
          5    1    4    4  502    0  0.25116935147E+02 -0.23409001540E+02  0.79171167456E+02  0.86423408522E+02  0.47000000000E+01 0. -1.
         -5    1    3    3    0  503 -0.53958526746E+02  0.43277962604E+01  0.50371260043E+02  0.74091877203E+02  0.47000000000E+01 0.  1.
          5    1    3    3  503    0  0.36046214359E+02 -0.44096215903E+02 -0.22099639662E+02  0.61272260443E+02  0.47000000000E+01 0.  1.
         -5    1    4    4    0  502 -0.72046227602E+01  0.63177421182E+02  0.92349932425E+02  0.11222251626E+03  0.47000000000E+01 0.  1.
<mgrwt>
<rscale>  0 0.12347658E+03</rscale>
<asrwt>0</asrwt>
<pdfrwt beam="1">  1        1 0.41061752E-01 0.13237887E+03</pdfrwt>
<pdfrwt beam="2">  1       -1 0.10324411E-01 0.13237887E+03</pdfrwt>
<totfact> 0.56248495E+03</totfact>
</mgrwt>
</event>
<event>
 8    1  0.3572165E-004  0.2411717E+03  0.7546771E-02  0.1121795E+00
         -1   -1    0    0    0  501 -0.00000000000E+00  0.00000000000E+00  0.20018897092E+03  0.20018897092E+03  0.00000000000E+00 0.  1.
          1   -1    0    0  501    0  0.00000000000E+00 -0.00000000000E+00 -0.49056807062E+03  0.49056807062E+03  0.00000000000E+00 0. -1.
         25    2    1    2    0    0  0.89142469546E+02  0.18599093077E+03  0.82811944539E+02  0.25499330980E+03  0.12499905472E+03 0.  0.
         23    2    1    2    0    0 -0.89142469546E+02 -0.18599093077E+03 -0.37319104424E+03  0.43576373174E+03  0.89885862042E+02 0.  0.
          5    1    4    4  502    0 -0.91765907867E+02 -0.89948685131E+02 -0.20415283199E+03  0.24127208006E+03  0.47000000000E+01 0. -1.
         -5    1    4    4    0  502  0.26234383210E+01 -0.96042245641E+02 -0.16903821224E+03  0.19449165168E+03  0.47000000000E+01 0.  1.
          5    1    3    3  503    0  0.87620193810E+02  0.55051826408E+02  0.74942282972E+01  0.10385689872E+03  0.47000000000E+01 0.  1.
         -5    1    3    3    0  503  0.15222757354E+01  0.13093910436E+03  0.75317716242E+02  0.15113641108E+03  0.47000000000E+01 0.  1.
<mgrwt>
<rscale>  0 0.23701910E+03</rscale>
<asrwt>0</asrwt>
<pdfrwt beam="1">  1        1 0.75472011E-01 0.24117166E+03</pdfrwt>
<pdfrwt beam="2">  1       -1 0.30798303E-01 0.24117166E+03</pdfrwt>
<totfact> 0.45590691E+02</totfact>
</mgrwt>
</event>
<event>
 8    1  0.3572165E-004  0.3527576E+03  0.7546771E-02  0.1062583E+00
         -2   -1    0    0    0  501 -0.00000000000E+00  0.00000000000E+00  0.51652911176E+02  0.51652911176E+02  0.00000000000E+00 0.  1.
          2   -1    0    0  501    0  0.00000000000E+00 -0.00000000000E+00 -0.28148334174E+04  0.28148334174E+04  0.00000000000E+00 0. -1.
         25    2    1    2    0    0 -0.32004181486E+03 -0.79913486942E+02 -0.80879788803E+03  0.88237858105E+03  0.12500003184E+03 0.  0.
         23    2    1    2    0    0  0.32004181486E+03  0.79913486942E+02 -0.19543826182E+04  0.19841077475E+04  0.90880178423E+02 0.  0.
          5    1    4    4  502    0  0.54163003689E+02 -0.37071848684E+01 -0.52321535504E+03  0.52604540862E+03  0.47000000000E+01 0. -1.
         -5    1    4    4    0  502  0.26587881117E+03  0.83620671811E+02 -0.14311672631E+04  0.14580623389E+04  0.47000000000E+01 0.  1.
          5    1    3    3  503    0 -0.48172877048E+02  0.30528756138E+02 -0.17039207623E+03  0.17974476537E+03  0.47000000000E+01 0.  1.
         -5    1    3    3    0  503 -0.27186893781E+03 -0.11044224308E+03 -0.63840581179E+03  0.70263381568E+03  0.47000000000E+01 0.  1.
<mgrwt>
<rscale>  0 0.35007733E+03</rscale>
<asrwt>0</asrwt>
<pdfrwt beam="1">  1        2 0.43305149E+00 0.35275762E+03</pdfrwt>
<pdfrwt beam="2">  1       -2 0.79465982E-02 0.35275762E+03</pdfrwt>
<totfact> 0.25046208E+02</totfact>
</mgrwt>
</event>
<event>
 8    1  0.3572165E-004  0.3513903E+03  0.7546771E-02  0.1063075E+00
         -2   -1    0    0    0  501 -0.00000000000E+00  0.00000000000E+00  0.44252391210E+02  0.44252391210E+02  0.00000000000E+00 0. -1.
          2   -1    0    0  501    0  0.00000000000E+00 -0.00000000000E+00 -0.28963484529E+04  0.28963484529E+04  0.00000000000E+00 0.  1.
         25    2    1    2    0    0  0.32242133178E+03 -0.62399489860E+02 -0.18161548893E+04  0.18498361269E+04  0.12500361156E+03 0.  0.
         23    2    1    2    0    0 -0.32242133178E+03  0.62399489860E+02 -0.10359411723E+04  0.10907647172E+04  0.93511198019E+02 0.  0.
          5    1    3    3  502    0  0.13790174303E+03 -0.59849146870E+02 -0.11016961587E+04  0.11119151619E+04  0.47000000000E+01 0.  1.
         -5    1    4    4    0  503 -0.20673082625E+03  0.71735318319E+02 -0.57044220264E+03  0.61099098764E+03  0.47000000000E+01 0.  1.
          5    1    4    4  503    0 -0.11569050552E+03 -0.93358284589E+01 -0.46549896969E+03  0.47977372953E+03  0.47000000000E+01 0. -1.
         -5    1    3    3    0  502  0.18451958874E+03 -0.25503429902E+01 -0.71445873062E+03  0.73792096503E+03  0.47000000000E+01 0.  1.
<mgrwt>
<rscale>  0 0.34888043E+03</rscale>
<asrwt>0</asrwt>
<pdfrwt beam="1">  1        2 0.44559215E+00 0.35139026E+03</pdfrwt>
<pdfrwt beam="2">  1       -2 0.68080589E-02 0.35139026E+03</pdfrwt>
<totfact> 0.28625895E+02</totfact>
</mgrwt>
</event>
<event>
 8    1  0.3572165E-004  0.2081041E+03  0.7546771E-02  0.1146755E+00
          2   -1    0    0  501    0  0.00000000000E+00  0.00000000000E+00  0.12681407618E+04  0.12681407618E+04  0.00000000000E+00 0. -1.
         -2   -1    0    0    0  501 -0.00000000000E+00 -0.00000000000E+00 -0.31371042338E+02  0.31371042338E+02  0.00000000000E+00 0.  1.
         25    2    1    2    0    0 -0.16066284344E+03  0.43246074908E+02  0.66746052720E+03  0.69915010628E+03  0.12499817394E+03 0.  0.
         23    2    1    2    0    0  0.16066284344E+03 -0.43246074908E+02  0.56930919225E+03  0.60036169784E+03  0.92943206319E+02 0.  0.
          5    1    3    3  502    0 -0.64535010376E+02 -0.52061517712E+01  0.85781089231E+02  0.10757488950E+03  0.47000000000E+01 0.  1.
         -5    1    3    3    0  502 -0.96127833061E+02  0.48452226680E+02  0.58167943796E+03  0.59157521678E+03  0.47000000000E+01 0.  1.
          5    1    4    4  503    0  0.71171014862E+02 -0.14142705147E+02  0.40040537055E+03  0.40695439576E+03  0.47000000000E+01 0. -1.
         -5    1    4    4    0  503  0.89491828575E+02 -0.29103369761E+02  0.16890382170E+03  0.19340730208E+03  0.47000000000E+01 0.  1.
<mgrwt>
<rscale>  0 0.20357785E+03</rscale>
<asrwt>0</asrwt>
<pdfrwt beam="1">  1        2 0.19509854E+00 0.20810410E+03</pdfrwt>
<pdfrwt beam="2">  1       -2 0.48263152E-02 0.20810410E+03</pdfrwt>
<totfact> 0.37601795E+03</totfact>
</mgrwt>
</event>
<event>
 8    1  0.3572165E-004  0.1263333E+03  0.7546771E-02  0.1253647E+00
          1   -1    0    0  501    0  0.00000000000E+00  0.00000000000E+00  0.58253421984E+03  0.58253421984E+03  0.00000000000E+00 0. -1.
         -1   -1    0    0    0  501 -0.00000000000E+00 -0.00000000000E+00 -0.22726529844E+02  0.22726529844E+02  0.00000000000E+00 0.  1.
         25    2    1    2    0    0 -0.11993792972E+02 -0.13781148823E+02  0.45039087320E+03  0.46777349427E+03  0.12500532849E+03 0.  0.
         23    2    1    2    0    0  0.11993792972E+02  0.13781148823E+02  0.10941681680E+03  0.13748725541E+03  0.81221514822E+02 0.  0.
          5    1    4    4  502    0  0.21727148091E+02 -0.11712861837E+02  0.10675135714E+03  0.10966860238E+03  0.47000000000E+01 0. -1.
         -5    1    3    3    0  503  0.48761561790E+02 -0.29013832669E+01  0.31630405987E+03  0.32008820069E+03  0.47000000000E+01 0. -1.
          5    1    3    3  503    0 -0.60755354762E+02 -0.10879765556E+02  0.13408681333E+03  0.14768529358E+03  0.47000000000E+01 0. -1.
         -5    1    4    4    0  502 -0.97333551188E+01  0.25494010660E+02  0.26654596581E+01  0.27818653033E+02  0.47000000000E+01 0.  1.
<mgrwt>
<rscale>  0 0.11382445E+03</rscale>
<asrwt>0</asrwt>
<pdfrwt beam="1">  1        1 0.89620638E-01 0.12633330E+03</pdfrwt>
<pdfrwt beam="2">  1       -1 0.34963896E-02 0.12633330E+03</pdfrwt>
<totfact> 0.10455724E+04</totfact>
</mgrwt>
</event>
<event>
 8    1  0.3572165E-004  0.1292338E+03  0.7546771E-02  0.1242525E+00
          1   -1    0    0  501    0  0.00000000000E+00  0.00000000000E+00  0.77169842518E+02  0.77169842518E+02  0.00000000000E+00 0. -1.
         -1   -1    0    0    0  501 -0.00000000000E+00 -0.00000000000E+00 -0.18661593573E+03  0.18661593573E+03  0.00000000000E+00 0.  1.
         25    2    1    2    0    0  0.94055719797E+01  0.31400745257E+02 -0.10496916681E+03  0.16649292202E+03  0.12500758183E+03 0.  0.
         23    2    1    2    0    0 -0.94055719797E+01 -0.31400745257E+02 -0.44769263980E+01  0.97292856228E+02  0.91495275376E+02 0.  0.
          5    1    3    3  502    0 -0.56892423811E+02  0.17218999104E+02 -0.35924182628E+02  0.69612345994E+02  0.47000000000E+01 0. -1.
         -5    1    4    4    0  503  0.24814628368E+02 -0.22732530702E+02 -0.36164592022E+02  0.49623597706E+02  0.47000000000E+01 0.  1.
          5    1    4    4  503    0 -0.34220200347E+02 -0.86682145546E+01  0.31687665624E+02  0.47669258523E+02  0.47000000000E+01 0. -1.
         -5    1    3    3    0  502  0.66297995791E+02  0.14181746152E+02 -0.69044984183E+02  0.96880576023E+02  0.47000000000E+01 0. -1.
<mgrwt>
<rscale>  0 0.12034753E+03</rscale>
<asrwt>0</asrwt>
<pdfrwt beam="1">  1        1 0.11872283E-01 0.12923377E+03</pdfrwt>
<pdfrwt beam="2">  1       -1 0.28710144E-01 0.12923377E+03</pdfrwt>
<totfact> 0.53239855E+03</totfact>
</mgrwt>
</event>
<event>
 8    1  0.3572165E-004  0.1251309E+03  0.7546771E-02  0.1249760E+00
          2   -1    0    0  501    0  0.00000000000E+00  0.00000000000E+00  0.34551364270E+03  0.34551364270E+03  0.00000000000E+00 0. -1.
         -2   -1    0    0    0  501 -0.00000000000E+00 -0.00000000000E+00 -0.40593869884E+02  0.40593869884E+02  0.00000000000E+00 0.  1.
         25    2    1    2    0    0 -0.50292789592E+01 -0.27159980451E+01  0.24706084811E+03  0.27694186358E+03  0.12500025137E+03 0.  0.
         23    2    1    2    0    0  0.50292789592E+01  0.27159980451E+01  0.57858924708E+02  0.10916564901E+03  0.92394877902E+02 0.  0.
          5    1    3    3  502    0  0.22842840938E+02 -0.11866105547E+02 -0.18803807625E+01  0.26234055629E+02  0.47000000000E+01 0. -1.
         -5    1    4    4    0  503  0.12788760042E+02 -0.36646829215E+02  0.56549935262E+02  0.68749746568E+02  0.47000000000E+01 0. -1.
          5    1    4    4  503    0 -0.77594810830E+01  0.39362827260E+02  0.13089894461E+01  0.40415902439E+02  0.47000000000E+01 0.  1.
         -5    1    3    3    0  502 -0.27872119897E+02  0.91501075015E+01  0.24894122887E+03  0.25070780795E+03  0.47000000000E+01 0. -1.
<mgrwt>
<rscale>  0 0.11604934E+03</rscale>
<asrwt>0</asrwt>
<pdfrwt beam="1">  1        2 0.53155943E-01 0.12513086E+03</pdfrwt>
<pdfrwt beam="2">  1       -2 0.62452110E-02 0.12513086E+03</pdfrwt>
<totfact> 0.12231127E+04</totfact>
</mgrwt>
</event>
<event>
 8    1  0.3572165E-004  0.1301905E+03  0.7546771E-02  0.1241098E+00
         -1   -1    0    0    0  501 -0.00000000000E+00  0.00000000000E+00  0.35608509616E+02  0.35608509616E+02  0.00000000000E+00 0.  1.
          1   -1    0    0  501    0  0.00000000000E+00 -0.00000000000E+00 -0.43021833586E+03  0.43021833586E+03  0.00000000000E+00 0. -1.
         25    2    1    2    0    0  0.13701878423E+02  0.33717178772E+02 -0.13121048718E+03  0.18483984593E+03  0.12499994833E+03 0.  0.
         23    2    1    2    0    0 -0.13701878423E+02 -0.33717178772E+02 -0.26339933907E+03  0.28098699955E+03  0.90828918721E+02 0.  0.
          5    1    4    4  502    0 -0.46567003546E+02 -0.19584526175E+02 -0.21327220587E+03  0.21922400252E+03  0.47000000000E+01 0. -1.
         -5    1    4    4    0  502  0.32865125124E+02 -0.14132652597E+02 -0.50127133195E+02  0.61762997022E+02  0.47000000000E+01 0.  1.
          5    1    3    3  503    0 -0.23679069031E+02  0.97617320415E+01  0.16300080565E+02  0.30720878064E+02  0.47000000000E+01 0. -1.
         -5    1    3    3    0  503  0.37380947453E+02  0.23955446731E+02 -0.14751056774E+03  0.15411896787E+03  0.47000000000E+01 0. -1.
<mgrwt>
<rscale>  0 0.12121992E+03</rscale>
<asrwt>0</asrwt>
<pdfrwt beam="1">  1        1 0.66187437E-01 0.13019054E+03</pdfrwt>
<pdfrwt beam="2">  1       -1 0.54782322E-02 0.13019054E+03</pdfrwt>
<totfact> 0.80374451E+03</totfact>
</mgrwt>
</event>
<event>
 8    1  0.3572165E-004  0.1325840E+03  0.7546771E-02  0.1237679E+00
          2   -1    0    0  501    0  0.00000000000E+00  0.00000000000E+00  0.12716412637E+04  0.12716412637E+04  0.00000000000E+00 0. -1.
         -2   -1    0    0    0  501 -0.00000000000E+00 -0.00000000000E+00 -0.10645743044E+02  0.10645743044E+02  0.00000000000E+00 0.  1.
         25    2    1    2    0    0  0.29852147957E+02  0.32606301834E+02  0.66763092795E+03  0.68066847668E+03  0.12499679010E+03 0.  0.
         23    2    1    2    0    0 -0.29852147957E+02 -0.32606301834E+02  0.59336459272E+03  0.60161853008E+03  0.88932525997E+02 0.  0.
          5    1    4    4  502    0 -0.49628212311E+02 -0.26014508074E+02  0.55384035795E+03  0.55668747622E+03  0.47000000000E+01 0. -1.
         -5    1    4    4    0  502  0.19776064354E+02 -0.65917937592E+01  0.39524234768E+02  0.44931053852E+02  0.47000000000E+01 0.  1.
          5    1    3    3  503    0  0.57752194385E+02 -0.28006061777E+02  0.27929817888E+03  0.28661684908E+03  0.47000000000E+01 0.  1.
         -5    1    3    3    0  503 -0.27900046428E+02  0.60612363610E+02  0.38833274907E+03  0.39405162760E+03  0.47000000000E+01 0.  1.
<mgrwt>
<rscale>  0 0.12334491E+03</rscale>
<asrwt>0</asrwt>
<pdfrwt beam="1">  1        2 0.19563700E+00 0.13258401E+03</pdfrwt>
<pdfrwt beam="2">  1       -2 0.16378076E-02 0.13258401E+03</pdfrwt>
<totfact> 0.18119177E+04</totfact>
</mgrwt>
</event>
<event>
 8    1  0.3572165E-004  0.1840575E+03  0.7546771E-02  0.1169221E+00
         -2   -1    0    0    0  501 -0.00000000000E+00  0.00000000000E+00  0.17571082306E+03  0.17571082306E+03  0.00000000000E+00 0.  1.
          2   -1    0    0  501    0  0.00000000000E+00 -0.00000000000E+00 -0.17593874627E+03  0.17593874627E+03  0.00000000000E+00 0. -1.
         25    2    1    2    0    0 -0.13504202403E+03 -0.40413110706E+01  0.28246099910E+02  0.18621230816E+03  0.12499800439E+03 0.  0.
         23    2    1    2    0    0  0.13504202403E+03  0.40413110706E+01 -0.28474023128E+02  0.16543726117E+03  0.91137461782E+02 0.  0.
          5    1    4    4  502    0  0.95668591500E+02 -0.15616260555E+02 -0.57221755514E+02  0.11266217776E+03  0.47000000000E+01 0. -1.
         -5    1    4    4    0  502  0.39373432533E+02  0.19657571626E+02  0.28747732386E+02  0.52775083410E+02  0.47000000000E+01 0.  1.
          5    1    3    3  503    0 -0.90029524387E+02  0.33061597117E+02 -0.32967445583E+02  0.10152500644E+03  0.47000000000E+01 0.  1.
         -5    1    3    3    0  503 -0.45012499646E+02 -0.37102908188E+02  0.61213545493E+02  0.84687301718E+02  0.47000000000E+01 0.  1.
<mgrwt>
<rscale>  0 0.17854230E+03</rscale>
<asrwt>0</asrwt>
<pdfrwt beam="1">  1        2 0.27067499E-01 0.18405755E+03</pdfrwt>
<pdfrwt beam="2">  1       -2 0.27032434E-01 0.18405755E+03</pdfrwt>
<totfact> 0.23880479E+03</totfact>
</mgrwt>
</event>
<event>
 8    1  0.3572165E-004  0.1339030E+03  0.7546771E-02  0.1233341E+00
          1   -1    0    0  501    0  0.00000000000E+00  0.00000000000E+00  0.12656338052E+03  0.12656338052E+03  0.00000000000E+00 0. -1.
         -1   -1    0    0    0  501 -0.00000000000E+00 -0.00000000000E+00 -0.13979748393E+03  0.13979748393E+03  0.00000000000E+00 0.  1.
         25    2    1    2    0    0 -0.47746051934E+02 -0.51713594027E+01  0.50634692297E+02  0.14315683016E+03  0.12499430997E+03 0.  0.
         23    2    1    2    0    0  0.47746051934E+02  0.51713594027E+01 -0.63868795707E+02  0.12320403428E+03  0.93774103912E+02 0.  0.
          5    1    4    4  502    0  0.50327972336E+02 -0.37077626464E+02 -0.35651864183E+02  0.72116576482E+02  0.47000000000E+01 0. -1.
         -5    1    4    4    0  502 -0.25819204019E+01  0.42248985867E+02 -0.28216931524E+02  0.51087457799E+02  0.47000000000E+01 0.  1.
          5    1    3    3  503    0  0.35850975866E+02  0.50454441755E+01  0.45935012182E+02  0.58675926253E+02  0.47000000000E+01 0. -1.
         -5    1    3    3    0  503 -0.83597027800E+02 -0.10216803578E+02  0.46996801142E+01  0.84480903911E+02  0.47000000000E+01 0. -1.
<mgrwt>
<rscale>  0 0.12611249E+03</rscale>
<asrwt>0</asrwt>
<pdfrwt beam="1">  1        1 0.19471289E-01 0.13390297E+03</pdfrwt>
<pdfrwt beam="2">  1       -1 0.21507305E-01 0.13390297E+03</pdfrwt>
<totfact> 0.45235885E+03</totfact>
</mgrwt>
</event>
<event>
 8    1  0.3572165E-004  0.1670858E+03  0.7546771E-02  0.1187794E+00
          1   -1    0    0  501    0  0.00000000000E+00  0.00000000000E+00  0.13577501117E+04  0.13577501117E+04  0.00000000000E+00 0. -1.
         -1   -1    0    0    0  501 -0.00000000000E+00 -0.00000000000E+00 -0.18300707832E+02  0.18300707832E+02  0.00000000000E+00 0.  1.
         25    2    1    2    0    0  0.87482990129E+02 -0.68117544691E+02  0.59959184926E+03  0.62243719043E+03  0.12499758748E+03 0.  0.
         23    2    1    2    0    0 -0.87482990129E+02  0.68117544691E+02  0.73985755464E+03  0.75361362913E+03  0.90835166094E+02 0.  0.
          5    1    3    3  502    0  0.55496460997E+01 -0.81881784673E+02  0.25414439915E+03  0.26710838783E+03  0.47000000000E+01 0.  1.
         -5    1    3    3    0  502  0.81933344030E+02  0.13764239981E+02  0.34544745012E+03  0.35532880260E+03  0.47000000000E+01 0.  1.
          5    1    4    4  503    0 -0.26115222329E+02  0.64645548169E+02  0.53894901217E+03  0.54346037524E+03  0.47000000000E+01 0. -1.
         -5    1    4    4    0  503 -0.61367767801E+02  0.34719965222E+01  0.20090854247E+03  0.21015325389E+03  0.47000000000E+01 0.  1.
<mgrwt>
<rscale>  0 0.16080188E+03</rscale>
<asrwt>0</asrwt>
<pdfrwt beam="1">  1        1 0.20888455E+00 0.16708582E+03</pdfrwt>
<pdfrwt beam="2">  1       -1 0.28154946E-02 0.16708582E+03</pdfrwt>
<totfact> 0.36626284E+03</totfact>
</mgrwt>
</event>
<event>
 8    1  0.3572165E-004  0.1442301E+03  0.7546771E-02  0.1217765E+00
          2   -1    0    0  501    0  0.00000000000E+00  0.00000000000E+00  0.71101316799E+03  0.71101316799E+03  0.00000000000E+00 0. -1.
         -2   -1    0    0    0  501 -0.00000000000E+00 -0.00000000000E+00 -0.24507903707E+02  0.24507903707E+02  0.00000000000E+00 0.  1.
         25    2    1    2    0    0 -0.70062035980E+02 -0.16419246330E+02  0.32191275354E+03  0.35274656143E+03  0.12499614064E+03 0.  0.
         23    2    1    2    0    0  0.70062035980E+02  0.16419246330E+02  0.36459251075E+03  0.38277451027E+03  0.91707940126E+02 0.  0.
          5    1    4    4  502    0  0.74135543339E+02 -0.19762985621E+02  0.28390897501E+03  0.29413100904E+03  0.47000000000E+01 0. -1.
         -5    1    3    3    0  503 -0.27969692060E+02 -0.62222848897E+02  0.92680188913E+02  0.11517679461E+03  0.47000000000E+01 0.  1.
          5    1    3    3  503    0 -0.42092343920E+02  0.45803602566E+02  0.22923256462E+03  0.23756976682E+03  0.47000000000E+01 0.  1.
         -5    1    4    4    0  502 -0.40735073594E+01  0.36182231951E+02  0.80683535742E+02  0.88643501234E+02  0.47000000000E+01 0.  1.
<mgrwt>
<rscale>  0 0.13675362E+03</rscale>
<asrwt>0</asrwt>
<pdfrwt beam="1">  1        2 0.10938663E+00 0.14423008E+03</pdfrwt>
<pdfrwt beam="2">  1       -2 0.37704473E-02 0.14423008E+03</pdfrwt>
<totfact> 0.11856573E+04</totfact>
</mgrwt>
</event>
<event>
 8    1  0.3572165E-004  0.1581118E+03  0.7546771E-02  0.1198636E+00
         -1   -1    0    0    0  501 -0.00000000000E+00  0.00000000000E+00  0.37255507283E+03  0.37255507283E+03  0.00000000000E+00 0.  1.
          1   -1    0    0  501    0  0.00000000000E+00 -0.00000000000E+00 -0.57354789373E+02  0.57354789373E+02  0.00000000000E+00 0. -1.
         25    2    1    2    0    0  0.64806253688E+02  0.71914180720E+02  0.15371063318E+03  0.22051369788E+03  0.12501132867E+03 0.  0.
         23    2    1    2    0    0 -0.64806253688E+02 -0.71914180720E+02  0.16148965028E+03  0.20939616432E+03  0.91631580688E+02 0.  0.
          5    1    4    4  502    0  0.20780528526E+02 -0.28470384168E+02  0.29938576996E+02  0.46484422477E+02  0.47000000000E+01 0. -1.
         -5    1    3    3    0  503 -0.36304822158E+01  0.47973884454E+02  0.13794184958E+03  0.14616674675E+03  0.47000000000E+01 0.  1.
          5    1    3    3  503    0  0.68436735903E+02  0.23940296266E+02  0.15768783599E+02  0.74346951132E+02  0.47000000000E+01 0.  1.
         -5    1    4    4    0  502 -0.85586782214E+02 -0.43443796552E+02  0.13155107328E+03  0.16291174184E+03  0.47000000000E+01 0.  1.
<mgrwt>
<rscale>  0 0.15150519E+03</rscale>
<asrwt>0</asrwt>
<pdfrwt beam="1">  1        1 0.88238140E-02 0.15811177E+03</pdfrwt>
<pdfrwt beam="2">  1       -1 0.57316164E-01 0.15811177E+03</pdfrwt>
<totfact> 0.23557322E+03</totfact>
</mgrwt>
</event>
<event>
 8    1  0.3572165E-004  0.1455919E+03  0.7546771E-02  0.1217314E+00
         -1   -1    0    0    0  501 -0.00000000000E+00  0.00000000000E+00  0.23676705940E+02  0.23676705940E+02  0.00000000000E+00 0.  1.
          1   -1    0    0  501    0  0.00000000000E+00 -0.00000000000E+00 -0.72672401670E+03  0.72672401670E+03  0.00000000000E+00 0. -1.
         25    2    1    2    0    0 -0.47303428152E+02 -0.57749462785E+02 -0.34326893735E+03  0.37286800797E+03  0.12499749298E+03 0.  0.
         23    2    1    2    0    0  0.47303428152E+02  0.57749462785E+02 -0.35977837341E+03  0.37753271467E+03  0.86705581739E+02 0.  0.
          5    1    4    4  502    0  0.48924698011E+02  0.63744695177E+01 -0.26515663739E+03  0.26974875771E+03  0.47000000000E+01 0. -1.
         -5    1    3    3    0  503  0.67398557347E+01 -0.83339424423E+02 -0.16991748588E+03  0.18943317377E+03  0.47000000000E+01 0. -1.
          5    1    3    3  503    0 -0.54043283887E+02  0.25589961638E+02 -0.17335145147E+03  0.18343483420E+03  0.47000000000E+01 0. -1.
         -5    1    4    4    0  502 -0.16212698588E+01  0.51374993267E+02 -0.94621736026E+02  0.10778395696E+03  0.47000000000E+01 0.  1.
<mgrwt>
<rscale>  0 0.13707941E+03</rscale>
<asrwt>0</asrwt>
<pdfrwt beam="1">  1        1 0.11180369E+00 0.14559185E+03</pdfrwt>
<pdfrwt beam="2">  1       -1 0.36425701E-02 0.14559185E+03</pdfrwt>
<totfact> 0.72958734E+03</totfact>
</mgrwt>
</event>
<event>
 8    1  0.3572165E-004  0.2339063E+03  0.7546771E-02  0.1126848E+00
         -2   -1    0    0    0  501 -0.00000000000E+00  0.00000000000E+00  0.87643461282E+02  0.87643461282E+02  0.00000000000E+00 0.  1.
          2   -1    0    0  501    0  0.00000000000E+00 -0.00000000000E+00 -0.58566229420E+03  0.58566229420E+03  0.00000000000E+00 0. -1.
         25    2    1    2    0    0 -0.99895049465E+02 -0.17061100369E+03 -0.22914014490E+03  0.32744059487E+03  0.12500000670E+03 0.  0.
         23    2    1    2    0    0  0.99895049465E+02  0.17061100369E+03 -0.26887868802E+03  0.34586516062E+03  0.90773481631E+02 0.  0.
          5    1    4    4  502    0  0.43007001492E+02  0.13543737084E+03 -0.22354510650E+03  0.26492902491E+03  0.47000000000E+01 0. -1.
         -5    1    3    3    0  503 -0.49797813161E+02 -0.93633655795E+02 -0.20732868738E+03  0.23292564973E+03  0.47000000000E+01 0.  1.
          5    1    3    3  503    0 -0.50097236304E+02 -0.76977347898E+02 -0.21811457520E+02  0.94514945135E+02  0.47000000000E+01 0.  1.
         -5    1    4    4    0  502  0.56888047973E+02  0.35173632853E+02 -0.45333581522E+02  0.80936135712E+02  0.47000000000E+01 0.  1.
<mgrwt>
<rscale>  0 0.22970474E+03</rscale>
<asrwt>0</asrwt>
<pdfrwt beam="1">  1        2 0.90101892E-01 0.23390626E+03</pdfrwt>
<pdfrwt beam="2">  1       -2 0.13483609E-01 0.23390626E+03</pdfrwt>
<totfact> 0.21108284E+03</totfact>
</mgrwt>
</event>
<event>
 8    1  0.3572165E-004  0.1535307E+03  0.7546771E-02  0.1204765E+00
          2   -1    0    0  501    0  0.00000000000E+00  0.00000000000E+00  0.33878663255E+02  0.33878663255E+02  0.00000000000E+00 0. -1.
         -2   -1    0    0    0  501 -0.00000000000E+00 -0.00000000000E+00 -0.58540301747E+03  0.58540301747E+03  0.00000000000E+00 0.  1.
         25    2    1    2    0    0  0.80898759923E+02  0.37417089777E+02 -0.32193781218E+03  0.35667301895E+03  0.12500815803E+03 0.  0.
         23    2    1    2    0    0 -0.80898759923E+02 -0.37417089777E+02 -0.22958654204E+03  0.26260866178E+03  0.91151966461E+02 0.  0.
          5    1    3    3  502    0  0.86920411942E+02  0.32189164342E+01 -0.30603877229E+03  0.31819387106E+03  0.47000000000E+01 0. -1.
         -5    1    4    4    0  503 -0.70325521224E+02  0.56138967051E+01 -0.19098915794E+03  0.20365692530E+03  0.47000000000E+01 0.  1.
          5    1    4    4  503    0 -0.10573238699E+02 -0.43030986482E+02 -0.38597384096E+02  0.58951736474E+02  0.47000000000E+01 0. -1.
         -5    1    3    3    0  502 -0.60216520189E+01  0.34198173343E+02 -0.15899039884E+02  0.38479147889E+02  0.47000000000E+01 0. -1.
<mgrwt>
<rscale>  0 0.14655961E+03</rscale>
<asrwt>0</asrwt>
<pdfrwt beam="1">  1        2 0.52121025E-02 0.15353074E+03</pdfrwt>
<pdfrwt beam="2">  1       -2 0.90061995E-01 0.15353074E+03</pdfrwt>
<totfact> 0.15773376E+03</totfact>
</mgrwt>
</event>
<event>
 8    1  0.3572165E-004  0.1372469E+03  0.7546771E-02  0.1228841E+00
          2   -1    0    0  501    0  0.00000000000E+00  0.00000000000E+00  0.27370394594E+03  0.27370394594E+03  0.00000000000E+00 0. -1.
         -2   -1    0    0    0  501 -0.00000000000E+00 -0.00000000000E+00 -0.57420976305E+02  0.57420976305E+02  0.00000000000E+00 0.  1.
         25    2    1    2    0    0 -0.46974374298E+02  0.31704214875E+02  0.15685187456E+03  0.20842078211E+03  0.12499985112E+03 0.  0.
         23    2    1    2    0    0  0.46974374298E+02 -0.31704214875E+02  0.59431095076E+02  0.12270414014E+03  0.91172922860E+02 0.  0.
          5    1    3    3  502    0 -0.73796903219E+02 -0.20355107314E+02  0.71873750626E+02  0.10511060530E+03  0.47000000000E+01 0. -1.
         -5    1    4    4    0  503  0.46232764596E+02 -0.61533508941E+02  0.41289557939E+02  0.87468616312E+02  0.47000000000E+01 0.  1.
          5    1    4    4  503    0  0.74160970199E+00  0.29829294066E+02  0.18141537137E+02  0.35235523823E+02  0.47000000000E+01 0. -1.
         -5    1    3    3    0  502  0.26822528921E+02  0.52059322189E+02  0.84978123930E+02  0.10331017680E+03  0.47000000000E+01 0. -1.
<mgrwt>
<rscale>  0 0.12907095E+03</rscale>
<asrwt>0</asrwt>
<pdfrwt beam="1">  1        2 0.42108299E-01 0.13724690E+03</pdfrwt>
<pdfrwt beam="2">  1       -2 0.88339965E-02 0.13724690E+03</pdfrwt>
<totfact> 0.92560465E+03</totfact>
</mgrwt>
</event>
<event>
 8    1  0.3572165E-004  0.1276986E+03  0.7546771E-02  0.1245673E+00
          1   -1    0    0  501    0  0.00000000000E+00  0.00000000000E+00  0.86228181172E+03  0.86228181172E+03  0.00000000000E+00 0. -1.
         -1   -1    0    0    0  501 -0.00000000000E+00 -0.00000000000E+00 -0.14325507014E+02  0.14325507014E+02  0.00000000000E+00 0.  1.
         25    2    1    2    0    0 -0.18237784283E+02  0.18710107113E+02  0.47827062258E+03  0.49502496679E+03  0.12499697770E+03 0.  0.
         23    2    1    2    0    0  0.18237784283E+02 -0.18710107113E+02  0.36968568213E+03  0.38158235195E+03  0.90856496000E+02 0.  0.
          5    1    4    4  502    0  0.39961144252E+01 -0.54915388918E+02  0.20805856187E+03  0.21527220917E+03  0.47000000000E+01 0. -1.
         -5    1    3    3    0  503 -0.10205635516E+02  0.68198391146E+02  0.18556146965E+03  0.19801597049E+03  0.47000000000E+01 0.  1.
          5    1    3    3  503    0 -0.80321487667E+01 -0.49488284033E+02  0.29270915293E+03  0.29700899629E+03  0.47000000000E+01 0.  1.
         -5    1    4    4    0  502  0.14241669857E+02  0.36205281805E+02  0.16162712025E+03  0.16631014278E+03  0.47000000000E+01 0.  1.
<mgrwt>
<rscale>  0 0.11845192E+03</rscale>
<asrwt>0</asrwt>
<pdfrwt beam="1">  1        1 0.13265870E+00 0.12769859E+03</pdfrwt>
<pdfrwt beam="2">  1       -1 0.22039248E-02 0.12769859E+03</pdfrwt>
<totfact> 0.11627849E+04</totfact>
</mgrwt>
</event>
<event>
 8    1  0.3572165E-004  0.1499602E+03  0.7546771E-02  0.1210066E+00
          2   -1    0    0  501    0  0.00000000000E+00  0.00000000000E+00  0.43205543222E+03  0.43205543222E+03  0.00000000000E+00 0. -1.
         -2   -1    0    0    0  501 -0.00000000000E+00 -0.00000000000E+00 -0.58107322095E+02  0.58107322095E+02  0.00000000000E+00 0.  1.
         25    2    1    2    0    0 -0.66472532934E+01  0.82576920071E+02  0.32625303047E+03  0.35906698776E+03  0.12499971240E+03 0.  0.
         23    2    1    2    0    0  0.66472532934E+01 -0.82576920071E+02  0.47695079652E+02  0.13109576656E+03  0.89711457914E+02 0.  0.
          5    1    3    3  502    0  0.34402125991E+02 -0.81389677474E+01  0.17018348744E+03  0.17388001170E+03  0.47000000000E+01 0.  1.
         -5    1    4    4    0  503 -0.22722920181E+01 -0.35906492677E+02 -0.25042529313E+02  0.44086934592E+02  0.47000000000E+01 0.  1.
          5    1    4    4  503    0  0.89195453115E+01 -0.46670427394E+02  0.72737608964E+02  0.87008831963E+02  0.47000000000E+01 0. -1.
         -5    1    3    3    0  502 -0.41049379285E+02  0.90715887818E+02  0.15606954303E+03  0.18518697606E+03  0.47000000000E+01 0.  1.
<mgrwt>
<rscale>  0 0.14245293E+03</rscale>
<asrwt>0</asrwt>
<pdfrwt beam="1">  1        2 0.66470064E-01 0.14996020E+03</pdfrwt>
<pdfrwt beam="2">  1       -2 0.89395883E-02 0.14996020E+03</pdfrwt>
<totfact> 0.56174900E+03</totfact>
</mgrwt>
</event>
<event>
 8    1  0.3572165E-004  0.1271082E+03  0.7546771E-02  0.1246667E+00
         -2   -1    0    0    0  501 -0.00000000000E+00  0.00000000000E+00  0.49662841804E+02  0.49662841804E+02  0.00000000000E+00 0.  1.
          2   -1    0    0  501    0  0.00000000000E+00 -0.00000000000E+00 -0.25208693511E+03  0.25208693511E+03  0.00000000000E+00 0. -1.
         25    2    1    2    0    0 -0.16884564449E+02  0.15722359523E+02 -0.92883338177E+02  0.15742872499E+03  0.12499683130E+03 0.  0.
         23    2    1    2    0    0  0.16884564449E+02 -0.15722359523E+02 -0.10954075513E+03  0.14432105193E+03  0.91088461887E+02 0.  0.
          5    1    4    4  502    0  0.25940448983E+02  0.34034402507E+02 -0.46595033621E+02  0.63438431614E+02  0.47000000000E+01 0. -1.
         -5    1    3    3    0  503 -0.23318955536E+02 -0.38228065047E+02 -0.92517451300E+02  0.10289182397E+03  0.47000000000E+01 0.  1.
          5    1    3    3  503    0  0.64343910864E+01  0.53950424569E+02 -0.36588687651E+00  0.54536901022E+02  0.47000000000E+01 0.  1.
         -5    1    4    4    0  502 -0.90558845342E+01 -0.49756762029E+02 -0.62945721511E+02  0.80882620314E+02  0.47000000000E+01 0.  1.
<mgrwt>
<rscale>  0 0.11786136E+03</rscale>
<asrwt>0</asrwt>
<pdfrwt beam="1">  1        2 0.38782605E-01 0.12710818E+03</pdfrwt>
<pdfrwt beam="2">  1       -2 0.76404373E-02 0.12710818E+03</pdfrwt>
<totfact> 0.12566225E+04</totfact>
</mgrwt>
</event>
<event>
 8    1  0.3572165E-004  0.1423634E+03  0.7546771E-02  0.1219697E+00
         -1   -1    0    0    0  501 -0.00000000000E+00  0.00000000000E+00  0.23099439140E+02  0.23099439140E+02  0.00000000000E+00 0.  1.
          1   -1    0    0  501    0  0.00000000000E+00 -0.00000000000E+00 -0.82181596010E+03  0.82181596010E+03  0.00000000000E+00 0. -1.
         25    2    1    2    0    0  0.17262166288E+02 -0.65945179572E+02 -0.57934829568E+03  0.59658342071E+03  0.12498232302E+03 0.  0.
         23    2    1    2    0    0 -0.17262166288E+02  0.65945179572E+02 -0.21936822528E+03  0.24833197853E+03  0.94337713583E+02 0.  0.
          5    1    3    3  502    0  0.35105640880E+02  0.24504363991E+02 -0.28096120501E+03  0.28424313289E+03  0.47000000000E+01 0.  1.
         -5    1    4    4    0  503  0.21171829844E+02  0.77357845285E+01 -0.59889059945E+01  0.23791715706E+02  0.47000000000E+01 0.  1.
          5    1    4    4  503    0 -0.38433996132E+02  0.58209395043E+02 -0.21337931929E+03  0.22454026283E+03  0.47000000000E+01 0. -1.
         -5    1    3    3    0  502 -0.17843474592E+02 -0.90449543562E+02 -0.29838709067E+03  0.31234028782E+03  0.47000000000E+01 0.  1.
<mgrwt>
<rscale>  0 0.13537127E+03</rscale>
<asrwt>0</asrwt>
<pdfrwt beam="1">  1        1 0.12643324E+00 0.14236337E+03</pdfrwt>
<pdfrwt beam="2">  1       -1 0.35537595E-02 0.14236337E+03</pdfrwt>
<totfact> 0.62919911E+03</totfact>
</mgrwt>
</event>
<event>
 8    1  0.3572165E-004  0.1327348E+03  0.7546771E-02  0.1236694E+00
         -1   -1    0    0    0  501 -0.00000000000E+00  0.00000000000E+00  0.15116572757E+03  0.15116572757E+03  0.00000000000E+00 0.  1.
          1   -1    0    0  501    0  0.00000000000E+00 -0.00000000000E+00 -0.11540639448E+03  0.11540639448E+03  0.00000000000E+00 0. -1.
         25    2    1    2    0    0 -0.40528781701E+02 -0.18774667945E+02 -0.41887408447E+02  0.13918722542E+03  0.12499383358E+03 0.  0.
         23    2    1    2    0    0  0.40528781701E+02  0.18774667945E+02  0.77646741540E+02  0.12738489663E+03  0.90569449128E+02 0.  0.
          5    1    3    3  502    0 -0.13262068135E+02 -0.71666409696E+02 -0.22263476278E+02  0.76352531758E+02  0.47000000000E+01 0. -1.
         -5    1    3    3    0  502 -0.27266713566E+02  0.52891741751E+02 -0.19623932169E+02  0.62834693665E+02  0.47000000000E+01 0. -1.
          5    1    4    4  503    0  0.18059578283E+02 -0.35045765554E+02  0.46344166670E+02  0.61026435545E+02  0.47000000000E+01 0. -1.
         -5    1    4    4    0  503  0.22469203418E+02  0.53820433498E+02  0.31302574871E+02  0.66358461086E+02  0.47000000000E+01 0.  1.
<mgrwt>
<rscale>  0 0.12396596E+03</rscale>
<asrwt>0</asrwt>
<pdfrwt beam="1">  1        1 0.17754830E-01 0.13273481E+03</pdfrwt>
<pdfrwt beam="2">  1       -1 0.23256266E-01 0.13273481E+03</pdfrwt>
<totfact> 0.44804374E+03</totfact>
</mgrwt>
</event>
<event>
 8    1  0.3572165E-004  0.1268704E+03  0.7546771E-02  0.1247366E+00
         -1   -1    0    0    0  501 -0.00000000000E+00  0.00000000000E+00  0.55960908228E+02  0.55960908228E+02  0.00000000000E+00 0.  1.
          1   -1    0    0  501    0  0.00000000000E+00 -0.00000000000E+00 -0.21675040870E+03  0.21675040870E+03  0.00000000000E+00 0. -1.
         25    2    1    2    0    0  0.18317287470E+01 -0.21602615918E+02 -0.98699624961E+02  0.16074114551E+03  0.12500428652E+03 0.  0.
         23    2    1    2    0    0 -0.18317287470E+01  0.21602615918E+02 -0.62089875506E+02  0.11197017141E+03  0.90620849701E+02 0.  0.
          5    1    3    3  502    0  0.53256411054E+02  0.18543856199E+00 -0.89053713842E+02  0.10386979183E+03  0.47000000000E+01 0. -1.
         -5    1    4    4    0  503 -0.23999389571E+02  0.46480274554E+02 -0.57716141474E+02  0.78036078893E+02  0.47000000000E+01 0.  1.
          5    1    4    4  503    0  0.22167660824E+02 -0.24877658635E+02 -0.43737340317E+01  0.33934092517E+02  0.47000000000E+01 0. -1.
         -5    1    3    3    0  502 -0.51424682307E+02 -0.21788054480E+02 -0.96459111190E+01  0.56871353683E+02  0.47000000000E+01 0. -1.
<mgrwt>
<rscale>  0 0.11744885E+03</rscale>
<asrwt>0</asrwt>
<pdfrwt beam="1">  1        1 0.33346216E-01 0.12687041E+03</pdfrwt>
<pdfrwt beam="2">  1       -1 0.86093706E-02 0.12687041E+03</pdfrwt>
<totfact> 0.95576314E+03</totfact>
</mgrwt>
</event>
<event>
 8    1  0.3572165E-004  0.1397723E+03  0.7546771E-02  0.1223677E+00
         -1   -1    0    0    0  501 -0.00000000000E+00  0.00000000000E+00  0.15445568906E+03  0.15445568906E+03  0.00000000000E+00 0.  1.
          1   -1    0    0  501    0  0.00000000000E+00 -0.00000000000E+00 -0.14079750713E+03  0.14079750713E+03  0.00000000000E+00 0. -1.
         25    2    1    2    0    0 -0.76596049854E+01  0.62070456079E+02  0.82989194518E+02  0.16255305851E+03  0.12499951742E+03 0.  0.
         23    2    1    2    0    0  0.76596049854E+01 -0.62070456079E+02 -0.69331012581E+02  0.13270013768E+03  0.94292768381E+02 0.  0.
          5    1    3    3  502    0  0.76571809976E+01  0.77386115212E+02  0.10537779005E+03  0.13104889120E+03  0.47000000000E+01 0. -1.
         -5    1    4    4    0  503 -0.25099041579E+02  0.72541201018E+01 -0.44773988148E+02  0.52051745036E+02  0.47000000000E+01 0.  1.
          5    1    4    4  503    0  0.32758646565E+02 -0.69324576181E+02 -0.24557024433E+02  0.80648392646E+02  0.47000000000E+01 0. -1.
         -5    1    3    3    0  502 -0.15316785983E+02 -0.15315659133E+02 -0.22388595535E+02  0.31504167305E+02  0.47000000000E+01 0. -1.
<mgrwt>
<rscale>  0 0.13257993E+03</rscale>
<asrwt>0</asrwt>
<pdfrwt beam="1">  1        1 0.21661155E-01 0.13977228E+03</pdfrwt>
<pdfrwt beam="2">  1       -1 0.23762414E-01 0.13977228E+03</pdfrwt>
<totfact> 0.33679123E+03</totfact>
</mgrwt>
</event>
<event>
 8    1  0.3572165E-004  0.2761357E+03  0.7546771E-02  0.1100083E+00
          2   -1    0    0  501    0  0.00000000000E+00  0.00000000000E+00  0.13719555754E+04  0.13719555754E+04  0.00000000000E+00 0. -1.
         -2   -1    0    0    0  501 -0.00000000000E+00 -0.00000000000E+00 -0.53878248424E+02  0.53878248424E+02  0.00000000000E+00 0.  1.
         25    2    1    2    0    0 -0.18968029997E+03 -0.15699287227E+03  0.79410309776E+03  0.84074411813E+03  0.12500225661E+03 0.  0.
         23    2    1    2    0    0  0.18968029997E+03  0.15699287227E+03  0.52397422924E+03  0.58508970572E+03  0.84590736440E+02 0.  0.
          5    1    4    4  502    0  0.93810659719E+02  0.11843030000E+03  0.24883466193E+03  0.29114765122E+03  0.47000000000E+01 0. -1.
         -5    1    4    4    0  502  0.95869640251E+02  0.38562572268E+02  0.27513956732E+03  0.29394205450E+03  0.47000000000E+01 0.  1.
          5    1    3    3  503    0 -0.20727047275E+03 -0.13763423474E+03  0.69795769615E+03  0.74099343254E+03  0.47000000000E+01 0. -1.
         -5    1    3    3    0  503  0.17590172783E+02 -0.19358637526E+02  0.96145401608E+02  0.99750685591E+02  0.47000000000E+01 0. -1.
<mgrwt>
<rscale>  0 0.27210118E+03</rscale>
<asrwt>0</asrwt>
<pdfrwt beam="1">  1        2 0.21107006E+00 0.27613573E+03</pdfrwt>
<pdfrwt beam="2">  1       -2 0.82889623E-02 0.27613573E+03</pdfrwt>
<totfact> 0.14324227E+03</totfact>
</mgrwt>
</event>
<event>
 8    1  0.3572165E-004  0.1998515E+03  0.7546771E-02  0.1154083E+00
          1   -1    0    0  501    0  0.00000000000E+00  0.00000000000E+00  0.13357839424E+03  0.13357839424E+03  0.00000000000E+00 0. -1.
         -1   -1    0    0    0  501 -0.00000000000E+00 -0.00000000000E+00 -0.27136231934E+03  0.27136231934E+03  0.00000000000E+00 0.  1.
         25    2    1    2    0    0  0.83747197475E+02 -0.13153709542E+03 -0.70083821784E+02  0.21178380747E+03  0.12500015389E+03 0.  0.
         23    2    1    2    0    0 -0.83747197475E+02  0.13153709542E+03 -0.67700103320E+02  0.19315690612E+03  0.91709791377E+02 0.  0.
          5    1    3    3  502    0 -0.25537072011E+02 -0.57197180763E+02 -0.15692821241E+01  0.62834800712E+02  0.47000000000E+01 0.  1.
         -5    1    3    3    0  502  0.10928426949E+03 -0.74339914658E+02 -0.68514539660E+02  0.14894900676E+03  0.47000000000E+01 0.  1.
          5    1    4    4  503    0 -0.26914676125E+02  0.24728005731E+02  0.21594610972E+02  0.42711722997E+02  0.47000000000E+01 0. -1.
         -5    1    4    4    0  503 -0.56832521351E+02  0.10680908969E+03 -0.89294714293E+02  0.15044518312E+03  0.47000000000E+01 0.  1.
<mgrwt>
<rscale>  0 0.19493630E+03</rscale>
<asrwt>0</asrwt>
<pdfrwt beam="1">  1        1 0.20550522E-01 0.19985154E+03</pdfrwt>
<pdfrwt beam="2">  1       -1 0.41748049E-01 0.19985154E+03</pdfrwt>
<totfact> 0.13984840E+03</totfact>
</mgrwt>
</event>
<event>
 8    1  0.3572165E-004  0.1256225E+03  0.7546771E-02  0.1249131E+00
         -2   -1    0    0    0  501 -0.00000000000E+00  0.00000000000E+00  0.55165877423E+02  0.55165877423E+02  0.00000000000E+00 0.  1.
          2   -1    0    0  501    0  0.00000000000E+00 -0.00000000000E+00 -0.21594666899E+03  0.21594666899E+03  0.00000000000E+00 0. -1.
         25    2    1    2    0    0  0.84653778997E+01 -0.91806039736E+01 -0.90637909408E+02  0.15490718407E+03  0.12500023577E+03 0.  0.
         23    2    1    2    0    0 -0.84653778997E+01  0.91806039736E+01 -0.70142882156E+02  0.11620536234E+03  0.91802593687E+02 0.  0.
          5    1    4    4  502    0 -0.39789735173E+02 -0.31839858535E+00 -0.72729068515E+02  0.83035726106E+02  0.47000000000E+01 0. -1.
         -5    1    4    4    0  502  0.31324357273E+02  0.94990025590E+01  0.25861863593E+01  0.33169636236E+02  0.47000000000E+01 0.  1.
          5    1    3    3  503    0  0.36214221244E+02 -0.27282040392E+01 -0.11274420767E+03  0.11854222573E+03  0.47000000000E+01 0.  1.
         -5    1    3    3    0  503 -0.27748843344E+02 -0.64523999344E+01  0.22106298266E+02  0.36364958337E+02  0.47000000000E+01 0.  1.
<mgrwt>
<rscale>  0 0.11641517E+03</rscale>
<asrwt>0</asrwt>
<pdfrwt beam="1">  1        2 0.33222564E-01 0.12562247E+03</pdfrwt>
<pdfrwt beam="2">  1       -2 0.84870583E-02 0.12562247E+03</pdfrwt>
<totfact> 0.12592446E+04</totfact>
</mgrwt>
</event>
<event>
 8    1  0.3572165E-004  0.2170471E+03  0.7546771E-02  0.1140001E+00
         -1   -1    0    0    0  501 -0.00000000000E+00  0.00000000000E+00  0.78494613139E+02  0.78494613139E+02  0.00000000000E+00 0.  1.
          1   -1    0    0  501    0  0.00000000000E+00 -0.00000000000E+00 -0.54781308585E+03  0.54781308585E+03  0.00000000000E+00 0. -1.
         25    2    1    2    0    0  0.44337302812E+02 -0.17180810785E+03 -0.23660716993E+03  0.32108006194E+03  0.12500252384E+03 0.  0.
         23    2    1    2    0    0 -0.44337302812E+02  0.17180810785E+03 -0.23271130278E+03  0.30522763705E+03  0.86749856684E+02 0.  0.
          5    1    4    4  502    0 -0.18316687398E+02  0.57615402053E+02 -0.14993101046E+03  0.16172950716E+03  0.47000000000E+01 0. -1.
         -5    1    4    4    0  502 -0.26020615414E+02  0.11419270580E+03 -0.82780292320E+02  0.14349812988E+03  0.47000000000E+01 0.  1.
          5    1    3    3  503    0  0.21748759704E+02 -0.59618465110E+02 -0.64039298974E+01  0.63956784228E+02  0.47000000000E+01 0.  1.
         -5    1    3    3    0  503  0.22588543109E+02 -0.11218964274E+03 -0.23020324004E+03  0.25712327771E+03  0.47000000000E+01 0.  1.
<mgrwt>
<rscale>  0 0.21198817E+03</rscale>
<asrwt>0</asrwt>
<pdfrwt beam="1">  1        1 0.84278938E-01 0.21704712E+03</pdfrwt>
<pdfrwt beam="2">  1       -1 0.12076094E-01 0.21704712E+03</pdfrwt>
<totfact> 0.18010929E+03</totfact>
</mgrwt>
</event>
<event>
 8    1  0.3572165E-004  0.1290296E+03  0.7546771E-02  0.1242666E+00
         -2   -1    0    0    0  501 -0.00000000000E+00  0.00000000000E+00  0.23944449592E+02  0.23944449592E+02  0.00000000000E+00 0.  1.
          2   -1    0    0  501    0  0.00000000000E+00 -0.00000000000E+00 -0.63576068562E+03  0.63576068562E+03  0.00000000000E+00 0. -1.
         25    2    1    2    0    0  0.31484234868E+02  0.56361408380E+01 -0.47203238138E+03  0.48934977475E+03  0.12500243937E+03 0.  0.
         23    2    1    2    0    0 -0.31484234868E+02 -0.56361408380E+01 -0.13978385465E+03  0.17035536047E+03  0.91969558491E+02 0.  0.
          5    1    4    4  502    0 -0.31308462526E+02  0.28135399317E+02 -0.12710638438E+03  0.13397739910E+03  0.47000000000E+01 0. -1.
         -5    1    4    4    0  502 -0.17577234255E+00 -0.33771540155E+02 -0.12677470274E+02  0.36377961363E+02  0.47000000000E+01 0.  1.
          5    1    3    3  503    0  0.41604459766E+02  0.56893835713E+02 -0.34034677334E+03  0.34760013772E+03  0.47000000000E+01 0.  1.
         -5    1    3    3    0  503 -0.10120224898E+02 -0.51257694875E+02 -0.13168560803E+03  0.14174963703E+03  0.47000000000E+01 0.  1.
<mgrwt>
<rscale>  0 0.12026137E+03</rscale>
<asrwt>0</asrwt>
<pdfrwt beam="1">  1        2 0.97809341E-01 0.12902958E+03</pdfrwt>
<pdfrwt beam="2">  1       -2 0.36837613E-02 0.12902958E+03</pdfrwt>
<totfact> 0.13885273E+04</totfact>
</mgrwt>
</event>
<event>
 8    1  0.3572165E-004  0.1412286E+03  0.7546771E-02  0.1222724E+00
         -1   -1    0    0    0  501 -0.00000000000E+00  0.00000000000E+00  0.71697756936E+02  0.71697756936E+02  0.00000000000E+00 0.  1.
          1   -1    0    0  501    0  0.00000000000E+00 -0.00000000000E+00 -0.27304333272E+03  0.27304333272E+03  0.00000000000E+00 0. -1.
         25    2    1    2    0    0  0.16253735434E+02  0.63705249657E+02 -0.37125838626E+02  0.14602688756E+03  0.12499192473E+03 0.  0.
         23    2    1    2    0    0 -0.16253735434E+02 -0.63705249657E+02 -0.16421973716E+03  0.19871420210E+03  0.90535458759E+02 0.  0.
          5    1    3    3  502    0 -0.39151636643E+02  0.12669699880E+02 -0.54623057844E+02  0.68550276404E+02  0.47000000000E+01 0. -1.
         -5    1    4    4    0  503  0.25216314005E+02 -0.49985764015E+02 -0.13425187919E+03  0.14553383168E+03  0.47000000000E+01 0.  1.
          5    1    4    4  503    0 -0.41470049439E+02 -0.13719485642E+02 -0.29967857967E+02  0.53180370419E+02  0.47000000000E+01 0. -1.
         -5    1    3    3    0  502  0.55405372077E+02  0.51035549777E+02  0.17497219218E+02  0.77476611157E+02  0.47000000000E+01 0. -1.
<mgrwt>
<rscale>  0 0.13324139E+03</rscale>
<asrwt>0</asrwt>
<pdfrwt beam="1">  1        1 0.42006667E-01 0.14122862E+03</pdfrwt>
<pdfrwt beam="2">  1       -1 0.11030424E-01 0.14122862E+03</pdfrwt>
<totfact> 0.49605367E+03</totfact>
</mgrwt>
</event>
<event>
 8    1  0.3572165E-004  0.1283229E+03  0.7546771E-02  0.1245602E+00
         -2   -1    0    0    0  501 -0.00000000000E+00  0.00000000000E+00  0.17573848931E+02  0.17573848931E+02  0.00000000000E+00 0.  1.
          2   -1    0    0  501    0  0.00000000000E+00 -0.00000000000E+00 -0.75200401298E+03  0.75200401298E+03  0.00000000000E+00 0. -1.
         25    2    1    2    0    0  0.26112933869E+02  0.12632264661E+02 -0.31989423620E+03  0.34467242313E+03  0.12500118993E+03 0.  0.
         23    2    1    2    0    0 -0.26112933869E+02 -0.12632264661E+02 -0.41453592785E+03  0.42490543879E+03  0.88674331151E+02 0.  0.
          5    1    3    3  502    0 -0.44902942694E+02 -0.67613181864E+00 -0.61311740881E+02  0.76144277439E+02  0.47000000000E+01 0.  1.
         -5    1    4    4    0  503 -0.27301634575E+02 -0.43582192293E+02 -0.34223506516E+03  0.34610939970E+03  0.47000000000E+01 0.  1.
          5    1    4    4  503    0  0.11887007064E+01  0.30949927632E+02 -0.72300862689E+02  0.78796039085E+02  0.47000000000E+01 0. -1.
         -5    1    3    3    0  502  0.71015876563E+02  0.13308396480E+02 -0.25858249532E+03  0.26852814569E+03  0.47000000000E+01 0.  1.
<mgrwt>
<rscale>  0 0.11849407E+03</rscale>
<asrwt>0</asrwt>
<pdfrwt beam="1">  1        2 0.11569294E+00 0.12832286E+03</pdfrwt>
<pdfrwt beam="2">  1       -2 0.27036687E-02 0.12832286E+03</pdfrwt>
<totfact> 0.17938852E+04</totfact>
</mgrwt>
</event>
<event>
 8    1  0.3572165E-004  0.1757297E+03  0.7546771E-02  0.1177959E+00
         -2   -1    0    0    0  501 -0.00000000000E+00  0.00000000000E+00  0.72364245812E+02  0.72364245812E+02  0.00000000000E+00 0.  1.
          2   -1    0    0  501    0  0.00000000000E+00 -0.00000000000E+00 -0.53236101897E+03  0.53236101897E+03  0.00000000000E+00 0. -1.
         25    2    1    2    0    0  0.88881967286E+02  0.85774811923E+02 -0.76533675169E+02  0.19167244962E+03  0.12499440803E+03 0.  0.
         23    2    1    2    0    0 -0.88881967286E+02 -0.85774811923E+02 -0.38346309799E+03  0.41305281517E+03  0.91166650310E+02 0.  0.
          5    1    4    4  502    0 -0.67013460712E+02 -0.12514196051E+02 -0.11397793832E+03  0.13289269898E+03  0.47000000000E+01 0. -1.
         -5    1    3    3    0  503  0.18642596560E+02  0.10043020896E+03 -0.57406393142E+02  0.11726618120E+03  0.47000000000E+01 0.  1.
          5    1    3    3  503    0  0.70239370726E+02 -0.14655397040E+02 -0.19127282028E+02  0.74406268419E+02  0.47000000000E+01 0.  1.
         -5    1    4    4    0  502 -0.21868506574E+02 -0.73260615872E+02 -0.26948515968E+03  0.28016011619E+03  0.47000000000E+01 0.  1.
<mgrwt>
<rscale>  0 0.16989311E+03</rscale>
<asrwt>0</asrwt>
<pdfrwt beam="1">  1        2 0.81901695E-01 0.17572969E+03</pdfrwt>
<pdfrwt beam="2">  1       -2 0.11132961E-01 0.17572969E+03</pdfrwt>
<totfact> 0.31811186E+03</totfact>
</mgrwt>
</event>
<event>
 8    1  0.3572165E-004  0.2261299E+03  0.7546771E-02  0.1132236E+00
         -1   -1    0    0    0  501 -0.00000000000E+00  0.00000000000E+00  0.44441289289E+03  0.44441289289E+03  0.00000000000E+00 0.  1.
          1   -1    0    0  501    0  0.00000000000E+00 -0.00000000000E+00 -0.11667403005E+03  0.11667403005E+03  0.00000000000E+00 0. -1.
         25    2    1    2    0    0  0.15635387705E+03  0.10517794575E+03  0.90265554751E+02  0.24348016675E+03  0.12500314430E+03 0.  0.
         23    2    1    2    0    0 -0.15635387705E+03 -0.10517794575E+03  0.23747330808E+03  0.31760675619E+03  0.94718236819E+02 0.  0.
          5    1    3    3  502    0  0.15738952010E+03  0.52963959015E+02  0.40071894383E+02  0.17089320850E+03  0.47000000000E+01 0. -1.
         -5    1    4    4    0  503 -0.98753282859E+02 -0.35125388887E+02  0.18511262225E+03  0.21277870368E+03  0.47000000000E+01 0.  1.
          5    1    4    4  503    0 -0.57600594193E+02 -0.70052556859E+02  0.52360685828E+02  0.10482805252E+03  0.47000000000E+01 0. -1.
         -5    1    3    3    0  502 -0.10356430481E+01  0.52213986731E+02  0.50193660368E+02  0.72586958250E+02  0.47000000000E+01 0. -1.
<mgrwt>
<rscale>  0 0.22222333E+03</rscale>
<asrwt>0</asrwt>
<pdfrwt beam="1">  1        1 0.17949851E-01 0.22612988E+03</pdfrwt>
<pdfrwt beam="2">  1       -1 0.68371213E-01 0.22612988E+03</pdfrwt>
<totfact> 0.66155490E+02</totfact>
</mgrwt>
</event>
<event>
 8    1  0.3572165E-004  0.1285167E+03  0.7546771E-02  0.1243136E+00
         -2   -1    0    0    0  501 -0.00000000000E+00  0.00000000000E+00  0.34370618711E+03  0.34370618711E+03  0.00000000000E+00 0.  1.
          2   -1    0    0  501    0  0.00000000000E+00 -0.00000000000E+00 -0.37528641059E+02  0.37528641059E+02  0.00000000000E+00 0. -1.
         25    2    1    2    0    0  0.28267931283E+02 -0.96717377141E+01  0.19167586159E+03  0.23077299658E+03  0.12499568627E+03 0.  0.
         23    2    1    2    0    0 -0.28267931283E+02  0.96717377141E+01  0.11450168446E+03  0.15046183158E+03  0.92927437127E+02 0.  0.
          5    1    3    3  502    0 -0.10560600625E+02 -0.60384226968E+02  0.11872414315E+03  0.13369851651E+03  0.47000000000E+01 0.  1.
         -5    1    4    4    0  503 -0.14866640566E+02 -0.14723631922E+02  0.11983133082E+03  0.12173512306E+03  0.47000000000E+01 0.  1.
          5    1    4    4  503    0 -0.13401290717E+02  0.24395369636E+02 -0.53296463652E+01  0.28726708529E+02  0.47000000000E+01 0. -1.
         -5    1    3    3    0  502  0.38828531907E+02  0.50712489254E+02  0.72951718447E+02  0.97074480070E+02  0.47000000000E+01 0.  1.
<mgrwt>
<rscale>  0 0.11997634E+03</rscale>
<asrwt>0</asrwt>
<pdfrwt beam="1">  1        2 0.57736373E-02 0.12851669E+03</pdfrwt>
<pdfrwt beam="2">  1       -2 0.52877873E-01 0.12851669E+03</pdfrwt>
<totfact> 0.42234226E+03</totfact>
</mgrwt>
</event>
<event>
 8    1  0.3572165E-004  0.1274146E+03  0.7546771E-02  0.1248026E+00
          1   -1    0    0  501    0  0.00000000000E+00  0.00000000000E+00  0.20184420811E+03  0.20184420811E+03  0.00000000000E+00 0. -1.
         -1   -1    0    0    0  501 -0.00000000000E+00 -0.00000000000E+00 -0.72116245829E+02  0.72116245829E+02  0.00000000000E+00 0.  1.
         25    2    1    2    0    0  0.16346709044E+02 -0.18521818941E+02  0.15956227631E+02  0.12840979291E+03  0.12499680413E+03 0.  0.
         23    2    1    2    0    0 -0.16346709044E+02  0.18521818941E+02  0.11377173465E+03  0.14555066103E+03  0.87353961824E+02 0.  0.
          5    1    4    4  502    0 -0.43657388023E+02  0.33565756922E+01  0.10325824216E+03  0.11225679803E+03  0.47000000000E+01 0. -1.
         -5    1    3    3    0  503  0.41087471395E+02 -0.91399486352E+01  0.62006955190E+02  0.75091087744E+02  0.47000000000E+01 0. -1.
          5    1    3    3  503    0 -0.24740762350E+02 -0.93818703054E+01 -0.46050727559E+02  0.53318705169E+02  0.47000000000E+01 0. -1.
         -5    1    4    4    0  502  0.27310678979E+02  0.15165243248E+02  0.10513492491E+02  0.33293862999E+02  0.47000000000E+01 0.  1.
<mgrwt>
<rscale>  0 0.11706087E+03</rscale>
<asrwt>0</asrwt>
<pdfrwt beam="1">  1        1 0.31052955E-01 0.12741457E+03</pdfrwt>
<pdfrwt beam="2">  1       -1 0.11094807E-01 0.12741457E+03</pdfrwt>
<totfact> 0.70987948E+03</totfact>
</mgrwt>
</event>
<event>
 8    1  0.3572165E-004  0.2212041E+03  0.7546771E-02  0.1136403E+00
         -2   -1    0    0    0  501 -0.00000000000E+00  0.00000000000E+00  0.92301262861E+02  0.92301262861E+02  0.00000000000E+00 0.  1.
          2   -1    0    0  501    0  0.00000000000E+00 -0.00000000000E+00 -0.53592408140E+03  0.53592408140E+03  0.00000000000E+00 0. -1.
         25    2    1    2    0    0  0.18192107824E+03 -0.14492565468E+02 -0.13701907312E+03  0.26020277582E+03  0.12500377987E+03 0.  0.
         23    2    1    2    0    0 -0.18192107824E+03  0.14492565468E+02 -0.30660374541E+03  0.36802256843E+03  0.90163412831E+02 0.  0.
          5    1    3    3  502    0  0.62617573073E+02  0.53015585308E+02 -0.35302096952E+02  0.89442388119E+02  0.47000000000E+01 0.  1.
         -5    1    3    3    0  502  0.11930350517E+03 -0.67508150777E+02 -0.10171697617E+03  0.17076038770E+03  0.47000000000E+01 0.  1.
          5    1    4    4  503    0 -0.79821546062E+02 -0.34490922802E+02 -0.16573037069E+03  0.18721578122E+03  0.47000000000E+01 0. -1.
         -5    1    4    4    0  503 -0.10209953218E+03  0.48983488270E+02 -0.14087337472E+03  0.18080678721E+03  0.47000000000E+01 0.  1.
<mgrwt>
<rscale>  0 0.21665339E+03</rscale>
<asrwt>0</asrwt>
<pdfrwt beam="1">  1        2 0.82449861E-01 0.22120411E+03</pdfrwt>
<pdfrwt beam="2">  1       -2 0.14200194E-01 0.22120411E+03</pdfrwt>
<totfact> 0.21434810E+03</totfact>
</mgrwt>
</event>
<event>
 8    1  0.3572165E-004  0.1262485E+03  0.7546771E-02  0.1247913E+00
         -2   -1    0    0    0  501 -0.00000000000E+00  0.00000000000E+00  0.13111246343E+03  0.13111246343E+03  0.00000000000E+00 0.  1.
          2   -1    0    0  501    0  0.00000000000E+00 -0.00000000000E+00 -0.10517801222E+03  0.10517801222E+03  0.00000000000E+00 0. -1.
         25    2    1    2    0    0  0.13874395207E+01  0.17665973951E+02  0.55908595940E+02  0.13807408851E+03  0.12499868477E+03 0.  0.
         23    2    1    2    0    0 -0.13874395207E+01 -0.17665973951E+02 -0.29974144736E+02  0.98216387140E+02  0.91836799412E+02 0.  0.
          5    1    3    3  502    0  0.29007294002E+02 -0.13690165639E+02  0.82282285420E+02  0.88438160510E+02  0.47000000000E+01 0. -1.
         -5    1    3    3    0  502 -0.27619854482E+02  0.31356139590E+02 -0.26373689480E+02  0.49635927999E+02  0.47000000000E+01 0. -1.
          5    1    4    4  503    0  0.20671510453E+02  0.29469924546E+02  0.30031032557E+01  0.36426589551E+02  0.47000000000E+01 0. -1.
         -5    1    4    4    0  503 -0.22058949974E+02 -0.47135898497E+02 -0.32977247992E+02  0.61789797590E+02  0.47000000000E+01 0.  1.
<mgrwt>
<rscale>  0 0.11712735E+03</rscale>
<asrwt>0</asrwt>
<pdfrwt beam="1">  1        2 0.16181233E-01 0.12624850E+03</pdfrwt>
<pdfrwt beam="2">  1       -2 0.20171148E-01 0.12624850E+03</pdfrwt>
<totfact> 0.69427579E+03</totfact>
</mgrwt>
</event>
<event>
 8    1  0.3572165E-004  0.1255920E+03  0.7546771E-02  0.1252806E+00
         -2   -1    0    0    0  501 -0.00000000000E+00  0.00000000000E+00  0.13304791183E+02  0.13304791183E+02  0.00000000000E+00 0.  1.
          2   -1    0    0  501    0  0.00000000000E+00 -0.00000000000E+00 -0.87008399202E+03  0.87008399202E+03  0.00000000000E+00 0. -1.
         25    2    1    2    0    0  0.72460914222E+01 -0.98109069662E+01 -0.58287373557E+03  0.59625091279E+03  0.12499839855E+03 0.  0.
         23    2    1    2    0    0 -0.72460914222E+01  0.98109069662E+01 -0.27390546527E+03  0.28713787042E+03  0.85294741869E+02 0.  0.
          5    1    4    4  502    0 -0.94253591904E+01  0.39074638273E+02 -0.23349460037E+03  0.23697570161E+03  0.47000000000E+01 0. -1.
         -5    1    3    3    0  503  0.54989028607E+02  0.11960928124E+02 -0.44646583882E+03  0.45002299086E+03  0.47000000000E+01 0.  1.
          5    1    3    3  503    0 -0.47742937184E+02 -0.21771835091E+02 -0.13640789676E+03  0.14622792193E+03  0.47000000000E+01 0.  1.
         -5    1    4    4    0  502  0.21792677681E+01 -0.29263731307E+02 -0.40410864895E+02  0.50162168809E+02  0.47000000000E+01 0.  1.
<mgrwt>
<rscale>  0 0.11430125E+03</rscale>
<asrwt>0</asrwt>
<pdfrwt beam="1">  1        2 0.13385907E+00 0.12559204E+03</pdfrwt>
<pdfrwt beam="2">  1       -2 0.20468910E-02 0.12559204E+03</pdfrwt>
<totfact> 0.22390983E+04</totfact>
</mgrwt>
</event>
<event>
 8    1  0.3572165E-004  0.1327472E+03  0.7546771E-02  0.1236320E+00
         -1   -1    0    0    0  501 -0.00000000000E+00  0.00000000000E+00  0.45166925231E+03  0.45166925231E+03  0.00000000000E+00 0.  1.
          1   -1    0    0  501    0  0.00000000000E+00 -0.00000000000E+00 -0.39778400653E+02  0.39778400653E+02  0.00000000000E+00 0. -1.
         25    2    1    2    0    0  0.19203035964E+02  0.40281032862E+02  0.34509832818E+03  0.36974948868E+03  0.12502203833E+03 0.  0.
         23    2    1    2    0    0 -0.19203035964E+02 -0.40281032862E+02  0.66792523481E+02  0.12169816429E+03  0.91421462465E+02 0.  0.
          5    1    4    4  502    0 -0.21986603867E+02 -0.63131345631E+02  0.20997080659E+02  0.70227807505E+02  0.47000000000E+01 0. -1.
         -5    1    4    4    0  502  0.27835679037E+01  0.22850312769E+02  0.45795442822E+02  0.51470356782E+02  0.47000000000E+01 0.  1.
          5    1    3    3  503    0  0.92522459781E+01 -0.19584302393E+02  0.31034399515E+01  0.22380131711E+02  0.47000000000E+01 0.  1.
         -5    1    3    3    0  503  0.99507899855E+01  0.59865335255E+02  0.34199488823E+03  0.34736935697E+03  0.47000000000E+01 0.  1.
<mgrwt>
<rscale>  0 0.12420311E+03</rscale>
<asrwt>0</asrwt>
<pdfrwt beam="1">  1        1 0.61197543E-02 0.13274723E+03</pdfrwt>
<pdfrwt beam="2">  1       -1 0.69487573E-01 0.13274723E+03</pdfrwt>
<totfact> 0.26405035E+03</totfact>
</mgrwt>
</event>
<event>
 8    1  0.3572165E-004  0.2892837E+03  0.7546771E-02  0.1092527E+00
         -1   -1    0    0    0  501 -0.00000000000E+00  0.00000000000E+00  0.17066984765E+03  0.17066984765E+03  0.00000000000E+00 0.  1.
          1   -1    0    0  501    0  0.00000000000E+00 -0.00000000000E+00 -0.48626639875E+03  0.48626639875E+03  0.00000000000E+00 0. -1.
         25    2    1    2    0    0 -0.72867493241E+02  0.25050084714E+03 -0.97476337388E+02  0.30526494977E+03  0.12499882886E+03 0.  0.
         23    2    1    2    0    0  0.72867493241E+02 -0.25050084714E+03 -0.21812021372E+03  0.35167129664E+03  0.89643333599E+02 0.  0.
          5    1    3    3  502    0 -0.10359992949E+03  0.15376409307E+03 -0.44754383350E+02  0.19079147396E+03  0.47000000000E+01 0. -1.
         -5    1    3    3    0  502  0.30732436247E+02  0.96736754065E+02 -0.52721954037E+02  0.11447347580E+03  0.47000000000E+01 0. -1.
          5    1    4    4  503    0  0.78302172679E+02 -0.19249032880E+03 -0.20462475139E+03  0.29167985157E+03  0.47000000000E+01 0. -1.
         -5    1    4    4    0  503 -0.54346794383E+01 -0.58010518335E+02 -0.13495462325E+02  0.59991445069E+02  0.47000000000E+01 0.  1.
<mgrwt>
<rscale>  0 0.28586658E+03</rscale>
<asrwt>0</asrwt>
<pdfrwt beam="1">  1        1 0.74810214E-01 0.28928369E+03</pdfrwt>
<pdfrwt beam="2">  1       -1 0.26256900E-01 0.28928369E+03</pdfrwt>
<totfact> 0.60322533E+02</totfact>
</mgrwt>
</event>
<event>
 8    1  0.3572165E-004  0.1308623E+03  0.7546771E-02  0.1239552E+00
         -2   -1    0    0    0  501 -0.00000000000E+00  0.00000000000E+00  0.17690609571E+02  0.17690609571E+02  0.00000000000E+00 0.  1.
          2   -1    0    0  501    0  0.00000000000E+00 -0.00000000000E+00 -0.77820223810E+03  0.77820223810E+03  0.00000000000E+00 0. -1.
         25    2    1    2    0    0 -0.25865150433E+02  0.28866907804E+02 -0.50609788202E+03  0.52274277391E+03  0.12499054812E+03 0.  0.
         23    2    1    2    0    0  0.25865150433E+02 -0.28866907804E+02 -0.25441374651E+03  0.27315007376E+03  0.91554923458E+02 0.  0.
          5    1    4    4  502    0  0.52782692739E+02 -0.35823167356E+02 -0.21743291319E+03  0.22664614206E+03  0.47000000000E+01 0. -1.
         -5    1    4    4    0  502 -0.26917542306E+02  0.69562595520E+01 -0.36980833323E+02  0.46503931705E+02  0.47000000000E+01 0.  1.
          5    1    3    3  503    0 -0.20722410602E+02  0.49491758155E+02 -0.49569961888E+03  0.49861714229E+03  0.47000000000E+01 0. -1.
         -5    1    3    3    0  503 -0.51427398310E+01 -0.20624850351E+02 -0.10398263144E+02  0.24125631626E+02  0.47000000000E+01 0. -1.
<mgrwt>
<rscale>  0 0.12217458E+03</rscale>
<asrwt>0</asrwt>
<pdfrwt beam="1">  1        2 0.11972339E+00 0.13086230E+03</pdfrwt>
<pdfrwt beam="2">  1       -2 0.27216330E-02 0.13086230E+03</pdfrwt>
<totfact> 0.17064593E+04</totfact>
</mgrwt>
</event>
<event>
 8    1  0.3572165E-004  0.2557562E+03  0.7546771E-02  0.1112077E+00
          2   -1    0    0  501    0  0.00000000000E+00  0.00000000000E+00  0.28880854917E+03  0.28880854917E+03  0.00000000000E+00 0. -1.
         -2   -1    0    0    0  501 -0.00000000000E+00 -0.00000000000E+00 -0.28421765127E+03  0.28421765127E+03  0.00000000000E+00 0.  1.
         25    2    1    2    0    0 -0.20625145462E+03  0.85140842197E+02 -0.14052124389E+03  0.29181748084E+03  0.12499038601E+03 0.  0.
         23    2    1    2    0    0  0.20625145462E+03 -0.85140842197E+02  0.14511214179E+03  0.28120871961E+03  0.90731387885E+02 0.  0.
          5    1    3    3  502    0 -0.74492147825E+02  0.76066778888E+02 -0.11579079328E+03  0.15736846173E+03  0.47000000000E+01 0.  1.
         -5    1    3    3    0  502 -0.13175930679E+03  0.90740633089E+01 -0.24730450611E+02  0.13444901911E+03  0.47000000000E+01 0.  1.
          5    1    4    4  503    0  0.40223739519E+02 -0.17835641210E+02  0.78314682065E+02  0.89951869048E+02  0.47000000000E+01 0. -1.
         -5    1    4    4    0  503  0.16602771510E+03 -0.67305200988E+02  0.66797459723E+02  0.19125685056E+03  0.47000000000E+01 0.  1.
<mgrwt>
<rscale>  0 0.25195186E+03</rscale>
<asrwt>0</asrwt>
<pdfrwt beam="1">  1        2 0.44432085E-01 0.25575618E+03</pdfrwt>
<pdfrwt beam="2">  1       -2 0.43725792E-01 0.25575618E+03</pdfrwt>
<totfact> 0.57315460E+02</totfact>
</mgrwt>
</event>
<event>
 8    1  0.3572165E-004  0.1638293E+03  0.7546771E-02  0.1191351E+00
         -2   -1    0    0    0  501 -0.00000000000E+00  0.00000000000E+00  0.23036049151E+03  0.23036049151E+03  0.00000000000E+00 0.  1.
          2   -1    0    0  501    0  0.00000000000E+00 -0.00000000000E+00 -0.10515566963E+03  0.10515566963E+03  0.00000000000E+00 0. -1.
         25    2    1    2    0    0 -0.10520804534E+03  0.12091132715E+02  0.10219979127E+03  0.19309282862E+03  0.12500045934E+03 0.  0.
         23    2    1    2    0    0  0.10520804534E+03 -0.12091132715E+02  0.23005030615E+02  0.14242333252E+03  0.92413450962E+02 0.  0.
          5    1    3    3  502    0 -0.11153533903E+03  0.51736703657E+02  0.82393188912E+02  0.14807952572E+03  0.47000000000E+01 0.  1.
         -5    1    4    4    0  503  0.10464004416E+03  0.20031180157E+02  0.26147225070E+02  0.10980234241E+03  0.47000000000E+01 0.  1.
          5    1    4    4  503    0  0.56800117488E+00 -0.32122312872E+02 -0.31421944545E+01  0.32620990107E+02  0.47000000000E+01 0. -1.
         -5    1    3    3    0  502  0.63272936962E+01 -0.39645570942E+02  0.19806602359E+02  0.45013302899E+02  0.47000000000E+01 0.  1.
<mgrwt>
<rscale>  0 0.15767172E+03</rscale>
<asrwt>0</asrwt>
<pdfrwt beam="1">  1        2 0.16177795E-01 0.16382931E+03</pdfrwt>
<pdfrwt beam="2">  1       -2 0.35440076E-01 0.16382931E+03</pdfrwt>
<totfact> 0.26031679E+03</totfact>
</mgrwt>
</event>
<event>
 8    1  0.3572165E-004  0.1296141E+03  0.7546771E-02  0.1242508E+00
         -2   -1    0    0    0  501 -0.00000000000E+00  0.00000000000E+00  0.24105186764E+02  0.24105186764E+02  0.00000000000E+00 0.  1.
          2   -1    0    0  501    0  0.00000000000E+00 -0.00000000000E+00 -0.61194261112E+03  0.61194261112E+03  0.00000000000E+00 0. -1.
         25    2    1    2    0    0 -0.21979042205E+02  0.26298594318E+02 -0.44687026207E+03  0.46528791321E+03  0.12500046681E+03 0.  0.
         23    2    1    2    0    0  0.21979042205E+02 -0.26298594318E+02 -0.14096716229E+03  0.17075988467E+03  0.90069434381E+02 0.  0.
          5    1    3    3  502    0  0.42563634278E+02  0.26831499151E+02 -0.30750785505E+03  0.31163241684E+03  0.47000000000E+01 0.  1.
         -5    1    3    3    0  502 -0.64542676483E+02 -0.53290483356E+00 -0.13936240701E+03  0.15365549637E+03  0.47000000000E+01 0.  1.
          5    1    4    4  503    0  0.25891171115E+02 -0.13154759897E+01 -0.14257506524E+03  0.14498904250E+03  0.47000000000E+01 0. -1.
         -5    1    4    4    0  503 -0.39121289095E+01 -0.24983118328E+02  0.16079029507E+01  0.25770842165E+02  0.47000000000E+01 0.  1.
<mgrwt>
<rscale>  0 0.12035794E+03</rscale>
<asrwt>0</asrwt>
<pdfrwt beam="1">  1        2 0.94145027E-01 0.12961409E+03</pdfrwt>
<pdfrwt beam="2">  1       -2 0.37084899E-02 0.12961409E+03</pdfrwt>
<totfact> 0.14368853E+04</totfact>
</mgrwt>
</event>
<event>
 8    1  0.3572165E-004  0.2078084E+03  0.7546771E-02  0.1146988E+00
          2   -1    0    0  501    0  0.00000000000E+00  0.00000000000E+00  0.12022994133E+03  0.12022994133E+03  0.00000000000E+00 0. -1.
         -2   -1    0    0    0  501 -0.00000000000E+00 -0.00000000000E+00 -0.35173521490E+03  0.35173521490E+03  0.00000000000E+00 0.  1.
         25    2    1    2    0    0 -0.15792663843E+03 -0.51168999179E+02 -0.17963248116E+03  0.27468559856E+03  0.12500104067E+03 0.  0.
         23    2    1    2    0    0  0.15792663843E+03  0.51168999179E+02 -0.51872792416E+02  0.19727955766E+03  0.93109331851E+02 0.  0.
          5    1    4    4  502    0  0.10443970989E+03  0.19918551779E+02  0.13284334514E+02  0.10725187760E+03  0.47000000000E+01 0. -1.
         -5    1    4    4    0  502  0.53486928540E+02  0.31250447400E+02 -0.65157126930E+02  0.90027680061E+02  0.47000000000E+01 0.  1.
          5    1    3    3  503    0 -0.96960921971E+02 -0.79957544373E+02 -0.16153470662E+03  0.20471976147E+03  0.47000000000E+01 0.  1.
         -5    1    3    3    0  503 -0.60965716454E+02  0.28788545193E+02 -0.18097774538E+02  0.69965837095E+02  0.47000000000E+01 0.  1.
<mgrwt>
<rscale>  0 0.20329589E+03</rscale>
<asrwt>0</asrwt>
<pdfrwt beam="1">  1        2 0.18496914E-01 0.20780844E+03</pdfrwt>
<pdfrwt beam="2">  1       -2 0.54113110E-01 0.20780844E+03</pdfrwt>
<totfact> 0.98926103E+02</totfact>
</mgrwt>
</event>
<event>
 8    1  0.3572165E-004  0.2266690E+03  0.7546771E-02  0.1132294E+00
         -1   -1    0    0    0  501 -0.00000000000E+00  0.00000000000E+00  0.18070274044E+03  0.18070274044E+03  0.00000000000E+00 0.  1.
          1   -1    0    0  501    0  0.00000000000E+00 -0.00000000000E+00 -0.44759282296E+03  0.44759282296E+03  0.00000000000E+00 0. -1.
         25    2    1    2    0    0 -0.12579820266E+03  0.14118502247E+03 -0.33840086601E+03  0.40730086654E+03  0.12498180431E+03 0.  0.
         23    2    1    2    0    0  0.12579820266E+03 -0.14118502247E+03  0.71510783490E+02  0.22099469686E+03  0.89255058819E+02 0.  0.
          5    1    3    3  502    0 -0.76363942048E+02  0.10493162974E+02 -0.18093601787E+03  0.19672694446E+03  0.47000000000E+01 0.  1.
         -5    1    4    4    0  503  0.55448600111E+02 -0.75216701070E+02  0.81290819536E+02  0.12394509557E+03  0.47000000000E+01 0.  1.
          5    1    4    4  503    0  0.70349602550E+02 -0.65968321399E+02 -0.97800360458E+01  0.97049601299E+02  0.47000000000E+01 0. -1.
         -5    1    3    3    0  502 -0.49434260613E+02  0.13069185950E+03 -0.15746484814E+03  0.21057392208E+03  0.47000000000E+01 0.  1.
<mgrwt>
<rscale>  0 0.22214431E+03</rscale>
<asrwt>0</asrwt>
<pdfrwt beam="1">  1        1 0.68860434E-01 0.22666903E+03</pdfrwt>
<pdfrwt beam="2">  1       -1 0.27800422E-01 0.22666903E+03</pdfrwt>
<totfact> 0.61217859E+02</totfact>
</mgrwt>
</event>
<event>
 8    1  0.3572165E-004  0.1281168E+03  0.7546771E-02  0.1244572E+00
          2   -1    0    0  501    0  0.00000000000E+00  0.00000000000E+00  0.25545564864E+02  0.25545564864E+02  0.00000000000E+00 0. -1.
         -2   -1    0    0    0  501 -0.00000000000E+00 -0.00000000000E+00 -0.51046673308E+03  0.51046673308E+03  0.00000000000E+00 0.  1.
         25    2    1    2    0    0 -0.27679091166E+02 -0.46183500012E+01 -0.22345225367E+03  0.25757488271E+03  0.12500579702E+03 0.  0.
         23    2    1    2    0    0  0.27679091166E+02  0.46183500012E+01 -0.26146891454E+03  0.27843741523E+03  0.91509232781E+02 0.  0.
          5    1    3    3  502    0  0.22482870461E+02  0.28694883532E+02 -0.13579436547E+02  0.39183758141E+02  0.47000000000E+01 0.  1.
         -5    1    3    3    0  502 -0.50161961628E+02 -0.33313233533E+02 -0.20987281713E+03  0.21839112457E+03  0.47000000000E+01 0.  1.
          5    1    4    4  503    0  0.28428549910E+02 -0.29617286227E+02 -0.53417611347E+02  0.67534415637E+02  0.47000000000E+01 0. -1.
         -5    1    4    4    0  503 -0.74945874375E+00  0.34235636228E+02 -0.20805130320E+03  0.21090299960E+03  0.47000000000E+01 0.  1.
<mgrwt>
<rscale>  0 0.11911042E+03</rscale>
<asrwt>0</asrwt>
<pdfrwt beam="1">  1        2 0.39300874E-02 0.12811678E+03</pdfrwt>
<pdfrwt beam="2">  1       -2 0.78533334E-01 0.12811678E+03</pdfrwt>
<totfact> 0.30604243E+03</totfact>
</mgrwt>
</event>
<event>
 8    1  0.3572165E-004  0.1492537E+03  0.7546771E-02  0.1210649E+00
          3   -1    0    0  501    0  0.00000000000E+00  0.00000000000E+00  0.27107061000E+03  0.27107061000E+03  0.00000000000E+00 0. -1.
         -3   -1    0    0    0  501 -0.00000000000E+00 -0.00000000000E+00 -0.68233268925E+02  0.68233268925E+02  0.00000000000E+00 0.  1.
         25    2    1    2    0    0  0.72962307195E+02  0.36445692861E+02  0.12087460475E+03  0.19206076747E+03  0.12499952611E+03 0.  0.
         23    2    1    2    0    0 -0.72962307195E+02 -0.36445692861E+02  0.81962736324E+02  0.14724311146E+03  0.91163901441E+02 0.  0.
          5    1    3    3  502    0 -0.55200617237E+01  0.63507214294E+02  0.68996433567E+02  0.94054426763E+02  0.47000000000E+01 0. -1.
         -5    1    3    3    0  502  0.78482368919E+02 -0.27061521433E+02  0.51878171187E+02  0.98006340708E+02  0.47000000000E+01 0. -1.
          5    1    4    4  503    0 -0.28255823977E+02 -0.12507193212E+02  0.90371763061E+02  0.95624092307E+02  0.47000000000E+01 0. -1.
         -5    1    4    4    0  503 -0.44706483218E+02 -0.23938499650E+02 -0.84090267376E+01  0.51619019148E+02  0.47000000000E+01 0.  1.
<mgrwt>
<rscale>  0 0.14201031E+03</rscale>
<asrwt>0</asrwt>
<pdfrwt beam="1">  1        3 0.41703170E-01 0.14925370E+03</pdfrwt>
<pdfrwt beam="2">  1       -3 0.10497426E-01 0.14925370E+03</pdfrwt>
<totfact> 0.91253386E+02</totfact>
</mgrwt>
</event>
<event>
 8    1  0.3572165E-004  0.2033158E+03  0.7546771E-02  0.1150954E+00
          2   -1    0    0  501    0  0.00000000000E+00  0.00000000000E+00  0.18943969295E+03  0.18943969295E+03  0.00000000000E+00 0. -1.
         -2   -1    0    0    0  501 -0.00000000000E+00 -0.00000000000E+00 -0.20032576149E+03  0.20032576149E+03  0.00000000000E+00 0.  1.
         25    2    1    2    0    0 -0.15262438879E+03 -0.49156232103E+02  0.10329457907E+02  0.20357801069E+03  0.12500707791E+03 0.  0.
         23    2    1    2    0    0  0.15262438879E+03  0.49156232103E+02 -0.21215526457E+02  0.18618744375E+03  0.92223242403E+02 0.  0.
          5    1    4    4  502    0  0.53106708474E+02  0.65025274184E+02 -0.91335904818E+01  0.84582038535E+02  0.47000000000E+01 0. -1.
         -5    1    3    3    0  503 -0.89339177283E+02  0.15845689800E+02  0.50839812660E+02  0.10411220406E+03  0.47000000000E+01 0.  1.
          5    1    3    3  503    0 -0.63285211507E+02 -0.65001921903E+02 -0.40510354753E+02  0.99465806631E+02  0.47000000000E+01 0.  1.
         -5    1    4    4    0  502  0.99517680315E+02 -0.15869042082E+02 -0.12081935975E+02  0.10160540521E+03  0.47000000000E+01 0.  1.
<mgrwt>
<rscale>  0 0.19856671E+03</rscale>
<asrwt>0</asrwt>
<pdfrwt beam="1">  1        2 0.29144568E-01 0.20331579E+03</pdfrwt>
<pdfrwt beam="2">  1       -2 0.30819348E-01 0.20331579E+03</pdfrwt>
<totfact> 0.17446677E+03</totfact>
</mgrwt>
</event>
<event>
 8    1  0.3572165E-004  0.1297231E+03  0.7546771E-02  0.1242821E+00
         -1   -1    0    0    0  501 -0.00000000000E+00  0.00000000000E+00  0.21868383662E+02  0.21868383662E+02  0.00000000000E+00 0. -1.
          1   -1    0    0  501    0  0.00000000000E+00 -0.00000000000E+00 -0.60004214104E+03  0.60004214104E+03  0.00000000000E+00 0.  1.
         25    2    1    2    0    0  0.33177189627E+02 -0.10115977346E+02 -0.27532591933E+03  0.30435577219E+03  0.12500006120E+03 0.  0.
         23    2    1    2    0    0 -0.33177189627E+02  0.10115977346E+02 -0.30284783805E+03  0.31755475252E+03  0.89000836656E+02 0.  0.
          5    1    4    4  502    0 -0.35825874149E+02  0.42755071492E+02 -0.12953873969E+03  0.14111649258E+03  0.47000000000E+01 0. -1.
         -5    1    4    4    0  502  0.26486845219E+01 -0.32639094146E+02 -0.17330909836E+03  0.17643825994E+03  0.47000000000E+01 0.  1.
          5    1    3    3  503    0  0.30232080842E+02  0.29795648758E+02 -0.25623028895E+03  0.25976491367E+03  0.47000000000E+01 0.  1.
         -5    1    3    3    0  503  0.29451087851E+01 -0.39911626104E+02 -0.19095630381E+02  0.44590858521E+02  0.47000000000E+01 0.  1.
<mgrwt>
<rscale>  0 0.12016758E+03</rscale>
<asrwt>0</asrwt>
<pdfrwt beam="1">  1        1 0.92314181E-01 0.12972307E+03</pdfrwt>
<pdfrwt beam="2">  1       -1 0.33643665E-02 0.12972307E+03</pdfrwt>
<totfact> 0.10645630E+04</totfact>
</mgrwt>
</event>
<event>
 8    1  0.3572165E-004  0.1432470E+03  0.7546771E-02  0.1218956E+00
         -1   -1    0    0    0  501 -0.00000000000E+00  0.00000000000E+00  0.77403124425E+02  0.77403124425E+02  0.00000000000E+00 0.  1.
          1   -1    0    0  501    0  0.00000000000E+00 -0.00000000000E+00 -0.23952320674E+03  0.23952320674E+03  0.00000000000E+00 0. -1.
         25    2    1    2    0    0  0.69671593737E+02 -0.62271880498E+01 -0.13696517434E+03  0.19818971759E+03  0.12500718511E+03 0.  0.
         23    2    1    2    0    0 -0.69671593737E+02  0.62271880498E+01 -0.25154907974E+02  0.11873661358E+03  0.92588904110E+02 0.  0.
          5    1    3    3  502    0  0.77857311801E+02  0.29487120543E+02 -0.13799741709E+03  0.16123469975E+03  0.47000000000E+01 0. -1.
         -5    1    4    4    0  503 -0.11450570077E+02  0.31308924560E+02 -0.41169492074E+02  0.53182528991E+02  0.47000000000E+01 0.  1.
          5    1    4    4  503    0 -0.58221023660E+02 -0.25081736510E+02  0.16014584100E+02  0.65554084589E+02  0.47000000000E+01 0. -1.
         -5    1    3    3    0  502 -0.81857180645E+01 -0.35714308593E+02  0.10322427484E+01  0.36955017841E+02  0.47000000000E+01 0. -1.
<mgrwt>
<rscale>  0 0.13589937E+03</rscale>
<asrwt>0</asrwt>
<pdfrwt beam="1">  1        1 0.36849724E-01 0.14324701E+03</pdfrwt>
<pdfrwt beam="2">  1       -1 0.11908173E-01 0.14324701E+03</pdfrwt>
<totfact> 0.51889933E+03</totfact>
</mgrwt>
</event>
<event>
 8    1  0.3572165E-004  0.1296596E+03  0.7546771E-02  0.1241485E+00
          2   -1    0    0  501    0  0.00000000000E+00  0.00000000000E+00  0.25028361519E+03  0.25028361519E+03  0.00000000000E+00 0. -1.
         -2   -1    0    0    0  501 -0.00000000000E+00 -0.00000000000E+00 -0.56220649611E+02  0.56220649611E+02  0.00000000000E+00 0.  1.
         25    2    1    2    0    0  0.34075013165E+02 -0.49892099922E+01  0.67242230797E+02  0.14605863314E+03  0.12500243187E+03 0.  0.
         23    2    1    2    0    0 -0.34075013165E+02  0.49892099922E+01  0.12682073478E+03  0.16044563166E+03  0.92050547038E+02 0.  0.
          5    1    4    4  502    0 -0.13403451619E+02 -0.15855196325E+02  0.12889699081E+03  0.13064288731E+03  0.47000000000E+01 0. -1.
         -5    1    4    4    0  502 -0.20671561546E+02  0.20844406317E+02 -0.20762560306E+01  0.29802744346E+02  0.47000000000E+01 0.  1.
          5    1    3    3  503    0 -0.11227986278E+01  0.50143157585E+02 -0.23578076537E+01  0.50430607634E+02  0.47000000000E+01 0.  1.
         -5    1    3    3    0  503  0.35197811793E+02 -0.55132367577E+02  0.69600038451E+02  0.95628025505E+02  0.47000000000E+01 0.  1.
<mgrwt>
<rscale>  0 0.12098226E+03</rscale>
<asrwt>0</asrwt>
<pdfrwt beam="1">  1        2 0.38505171E-01 0.12965958E+03</pdfrwt>
<pdfrwt beam="2">  1       -2 0.86493309E-02 0.12965958E+03</pdfrwt>
<totfact> 0.10472985E+04</totfact>
</mgrwt>
</event>
<event>
 8    1  0.3572165E-004  0.1267396E+03  0.7546771E-02  0.1253312E+00
          1   -1    0    0  501    0  0.00000000000E+00  0.00000000000E+00  0.40532415810E+03  0.40532415810E+03  0.00000000000E+00 0. -1.
         -1   -1    0    0    0  501 -0.00000000000E+00 -0.00000000000E+00 -0.28209761842E+02  0.28209761842E+02  0.00000000000E+00 0.  1.
         25    2    1    2    0    0 -0.88558390140E+01 -0.18948269518E+02  0.18494186538E+03  0.22420176258E+03  0.12500189587E+03 0.  0.
         23    2    1    2    0    0  0.88558390140E+01  0.18948269518E+02  0.19217253088E+03  0.20933215736E+03  0.80325635251E+02 0.  0.
          5    1    3    3  502    0 -0.50386566748E+02 -0.50638299391E+02  0.12888174635E+03  0.14743011231E+03  0.47000000000E+01 0.  1.
         -5    1    3    3    0  502  0.41530727734E+02  0.31690029874E+02  0.56060119028E+02  0.76771650269E+02  0.47000000000E+01 0.  1.
          5    1    4    4  503    0 -0.73015910389E+01 -0.29967817602E+02  0.76625931773E+02  0.82734555922E+02  0.47000000000E+01 0. -1.
         -5    1    4    4    0  503  0.16157430053E+02  0.48916087120E+02  0.11554659911E+03  0.12659760144E+03  0.47000000000E+01 0.  1.
<mgrwt>
<rscale>  0 0.11401426E+03</rscale>
<asrwt>0</asrwt>
<pdfrwt beam="1">  1        1 0.62357558E-01 0.12673964E+03</pdfrwt>
<pdfrwt beam="2">  1       -1 0.43399637E-02 0.12673964E+03</pdfrwt>
<totfact> 0.12198005E+04</totfact>
</mgrwt>
</event>
<event>
 8    1  0.3572165E-004  0.1263418E+03  0.7546771E-02  0.1251174E+00
         -2   -1    0    0    0  501 -0.00000000000E+00  0.00000000000E+00  0.30336406422E+03  0.30336406422E+03  0.00000000000E+00 0.  1.
          2   -1    0    0  501    0  0.00000000000E+00 -0.00000000000E+00 -0.42563400296E+02  0.42563400296E+02  0.00000000000E+00 0. -1.
         25    2    1    2    0    0  0.18205069798E+02  0.15402457031E+01  0.20923829829E+03  0.24442363997E+03  0.12501381277E+03 0.  0.
         23    2    1    2    0    0 -0.18205069798E+02 -0.15402457031E+01  0.51562365632E+02  0.10150382454E+03  0.85501765614E+02 0.  0.
          5    1    4    4  502    0  0.25521181131E+02 -0.10409196642E+02 -0.59263586546E+01  0.28581353851E+02  0.47000000000E+01 0. -1.
         -5    1    4    4    0  502 -0.43726250929E+02  0.88689509386E+01  0.57488724287E+02  0.72922470688E+02  0.47000000000E+01 0.  1.
          5    1    3    3  503    0  0.16538245368E+02 -0.57370462170E+02  0.64201296406E+02  0.87799658027E+02  0.47000000000E+01 0. -1.
         -5    1    3    3    0  503  0.16668244299E+01  0.58910707873E+02  0.14503700188E+03  0.15662398195E+03  0.47000000000E+01 0. -1.
<mgrwt>
<rscale>  0 0.11523326E+03</rscale>
<asrwt>0</asrwt>
<pdfrwt beam="1">  1        2 0.65482156E-02 0.12634180E+03</pdfrwt>
<pdfrwt beam="2">  1       -2 0.46671393E-01 0.12634180E+03</pdfrwt>
<totfact> 0.45913241E+03</totfact>
</mgrwt>
</event>
<event>
 8    1  0.3572165E-004  0.1404060E+03  0.7546771E-02  0.1224209E+00
         -3   -1    0    0    0  501 -0.00000000000E+00  0.00000000000E+00  0.46799821513E+02  0.46799821513E+02  0.00000000000E+00 0.  1.
          3   -1    0    0  501    0  0.00000000000E+00 -0.00000000000E+00 -0.33629193318E+03  0.33629193318E+03  0.00000000000E+00 0. -1.
         25    2    1    2    0    0 -0.60117009580E+02  0.21852414170E+02 -0.15649202349E+03  0.21024649962E+03  0.12498901687E+03 0.  0.
         23    2    1    2    0    0  0.60117009580E+02 -0.21852414170E+02 -0.13300008817E+03  0.17284525507E+03  0.89971528286E+02 0.  0.
          5    1    4    4  502    0  0.35571028417E+02 -0.23167410111E+02 -0.14039617154E+03  0.14674877150E+03  0.47000000000E+01 0. -1.
         -5    1    3    3    0  503 -0.44993745070E+01  0.65866983571E+02 -0.53498448702E+02  0.85105099196E+02  0.47000000000E+01 0. -1.
          5    1    3    3  503    0 -0.55617635073E+02 -0.44014569401E+02 -0.10299357479E+03  0.12514140042E+03  0.47000000000E+01 0. -1.
         -5    1    4    4    0  502  0.24545981163E+02  0.13149959411E+01  0.73960833703E+01  0.26096483572E+02  0.47000000000E+01 0.  1.
<mgrwt>
<rscale>  0 0.13221291E+03</rscale>
<asrwt>0</asrwt>
<pdfrwt beam="1">  1        3 0.51737220E-01 0.14040597E+03</pdfrwt>
<pdfrwt beam="2">  1       -3 0.71999726E-02 0.14040597E+03</pdfrwt>
<totfact> 0.10955785E+03</totfact>
</mgrwt>
</event>
<event>
 8    1  0.3572165E-004  0.1593914E+03  0.7546771E-02  0.1197380E+00
          2   -1    0    0  501    0  0.00000000000E+00  0.00000000000E+00  0.37248231947E+02  0.37248231947E+02  0.00000000000E+00 0. -1.
         -2   -1    0    0    0  501 -0.00000000000E+00 -0.00000000000E+00 -0.66124538999E+03  0.66124538999E+03  0.00000000000E+00 0.  1.
         25    2    1    2    0    0  0.73138676699E+02  0.66563199951E+02 -0.46033122803E+03  0.48714519647E+03  0.12500270927E+03 0.  0.
         23    2    1    2    0    0 -0.73138676699E+02 -0.66563199951E+02 -0.16366593001E+03  0.21134842547E+03  0.90009414422E+02 0.  0.
          5    1    3    3  502    0 -0.23447057823E+02  0.31170262910E+01 -0.18408292692E+02  0.30338681799E+02  0.47000000000E+01 0.  1.
         -5    1    3    3    0  502  0.96585734522E+02  0.63446173660E+02 -0.44192293534E+03  0.45680651467E+03  0.47000000000E+01 0.  1.
          5    1    4    4  503    0 -0.72865888346E+02 -0.34870161971E+02 -0.54453089948E+02  0.97532532446E+02  0.47000000000E+01 0. -1.
         -5    1    4    4    0  503 -0.27278835294E+00 -0.31693037980E+02 -0.10921284007E+03  0.11381589302E+03  0.47000000000E+01 0.  1.
<mgrwt>
<rscale>  0 0.15254551E+03</rscale>
<asrwt>0</asrwt>
<pdfrwt beam="1">  1        2 0.57304977E-02 0.15939135E+03</pdfrwt>
<pdfrwt beam="2">  1       -2 0.10173005E+00 0.15939135E+03</pdfrwt>
<totfact> 0.10575046E+03</totfact>
</mgrwt>
</event>
<event>
 8    1  0.3572165E-004  0.1464362E+03  0.7546771E-02  0.1213432E+00
         -3   -1    0    0    0  501 -0.00000000000E+00  0.00000000000E+00  0.14137783592E+03  0.14137783592E+03  0.00000000000E+00 0.  1.
          3   -1    0    0  501    0  0.00000000000E+00 -0.00000000000E+00 -0.15949265764E+03  0.15949265764E+03  0.00000000000E+00 0. -1.
         25    2    1    2    0    0  0.66542302601E+02 -0.37266559781E+02  0.57451311967E+02  0.15730296175E+03  0.12500757583E+03 0.  0.
         23    2    1    2    0    0 -0.66542302601E+02  0.37266559781E+02 -0.75566133682E+02  0.14356753181E+03  0.95313803398E+02 0.  0.
          5    1    3    3  502    0  0.32012749010E+02  0.66431167473E+01  0.87622696040E+02  0.93641731940E+02  0.47000000000E+01 0. -1.
         -5    1    4    4    0  503 -0.47122793715E+02 -0.34613016190E+01  0.83145607628E+01  0.48205396141E+02  0.47000000000E+01 0.  1.
          5    1    4    4  503    0 -0.19419508885E+02  0.40727861400E+02 -0.83880694445E+02  0.95362135673E+02  0.47000000000E+01 0. -1.
         -5    1    3    3    0  502  0.34529553591E+02 -0.43909676528E+02 -0.30171384074E+02  0.63661229810E+02  0.47000000000E+01 0. -1.
<mgrwt>
<rscale>  0 0.13992321E+03</rscale>
<asrwt>0</asrwt>
<pdfrwt beam="1">  1        3 0.24537332E-01 0.14643623E+03</pdfrwt>
<pdfrwt beam="2">  1       -3 0.21750436E-01 0.14643623E+03</pdfrwt>
<totfact> 0.70242031E+02</totfact>
</mgrwt>
</event>
<event>
 8    1  0.3572165E-004  0.1261596E+03  0.7546771E-02  0.1249392E+00
         -2   -1    0    0    0  501 -0.00000000000E+00  0.00000000000E+00  0.11338927476E+02  0.11338927476E+02  0.00000000000E+00 0.  1.
          2   -1    0    0  501    0  0.00000000000E+00 -0.00000000000E+00 -0.11879512201E+04  0.11879512201E+04  0.00000000000E+00 0. -1.
         25    2    1    2    0    0 -0.13451627217E+02 -0.10475404244E+02 -0.88109224676E+03  0.89007853376E+03  0.12500227434E+03 0.  0.
         23    2    1    2    0    0  0.13451627217E+02  0.10475404244E+02 -0.29552004586E+03  0.30921161381E+03  0.89381453571E+02 0.  0.
          5    1    3    3  502    0  0.42810678214E+01  0.53877087163E+02 -0.27473796541E+03  0.28004304616E+03  0.47000000000E+01 0. -1.
         -5    1    3    3    0  502 -0.17732695039E+02 -0.64352491407E+02 -0.60635428135E+03  0.61003548760E+03  0.47000000000E+01 0. -1.
          5    1    4    4  503    0  0.13313035754E+01 -0.39235819403E+02 -0.12247066420E+03  0.12869489299E+03  0.47000000000E+01 0. -1.
         -5    1    4    4    0  503  0.12120323642E+02  0.49711223647E+02 -0.17304938166E+03  0.18051672082E+03  0.47000000000E+01 0.  1.
<mgrwt>
<rscale>  0 0.11626320E+03</rscale>
<asrwt>0</asrwt>
<pdfrwt beam="1">  1        2 0.18276172E+00 0.12615962E+03</pdfrwt>
<pdfrwt beam="2">  1       -2 0.17444505E-02 0.12615962E+03</pdfrwt>
<totfact> 0.18322532E+04</totfact>
</mgrwt>
</event>
<event>
 8    1  0.3572165E-004  0.1626956E+03  0.7546771E-02  0.1193212E+00
          3   -1    0    0  501    0  0.00000000000E+00  0.00000000000E+00  0.52958185844E+03  0.52958185844E+03  0.00000000000E+00 0.  1.
         -3   -1    0    0    0  501 -0.00000000000E+00 -0.00000000000E+00 -0.42835555558E+02  0.42835555558E+02  0.00000000000E+00 0. -1.
         25    2    1    2    0    0  0.10727655311E+02 -0.10362034126E+03  0.24293662399E+03  0.29238340650E+03  0.12497037813E+03 0.  0.
         23    2    1    2    0    0 -0.10727655311E+02  0.10362034126E+03  0.24380967889E+03  0.28003400750E+03  0.90131171760E+02 0.  0.
          5    1    4    4  502    0 -0.42382647201E+02  0.41408129269E+02  0.16103426895E+03  0.17165386022E+03  0.47000000000E+01 0. -1.
         -5    1    3    3    0  503 -0.37846509187E+02 -0.51834712497E+02  0.19807180008E+03  0.20826359178E+03  0.47000000000E+01 0.  1.
          5    1    3    3  503    0  0.48574164498E+02 -0.51785628762E+02  0.44864823912E+02  0.84119814715E+02  0.47000000000E+01 0.  1.
         -5    1    4    4    0  502  0.31654991890E+02  0.62212211990E+02  0.82775409941E+02  0.10838014727E+03  0.47000000000E+01 0.  1.
<mgrwt>
<rscale>  0 0.15606556E+03</rscale>
<asrwt>0</asrwt>
<pdfrwt beam="1">  1        3 0.81474128E-01 0.16269558E+03</pdfrwt>
<pdfrwt beam="2">  1       -3 0.65900858E-02 0.16269558E+03</pdfrwt>
<totfact> 0.49927844E+02</totfact>
</mgrwt>
</event>
<event>
 8    1  0.3572165E-004  0.1626466E+03  0.7546771E-02  0.1192960E+00
         -2   -1    0    0    0  501 -0.00000000000E+00  0.00000000000E+00  0.47962457497E+02  0.47962457497E+02  0.00000000000E+00 0.  1.
          2   -1    0    0  501    0  0.00000000000E+00 -0.00000000000E+00 -0.47872494671E+03  0.47872494671E+03  0.00000000000E+00 0. -1.
         25    2    1    2    0    0  0.71392848929E+01  0.10380720436E+03 -0.20401903515E+03  0.26091701934E+03  0.12500807659E+03 0.  0.
         23    2    1    2    0    0 -0.71392848929E+01 -0.10380720436E+03 -0.22674345407E+03  0.26577038487E+03  0.91620949815E+02 0.  0.
          5    1    4    4  502    0 -0.34111856702E+02 -0.10242844124E+03 -0.20078087567E+03  0.22801371533E+03  0.47000000000E+01 0. -1.
         -5    1    4    4    0  502  0.26972571809E+02 -0.13787631136E+01 -0.25962578405E+02  0.37756669546E+02  0.47000000000E+01 0.  1.
          5    1    3    3  503    0 -0.49790530042E+02  0.61512292002E+02 -0.15645267337E+03  0.17539209775E+03  0.47000000000E+01 0. -1.
         -5    1    3    3    0  503  0.56929814935E+02  0.42294912357E+02 -0.47566361773E+02  0.85524921585E+02  0.47000000000E+01 0. -1.
<mgrwt>
<rscale>  0 0.15628117E+03</rscale>
<asrwt>0</asrwt>
<pdfrwt beam="1">  1        2 0.73649994E-01 0.16264662E+03</pdfrwt>
<pdfrwt beam="2">  1       -2 0.73788394E-02 0.16264662E+03</pdfrwt>
<totfact> 0.67961465E+03</totfact>
</mgrwt>
</event>
<event>
 8    1  0.3572165E-004  0.1553862E+03  0.7546771E-02  0.1201321E+00
         -2   -1    0    0    0  501 -0.00000000000E+00  0.00000000000E+00  0.76435958268E+03  0.76435958268E+03  0.00000000000E+00 0.  1.
          2   -1    0    0  501    0  0.00000000000E+00 -0.00000000000E+00 -0.29209574953E+02  0.29209574953E+02  0.00000000000E+00 0. -1.
         25    2    1    2    0    0  0.43363513002E+02 -0.81483446997E+02  0.28847061847E+03  0.32765860322E+03  0.12499966460E+03 0.  0.
         23    2    1    2    0    0 -0.43363513002E+02  0.81483446997E+02  0.44667938925E+03  0.46591055441E+03  0.95027477763E+02 0.  0.
          5    1    4    4  502    0 -0.16437851103E+02  0.33251630902E+02  0.37366414026E+02  0.52860314071E+02  0.47000000000E+01 0. -1.
         -5    1    3    3    0  503  0.46001593854E+02  0.22023706693E+02  0.83115115085E+02  0.97628902735E+02  0.47000000000E+01 0. -1.
          5    1    3    3  503    0 -0.26380808514E+01 -0.10350715369E+03  0.20535550339E+03  0.23002970049E+03  0.47000000000E+01 0. -1.
         -5    1    4    4    0  502 -0.26925661899E+02  0.48231816095E+02  0.40931297523E+03  0.41305024033E+03  0.47000000000E+01 0.  1.
<mgrwt>
<rscale>  0 0.14931190E+03</rscale>
<asrwt>0</asrwt>
<pdfrwt beam="1">  1        2 0.44937813E-02 0.15538617E+03</pdfrwt>
<pdfrwt beam="2">  1       -2 0.11759377E+00 0.15538617E+03</pdfrwt>
<totfact> 0.10321382E+03</totfact>
</mgrwt>
</event>
<event>
 8    1  0.3572165E-004  0.1554859E+03  0.7546771E-02  0.1202121E+00
          2   -1    0    0  501    0  0.00000000000E+00  0.00000000000E+00  0.88788063936E+03  0.88788063936E+03  0.00000000000E+00 0. -1.
         -2   -1    0    0    0  501 -0.00000000000E+00 -0.00000000000E+00 -0.27557621054E+02  0.27557621054E+02  0.00000000000E+00 0.  1.
         25    2    1    2    0    0 -0.91253511844E+02 -0.14954601108E+02  0.64892139103E+03  0.66728916289E+03  0.12500004664E+03 0.  0.
         23    2    1    2    0    0  0.91253511844E+02  0.14954601108E+02  0.21140162728E+03  0.24814909752E+03  0.91304343092E+02 0.  0.
          5    1    3    3  502    0 -0.72966544682E+02 -0.64747385255E+02  0.49135436340E+03  0.50096660665E+03  0.47000000000E+01 0. -1.
         -5    1    3    3    0  502 -0.18286967162E+02  0.49792784147E+02  0.15756702762E+03  0.16632255624E+03  0.47000000000E+01 0. -1.
          5    1    4    4  503    0  0.71802741236E+02 -0.22415730864E+02  0.18076240646E+03  0.19584492903E+03  0.47000000000E+01 0. -1.
         -5    1    4    4    0  503  0.19450770608E+02  0.37370331972E+02  0.30639220818E+02  0.52304168489E+02  0.47000000000E+01 0.  1.
<mgrwt>
<rscale>  0 0.14866656E+03</rscale>
<asrwt>0</asrwt>
<pdfrwt beam="1">  1        2 0.13659700E+00 0.15548587E+03</pdfrwt>
<pdfrwt beam="2">  1       -2 0.42396347E-02 0.15548587E+03</pdfrwt>
<totfact> 0.75788644E+03</totfact>
</mgrwt>
</event>
<event>
 8    1  0.3572165E-004  0.1260682E+03  0.7546771E-02  0.1246860E+00
          1   -1    0    0  501    0  0.00000000000E+00  0.00000000000E+00  0.43968094850E+02  0.43968094850E+02  0.00000000000E+00 0. -1.
         -1   -1    0    0    0  501 -0.00000000000E+00 -0.00000000000E+00 -0.28060379925E+03  0.28060379925E+03  0.00000000000E+00 0.  1.
         25    2    1    2    0    0 -0.10822248854E+02 -0.12392052552E+02 -0.12858907771E+03  0.18007869808E+03  0.12499000984E+03 0.  0.
         23    2    1    2    0    0  0.10822248854E+02  0.12392052552E+02 -0.10804662669E+03  0.14449319601E+03  0.94517332373E+02 0.  0.
          5    1    4    4  502    0 -0.23581307322E+02  0.29863497674E+02 -0.10901993130E+02  0.39860381364E+02  0.47000000000E+01 0. -1.
         -5    1    4    4    0  502  0.34403556175E+02 -0.17471445122E+02 -0.97144633560E+02  0.10463281465E+03  0.47000000000E+01 0.  1.
          5    1    3    3  503    0  0.15994419920E+02  0.12980349162E+02  0.18666722849E+02  0.28193039475E+02  0.47000000000E+01 0.  1.
         -5    1    3    3    0  503 -0.26816668774E+02 -0.25372401714E+02 -0.14725580056E+03  0.15188565861E+03  0.47000000000E+01 0.  1.
<mgrwt>
<rscale>  0 0.11774770E+03</rscale>
<asrwt>0</asrwt>
<pdfrwt beam="1">  1        1 0.67643222E-02 0.12606818E+03</pdfrwt>
<pdfrwt beam="2">  1       -1 0.43169816E-01 0.12606818E+03</pdfrwt>
<totfact> 0.55775595E+03</totfact>
</mgrwt>
</event>
<event>
 8    1  0.3572165E-004  0.1381509E+03  0.7546771E-02  0.1227595E+00
          2   -1    0    0  501    0  0.00000000000E+00  0.00000000000E+00  0.21527515728E+03  0.21527515728E+03  0.00000000000E+00 0. -1.
         -2   -1    0    0    0  501 -0.00000000000E+00 -0.00000000000E+00 -0.70426296234E+02  0.70426296234E+02  0.00000000000E+00 0.  1.
         25    2    1    2    0    0 -0.28081391641E+02  0.51653367936E+02  0.77233809727E+02  0.15827424646E+03  0.12501616196E+03 0.  0.
         23    2    1    2    0    0  0.28081391641E+02 -0.51653367936E+02  0.67615051320E+02  0.12742720706E+03  0.90604983076E+02 0.  0.
          5    1    3    3  502    0 -0.65670629637E+02  0.54260306171E+02  0.83972780327E+02  0.11970935744E+03  0.47000000000E+01 0. -1.
         -5    1    3    3    0  502  0.37589237996E+02 -0.26069382347E+01 -0.67389705998E+01  0.38564889016E+02  0.47000000000E+01 0. -1.
          5    1    4    4  503    0  0.44143586911E+02 -0.27767731225E+02  0.80104631665E+02  0.95700288281E+02  0.47000000000E+01 0. -1.
         -5    1    4    4    0  503 -0.16062195270E+02 -0.23885636711E+02 -0.12489580345E+02  0.31726918778E+02  0.47000000000E+01 0.  1.
<mgrwt>
<rscale>  0 0.12990627E+03</rscale>
<asrwt>0</asrwt>
<pdfrwt beam="1">  1        2 0.33119255E-01 0.13815092E+03</pdfrwt>
<pdfrwt beam="2">  1       -2 0.10834815E-01 0.13815092E+03</pdfrwt>
<totfact> 0.86867359E+03</totfact>
</mgrwt>
</event>
<event>
 8    1  0.3572165E-004  0.1337175E+03  0.7546771E-02  0.1234781E+00
         -2   -1    0    0    0  501 -0.00000000000E+00  0.00000000000E+00  0.45348335117E+02  0.45348335117E+02  0.00000000000E+00 0. -1.
          2   -1    0    0  501    0  0.00000000000E+00 -0.00000000000E+00 -0.34861610200E+03  0.34861610200E+03  0.00000000000E+00 0.  1.
         25    2    1    2    0    0 -0.46786329053E+02 -0.81429970099E+01 -0.23579002933E+03  0.27106696922E+03  0.12500037954E+03 0.  0.
         23    2    1    2    0    0  0.46786329053E+02  0.81429970099E+01 -0.67477737554E+02  0.12289746790E+03  0.91078392407E+02 0.  0.
          5    1    4    4  502    0  0.70558145936E+02  0.22912549725E+02 -0.48371415448E+02  0.88686643444E+02  0.47000000000E+01 0. -1.
         -5    1    3    3    0  503 -0.36798299936E+02 -0.57170786040E+02 -0.19427454916E+03  0.20588177215E+03  0.47000000000E+01 0. -1.
          5    1    3    3  503    0 -0.99880291163E+01  0.49027789030E+02 -0.41515480173E+02  0.65185197068E+02  0.47000000000E+01 0. -1.
         -5    1    4    4    0  502 -0.23771816883E+02 -0.14769552715E+02 -0.19106322105E+02  0.34210824452E+02  0.47000000000E+01 0.  1.
<mgrwt>
<rscale>  0 0.12518448E+03</rscale>
<asrwt>0</asrwt>
<pdfrwt beam="1">  1        2 0.53633245E-01 0.13371748E+03</pdfrwt>
<pdfrwt beam="2">  1       -2 0.69766671E-02 0.13371748E+03</pdfrwt>
<totfact> 0.10288216E+04</totfact>
</mgrwt>
</event>
<event>
 8    1  0.3572165E-004  0.2070747E+03  0.7546771E-02  0.1148092E+00
          1   -1    0    0  501    0  0.00000000000E+00  0.00000000000E+00  0.96504169511E+03  0.96504169511E+03  0.00000000000E+00 0. -1.
         -1   -1    0    0    0  501 -0.00000000000E+00 -0.00000000000E+00 -0.41434124084E+02  0.41434124084E+02  0.00000000000E+00 0.  1.
         25    2    1    2    0    0  0.15318932787E+03  0.61540751420E+02  0.56713422975E+03  0.60375588876E+03  0.12500281755E+03 0.  0.
         23    2    1    2    0    0 -0.15318932787E+03 -0.61540751420E+02  0.35647334128E+03  0.40271993044E+03  0.88633318070E+02 0.  0.
          5    1    3    3  502    0  0.12095079227E+03 -0.83578055113E+00  0.45936352099E+03  0.47504392123E+03  0.47000000000E+01 0. -1.
         -5    1    4    4    0  503 -0.21068824335E+02 -0.47444698854E+01  0.46160997852E+01  0.22578833685E+02  0.47000000000E+01 0.  1.
          5    1    4    4  503    0 -0.13212050354E+03 -0.56796281535E+02  0.35185724149E+03  0.38014109675E+03  0.47000000000E+01 0. -1.
         -5    1    3    3    0  502  0.32238535602E+02  0.62376531972E+02  0.10777070877E+03  0.12871196753E+03  0.47000000000E+01 0. -1.
<mgrwt>
<rscale>  0 0.20196416E+03</rscale>
<asrwt>0</asrwt>
<pdfrwt beam="1">  1        1 0.14846794E+00 0.20707472E+03</pdfrwt>
<pdfrwt beam="2">  1       -1 0.63744814E-02 0.20707472E+03</pdfrwt>
<totfact> 0.20650482E+03</totfact>
</mgrwt>
</event>
<event>
 8    1  0.3572165E-004  0.1333873E+03  0.7546771E-02  0.1235959E+00
          1   -1    0    0  501    0  0.00000000000E+00  0.00000000000E+00  0.95790216472E+02  0.95790216472E+02  0.00000000000E+00 0. -1.
         -1   -1    0    0    0  501 -0.00000000000E+00 -0.00000000000E+00 -0.15347997862E+03  0.15347997862E+03  0.00000000000E+00 0.  1.
         25    2    1    2    0    0  0.21585406506E+02  0.41227402201E+02 -0.64223510778E+02  0.14804336498E+03  0.12500620030E+03 0.  0.
         23    2    1    2    0    0 -0.21585406506E+02 -0.41227402201E+02  0.65337486268E+01  0.10122683011E+03  0.89657976764E+02 0.  0.
          5    1    4    4  502    0 -0.35033241445E+02  0.18163597608E+02 -0.52815174111E+00  0.39744348384E+02  0.47000000000E+01 0. -1.
         -5    1    4    4    0  502  0.13447834939E+02 -0.59390999808E+02  0.70619003679E+01  0.61482481729E+02  0.47000000000E+01 0.  1.
          5    1    3    3  503    0  0.15280805810E+02 -0.27566266401E+02  0.21054946133E+02  0.38194277400E+02  0.47000000000E+01 0.  1.
         -5    1    3    3    0  503  0.63046006961E+01  0.68793668601E+02 -0.85278456911E+02  0.10984908758E+03  0.47000000000E+01 0.  1.
<mgrwt>
<rscale>  0 0.12443232E+03</rscale>
<asrwt>0</asrwt>
<pdfrwt beam="1">  1        1 0.14736956E-01 0.13338733E+03</pdfrwt>
<pdfrwt beam="2">  1       -1 0.23612304E-01 0.13338733E+03</pdfrwt>
<totfact> 0.55573807E+03</totfact>
</mgrwt>
</event>
<event>
 8    1  0.3572165E-004  0.1671211E+03  0.7546771E-02  0.1187964E+00
          1   -1    0    0  501    0  0.00000000000E+00  0.00000000000E+00  0.88397327868E+02  0.88397327868E+02  0.00000000000E+00 0. -1.
         -1   -1    0    0    0  501 -0.00000000000E+00 -0.00000000000E+00 -0.27218573687E+03  0.27218573687E+03  0.00000000000E+00 0.  1.
         25    2    1    2    0    0 -0.36682270378E+02  0.10468637530E+03 -0.89970439403E+02  0.18980023303E+03  0.12499848943E+03 0.  0.
         23    2    1    2    0    0  0.36682270378E+02 -0.10468637530E+03 -0.93817969596E+02  0.17078283171E+03  0.89778271612E+02 0.  0.
          5    1    4    4  502    0  0.62192773357E+02 -0.70361574144E+02 -0.40778264118E+02  0.10248731140E+03  0.47000000000E+01 0. -1.
         -5    1    4    4    0  502 -0.25510502979E+02 -0.34324801152E+02 -0.53039705478E+02  0.68295520304E+02  0.47000000000E+01 0.  1.
          5    1    3    3  503    0 -0.69931632732E+02  0.99249010105E+02 -0.96500371736E+02  0.15516188646E+03  0.47000000000E+01 0.  1.
         -5    1    3    3    0  503  0.33249362354E+02  0.54373651906E+01  0.65299323326E+01  0.34638346574E+02  0.47000000000E+01 0.  1.
<mgrwt>
<rscale>  0 0.16065115E+03</rscale>
<asrwt>0</asrwt>
<pdfrwt beam="1">  1        1 0.13599589E-01 0.16712106E+03</pdfrwt>
<pdfrwt beam="2">  1       -1 0.41874728E-01 0.16712106E+03</pdfrwt>
<totfact> 0.23618687E+03</totfact>
</mgrwt>
</event>
<event>
 8    1  0.3572165E-004  0.1449399E+03  0.7546771E-02  0.1216832E+00
          4   -1    0    0  501    0  0.00000000000E+00  0.00000000000E+00  0.39376700159E+03  0.39376700159E+03  0.00000000000E+00 0. -1.
         -4   -1    0    0    0  501 -0.00000000000E+00 -0.00000000000E+00 -0.53379163442E+02  0.53379163442E+02  0.00000000000E+00 0.  1.
         25    2    1    2    0    0 -0.73104467291E+02  0.62065245692E+01  0.89740570189E+02  0.17047273767E+03  0.12499920106E+03 0.  0.
         23    2    1    2    0    0  0.73104467291E+02 -0.62065245692E+01  0.25064726796E+03  0.27667342737E+03  0.91330982639E+02 0.  0.
          5    1    3    3  502    0  0.70312921010E+01 -0.34420162253E+02  0.69855078335E+02  0.78332679051E+02  0.47000000000E+01 0.  1.
         -5    1    3    3    0  502 -0.80135759392E+02  0.40626686822E+02  0.19885491854E+02  0.92140058616E+02  0.47000000000E+01 0.  1.
          5    1    4    4  503    0  0.11765968096E+02 -0.36620868785E+02  0.14951707238E+03  0.15445701982E+03  0.47000000000E+01 0. -1.
         -5    1    4    4    0  503  0.61338499195E+02  0.30414344216E+02  0.10113019558E+03  0.12221640755E+03  0.47000000000E+01 0.  1.
<mgrwt>
<rscale>  0 0.13742845E+03</rscale>
<asrwt>0</asrwt>
<pdfrwt beam="1">  1        4 0.60579537E-01 0.14493993E+03</pdfrwt>
<pdfrwt beam="2">  1       -4 0.82121793E-02 0.14493993E+03</pdfrwt>
<totfact> 0.46212701E+02</totfact>
</mgrwt>
</event>
<event>
 8    1  0.3572165E-004  0.1338488E+03  0.7546771E-02  0.1234165E+00
         -1   -1    0    0    0  501 -0.00000000000E+00  0.00000000000E+00  0.18520301786E+03  0.18520301786E+03  0.00000000000E+00 0.  1.
          1   -1    0    0  501    0  0.00000000000E+00 -0.00000000000E+00 -0.78655871331E+02  0.78655871331E+02  0.00000000000E+00 0. -1.
         25    2    1    2    0    0 -0.98048518088E+01 -0.46848104676E+02  0.83029602024E+02  0.15751001331E+03  0.12499843779E+03 0.  0.
         23    2    1    2    0    0  0.98048518088E+01  0.46848104676E+02  0.23517544501E+02  0.10634887587E+03  0.92011567043E+02 0.  0.
          5    1    3    3  502    0  0.56796973687E+02 -0.12826831877E+02  0.29685307269E+02  0.65526569448E+02  0.47000000000E+01 0. -1.
         -5    1    3    3    0  502 -0.66601825496E+02 -0.34021272799E+02  0.53344294755E+02  0.91983443865E+02  0.47000000000E+01 0. -1.
          5    1    4    4  503    0 -0.30994505937E+02  0.23846954699E+02 -0.18257000332E+02  0.43413646562E+02  0.47000000000E+01 0. -1.
         -5    1    4    4    0  503  0.40799357746E+02  0.23001149977E+02  0.41774544833E+02  0.62935229313E+02  0.47000000000E+01 0.  1.
<mgrwt>
<rscale>  0 0.12558050E+03</rscale>
<asrwt>0</asrwt>
<pdfrwt beam="1">  1        1 0.12100903E-01 0.13384876E+03</pdfrwt>
<pdfrwt beam="2">  1       -1 0.28492772E-01 0.13384876E+03</pdfrwt>
<totfact> 0.52713141E+03</totfact>
</mgrwt>
</event>
<event>
 8    1  0.3572165E-004  0.2300782E+03  0.7546771E-02  0.1129855E+00
         -1   -1    0    0    0  501 -0.00000000000E+00  0.00000000000E+00  0.12791808068E+03  0.12791808068E+03  0.00000000000E+00 0.  1.
          1   -1    0    0  501    0  0.00000000000E+00 -0.00000000000E+00 -0.42667794221E+03  0.42667794221E+03  0.00000000000E+00 0. -1.
         25    2    1    2    0    0 -0.71845396235E+02 -0.17930134798E+03 -0.24402763459E+03  0.33538854376E+03  0.12500101798E+03 0.  0.
         23    2    1    2    0    0  0.71845396235E+02  0.17930134798E+03 -0.54732226939E+02  0.21920747913E+03  0.88008908051E+02 0.  0.
          5    1    4    4  502    0  0.55519907747E+01  0.59422199306E+02  0.19963864214E+02  0.63106800317E+02  0.47000000000E+01 0. -1.
         -5    1    4    4    0  502  0.66293405461E+02  0.11987914867E+03 -0.74696091153E+02  0.15610067882E+03  0.47000000000E+01 0.  1.
          5    1    3    3  503    0 -0.70587603268E+01 -0.30160973100E+02  0.10736245724E+02  0.33118988027E+02  0.47000000000E+01 0. -1.
         -5    1    3    3    0  503 -0.64786635909E+02 -0.14914037488E+03 -0.25476388031E+03  0.30226955573E+03  0.47000000000E+01 0. -1.
<mgrwt>
<rscale>  0 0.22548937E+03</rscale>
<asrwt>0</asrwt>
<pdfrwt beam="1">  1        1 0.65642759E-01 0.23007822E+03</pdfrwt>
<pdfrwt beam="2">  1       -1 0.19679705E-01 0.23007822E+03</pdfrwt>
<totfact> 0.11528295E+03</totfact>
</mgrwt>
</event>
<event>
 8    1  0.3572165E-004  0.2059119E+03  0.7546771E-02  0.1148683E+00
         -2   -1    0    0    0  501 -0.00000000000E+00  0.00000000000E+00  0.12267097541E+03  0.12267097541E+03  0.00000000000E+00 0.  1.
          2   -1    0    0  501    0  0.00000000000E+00 -0.00000000000E+00 -0.32019548684E+03  0.32019548684E+03  0.00000000000E+00 0. -1.
         25    2    1    2    0    0 -0.14681180630E+03  0.72265957120E+02 -0.78161610307E+02  0.22024746339E+03  0.12499453099E+03 0.  0.
         23    2    1    2    0    0  0.14681180630E+03 -0.72265957120E+02 -0.11936290112E+03  0.22261899885E+03  0.92388535299E+02 0.  0.
          5    1    3    3  502    0 -0.12814883161E+03  0.48861068426E+02 -0.11031106539E+03  0.17606858947E+03  0.47000000000E+01 0.  1.
         -5    1    3    3    0  502 -0.18662974690E+02  0.23404888694E+02  0.32149455080E+02  0.44178873922E+02  0.47000000000E+01 0.  1.
          5    1    4    4  503    0  0.13958524823E+03 -0.91249141345E+02 -0.10248768624E+03  0.19579648401E+03  0.47000000000E+01 0. -1.
         -5    1    4    4    0  503  0.72265580754E+01  0.18983184225E+02 -0.16875214887E+02  0.26822514841E+02  0.47000000000E+01 0.  1.
<mgrwt>
<rscale>  0 0.20125697E+03</rscale>
<asrwt>0</asrwt>
<pdfrwt beam="1">  1        2 0.49260844E-01 0.20591189E+03</pdfrwt>
<pdfrwt beam="2">  1       -2 0.18872458E-01 0.20591189E+03</pdfrwt>
<totfact> 0.23388312E+03</totfact>
</mgrwt>
</event>
<event>
 8    1  0.3572165E-004  0.1464405E+03  0.7546771E-02  0.1213692E+00
          1   -1    0    0  501    0  0.00000000000E+00  0.00000000000E+00  0.11165430364E+02  0.11165430364E+02  0.00000000000E+00 0. -1.
         -1   -1    0    0    0  501 -0.00000000000E+00 -0.00000000000E+00 -0.17933694577E+04  0.17933694577E+04  0.00000000000E+00 0.  1.
         25    2    1    2    0    0  0.38018365817E+02 -0.66140131044E+02 -0.12561251695E+04  0.12646324587E+04  0.12499960378E+03 0.  0.
         23    2    1    2    0    0 -0.38018365817E+02  0.66140131044E+02 -0.52607885783E+03  0.53990242941E+03  0.94423278657E+02 0.  0.
          5    1    3    3  502    0 -0.43145803788E+02 -0.43983855982E+02 -0.57712108521E+03  0.58041965591E+03  0.47000000000E+01 0.  1.
         -5    1    4    4    0  503 -0.69510163032E+02  0.49473282905E+02 -0.36840806770E+03  0.37818760269E+03  0.47000000000E+01 0.  1.
          5    1    4    4  503    0  0.31491797216E+02  0.16666848139E+02 -0.15767079013E+03  0.16171482672E+03  0.47000000000E+01 0. -1.
         -5    1    3    3    0  502  0.81164169604E+02 -0.22156275062E+02 -0.67900408434E+03  0.68421280279E+03  0.47000000000E+01 0.  1.
<mgrwt>
<rscale>  0 0.13973078E+03</rscale>
<asrwt>0</asrwt>
<pdfrwt beam="1">  1        1 0.17177592E-02 0.14644048E+03</pdfrwt>
<pdfrwt beam="2">  1       -1 0.27590288E+00 0.14644048E+03</pdfrwt>
<totfact> 0.40875980E+02</totfact>
</mgrwt>
</event>
<event>
 8    1  0.3572165E-004  0.1353250E+03  0.7546771E-02  0.1232006E+00
          2   -1    0    0  501    0  0.00000000000E+00  0.00000000000E+00  0.27187942768E+03  0.27187942768E+03  0.00000000000E+00 0. -1.
         -2   -1    0    0    0  501 -0.00000000000E+00 -0.00000000000E+00 -0.83438014745E+02  0.83438014745E+02  0.00000000000E+00 0.  1.
         25    2    1    2    0    0  0.54677177816E+01 -0.51569559408E+02 -0.48274677781E+01  0.13541104481E+03  0.12499412473E+03 0.  0.
         23    2    1    2    0    0 -0.54677177816E+01  0.51569559408E+02  0.19326888071E+03  0.21990639762E+03  0.91195658144E+02 0.  0.
          5    1    4    4  502    0  0.12898803321E+02  0.66040798959E+02  0.18084348735E+03  0.19301353105E+03  0.47000000000E+01 0. -1.
         -5    1    4    4    0  502 -0.18366521103E+02 -0.14471239551E+02  0.12425393369E+02  0.26892866562E+02  0.47000000000E+01 0.  1.
          5    1    3    3  503    0  0.51350788486E+02 -0.36936072771E+02  0.35262792804E+02  0.72572250249E+02  0.47000000000E+01 0. -1.
         -5    1    3    3    0  503 -0.45883070704E+02 -0.14633486637E+02 -0.40090260582E+02  0.62838794561E+02  0.47000000000E+01 0. -1.
<mgrwt>
<rscale>  0 0.12698048E+03</rscale>
<asrwt>0</asrwt>
<pdfrwt beam="1">  1        2 0.41827604E-01 0.13532497E+03</pdfrwt>
<pdfrwt beam="2">  1       -2 0.12836618E-01 0.13532497E+03</pdfrwt>
<totfact> 0.51597395E+03</totfact>
</mgrwt>
</event>
<event>
 8    1  0.3572165E-004  0.1533693E+03  0.7546771E-02  0.1203681E+00
         -2   -1    0    0    0  501 -0.00000000000E+00  0.00000000000E+00  0.16726376356E+03  0.16726376356E+03  0.00000000000E+00 0.  1.
          2   -1    0    0  501    0  0.00000000000E+00 -0.00000000000E+00 -0.12584395229E+03  0.12584395229E+03  0.00000000000E+00 0. -1.
         25    2    1    2    0    0 -0.88632269245E+02  0.64138856148E+01 -0.69856947698E+01  0.15352832849E+03  0.12500132254E+03 0.  0.
         23    2    1    2    0    0  0.88632269245E+02 -0.64138856148E+01  0.48405506034E+02  0.13957938736E+03  0.96137897223E+02 0.  0.
          5    1    3    3  502    0 -0.34610331271E+02  0.64153743087E+02 -0.12576722073E+02  0.74120454133E+02  0.47000000000E+01 0. -1.
         -5    1    4    4    0  503  0.45087227491E+02 -0.18158586617E+01  0.75348558198E+02  0.87952547706E+02  0.47000000000E+01 0.  1.
          5    1    4    4  503    0  0.43545041754E+02 -0.45980269531E+01 -0.26943052164E+02  0.51626839658E+02  0.47000000000E+01 0. -1.
         -5    1    3    3    0  502 -0.54021937974E+02 -0.57739857472E+02  0.55910273030E+01  0.79407874356E+02  0.47000000000E+01 0. -1.
<mgrwt>
<rscale>  0 0.14741886E+03</rscale>
<asrwt>0</asrwt>
<pdfrwt beam="1">  1        2 0.19360608E-01 0.15336932E+03</pdfrwt>
<pdfrwt beam="2">  1       -2 0.25732887E-01 0.15336932E+03</pdfrwt>
<totfact> 0.37604464E+03</totfact>
</mgrwt>
</event>
<event>
 8    1  0.3572165E-004  0.1254970E+03  0.7546771E-02  0.1245442E+00
          2   -1    0    0  501    0  0.00000000000E+00  0.00000000000E+00  0.84125743997E+03  0.84125743997E+03  0.00000000000E+00 0.  1.
         -2   -1    0    0    0  501 -0.00000000000E+00 -0.00000000000E+00 -0.15572531870E+02  0.15572531870E+02  0.00000000000E+00 0. -1.
         25    2    1    2    0    0 -0.22892375310E+01  0.10890855117E+02  0.38544645101E+03  0.40536212651E+03  0.12500254269E+03 0.  0.
         23    2    1    2    0    0  0.22892375310E+01 -0.10890855117E+02  0.44023845709E+03  0.45146784533E+03  0.99445788913E+02 0.  0.
          5    1    3    3  502    0 -0.22402802957E+02  0.41850156995E+02  0.54905594764E+02  0.72732630623E+02  0.47000000000E+01 0.  1.
         -5    1    3    3    0  502  0.20113565426E+02 -0.30959301878E+02  0.33054085624E+03  0.33262949589E+03  0.47000000000E+01 0.  1.
          5    1    4    4  503    0 -0.40054430019E+02  0.63949257723E+01  0.32243441106E+03  0.32500967966E+03  0.47000000000E+01 0. -1.
         -5    1    4    4    0  503  0.42343667550E+02 -0.17285780890E+02  0.11780404603E+03  0.12645816567E+03  0.47000000000E+01 0.  1.
<mgrwt>
<rscale>  0 0.11858975E+03</rscale>
<asrwt>0</asrwt>
<pdfrwt beam="1">  1        2 0.12942419E+00 0.12549696E+03</pdfrwt>
<pdfrwt beam="2">  1       -2 0.23957748E-02 0.12549696E+03</pdfrwt>
<totfact> 0.18593796E+04</totfact>
</mgrwt>
</event>
<event>
 8    1  0.3572165E-004  0.1287623E+03  0.7546771E-02  0.1243577E+00
         -1   -1    0    0    0  501 -0.00000000000E+00  0.00000000000E+00  0.38250990681E+03  0.38250990681E+03  0.00000000000E+00 0.  1.
          1   -1    0    0  501    0  0.00000000000E+00 -0.00000000000E+00 -0.36923380840E+02  0.36923380840E+02  0.00000000000E+00 0. -1.
         25    2    1    2    0    0  0.34097556055E+00 -0.30895549697E+02  0.12813273123E+03  0.18165277926E+03  0.12500033658E+03 0.  0.
         23    2    1    2    0    0 -0.34097556055E+00  0.30895549697E+02  0.21745379475E+03  0.23778050840E+03  0.91097563461E+02 0.  0.
          5    1    4    4  502    0 -0.20429889100E+02 -0.19800009827E+02  0.26590708878E+02  0.39224693197E+02  0.47000000000E+01 0. -1.
         -5    1    3    3    0  503 -0.50461689625E+02  0.17715107748E+02  0.32145892026E+02  0.62575199053E+02  0.47000000000E+01 0. -1.
          5    1    3    3  503    0  0.50802665186E+02 -0.48610657445E+02  0.95986839200E+02  0.11907758020E+03  0.47000000000E+01 0. -1.
         -5    1    4    4    0  502  0.20088913539E+02  0.50695559524E+02  0.19086308587E+03  0.19855581520E+03  0.47000000000E+01 0.  1.
<mgrwt>
<rscale>  0 0.11970971E+03</rscale>
<asrwt>0</asrwt>
<pdfrwt beam="1">  1        1 0.56805204E-02 0.12876232E+03</pdfrwt>
<pdfrwt beam="2">  1       -1 0.58847675E-01 0.12876232E+03</pdfrwt>
<totfact> 0.40170800E+03</totfact>
</mgrwt>
</event>
<event>
 8    1  0.3572165E-004  0.2028783E+03  0.7546771E-02  0.1151364E+00
          1   -1    0    0  501    0  0.00000000000E+00  0.00000000000E+00  0.10700864450E+03  0.10700864450E+03  0.00000000000E+00 0. -1.
         -1   -1    0    0    0  501 -0.00000000000E+00 -0.00000000000E+00 -0.44407495584E+03  0.44407495584E+03  0.00000000000E+00 0.  1.
         25    2    1    2    0    0 -0.14282210904E+03  0.71670019030E+02 -0.30135145988E+03  0.36327990495E+03  0.12499936202E+03 0.  0.
         23    2    1    2    0    0  0.14282210904E+03 -0.71670019030E+02 -0.35714851454E+02  0.18780369539E+03  0.91977882827E+02 0.  0.
          5    1    4    4  502    0  0.12351443343E+03 -0.50706158484E+02  0.97319036897E+01  0.13395420756E+03  0.47000000000E+01 0. -1.
         -5    1    3    3    0  503 -0.62232890611E+01  0.22124092486E+02 -0.15580791938E+03  0.15756396332E+03  0.47000000000E+01 0.  1.
          5    1    3    3  503    0 -0.13659881998E+03  0.49545926544E+02 -0.14554354050E+03  0.20571594162E+03  0.47000000000E+01 0.  1.
         -5    1    4    4    0  502  0.19307675611E+02 -0.20963860546E+02 -0.45446755144E+02  0.53849487830E+02  0.47000000000E+01 0.  1.
<mgrwt>
<rscale>  0 0.19808564E+03</rscale>
<asrwt>0</asrwt>
<pdfrwt beam="1">  1        1 0.16462868E-01 0.20287826E+03</pdfrwt>
<pdfrwt beam="2">  1       -1 0.68319225E-01 0.20287826E+03</pdfrwt>
<totfact> 0.74076654E+02</totfact>
</mgrwt>
</event>
<event>
 8    1  0.3572165E-004  0.1549809E+03  0.7546771E-02  0.1203962E+00
          1   -1    0    0  501    0  0.00000000000E+00  0.00000000000E+00  0.84590607244E+03  0.84590607244E+03  0.00000000000E+00 0. -1.
         -1   -1    0    0    0  501 -0.00000000000E+00 -0.00000000000E+00 -0.24902802090E+02  0.24902802090E+02  0.00000000000E+00 0.  1.
         25    2    1    2    0    0  0.85324854827E+02 -0.33346163409E+02  0.55819146326E+03  0.57930716166E+03  0.12500712152E+03 0.  0.
         23    2    1    2    0    0 -0.85324854827E+02  0.33346163409E+02  0.26281180709E+03  0.29150171287E+03  0.86665478682E+02 0.  0.
          5    1    4    4  502    0 -0.45560346959E+02  0.50722807603E+02  0.21996471741E+03  0.23033696041E+03  0.47000000000E+01 0. -1.
         -5    1    3    3    0  503  0.67965229958E+02 -0.79917709957E+02  0.37196652622E+03  0.38650653226E+03  0.47000000000E+01 0.  1.
          5    1    3    3  503    0  0.17359624869E+02  0.46571546548E+02  0.18622493704E+03  0.19280062940E+03  0.47000000000E+01 0.  1.
         -5    1    4    4    0  502 -0.39764507868E+02 -0.17376644195E+02  0.42847089684E+02  0.61164752463E+02  0.47000000000E+01 0.  1.
<mgrwt>
<rscale>  0 0.14719539E+03</rscale>
<asrwt>0</asrwt>
<pdfrwt beam="1">  1        1 0.13013937E+00 0.15498090E+03</pdfrwt>
<pdfrwt beam="2">  1       -1 0.38312010E-02 0.15498090E+03</pdfrwt>
<totfact> 0.54103397E+03</totfact>
</mgrwt>
</event>
<event>
 8    1  0.3572165E-004  0.1276310E+03  0.7546771E-02  0.1242589E+00
         -1   -1    0    0    0  501 -0.00000000000E+00  0.00000000000E+00  0.93985007467E+02  0.93985007467E+02  0.00000000000E+00 0.  1.
          1   -1    0    0  501    0  0.00000000000E+00 -0.00000000000E+00 -0.49335154163E+03  0.49335154163E+03  0.00000000000E+00 0. -1.
         25    2    1    2    0    0  0.13100689082E+02  0.22223312558E+02 -0.45477187997E+03  0.47234218824E+03  0.12499670519E+03 0.  0.
         23    2    1    2    0    0 -0.13100689082E+02 -0.22223312558E+02  0.55405345803E+02  0.11499436086E+03  0.97408659831E+02 0.  0.
          5    1    4    4  502    0 -0.30475403558E+02 -0.52689213792E+02  0.18327095130E+02  0.63740692559E+02  0.47000000000E+01 0. -1.
         -5    1    3    3    0  503  0.70498485161E+01  0.71901372458E+02 -0.32953835118E+03  0.33739757353E+03  0.47000000000E+01 0. -1.
          5    1    3    3  503    0  0.60508405664E+01 -0.49678059900E+02 -0.12523352879E+03  0.13494461471E+03  0.47000000000E+01 0. -1.
         -5    1    4    4    0  502  0.17374714476E+02  0.30465901234E+02  0.37078250673E+02  0.51253668299E+02  0.47000000000E+01 0.  1.
<mgrwt>
<rscale>  0 0.12030858E+03</rscale>
<asrwt>0</asrwt>
<pdfrwt beam="1">  1        1 0.75900237E-01 0.12763103E+03</pdfrwt>
<pdfrwt beam="2">  1       -1 0.14459232E-01 0.12763103E+03</pdfrwt>
<totfact> 0.15454415E+03</totfact>
</mgrwt>
</event>
<event>
 8    1  0.3572165E-004  0.1258735E+03  0.7546771E-02  0.1251392E+00
          1   -1    0    0  501    0  0.00000000000E+00  0.00000000000E+00  0.40306192375E+02  0.40306192375E+02  0.00000000000E+00 0. -1.
         -1   -1    0    0    0  501 -0.00000000000E+00 -0.00000000000E+00 -0.28960602610E+03  0.28960602610E+03  0.00000000000E+00 0.  1.
         25    2    1    2    0    0 -0.14306397029E+02 -0.38795517421E+01 -0.16927649026E+03  0.21094707720E+03  0.12499766120E+03 0.  0.
         23    2    1    2    0    0  0.14306397029E+02  0.38795517421E+01 -0.80023343468E+02  0.11896514128E+03  0.86771224619E+02 0.  0.
          5    1    3    3  502    0  0.49982576839E+02  0.23953428791E+02 -0.77335243637E+02  0.95262031506E+02  0.47000000000E+01 0.  1.
         -5    1    3    3    0  502 -0.64288973869E+02 -0.27832980533E+02 -0.91941246618E+02  0.11568504569E+03  0.47000000000E+01 0.  1.
          5    1    4    4  503    0  0.16179157675E+02 -0.22980474033E+02  0.56394454907E+01  0.29047558852E+02  0.47000000000E+01 0. -1.
         -5    1    4    4    0  503 -0.18727606453E+01  0.26860025775E+02 -0.85662788958E+02  0.89917582425E+02  0.47000000000E+01 0.  1.
<mgrwt>
<rscale>  0 0.11510819E+03</rscale>
<asrwt>0</asrwt>
<pdfrwt beam="1">  1        1 0.62009527E-02 0.12587350E+03</pdfrwt>
<pdfrwt beam="2">  1       -1 0.44554773E-01 0.12587350E+03</pdfrwt>
<totfact> 0.59296371E+03</totfact>
</mgrwt>
</event>
<event>
 8    1  0.3572165E-004  0.2700237E+03  0.7546771E-02  0.1103552E+00
         -1   -1    0    0    0  501 -0.00000000000E+00  0.00000000000E+00  0.85758838037E+02  0.85758838037E+02  0.00000000000E+00 0. -1.
          1   -1    0    0  501    0  0.00000000000E+00 -0.00000000000E+00 -0.88750531985E+03  0.88750531985E+03  0.00000000000E+00 0.  1.
         25    2    1    2    0    0 -0.15171533319E+03 -0.18512385014E+03 -0.26071819949E+03  0.37534887468E+03  0.12499766382E+03 0.  0.
         23    2    1    2    0    0  0.15171533319E+03  0.18512385014E+03 -0.54102828232E+03  0.59791528320E+03  0.86618135541E+02 0.  0.
          5    1    4    4  502    0  0.51097273740E+02  0.33034175044E+02 -0.22385315168E+03  0.23202265325E+03  0.47000000000E+01 0. -1.
         -5    1    4    4    0  502  0.10061805945E+03  0.15208967510E+03 -0.31717513064E+03  0.36589262996E+03  0.47000000000E+01 0.  1.
          5    1    3    3  503    0 -0.69644943010E+02 -0.83694996214E+01 -0.10246106021E+03  0.12426111810E+03  0.47000000000E+01 0. -1.
         -5    1    3    3    0  503 -0.82070390182E+02 -0.17675435052E+03 -0.15825713928E+03  0.25108775658E+03  0.47000000000E+01 0. -1.
<mgrwt>
<rscale>  0 0.26606688E+03</rscale>
<asrwt>0</asrwt>
<pdfrwt beam="1">  1        1 0.13653928E+00 0.27002370E+03</pdfrwt>
<pdfrwt beam="2">  1       -1 0.13193667E-01 0.27002370E+03</pdfrwt>
<totfact> 0.77268126E+02</totfact>
</mgrwt>
</event>
<event>
 8    1  0.3572165E-004  0.1272944E+03  0.7546771E-02  0.1245124E+00
         -2   -1    0    0    0  501 -0.00000000000E+00  0.00000000000E+00  0.18295563268E+02  0.18295563268E+02  0.00000000000E+00 0.  1.
          2   -1    0    0  501    0  0.00000000000E+00 -0.00000000000E+00 -0.73879059825E+03  0.73879059825E+03  0.00000000000E+00 0. -1.
         25    2    1    2    0    0  0.81648349740E+01 -0.22592764524E+02 -0.50797884722E+03  0.52368536546E+03  0.12500702076E+03 0.  0.
         23    2    1    2    0    0 -0.81648349740E+01  0.22592764524E+02 -0.21251618776E+03  0.23340079605E+03  0.93464988091E+02 0.  0.
          5    1    3    3  502    0  0.48139095157E+02 -0.29622988061E+02 -0.11140504566E+03  0.12501227181E+03  0.47000000000E+01 0.  1.
         -5    1    4    4    0  503 -0.40768934886E+02  0.97220733502E+01 -0.42984348720E+02  0.60219340721E+02  0.47000000000E+01 0.  1.
          5    1    4    4  503    0  0.32604099912E+02  0.12870691174E+02 -0.16953183904E+03  0.17318145533E+03  0.47000000000E+01 0. -1.
         -5    1    3    3    0  502 -0.39974260183E+02  0.70302235373E+01 -0.39657380156E+03  0.39867309365E+03  0.47000000000E+01 0.  1.
<mgrwt>
<rscale>  0 0.11877961E+03</rscale>
<asrwt>0</asrwt>
<pdfrwt beam="1">  1        2 0.11366010E+00 0.12729435E+03</pdfrwt>
<pdfrwt beam="2">  1       -2 0.28147020E-02 0.12729435E+03</pdfrwt>
<totfact> 0.17268315E+04</totfact>
</mgrwt>
</event>
<event>
 8    1  0.3572165E-004  0.1255085E+03  0.7546771E-02  0.1250316E+00
          2   -1    0    0  501    0  0.00000000000E+00  0.00000000000E+00  0.18059879852E+03  0.18059879852E+03  0.00000000000E+00 0. -1.
         -2   -1    0    0    0  501 -0.00000000000E+00 -0.00000000000E+00 -0.67013621706E+02  0.67013621706E+02  0.00000000000E+00 0.  1.
         25    2    1    2    0    0  0.11104013229E+02 -0.18194023439E+01  0.88205875002E+02  0.15340355690E+03  0.12500306217E+03 0.  0.
         23    2    1    2    0    0 -0.11104013229E+02  0.18194023439E+01  0.25379301814E+02  0.94208863326E+02  0.90025505463E+02 0.  0.
          5    1    4    4  502    0 -0.31668318825E+02  0.36475806675E+02  0.22614720677E+02  0.53543276712E+02  0.47000000000E+01 0. -1.
         -5    1    3    3    0  503 -0.16740265654E+02 -0.22397907129E+02 -0.23206498620E+02  0.36640610204E+02  0.47000000000E+01 0. -1.
          5    1    3    3  503    0  0.27844278883E+02  0.20578504785E+02  0.11141237362E+03  0.11676294670E+03  0.47000000000E+01 0. -1.
         -5    1    4    4    0  502  0.20564305595E+02 -0.34656404331E+02  0.27645811373E+01  0.40665586614E+02  0.47000000000E+01 0.  1.
<mgrwt>
<rscale>  0 0.11572779E+03</rscale>
<asrwt>0</asrwt>
<pdfrwt beam="1">  1        2 0.27784430E-01 0.12550847E+03</pdfrwt>
<pdfrwt beam="2">  1       -2 0.10309788E-01 0.12550847E+03</pdfrwt>
<totfact> 0.11274231E+04</totfact>
</mgrwt>
</event>
<event>
 8    1  0.3572165E-004  0.1541316E+03  0.7546771E-02  0.1205013E+00
         -2   -1    0    0    0  501 -0.00000000000E+00  0.00000000000E+00  0.21725741451E+03  0.21725741451E+03  0.00000000000E+00 0.  1.
          2   -1    0    0  501    0  0.00000000000E+00 -0.00000000000E+00 -0.12579210699E+03  0.12579210699E+03  0.00000000000E+00 0. -1.
         25    2    1    2    0    0 -0.82828774489E+02 -0.35653043009E+02  0.14040983210E+03  0.20849816490E+03  0.12499927382E+03 0.  0.
         23    2    1    2    0    0  0.82828774489E+02  0.35653043009E+02 -0.48944524587E+02  0.13455135660E+03  0.87044561673E+02 0.  0.
          5    1    3    3  502    0 -0.10407191281E+03 -0.17405317650E+02  0.56228136843E+02  0.11965618033E+03  0.47000000000E+01 0.  1.
         -5    1    3    3    0  502  0.21243138317E+02 -0.18247725360E+02  0.84181695256E+02  0.88841984571E+02  0.47000000000E+01 0.  1.
          5    1    4    4  503    0  0.26005293550E+02 -0.47925574378E+01 -0.58139525315E+02  0.64043253379E+02  0.47000000000E+01 0. -1.
         -5    1    4    4    0  503  0.56823480939E+02  0.40445600447E+02  0.91950007285E+01  0.70508103222E+02  0.47000000000E+01 0.  1.
<mgrwt>
<rscale>  0 0.14636448E+03</rscale>
<asrwt>0</asrwt>
<pdfrwt beam="1">  1        2 0.19352632E-01 0.15413164E+03</pdfrwt>
<pdfrwt beam="2">  1       -2 0.33424218E-01 0.15413164E+03</pdfrwt>
<totfact> 0.23524077E+03</totfact>
</mgrwt>
</event>
<event>
 8    1  0.3572165E-004  0.1442470E+03  0.7546771E-02  0.1218451E+00
          2   -1    0    0  501    0  0.00000000000E+00  0.00000000000E+00  0.16415919541E+03  0.16415919541E+03  0.00000000000E+00 0. -1.
         -2   -1    0    0    0  501 -0.00000000000E+00 -0.00000000000E+00 -0.10224177656E+03  0.10224177656E+03  0.00000000000E+00 0.  1.
         25    2    1    2    0    0  0.14614976670E+02 -0.70495756697E+02  0.33996542825E+02  0.14819908738E+03  0.12499582122E+03 0.  0.
         23    2    1    2    0    0 -0.14614976670E+02  0.70495756697E+02  0.27920876024E+02  0.11820188459E+03  0.89492239590E+02 0.  0.
          5    1    3    3  502    0 -0.35158833530E+02 -0.84883258671E+02  0.17717092460E+02  0.93687227214E+02  0.47000000000E+01 0.  1.
         -5    1    3    3    0  502  0.49773810199E+02  0.14387501974E+02  0.16279450365E+02  0.54511860168E+02  0.47000000000E+01 0.  1.
          5    1    4    4  503    0  0.18139714837E+02  0.55406650408E+02  0.48881159456E+02  0.76226005493E+02  0.47000000000E+01 0. -1.
         -5    1    4    4    0  503 -0.32754691506E+02  0.15089106290E+02 -0.20960283431E+02  0.41975879095E+02  0.47000000000E+01 0.  1.
<mgrwt>
<rscale>  0 0.13626033E+03</rscale>
<asrwt>0</asrwt>
<pdfrwt beam="1">  1        2 0.25255261E-01 0.14424703E+03</pdfrwt>
<pdfrwt beam="2">  1       -2 0.15729504E-01 0.14424703E+03</pdfrwt>
<totfact> 0.64164112E+03</totfact>
</mgrwt>
</event>
<event>
 8    1  0.3572165E-004  0.1343305E+03  0.7546771E-02  0.1233669E+00
         -1   -1    0    0    0  501 -0.00000000000E+00  0.00000000000E+00  0.16095806814E+03  0.16095806814E+03  0.00000000000E+00 0.  1.
          1   -1    0    0  501    0  0.00000000000E+00 -0.00000000000E+00 -0.11214106250E+03  0.11214106250E+03  0.00000000000E+00 0. -1.
         25    2    1    2    0    0  0.23846999533E+02 -0.43039158282E+02  0.89861485616E+02  0.16161608547E+03  0.12499449570E+03 0.  0.
         23    2    1    2    0    0 -0.23846999533E+02  0.43039158282E+02 -0.41044479977E+02  0.11148304517E+03  0.91229224991E+02 0.  0.
          5    1    3    3  502    0 -0.31864237578E+02 -0.63293574304E+02  0.67815934602E+02  0.98196217700E+02  0.47000000000E+01 0.  1.
         -5    1    3    3    0  502  0.55711237111E+02  0.20254416022E+02  0.22045551014E+02  0.63419867773E+02  0.47000000000E+01 0.  1.
          5    1    4    4  503    0  0.13950686906E+02  0.40710527776E+02 -0.55753087256E+02  0.70586581412E+02  0.47000000000E+01 0. -1.
         -5    1    4    4    0  503 -0.37797686438E+02  0.23286305057E+01  0.14708607279E+02  0.40896463762E+02  0.47000000000E+01 0.  1.
<mgrwt>
<rscale>  0 0.12590000E+03</rscale>
<asrwt>0</asrwt>
<pdfrwt beam="1">  1        1 0.17252471E-01 0.13433046E+03</pdfrwt>
<pdfrwt beam="2">  1       -1 0.24762780E-01 0.13433046E+03</pdfrwt>
<totfact> 0.41979354E+03</totfact>
</mgrwt>
</event>
<event>
 8    1  0.3572165E-004  0.1887432E+03  0.7546771E-02  0.1164696E+00
          2   -1    0    0  501    0  0.00000000000E+00  0.00000000000E+00  0.19277707696E+04  0.19277707696E+04  0.00000000000E+00 0. -1.
         -2   -1    0    0    0  501 -0.00000000000E+00 -0.00000000000E+00 -0.17050858957E+02  0.17050858957E+02  0.00000000000E+00 0.  1.
         25    2    1    2    0    0  0.51967928807E+02 -0.13152247994E+03  0.11879815540E+04  0.12028816138E+04  0.12500070344E+03 0.  0.
         23    2    1    2    0    0 -0.51967928807E+02  0.13152247994E+03  0.72273835667E+03  0.74194001476E+03  0.90141139090E+02 0.  0.
          5    1    3    3  502    0 -0.34392834786E+02 -0.80560951878E+02  0.50504908002E+03  0.51261057079E+03  0.47000000000E+01 0. -1.
         -5    1    4    4    0  503 -0.65413009170E+02  0.48552534593E+02  0.41184301762E+03  0.41984874841E+03  0.47000000000E+01 0.  1.
          5    1    4    4  503    0  0.13445080362E+02  0.82969945344E+02  0.31089533905E+03  0.32209126635E+03  0.47000000000E+01 0. -1.
         -5    1    3    3    0  502  0.86360763593E+02 -0.50961528060E+02  0.68293247397E+03  0.69027104302E+03  0.47000000000E+01 0. -1.
<mgrwt>
<rscale>  0 0.18324775E+03</rscale>
<asrwt>0</asrwt>
<pdfrwt beam="1">  1        2 0.29657995E+00 0.18874322E+03</pdfrwt>
<pdfrwt beam="2">  1       -2 0.26232106E-02 0.18874322E+03</pdfrwt>
<totfact> 0.41870730E+03</totfact>
</mgrwt>
</event>
<event>
 8    1  0.3572165E-004  0.1358138E+03  0.7546771E-02  0.1231288E+00
          4   -1    0    0  501    0  0.00000000000E+00  0.00000000000E+00  0.25796738528E+03  0.25796738528E+03  0.00000000000E+00 0.  1.
         -4   -1    0    0    0  501 -0.00000000000E+00 -0.00000000000E+00 -0.58686738660E+02  0.58686738660E+02  0.00000000000E+00 0. -1.
         25    2    1    2    0    0 -0.26164673839E+02 -0.46220458623E+02  0.80405943312E+02  0.15783063382E+03  0.12499788918E+03 0.  0.
         23    2    1    2    0    0  0.26164673839E+02  0.46220458623E+02  0.11887470331E+03  0.15882349013E+03  0.90954851308E+02 0.  0.
          5    1    3    3  502    0 -0.68191725447E+02 -0.24224505255E+02  0.10581721840E+02  0.73287112860E+02  0.47000000000E+01 0. -1.
         -5    1    3    3    0  502  0.42027051608E+02 -0.21995953368E+02  0.69824221472E+02  0.84543520956E+02  0.47000000000E+01 0. -1.
          5    1    4    4  503    0 -0.32464763382E+02  0.43008412278E+01  0.38620362159E+02  0.50853519741E+02  0.47000000000E+01 0. -1.
         -5    1    4    4    0  503  0.58629437221E+02  0.41919617395E+02  0.80254341152E+02  0.10796997039E+03  0.47000000000E+01 0.  1.
<mgrwt>
<rscale>  0 0.12745080E+03</rscale>
<asrwt>0</asrwt>
<pdfrwt beam="1">  1        4 0.39687289E-01 0.13581382E+03</pdfrwt>
<pdfrwt beam="2">  1       -4 0.90287292E-02 0.13581382E+03</pdfrwt>
<totfact> 0.92064009E+02</totfact>
</mgrwt>
</event>
<event>
 8    1  0.3572165E-004  0.1607198E+03  0.7546771E-02  0.1195866E+00
          1   -1    0    0  501    0  0.00000000000E+00  0.00000000000E+00  0.81376437885E+02  0.81376437885E+02  0.00000000000E+00 0. -1.
         -1   -1    0    0    0  501 -0.00000000000E+00 -0.00000000000E+00 -0.36143860856E+03  0.36143860856E+03  0.00000000000E+00 0.  1.
         25    2    1    2    0    0 -0.97796899554E+02 -0.25319688579E+02 -0.37088382860E+02  0.16494365761E+03  0.12500216738E+03 0.  0.
         23    2    1    2    0    0  0.97796899554E+02  0.25319688579E+02 -0.24297378781E+03  0.27787138883E+03  0.89280048036E+02 0.  0.
          5    1    3    3  502    0 -0.10988654978E+03 -0.54835211954E+02 -0.46431682620E+02  0.13137711157E+03  0.47000000000E+01 0.  1.
         -5    1    3    3    0  502  0.12089650226E+02  0.29515523375E+02  0.93432997600E+01  0.33566546041E+02  0.47000000000E+01 0.  1.
          5    1    4    4  503    0  0.41207679550E+02  0.28266709363E+01 -0.18978188015E+02  0.45698189710E+02  0.47000000000E+01 0. -1.
         -5    1    4    4    0  503  0.56589220004E+02  0.22493017643E+02 -0.22399559980E+03  0.23217319912E+03  0.47000000000E+01 0.  1.
<mgrwt>
<rscale>  0 0.15381196E+03</rscale>
<asrwt>0</asrwt>
<pdfrwt beam="1">  1        1 0.12519452E-01 0.16071982E+03</pdfrwt>
<pdfrwt beam="2">  1       -1 0.55605939E-01 0.16071982E+03</pdfrwt>
<totfact> 0.15680474E+03</totfact>
</mgrwt>
</event>
<event>
 8    1  0.3572165E-004  0.1396913E+03  0.7546771E-02  0.1224676E+00
         -2   -1    0    0    0  501 -0.00000000000E+00  0.00000000000E+00  0.18398144654E+02  0.18398144654E+02  0.00000000000E+00 0.  1.
          2   -1    0    0  501    0  0.00000000000E+00 -0.00000000000E+00 -0.92529266691E+03  0.92529266691E+03  0.00000000000E+00 0. -1.
         25    2    1    2    0    0 -0.49620143621E+02 -0.37770966323E+02 -0.63148012163E+03  0.64674632476E+03  0.12499944016E+03 0.  0.
         23    2    1    2    0    0  0.49620143621E+02  0.37770966323E+02 -0.27541440063E+03  0.29694448680E+03  0.91837528361E+02 0.  0.
          5    1    4    4  502    0  0.27712732023E+02  0.66079487447E+02 -0.21373994402E+03  0.22548026043E+03  0.47000000000E+01 0. -1.
         -5    1    4    4    0  502  0.21907411597E+02 -0.28308521124E+02 -0.61674456614E+02  0.71464226364E+02  0.47000000000E+01 0.  1.
          5    1    3    3  503    0 -0.40047948422E+02  0.40478965743E+02 -0.19577601534E+03  0.20394294060E+03  0.47000000000E+01 0. -1.
         -5    1    3    3    0  503 -0.95721951992E+01 -0.78249932066E+02 -0.43570410629E+03  0.44280338416E+03  0.47000000000E+01 0. -1.
<mgrwt>
<rscale>  0 0.13189136E+03</rscale>
<asrwt>0</asrwt>
<pdfrwt beam="1">  1        2 0.14235273E+00 0.13969132E+03</pdfrwt>
<pdfrwt beam="2">  1       -2 0.28304835E-02 0.13969132E+03</pdfrwt>
<totfact> 0.12979704E+04</totfact>
</mgrwt>
</event>
<event>
 8    1  0.3572165E-004  0.1263184E+03  0.7546771E-02  0.1249101E+00
         -1   -1    0    0    0  501 -0.00000000000E+00  0.00000000000E+00  0.31288417014E+02  0.31288417014E+02  0.00000000000E+00 0.  1.
          1   -1    0    0  501    0  0.00000000000E+00 -0.00000000000E+00 -0.38679386208E+03  0.38679386208E+03  0.00000000000E+00 0. -1.
         25    2    1    2    0    0 -0.81855700426E+01  0.16259352314E+02 -0.23696407052E+03  0.26852990392E+03  0.12499987395E+03 0.  0.
         23    2    1    2    0    0  0.81855700426E+01 -0.16259352314E+02 -0.11854137454E+03  0.14955237517E+03  0.89344755561E+02 0.  0.
          5    1    3    3  502    0  0.49222747879E+02  0.39797338757E+02 -0.10634605339E+03  0.12384781044E+03  0.47000000000E+01 0. -1.
         -5    1    3    3    0  502 -0.57408317922E+02 -0.23537986443E+02 -0.13061801714E+03  0.14468209348E+03  0.47000000000E+01 0. -1.
          5    1    4    4  503    0  0.36371953228E+02 -0.13657602586E+02 -0.11396352191E+03  0.12049574024E+03  0.47000000000E+01 0. -1.
         -5    1    4    4    0  503 -0.28186383186E+02 -0.26017497284E+01 -0.45778526319E+01  0.29056634930E+02  0.47000000000E+01 0.  1.
<mgrwt>
<rscale>  0 0.11643278E+03</rscale>
<asrwt>0</asrwt>
<pdfrwt beam="1">  1        1 0.59506744E-01 0.12631840E+03</pdfrwt>
<pdfrwt beam="2">  1       -1 0.48136030E-02 0.12631840E+03</pdfrwt>
<totfact> 0.11104171E+04</totfact>
</mgrwt>
</event>
<event>
 8    1  0.3572165E-004  0.1289597E+03  0.7546771E-02  0.1243155E+00
          2   -1    0    0  501    0  0.00000000000E+00  0.00000000000E+00  0.41889902634E+03  0.41889902634E+03  0.00000000000E+00 0. -1.
         -2   -1    0    0    0  501 -0.00000000000E+00 -0.00000000000E+00 -0.33784522215E+02  0.33784522215E+02  0.00000000000E+00 0.  1.
         25    2    1    2    0    0  0.42806399500E+01  0.31407613529E+02  0.28883387411E+03  0.31631569423E+03  0.12500339802E+03 0.  0.
         23    2    1    2    0    0 -0.42806399500E+01 -0.31407613529E+02  0.96280630014E+02  0.13636785433E+03  0.91222091138E+02 0.  0.
          5    1    4    4  502    0 -0.23947861792E+02 -0.27266078901E+02  0.10701806351E+03  0.11310126020E+03  0.47000000000E+01 0. -1.
         -5    1    4    4    0  502  0.19667221842E+02 -0.41415346274E+01 -0.10737433492E+02  0.23266594122E+02  0.47000000000E+01 0.  1.
          5    1    3    3  503    0 -0.42651107217E+02  0.18999749931E+02  0.36881154900E+02  0.59685986890E+02  0.47000000000E+01 0. -1.
         -5    1    3    3    0  503  0.46931747167E+02  0.12407863598E+02  0.25195271921E+03  0.25662970734E+03  0.47000000000E+01 0. -1.
<mgrwt>
<rscale>  0 0.11996481E+03</rscale>
<asrwt>0</asrwt>
<pdfrwt beam="1">  1        2 0.64446000E-01 0.12895973E+03</pdfrwt>
<pdfrwt beam="2">  1       -2 0.51976191E-02 0.12895973E+03</pdfrwt>
<totfact> 0.13179723E+04</totfact>
</mgrwt>
</event>
<event>
 8    1  0.3572165E-004  0.1732198E+03  0.7546771E-02  0.1180714E+00
         -1   -1    0    0    0  501 -0.00000000000E+00  0.00000000000E+00  0.13600356593E+02  0.13600356593E+02  0.00000000000E+00 0.  1.
          1   -1    0    0  501    0  0.00000000000E+00 -0.00000000000E+00 -0.19641795904E+04  0.19641795904E+04  0.00000000000E+00 0. -1.
         25    2    1    2    0    0  0.11904601398E+03  0.14411373131E+02 -0.90841102931E+03  0.92477872342E+03  0.12500179198E+03 0.  0.
         23    2    1    2    0    0 -0.11904601398E+03 -0.14411373131E+02 -0.10421682045E+04  0.10530012236E+04  0.91199612177E+02 0.  0.
          5    1    3    3  502    0  0.20045780505E+02  0.58159886823E+02 -0.24915053513E+03  0.25667583623E+03  0.47000000000E+01 0. -1.
         -5    1    4    4    0  503 -0.59535196587E+02 -0.51741974765E+02 -0.61766311719E+03  0.62269694709E+03  0.47000000000E+01 0.  1.
          5    1    4    4  503    0 -0.59510817395E+02  0.37330601633E+02 -0.42450508732E+03  0.43030427649E+03  0.47000000000E+01 0. -1.
         -5    1    3    3    0  502  0.99000233477E+02 -0.43748513692E+02 -0.65926049418E+03  0.66810288718E+03  0.47000000000E+01 0. -1.
<mgrwt>
<rscale>  0 0.16728006E+03</rscale>
<asrwt>0</asrwt>
<pdfrwt beam="1">  1        1 0.30218146E+00 0.17321977E+03</pdfrwt>
<pdfrwt beam="2">  1       -1 0.20923627E-02 0.17321977E+03</pdfrwt>
<totfact> 0.22859550E+03</totfact>
</mgrwt>
</event>
<event>
 8    1  0.3572165E-004  0.1359798E+03  0.7546771E-02  0.1230498E+00
          3   -1    0    0  501    0  0.00000000000E+00  0.00000000000E+00  0.34127460939E+02  0.34127460939E+02  0.00000000000E+00 0. -1.
         -3   -1    0    0    0  501 -0.00000000000E+00 -0.00000000000E+00 -0.46576794027E+03  0.46576794027E+03  0.00000000000E+00 0.  1.
         25    2    1    2    0    0 -0.59564293709E+01  0.53186917451E+02 -0.30750397509E+03  0.33622789205E+03  0.12500469375E+03 0.  0.
         23    2    1    2    0    0  0.59564293709E+01 -0.53186917451E+02 -0.12413650424E+03  0.16366750916E+03  0.92265132251E+02 0.  0.
          5    1    3    3  502    0 -0.28391721171E+02 -0.78898922733E+01 -0.24181436790E+03  0.24364855583E+03  0.47000000000E+01 0.  1.
         -5    1    4    4    0  503  0.31038422234E+02 -0.18085006448E+02 -0.11328050232E+03  0.11893281010E+03  0.47000000000E+01 0.  1.
          5    1    4    4  503    0 -0.25081992863E+02 -0.35101911003E+02 -0.10856001928E+02  0.44734699059E+02  0.47000000000E+01 0. -1.
         -5    1    3    3    0  502  0.22435291800E+02  0.61076809724E+02 -0.65689607187E+02  0.92579336229E+02  0.47000000000E+01 0.  1.
<mgrwt>
<rscale>  0 0.12797057E+03</rscale>
<asrwt>0</asrwt>
<pdfrwt beam="1">  1        3 0.52503786E-02 0.13597978E+03</pdfrwt>
<pdfrwt beam="2">  1       -3 0.71656606E-01 0.13597978E+03</pdfrwt>
<totfact> 0.92157997E+02</totfact>
</mgrwt>
</event>
<event>
 8    1  0.3572165E-004  0.1905575E+03  0.7546771E-02  0.1162946E+00
         -2   -1    0    0    0  501 -0.00000000000E+00  0.00000000000E+00  0.12013778568E+03  0.12013778568E+03  0.00000000000E+00 0.  1.
          2   -1    0    0  501    0  0.00000000000E+00 -0.00000000000E+00 -0.27214340522E+03  0.27214340522E+03  0.00000000000E+00 0. -1.
         25    2    1    2    0    0 -0.13075739380E+03 -0.59899214630E+02 -0.63232041475E+02  0.20077463285E+03  0.12500700053E+03 0.  0.
         23    2    1    2    0    0  0.13075739380E+03  0.59899214630E+02 -0.88773578069E+02  0.19150655805E+03  0.90047774345E+02 0.  0.
          5    1    4    4  502    0  0.27355347739E+02 -0.54189180632E+01 -0.59172141992E+02  0.65582864461E+02  0.47000000000E+01 0. -1.
         -5    1    3    3    0  503 -0.37889781594E+02 -0.69801404086E+02  0.12379066008E+02  0.80518338513E+02  0.47000000000E+01 0.  1.
          5    1    3    3  503    0 -0.92867612209E+02  0.99021894559E+01 -0.75611107483E+02  0.12025629434E+03  0.47000000000E+01 0.  1.
         -5    1    4    4    0  502  0.10340204606E+03  0.65318132694E+02 -0.29601436077E+02  0.12592369359E+03  0.47000000000E+01 0.  1.
<mgrwt>
<rscale>  0 0.18511104E+03</rscale>
<asrwt>0</asrwt>
<pdfrwt beam="1">  1        2 0.41868216E-01 0.19055750E+03</pdfrwt>
<pdfrwt beam="2">  1       -2 0.18482736E-01 0.19055750E+03</pdfrwt>
<totfact> 0.28767169E+03</totfact>
</mgrwt>
</event>
<event>
 8    1  0.3572165E-004  0.1341220E+03  0.7546771E-02  0.1236363E+00
          2   -1    0    0  501    0  0.00000000000E+00  0.00000000000E+00  0.59017417141E+03  0.59017417141E+03  0.00000000000E+00 0. -1.
         -2   -1    0    0    0  501 -0.00000000000E+00 -0.00000000000E+00 -0.23628677669E+02  0.23628677669E+02  0.00000000000E+00 0.  1.
         25    2    1    2    0    0 -0.77992657978E+01  0.47995226516E+02  0.37740746865E+03  0.40053102381E+03  0.12499733327E+03 0.  0.
         23    2    1    2    0    0  0.77992657978E+01 -0.47995226516E+02  0.18913802509E+03  0.21327182527E+03  0.85716443018E+02 0.  0.
          5    1    3    3  502    0 -0.20884960250E+02  0.88292835344E+02  0.27448947764E+03  0.28913382658E+03  0.47000000000E+01 0.  1.
         -5    1    4    4    0  503 -0.14020912356E+02 -0.56998439803E+02  0.68838360971E+02  0.90588178392E+02  0.47000000000E+01 0.  1.
          5    1    4    4  503    0  0.21820178153E+02  0.90032132865E+01  0.12029966412E+03  0.12268364687E+03  0.47000000000E+01 0. -1.
         -5    1    3    3    0  502  0.13085694452E+02 -0.40297608828E+02  0.10291799102E+03  0.11139719723E+03  0.47000000000E+01 0.  1.
<mgrwt>
<rscale>  0 0.12417574E+03</rscale>
<asrwt>0</asrwt>
<pdfrwt beam="1">  1        2 0.90796015E-01 0.13412197E+03</pdfrwt>
<pdfrwt beam="2">  1       -2 0.36351816E-02 0.13412197E+03</pdfrwt>
<totfact> 0.15462736E+04</totfact>
</mgrwt>
</event>
<event>
 8    1  0.3572165E-004  0.1445092E+03  0.7546771E-02  0.1216718E+00
          1   -1    0    0  501    0  0.00000000000E+00  0.00000000000E+00  0.50015444524E+03  0.50015444524E+03  0.00000000000E+00 0. -1.
         -1   -1    0    0    0  501 -0.00000000000E+00 -0.00000000000E+00 -0.35753529433E+02  0.35753529433E+02  0.00000000000E+00 0.  1.
         25    2    1    2    0    0  0.57844451015E+02  0.43640128973E+02  0.20594618846E+03  0.25158843311E+03  0.12502985950E+03 0.  0.
         23    2    1    2    0    0 -0.57844451015E+02 -0.43640128973E+02  0.25845472736E+03  0.28431954157E+03  0.93746009272E+02 0.  0.
          5    1    4    4  502    0 -0.22092576611E+02  0.22398976423E+00  0.20530119306E+03  0.20654007355E+03  0.47000000000E+01 0. -1.
         -5    1    3    3    0  503  0.55373040379E+01  0.55369386296E+02  0.18599455213E+03  0.19419704966E+03  0.47000000000E+01 0. -1.
          5    1    3    3  503    0  0.52307146977E+02 -0.11729257323E+02  0.19951636325E+02  0.57391383449E+02  0.47000000000E+01 0. -1.
         -5    1    4    4    0  502 -0.35751874404E+02 -0.43864118738E+02  0.53153534297E+02  0.77779468013E+02  0.47000000000E+01 0.  1.
<mgrwt>
<rscale>  0 0.13751108E+03</rscale>
<asrwt>0</asrwt>
<pdfrwt beam="1">  1        1 0.76946833E-01 0.14450919E+03</pdfrwt>
<pdfrwt beam="2">  1       -1 0.55005433E-02 0.14450919E+03</pdfrwt>
<totfact> 0.66234676E+03</totfact>
</mgrwt>
</event>
<event>
 8    1  0.3572165E-004  0.1493771E+03  0.7546771E-02  0.1210917E+00
         -2   -1    0    0    0  501 -0.00000000000E+00  0.00000000000E+00  0.24782771587E+02  0.24782771587E+02  0.00000000000E+00 0.  1.
          2   -1    0    0  501    0  0.00000000000E+00 -0.00000000000E+00 -0.75095656178E+03  0.75095656178E+03  0.00000000000E+00 0. -1.
         25    2    1    2    0    0 -0.30645814856E+01  0.81729601103E+02 -0.44835255162E+03  0.47258175424E+03  0.12499753813E+03 0.  0.
         23    2    1    2    0    0  0.30645814856E+01 -0.81729601103E+02 -0.27782123857E+03  0.30315757913E+03  0.89614495622E+02 0.  0.
          5    1    4    4  502    0 -0.98777954444E+01 -0.21067156909E+02 -0.20918203921E+03  0.21052461013E+03  0.47000000000E+01 0. -1.
         -5    1    4    4    0  502  0.12942376930E+02 -0.60662444194E+02 -0.68639199362E+02  0.92632968998E+02  0.47000000000E+01 0.  1.
          5    1    3    3  503    0 -0.48336371187E+02 -0.76073865736E+00 -0.92596776051E+02  0.10456211760E+03  0.47000000000E+01 0.  1.
         -5    1    3    3    0  503  0.45271789701E+02  0.82490339761E+02 -0.35575577557E+03  0.36801963664E+03  0.47000000000E+01 0.  1.
<mgrwt>
<rscale>  0 0.14180807E+03</rscale>
<asrwt>0</asrwt>
<pdfrwt beam="1">  1        2 0.11553176E+00 0.14937705E+03</pdfrwt>
<pdfrwt beam="2">  1       -2 0.38127348E-02 0.14937705E+03</pdfrwt>
<totfact> 0.10941255E+04</totfact>
</mgrwt>
</event>
<event>
 8    1  0.3572165E-004  0.1686577E+03  0.7546771E-02  0.1185938E+00
         -2   -1    0    0    0  501 -0.00000000000E+00  0.00000000000E+00  0.33058373541E+03  0.33058373541E+03  0.00000000000E+00 0. -1.
          2   -1    0    0  501    0  0.00000000000E+00 -0.00000000000E+00 -0.75156259937E+02  0.75156259937E+02  0.00000000000E+00 0.  1.
         25    2    1    2    0    0 -0.78742454962E+02  0.81386403697E+02  0.11838338139E+03  0.20605838144E+03  0.12498524174E+03 0.  0.
         23    2    1    2    0    0  0.78742454962E+02 -0.81386403697E+02  0.13704409408E+03  0.19968161390E+03  0.90926026463E+02 0.  0.
          5    1    4    4  502    0  0.74070015344E+02 -0.29778384497E+02  0.12135674684E+03  0.14533640067E+03  0.47000000000E+01 0. -1.
         -5    1    3    3    0  503  0.79665776806E+01 -0.25948102211E+02  0.35835627335E+02  0.45200138880E+02  0.47000000000E+01 0.  1.
          5    1    3    3  503    0 -0.86709032643E+02  0.10733450591E+03  0.82547754054E+02  0.16085824256E+03  0.47000000000E+01 0.  1.
         -5    1    4    4    0  502  0.46724396183E+01 -0.51608019200E+02  0.15687347239E+02  0.54345213231E+02  0.47000000000E+01 0.  1.
<mgrwt>
<rscale>  0 0.16246827E+03</rscale>
<asrwt>0</asrwt>
<pdfrwt beam="1">  1        2 0.11562502E-01 0.16865773E+03</pdfrwt>
<pdfrwt beam="2">  1       -2 0.50859035E-01 0.16865773E+03</pdfrwt>
<totfact> 0.19413011E+03</totfact>
</mgrwt>
</event>
<event>
 8    1  0.3572165E-004  0.3197259E+03  0.7546771E-02  0.1077116E+00
          2   -1    0    0  501    0  0.00000000000E+00  0.00000000000E+00  0.13321240863E+04  0.13321240863E+04  0.00000000000E+00 0. -1.
         -2   -1    0    0    0  501 -0.00000000000E+00 -0.00000000000E+00 -0.74076472646E+02  0.74076472646E+02  0.00000000000E+00 0.  1.
         25    2    1    2    0    0  0.28997936694E+03 -0.50118534819E+02  0.62146892383E+03  0.69889075417E+03  0.12499904877E+03 0.  0.
         23    2    1    2    0    0 -0.28997936694E+03  0.50118534819E+02  0.63657868984E+03  0.70730980479E+03  0.91950153969E+02 0.  0.
          5    1    3    3  502    0  0.71550811183E+02  0.26977074095E+02  0.84428472225E+02  0.11400674555E+03  0.47000000000E+01 0.  1.
         -5    1    4    4    0  503 -0.20109174753E+03 -0.40753823293E+01  0.37144631309E+03  0.42243218766E+03  0.47000000000E+01 0. -1.
          5    1    4    4  503    0 -0.88887619405E+02  0.54193917148E+02  0.26513237675E+03  0.28487761713E+03  0.47000000000E+01 0.  1.
         -5    1    3    3    0  502  0.21842855575E+03 -0.77095608913E+02  0.53704045161E+03  0.58488400862E+03  0.47000000000E+01 0.  1.
<mgrwt>
<rscale>  0 0.31683277E+03</rscale>
<asrwt>0</asrwt>
<pdfrwt beam="1">  1        2 0.20494215E+00 0.31972592E+03</pdfrwt>
<pdfrwt beam="2">  1       -2 0.11396381E-01 0.31972592E+03</pdfrwt>
<totfact> 0.90425201E+02</totfact>
</mgrwt>
</event>
<event>
 8    1  0.3572165E-004  0.1664729E+03  0.7546771E-02  0.1188542E+00
          1   -1    0    0  501    0  0.00000000000E+00  0.00000000000E+00  0.10378701094E+03  0.10378701094E+03  0.00000000000E+00 0. -1.
         -1   -1    0    0    0  501 -0.00000000000E+00 -0.00000000000E+00 -0.23059021171E+03  0.23059021171E+03  0.00000000000E+00 0.  1.
         25    2    1    2    0    0  0.67336993372E+02 -0.86920181096E+02 -0.59948167455E+02  0.17693785397E+03  0.12499533122E+03 0.  0.
         23    2    1    2    0    0 -0.67336993372E+02  0.86920181096E+02 -0.66855033316E+02  0.15743936869E+03  0.90709265108E+02 0.  0.
          5    1    3    3  502    0  0.13324155722E+02 -0.96319311178E+02 -0.71407859858E+02  0.12073158361E+03  0.47000000000E+01 0. -1.
         -5    1    3    3    0  502  0.54012837649E+02  0.93991300827E+01  0.11459692404E+02  0.56206270355E+02  0.47000000000E+01 0. -1.
          5    1    4    4  503    0  0.21151301489E+01  0.67543884752E+02 -0.17593943126E+02  0.69987763056E+02  0.47000000000E+01 0. -1.
         -5    1    4    4    0  503 -0.69452123521E+02  0.19376296344E+02 -0.49261090191E+02  0.87451605636E+02  0.47000000000E+01 0.  1.
<mgrwt>
<rscale>  0 0.16013696E+03</rscale>
<asrwt>0</asrwt>
<pdfrwt beam="1">  1        1 0.15967233E-01 0.16647288E+03</pdfrwt>
<pdfrwt beam="2">  1       -1 0.35475417E-01 0.16647288E+03</pdfrwt>
<totfact> 0.25613158E+03</totfact>
</mgrwt>
</event>
<event>
 8    1  0.3572165E-004  0.1285152E+03  0.7546771E-02  0.1244168E+00
          1   -1    0    0  501    0  0.00000000000E+00  0.00000000000E+00  0.36058196111E+03  0.36058196111E+03  0.00000000000E+00 0. -1.
         -1   -1    0    0    0  501 -0.00000000000E+00 -0.00000000000E+00 -0.37531703974E+02  0.37531703974E+02  0.00000000000E+00 0.  1.
         25    2    1    2    0    0 -0.19777422544E+02 -0.22327965634E+02  0.13061534722E+03  0.18323895192E+03  0.12500584018E+03 0.  0.
         23    2    1    2    0    0  0.19777422544E+02  0.22327965634E+02  0.19243490992E+03  0.21487471317E+03  0.90830960084E+02 0.  0.
          5    1    4    4  502    0  0.15014506922E+01 -0.33472837402E+02  0.46557637811E+02  0.57553356431E+02  0.47000000000E+01 0. -1.
         -5    1    3    3    0  503 -0.30434608332E+02  0.31084263336E+02  0.23608581932E+01  0.43819635586E+02  0.47000000000E+01 0.  1.
          5    1    3    3  503    0  0.10657185789E+02 -0.53412228970E+02  0.12825448902E+03  0.13941931633E+03  0.47000000000E+01 0.  1.
         -5    1    4    4    0  502  0.18275971852E+02  0.55800803036E+02  0.14587727211E+03  0.15732135674E+03  0.47000000000E+01 0.  1.
<mgrwt>
<rscale>  0 0.11935310E+03</rscale>
<asrwt>0</asrwt>
<pdfrwt beam="1">  1        1 0.55474146E-01 0.12851515E+03</pdfrwt>
<pdfrwt beam="2">  1       -1 0.57741085E-02 0.12851515E+03</pdfrwt>
<totfact> 0.92734121E+03</totfact>
</mgrwt>
</event>
<event>
 8    1  0.3572165E-004  0.1291275E+03  0.7546771E-02  0.1242800E+00
         -1   -1    0    0    0  501 -0.00000000000E+00  0.00000000000E+00  0.50921415187E+02  0.50921415187E+02  0.00000000000E+00 0.  1.
          1   -1    0    0  501    0  0.00000000000E+00 -0.00000000000E+00 -0.25391617035E+03  0.25391617035E+03  0.00000000000E+00 0. -1.
         25    2    1    2    0    0  0.27266867520E+02  0.17492261212E+02 -0.13251630724E+03  0.18502561248E+03  0.12499777726E+03 0.  0.
         23    2    1    2    0    0 -0.27266867520E+02 -0.17492261212E+02 -0.70478447926E+02  0.11981197307E+03  0.91313941987E+02 0.  0.
          5    1    4    4  502    0 -0.37282279620E+02 -0.48582369116E+02 -0.32459700466E+02  0.69468965135E+02  0.47000000000E+01 0. -1.
         -5    1    3    3    0  503  0.48823937395E+02 -0.38127074775E+02 -0.36980966138E+02  0.72298911127E+02  0.47000000000E+01 0. -1.
          5    1    3    3  503    0 -0.21557069875E+02  0.55619335987E+02 -0.95535341103E+02  0.11272670135E+03  0.47000000000E+01 0. -1.
         -5    1    4    4    0  502  0.10015412100E+02  0.31090107905E+02 -0.38018747460E+02  0.50343007930E+02  0.47000000000E+01 0.  1.
<mgrwt>
<rscale>  0 0.12018047E+03</rscale>
<asrwt>0</asrwt>
<pdfrwt beam="1">  1        1 0.39064027E-01 0.12912748E+03</pdfrwt>
<pdfrwt beam="2">  1       -1 0.78340638E-02 0.12912748E+03</pdfrwt>
<totfact> 0.90747268E+03</totfact>
</mgrwt>
</event>
<event>
 8    1  0.3572165E-004  0.1757156E+03  0.7546771E-02  0.1177849E+00
          4   -1    0    0  501    0  0.00000000000E+00  0.00000000000E+00  0.15478486036E+03  0.15478486036E+03  0.00000000000E+00 0. -1.
         -4   -1    0    0    0  501 -0.00000000000E+00 -0.00000000000E+00 -0.17774625045E+03  0.17774625045E+03  0.00000000000E+00 0.  1.
         25    2    1    2    0    0 -0.41846482418E+02 -0.11618437464E+03 -0.30788342050E+02  0.17839249290E+03  0.12500409000E+03 0.  0.
         23    2    1    2    0    0  0.41846482418E+02  0.11618437464E+03  0.78269519623E+01  0.15413861790E+03  0.91910365841E+02 0.  0.
          5    1    3    3  502    0 -0.23749667878E+02 -0.18780489489E+02  0.44390051329E+02  0.53938114231E+02  0.47000000000E+01 0. -1.
         -5    1    3    3    0  502 -0.18096814540E+02 -0.97403885155E+02 -0.75178393380E+02  0.12445437867E+03  0.47000000000E+01 0. -1.
          5    1    4    4  503    0  0.47063409440E+02  0.92807788760E+02  0.41856879879E+02  0.11226013788E+03  0.47000000000E+01 0. -1.
         -5    1    4    4    0  503 -0.52169270223E+01  0.23376585884E+02 -0.34029927917E+02  0.41878480025E+02  0.47000000000E+01 0.  1.
<mgrwt>
<rscale>  0 0.16999861E+03</rscale>
<asrwt>0</asrwt>
<pdfrwt beam="1">  1        4 0.23813055E-01 0.17571556E+03</pdfrwt>
<pdfrwt beam="2">  1       -4 0.27345577E-01 0.17571556E+03</pdfrwt>
<totfact> 0.36163082E+02</totfact>
</mgrwt>
</event>
<event>
 8    1  0.3572165E-004  0.1672368E+03  0.7546771E-02  0.1187571E+00
         -2   -1    0    0    0  501 -0.00000000000E+00  0.00000000000E+00  0.20189175957E+03  0.20189175957E+03  0.00000000000E+00 0.  1.
          2   -1    0    0  501    0  0.00000000000E+00 -0.00000000000E+00 -0.16567208413E+03  0.16567208413E+03  0.00000000000E+00 0. -1.
         25    2    1    2    0    0  0.11090584763E+03  0.66173181838E+01  0.11572787736E+03  0.20337423935E+03  0.12499697474E+03 0.  0.
         23    2    1    2    0    0 -0.11090584763E+03 -0.66173181838E+01 -0.79508201914E+02  0.16418960435E+03  0.91064680670E+02 0.  0.
          5    1    4    4  502    0 -0.39619771717E+01 -0.28402801971E+02  0.29280605960E-01  0.29060407435E+02  0.47000000000E+01 0. -1.
         -5    1    3    3    0  503  0.46879337293E+02 -0.58258026981E+02  0.63519294429E+02  0.98226578569E+02  0.47000000000E+01 0.  1.
          5    1    3    3  503    0  0.64026510339E+02  0.64875345165E+02  0.52208582928E+02  0.10514766078E+03  0.47000000000E+01 0.  1.
         -5    1    4    4    0  502 -0.10694387046E+03  0.21785483787E+02 -0.79537482520E+02  0.13512919691E+03  0.47000000000E+01 0.  1.
<mgrwt>
<rscale>  0 0.16100108E+03</rscale>
<asrwt>0</asrwt>
<pdfrwt beam="1">  1        2 0.25488013E-01 0.16723678E+03</pdfrwt>
<pdfrwt beam="2">  1       -2 0.31060271E-01 0.16723678E+03</pdfrwt>
<totfact> 0.19809479E+03</totfact>
</mgrwt>
</event>
<event>
 8    1  0.3572165E-004  0.1255136E+03  0.7546771E-02  0.1250380E+00
          2   -1    0    0  501    0  0.00000000000E+00  0.00000000000E+00  0.41508491276E+03  0.41508491276E+03  0.00000000000E+00 0. -1.
         -2   -1    0    0    0  501 -0.00000000000E+00 -0.00000000000E+00 -0.29176793267E+02  0.29176793267E+02  0.00000000000E+00 0.  1.
         25    2    1    2    0    0 -0.29749329666E+01 -0.10933581317E+02  0.18145659878E+03  0.22063580437E+03  0.12500107001E+03 0.  0.
         23    2    1    2    0    0  0.29749329666E+01  0.10933581317E+02  0.20445152072E+03  0.22362590166E+03  0.89887296886E+02 0.  0.
          5    1    4    4  502    0 -0.35152056542E+02  0.22797588507E+02  0.15079081851E+03  0.15657381029E+03  0.47000000000E+01 0. -1.
         -5    1    3    3    0  503  0.46222074603E+02 -0.20149734129E+02  0.15653847258E+03  0.16452621482E+03  0.47000000000E+01 0.  1.
          5    1    3    3  503    0 -0.49197007569E+02  0.92161528112E+01  0.24918126200E+02  0.56109589552E+02  0.47000000000E+01 0.  1.
         -5    1    4    4    0  502  0.38126989508E+02 -0.11864007190E+02  0.53660702204E+02  0.67052091366E+02  0.47000000000E+01 0.  1.
<mgrwt>
<rscale>  0 0.11569072E+03</rscale>
<asrwt>0</asrwt>
<pdfrwt beam="1">  1        2 0.63859213E-01 0.12551359E+03</pdfrwt>
<pdfrwt beam="2">  1       -2 0.44887377E-02 0.12551359E+03</pdfrwt>
<totfact> 0.16537503E+04</totfact>
</mgrwt>
</event>
<event>
 8    1  0.3572165E-004  0.3866715E+03  0.7546771E-02  0.1049364E+00
         -2   -1    0    0    0  501 -0.00000000000E+00  0.00000000000E+00  0.81486179265E+02  0.81486179265E+02  0.00000000000E+00 0.  1.
          2   -1    0    0  501    0  0.00000000000E+00 -0.00000000000E+00 -0.21385456250E+04  0.21385456250E+04  0.00000000000E+00 0. -1.
         25    2    1    2    0    0  0.31129686702E+03 -0.19231166780E+03 -0.14872541572E+04  0.15366976891E+04  0.12500137099E+03 0.  0.
         23    2    1    2    0    0 -0.31129686702E+03  0.19231166780E+03 -0.56980528859E+03  0.68333411517E+03  0.91531027840E+02 0.  0.
          5    1    3    3  502    0  0.20764186371E+03 -0.19187102737E+03 -0.11068027490E+04  0.11423502309E+04  0.47000000000E+01 0.  1.
         -5    1    3    3    0  502  0.10365500331E+03 -0.44064042789E+00 -0.38045140813E+03  0.39434745825E+03  0.47000000000E+01 0.  1.
          5    1    4    4  503    0 -0.40691747340E+02  0.64735907148E+02 -0.93890722855E+02  0.12117802529E+03  0.47000000000E+01 0. -1.
         -5    1    4    4    0  503 -0.27060511968E+03  0.12757576065E+03 -0.47591456574E+03  0.56215608988E+03  0.47000000000E+01 0.  1.
<mgrwt>
<rscale>  0 0.38427738E+03</rscale>
<asrwt>0</asrwt>
<pdfrwt beam="1">  1        2 0.32900697E+00 0.38667151E+03</pdfrwt>
<pdfrwt beam="2">  1       -2 0.12536337E-01 0.38667151E+03</pdfrwt>
<totfact> 0.28354664E+02</totfact>
</mgrwt>
</event>
<event>
 8    1  0.3572165E-004  0.1261270E+03  0.7546771E-02  0.1246636E+00
         -1   -1    0    0    0  501 -0.00000000000E+00  0.00000000000E+00  0.16091938129E+03  0.16091938129E+03  0.00000000000E+00 0.  1.
          1   -1    0    0  501    0  0.00000000000E+00 -0.00000000000E+00 -0.90817495145E+02  0.90817495145E+02  0.00000000000E+00 0. -1.
         25    2    1    2    0    0  0.16761463506E+02 -0.14102852295E+01  0.88078475250E+02  0.15383703272E+03  0.12500031708E+03 0.  0.
         23    2    1    2    0    0 -0.16761463506E+02  0.14102852295E+01 -0.17976589106E+02  0.97899843713E+02  0.94753818286E+02 0.  0.
          5    1    3    3  502    0 -0.50764977743E+02  0.19942581669E+02  0.32278393244E+02  0.63551350885E+02  0.47000000000E+01 0. -1.
         -5    1    3    3    0  502  0.67526441250E+02 -0.21352866899E+02  0.55800082006E+02  0.90285681836E+02  0.47000000000E+01 0. -1.
          5    1    4    4  503    0  0.35947311272E+01 -0.37731478858E+02 -0.33592332622E+02  0.50863753299E+02  0.47000000000E+01 0. -1.
         -5    1    4    4    0  503 -0.20356194634E+02  0.39141764088E+02  0.15615743516E+02  0.47036090414E+02  0.47000000000E+01 0.  1.
<mgrwt>
<rscale>  0 0.11787984E+03</rscale>
<asrwt>0</asrwt>
<pdfrwt beam="1">  1        1 0.13971922E-01 0.12612698E+03</pdfrwt>
<pdfrwt beam="2">  1       -1 0.24756828E-01 0.12612698E+03</pdfrwt>
<totfact> 0.54903298E+03</totfact>
</mgrwt>
</event>
<event>
 8    1  0.3572165E-004  0.1392657E+03  0.7546771E-02  0.1225309E+00
         -2   -1    0    0    0  501 -0.00000000000E+00  0.00000000000E+00  0.21920643811E+02  0.21920643811E+02  0.00000000000E+00 0.  1.
          2   -1    0    0  501    0  0.00000000000E+00 -0.00000000000E+00 -0.87889260952E+03  0.87889260952E+03  0.00000000000E+00 0. -1.
         25    2    1    2    0    0  0.20233333701E+02 -0.57964658601E+02 -0.66368110105E+03  0.67813534039E+03  0.12500258616E+03 0.  0.
         23    2    1    2    0    0 -0.20233333701E+02  0.57964658601E+02 -0.19329086466E+03  0.22267791295E+03  0.91950014218E+02 0.  0.
          5    1    4    4  502    0  0.30410422099E+02  0.15856964020E+02 -0.11583534890E+03  0.12089729168E+03  0.47000000000E+01 0. -1.
         -5    1    4    4    0  502 -0.50643755801E+02  0.42107694581E+02 -0.77455515757E+02  0.10178062127E+03  0.47000000000E+01 0.  1.
          5    1    3    3  503    0 -0.39535390492E+02 -0.65724301170E+02 -0.31391298461E+03  0.32318134657E+03  0.47000000000E+01 0. -1.
         -5    1    3    3    0  503  0.59768724194E+02  0.77596425691E+01 -0.34976811645E+03  0.35495399382E+03  0.47000000000E+01 0. -1.
<mgrwt>
<rscale>  0 0.13145745E+03</rscale>
<asrwt>0</asrwt>
<pdfrwt beam="1">  1        2 0.13521427E+00 0.13926570E+03</pdfrwt>
<pdfrwt beam="2">  1       -2 0.33724063E-02 0.13926570E+03</pdfrwt>
<totfact> 0.10725765E+04</totfact>
</mgrwt>
</event>
<event>
 8    1  0.3572165E-004  0.1755115E+03  0.7546771E-02  0.1177987E+00
         -1   -1    0    0    0  501 -0.00000000000E+00  0.00000000000E+00  0.13268089868E+02  0.13268089868E+02  0.00000000000E+00 0.  1.
          1   -1    0    0  501    0  0.00000000000E+00 -0.00000000000E+00 -0.22433580037E+04  0.22433580037E+04  0.00000000000E+00 0. -1.
         25    2    1    2    0    0 -0.12173890225E+03 -0.18936676881E+02 -0.15156030355E+04  0.15257315772E+04  0.12500130609E+03 0.  0.
         23    2    1    2    0    0  0.12173890225E+03  0.18936676881E+02 -0.71448687835E+03  0.73089451634E+03  0.92392297473E+02 0.  0.
          5    1    3    3  502    0 -0.12002234860E+03  0.31596055846E+02 -0.10199828648E+04  0.10275168171E+04  0.47000000000E+01 0.  1.
         -5    1    4    4    0  503  0.71068341848E+02 -0.30587284997E+02 -0.27530210325E+03  0.28600634481E+03  0.47000000000E+01 0.  1.
          5    1    4    4  503    0  0.50670560406E+02  0.49523961878E+02 -0.43918477510E+03  0.44488817154E+03  0.47000000000E+01 0. -1.
         -5    1    3    3    0  502 -0.17165536566E+01 -0.50532732727E+02 -0.49562017069E+03  0.49821476014E+03  0.47000000000E+01 0.  1.
<mgrwt>
<rscale>  0 0.16986650E+03</rscale>
<asrwt>0</asrwt>
<pdfrwt beam="1">  1        1 0.34513164E+00 0.17551149E+03</pdfrwt>
<pdfrwt beam="2">  1       -1 0.20412467E-02 0.17551149E+03</pdfrwt>
<totfact> 0.15674063E+03</totfact>
</mgrwt>
</event>
<event>
 8    1  0.3572165E-004  0.1931907E+03  0.7546771E-02  0.1160230E+00
          1   -1    0    0  501    0  0.00000000000E+00  0.00000000000E+00  0.13375107572E+04  0.13375107572E+04  0.00000000000E+00 0. -1.
         -1   -1    0    0    0  501 -0.00000000000E+00 -0.00000000000E+00 -0.26827891514E+02  0.26827891514E+02  0.00000000000E+00 0.  1.
         25    2    1    2    0    0  0.51111218902E+02  0.13815550322E+03  0.86003913205E+03  0.88147033603E+03  0.12499337938E+03 0.  0.
         23    2    1    2    0    0 -0.51111218902E+02 -0.13815550322E+03  0.45064373367E+03  0.48286831271E+03  0.91557265988E+02 0.  0.
          5    1    3    3  502    0 -0.37414106605E+02  0.20482750317E+02  0.13659516076E+03  0.14317711541E+03  0.47000000000E+01 0.  1.
         -5    1    3    3    0  502  0.88525325507E+02  0.11767275291E+03  0.72344397128E+03  0.73829322062E+03  0.47000000000E+01 0.  1.
          5    1    4    4  503    0 -0.49957789177E+02 -0.11375407936E+03  0.43731638510E+03  0.45464654617E+03  0.47000000000E+01 0. -1.
         -5    1    4    4    0  503 -0.11534297254E+01 -0.24401423863E+02  0.13327348575E+02  0.28221766542E+02  0.47000000000E+01 0.  1.
<mgrwt>
<rscale>  0 0.18805204E+03</rscale>
<asrwt>0</asrwt>
<pdfrwt beam="1">  1        1 0.20577083E+00 0.19319070E+03</pdfrwt>
<pdfrwt beam="2">  1       -1 0.41273690E-02 0.19319070E+03</pdfrwt>
<totfact> 0.21561972E+03</totfact>
</mgrwt>
</event>
<event>
 8    1  0.3572165E-004  0.1364123E+03  0.7546771E-02  0.1228743E+00
         -1   -1    0    0    0  501 -0.00000000000E+00  0.00000000000E+00  0.23265019292E+03  0.23265019292E+03  0.00000000000E+00 0.  1.
          1   -1    0    0  501    0  0.00000000000E+00 -0.00000000000E+00 -0.72622419543E+02  0.72622419543E+02  0.00000000000E+00 0. -1.
         25    2    1    2    0    0 -0.36878387315E+01  0.54486458548E+02  0.38686787252E+02  0.14179206420E+03  0.12500379051E+03 0.  0.
         23    2    1    2    0    0  0.36878387315E+01 -0.54486458548E+02  0.12134098613E+03  0.16348054826E+03  0.94973051056E+02 0.  0.
          5    1    4    4  502    0 -0.10237965859E+02 -0.38091714583E+02 -0.44005382489E+00  0.39725033822E+02  0.47000000000E+01 0. -1.
         -5    1    3    3    0  503  0.25864105057E+02 -0.18008298366E+02  0.53219340533E+02  0.62029339406E+02  0.47000000000E+01 0.  1.
          5    1    3    3  503    0 -0.29551943788E+02  0.72494756914E+02 -0.14532553281E+02  0.79762724794E+02  0.47000000000E+01 0.  1.
         -5    1    4    4    0  502  0.13925804591E+02 -0.16394743965E+02  0.12178103995E+03  0.12375551444E+03  0.47000000000E+01 0.  1.
<mgrwt>
<rscale>  0 0.12913622E+03</rscale>
<asrwt>0</asrwt>
<pdfrwt beam="1">  1        1 0.11172680E-01 0.13641232E+03</pdfrwt>
<pdfrwt beam="2">  1       -1 0.35792337E-01 0.13641232E+03</pdfrwt>
<totfact> 0.39826449E+03</totfact>
</mgrwt>
</event>
<event>
 8    1  0.3572165E-004  0.1371910E+03  0.7546771E-02  0.1228927E+00
         -2   -1    0    0    0  501 -0.00000000000E+00  0.00000000000E+00  0.15945079969E+02  0.15945079969E+02  0.00000000000E+00 0. -1.
          2   -1    0    0  501    0  0.00000000000E+00 -0.00000000000E+00 -0.98909072840E+03  0.98909072840E+03  0.00000000000E+00 0.  1.
         25    2    1    2    0    0 -0.15775370352E+01 -0.56522941695E+02 -0.42860995473E+03  0.45003094475E+03  0.12499610544E+03 0.  0.
         23    2    1    2    0    0  0.15775370352E+01  0.56522941695E+02 -0.54453569370E+03  0.55500486362E+03  0.91180838837E+02 0.  0.
          5    1    3    3  502    0  0.53328084092E+02 -0.47975705391E+02 -0.31960550285E+03  0.32759017127E+03  0.47000000000E+01 0.  1.
         -5    1    4    4    0  503 -0.35073307931E+02  0.22577786864E+02 -0.39609892608E+03  0.39831688721E+03  0.47000000000E+01 0.  1.
          5    1    4    4  503    0  0.36650844966E+02  0.33945154831E+02 -0.14843676761E+03  0.15668797641E+03  0.47000000000E+01 0. -1.
         -5    1    3    3    0  502 -0.54905621127E+02 -0.85472363042E+01 -0.10900445188E+03  0.12244077348E+03  0.47000000000E+01 0.  1.
<mgrwt>
<rscale>  0 0.12901332E+03</rscale>
<asrwt>0</asrwt>
<pdfrwt beam="1">  1        2 0.15216786E+00 0.13719095E+03</pdfrwt>
<pdfrwt beam="2">  1       -2 0.24530883E-02 0.13719095E+03</pdfrwt>
<totfact> 0.14614114E+04</totfact>
</mgrwt>
</event>
<event>
 8    1  0.3572165E-004  0.1648002E+03  0.7546771E-02  0.1190437E+00
          2   -1    0    0  501    0  0.00000000000E+00  0.00000000000E+00  0.16075923514E+04  0.16075923514E+04  0.00000000000E+00 0. -1.
         -2   -1    0    0    0  501 -0.00000000000E+00 -0.00000000000E+00 -0.14623035484E+02  0.14623035484E+02  0.00000000000E+00 0.  1.
         25    2    1    2    0    0 -0.10694567331E+03 -0.98866682581E+01  0.92200789519E+03  0.93662033809E+03  0.12499590268E+03 0.  0.
         23    2    1    2    0    0  0.10694567331E+03  0.98866682581E+01  0.67096142070E+03  0.68559504877E+03  0.91193308821E+02 0.  0.
          5    1    3    3  502    0 -0.25094551772E+02 -0.58908180885E+02  0.48929086355E+03  0.49348510561E+03  0.47000000000E+01 0.  1.
         -5    1    3    3    0  502 -0.81851121542E+02  0.49021512627E+02  0.43271703164E+03  0.44313523249E+03  0.47000000000E+01 0.  1.
          5    1    4    4  503    0  0.85856885405E+02 -0.87739191127E+01  0.62858212133E+03  0.63449661912E+03  0.47000000000E+01 0. -1.
         -5    1    4    4    0  503  0.21088787910E+02  0.18660587371E+02  0.42379299378E+02  0.51098429646E+02  0.47000000000E+01 0.  1.
<mgrwt>
<rscale>  0 0.15846815E+03</rscale>
<asrwt>0</asrwt>
<pdfrwt beam="1">  1        2 0.24732176E+00 0.16480018E+03</pdfrwt>
<pdfrwt beam="2">  1       -2 0.22496990E-02 0.16480018E+03</pdfrwt>
<totfact> 0.76668208E+03</totfact>
</mgrwt>
</event>
<event>
 8    1  0.3572165E-004  0.2088074E+03  0.7546771E-02  0.1146334E+00
         -2   -1    0    0    0  501 -0.00000000000E+00  0.00000000000E+00  0.28601718742E+02  0.28601718742E+02  0.00000000000E+00 0.  1.
          2   -1    0    0  501    0  0.00000000000E+00 -0.00000000000E+00 -0.14528286759E+04  0.14528286759E+04  0.00000000000E+00 0. -1.
         25    2    1    2    0    0 -0.11587942277E+03 -0.12061117110E+03 -0.89205737554E+03  0.91616969558E+03  0.12500181852E+03 0.  0.
         23    2    1    2    0    0  0.11587942277E+03  0.12061117110E+03 -0.53216958158E+03  0.56526069902E+03  0.91324142927E+02 0.  0.
          5    1    4    4  502    0  0.79611909401E+02  0.10302212889E+03 -0.48880574905E+03  0.50587030498E+03  0.47000000000E+01 0. -1.
         -5    1    3    3    0  503 -0.11652419806E+03 -0.72996834094E+02 -0.80640981609E+03  0.81806192187E+03  0.47000000000E+01 0.  1.
          5    1    3    3  503    0  0.64477529092E+00 -0.47614337007E+02 -0.85647559445E+02  0.98107773712E+02  0.47000000000E+01 0.  1.
         -5    1    4    4    0  502  0.36267513373E+02  0.17589042215E+02 -0.43363832529E+02  0.59390394037E+02  0.47000000000E+01 0.  1.
<mgrwt>
<rscale>  0 0.20408944E+03</rscale>
<asrwt>0</asrwt>
<pdfrwt beam="1">  1        2 0.22351213E+00 0.20880745E+03</pdfrwt>
<pdfrwt beam="2">  1       -2 0.44002640E-02 0.20880745E+03</pdfrwt>
<totfact> 0.34326402E+03</totfact>
</mgrwt>
</event>
<event>
 8    1  0.3572165E-004  0.1267736E+03  0.7546771E-02  0.1247158E+00
          1   -1    0    0  501    0  0.00000000000E+00  0.00000000000E+00  0.75527200811E+02  0.75527200811E+02  0.00000000000E+00 0. -1.
         -1   -1    0    0    0  501 -0.00000000000E+00 -0.00000000000E+00 -0.16310024142E+03  0.16310024142E+03  0.00000000000E+00 0.  1.
         25    2    1    2    0    0  0.43477885046E+00 -0.21099877893E+02 -0.36922992170E+02  0.13204108366E+03  0.12500458609E+03 0.  0.
         23    2    1    2    0    0 -0.43477885046E+00  0.21099877893E+02 -0.50650048442E+02  0.10658635857E+03  0.91377407199E+02 0.  0.
          5    1    4    4  502    0 -0.37905113379E+02  0.23238000334E+02 -0.17212693551E+01  0.44742094810E+02  0.47000000000E+01 0. -1.
         -5    1    3    3    0  503 -0.52853699519E+01  0.35926154794E+02 -0.59827335484E+02  0.70142881356E+02  0.47000000000E+01 0. -1.
          5    1    3    3  503    0  0.57201488024E+01 -0.57026032687E+02  0.22904343314E+02  0.61898202308E+02  0.47000000000E+01 0. -1.
         -5    1    4    4    0  502  0.37470334528E+02 -0.21381224407E+01 -0.48928779087E+02  0.61844263762E+02  0.47000000000E+01 0.  1.
<mgrwt>
<rscale>  0 0.11757160E+03</rscale>
<asrwt>0</asrwt>
<pdfrwt beam="1">  1        1 0.11619570E-01 0.12677358E+03</pdfrwt>
<pdfrwt beam="2">  1       -1 0.25092344E-01 0.12677358E+03</pdfrwt>
<totfact> 0.68334045E+03</totfact>
</mgrwt>
</event>
<event>
 8    1  0.3572165E-004  0.1398079E+03  0.7546771E-02  0.1226377E+00
         -2   -1    0    0    0  501 -0.00000000000E+00  0.00000000000E+00  0.17499441704E+02  0.17499441704E+02  0.00000000000E+00 0.  1.
          2   -1    0    0  501    0  0.00000000000E+00 -0.00000000000E+00 -0.10326208531E+04  0.10326208531E+04  0.00000000000E+00 0. -1.
         25    2    1    2    0    0 -0.24066342003E+02  0.57815185144E+02 -0.77178067646E+03  0.78434154102E+03  0.12499782382E+03 0.  0.
         23    2    1    2    0    0  0.24066342003E+02 -0.57815185144E+02 -0.24334073489E+03  0.26577875374E+03  0.86613210494E+02 0.  0.
          5    1    4    4  502    0  0.44894301079E+02 -0.53012220735E+02 -0.22962919210E+03  0.23995301557E+03  0.47000000000E+01 0. -1.
         -5    1    4    4    0  502 -0.20827959076E+02 -0.48029644092E+01 -0.13711542791E+02  0.25825738171E+02  0.47000000000E+01 0.  1.
          5    1    3    3  503    0 -0.73681176319E+02  0.26642840836E+02 -0.51288500232E+03  0.51885631182E+03  0.47000000000E+01 0.  1.
         -5    1    3    3    0  503  0.49614834316E+02  0.31172344308E+02 -0.25889567414E+03  0.26548522920E+03  0.47000000000E+01 0.  1.
<mgrwt>
<rscale>  0 0.13072969E+03</rscale>
<asrwt>0</asrwt>
<pdfrwt beam="1">  1        2 0.15886477E+00 0.13980787E+03</pdfrwt>
<pdfrwt beam="2">  1       -2 0.26922215E-02 0.13980787E+03</pdfrwt>
<totfact> 0.12030379E+04</totfact>
</mgrwt>
</event>
<event>
 8    1  0.3572165E-004  0.1269689E+03  0.7546771E-02  0.1246146E+00
         -1   -1    0    0    0  501 -0.00000000000E+00  0.00000000000E+00  0.24185837524E+02  0.24185837524E+02  0.00000000000E+00 0.  1.
          1   -1    0    0  501    0  0.00000000000E+00 -0.00000000000E+00 -0.51053717097E+03  0.51053717097E+03  0.00000000000E+00 0. -1.
         25    2    1    2    0    0 -0.11139249023E+02 -0.19269829487E+02 -0.27620584693E+03  0.30399140062E+03  0.12500277028E+03 0.  0.
         23    2    1    2    0    0  0.11139249023E+02  0.19269829487E+02 -0.21014548652E+03  0.23073160787E+03  0.92631205161E+02 0.  0.
          5    1    4    4  502    0  0.39989051779E+02  0.31747582799E+02 -0.17912865281E+03  0.18632283148E+03  0.47000000000E+01 0. -1.
         -5    1    4    4    0  502 -0.28849802757E+02 -0.12477753312E+02 -0.31016833714E+02  0.44408776390E+02  0.47000000000E+01 0.  1.
          5    1    3    3  503    0  0.31576317375E+01 -0.50488642459E+02 -0.38428805889E+02  0.63701937000E+02  0.47000000000E+01 0.  1.
         -5    1    3    3    0  503 -0.14296880760E+02  0.31218812971E+02 -0.23777704104E+03  0.24028946362E+03  0.47000000000E+01 0.  1.
<mgrwt>
<rscale>  0 0.11817062E+03</rscale>
<asrwt>0</asrwt>
<pdfrwt beam="1">  1        1 0.78544183E-01 0.12696890E+03</pdfrwt>
<pdfrwt beam="2">  1       -1 0.37208979E-02 0.12696890E+03</pdfrwt>
<totfact> 0.11375650E+04</totfact>
</mgrwt>
</event>
<event>
 8    1  0.3572165E-004  0.1950152E+03  0.7546771E-02  0.1158585E+00
          1   -1    0    0  501    0  0.00000000000E+00  0.00000000000E+00  0.26949217384E+03  0.26949217384E+03  0.00000000000E+00 0. -1.
         -1   -1    0    0    0  501 -0.00000000000E+00 -0.00000000000E+00 -0.25505059151E+03  0.25505059151E+03  0.00000000000E+00 0.  1.
         25    2    1    2    0    0 -0.11883337228E+03  0.91007169781E+02 -0.17817885981E+03  0.26415646993E+03  0.12500903649E+03 0.  0.
         23    2    1    2    0    0  0.11883337228E+03 -0.91007169781E+02  0.19262044214E+03  0.26038629543E+03  0.91075313869E+02 0.  0.
          5    1    3    3  502    0 -0.77409625481E+02  0.45600082497E+02 -0.16953219674E+02  0.91548453282E+02  0.47000000000E+01 0.  1.
         -5    1    4    4    0  503  0.72944645265E+02 -0.10121155082E+03  0.11628342526E+03  0.17061249744E+03  0.47000000000E+01 0.  1.
          5    1    4    4  503    0  0.45888727017E+02  0.10204381034E+02  0.76337016878E+02  0.89773797989E+02  0.47000000000E+01 0.  1.
         -5    1    3    3    0  502 -0.41423746801E+02  0.45407087284E+02 -0.16122564013E+03  0.17260801665E+03  0.47000000000E+01 0.  1.
<mgrwt>
<rscale>  0 0.18986321E+03</rscale>
<asrwt>0</asrwt>
<pdfrwt beam="1">  1        1 0.41460334E-01 0.19501522E+03</pdfrwt>
<pdfrwt beam="2">  1       -1 0.39238553E-01 0.19501522E+03</pdfrwt>
<totfact> 0.64375053E+02</totfact>
</mgrwt>
</event>
<event>
 8    1  0.3572165E-004  0.2136752E+03  0.7546771E-02  0.1141938E+00
          2   -1    0    0  501    0  0.00000000000E+00  0.00000000000E+00  0.10047837152E+04  0.10047837152E+04  0.00000000000E+00 0. -1.
         -2   -1    0    0    0  501 -0.00000000000E+00 -0.00000000000E+00 -0.52134543652E+02  0.52134543652E+02  0.00000000000E+00 0.  1.
         25    2    1    2    0    0  0.13330572544E+03  0.11073125113E+03  0.72330727372E+03  0.75420852537E+03  0.12500104443E+03 0.  0.
         23    2    1    2    0    0 -0.13330572544E+03 -0.11073125113E+03  0.22934189779E+03  0.30270973344E+03  0.94887566235E+02 0.  0.
          5    1    3    3  502    0  0.10636140596E+03  0.40700976396E+02  0.24732497999E+03  0.27232527221E+03  0.47000000000E+01 0. -1.
         -5    1    3    3    0  502  0.26944319489E+02  0.70030274738E+02  0.47598229373E+03  0.48188325316E+03  0.47000000000E+01 0. -1.
          5    1    4    4  503    0 -0.86312071159E+01 -0.53156665188E+02  0.10165313022E+03  0.11513286965E+03  0.47000000000E+01 0. -1.
         -5    1    4    4    0  503 -0.12467451833E+03 -0.57574585946E+02  0.12768876757E+03  0.18757686379E+03  0.47000000000E+01 0.  1.
<mgrwt>
<rscale>  0 0.20953087E+03</rscale>
<asrwt>0</asrwt>
<pdfrwt beam="1">  1        2 0.15458210E+00 0.21367519E+03</pdfrwt>
<pdfrwt beam="2">  1       -2 0.80206997E-02 0.21367519E+03</pdfrwt>
<totfact> 0.24462515E+03</totfact>
</mgrwt>
</event>
<event>
 8    1  0.3572165E-004  0.1551324E+03  0.7546771E-02  0.1201486E+00
         -1   -1    0    0    0  501 -0.00000000000E+00  0.00000000000E+00  0.54330466956E+02  0.54330466956E+02  0.00000000000E+00 0.  1.
          1   -1    0    0  501    0  0.00000000000E+00 -0.00000000000E+00 -0.38192804640E+03  0.38192804640E+03  0.00000000000E+00 0. -1.
         25    2    1    2    0    0 -0.52729826776E+02  0.75228566708E+02 -0.18670437027E+03  0.24274387609E+03  0.12500518238E+03 0.  0.
         23    2    1    2    0    0  0.52729826776E+02 -0.75228566708E+02 -0.14089320918E+03  0.19351463727E+03  0.95693503251E+02 0.  0.
          5    1    3    3  502    0 -0.61037693659E+02  0.49300215449E+02 -0.30816865414E+02  0.84426775874E+02  0.47000000000E+01 0. -1.
         -5    1    4    4    0  503  0.13303965419E+02 -0.81289328914E+02 -0.56338664122E+02  0.99905383069E+02  0.47000000000E+01 0.  1.
          5    1    4    4  503    0  0.39425861357E+02  0.60607622061E+01 -0.84554545060E+02  0.93609254203E+02  0.47000000000E+01 0. -1.
         -5    1    3    3    0  502  0.83078668834E+01  0.25928351259E+02 -0.15588750485E+03  0.15831710021E+03  0.47000000000E+01 0. -1.
<mgrwt>
<rscale>  0 0.14917870E+03</rscale>
<asrwt>0</asrwt>
<pdfrwt beam="1">  1        1 0.58758161E-01 0.15513242E+03</pdfrwt>
<pdfrwt beam="2">  1       -1 0.83585334E-02 0.15513242E+03</pdfrwt>
<totfact> 0.50116485E+03</totfact>
</mgrwt>
</event>
<event>
 8    1  0.3572165E-004  0.1319627E+03  0.7546771E-02  0.1237894E+00
         -2   -1    0    0    0  501 -0.00000000000E+00  0.00000000000E+00  0.75893155068E+02  0.75893155068E+02  0.00000000000E+00 0.  1.
          2   -1    0    0  501    0  0.00000000000E+00 -0.00000000000E+00 -0.21415644480E+03  0.21415644480E+03  0.00000000000E+00 0. -1.
         25    2    1    2    0    0  0.29837065027E+02 -0.29998775638E+02 -0.17563484726E+02  0.13312632748E+03  0.12499586426E+03 0.  0.
         23    2    1    2    0    0 -0.29837065027E+02  0.29998775638E+02 -0.12069980500E+03  0.15692327239E+03  0.90919159145E+02 0.  0.
          5    1    3    3  502    0  0.77684809306E+02 -0.28685690976E+02 -0.18658909003E+02  0.85017900167E+02  0.47000000000E+01 0. -1.
         -5    1    3    3    0  502 -0.47847744279E+02 -0.13130846627E+01  0.10954242771E+01  0.48108427310E+02  0.47000000000E+01 0. -1.
          5    1    4    4  503    0  0.10763448654E+02  0.46068494423E+02 -0.30180059142E+02  0.56312378525E+02  0.47000000000E+01 0.  1.
         -5    1    4    4    0  503 -0.40600513682E+02 -0.16069718785E+02 -0.90519745859E+02  0.10061089386E+03  0.47000000000E+01 0. -1.
<mgrwt>
<rscale>  0 0.12320944E+03</rscale>
<asrwt>0</asrwt>
<pdfrwt beam="1">  1        2 0.32947146E-01 0.13196266E+03</pdfrwt>
<pdfrwt beam="2">  1       -2 0.11675870E-01 0.13196266E+03</pdfrwt>
<totfact> 0.77329178E+03</totfact>
</mgrwt>
</event>
<event>
 8    1  0.3572165E-004  0.1699183E+03  0.7546771E-02  0.1184476E+00
          1   -1    0    0  501    0  0.00000000000E+00  0.00000000000E+00  0.42329144360E+03  0.42329144360E+03  0.00000000000E+00 0. -1.
         -1   -1    0    0    0  501 -0.00000000000E+00 -0.00000000000E+00 -0.62436077938E+02  0.62436077938E+02  0.00000000000E+00 0.  1.
         25    2    1    2    0    0 -0.51082664464E+02  0.10313265441E+03  0.13794872479E+03  0.21886540144E+03  0.12500572092E+03 0.  0.
         23    2    1    2    0    0  0.51082664464E+02 -0.10313265441E+03  0.22290664087E+03  0.26686212009E+03  0.91006799658E+02 0.  0.
          5    1    3    3  502    0 -0.69121118073E+02  0.48202859727E+01  0.64013676176E+02  0.94450012483E+02  0.47000000000E+01 0.  1.
         -5    1    3    3    0  502  0.18038453609E+02  0.98312368436E+02  0.73935048618E+02  0.12441538896E+03  0.47000000000E+01 0.  1.
          5    1    4    4  503    0  0.28276530977E+02 -0.11160051300E+03  0.20844971987E+03  0.23817559158E+03  0.47000000000E+01 0. -1.
         -5    1    4    4    0  503  0.22806133487E+02  0.84678585942E+01  0.14456920992E+02  0.28686528517E+02  0.47000000000E+01 0.  1.
<mgrwt>
<rscale>  0 0.16379685E+03</rscale>
<asrwt>0</asrwt>
<pdfrwt beam="1">  1        1 0.65121759E-01 0.16991825E+03</pdfrwt>
<pdfrwt beam="2">  1       -1 0.96055507E-02 0.16991825E+03</pdfrwt>
<totfact> 0.35734488E+03</totfact>
</mgrwt>
</event>
<event>
 8    1  0.3572165E-004  0.3078988E+03  0.7546771E-02  0.1082817E+00
         -1   -1    0    0    0  501 -0.00000000000E+00  0.00000000000E+00  0.14116500603E+04  0.14116500603E+04  0.00000000000E+00 0.  1.
          1   -1    0    0  501    0  0.00000000000E+00 -0.00000000000E+00 -0.82874950314E+02  0.82874950314E+02  0.00000000000E+00 0. -1.
         25    2    1    2    0    0 -0.26805302440E+03 -0.85579982988E+02  0.32369403882E+03  0.44674322487E+03  0.12500128329E+03 0.  0.
         23    2    1    2    0    0  0.26805302440E+03  0.85579982988E+02  0.10050810712E+04  0.10477817858E+04  0.92099693487E+02 0.  0.
          5    1    4    4  502    0  0.64526326511E+02  0.60696342313E+02  0.36596742101E+03  0.37656597831E+03  0.47000000000E+01 0. -1.
         -5    1    4    4    0  502  0.20352669789E+03  0.24883640675E+02  0.63911365019E+03  0.67121580746E+03  0.47000000000E+01 0.  1.
          5    1    3    3  503    0 -0.22437584547E+03 -0.21705060148E+02  0.27320055554E+03  0.35422628815E+03  0.47000000000E+01 0. -1.
         -5    1    3    3    0  503 -0.43677178925E+02 -0.63874922840E+02  0.50493483275E+02  0.92516936719E+02  0.47000000000E+01 0. -1.
<mgrwt>
<rscale>  0 0.30489857E+03</rscale>
<asrwt>0</asrwt>
<pdfrwt beam="1">  1        1 0.12749993E-01 0.30789881E+03</pdfrwt>
<pdfrwt beam="2">  1       -1 0.21717691E+00 0.30789881E+03</pdfrwt>
<totfact> 0.59316423E+01</totfact>
</mgrwt>
</event>
<event>
 8    1  0.3572165E-004  0.2448194E+03  0.7546771E-02  0.1119266E+00
         -2   -1    0    0    0  501 -0.00000000000E+00  0.00000000000E+00  0.34074953863E+02  0.34074953863E+02  0.00000000000E+00 0.  1.
          2   -1    0    0  501    0  0.00000000000E+00 -0.00000000000E+00 -0.17043933824E+04  0.17043933824E+04  0.00000000000E+00 0. -1.
         25    2    1    2    0    0 -0.19817987367E+03 -0.70943091528E+02 -0.10201400369E+04  0.10491054547E+04  0.12501350162E+03 0.  0.
         23    2    1    2    0    0  0.19817987367E+03  0.70943091528E+02 -0.65017839155E+03  0.68936288150E+03  0.90449195586E+02 0.  0.
          5    1    3    3  502    0 -0.10716978571E+03  0.96988748185E+01 -0.29985568641E+03  0.31861411427E+03  0.47000000000E+01 0. -1.
         -5    1    4    4    0  503  0.15736810071E+03  0.30206885970E+02 -0.55765959870E+03  0.58024433914E+03  0.47000000000E+01 0. -1.
          5    1    4    4  503    0  0.40811772964E+02  0.40736205558E+02 -0.92518792848E+02  0.10911854236E+03  0.47000000000E+01 0.  1.
         -5    1    3    3    0  502 -0.91010087966E+02 -0.80641966347E+02 -0.72028435053E+03  0.73049134045E+03  0.47000000000E+01 0. -1.
<mgrwt>
<rscale>  0 0.24079265E+03</rscale>
<asrwt>0</asrwt>
<pdfrwt beam="1">  1        2 0.26221433E+00 0.24481944E+03</pdfrwt>
<pdfrwt beam="2">  1       -2 0.52423013E-02 0.24481944E+03</pdfrwt>
<totfact> 0.19375685E+03</totfact>
</mgrwt>
</event>
<event>
 8    1  0.3572165E-004  0.3402089E+03  0.7546771E-02  0.1067846E+00
         -1   -1    0    0    0  501 -0.00000000000E+00  0.00000000000E+00  0.91441092843E+02  0.91441092843E+02  0.00000000000E+00 0.  1.
          1   -1    0    0  501    0  0.00000000000E+00 -0.00000000000E+00 -0.14162122188E+04  0.14162122188E+04  0.00000000000E+00 0. -1.
         25    2    1    2    0    0 -0.46809271133E+02  0.31293335878E+03 -0.39582205973E+03  0.52193600986E+03  0.12499480195E+03 0.  0.
         23    2    1    2    0    0  0.46809271133E+02 -0.31293335878E+03 -0.92894906625E+03  0.98571730181E+03  0.92595013373E+02 0.  0.
          5    1    3    3  502    0 -0.80656260508E+02  0.22161576525E+03 -0.32430604157E+03  0.40101805241E+03  0.47000000000E+01 0.  1.
         -5    1    4    4    0  503  0.59945613792E+02 -0.10324979599E+03 -0.32808825349E+03  0.34916756588E+03  0.47000000000E+01 0.  1.
          5    1    4    4  503    0 -0.13136342659E+02 -0.20968356278E+03 -0.60086081276E+03  0.63654973593E+03  0.47000000000E+01 0. -1.
         -5    1    3    3    0  502  0.33846989375E+02  0.91317593530E+02 -0.71516018165E+02  0.12091795744E+03  0.47000000000E+01 0.  1.
<mgrwt>
<rscale>  0 0.33754685E+03</rscale>
<asrwt>0</asrwt>
<pdfrwt beam="1">  1        1 0.21787881E+00 0.34020890E+03</pdfrwt>
<pdfrwt beam="2">  1       -1 0.14067860E-01 0.34020890E+03</pdfrwt>
<totfact> 0.28832215E+02</totfact>
</mgrwt>
</event>
<event>
 8    1  0.3572165E-004  0.1921622E+03  0.7546771E-02  0.1161665E+00
          1   -1    0    0  501    0  0.00000000000E+00  0.00000000000E+00  0.15472340140E+03  0.15472340140E+03  0.00000000000E+00 0. -1.
         -1   -1    0    0    0  501 -0.00000000000E+00 -0.00000000000E+00 -0.26746780065E+03  0.26746780065E+03  0.00000000000E+00 0.  1.
         25    2    1    2    0    0  0.10238376147E+03  0.10401220396E+03  0.36535126736E+02  0.19560449406E+03  0.12500131770E+03 0.  0.
         23    2    1    2    0    0 -0.10238376147E+03 -0.10401220396E+03 -0.14927952599E+03  0.22658670799E+03  0.88069212403E+02 0.  0.
          5    1    4    4  502    0 -0.57844547903E+02 -0.11023362957E+03 -0.10038796247E+03  0.15999149296E+03  0.47000000000E+01 0. -1.
         -5    1    4    4    0  502 -0.44539213563E+02  0.62214256125E+01 -0.48891563518E+02  0.66595215028E+02  0.47000000000E+01 0.  1.
          5    1    3    3  503    0  0.78280405584E+02  0.29882459710E+02  0.71303362254E+02  0.11012285306E+03  0.47000000000E+01 0.  1.
         -5    1    3    3    0  503  0.24103355882E+02  0.74129744249E+02 -0.34768235518E+02  0.85481641001E+02  0.47000000000E+01 0.  1.
<mgrwt>
<rscale>  0 0.18649087E+03</rscale>
<asrwt>0</asrwt>
<pdfrwt beam="1">  1        1 0.23803601E-01 0.19216218E+03</pdfrwt>
<pdfrwt beam="2">  1       -1 0.41148892E-01 0.19216218E+03</pdfrwt>
<totfact> 0.11884671E+03</totfact>
</mgrwt>
</event>
<event>
 8    1  0.3572165E-004  0.1718138E+03  0.7546771E-02  0.1181711E+00
          1   -1    0    0  501    0  0.00000000000E+00  0.00000000000E+00  0.36535414400E+03  0.36535414400E+03  0.00000000000E+00 0. -1.
         -1   -1    0    0    0  501 -0.00000000000E+00 -0.00000000000E+00 -0.71372358561E+02  0.71372358561E+02  0.00000000000E+00 0.  1.
         25    2    1    2    0    0 -0.11722308078E+03  0.12378630061E+02  0.16368829270E+03  0.23730538724E+03  0.12500203396E+03 0.  0.
         23    2    1    2    0    0  0.11722308078E+03 -0.12378630061E+02  0.13029349274E+03  0.19942111532E+03  0.94328711617E+02 0.  0.
          5    1    4    4  502    0  0.91787393697E+02 -0.48327270376E+02  0.10806429811E+03  0.14986805273E+03  0.47000000000E+01 0. -1.
         -5    1    4    4    0  502  0.25435687087E+02  0.35948640315E+02  0.22229194626E+02  0.49553062588E+02  0.47000000000E+01 0.  1.
          5    1    3    3  503    0 -0.78097879862E+02  0.14024826188E+02  0.11772649608E+02  0.80353343846E+02  0.47000000000E+01 0. -1.
         -5    1    3    3    0  503 -0.39125200923E+02 -0.16461961275E+01  0.15191564309E+03  0.15695204339E+03  0.47000000000E+01 0. -1.
<mgrwt>
<rscale>  0 0.16634789E+03</rscale>
<asrwt>0</asrwt>
<pdfrwt beam="1">  1        1 0.56208328E-01 0.17181382E+03</pdfrwt>
<pdfrwt beam="2">  1       -1 0.10980363E-01 0.17181382E+03</pdfrwt>
<totfact> 0.35081206E+03</totfact>
</mgrwt>
</event>
<event>
 8    1  0.3572165E-004  0.1341465E+03  0.7546771E-02  0.1235020E+00
          2   -1    0    0  501    0  0.00000000000E+00  0.00000000000E+00  0.57709242775E+03  0.57709242775E+03  0.00000000000E+00 0. -1.
         -2   -1    0    0    0  501 -0.00000000000E+00 -0.00000000000E+00 -0.32488946595E+02  0.32488946595E+02  0.00000000000E+00 0.  1.
         25    2    1    2    0    0 -0.15381416131E+02  0.46114989733E+02  0.14577807109E+03  0.19810739740E+03  0.12502845538E+03 0.  0.
         23    2    1    2    0    0  0.15381416131E+02 -0.46114989733E+02  0.39882541007E+03  0.41147397695E+03  0.88802847624E+02 0.  0.
          5    1    4    4  502    0 -0.13707583520E+02 -0.56075914524E+02  0.34032872894E+03  0.34522187036E+03  0.47000000000E+01 0. -1.
         -5    1    4    4    0  502  0.29088999651E+02  0.99609247910E+01  0.58496681133E+02  0.66252106585E+02  0.47000000000E+01 0.  1.
          5    1    3    3  503    0 -0.35470030650E+02  0.33488669726E+02 -0.13288166828E+01  0.49025195850E+02  0.47000000000E+01 0. -1.
         -5    1    3    3    0  503  0.20088614519E+02  0.12626320007E+02  0.14710688777E+03  0.14908220155E+03  0.47000000000E+01 0. -1.
<mgrwt>
<rscale>  0 0.12503180E+03</rscale>
<asrwt>0</asrwt>
<pdfrwt beam="1">  1        2 0.88783443E-01 0.13414654E+03</pdfrwt>
<pdfrwt beam="2">  1       -2 0.49982999E-02 0.13414654E+03</pdfrwt>
<totfact> 0.98682278E+03</totfact>
</mgrwt>
</event>
<event>
 8    1  0.3572165E-004  0.2691100E+03  0.7546771E-02  0.1103650E+00
         -1   -1    0    0    0  501 -0.00000000000E+00  0.00000000000E+00  0.18262175495E+03  0.18262175495E+03  0.00000000000E+00 0.  1.
          1   -1    0    0  501    0  0.00000000000E+00 -0.00000000000E+00 -0.49394198232E+03  0.49394198232E+03  0.00000000000E+00 0. -1.
         25    2    1    2    0    0 -0.23807368676E+03  0.10763046471E+02  0.52075910345E+01  0.26916038726E+03  0.12500108629E+03 0.  0.
         23    2    1    2    0    0  0.23807368676E+03 -0.10763046471E+02 -0.31652781840E+03  0.40740335001E+03  0.94829880730E+02 0.  0.
          5    1    4    4  502    0  0.13751478021E+03 -0.18718265466E+02 -0.25151677427E+03  0.28730378692E+03  0.47000000000E+01 0. -1.
         -5    1    3    3    0  503 -0.19287912503E+03 -0.13228155291E+02  0.51360141944E+02  0.20009321614E+03  0.47000000000E+01 0. -1.
          5    1    3    3  503    0 -0.45194561724E+02  0.23991201762E+02 -0.46152550909E+02  0.69067171122E+02  0.47000000000E+01 0. -1.
         -5    1    4    4    0  502  0.10055890654E+03  0.79552189948E+01 -0.65011044130E+02  0.12009956309E+03  0.47000000000E+01 0.  1.
<mgrwt>
<rscale>  0 0.26589821E+03</rscale>
<asrwt>0</asrwt>
<pdfrwt beam="1">  1        1 0.75991072E-01 0.26911001E+03</pdfrwt>
<pdfrwt beam="2">  1       -1 0.28095655E-01 0.26911001E+03</pdfrwt>
<totfact> 0.52741620E+02</totfact>
</mgrwt>
</event>
<event>
 8    1  0.3572165E-004  0.1342198E+03  0.7546771E-02  0.1233298E+00
         -3   -1    0    0    0  501 -0.00000000000E+00  0.00000000000E+00  0.43895113587E+03  0.43895113587E+03  0.00000000000E+00 0.  1.
          3   -1    0    0  501    0  0.00000000000E+00 -0.00000000000E+00 -0.39938870865E+02  0.39938870865E+02  0.00000000000E+00 0. -1.
         25    2    1    2    0    0 -0.14080639153E+02 -0.46823119628E+02  0.11695806737E+03  0.17802852195E+03  0.12499718467E+03 0.  0.
         23    2    1    2    0    0  0.14080639153E+02  0.46823119628E+02  0.28205419764E+03  0.30086148478E+03  0.92587222079E+02 0.  0.
          5    1    4    4  502    0  0.16985758194E+02 -0.22789798973E+02  0.42558337423E+02  0.51392538397E+02  0.47000000000E+01 0. -1.
         -5    1    4    4    0  502 -0.29051190414E+01  0.69612918601E+02  0.23949586021E+03  0.24946894639E+03  0.47000000000E+01 0.  1.
          5    1    3    3  503    0 -0.26289420658E+02  0.37265108676E+02  0.23108882392E+02  0.51341332361E+02  0.47000000000E+01 0. -1.
         -5    1    3    3    0  503  0.12208781505E+02 -0.84088228305E+02  0.93849184977E+02  0.12668718959E+03  0.47000000000E+01 0. -1.
<mgrwt>
<rscale>  0 0.12614035E+03</rscale>
<asrwt>0</asrwt>
<pdfrwt beam="1">  1        3 0.61444420E-02 0.13421984E+03</pdfrwt>
<pdfrwt beam="2">  1       -3 0.67530941E-01 0.13421984E+03</pdfrwt>
<totfact> 0.81165438E+02</totfact>
</mgrwt>
</event>
<event>
 8    1  0.3572165E-004  0.1344536E+03  0.7546771E-02  0.1232855E+00
         -1   -1    0    0    0  501 -0.00000000000E+00  0.00000000000E+00  0.42364312544E+02  0.42364312544E+02  0.00000000000E+00 0.  1.
          1   -1    0    0  501    0  0.00000000000E+00 -0.00000000000E+00 -0.35041593998E+03  0.35041593998E+03  0.00000000000E+00 0. -1.
         25    2    1    2    0    0 -0.10378188418E+01 -0.49474504226E+02 -0.20793765293E+03  0.24762034026E+03  0.12501584605E+03 0.  0.
         23    2    1    2    0    0  0.10378188418E+01  0.49474504226E+02 -0.10011397451E+03  0.14515991227E+03  0.92735045171E+02 0.  0.
          5    1    3    3  502    0 -0.24242580856E+02  0.34165677347E+02 -0.38063129854E+02  0.56796902111E+02  0.47000000000E+01 0. -1.
         -5    1    3    3    0  502  0.23204762015E+02 -0.83640181573E+02 -0.16987452308E+03  0.19082343815E+03  0.47000000000E+01 0. -1.
          5    1    4    4  503    0 -0.33426045348E+02  0.34037103274E+02 -0.95462077894E+02  0.10682192295E+03  0.47000000000E+01 0. -1.
         -5    1    4    4    0  503  0.34463864190E+02  0.15437400952E+02 -0.46518966115E+01  0.38337989321E+02  0.47000000000E+01 0.  1.
<mgrwt>
<rscale>  0 0.12642782E+03</rscale>
<asrwt>0</asrwt>
<pdfrwt beam="1">  1        1 0.53910146E-01 0.13445358E+03</pdfrwt>
<pdfrwt beam="2">  1       -1 0.65175864E-02 0.13445358E+03</pdfrwt>
<totfact> 0.80495875E+03</totfact>
</mgrwt>
</event>
<event>
 8    1  0.3572165E-004  0.1874071E+03  0.7546771E-02  0.1166094E+00
          1   -1    0    0  501    0  0.00000000000E+00  0.00000000000E+00  0.39531508285E+03  0.39531508285E+03  0.00000000000E+00 0. -1.
         -1   -1    0    0    0  501 -0.00000000000E+00 -0.00000000000E+00 -0.14245301659E+03  0.14245301659E+03  0.00000000000E+00 0.  1.
         25    2    1    2    0    0  0.96079249380E+02  0.10134611631E+03 -0.48665731074E+02  0.19362276970E+03  0.12497666226E+03 0.  0.
         23    2    1    2    0    0 -0.96079249380E+02 -0.10134611631E+03  0.30152779734E+03  0.34414532975E+03  0.89525068938E+02 0.  0.
          5    1    4    4  502    0 -0.11690687498E+02 -0.57732441191E+02  0.18225307821E+03  0.19159327091E+03  0.47000000000E+01 0. -1.
         -5    1    3    3    0  503  0.25289003521E+01  0.65255011191E+02  0.23965392785E+02  0.69721172350E+02  0.47000000000E+01 0.  1.
          5    1    3    3  503    0  0.93550349027E+02  0.36091105124E+02 -0.72631123859E+02  0.12390159735E+03  0.47000000000E+01 0.  1.
         -5    1    4    4    0  502 -0.84388561881E+02 -0.43613675123E+02  0.11927471913E+03  0.15255205884E+03  0.47000000000E+01 0.  1.
<mgrwt>
<rscale>  0 0.18177731E+03</rscale>
<asrwt>0</asrwt>
<pdfrwt beam="1">  1        1 0.60817705E-01 0.18740711E+03</pdfrwt>
<pdfrwt beam="2">  1       -1 0.21915849E-01 0.18740711E+03</pdfrwt>
<totfact> 0.10648596E+03</totfact>
</mgrwt>
</event>
<event>
 8    1  0.3572165E-004  0.1310501E+03  0.7546771E-02  0.1242621E+00
          1   -1    0    0  501    0  0.00000000000E+00  0.00000000000E+00  0.50472564259E+03  0.50472564259E+03  0.00000000000E+00 0. -1.
         -1   -1    0    0    0  501 -0.00000000000E+00 -0.00000000000E+00 -0.25244007886E+02  0.25244007886E+02  0.00000000000E+00 0.  1.
         25    2    1    2    0    0  0.88427024247E+01  0.38366237103E+02  0.31164966739E+03  0.33808232026E+03  0.12499591414E+03 0.  0.
         23    2    1    2    0    0 -0.88427024247E+01 -0.38366237103E+02  0.16783196731E+03  0.19188733021E+03  0.84279396710E+02 0.  0.
          5    1    3    3  502    0  0.35045811395E+02 -0.16950101455E+02  0.24235273938E+03  0.24550449104E+03  0.47000000000E+01 0. -1.
         -5    1    3    3    0  502 -0.26203108971E+02  0.55316338558E+02  0.69296928011E+02  0.92577829219E+02  0.47000000000E+01 0. -1.
          5    1    4    4  503    0  0.13042079916E+02  0.21667356404E+02  0.73353434425E+02  0.77732789246E+02  0.47000000000E+01 0. -1.
         -5    1    4    4    0  503 -0.21884782340E+02 -0.60033593507E+02  0.94478532886E+02  0.11415454097E+03  0.47000000000E+01 0.  1.
<mgrwt>
<rscale>  0 0.12028877E+03</rscale>
<asrwt>0</asrwt>
<pdfrwt beam="1">  1        1 0.77650091E-01 0.13105014E+03</pdfrwt>
<pdfrwt beam="2">  1       -1 0.38836939E-02 0.13105014E+03</pdfrwt>
<totfact> 0.10871071E+04</totfact>
</mgrwt>
</event>
<event>
 8    1  0.3572165E-004  0.1769315E+03  0.7546771E-02  0.1177642E+00
          1   -1    0    0  501    0  0.00000000000E+00  0.00000000000E+00  0.42440409132E+03  0.42440409132E+03  0.00000000000E+00 0. -1.
         -1   -1    0    0    0  501 -0.00000000000E+00 -0.00000000000E+00 -0.10174529168E+03  0.10174529168E+03  0.00000000000E+00 0.  1.
         25    2    1    2    0    0 -0.97472190922E+02  0.78601418277E+02  0.33004206980E+03  0.37447634449E+03  0.12500301511E+03 0.  0.
         23    2    1    2    0    0  0.97472190922E+02 -0.78601418277E+02 -0.73832701663E+01  0.15167303851E+03  0.85271255258E+02 0.  0.
          5    1    3    3  502    0 -0.96632732761E+02  0.52296097048E+02  0.32989215883E+03  0.34774084210E+03  0.47000000000E+01 0. -1.
         -5    1    4    4    0  503  0.93608957869E+01 -0.41322309643E+02 -0.31369298072E+02  0.52927143374E+02  0.47000000000E+01 0.  1.
          5    1    4    4  503    0  0.88111295135E+02 -0.37279108633E+02  0.23986027905E+02  0.98745895133E+02  0.47000000000E+01 0. -1.
         -5    1    3    3    0  502 -0.83945816140E+00  0.26305321228E+02  0.14991097498E+00  0.26735502393E+02  0.47000000000E+01 0. -1.
<mgrwt>
<rscale>  0 0.17019713E+03</rscale>
<asrwt>0</asrwt>
<pdfrwt beam="1">  1        1 0.65292936E-01 0.17693153E+03</pdfrwt>
<pdfrwt beam="2">  1       -1 0.15653122E-01 0.17693153E+03</pdfrwt>
<totfact> 0.16684460E+03</totfact>
</mgrwt>
</event>
<event>
 8    1  0.3572165E-004  0.1379463E+03  0.7546771E-02  0.1227842E+00
          2   -1    0    0  501    0  0.00000000000E+00  0.00000000000E+00  0.37121508378E+03  0.37121508378E+03  0.00000000000E+00 0. -1.
         -2   -1    0    0    0  501 -0.00000000000E+00 -0.00000000000E+00 -0.45752088233E+02  0.45752088233E+02  0.00000000000E+00 0.  1.
         25    2    1    2    0    0 -0.13295168644E+02  0.56816682724E+02  0.11169960288E+03  0.17749921314E+03  0.12499708972E+03 0.  0.
         23    2    1    2    0    0  0.13295168644E+02 -0.56816682724E+02  0.21376339267E+03  0.23946795887E+03  0.90803184608E+02 0.  0.
          5    1    3    3  502    0 -0.37572254575E+02  0.28417982337E+02  0.12799410297E+03  0.13646917758E+03  0.47000000000E+01 0.  1.
         -5    1    4    4    0  503 -0.25290618855E+02 -0.43228990588E+02  0.51224090810E+02  0.71793861218E+02  0.47000000000E+01 0.  1.
          5    1    4    4  503    0  0.38585787498E+02 -0.13587692136E+02  0.16253930186E+03  0.16767409765E+03  0.47000000000E+01 0. -1.
         -5    1    3    3    0  502  0.24277085932E+02  0.28398700387E+02 -0.16294500094E+02  0.41030035563E+02  0.47000000000E+01 0.  1.
<mgrwt>
<rscale>  0 0.12973995E+03</rscale>
<asrwt>0</asrwt>
<pdfrwt beam="1">  1        2 0.57110011E-01 0.13794626E+03</pdfrwt>
<pdfrwt beam="2">  1       -2 0.70387831E-02 0.13794626E+03</pdfrwt>
<totfact> 0.95146377E+03</totfact>
</mgrwt>
</event>
<event>
 8    1  0.3572165E-004  0.1281875E+03  0.7546771E-02  0.1240588E+00
          2   -1    0    0  501    0  0.00000000000E+00  0.00000000000E+00  0.11021042570E+03  0.11021042570E+03  0.00000000000E+00 0. -1.
         -2   -1    0    0    0  501 -0.00000000000E+00 -0.00000000000E+00 -0.12648760835E+03  0.12648760835E+03  0.00000000000E+00 0.  1.
         25    2    1    2    0    0  0.23199168549E+02  0.16445627423E+02  0.13583019668E+02  0.12890515494E+03  0.12499352169E+03 0.  0.
         23    2    1    2    0    0 -0.23199168549E+02 -0.16445627423E+02 -0.29860202322E+02  0.10779287911E+03  0.99594241909E+02 0.  0.
          5    1    4    4  502    0 -0.37834291569E+02 -0.46994480730E+02  0.26982685515E+01  0.60574627450E+02  0.47000000000E+01 0. -1.
         -5    1    3    3    0  503 -0.26176198942E+02 -0.35277645429E+02 -0.21481952282E+02  0.49125043837E+02  0.47000000000E+01 0. -1.
          5    1    3    3  503    0  0.49375367492E+02  0.51723272852E+02  0.35064971950E+02  0.79780111101E+02  0.47000000000E+01 0. -1.
         -5    1    4    4    0  502  0.14635123019E+02  0.30548853307E+02 -0.32558470873E+02  0.47218251659E+02  0.47000000000E+01 0.  1.
<mgrwt>
<rscale>  0 0.12153392E+03</rscale>
<asrwt>0</asrwt>
<pdfrwt beam="1">  1        2 0.16955450E-01 0.12818752E+03</pdfrwt>
<pdfrwt beam="2">  1       -2 0.19459632E-01 0.12818752E+03</pdfrwt>
<totfact> 0.69971380E+03</totfact>
</mgrwt>
</event>
<event>
 8    1  0.3572165E-004  0.1818037E+03  0.7546771E-02  0.1171508E+00
          2   -1    0    0  501    0  0.00000000000E+00  0.00000000000E+00  0.79881150439E+03  0.79881150439E+03  0.00000000000E+00 0. -1.
         -2   -1    0    0    0  501 -0.00000000000E+00 -0.00000000000E+00 -0.40661206691E+02  0.40661206691E+02  0.00000000000E+00 0.  1.
         25    2    1    2    0    0  0.40453043606E+02  0.12566092365E+03  0.26906912802E+03  0.32473185938E+03  0.12500187348E+03 0.  0.
         23    2    1    2    0    0 -0.40453043606E+02 -0.12566092365E+03  0.48908116968E+03  0.51474085170E+03  0.91272325506E+02 0.  0.
          5    1    3    3  502    0  0.59377784993E+02  0.53413555690E+01  0.93968198112E+02  0.11138385739E+03  0.47000000000E+01 0. -1.
         -5    1    4    4    0  503 -0.38719761156E+02 -0.49540437240E+01  0.10572458849E+03  0.11279867493E+03  0.47000000000E+01 0.  1.
          5    1    4    4  503    0 -0.17332824498E+01 -0.12070687993E+03  0.38335658119E+03  0.40194217678E+03  0.47000000000E+01 0. -1.
         -5    1    3    3    0  502 -0.18924741387E+02  0.12031956808E+03  0.17510092990E+03  0.21334800199E+03  0.47000000000E+01 0. -1.
<mgrwt>
<rscale>  0 0.17622419E+03</rscale>
<asrwt>0</asrwt>
<pdfrwt beam="1">  1        2 0.12289407E+00 0.18180370E+03</pdfrwt>
<pdfrwt beam="2">  1       -2 0.62555709E-02 0.18180370E+03</pdfrwt>
<totfact> 0.48512561E+03</totfact>
</mgrwt>
</event>
<event>
 8    1  0.3572165E-004  0.3910464E+03  0.7546771E-02  0.1047616E+00
          4   -1    0    0  501    0  0.00000000000E+00  0.00000000000E+00  0.34195228164E+03  0.34195228164E+03  0.00000000000E+00 0. -1.
         -4   -1    0    0    0  501 -0.00000000000E+00 -0.00000000000E+00 -0.47907050968E+03  0.47907050968E+03  0.00000000000E+00 0.  1.
         25    2    1    2    0    0 -0.12189097275E+02  0.37032895826E+03 -0.18870286932E+03  0.43419584015E+03  0.12500057319E+03 0.  0.
         23    2    1    2    0    0  0.12189097275E+02 -0.37032895826E+03  0.51584641278E+02  0.38682695117E+03  0.98397172317E+02 0.  0.
          5    1    4    4  502    0  0.28798741717E+01 -0.28871311440E+03  0.80229529816E+02  0.29970389313E+03  0.47000000000E+01 0. -1.
         -5    1    4    4    0  502  0.93092231036E+01 -0.81615843860E+02 -0.28644888538E+02  0.87123058045E+02  0.47000000000E+01 0.  1.
          5    1    3    3  503    0  0.41439590536E+02  0.10540009209E+03 -0.95559082371E+02  0.14825669395E+03  0.47000000000E+01 0. -1.
         -5    1    3    3    0  503 -0.53628687811E+02  0.26492886616E+03 -0.93143786951E+02  0.28593914620E+03  0.47000000000E+01 0. -1.
<mgrwt>
<rscale>  0 0.38911349E+03</rscale>
<asrwt>0</asrwt>
<pdfrwt beam="1">  1        4 0.52608043E-01 0.39104636E+03</pdfrwt>
<pdfrwt beam="2">  1       -4 0.73703155E-01 0.39104636E+03</pdfrwt>
<totfact> 0.11102637E+01</totfact>
</mgrwt>
</event>
<event>
 8    1  0.3572165E-004  0.2589838E+03  0.7546771E-02  0.1110231E+00
          1   -1    0    0  501    0  0.00000000000E+00  0.00000000000E+00  0.94907188467E+03  0.94907188467E+03  0.00000000000E+00 0.  1.
         -1   -1    0    0    0  501 -0.00000000000E+00 -0.00000000000E+00 -0.66862478178E+02  0.66862478178E+02  0.00000000000E+00 0. -1.
         25    2    1    2    0    0  0.21685272684E+03 -0.66515832018E+02  0.41319999077E+03  0.48765440878E+03  0.12499251572E+03 0.  0.
         23    2    1    2    0    0 -0.21685272684E+03  0.66515832018E+02  0.46900941572E+03  0.52827995406E+03  0.87523806952E+02 0.  0.
          5    1    4    4  502    0 -0.99055719389E+02  0.61951771744E+02  0.16542977870E+03  0.20258124110E+03  0.47000000000E+01 0. -1.
         -5    1    3    3    0  503  0.17163121470E+03 -0.55771151562E+02  0.20012362591E+03  0.26951669866E+03  0.47000000000E+01 0.  1.
          5    1    3    3  503    0  0.45221512138E+02 -0.10744680456E+02  0.21307636486E+03  0.21813771013E+03  0.47000000000E+01 0.  1.
         -5    1    4    4    0  502 -0.11779700745E+03  0.45640602741E+01  0.30357963702E+03  0.32569871296E+03  0.47000000000E+01 0.  1.
<mgrwt>
<rscale>  0 0.25492470E+03</rscale>
<asrwt>0</asrwt>
<pdfrwt beam="1">  1        1 0.14601105E+00 0.25898376E+03</pdfrwt>
<pdfrwt beam="2">  1       -1 0.10286536E-01 0.25898376E+03</pdfrwt>
<totfact> 0.10217324E+03</totfact>
</mgrwt>
</event>
<event>
 8    1  0.3572165E-004  0.1456275E+03  0.7546771E-02  0.1215745E+00
         -2   -1    0    0    0  501 -0.00000000000E+00  0.00000000000E+00  0.31740103358E+02  0.31740103358E+02  0.00000000000E+00 0.  1.
          2   -1    0    0  501    0  0.00000000000E+00 -0.00000000000E+00 -0.55983506201E+03  0.55983506201E+03  0.00000000000E+00 0. -1.
         25    2    1    2    0    0 -0.22647292096E+02  0.71199400659E+02 -0.33344002545E+03  0.36385384934E+03  0.12500047445E+03 0.  0.
         23    2    1    2    0    0  0.22647292096E+02 -0.71199400659E+02 -0.19465493321E+03  0.22772131603E+03  0.91565278687E+02 0.  0.
          5    1    4    4  502    0 -0.16158215213E+02 -0.37828906809E+02 -0.16111484143E+03  0.16634962049E+03  0.47000000000E+01 0. -1.
         -5    1    4    4    0  502  0.38805507309E+02 -0.33370493850E+02 -0.33540091780E+02  0.61371695544E+02  0.47000000000E+01 0.  1.
          5    1    3    3  503    0 -0.57901919850E+02  0.48898588877E+02 -0.30201682939E+03  0.31141605538E+03  0.47000000000E+01 0.  1.
         -5    1    3    3    0  503  0.35254627754E+02  0.22300811782E+02 -0.31423196058E+02  0.52437793954E+02  0.47000000000E+01 0.  1.
<mgrwt>
<rscale>  0 0.13821919E+03</rscale>
<asrwt>0</asrwt>
<pdfrwt beam="1">  1        2 0.86128470E-01 0.14562751E+03</pdfrwt>
<pdfrwt beam="2">  1       -2 0.48830929E-02 0.14562751E+03</pdfrwt>
<totfact> 0.10632670E+04</totfact>
</mgrwt>
</event>
<event>
 8    1  0.3572165E-004  0.1555666E+03  0.7546771E-02  0.1202227E+00
         -2   -1    0    0    0  501 -0.00000000000E+00  0.00000000000E+00  0.43578235964E+02  0.43578235964E+02  0.00000000000E+00 0.  1.
          2   -1    0    0  501    0  0.00000000000E+00 -0.00000000000E+00 -0.47014780547E+03  0.47014780547E+03  0.00000000000E+00 0. -1.
         25    2    1    2    0    0 -0.62271957251E+02 -0.68525655119E+02 -0.25659361722E+03  0.30006876190E+03  0.12500966124E+03 0.  0.
         23    2    1    2    0    0  0.62271957251E+02  0.68525655119E+02 -0.16997595229E+03  0.21365727953E+03  0.90465720979E+02 0.  0.
          5    1    4    4  502    0  0.15018734399E+02  0.28539289591E+02 -0.14177477104E+03  0.14547243428E+03  0.47000000000E+01 0. -1.
         -5    1    3    3    0  503 -0.73454176621E+02 -0.14358149532E+02 -0.60750806491E+02  0.96511258464E+02  0.47000000000E+01 0. -1.
          5    1    3    3  503    0  0.11182219371E+02 -0.54167505588E+02 -0.19584281073E+03  0.20355750344E+03  0.47000000000E+01 0. -1.
         -5    1    4    4    0  502  0.47253222852E+02  0.39986365528E+02 -0.28201181250E+02  0.68184845251E+02  0.47000000000E+01 0.  1.
<mgrwt>
<rscale>  0 0.14858119E+03</rscale>
<asrwt>0</asrwt>
<pdfrwt beam="1">  1        2 0.72330435E-01 0.15556663E+03</pdfrwt>
<pdfrwt beam="2">  1       -2 0.67043437E-02 0.15556663E+03</pdfrwt>
<totfact> 0.80117039E+03</totfact>
</mgrwt>
</event>
<event>
 8    1  0.3572165E-004  0.1789259E+03  0.7546771E-02  0.1174416E+00
          2   -1    0    0  501    0  0.00000000000E+00  0.00000000000E+00  0.36317103386E+03  0.36317103386E+03  0.00000000000E+00 0.  1.
         -2   -1    0    0    0  501 -0.00000000000E+00 -0.00000000000E+00 -0.78416719831E+02  0.78416719831E+02  0.00000000000E+00 0. -1.
         25    2    1    2    0    0  0.10004292480E+03 -0.79882343467E+02  0.13436842246E+03  0.22376183655E+03  0.12499884377E+03 0.  0.
         23    2    1    2    0    0 -0.10004292480E+03  0.79882343467E+02  0.15038589157E+03  0.21782591714E+03  0.91882741540E+02 0.  0.
          5    1    3    3  502    0  0.98068635951E+02 -0.10989797761E+03  0.12024581383E+03  0.19020033802E+03  0.47000000000E+01 0.  1.
         -5    1    3    3    0  502  0.19742888500E+01  0.30015634139E+02  0.14122608627E+02  0.33561498532E+02  0.47000000000E+01 0.  1.
          5    1    4    4  503    0 -0.60290579331E+02  0.87724214122E+02  0.69427376490E+02  0.12717209720E+03  0.47000000000E+01 0. -1.
         -5    1    4    4    0  503 -0.39752345470E+02 -0.78418706545E+01  0.80958515081E+02  0.90653819940E+02  0.47000000000E+01 0.  1.
<mgrwt>
<rscale>  0 0.17333325E+03</rscale>
<asrwt>0</asrwt>
<pdfrwt beam="1">  1        2 0.55872466E-01 0.17892592E+03</pdfrwt>
<pdfrwt beam="2">  1       -2 0.12064111E-01 0.17892592E+03</pdfrwt>
<totfact> 0.42496671E+03</totfact>
</mgrwt>
</event>
<event>
 8    1  0.3572165E-004  0.2519246E+03  0.7546771E-02  0.1114532E+00
         -1   -1    0    0    0  501 -0.00000000000E+00  0.00000000000E+00  0.17422671856E+03  0.17422671856E+03  0.00000000000E+00 0.  1.
          1   -1    0    0  501    0  0.00000000000E+00 -0.00000000000E+00 -0.36224854785E+03  0.36224854785E+03  0.00000000000E+00 0. -1.
         25    2    1    2    0    0 -0.15672102064E+03 -0.15257759685E+03 -0.15887709497E+03  0.29783879204E+03  0.12499845346E+03 0.  0.
         23    2    1    2    0    0  0.15672102064E+03  0.15257759685E+03 -0.29144734315E+02  0.23863647437E+03  0.90865559979E+02 0.  0.
          5    1    3    3  502    0 -0.87435130971E+02 -0.15519813895E+03 -0.88608644092E+02  0.19900991500E+03  0.47000000000E+01 0.  1.
         -5    1    3    3    0  502 -0.69285889668E+02  0.26205420970E+01 -0.70268450880E+02  0.98828877040E+02  0.47000000000E+01 0.  1.
          5    1    4    4  503    0  0.84822247269E+02  0.91206008685E+02 -0.61006888925E+02  0.13877060261E+03  0.47000000000E+01 0. -1.
         -5    1    4    4    0  503  0.71898773371E+02  0.61371588167E+02  0.31862154610E+02  0.99865871762E+02  0.47000000000E+01 0.  1.
<mgrwt>
<rscale>  0 0.24806834E+03</rscale>
<asrwt>0</asrwt>
<pdfrwt beam="1">  1        1 0.55730545E-01 0.25192462E+03</pdfrwt>
<pdfrwt beam="2">  1       -1 0.26804111E-01 0.25192462E+03</pdfrwt>
<totfact> 0.85436746E+02</totfact>
</mgrwt>
</event>
<event>
 8    1  0.3572165E-004  0.1283709E+03  0.7546771E-02  0.1243717E+00
          3   -1    0    0  501    0  0.00000000000E+00  0.00000000000E+00  0.25273400494E+02  0.25273400494E+02  0.00000000000E+00 0. -1.
         -3   -1    0    0    0  501 -0.00000000000E+00 -0.00000000000E+00 -0.53364421189E+03  0.53364421189E+03  0.00000000000E+00 0.  1.
         25    2    1    2    0    0  0.24756553134E+02  0.15660545836E+02 -0.35557384617E+03  0.37803684513E+03  0.12498382526E+03 0.  0.
         23    2    1    2    0    0 -0.24756553134E+02 -0.15660545836E+02 -0.15279696522E+03  0.18088076725E+03  0.92264834910E+02 0.  0.
          5    1    4    4  502    0 -0.53321653591E+02  0.28690173017E+01 -0.53214719169E+02  0.75533610652E+02  0.47000000000E+01 0. -1.
         -5    1    3    3    0  503 -0.50075437341E+02  0.14664774583E+02 -0.12361277576E+03  0.13425652077E+03  0.47000000000E+01 0. -1.
          5    1    3    3  503    0  0.74831990476E+02  0.99577125377E+00 -0.23196107041E+03  0.24378032436E+03  0.47000000000E+01 0. -1.
         -5    1    4    4    0  502  0.28565100457E+02 -0.18529563138E+02 -0.99582246055E+02  0.10534715660E+03  0.47000000000E+01 0.  1.
<mgrwt>
<rscale>  0 0.11962526E+03</rscale>
<asrwt>0</asrwt>
<pdfrwt beam="1">  1        3 0.38882155E-02 0.12837093E+03</pdfrwt>
<pdfrwt beam="2">  1       -3 0.82099108E-01 0.12837093E+03</pdfrwt>
<totfact> 0.10927582E+03</totfact>
</mgrwt>
</event>
<event>
 8    1  0.3572165E-004  0.1289975E+03  0.7546771E-02  0.1243119E+00
         -1   -1    0    0    0  501 -0.00000000000E+00  0.00000000000E+00  0.31008564689E+02  0.31008564689E+02  0.00000000000E+00 0.  1.
          1   -1    0    0  501    0  0.00000000000E+00 -0.00000000000E+00 -0.43652809628E+03  0.43652809628E+03  0.00000000000E+00 0. -1.
         25    2    1    2    0    0 -0.31391422825E+02 -0.54486047620E+01 -0.28703619549E+03  0.31469051771E+03  0.12500094277E+03 0.  0.
         23    2    1    2    0    0  0.31391422825E+02  0.54486047620E+01 -0.11848333609E+03  0.15284614325E+03  0.91151159373E+02 0.  0.
          5    1    4    4  502    0 -0.11010252422E+02  0.30828672434E+02 -0.89383271185E+02  0.95305256257E+02  0.47000000000E+01 0. -1.
         -5    1    3    3    0  503 -0.64725271632E+02 -0.44515023745E+00 -0.71809970108E+02  0.96790086029E+02  0.47000000000E+01 0. -1.
          5    1    3    3  503    0  0.33333848807E+02 -0.50034545246E+01 -0.21522622539E+03  0.21790043168E+03  0.47000000000E+01 0. -1.
         -5    1    4    4    0  502  0.42401675246E+02 -0.25380067672E+02 -0.29100064908E+02  0.57540886997E+02  0.47000000000E+01 0.  1.
<mgrwt>
<rscale>  0 0.11998697E+03</rscale>
<asrwt>0</asrwt>
<pdfrwt beam="1">  1        1 0.67158168E-01 0.12899746E+03</pdfrwt>
<pdfrwt beam="2">  1       -1 0.47705485E-02 0.12899746E+03</pdfrwt>
<totfact> 0.96744553E+03</totfact>
</mgrwt>
</event>
<event>
 8    1  0.3572165E-004  0.1376289E+03  0.7546771E-02  0.1227915E+00
         -2   -1    0    0    0  501 -0.00000000000E+00  0.00000000000E+00  0.16331237302E+02  0.16331237302E+02  0.00000000000E+00 0.  1.
          2   -1    0    0  501    0  0.00000000000E+00 -0.00000000000E+00 -0.10678370507E+04  0.10678370507E+04  0.00000000000E+00 0. -1.
         25    2    1    2    0    0 -0.32879384200E+02 -0.47214555140E+02 -0.38444310320E+03  0.40833591857E+03  0.12502581602E+03 0.  0.
         23    2    1    2    0    0  0.32879384200E+02  0.47214555140E+02 -0.66706271019E+03  0.67583236943E+03  0.92013390967E+02 0.  0.
          5    1    3    3  502    0  0.33989189888E+02 -0.76154755584E+00 -0.33208657015E+02  0.47757197203E+02  0.47000000000E+01 0.  1.
         -5    1    4    4    0  503  0.11003674909E+01  0.69261174581E+02 -0.41122958882E+03  0.41704938057E+03  0.47000000000E+01 0.  1.
          5    1    4    4  503    0  0.31779016709E+02 -0.22046619442E+02 -0.25583312137E+03  0.25878298886E+03  0.47000000000E+01 0. -1.
         -5    1    3    3    0  502 -0.66868574088E+02 -0.46453007584E+02 -0.35123444618E+03  0.36057872136E+03  0.47000000000E+01 0.  1.
<mgrwt>
<rscale>  0 0.12969117E+03</rscale>
<asrwt>0</asrwt>
<pdfrwt beam="1">  1        2 0.16428268E+00 0.13762893E+03</pdfrwt>
<pdfrwt beam="2">  1       -2 0.25124971E-02 0.13762893E+03</pdfrwt>
<totfact> 0.12682705E+04</totfact>
</mgrwt>
</event>
<event>
 8    1  0.3572165E-004  0.1258241E+03  0.7546771E-02  0.1248611E+00
          2   -1    0    0  501    0  0.00000000000E+00  0.00000000000E+00  0.77534852805E+03  0.77534852805E+03  0.00000000000E+00 0. -1.
         -2   -1    0    0    0  501 -0.00000000000E+00 -0.00000000000E+00 -0.18135198050E+02  0.18135198050E+02  0.00000000000E+00 0.  1.
         25    2    1    2    0    0 -0.14283260372E+02  0.10662671830E+01  0.27590971132E+03  0.30324557005E+03  0.12500623385E+03 0.  0.
         23    2    1    2    0    0  0.14283260372E+02 -0.10662671830E+01  0.48130361868E+03  0.49023815605E+03  0.92060457533E+02 0.  0.
          5    1    3    3  502    0  0.37139211126E+02 -0.53062996127E+01  0.21345473632E+02  0.43418856079E+02  0.47000000000E+01 0. -1.
         -5    1    3    3    0  502 -0.51422471498E+02  0.63725667957E+01  0.25456423769E+03  0.25982671397E+03  0.47000000000E+01 0. -1.
          5    1    4    4  503    0  0.64630731918E+01 -0.46312672336E+02  0.23860601828E+03  0.24319037171E+03  0.47000000000E+01 0. -1.
         -5    1    4    4    0  503  0.78201871802E+01  0.45246405153E+02  0.24269760040E+03  0.24704778434E+03  0.47000000000E+01 0.  1.
<mgrwt>
<rscale>  0 0.11671847E+03</rscale>
<asrwt>0</asrwt>
<pdfrwt beam="1">  1        2 0.11928436E+00 0.12582411E+03</pdfrwt>
<pdfrwt beam="2">  1       -2 0.27900311E-02 0.12582411E+03</pdfrwt>
<totfact> 0.16480610E+04</totfact>
</mgrwt>
</event>
<event>
 8    1  0.3572165E-004  0.1410238E+03  0.7546771E-02  0.1223960E+00
          2   -1    0    0  501    0  0.00000000000E+00  0.00000000000E+00  0.59235219269E+03  0.59235219269E+03  0.00000000000E+00 0. -1.
         -2   -1    0    0    0  501 -0.00000000000E+00 -0.00000000000E+00 -0.26600606436E+02  0.26600606436E+02  0.00000000000E+00 0.  1.
         25    2    1    2    0    0  0.62840105601E+02 -0.17729703318E+02  0.29864840148E+03  0.33027046444E+03  0.12499796288E+03 0.  0.
         23    2    1    2    0    0 -0.62840105601E+02  0.17729703318E+02  0.26710318477E+03  0.28868233468E+03  0.87921315906E+02 0.  0.
          5    1    3    3  502    0  0.45134487254E+02 -0.59898044058E+02  0.93102747121E+02  0.11964576525E+03  0.47000000000E+01 0.  1.
         -5    1    3    3    0  502  0.17705618346E+02  0.42168340740E+02  0.20554565436E+03  0.21062469919E+03  0.47000000000E+01 0.  1.
          5    1    4    4  503    0 -0.15678137192E+02  0.38071389451E+02  0.19891144546E+03  0.20318240036E+03  0.47000000000E+01 0. -1.
         -5    1    4    4    0  503 -0.47161968409E+02 -0.20341686132E+02  0.68191739308E+02  0.85499934320E+02  0.47000000000E+01 0.  1.
<mgrwt>
<rscale>  0 0.13238446E+03</rscale>
<asrwt>0</asrwt>
<pdfrwt beam="1">  1        2 0.91131097E-01 0.14102380E+03</pdfrwt>
<pdfrwt beam="2">  1       -2 0.40924014E-02 0.14102380E+03</pdfrwt>
<totfact> 0.12963280E+04</totfact>
</mgrwt>
</event>
<event>
 8    1  0.3572165E-004  0.1486520E+03  0.7546771E-02  0.1211933E+00
         -1   -1    0    0    0  501 -0.00000000000E+00  0.00000000000E+00  0.63107177806E+02  0.63107177806E+02  0.00000000000E+00 0.  1.
          1   -1    0    0  501    0  0.00000000000E+00 -0.00000000000E+00 -0.35240824131E+03  0.35240824131E+03  0.00000000000E+00 0. -1.
         25    2    1    2    0    0  0.72626203309E+02 -0.34604335941E+02 -0.24614005943E+03  0.28754536507E+03  0.12500153056E+03 0.  0.
         23    2    1    2    0    0 -0.72626203309E+02  0.34604335941E+02 -0.43161004078E+02  0.12797005405E+03  0.89674059726E+02 0.  0.
          5    1    4    4  502    0 -0.42718359245E+02  0.23358792136E+02 -0.70397312947E+02  0.85722593620E+02  0.47000000000E+01 0. -1.
         -5    1    3    3    0  503 -0.35056192515E+01 -0.52580465811E+02 -0.37993387945E+02  0.65135107882E+02  0.47000000000E+01 0. -1.
          5    1    3    3  503    0  0.76131822561E+02  0.17976129870E+02 -0.20814667148E+03  0.22241025718E+03  0.47000000000E+01 0. -1.
         -5    1    4    4    0  502 -0.29907844064E+02  0.11245543805E+02  0.27236308870E+02  0.42247460431E+02  0.47000000000E+01 0.  1.
<mgrwt>
<rscale>  0 0.14104230E+03</rscale>
<asrwt>0</asrwt>
<pdfrwt beam="1">  1        1 0.54216652E-01 0.14865197E+03</pdfrwt>
<pdfrwt beam="2">  1       -1 0.97087968E-02 0.14865197E+03</pdfrwt>
<totfact> 0.44046901E+03</totfact>
</mgrwt>
</event>
<event>
 8    1  0.3572165E-004  0.1304415E+03  0.7546771E-02  0.1241373E+00
          2   -1    0    0  501    0  0.00000000000E+00  0.00000000000E+00  0.89401902192E+02  0.89401902192E+02  0.00000000000E+00 0. -1.
         -2   -1    0    0    0  501 -0.00000000000E+00 -0.00000000000E+00 -0.15052917261E+03  0.15052917261E+03  0.00000000000E+00 0.  1.
         25    2    1    2    0    0 -0.25466193195E+02  0.27339921961E+02 -0.10822416945E+02  0.13088963708E+03  0.12497589390E+03 0.  0.
         23    2    1    2    0    0  0.25466193195E+02 -0.27339921961E+02 -0.50304853476E+02  0.10904143773E+03  0.89238212274E+02 0.  0.
          5    1    3    3  502    0 -0.37951236799E+02 -0.15978984181E+02 -0.54146860211E+02  0.68187951874E+02  0.47000000000E+01 0. -1.
         -5    1    4    4    0  503 -0.21576765105E+02 -0.35621870228E+02 -0.43772357001E+02  0.60601845420E+02  0.47000000000E+01 0.  1.
          5    1    4    4  503    0  0.47042958300E+02  0.82819482666E+01 -0.65324964744E+01  0.48439592307E+02  0.47000000000E+01 0. -1.
         -5    1    3    3    0  502  0.12485043604E+02  0.43318906142E+02  0.43324443266E+02  0.62701685204E+02  0.47000000000E+01 0. -1.
<mgrwt>
<rscale>  0 0.12105091E+03</rscale>
<asrwt>0</asrwt>
<pdfrwt beam="1">  1        2 0.13754139E-01 0.13044145E+03</pdfrwt>
<pdfrwt beam="2">  1       -2 0.23158334E-01 0.13044145E+03</pdfrwt>
<totfact> 0.66483409E+03</totfact>
</mgrwt>
</event>
<event>
 8    1  0.3572165E-004  0.1729576E+03  0.7546771E-02  0.1180893E+00
          1   -1    0    0  501    0  0.00000000000E+00  0.00000000000E+00  0.37478167536E+03  0.37478167536E+03  0.00000000000E+00 0. -1.
         -1   -1    0    0    0  501 -0.00000000000E+00 -0.00000000000E+00 -0.70604803398E+02  0.70604803398E+02  0.00000000000E+00 0.  1.
         25    2    1    2    0    0  0.10983488990E+03  0.47178300636E+02  0.14010297956E+03  0.22258294153E+03  0.12499930354E+03 0.  0.
         23    2    1    2    0    0 -0.10983488990E+03 -0.47178300636E+02  0.16407389240E+03  0.22280353723E+03  0.91824174072E+02 0.  0.
          5    1    3    3  502    0 -0.91577335307E+01 -0.29527969493E+02  0.23624008404E+02  0.39191183177E+02  0.47000000000E+01 0. -1.
         -5    1    3    3    0  502  0.11899262343E+03  0.76706270129E+02  0.11647897116E+03  0.18339175835E+03  0.47000000000E+01 0. -1.
          5    1    4    4  503    0 -0.11959332360E+03 -0.23714816032E+02  0.11668767585E+03  0.16882849062E+03  0.47000000000E+01 0. -1.
         -5    1    4    4    0  503  0.97584336955E+01 -0.23463484604E+02  0.47386216550E+02  0.53975046613E+02  0.47000000000E+01 0.  1.
<mgrwt>
<rscale>  0 0.16711234E+03</rscale>
<asrwt>0</asrwt>
<pdfrwt beam="1">  1        1 0.57658718E-01 0.17295757E+03</pdfrwt>
<pdfrwt beam="2">  1       -1 0.10862278E-01 0.17295757E+03</pdfrwt>
<totfact> 0.34552089E+03</totfact>
</mgrwt>
</event>
<event>
 8    1  0.3572165E-004  0.1382753E+03  0.7546771E-02  0.1227109E+00
         -1   -1    0    0    0  501 -0.00000000000E+00  0.00000000000E+00  0.75368449396E+02  0.75368449396E+02  0.00000000000E+00 0.  1.
          1   -1    0    0  501    0  0.00000000000E+00 -0.00000000000E+00 -0.20572935370E+03  0.20572935370E+03  0.00000000000E+00 0. -1.
         25    2    1    2    0    0  0.37797162759E+02 -0.45422586830E+02 -0.55363035899E+02  0.14894667567E+03  0.12501283751E+03 0.  0.
         23    2    1    2    0    0 -0.37797162759E+02  0.45422586830E+02 -0.74997868403E+02  0.13215112742E+03  0.91364124837E+02 0.  0.
          5    1    3    3  502    0  0.13420286340E+02 -0.25124967953E+02 -0.94233084262E+02  0.98556239120E+02  0.47000000000E+01 0. -1.
         -5    1    4    4    0  503 -0.13964200634E+02  0.69279680655E+02 -0.33152327107E+02  0.78203835223E+02  0.47000000000E+01 0.  1.
          5    1    4    4  503    0 -0.23832962125E+02 -0.23857093824E+02 -0.41845541297E+02  0.53947292201E+02  0.47000000000E+01 0. -1.
         -5    1    3    3    0  502  0.24376876419E+02 -0.20297618878E+02  0.38870048363E+02  0.50390436551E+02  0.47000000000E+01 0. -1.
<mgrwt>
<rscale>  0 0.13023384E+03</rscale>
<asrwt>0</asrwt>
<pdfrwt beam="1">  1        1 0.31650670E-01 0.13827526E+03</pdfrwt>
<pdfrwt beam="2">  1       -1 0.11595146E-01 0.13827526E+03</pdfrwt>
<totfact> 0.65149453E+03</totfact>
</mgrwt>
</event>
<event>
 8    1  0.3572165E-004  0.1442021E+03  0.7546771E-02  0.1218253E+00
         -1   -1    0    0    0  501 -0.00000000000E+00  0.00000000000E+00  0.10394639520E+04  0.10394639520E+04  0.00000000000E+00 0.  1.
          1   -1    0    0  501    0  0.00000000000E+00 -0.00000000000E+00 -0.16300788431E+02  0.16300788431E+02  0.00000000000E+00 0. -1.
         25    2    1    2    0    0 -0.67457011949E+02 -0.24875386957E+02  0.52971936497E+03  0.54899623240E+03  0.12500009691E+03 0.  0.
         23    2    1    2    0    0  0.67457011949E+02  0.24875386957E+02  0.49344379858E+03  0.50676850801E+03  0.90323335964E+02 0.  0.
          5    1    3    3  502    0 -0.48214699670E+02 -0.73311354235E+02  0.26609242427E+03  0.28022576644E+03  0.47000000000E+01 0.  1.
         -5    1    4    4    0  503  0.60427916187E+02 -0.24181881408E+02  0.30077022822E+03  0.30776795906E+03  0.47000000000E+01 0.  1.
          5    1    4    4  503    0  0.70290957615E+01  0.49057268365E+02  0.19267357036E+03  0.19900054895E+03  0.47000000000E+01 0. -1.
         -5    1    3    3    0  502 -0.19242312279E+02  0.48435967278E+02  0.26362694070E+03  0.26877046596E+03  0.47000000000E+01 0.  1.
<mgrwt>
<rscale>  0 0.13640256E+03</rscale>
<asrwt>0</asrwt>
<pdfrwt beam="1">  1        1 0.25078144E-02 0.14420214E+03</pdfrwt>
<pdfrwt beam="2">  1       -1 0.15991748E+00 0.14420214E+03</pdfrwt>
<totfact> 0.13686131E+03</totfact>
</mgrwt>
</event>
<event>
 8    1  0.3572165E-004  0.1529520E+03  0.7546771E-02  0.1206009E+00
         -2   -1    0    0    0  501 -0.00000000000E+00  0.00000000000E+00  0.88986587995E+02  0.88986587995E+02  0.00000000000E+00 0.  1.
          2   -1    0    0  501    0  0.00000000000E+00 -0.00000000000E+00 -0.22969946994E+03  0.22969946994E+03  0.00000000000E+00 0. -1.
         25    2    1    2    0    0  0.63374148674E+02  0.61262253321E+02 -0.40955780093E+02  0.15834046018E+03  0.12499991602E+03 0.  0.
         23    2    1    2    0    0 -0.63374148674E+02 -0.61262253321E+02 -0.99757101852E+02  0.16034559776E+03  0.89386156356E+02 0.  0.
          5    1    3    3  502    0  0.83715348194E+02  0.22124249722E+02  0.13868079895E+02  0.87818879456E+02  0.47000000000E+01 0. -1.
         -5    1    3    3    0  502 -0.20341199520E+02  0.39138003599E+02 -0.54823859988E+02  0.70521580723E+02  0.47000000000E+01 0. -1.
          5    1    4    4  503    0 -0.42109590064E+02 -0.76706920322E+02 -0.10087628223E+03  0.13362366376E+03  0.47000000000E+01 0. -1.
         -5    1    4    4    0  503 -0.21264558610E+02  0.15444667001E+02  0.11191803790E+01  0.26721933994E+02  0.47000000000E+01 0.  1.
<mgrwt>
<rscale>  0 0.14558222E+03</rscale>
<asrwt>0</asrwt>
<pdfrwt beam="1">  1        2 0.35338380E-01 0.15295204E+03</pdfrwt>
<pdfrwt beam="2">  1       -2 0.13690244E-01 0.15295204E+03</pdfrwt>
<totfact> 0.56076104E+03</totfact>
</mgrwt>
</event>
<event>
 8    1  0.3572165E-004  0.1459588E+03  0.7546771E-02  0.1215061E+00
          1   -1    0    0  501    0  0.00000000000E+00  0.00000000000E+00  0.33211556655E+03  0.33211556655E+03  0.00000000000E+00 0. -1.
         -1   -1    0    0    0  501 -0.00000000000E+00 -0.00000000000E+00 -0.75449641871E+02  0.75449641871E+02  0.00000000000E+00 0.  1.
         25    2    1    2    0    0  0.56190305402E+02  0.50183438843E+02  0.26400860969E+02  0.14832728648E+03  0.12501300132E+03 0.  0.
         23    2    1    2    0    0 -0.56190305402E+02 -0.50183438843E+02  0.23026506371E+03  0.25923792194E+03  0.92231082896E+02 0.  0.
          5    1    4    4  502    0 -0.11526986359E+02 -0.61840261811E+02  0.18046907184E+03  0.19117600605E+03  0.47000000000E+01 0. -1.
         -5    1    3    3    0  503 -0.48448297367E+01 -0.37843672564E+02  0.28164470752E+01  0.38543978810E+02  0.47000000000E+01 0. -1.
          5    1    3    3  503    0  0.61035135138E+02  0.88027111408E+02  0.23584413893E+02  0.10978330767E+03  0.47000000000E+01 0. -1.
         -5    1    4    4    0  502 -0.44663319042E+02  0.11656822968E+02  0.49795991866E+02  0.68061915897E+02  0.47000000000E+01 0.  1.
<mgrwt>
<rscale>  0 0.13872065E+03</rscale>
<asrwt>0</asrwt>
<pdfrwt beam="1">  1        1 0.51094702E-01 0.14595882E+03</pdfrwt>
<pdfrwt beam="2">  1       -1 0.11607637E-01 0.14595882E+03</pdfrwt>
<totfact> 0.36027712E+03</totfact>
</mgrwt>
</event>
<event>
 8    1  0.3572165E-004  0.1868702E+03  0.7546771E-02  0.1166679E+00
          1   -1    0    0  501    0  0.00000000000E+00  0.00000000000E+00  0.17856887804E+03  0.17856887804E+03  0.00000000000E+00 0. -1.
         -1   -1    0    0    0  501 -0.00000000000E+00 -0.00000000000E+00 -0.18284831630E+03  0.18284831630E+03  0.00000000000E+00 0.  1.
         25    2    1    2    0    0 -0.11649236727E+03 -0.75669105613E+02 -0.43233762159E+02  0.19180623935E+03  0.12499676031E+03 0.  0.
         23    2    1    2    0    0  0.11649236727E+03  0.75669105613E+02  0.38954323902E+02  0.16961095498E+03  0.89186050050E+02 0.  0.
          5    1    3    3  502    0 -0.11727698164E+03 -0.29212548701E+02 -0.68196549720E+02  0.13885288192E+03  0.47000000000E+01 0.  1.
         -5    1    3    3    0  502  0.78461437396E+00 -0.46456556912E+02  0.24962787561E+02  0.52953357426E+02  0.47000000000E+01 0.  1.
          5    1    4    4  503    0  0.86337636718E+02  0.50119737369E+01  0.31991915454E+02  0.92330276991E+02  0.47000000000E+01 0. -1.
         -5    1    4    4    0  503  0.30154730551E+02  0.70657131876E+02  0.69624084479E+01  0.77280677992E+02  0.47000000000E+01 0.  1.
<mgrwt>
<rscale>  0 0.18116602E+03</rscale>
<asrwt>0</asrwt>
<pdfrwt beam="1">  1        1 0.27472135E-01 0.18687021E+03</pdfrwt>
<pdfrwt beam="2">  1       -1 0.28130510E-01 0.18687021E+03</pdfrwt>
<totfact> 0.19087029E+03</totfact>
</mgrwt>
</event>
<event>
 8    1  0.3572165E-004  0.3167922E+03  0.7546771E-02  0.1078624E+00
          2   -1    0    0  501    0  0.00000000000E+00  0.00000000000E+00  0.64122903633E+03  0.64122903633E+03  0.00000000000E+00 0. -1.
         -2   -1    0    0    0  501 -0.00000000000E+00 -0.00000000000E+00 -0.16333314141E+03  0.16333314141E+03  0.00000000000E+00 0.  1.
         25    2    1    2    0    0 -0.29110017571E+03 -0.52152177998E+00  0.13015707693E+03  0.34248818154E+03  0.12497081873E+03 0.  0.
         23    2    1    2    0    0  0.29110017571E+03  0.52152177998E+00  0.34773881799E+03  0.46207399621E+03  0.88603093337E+02 0.  0.
          5    1    4    4  502    0  0.24420352465E+03  0.69372073071E+01  0.33147852036E+03  0.41180527650E+03  0.47000000000E+01 0. -1.
         -5    1    3    3    0  503 -0.57500826431E+02  0.11615066903E+02 -0.22636041208E+02  0.63053431159E+02  0.47000000000E+01 0. -1.
          5    1    3    3  503    0 -0.23359934928E+03 -0.12136588683E+02  0.15279311814E+03  0.27943475038E+03  0.47000000000E+01 0. -1.
         -5    1    4    4    0  502  0.46896651061E+02 -0.64156855271E+01  0.16260297632E+02  0.50268719703E+02  0.47000000000E+01 0.  1.
<mgrwt>
<rscale>  0 0.31361831E+03</rscale>
<asrwt>0</asrwt>
<pdfrwt beam="1">  1        2 0.98650620E-01 0.31679219E+03</pdfrwt>
<pdfrwt beam="2">  1       -2 0.25128176E-01 0.31679219E+03</pdfrwt>
<totfact> 0.65874413E+02</totfact>
</mgrwt>
</event>
<event>
 8    1  0.3572165E-004  0.1530454E+03  0.7546771E-02  0.1203364E+00
          2   -1    0    0  501    0  0.00000000000E+00  0.00000000000E+00  0.41649334660E+03  0.41649334660E+03  0.00000000000E+00 0. -1.
         -2   -1    0    0    0  501 -0.00000000000E+00 -0.00000000000E+00 -0.50137734065E+02  0.50137734065E+02  0.00000000000E+00 0.  1.
         25    2    1    2    0    0  0.17099170855E+02 -0.86646490168E+02  0.16081657239E+03  0.22200193693E+03  0.12499157630E+03 0.  0.
         23    2    1    2    0    0 -0.17099170855E+02  0.86646490168E+02  0.20553904015E+03  0.24462914374E+03  0.98980427538E+02 0.  0.
          5    1    3    3  502    0 -0.47634885290E+02 -0.21246077526E+02  0.95974883306E+02  0.10933318953E+03  0.47000000000E+01 0.  1.
         -5    1    3    3    0  502  0.64734056146E+02 -0.65400412642E+02  0.64841689079E+02  0.11266874740E+03  0.47000000000E+01 0.  1.
          5    1    4    4  503    0  0.13698421707E+02  0.56123504549E+02  0.18948805834E+03  0.19815475965E+03  0.47000000000E+01 0. -1.
         -5    1    4    4    0  503 -0.30797592562E+02  0.30522985620E+02  0.16050981815E+02  0.46474384084E+02  0.47000000000E+01 0.  1.
<mgrwt>
<rscale>  0 0.14767106E+03</rscale>
<asrwt>0</asrwt>
<pdfrwt beam="1">  1        2 0.64075897E-01 0.15304539E+03</pdfrwt>
<pdfrwt beam="2">  1       -2 0.77134978E-02 0.15304539E+03</pdfrwt>
<totfact> 0.73572123E+03</totfact>
</mgrwt>
</event>
<event>
 8    1  0.3572165E-004  0.1999199E+03  0.7546771E-02  0.1154346E+00
         -1   -1    0    0    0  501 -0.00000000000E+00  0.00000000000E+00  0.17260800320E+03  0.17260800320E+03  0.00000000000E+00 0.  1.
          1   -1    0    0  501    0  0.00000000000E+00 -0.00000000000E+00 -0.22119602896E+03  0.22119602896E+03  0.00000000000E+00 0. -1.
         25    2    1    2    0    0 -0.13158940273E+03 -0.83813395480E+02  0.21367823817E+02  0.20105854651E+03  0.12500999583E+03 0.  0.
         23    2    1    2    0    0  0.13158940273E+03  0.83813395480E+02 -0.69955849578E+02  0.19274548564E+03  0.88974969366E+02 0.  0.
          5    1    3    3  502    0  0.11443393887E+02 -0.51018241142E+02 -0.12240663708E+01  0.52510956299E+02  0.47000000000E+01 0.  1.
         -5    1    4    4    0  503  0.97709207365E+02  0.10572048299E+02 -0.32188691758E+02  0.10352323066E+03  0.47000000000E+01 0.  1.
          5    1    4    4  503    0  0.33880195364E+02  0.73241347181E+02 -0.37767157820E+02  0.89222254985E+02  0.47000000000E+01 0. -1.
         -5    1    3    3    0  502 -0.14303279662E+03 -0.32795154338E+02  0.22591890188E+02  0.14854759021E+03  0.47000000000E+01 0.  1.
<mgrwt>
<rscale>  0 0.19463457E+03</rscale>
<asrwt>0</asrwt>
<pdfrwt beam="1">  1        1 0.34030158E-01 0.19991987E+03</pdfrwt>
<pdfrwt beam="2">  1       -1 0.26555078E-01 0.19991987E+03</pdfrwt>
<totfact> 0.16094339E+03</totfact>
</mgrwt>
</event>
<event>
 8    1  0.3572165E-004  0.1484092E+03  0.7546771E-02  0.1212030E+00
          1   -1    0    0  501    0  0.00000000000E+00  0.00000000000E+00  0.49490369982E+02  0.49490369982E+02  0.00000000000E+00 0. -1.
         -1   -1    0    0    0  501 -0.00000000000E+00 -0.00000000000E+00 -0.36627469358E+03  0.36627469358E+03  0.00000000000E+00 0.  1.
         25    2    1    2    0    0  0.58842302727E+02  0.54200595557E+02 -0.17861032053E+03  0.23222171076E+03  0.12500062080E+03 0.  0.
         23    2    1    2    0    0 -0.58842302727E+02 -0.54200595557E+02 -0.13817400307E+03  0.18354335280E+03  0.90531685521E+02 0.  0.
          5    1    4    4  502    0 -0.62311568294E+01 -0.23011454139E+02  0.75417611087E+01  0.25442533240E+02  0.47000000000E+01 0. -1.
         -5    1    3    3    0  503  0.80518643945E+02  0.57526744418E+02 -0.69960647247E+02  0.12128132795E+03  0.47000000000E+01 0. -1.
          5    1    3    3  503    0 -0.21676341217E+02 -0.33261488609E+01 -0.10864967328E+03  0.11094038281E+03  0.47000000000E+01 0. -1.
         -5    1    4    4    0  502 -0.52611145898E+02 -0.31189141418E+02 -0.14571576418E+03  0.15810081956E+03  0.47000000000E+01 0.  1.
<mgrwt>
<rscale>  0 0.14096949E+03</rscale>
<asrwt>0</asrwt>
<pdfrwt beam="1">  1        1 0.76139027E-02 0.14840915E+03</pdfrwt>
<pdfrwt beam="2">  1       -1 0.56349956E-01 0.14840915E+03</pdfrwt>
<totfact> 0.29563237E+03</totfact>
</mgrwt>
</event>
<event>
 8    1  0.3572165E-004  0.1295254E+03  0.7546771E-02  0.1241006E+00
         -1   -1    0    0    0  501 -0.00000000000E+00  0.00000000000E+00  0.17437793980E+02  0.17437793980E+02  0.00000000000E+00 0.  1.
          1   -1    0    0  501    0  0.00000000000E+00 -0.00000000000E+00 -0.79706137570E+03  0.79706137570E+03  0.00000000000E+00 0. -1.
         25    2    1    2    0    0  0.19434486688E+02 -0.27828399532E+02 -0.53366275813E+03  0.54915642176E+03  0.12499886820E+03 0.  0.
         23    2    1    2    0    0 -0.19434486688E+02  0.27828399532E+02 -0.24596082359E+03  0.26534274792E+03  0.93583802228E+02 0.  0.
          5    1    3    3  502    0  0.14098564020E+02  0.44773140504E+02 -0.31823599524E+03  0.32171360289E+03  0.47000000000E+01 0.  1.
         -5    1    3    3    0  502  0.53359226681E+01 -0.72601540037E+02 -0.21542676290E+03  0.22744281888E+03  0.47000000000E+01 0.  1.
          5    1    4    4  503    0 -0.24115786161E+02  0.77818006183E+01 -0.24259545575E+03  0.24396059664E+03  0.47000000000E+01 0. -1.
         -5    1    4    4    0  503  0.46812994731E+01  0.20046598914E+02 -0.33653678440E+01  0.21382151283E+02  0.47000000000E+01 0.  1.
<mgrwt>
<rscale>  0 0.12127624E+03</rscale>
<asrwt>0</asrwt>
<pdfrwt beam="1">  1        1 0.12262479E+00 0.12952543E+03</pdfrwt>
<pdfrwt beam="2">  1       -1 0.26827383E-02 0.12952543E+03</pdfrwt>
<totfact> 0.98759207E+03</totfact>
</mgrwt>
</event>
<event>
 8    1  0.3572165E-004  0.1366318E+03  0.7546771E-02  0.1230728E+00
          1   -1    0    0  501    0  0.00000000000E+00  0.00000000000E+00  0.32626455117E+03  0.32626455117E+03  0.00000000000E+00 0. -1.
         -1   -1    0    0    0  501 -0.00000000000E+00 -0.00000000000E+00 -0.44927797357E+02  0.44927797357E+02  0.00000000000E+00 0.  1.
         25    2    1    2    0    0  0.54873213671E+02  0.56870401787E+01  0.14365654903E+03  0.19825603870E+03  0.12499936319E+03 0.  0.
         23    2    1    2    0    0 -0.54873213671E+02 -0.56870401787E+01  0.13768020479E+03  0.17293630983E+03  0.88925342064E+02 0.  0.
          5    1    4    4  502    0 -0.52892301119E+01 -0.25844940235E+02  0.10856727689E+03  0.11182522302E+03  0.47000000000E+01 0. -1.
         -5    1    4    4    0  502 -0.49583983559E+02  0.20157900056E+02  0.29112927894E+02  0.61111086807E+02  0.47000000000E+01 0.  1.
          5    1    3    3  503    0 -0.18309309583E+02  0.44333742100E+02  0.81359036615E+02  0.94562647726E+02  0.47000000000E+01 0.  1.
         -5    1    3    3    0  503  0.73182523254E+02 -0.38646701922E+02  0.62297512411E+02  0.10369339097E+03  0.47000000000E+01 0.  1.
<mgrwt>
<rscale>  0 0.12781924E+03</rscale>
<asrwt>0</asrwt>
<pdfrwt beam="1">  1        1 0.50194545E-01 0.13663181E+03</pdfrwt>
<pdfrwt beam="2">  1       -1 0.69119691E-02 0.13663181E+03</pdfrwt>
<totfact> 0.80660473E+03</totfact>
</mgrwt>
</event>
<event>
 8    1  0.3572165E-004  0.1787657E+03  0.7546771E-02  0.1174889E+00
         -2   -1    0    0    0  501 -0.00000000000E+00  0.00000000000E+00  0.26490692975E+02  0.26490692975E+02  0.00000000000E+00 0. -1.
          2   -1    0    0  501    0  0.00000000000E+00 -0.00000000000E+00 -0.10611481603E+04  0.10611481603E+04  0.00000000000E+00 0.  1.
         25    2    1    2    0    0 -0.76591814964E+02  0.10230341328E+03 -0.53145773492E+03  0.56071784808E+03  0.12499954663E+03 0.  0.
         23    2    1    2    0    0  0.76591814964E+02 -0.10230341328E+03 -0.50319973238E+03  0.52692100518E+03  0.90019334238E+02 0.  0.
          5    1    4    4  502    0  0.53060319710E+02 -0.41063474427E+02 -0.11529075565E+03  0.13347529658E+03  0.47000000000E+01 0. -1.
         -5    1    3    3    0  503 -0.98052294656E+01  0.65049391671E+02 -0.84249098974E+02  0.10699330147E+03  0.47000000000E+01 0.  1.
          5    1    3    3  503    0 -0.66786585499E+02  0.37254021613E+02 -0.44720863595E+03  0.45372454661E+03  0.47000000000E+01 0.  1.
         -5    1    4    4    0  502  0.23531495254E+02 -0.61239938857E+02 -0.38790897673E+03  0.39344570859E+03  0.47000000000E+01 0.  1.
<mgrwt>
<rscale>  0 0.17286873E+03</rscale>
<asrwt>0</asrwt>
<pdfrwt beam="1">  1        2 0.16325356E+00 0.17876572E+03</pdfrwt>
<pdfrwt beam="2">  1       -2 0.40754912E-02 0.17876572E+03</pdfrwt>
<totfact> 0.63366747E+03</totfact>
</mgrwt>
</event>
<event>
 8    1  0.3572165E-004  0.1466861E+03  0.7546771E-02  0.1214347E+00
          2   -1    0    0  501    0  0.00000000000E+00  0.00000000000E+00  0.39392854051E+02  0.39392854051E+02  0.00000000000E+00 0. -1.
         -2   -1    0    0    0  501 -0.00000000000E+00 -0.00000000000E+00 -0.56826567728E+03  0.56826567728E+03  0.00000000000E+00 0.  1.
         25    2    1    2    0    0 -0.76715412980E+02 -0.25239485769E+01 -0.42504122636E+03  0.44964079495E+03  0.12500070188E+03 0.  0.
         23    2    1    2    0    0  0.76715412980E+02  0.25239485769E+01 -0.10383159687E+03  0.15801773638E+03  0.91087757671E+02 0.  0.
          5    1    3    3  502    0 -0.10201365494E+03 -0.31820332214E+02 -0.33035645990E+03  0.34724170247E+03  0.47000000000E+01 0. -1.
         -5    1    4    4    0  503  0.71516106607E+02  0.37839376322E+02 -0.57643985872E+02  0.99454969769E+02  0.47000000000E+01 0.  1.
          5    1    4    4  503    0  0.51993063727E+01 -0.35315427745E+02 -0.46187610995E+02  0.58562766610E+02  0.47000000000E+01 0. -1.
         -5    1    3    3    0  502  0.25298241965E+02  0.29296383637E+02 -0.94684766462E+02  0.10239909248E+03  0.47000000000E+01 0. -1.
<mgrwt>
<rscale>  0 0.13924644E+03</rscale>
<asrwt>0</asrwt>
<pdfrwt beam="1">  1        2 0.60604394E-02 0.14668606E+03</pdfrwt>
<pdfrwt beam="2">  1       -2 0.87425484E-01 0.14668606E+03</pdfrwt>
<totfact> 0.13829261E+03</totfact>
</mgrwt>
</event>
<event>
 8    1  0.3572165E-004  0.1477021E+03  0.7546771E-02  0.1212680E+00
         -1   -1    0    0    0  501 -0.00000000000E+00  0.00000000000E+00  0.43950280529E+03  0.43950280529E+03  0.00000000000E+00 0.  1.
          1   -1    0    0  501    0  0.00000000000E+00 -0.00000000000E+00 -0.47814509496E+02  0.47814509496E+02  0.00000000000E+00 0. -1.
         25    2    1    2    0    0 -0.12416833967E+02 -0.77702168179E+02  0.30400907025E+03  0.33799026785E+03  0.12499640659E+03 0.  0.
         23    2    1    2    0    0  0.12416833967E+02  0.77702168179E+02  0.87679225543E+02  0.14932704694E+03  0.91755739053E+02 0.  0.
          5    1    3    3  502    0 -0.58143780389E+02 -0.40860406738E+01  0.15334931888E+03  0.16412037816E+03  0.47000000000E+01 0.  1.
         -5    1    4    4    0  503  0.40734344721E+02  0.78201983640E+02  0.81058829460E+02  0.11986434382E+03  0.47000000000E+01 0.  1.
          5    1    4    4  503    0 -0.28317510754E+02 -0.49981546088E+00  0.66203960832E+01  0.29462703119E+02  0.47000000000E+01 0. -1.
         -5    1    3    3    0  502  0.45726946422E+02 -0.73616127505E+02  0.15065975137E+03  0.17386988969E+03  0.47000000000E+01 0.  1.
<mgrwt>
<rscale>  0 0.14048329E+03</rscale>
<asrwt>0</asrwt>
<pdfrwt beam="1">  1        1 0.73560787E-02 0.14770209E+03</pdfrwt>
<pdfrwt beam="2">  1       -1 0.67615813E-01 0.14770209E+03</pdfrwt>
<totfact> 0.21831942E+03</totfact>
</mgrwt>
</event>
<event>
 8    1  0.3572165E-004  0.1394718E+03  0.7546771E-02  0.1226714E+00
          2   -1    0    0  501    0  0.00000000000E+00  0.00000000000E+00  0.40861362084E+03  0.40861362084E+03  0.00000000000E+00 0. -1.
         -2   -1    0    0    0  501 -0.00000000000E+00 -0.00000000000E+00 -0.37798551644E+02  0.37798551644E+02  0.00000000000E+00 0.  1.
         25    2    1    2    0    0  0.48053631574E+02  0.38968343190E+02  0.18025420808E+03  0.22791217872E+03  0.12499879359E+03 0.  0.
         23    2    1    2    0    0 -0.48053631574E+02 -0.38968343190E+02  0.19056086112E+03  0.21849999377E+03  0.87184414937E+02 0.  0.
          5    1    4    4  502    0  0.16757855608E+02 -0.36544678651E+02  0.56528226874E+02  0.69526036100E+02  0.47000000000E+01 0.  1.
         -5    1    4    4    0  502 -0.64811487183E+02 -0.24236645392E+01  0.13403263425E+03  0.14897395767E+03  0.47000000000E+01 0. -1.
          5    1    3    3  503    0  0.83589600807E+02 -0.93410222143E+00  0.90011104235E+02  0.12293161837E+03  0.47000000000E+01 0. -1.
         -5    1    3    3    0  503 -0.35535969232E+02  0.39902445412E+02  0.90243103841E+02  0.10498056034E+03  0.47000000000E+01 0. -1.
<mgrwt>
<rscale>  0 0.13050132E+03</rscale>
<asrwt>0</asrwt>
<pdfrwt beam="1">  1        2 0.62863631E-01 0.13947180E+03</pdfrwt>
<pdfrwt beam="2">  1       -2 0.58151621E-02 0.13947180E+03</pdfrwt>
<totfact> 0.11495698E+04</totfact>
</mgrwt>
</event>
<event>
 8    1  0.3572165E-004  0.1712261E+03  0.7546771E-02  0.1182685E+00
         -2   -1    0    0    0  501 -0.00000000000E+00  0.00000000000E+00  0.40149288207E+02  0.40149288207E+02  0.00000000000E+00 0.  1.
          2   -1    0    0  501    0  0.00000000000E+00 -0.00000000000E+00 -0.64354650685E+03  0.64354650685E+03  0.00000000000E+00 0. -1.
         25    2    1    2    0    0  0.76824426880E+02  0.88306252837E+02 -0.34939669317E+03  0.38909692989E+03  0.12497353639E+03 0.  0.
         23    2    1    2    0    0 -0.76824426880E+02 -0.88306252837E+02 -0.25400052547E+03  0.29459886517E+03  0.92586378910E+02 0.  0.
          5    1    4    4  502    0 -0.49916424975E+02 -0.63971183711E+02 -0.24324895847E+03  0.25646853145E+03  0.47000000000E+01 0. -1.
         -5    1    3    3    0  503  0.38399475434E+02 -0.14981904331E+02 -0.30018385441E+02  0.51207134615E+02  0.47000000000E+01 0. -1.
          5    1    3    3  503    0  0.38424951445E+02  0.10328815717E+03 -0.31937830773E+03  0.33788979528E+03  0.47000000000E+01 0. -1.
         -5    1    4    4    0  502 -0.26908001905E+02 -0.24335069127E+02 -0.10751567000E+02  0.38130333710E+02  0.47000000000E+01 0.  1.
<mgrwt>
<rscale>  0 0.16544281E+03</rscale>
<asrwt>0</asrwt>
<pdfrwt beam="1">  1        2 0.99007145E-01 0.17122608E+03</pdfrwt>
<pdfrwt beam="2">  1       -2 0.61768142E-02 0.17122608E+03</pdfrwt>
<totfact> 0.64091048E+03</totfact>
</mgrwt>
</event>
<event>
 8    1  0.3572165E-004  0.1750645E+03  0.7546771E-02  0.1178527E+00
          2   -1    0    0  501    0  0.00000000000E+00  0.00000000000E+00  0.10747586559E+04  0.10747586559E+04  0.00000000000E+00 0. -1.
         -2   -1    0    0    0  501 -0.00000000000E+00 -0.00000000000E+00 -0.25159018751E+02  0.25159018751E+02  0.00000000000E+00 0.  1.
         25    2    1    2    0    0 -0.98179520852E+02 -0.73370014476E+02  0.58994490242E+03  0.61537190241E+03  0.12500085219E+03 0.  0.
         23    2    1    2    0    0  0.98179520852E+02  0.73370014476E+02  0.45965473474E+03  0.48454577225E+03  0.92085573778E+02 0.  0.
          5    1    3    3  502    0 -0.11521814432E+03 -0.22422472662E+02  0.34145194264E+03  0.36109487284E+03  0.47000000000E+01 0.  1.
         -5    1    4    4    0  503  0.53813131664E+02  0.55488030640E+02  0.12932569794E+03  0.15073818638E+03  0.47000000000E+01 0.  1.
          5    1    4    4  503    0  0.44366389188E+02  0.17881983836E+02  0.33032903680E+03  0.33380758587E+03  0.47000000000E+01 0. -1.
         -5    1    3    3    0  502  0.17038623466E+02 -0.50947541813E+02  0.24849295978E+03  0.25427702957E+03  0.47000000000E+01 0.  1.
<mgrwt>
<rscale>  0 0.16935071E+03</rscale>
<asrwt>0</asrwt>
<pdfrwt beam="1">  1        2 0.16534745E+00 0.17506453E+03</pdfrwt>
<pdfrwt beam="2">  1       -2 0.38706191E-02 0.17506453E+03</pdfrwt>
<totfact> 0.67148480E+03</totfact>
</mgrwt>
</event>
<event>
 8    1  0.3572165E-004  0.2878109E+03  0.7546771E-02  0.1093492E+00
          2   -1    0    0  501    0  0.00000000000E+00  0.00000000000E+00  0.12578677340E+04  0.12578677340E+04  0.00000000000E+00 0. -1.
         -2   -1    0    0    0  501 -0.00000000000E+00 -0.00000000000E+00 -0.68679496545E+02  0.68679496545E+02  0.00000000000E+00 0.  1.
         25    2    1    2    0    0  0.63406678224E+02 -0.25137720988E+03  0.80719923663E+03  0.85697475002E+03  0.12499682421E+03 0.  0.
         23    2    1    2    0    0 -0.63406678224E+02  0.25137720988E+03  0.38198900080E+03  0.46957248050E+03  0.85859240741E+02 0.  0.
          5    1    4    4  502    0  0.37719404190E+01  0.92247042935E+02  0.18987197341E+03  0.21118049330E+03  0.47000000000E+01 0. -1.
         -5    1    3    3    0  503  0.25834153688E+02 -0.11337131471E+03  0.55438643246E+03  0.56646876789E+03  0.47000000000E+01 0.  1.
          5    1    3    3  503    0  0.37572524536E+02 -0.13800589517E+03  0.25281280417E+03  0.29050598213E+03  0.47000000000E+01 0.  1.
         -5    1    4    4    0  502 -0.67178618643E+02  0.15913016695E+03  0.19211702738E+03  0.25839198719E+03  0.47000000000E+01 0.  1.
<mgrwt>
<rscale>  0 0.28406008E+03</rscale>
<asrwt>0</asrwt>
<pdfrwt beam="1">  1        2 0.19351810E+00 0.28781090E+03</pdfrwt>
<pdfrwt beam="2">  1       -2 0.10566077E-01 0.28781090E+03</pdfrwt>
<totfact> 0.11260660E+03</totfact>
</mgrwt>
</event>
<event>
 8    1  0.3572165E-004  0.1627174E+03  0.7546771E-02  0.1193592E+00
         -1   -1    0    0    0  501 -0.00000000000E+00  0.00000000000E+00  0.36302676987E+02  0.36302676987E+02  0.00000000000E+00 0.  1.
          1   -1    0    0  501    0  0.00000000000E+00 -0.00000000000E+00 -0.70945366627E+03  0.70945366627E+03  0.00000000000E+00 0. -1.
         25    2    1    2    0    0  0.85686789201E+02 -0.59247219491E+02 -0.49647570036E+03  0.52246060732E+03  0.12499802516E+03 0.  0.
         23    2    1    2    0    0 -0.85686789201E+02  0.59247219491E+02 -0.17667528892E+03  0.22329573593E+03  0.88285724270E+02 0.  0.
          5    1    3    3  502    0 -0.21036851566E+02  0.17735993316E+02 -0.13224914300E+03  0.13516301420E+03  0.47000000000E+01 0. -1.
         -5    1    3    3    0  502  0.10672364077E+03 -0.76983212806E+02 -0.36422655736E+03  0.38729759312E+03  0.47000000000E+01 0. -1.
          5    1    4    4  503    0  0.19122259303E+01  0.25290322810E+02 -0.32459174570E+01  0.25997750210E+02  0.47000000000E+01 0. -1.
         -5    1    4    4    0  503 -0.87599015132E+02  0.33956896681E+02 -0.17342937146E+03  0.19729798572E+03  0.47000000000E+01 0.  1.
<mgrwt>
<rscale>  0 0.15574037E+03</rscale>
<asrwt>0</asrwt>
<pdfrwt beam="1">  1        1 0.10914670E+00 0.16271744E+03</pdfrwt>
<pdfrwt beam="2">  1       -1 0.55850282E-02 0.16271744E+03</pdfrwt>
<totfact> 0.40356562E+03</totfact>
</mgrwt>
</event>
<event>
 8    1  0.3572165E-004  0.1290732E+03  0.7546771E-02  0.1243059E+00
          3   -1    0    0  501    0  0.00000000000E+00  0.00000000000E+00  0.51555414813E+02  0.51555414813E+02  0.00000000000E+00 0. -1.
         -3   -1    0    0    0  501 -0.00000000000E+00 -0.00000000000E+00 -0.33634541183E+03  0.33634541183E+03  0.00000000000E+00 0.  1.
         25    2    1    2    0    0  0.20647483150E+02  0.24665632745E+02 -0.58145027077E+02  0.14156532395E+03  0.12500073909E+03 0.  0.
         23    2    1    2    0    0 -0.20647483150E+02 -0.24665632745E+02 -0.22664496994E+03  0.24633550269E+03  0.90986402758E+02 0.  0.
          5    1    3    3  502    0 -0.10836027117E+02 -0.31357696928E+02  0.20971026853E+02  0.39529718031E+02  0.47000000000E+01 0.  1.
         -5    1    3    3    0  502  0.31483510266E+02  0.56023329673E+02 -0.79116053930E+02  0.10203560592E+03  0.47000000000E+01 0.  1.
          5    1    4    4  503    0 -0.32201244483E+02 -0.50837289203E+02 -0.10342215418E+03  0.11974799412E+03  0.47000000000E+01 0. -1.
         -5    1    4    4    0  503  0.11553761333E+02  0.26171656458E+02 -0.12322281576E+03  0.12658750857E+03  0.47000000000E+01 0.  1.
<mgrwt>
<rscale>  0 0.12002306E+03</rscale>
<asrwt>0</asrwt>
<pdfrwt beam="1">  1        3 0.79316020E-02 0.12907322E+03</pdfrwt>
<pdfrwt beam="2">  1       -3 0.51745449E-01 0.12907322E+03</pdfrwt>
<totfact> 0.92338173E+02</totfact>
</mgrwt>
</event>
<event>
 8    1  0.3572165E-004  0.1297083E+03  0.7546771E-02  0.1241104E+00
          2   -1    0    0  501    0  0.00000000000E+00  0.00000000000E+00  0.18723002314E+03  0.18723002314E+03  0.00000000000E+00 0. -1.
         -2   -1    0    0    0  501 -0.00000000000E+00 -0.00000000000E+00 -0.72003680185E+02  0.72003680185E+02  0.00000000000E+00 0.  1.
         25    2    1    2    0    0 -0.20602489462E+02  0.27828459259E+02  0.42671223168E+02  0.13654701181E+03  0.12500146972E+03 0.  0.
         23    2    1    2    0    0  0.20602489462E+02 -0.27828459259E+02  0.72555119786E+02  0.12268669151E+03  0.92676281487E+02 0.  0.
          5    1    4    4  502    0 -0.30406048940E+02 -0.34910282742E+02  0.41604346512E+02  0.62420087327E+02  0.47000000000E+01 0. -1.
         -5    1    4    4    0  502  0.51008538401E+02  0.70818234834E+01  0.30950773274E+02  0.60266604185E+02  0.47000000000E+01 0.  1.
          5    1    3    3  503    0  0.12422280321E+02  0.45846087194E+02  0.73529665018E+02  0.87663438200E+02  0.47000000000E+01 0. -1.
         -5    1    3    3    0  503 -0.33024769783E+02 -0.18017627935E+02 -0.30858441850E+02  0.48883573612E+02  0.47000000000E+01 0. -1.
<mgrwt>
<rscale>  0 0.12121642E+03</rscale>
<asrwt>0</asrwt>
<pdfrwt beam="1">  1        2 0.28804619E-01 0.12970834E+03</pdfrwt>
<pdfrwt beam="2">  1       -2 0.11077489E-01 0.12970834E+03</pdfrwt>
<totfact> 0.97059174E+03</totfact>
</mgrwt>
</event>
<event>
 8    1  0.3572165E-004  0.1345886E+03  0.7546771E-02  0.1232810E+00
          1   -1    0    0  501    0  0.00000000000E+00  0.00000000000E+00  0.17250120799E+03  0.17250120799E+03  0.00000000000E+00 0. -1.
         -1   -1    0    0    0  501 -0.00000000000E+00 -0.00000000000E+00 -0.11128173678E+03  0.11128173678E+03  0.00000000000E+00 0.  1.
         25    2    1    2    0    0  0.45248448842E+02 -0.21023490566E+02  0.10441703282E+03  0.17034379675E+03  0.12499873228E+03 0.  0.
         23    2    1    2    0    0 -0.45248448842E+02  0.21023490566E+02 -0.43197561604E+02  0.11343914803E+03  0.92265929239E+02 0.  0.
          5    1    4    4  502    0 -0.56480331669E+02 -0.19655516517E+02 -0.37122837257E+02  0.70544753462E+02  0.47000000000E+01 0. -1.
         -5    1    3    3    0  503  0.14516699285E+02 -0.72690083976E+02  0.56351261914E+02  0.93231634041E+02  0.47000000000E+01 0.  1.
          5    1    3    3  503    0  0.30731749557E+02  0.51666593410E+02  0.48065770902E+02  0.77112162710E+02  0.47000000000E+01 0.  1.
         -5    1    4    4    0  502  0.11231882827E+02  0.40679007084E+02 -0.60747243466E+01  0.42894394565E+02  0.47000000000E+01 0.  1.
<mgrwt>
<rscale>  0 0.12645680E+03</rscale>
<asrwt>0</asrwt>
<pdfrwt beam="1">  1        1 0.26538647E-01 0.13458860E+03</pdfrwt>
<pdfrwt beam="2">  1       -1 0.17120267E-01 0.13458860E+03</pdfrwt>
<totfact> 0.44097510E+03</totfact>
</mgrwt>
</event>
<event>
 8    1  0.3572165E-004  0.1284335E+03  0.7546771E-02  0.1245236E+00
          3   -1    0    0  501    0  0.00000000000E+00  0.00000000000E+00  0.12921576202E+03  0.12921576202E+03  0.00000000000E+00 0. -1.
         -3   -1    0    0    0  501 -0.00000000000E+00 -0.00000000000E+00 -0.95508226072E+02  0.95508226072E+02  0.00000000000E+00 0.  1.
         25    2    1    2    0    0 -0.18285050442E+02  0.23133393700E+02  0.20025818846E+02  0.12998533147E+03  0.12500262398E+03 0.  0.
         23    2    1    2    0    0  0.18285050442E+02 -0.23133393700E+02  0.13681717102E+02  0.94738656624E+02  0.88987227748E+02 0.  0.
          5    1    3    3  502    0  0.29731081980E+02  0.57989569584E+02 -0.47637884110E+01  0.65509625982E+02  0.47000000000E+01 0. -1.
         -5    1    3    3    0  502 -0.48016132422E+02 -0.34856175885E+02  0.24789607257E+02  0.64475705487E+02  0.47000000000E+01 0. -1.
          5    1    4    4  503    0 -0.12193183922E+02 -0.29929931259E+02  0.41393090919E+02  0.52725254814E+02  0.47000000000E+01 0. -1.
         -5    1    4    4    0  503  0.30478234365E+02  0.67965375591E+01 -0.27711373818E+02  0.42013401810E+02  0.47000000000E+01 0.  1.
<mgrwt>
<rscale>  0 0.11871245E+03</rscale>
<asrwt>0</asrwt>
<pdfrwt beam="1">  1        3 0.19879348E-01 0.12843346E+03</pdfrwt>
<pdfrwt beam="2">  1       -3 0.14693573E-01 0.12843346E+03</pdfrwt>
<totfact> 0.19808688E+03</totfact>
</mgrwt>
</event>
<event>
 8    1  0.3572165E-004  0.1666016E+03  0.7546771E-02  0.1188648E+00
         -2   -1    0    0    0  501 -0.00000000000E+00  0.00000000000E+00  0.24201465894E+03  0.24201465894E+03  0.00000000000E+00 0.  1.
          2   -1    0    0  501    0  0.00000000000E+00 -0.00000000000E+00 -0.13812787902E+03  0.13812787902E+03  0.00000000000E+00 0. -1.
         25    2    1    2    0    0 -0.10913639000E+03 -0.14845508788E+02 -0.46924603830E+02  0.17308385523E+03  0.12499984698E+03 0.  0.
         23    2    1    2    0    0  0.10913639000E+03  0.14845508788E+02  0.15081138375E+03  0.20705868273E+03  0.89432006971E+02 0.  0.
          5    1    4    4  502    0  0.10507158225E+03  0.36627108715E+02  0.93439879059E+02  0.14537772693E+03  0.47000000000E+01 0. -1.
         -5    1    4    4    0  502  0.40648077501E+01 -0.21781599926E+02  0.57371504693E+02  0.61680955798E+02  0.47000000000E+01 0.  1.
          5    1    3    3  503    0 -0.53215869029E+02 -0.55318359764E+02  0.17138494514E+02  0.78790022450E+02  0.47000000000E+01 0.  1.
         -5    1    3    3    0  503 -0.55920520967E+02  0.40472850976E+02 -0.64063098344E+02  0.94293832782E+02  0.47000000000E+01 0.  1.
<mgrwt>
<rscale>  0 0.16004342E+03</rscale>
<asrwt>0</asrwt>
<pdfrwt beam="1">  1        2 0.21250443E-01 0.16660163E+03</pdfrwt>
<pdfrwt beam="2">  1       -2 0.37233024E-01 0.16660163E+03</pdfrwt>
<totfact> 0.17372802E+03</totfact>
</mgrwt>
</event>
<event>
 8    1  0.3572165E-004  0.2759623E+03  0.7546771E-02  0.1099440E+00
          1   -1    0    0  501    0  0.00000000000E+00  0.00000000000E+00  0.15222787952E+04  0.15222787952E+04  0.00000000000E+00 0. -1.
         -1   -1    0    0    0  501 -0.00000000000E+00 -0.00000000000E+00 -0.48112120612E+02  0.48112120612E+02  0.00000000000E+00 0.  1.
         25    2    1    2    0    0 -0.21279887906E+03 -0.12347859787E+03  0.73921064514E+03  0.78904217167E+03  0.12499937492E+03 0.  0.
         23    2    1    2    0    0  0.21279887906E+03  0.12347859787E+03  0.73495602949E+03  0.78134874418E+03  0.99071528113E+02 0.  0.
          5    1    4    4  502    0  0.18519385882E+03  0.69201421373E+02  0.62536820314E+03  0.65589105922E+03  0.47000000000E+01 0. -1.
         -5    1    4    4    0  502  0.27605020249E+02  0.54277176499E+02  0.10958782635E+03  0.12545768496E+03  0.47000000000E+01 0.  1.
          5    1    3    3  503    0 -0.17603440841E+03 -0.13327263048E+03  0.70080174274E+03  0.73477539398E+03  0.47000000000E+01 0. -1.
         -5    1    3    3    0  503 -0.36764470657E+02  0.97940326057E+01  0.38408902400E+02  0.54266777691E+02  0.47000000000E+01 0. -1.
<mgrwt>
<rscale>  0 0.27323845E+03</rscale>
<asrwt>0</asrwt>
<pdfrwt beam="1">  1        1 0.23419670E+00 0.27596226E+03</pdfrwt>
<pdfrwt beam="2">  1       -1 0.74018659E-02 0.27596226E+03</pdfrwt>
<totfact> 0.67144367E+02</totfact>
</mgrwt>
</event>
<event>
 8    1  0.3572165E-004  0.1279038E+03  0.7546771E-02  0.1245585E+00
          2   -1    0    0  501    0  0.00000000000E+00  0.00000000000E+00  0.10667696013E+02  0.10667696013E+02  0.00000000000E+00 0.  1.
         -2   -1    0    0    0  501 -0.00000000000E+00 -0.00000000000E+00 -0.11577629201E+04  0.11577629201E+04  0.00000000000E+00 0. -1.
         25    2    1    2    0    0  0.16910630647E+02  0.21273709748E+02 -0.67863400003E+03  0.69058200138E+03  0.12498341681E+03 0.  0.
         23    2    1    2    0    0 -0.16910630647E+02 -0.21273709748E+02 -0.46846122408E+03  0.47784861476E+03  0.90248767316E+02 0.  0.
          5    1    4    4  502    0  0.90226867536E+00 -0.54131012947E+02 -0.32564333199E+03  0.33014640741E+03  0.47000000000E+01 0. -1.
         -5    1    3    3    0  503  0.64679317171E+02 -0.27371309329E+01 -0.23802188897E+03  0.24671322540E+03  0.47000000000E+01 0.  1.
          5    1    3    3  503    0 -0.47768686524E+02  0.24010840680E+02 -0.44061211105E+03  0.44386877598E+03  0.47000000000E+01 0.  1.
         -5    1    4    4    0  502 -0.17812899323E+02  0.32857303200E+02 -0.14281789209E+03  0.14770220735E+03  0.47000000000E+01 0.  1.
<mgrwt>
<rscale>  0 0.11850454E+03</rscale>
<asrwt>0</asrwt>
<pdfrwt beam="1">  1        2 0.16411837E-02 0.12790385E+03</pdfrwt>
<pdfrwt beam="2">  1       -2 0.17811741E+00 0.12790385E+03</pdfrwt>
<totfact> 0.13844431E+03</totfact>
</mgrwt>
</event>
<event>
 8    1  0.3572165E-004  0.1436620E+03  0.7546771E-02  0.1218837E+00
          2   -1    0    0  501    0  0.00000000000E+00  0.00000000000E+00  0.42036655652E+02  0.42036655652E+02  0.00000000000E+00 0. -1.
         -2   -1    0    0    0  501 -0.00000000000E+00 -0.00000000000E+00 -0.40187719512E+03  0.40187719512E+03  0.00000000000E+00 0.  1.
         25    2    1    2    0    0  0.52489979851E+02 -0.47577385031E+02 -0.18048282666E+03  0.23067906826E+03  0.12497990344E+03 0.  0.
         23    2    1    2    0    0 -0.52489979851E+02  0.47577385031E+02 -0.17935771281E+03  0.21323478251E+03  0.91000427346E+02 0.  0.
          5    1    4    4  502    0 -0.60730828425E+02 -0.55639071677E+01 -0.10116110727E+03  0.11821527062E+03  0.47000000000E+01 0. -1.
         -5    1    4    4    0  502  0.82408485738E+01  0.53141292198E+02 -0.78196605538E+02  0.95019511887E+02  0.47000000000E+01 0.  1.
          5    1    3    3  503    0  0.77567882773E+02 -0.57506345232E+02 -0.76871230336E+02  0.12351126359E+03  0.47000000000E+01 0. -1.
         -5    1    3    3    0  503 -0.25077902922E+02  0.99289602016E+01 -0.10361159632E+03  0.10716780467E+03  0.47000000000E+01 0. -1.
<mgrwt>
<rscale>  0 0.13598390E+03</rscale>
<asrwt>0</asrwt>
<pdfrwt beam="1">  1        2 0.64671779E-02 0.14366204E+03</pdfrwt>
<pdfrwt beam="2">  1       -2 0.61827260E-01 0.14366204E+03</pdfrwt>
<totfact> 0.26762715E+03</totfact>
</mgrwt>
</event>
<event>
 8    1  0.3572165E-004  0.1506751E+03  0.7546771E-02  0.1208607E+00
         -2   -1    0    0    0  501 -0.00000000000E+00  0.00000000000E+00  0.44706819779E+03  0.44706819779E+03  0.00000000000E+00 0.  1.
          2   -1    0    0  501    0  0.00000000000E+00 -0.00000000000E+00 -0.43489450516E+02  0.43489450516E+02  0.00000000000E+00 0. -1.
         25    2    1    2    0    0 -0.52649161132E+01  0.83963380296E+02  0.26189913980E+03  0.30214918526E+03  0.12500160861E+03 0.  0.
         23    2    1    2    0    0  0.52649161132E+01 -0.83963380296E+02  0.14167960747E+03  0.18840846304E+03  0.91362296378E+02 0.  0.
          5    1    4    4  502    0  0.31402479114E+02 -0.60824138670E+02  0.36983310888E+02  0.77945794137E+02  0.47000000000E+01 0. -1.
         -5    1    4    4    0  502 -0.26137563001E+02 -0.23139241626E+02  0.10469629659E+03  0.11046266890E+03  0.47000000000E+01 0.  1.
          5    1    3    3  503    0 -0.20841213252E+02 -0.71735173329E+01 -0.18612822659E+01  0.22613489170E+02  0.47000000000E+01 0. -1.
         -5    1    3    3    0  503  0.15576297139E+02  0.91136897629E+02  0.26376042206E+03  0.27953569609E+03  0.47000000000E+01 0. -1.
<mgrwt>
<rscale>  0 0.14356808E+03</rscale>
<asrwt>0</asrwt>
<pdfrwt beam="1">  1        2 0.66906850E-02 0.15067505E+03</pdfrwt>
<pdfrwt beam="2">  1       -2 0.68779720E-01 0.15067505E+03</pdfrwt>
<totfact> 0.20555546E+03</totfact>
</mgrwt>
</event>
<event>
 8    1  0.3572165E-004  0.1369477E+03  0.7546771E-02  0.1230396E+00
         -1   -1    0    0    0  501 -0.00000000000E+00  0.00000000000E+00  0.24663399221E+02  0.24663399221E+02  0.00000000000E+00 0.  1.
          1   -1    0    0  501    0  0.00000000000E+00 -0.00000000000E+00 -0.59313435215E+03  0.59313435215E+03  0.00000000000E+00 0. -1.
         25    2    1    2    0    0  0.51777816643E+02 -0.21178019459E+02 -0.33765475615E+03  0.36436987670E+03  0.12500088756E+03 0.  0.
         23    2    1    2    0    0 -0.51777816643E+02  0.21178019459E+02 -0.23081619677E+03  0.25342787467E+03  0.88431443276E+02 0.  0.
          5    1    4    4  502    0 -0.45950130657E+02 -0.18936556477E+02 -0.61231319096E+02  0.79002355135E+02  0.47000000000E+01 0. -1.
         -5    1    4    4    0  502 -0.58276859854E+01  0.40114575937E+02 -0.16958487768E+03  0.17442551953E+03  0.47000000000E+01 0.  1.
          5    1    3    3  503    0 -0.29470205215E+02 -0.60983407288E+01 -0.20801954102E+02  0.36884875621E+02  0.47000000000E+01 0.  1.
         -5    1    3    3    0  503  0.81248021858E+02 -0.15079678730E+02 -0.31685280205E+03  0.32748500108E+03  0.47000000000E+01 0.  1.
<mgrwt>
<rscale>  0 0.12803853E+03</rscale>
<asrwt>0</asrwt>
<pdfrwt beam="1">  1        1 0.91251441E-01 0.13694770E+03</pdfrwt>
<pdfrwt beam="2">  1       -1 0.37943690E-02 0.13694770E+03</pdfrwt>
<totfact> 0.91030925E+03</totfact>
</mgrwt>
</event>
<event>
 8    1  0.3572165E-004  0.1682882E+03  0.7546771E-02  0.1186001E+00
          1   -1    0    0  501    0  0.00000000000E+00  0.00000000000E+00  0.66936108155E+03  0.66936108155E+03  0.00000000000E+00 0. -1.
         -1   -1    0    0    0  501 -0.00000000000E+00 -0.00000000000E+00 -0.68626121861E+02  0.68626121861E+02  0.00000000000E+00 0.  1.
         25    2    1    2    0    0 -0.96636394304E+02 -0.57939043443E+02  0.61231071158E+02  0.17908143908E+03  0.12500156915E+03 0.  0.
         23    2    1    2    0    0  0.96636394304E+02  0.57939043443E+02  0.53950388853E+03  0.55890576432E+03  0.92820699202E+02 0.  0.
          5    1    3    3  502    0 -0.58304387417E+02 -0.22057844053E+02  0.96983662715E+02  0.11538574830E+03  0.47000000000E+01 0.  1.
         -5    1    4    4    0  503  0.13827247715E+02  0.55938322542E+02  0.15208834760E+03  0.16270600537E+03  0.47000000000E+01 0.  1.
          5    1    4    4  503    0  0.82809146589E+02  0.20007209019E+01  0.38741554093E+03  0.39619975896E+03  0.47000000000E+01 0. -1.
         -5    1    3    3    0  502 -0.38332006886E+02 -0.35881199390E+02 -0.35752591557E+02  0.63695690786E+02  0.47000000000E+01 0.  1.
<mgrwt>
<rscale>  0 0.16241130E+03</rscale>
<asrwt>0</asrwt>
<pdfrwt beam="1">  1        1 0.10297862E+00 0.16828820E+03</pdfrwt>
<pdfrwt beam="2">  1       -1 0.10557865E-01 0.16828820E+03</pdfrwt>
<totfact> 0.16740758E+03</totfact>
</mgrwt>
</event>
<event>
 8    1  0.3572165E-004  0.2416272E+03  0.7546771E-02  0.1121487E+00
          2   -1    0    0  501    0  0.00000000000E+00  0.00000000000E+00  0.34604383265E+03  0.34604383265E+03  0.00000000000E+00 0. -1.
         -2   -1    0    0    0  501 -0.00000000000E+00 -0.00000000000E+00 -0.18470928934E+03  0.18470928934E+03  0.00000000000E+00 0.  1.
         25    2    1    2    0    0  0.12896729836E+03  0.16163976967E+03  0.18465856499E+03  0.30410937742E+03  0.12499499441E+03 0.  0.
         23    2    1    2    0    0 -0.12896729836E+03 -0.16163976967E+03 -0.23324021683E+02  0.22664374456E+03  0.89796424083E+02 0.  0.
          5    1    3    3  502    0  0.11672137878E+02  0.28507367716E+02  0.10505906303E+03  0.10958287065E+03  0.47000000000E+01 0. -1.
         -5    1    4    4    0  503 -0.85022277835E+02 -0.46475815475E+02 -0.34081815726E+02  0.10282241641E+03  0.47000000000E+01 0.  1.
          5    1    4    4  503    0 -0.43945020525E+02 -0.11516395419E+03  0.10757794043E+02  0.12382132816E+03  0.47000000000E+01 0. -1.
         -5    1    3    3    0  502  0.11729516048E+03  0.13313240195E+03  0.79599501964E+02  0.19452650677E+03  0.47000000000E+01 0. -1.
<mgrwt>
<rscale>  0 0.23747471E+03</rscale>
<asrwt>0</asrwt>
<pdfrwt beam="1">  1        2 0.53237513E-01 0.24162725E+03</pdfrwt>
<pdfrwt beam="2">  1       -2 0.28416814E-01 0.24162725E+03</pdfrwt>
<totfact> 0.10561649E+03</totfact>
</mgrwt>
</event>
<event>
 8    1  0.3572165E-004  0.1840909E+03  0.7546771E-02  0.1168805E+00
         -2   -1    0    0    0  501 -0.00000000000E+00  0.00000000000E+00  0.22584986762E+03  0.22584986762E+03  0.00000000000E+00 0.  1.
          2   -1    0    0  501    0  0.00000000000E+00 -0.00000000000E+00 -0.13472350141E+03  0.13472350141E+03  0.00000000000E+00 0. -1.
         25    2    1    2    0    0  0.33192855915E+02 -0.13100048017E+03  0.40212507200E+02  0.18843174462E+03  0.12500634046E+03 0.  0.
         23    2    1    2    0    0 -0.33192855915E+02  0.13100048017E+03  0.50913859010E+02  0.17214162441E+03  0.93688987224E+02 0.  0.
          5    1    4    4  502    0 -0.15093821423E+01  0.36845343623E+02 -0.26881140771E+02  0.45875301746E+02  0.47000000000E+01 0. -1.
         -5    1    4    4    0  502 -0.31683473773E+02  0.94155136548E+02  0.77794999781E+02  0.12626632267E+03  0.47000000000E+01 0.  1.
          5    1    3    3  503    0  0.13618903505E+02 -0.14854956563E+03  0.12223908455E+02  0.14974632523E+03  0.47000000000E+01 0. -1.
         -5    1    3    3    0  503  0.19573952411E+02  0.17549085461E+02  0.27988598745E+02  0.38685419388E+02  0.47000000000E+01 0. -1.
<mgrwt>
<rscale>  0 0.17896834E+03</rscale>
<asrwt>0</asrwt>
<pdfrwt beam="1">  1        2 0.20726693E-01 0.18409095E+03</pdfrwt>
<pdfrwt beam="2">  1       -2 0.34746133E-01 0.18409095E+03</pdfrwt>
<totfact> 0.20406682E+03</totfact>
</mgrwt>
</event>
<event>
 8    1  0.3572165E-004  0.1707662E+03  0.7546771E-02  0.1183806E+00
         -2   -1    0    0    0  501 -0.00000000000E+00  0.00000000000E+00  0.24122705120E+02  0.24122705120E+02  0.00000000000E+00 0.  1.
          2   -1    0    0  501    0  0.00000000000E+00 -0.00000000000E+00 -0.10716972248E+04  0.10716972248E+04  0.00000000000E+00 0. -1.
         25    2    1    2    0    0 -0.84631925551E+02 -0.79839028647E+02 -0.47569752350E+03  0.50541986913E+03  0.12499710770E+03 0.  0.
         23    2    1    2    0    0  0.84631925551E+02  0.79839028647E+02 -0.57187699615E+03  0.59040006075E+03  0.89398544162E+02 0.  0.
          5    1    3    3  502    0 -0.84027690995E+01 -0.81116328861E+02 -0.14911077868E+03  0.17001935082E+03  0.47000000000E+01 0. -1.
         -5    1    4    4    0  503 -0.51517245890E+01  0.49522611096E+02 -0.15527111921E+03  0.16312645321E+03  0.47000000000E+01 0.  1.
          5    1    4    4  503    0  0.89783650140E+02  0.30316417552E+02 -0.41660587693E+03  0.42727360754E+03  0.47000000000E+01 0. -1.
         -5    1    3    3    0  502 -0.76229156452E+02  0.12773002132E+01 -0.32658674482E+03  0.33540051831E+03  0.47000000000E+01 0. -1.
<mgrwt>
<rscale>  0 0.16441042E+03</rscale>
<asrwt>0</asrwt>
<pdfrwt beam="1">  1        2 0.16487643E+00 0.17076624E+03</pdfrwt>
<pdfrwt beam="2">  1       -2 0.37111869E-02 0.17076624E+03</pdfrwt>
<totfact> 0.71722351E+03</totfact>
</mgrwt>
</event>
<event>
 8    1  0.3572165E-004  0.1542117E+03  0.7546771E-02  0.1204891E+00
         -1   -1    0    0    0  501 -0.00000000000E+00  0.00000000000E+00  0.36432084982E+02  0.36432084982E+02  0.00000000000E+00 0.  1.
          1   -1    0    0  501    0  0.00000000000E+00 -0.00000000000E+00 -0.56726087618E+03  0.56726087618E+03  0.00000000000E+00 0. -1.
         25    2    1    2    0    0  0.20770259009E+02 -0.87900795713E+02 -0.36087284215E+03  0.39244166857E+03  0.12499320575E+03 0.  0.
         23    2    1    2    0    0 -0.20770259009E+02  0.87900795713E+02 -0.16995594905E+03  0.21125129259E+03  0.87086913244E+02 0.  0.
          5    1    4    4  502    0 -0.11755614059E+01  0.37723580531E+02 -0.14813940794E+03  0.15294386113E+03  0.47000000000E+01 0. -1.
         -5    1    3    3    0  503  0.40114348603E+02 -0.67087046463E+02 -0.35436596316E+03  0.36291480903E+03  0.47000000000E+01 0. -1.
          5    1    3    3  503    0 -0.19344089594E+02 -0.20813749249E+02 -0.65068789868E+01  0.29526859538E+02  0.47000000000E+01 0. -1.
         -5    1    4    4    0  502 -0.19594697603E+02  0.50177215181E+02 -0.21816541107E+02  0.58307431459E+02  0.47000000000E+01 0.  1.
<mgrwt>
<rscale>  0 0.14646060E+03</rscale>
<asrwt>0</asrwt>
<pdfrwt beam="1">  1        1 0.87270889E-01 0.15421172E+03</pdfrwt>
<pdfrwt beam="2">  1       -1 0.56049371E-02 0.15421172E+03</pdfrwt>
<totfact> 0.54693071E+03</totfact>
</mgrwt>
</event>
<event>
 8    1  0.3572165E-004  0.1374476E+03  0.7546771E-02  0.1228439E+00
          1   -1    0    0  501    0  0.00000000000E+00  0.00000000000E+00  0.64815544077E+03  0.64815544077E+03  0.00000000000E+00 0. -1.
         -1   -1    0    0    0  501 -0.00000000000E+00 -0.00000000000E+00 -0.23522201063E+02  0.23522201063E+02  0.00000000000E+00 0.  1.
         25    2    1    2    0    0  0.28925526607E+02  0.49295288334E+02  0.31019760794E+03  0.33928512117E+03  0.12500050372E+03 0.  0.
         23    2    1    2    0    0 -0.28925526607E+02 -0.49295288334E+02  0.31443563177E+03  0.33239252067E+03  0.91369085195E+02 0.  0.
          5    1    3    3  502    0  0.37222535185E+02  0.22998284715E+02  0.30810788834E+03  0.31123463670E+03  0.47000000000E+01 0. -1.
         -5    1    3    3    0  502 -0.82970085780E+01  0.26297003619E+02  0.20897196006E+01  0.28050484465E+02  0.47000000000E+01 0. -1.
          5    1    4    4  503    0  0.77841057459E+01 -0.39949817257E+02  0.27298994622E+03  0.27604742516E+03  0.47000000000E+01 0. -1.
         -5    1    4    4    0  503 -0.36709632353E+02 -0.93454710769E+01  0.41445685550E+02  0.56345095508E+02  0.47000000000E+01 0.  1.
<mgrwt>
<rscale>  0 0.12933925E+03</rscale>
<asrwt>0</asrwt>
<pdfrwt beam="1">  1        1 0.99716208E-01 0.13744758E+03</pdfrwt>
<pdfrwt beam="2">  1       -1 0.36188007E-02 0.13744758E+03</pdfrwt>
<totfact> 0.86391118E+03</totfact>
</mgrwt>
</event>
<event>
 8    1  0.3572165E-004  0.1451854E+03  0.7546771E-02  0.1216662E+00
          2   -1    0    0  501    0  0.00000000000E+00  0.00000000000E+00  0.12291642875E+03  0.12291642875E+03  0.00000000000E+00 0. -1.
         -2   -1    0    0    0  501 -0.00000000000E+00 -0.00000000000E+00 -0.15056477376E+03  0.15056477376E+03  0.00000000000E+00 0.  1.
         25    2    1    2    0    0 -0.57303612542E+02 -0.46581391052E+02  0.21185528657E+02  0.14672299732E+03  0.12500112526E+03 0.  0.
         23    2    1    2    0    0  0.57303612542E+02  0.46581391052E+02 -0.48833873665E+02  0.12675820518E+03  0.90715849559E+02 0.  0.
          5    1    3    3  502    0 -0.46503099317E+02 -0.88274886758E+02  0.25769038753E+02  0.10315583957E+03  0.47000000000E+01 0. -1.
         -5    1    3    3    0  502 -0.10800513224E+02  0.41693495706E+02 -0.45835100966E+01  0.43567157755E+02  0.47000000000E+01 0. -1.
          5    1    4    4  503    0  0.29654364715E+02  0.17741816308E+01  0.22792882122E+02  0.37737707172E+02  0.47000000000E+01 0. -1.
         -5    1    4    4    0  503  0.27649247826E+02  0.44807209421E+02 -0.71626755787E+02  0.89020498010E+02  0.47000000000E+01 0.  1.
<mgrwt>
<rscale>  0 0.13755125E+03</rscale>
<asrwt>0</asrwt>
<pdfrwt beam="1">  1        2 0.18910220E-01 0.14518544E+03</pdfrwt>
<pdfrwt beam="2">  1       -2 0.23163811E-01 0.14518544E+03</pdfrwt>
<totfact> 0.46252916E+03</totfact>
</mgrwt>
</event>
<event>
 8    1  0.3572165E-004  0.1455116E+03  0.7546771E-02  0.1214910E+00
          1   -1    0    0  501    0  0.00000000000E+00  0.00000000000E+00  0.16895668049E+03  0.16895668049E+03  0.00000000000E+00 0. -1.
         -1   -1    0    0    0  501 -0.00000000000E+00 -0.00000000000E+00 -0.12909905993E+03  0.12909905993E+03  0.00000000000E+00 0.  1.
         25    2    1    2    0    0  0.17869997273E+02 -0.72314408358E+02  0.85915534423E+02  0.16898255187E+03  0.12499965330E+03 0.  0.
         23    2    1    2    0    0 -0.17869997273E+02  0.72314408358E+02 -0.46057913871E+02  0.12907318855E+03  0.94814799016E+02 0.  0.
          5    1    3    3  502    0  0.37395429034E+02 -0.85171721383E+01  0.93981009598E+02  0.10161437152E+03  0.47000000000E+01 0. -1.
         -5    1    4    4    0  503  0.22949447382E+02  0.38067377007E+02 -0.59019623031E+02  0.74035182380E+02  0.47000000000E+01 0.  1.
          5    1    4    4  503    0 -0.40819444655E+02  0.34247031351E+02  0.12961709160E+02  0.55038006165E+02  0.47000000000E+01 0. -1.
         -5    1    3    3    0  502 -0.19525431761E+02 -0.63797236219E+02 -0.80654751755E+01  0.67368180356E+02  0.47000000000E+01 0. -1.
<mgrwt>
<rscale>  0 0.13883161E+03</rscale>
<asrwt>0</asrwt>
<pdfrwt beam="1">  1        1 0.25993335E-01 0.14551159E+03</pdfrwt>
<pdfrwt beam="2">  1       -1 0.19861394E-01 0.14551159E+03</pdfrwt>
<totfact> 0.35864421E+03</totfact>
</mgrwt>
</event>
<event>
 8    1  0.3572165E-004  0.1372211E+03  0.7546771E-02  0.1225085E+00
         -1   -1    0    0    0  501 -0.00000000000E+00  0.00000000000E+00  0.80642816188E+03  0.80642816188E+03  0.00000000000E+00 0.  1.
          1   -1    0    0  501    0  0.00000000000E+00 -0.00000000000E+00 -0.19896820366E+02  0.19896820366E+02  0.00000000000E+00 0. -1.
         25    2    1    2    0    0 -0.56528740870E+02  0.30799307278E+01  0.42722654200E+03  0.44872278577E+03  0.12499854305E+03 0.  0.
         23    2    1    2    0    0  0.56528740870E+02 -0.30799307278E+01  0.35930479952E+03  0.37760219648E+03  0.10138291429E+03 0.  0.
          5    1    3    3  502    0  0.19403962606E+02 -0.24941429177E+02  0.26942491360E+03  0.27131248169E+03  0.47000000000E+01 0.  1.
         -5    1    3    3    0  502 -0.75932703476E+02  0.28021359905E+02  0.15780162840E+03  0.17741030408E+03  0.47000000000E+01 0.  1.
          5    1    4    4  503    0  0.49127651974E+02  0.44405177627E+02  0.17800825087E+03  0.18998519249E+03  0.47000000000E+01 0. -1.
         -5    1    4    4    0  503  0.74010888957E+01 -0.47485108354E+02  0.18129654864E+03  0.18761700398E+03  0.47000000000E+01 0.  1.
<mgrwt>
<rscale>  0 0.13161059E+03</rscale>
<asrwt>0</asrwt>
<pdfrwt beam="1">  1        1 0.30610499E-02 0.13722106E+03</pdfrwt>
<pdfrwt beam="2">  1       -1 0.12406585E+00 0.13722106E+03</pdfrwt>
<totfact> 0.19632620E+03</totfact>
</mgrwt>
</event>
<event>
 8    1  0.3572165E-004  0.1570085E+03  0.7546771E-02  0.1200085E+00
         -2   -1    0    0    0  501 -0.00000000000E+00  0.00000000000E+00  0.54894195578E+02  0.54894195578E+02  0.00000000000E+00 0.  1.
          2   -1    0    0  501    0  0.00000000000E+00 -0.00000000000E+00 -0.40731979993E+03  0.40731979993E+03  0.00000000000E+00 0. -1.
         25    2    1    2    0    0 -0.92298492856E+02  0.22528286124E+02 -0.24999298489E+03  0.29520869476E+03  0.12500058204E+03 0.  0.
         23    2    1    2    0    0  0.92298492856E+02 -0.22528286124E+02 -0.10243261946E+03  0.16700530074E+03  0.91497505357E+02 0.  0.
          5    1    3    3  502    0 -0.49338723146E+02 -0.12333688215E+01 -0.23977067638E+03  0.24484259852E+03  0.47000000000E+01 0. -1.
         -5    1    3    3    0  502 -0.42959769710E+02  0.23761654946E+02 -0.10222308510E+02  0.50366096241E+02  0.47000000000E+01 0. -1.
          5    1    4    4  503    0  0.42519167337E+02  0.27430040196E+02 -0.76245707203E+02  0.91628513919E+02  0.47000000000E+01 0. -1.
         -5    1    4    4    0  503  0.49779325519E+02 -0.49958326320E+02 -0.26186912255E+02  0.75376786820E+02  0.47000000000E+01 0.  1.
<mgrwt>
<rscale>  0 0.15031624E+03</rscale>
<asrwt>0</asrwt>
<pdfrwt beam="1">  1        2 0.62664585E-01 0.15700854E+03</pdfrwt>
<pdfrwt beam="2">  1       -2 0.84452608E-02 0.15700854E+03</pdfrwt>
<totfact> 0.65580205E+03</totfact>
</mgrwt>
</event>
<event>
 8    1  0.3572165E-004  0.1698748E+03  0.7546771E-02  0.1184712E+00
         -2   -1    0    0    0  501 -0.00000000000E+00  0.00000000000E+00  0.15906058215E+02  0.15906058215E+02  0.00000000000E+00 0.  1.
          2   -1    0    0  501    0  0.00000000000E+00 -0.00000000000E+00 -0.15817910770E+04  0.15817910770E+04  0.00000000000E+00 0. -1.
         25    2    1    2    0    0 -0.11494397273E+03  0.45242998516E+01 -0.76946873486E+03  0.78799720119E+03  0.12499947601E+03 0.  0.
         23    2    1    2    0    0  0.11494397273E+03 -0.45242998516E+01 -0.79641628388E+03  0.80969993398E+03  0.90013886157E+02 0.  0.
          5    1    4    4  502    0  0.19159440272E+02 -0.32750147925E+02 -0.35774540119E+03  0.35978259882E+03  0.47000000000E+01 0. -1.
         -5    1    3    3    0  503 -0.36793997419E+02  0.57197035396E+02 -0.21477178873E+03  0.22533155646E+03  0.47000000000E+01 0. -1.
          5    1    3    3  503    0 -0.78149975309E+02 -0.52672735544E+02 -0.55469694613E+03  0.56266564473E+03  0.47000000000E+01 0. -1.
         -5    1    4    4    0  502  0.95784532457E+02  0.28225848073E+02 -0.43867088269E+03  0.44991733516E+03  0.47000000000E+01 0.  1.
<mgrwt>
<rscale>  0 0.16358126E+03</rscale>
<asrwt>0</asrwt>
<pdfrwt beam="1">  1        2 0.24335254E+00 0.16987482E+03</pdfrwt>
<pdfrwt beam="2">  1       -2 0.24470852E-02 0.16987482E+03</pdfrwt>
<totfact> 0.69964492E+03</totfact>
</mgrwt>
</event>
<event>
 8    1  0.3572165E-004  0.1401633E+03  0.7546771E-02  0.1224107E+00
          2   -1    0    0  501    0  0.00000000000E+00  0.00000000000E+00  0.38605339630E+02  0.38605339630E+02  0.00000000000E+00 0. -1.
         -2   -1    0    0    0  501 -0.00000000000E+00 -0.00000000000E+00 -0.41065492339E+03  0.41065492339E+03  0.00000000000E+00 0.  1.
         25    2    1    2    0    0 -0.47847081706E+02  0.41638113769E+02 -0.22080764175E+03  0.26153728867E+03  0.12499065149E+03 0.  0.
         23    2    1    2    0    0  0.47847081706E+02 -0.41638113769E+02 -0.15124194201E+03  0.18772297436E+03  0.91338460316E+02 0.  0.
          5    1    4    4  502    0  0.62508778498E+02  0.41825045716E+01 -0.87925085601E+02  0.10806364519E+03  0.47000000000E+01 0. -1.
         -5    1    4    4    0  502 -0.14661696793E+02 -0.45820618341E+02 -0.63316856410E+02  0.79659329169E+02  0.47000000000E+01 0.  1.
          5    1    3    3  503    0 -0.29871458734E+02  0.78102061026E+02 -0.19730367856E+03  0.21434334036E+03  0.47000000000E+01 0.  1.
         -5    1    3    3    0  503 -0.17975622972E+02 -0.36463947257E+02 -0.23503963191E+02  0.47193948304E+02  0.47000000000E+01 0.  1.
<mgrwt>
<rscale>  0 0.13228280E+03</rscale>
<asrwt>0</asrwt>
<pdfrwt beam="1">  1        2 0.59392829E-02 0.14016326E+03</pdfrwt>
<pdfrwt beam="2">  1       -2 0.63177682E-01 0.14016326E+03</pdfrwt>
<totfact> 0.28507152E+03</totfact>
</mgrwt>
</event>
<event>
 8    1  0.3572165E-004  0.1438702E+03  0.7546771E-02  0.1218625E+00
         -1   -1    0    0    0  501 -0.00000000000E+00  0.00000000000E+00  0.99663571508E+02  0.99663571508E+02  0.00000000000E+00 0.  1.
          1   -1    0    0  501    0  0.00000000000E+00 -0.00000000000E+00 -0.16940385169E+03  0.16940385169E+03  0.00000000000E+00 0. -1.
         25    2    1    2    0    0 -0.67860849912E+02  0.21639501411E+02 -0.48221673866E+02  0.15173648292E+03  0.12500106978E+03 0.  0.
         23    2    1    2    0    0  0.67860849912E+02 -0.21639501411E+02 -0.21518606318E+02  0.11733094029E+03  0.90720097875E+02 0.  0.
          5    1    3    3  502    0 -0.43801817111E+02 -0.30787089962E+02  0.24274229240E+02  0.58972640231E+02  0.47000000000E+01 0.  1.
         -5    1    4    4    0  503  0.63197067582E+02  0.48164266404E+01  0.20899271461E+02  0.66902442887E+02  0.47000000000E+01 0.  1.
          5    1    4    4  503    0  0.46637823299E+01 -0.26455928051E+02 -0.42417877779E+02  0.50428497399E+02  0.47000000000E+01 0. -1.
         -5    1    3    3    0  502 -0.24059032801E+02  0.52426591373E+02 -0.72495903106E+02  0.92763842684E+02  0.47000000000E+01 0.  1.
<mgrwt>
<rscale>  0 0.13613627E+03</rscale>
<asrwt>0</asrwt>
<pdfrwt beam="1">  1        1 0.26062130E-01 0.14387019E+03</pdfrwt>
<pdfrwt beam="2">  1       -1 0.15332857E-01 0.14387019E+03</pdfrwt>
<totfact> 0.53891268E+03</totfact>
</mgrwt>
</event>
<event>
 8    1  0.3572165E-004  0.1293777E+03  0.7546771E-02  0.1242209E+00
          2   -1    0    0  501    0  0.00000000000E+00  0.00000000000E+00  0.31453063677E+02  0.31453063677E+02  0.00000000000E+00 0.  1.
         -2   -1    0    0    0  501 -0.00000000000E+00 -0.00000000000E+00 -0.41361578410E+03  0.41361578410E+03  0.00000000000E+00 0. -1.
         25    2    1    2    0    0 -0.12695915219E+02  0.30840298280E+02 -0.19457584663E+03  0.23366288983E+03  0.12500510281E+03 0.  0.
         23    2    1    2    0    0  0.12695915219E+02 -0.30840298280E+02 -0.18758687379E+03  0.21140595795E+03  0.91604222484E+02 0.  0.
          5    1    3    3  502    0  0.45446644570E+02  0.22717150755E+02 -0.30755186349E+02  0.59577159453E+02  0.47000000000E+01 0. -1.
         -5    1    4    4    0  503  0.33403725284E+02 -0.10162218852E+02 -0.18598640644E+02  0.39838159955E+02  0.47000000000E+01 0.  1.
          5    1    4    4  503    0 -0.20707810065E+02 -0.20678079428E+02 -0.16898823315E+03  0.17156779800E+03  0.47000000000E+01 0. -1.
         -5    1    3    3    0  502 -0.58142559789E+02  0.81231475249E+01 -0.16382066028E+03  0.17408573037E+03  0.47000000000E+01 0. -1.
<mgrwt>
<rscale>  0 0.12053989E+03</rscale>
<asrwt>0</asrwt>
<pdfrwt beam="1">  1        2 0.48389331E-02 0.12937769E+03</pdfrwt>
<pdfrwt beam="2">  1       -2 0.63633195E-01 0.12937769E+03</pdfrwt>
<totfact> 0.36442742E+03</totfact>
</mgrwt>
</event>
<event>
 8    1  0.3572165E-004  0.1287503E+03  0.7546771E-02  0.1244003E+00
          3   -1    0    0  501    0  0.00000000000E+00  0.00000000000E+00  0.17159480594E+03  0.17159480594E+03  0.00000000000E+00 0. -1.
         -3   -1    0    0    0  501 -0.00000000000E+00 -0.00000000000E+00 -0.97251387813E+02  0.97251387813E+02  0.00000000000E+00 0.  1.
         25    2    1    2    0    0 -0.10678511452E+02 -0.28951953567E+02  0.10762661983E+03  0.16780982581E+03  0.12499760846E+03 0.  0.
         23    2    1    2    0    0  0.10678511452E+02  0.28951953567E+02 -0.33283201709E+02  0.10103636794E+03  0.90268100166E+02 0.  0.
          5    1    3    3  502    0 -0.12365765974E+02  0.26925057297E+02  0.10760663958E+03  0.11171011485E+03  0.47000000000E+01 0. -1.
         -5    1    4    4    0  503 -0.28179096149E+02  0.37488888781E+02  0.26682227207E+01  0.47208978534E+02  0.47000000000E+01 0.  1.
          5    1    4    4  503    0  0.38857607601E+02 -0.85369352140E+01 -0.35951424430E+02  0.53827389403E+02  0.47000000000E+01 0. -1.
         -5    1    3    3    0  502  0.16872545219E+01 -0.55877010863E+02  0.19980254365E-01  0.56099710962E+02  0.47000000000E+01 0. -1.
<mgrwt>
<rscale>  0 0.11945240E+03</rscale>
<asrwt>0</asrwt>
<pdfrwt beam="1">  1        3 0.26399201E-01 0.12875033E+03</pdfrwt>
<pdfrwt beam="2">  1       -3 0.14961752E-01 0.12875033E+03</pdfrwt>
<totfact> 0.11577850E+03</totfact>
</mgrwt>
</event>
<event>
 8    1  0.3572165E-004  0.1870426E+03  0.7546771E-02  0.1167431E+00
         -2   -1    0    0    0  501 -0.00000000000E+00  0.00000000000E+00  0.10497542786E+03  0.10497542786E+03  0.00000000000E+00 0. -1.
          2   -1    0    0  501    0  0.00000000000E+00 -0.00000000000E+00 -0.29105433637E+03  0.29105433637E+03  0.00000000000E+00 0.  1.
         25    2    1    2    0    0  0.58376542362E+01 -0.13902283632E+03 -0.86837418337E+02  0.20621755983E+03  0.12499406999E+03 0.  0.
         23    2    1    2    0    0 -0.58376542362E+01  0.13902283632E+03 -0.99241490175E+02  0.18981220440E+03  0.82573436041E+02 0.  0.
          5    1    3    3  502    0  0.49944940107E+02 -0.13045702835E+03 -0.78410763305E+02  0.16026188284E+03  0.47000000000E+01 0.  1.
         -5    1    3    3    0  502 -0.44107285871E+02 -0.85658079710E+01 -0.84266550323E+01  0.45955676995E+02  0.47000000000E+01 0.  1.
          5    1    4    4  503    0 -0.32932955201E+01  0.86459737010E+02 -0.11525311936E+02  0.87413126786E+02  0.47000000000E+01 0. -1.
         -5    1    4    4    0  503 -0.25443587161E+01  0.52563099310E+02 -0.87716178239E+02  0.10239907761E+03  0.47000000000E+01 0.  1.
<mgrwt>
<rscale>  0 0.18038534E+03</rscale>
<asrwt>0</asrwt>
<pdfrwt beam="1">  1        2 0.44777590E-01 0.18704263E+03</pdfrwt>
<pdfrwt beam="2">  1       -2 0.16150066E-01 0.18704263E+03</pdfrwt>
<totfact> 0.33522341E+03</totfact>
</mgrwt>
</event>
<event>
 8    1  0.3572165E-004  0.1806747E+03  0.7546771E-02  0.1172409E+00
          2   -1    0    0  501    0  0.00000000000E+00  0.00000000000E+00  0.17370559243E+03  0.17370559243E+03  0.00000000000E+00 0. -1.
         -2   -1    0    0    0  501 -0.00000000000E+00 -0.00000000000E+00 -0.18131891028E+03  0.18131891028E+03  0.00000000000E+00 0.  1.
         25    2    1    2    0    0  0.50358862511E+01 -0.13034560611E+03 -0.53422668676E+02  0.18840738843E+03  0.12501210063E+03 0.  0.
         23    2    1    2    0    0 -0.50358862511E+01  0.13034560611E+03  0.45809350832E+02  0.16661711428E+03  0.92991553202E+02 0.  0.
          5    1    3    3  502    0  0.17592799741E+02 -0.75150292497E+02 -0.91672088878E+02  0.11992887452E+03  0.47000000000E+01 0.  1.
         -5    1    4    4    0  503  0.18365340835E+02  0.36295179525E+02 -0.23649768771E+02  0.47286651009E+02  0.47000000000E+01 0.  1.
          5    1    4    4  503    0 -0.23401227086E+02  0.94050426581E+02  0.69459119603E+02  0.11933046327E+03  0.47000000000E+01 0. -1.
         -5    1    3    3    0  502 -0.12556913490E+02 -0.55195313609E+02  0.38249420202E+02  0.68478513905E+02  0.47000000000E+01 0.  1.
<mgrwt>
<rscale>  0 0.17532184E+03</rscale>
<asrwt>0</asrwt>
<pdfrwt beam="1">  1        2 0.26723937E-01 0.18067474E+03</pdfrwt>
<pdfrwt beam="2">  1       -2 0.27895217E-01 0.18067474E+03</pdfrwt>
<totfact> 0.22883082E+03</totfact>
</mgrwt>
</event>
<event>
 8    1  0.3572165E-004  0.1526634E+03  0.7546771E-02  0.1205193E+00
         -1   -1    0    0    0  501 -0.00000000000E+00  0.00000000000E+00  0.28629860559E+03  0.28629860559E+03  0.00000000000E+00 0.  1.
          1   -1    0    0  501    0  0.00000000000E+00 -0.00000000000E+00 -0.78443900163E+02  0.78443900163E+02  0.00000000000E+00 0. -1.
         25    2    1    2    0    0  0.86413841156E+02  0.14570673195E+02  0.17478792964E+03  0.23207098412E+03  0.12500585930E+03 0.  0.
         23    2    1    2    0    0 -0.86413841156E+02 -0.14570673195E+02  0.33066775784E+02  0.13267152164E+03  0.93960973454E+02 0.  0.
          5    1    4    4  502    0 -0.31223189482E+02  0.20302253023E+02 -0.25058652533E+02  0.45134189989E+02  0.47000000000E+01 0. -1.
         -5    1    4    4    0  502 -0.55190651675E+02 -0.34872926217E+02  0.58125428317E+02  0.87537331649E+02  0.47000000000E+01 0.  1.
          5    1    3    3  503    0 -0.22764099973E+02  0.24766103099E+01 -0.24469643520E+01  0.23503520603E+02  0.47000000000E+01 0.  1.
         -5    1    3    3    0  503  0.10917794113E+03  0.12094062885E+02  0.17723489399E+03  0.20856746351E+03  0.47000000000E+01 0.  1.
<mgrwt>
<rscale>  0 0.14622247E+03</rscale>
<asrwt>0</asrwt>
<pdfrwt beam="1">  1        1 0.12068292E-01 0.15266342E+03</pdfrwt>
<pdfrwt beam="2">  1       -1 0.44045939E-01 0.15266342E+03</pdfrwt>
<totfact> 0.25151735E+03</totfact>
</mgrwt>
</event>
<event>
 8    1  0.3572165E-004  0.1286026E+03  0.7546771E-02  0.1243612E+00
         -1   -1    0    0    0  501 -0.00000000000E+00  0.00000000000E+00  0.26218088600E+02  0.26218088600E+02  0.00000000000E+00 0.  1.
          1   -1    0    0  501    0  0.00000000000E+00 -0.00000000000E+00 -0.53024066847E+03  0.53024066847E+03  0.00000000000E+00 0. -1.
         25    2    1    2    0    0 -0.30243034596E+02  0.12148726355E+01 -0.36695783617E+03  0.38884018008E+03  0.12499005983E+03 0.  0.
         23    2    1    2    0    0  0.30243034596E+02 -0.12148726355E+01 -0.13706474369E+03  0.16761857699E+03  0.91614007285E+02 0.  0.
          5    1    4    4  502    0  0.62850159734E+02 -0.43114794770E+01 -0.95251957008E+02  0.11429679238E+03  0.47000000000E+01 0. -1.
         -5    1    4    4    0  502 -0.32607125139E+02  0.30966068415E+01 -0.41812786685E+02  0.53321784611E+02  0.47000000000E+01 0.  1.
          5    1    3    3  503    0 -0.66705366769E+02  0.36056262055E+02 -0.18573186886E+03  0.20066907360E+03  0.47000000000E+01 0. -1.
         -5    1    3    3    0  503  0.36462332173E+02 -0.34841389419E+02 -0.18122596731E+03  0.18817110648E+03  0.47000000000E+01 0. -1.
<mgrwt>
<rscale>  0 0.11968828E+03</rscale>
<asrwt>0</asrwt>
<pdfrwt beam="1">  1        1 0.81575477E-01 0.12860261E+03</pdfrwt>
<pdfrwt beam="2">  1       -1 0.40335526E-02 0.12860261E+03</pdfrwt>
<totfact> 0.96271173E+03</totfact>
</mgrwt>
</event>
<event>
 8    1  0.3572165E-004  0.1491926E+03  0.7546771E-02  0.1210573E+00
          3   -1    0    0  501    0  0.00000000000E+00  0.00000000000E+00  0.24510221646E+03  0.24510221646E+03  0.00000000000E+00 0. -1.
         -3   -1    0    0    0  501 -0.00000000000E+00 -0.00000000000E+00 -0.95586962948E+02  0.95586962948E+02  0.00000000000E+00 0.  1.
         25    2    1    2    0    0 -0.74597594645E+02  0.32698487386E+02  0.24967506869E+01  0.14921347704E+03  0.12499774303E+03 0.  0.
         23    2    1    2    0    0  0.74597594645E+02 -0.32698487386E+02  0.14701850283E+03  0.19147570237E+03  0.91730650392E+02 0.  0.
          5    1    4    4  502    0  0.11722500270E+02 -0.31725979433E+02  0.11653700809E+03  0.12143689323E+03  0.47000000000E+01 0. -1.
         -5    1    4    4    0  502  0.62875094375E+02 -0.97250795262E+00  0.30481494739E+02  0.70038809141E+02  0.47000000000E+01 0.  1.
          5    1    3    3  503    0  0.14087713445E+02  0.22999828083E+02 -0.41431370117E+02  0.49659885136E+02  0.47000000000E+01 0.  1.
         -5    1    3    3    0  503 -0.88685308089E+02  0.96986593025E+01  0.43928120804E+02  0.99553591901E+02  0.47000000000E+01 0.  1.
<mgrwt>
<rscale>  0 0.14206827E+03</rscale>
<asrwt>0</asrwt>
<pdfrwt beam="1">  1        3 0.37708033E-01 0.14919259E+03</pdfrwt>
<pdfrwt beam="2">  1       -3 0.14705687E-01 0.14919259E+03</pdfrwt>
<totfact> 0.62767801E+02</totfact>
</mgrwt>
</event>
<event>
 8    1  0.3572165E-004  0.1645948E+03  0.7546771E-02  0.1190408E+00
          2   -1    0    0  501    0  0.00000000000E+00  0.00000000000E+00  0.31352564225E+03  0.31352564225E+03  0.00000000000E+00 0. -1.
         -2   -1    0    0    0  501 -0.00000000000E+00 -0.00000000000E+00 -0.87412731724E+02  0.87412731724E+02  0.00000000000E+00 0.  1.
         25    2    1    2    0    0  0.10359228454E+03  0.27045799683E+02  0.44130230682E+02  0.17040806815E+03  0.12501438210E+03 0.  0.
         23    2    1    2    0    0 -0.10359228454E+03 -0.27045799683E+02  0.18198267984E+03  0.23053030583E+03  0.92540204470E+02 0.  0.
          5    1    3    3  502    0  0.10896464195E+03  0.53567702596E+02  0.63207097115E+02  0.13696721901E+03  0.47000000000E+01 0. -1.
         -5    1    4    4    0  503 -0.11737078638E+02 -0.40019615761E+02  0.27189573182E+02  0.50006915026E+02  0.47000000000E+01 0.  1.
          5    1    4    4  503    0 -0.91855205907E+02  0.12973816078E+02  0.15479310666E+03  0.18052339080E+03  0.47000000000E+01 0. -1.
         -5    1    3    3    0  502 -0.53723574069E+01 -0.26521902914E+02 -0.19076866433E+02  0.33440849139E+02  0.47000000000E+01 0. -1.
<mgrwt>
<rscale>  0 0.15849395E+03</rscale>
<asrwt>0</asrwt>
<pdfrwt beam="1">  1        2 0.48234714E-01 0.16459475E+03</pdfrwt>
<pdfrwt beam="2">  1       -2 0.13448113E-01 0.16459475E+03</pdfrwt>
<totfact> 0.41569121E+03</totfact>
</mgrwt>
</event>
<event>
 8    1  0.3572165E-004  0.1501133E+03  0.7546771E-02  0.1209058E+00
         -2   -1    0    0    0  501 -0.00000000000E+00  0.00000000000E+00  0.39807510378E+02  0.39807510378E+02  0.00000000000E+00 0.  1.
          2   -1    0    0  501    0  0.00000000000E+00 -0.00000000000E+00 -0.49957532640E+03  0.49957532640E+03  0.00000000000E+00 0. -1.
         25    2    1    2    0    0  0.50194229296E+02 -0.66254795269E+02 -0.31197268186E+03  0.34620941256E+03  0.12499937827E+03 0.  0.
         23    2    1    2    0    0 -0.50194229296E+02  0.66254795269E+02 -0.14779513417E+03  0.19317342422E+03  0.92538703207E+02 0.  0.
          5    1    3    3  502    0 -0.18632371292E+02  0.14489740515E+02 -0.99213705764E+01  0.26031546905E+02  0.47000000000E+01 0.  1.
         -5    1    3    3    0  502  0.68826600588E+02 -0.80744535784E+02 -0.30205131128E+03  0.32017786565E+03  0.47000000000E+01 0.  1.
          5    1    4    4  503    0 -0.35962534551E+02  0.86749684042E+01 -0.12332439214E+03  0.12883925902E+03  0.47000000000E+01 0. -1.
         -5    1    4    4    0  503 -0.14231694746E+02  0.57579826865E+02 -0.24470742031E+02  0.64334165205E+02  0.47000000000E+01 0.  1.
<mgrwt>
<rscale>  0 0.14322199E+03</rscale>
<asrwt>0</asrwt>
<pdfrwt beam="1">  1        2 0.76857744E-01 0.15011330E+03</pdfrwt>
<pdfrwt beam="2">  1       -2 0.61242322E-02 0.15011330E+03</pdfrwt>
<totfact> 0.85866442E+03</totfact>
</mgrwt>
</event>
<event>
 8    1  0.3572165E-004  0.1444854E+03  0.7546771E-02  0.1216871E+00
          1   -1    0    0  501    0  0.00000000000E+00  0.00000000000E+00  0.72307325222E+02  0.72307325222E+02  0.00000000000E+00 0. -1.
         -1   -1    0    0    0  501 -0.00000000000E+00 -0.00000000000E+00 -0.24816910085E+03  0.24816910085E+03  0.00000000000E+00 0.  1.
         25    2    1    2    0    0  0.34997581669E+01  0.72382408920E+02 -0.12786799717E+03  0.19294108073E+03  0.12499829800E+03 0.  0.
         23    2    1    2    0    0 -0.34997581669E+01 -0.72382408920E+02 -0.47993778451E+02  0.12753534534E+03  0.93329524333E+02 0.  0.
          5    1    3    3  502    0 -0.21978404746E+02 -0.28625828299E+02 -0.54123163476E+02  0.65221891613E+02  0.47000000000E+01 0.  1.
         -5    1    3    3    0  502  0.25478162913E+02  0.10100823722E+03 -0.73744833696E+02  0.12771918912E+03  0.47000000000E+01 0.  1.
          5    1    4    4  503    0 -0.47361721398E+02 -0.45637919654E+02 -0.20350453809E+02  0.69008574354E+02  0.47000000000E+01 0. -1.
         -5    1    4    4    0  503  0.43861963231E+02 -0.26744489266E+02 -0.27643324642E+02  0.58526770984E+02  0.47000000000E+01 0.  1.
<mgrwt>
<rscale>  0 0.13739975E+03</rscale>
<asrwt>0</asrwt>
<pdfrwt beam="1">  1        1 0.11124204E-01 0.14448542E+03</pdfrwt>
<pdfrwt beam="2">  1       -1 0.38179861E-01 0.14448542E+03</pdfrwt>
<totfact> 0.35934786E+03</totfact>
</mgrwt>
</event>
<event>
 8    1  0.3572165E-004  0.1270516E+03  0.7546771E-02  0.1247304E+00
         -1   -1    0    0    0  501 -0.00000000000E+00  0.00000000000E+00  0.77592744708E+03  0.77592744708E+03  0.00000000000E+00 0.  1.
          1   -1    0    0  501    0  0.00000000000E+00 -0.00000000000E+00 -0.19212795988E+02  0.19212795988E+02  0.00000000000E+00 0. -1.
         25    2    1    2    0    0 -0.21382982548E+02 -0.77832988897E+01  0.59704366037E+03  0.61041235211E+03  0.12499718214E+03 0.  0.
         23    2    1    2    0    0  0.21382982548E+02  0.77832988897E+01  0.15967099073E+03  0.18472789096E+03  0.90065291502E+02 0.  0.
          5    1    3    3  502    0 -0.65040596721E+02  0.26495301477E+02  0.36993291474E+03  0.37656969027E+03  0.47000000000E+01 0. -1.
         -5    1    3    3    0  502  0.43657614173E+02 -0.34278600367E+02  0.22711074563E+03  0.23384266184E+03  0.47000000000E+01 0. -1.
          5    1    4    4  503    0  0.36312216982E+02  0.27432377682E+02  0.35141581191E+02  0.57689974658E+02  0.47000000000E+01 0. -1.
         -5    1    4    4    0  503 -0.14929234434E+02 -0.19649078792E+02  0.12452940954E+03  0.12703791630E+03  0.47000000000E+01 0.  1.
<mgrwt>
<rscale>  0 0.11748535E+03</rscale>
<asrwt>0</asrwt>
<pdfrwt beam="1">  1        1 0.29558154E-02 0.12705159E+03</pdfrwt>
<pdfrwt beam="2">  1       -1 0.11937343E+00 0.12705159E+03</pdfrwt>
<totfact> 0.22485057E+03</totfact>
</mgrwt>
</event>
<event>
 8    1  0.3572165E-004  0.1380453E+03  0.7546771E-02  0.1227528E+00
         -2   -1    0    0    0  501 -0.00000000000E+00  0.00000000000E+00  0.28216908104E+02  0.28216908104E+02  0.00000000000E+00 0.  1.
          2   -1    0    0  501    0  0.00000000000E+00 -0.00000000000E+00 -0.61163678074E+03  0.61163678074E+03  0.00000000000E+00 0. -1.
         25    2    1    2    0    0  0.36047482777E+01  0.58455411593E+02 -0.21238219909E+03  0.25330357575E+03  0.12500589443E+03 0.  0.
         23    2    1    2    0    0 -0.36047482777E+01 -0.58455411593E+02 -0.37103767354E+03  0.38655011309E+03  0.91225026095E+02 0.  0.
          5    1    3    3  502    0  0.17638179098E+02  0.94735025658E+02 -0.12817451911E+03  0.16042639371E+03  0.47000000000E+01 0. -1.
         -5    1    3    3    0  502 -0.14033430820E+02 -0.36279614065E+02 -0.84207679974E+02  0.92877182041E+02  0.47000000000E+01 0. -1.
          5    1    4    4  503    0 -0.31338988402E+02 -0.70853475930E+02 -0.26047168964E+03  0.27179024698E+03  0.47000000000E+01 0. -1.
         -5    1    4    4    0  503  0.27734240125E+02  0.12398064337E+02 -0.11056598390E+03  0.11475986612E+03  0.47000000000E+01 0.  1.
<mgrwt>
<rscale>  0 0.12995121E+03</rscale>
<asrwt>0</asrwt>
<pdfrwt beam="1">  1        2 0.94097971E-01 0.13804529E+03</pdfrwt>
<pdfrwt beam="2">  1       -2 0.43410626E-02 0.13804529E+03</pdfrwt>
<totfact> 0.11429451E+04</totfact>
</mgrwt>
</event>
<event>
 8    1  0.3572165E-004  0.1277957E+03  0.7546771E-02  0.1243451E+00
         -3   -1    0    0    0  501 -0.00000000000E+00  0.00000000000E+00  0.43223216794E+03  0.43223216794E+03  0.00000000000E+00 0.  1.
          3   -1    0    0  501    0  0.00000000000E+00 -0.00000000000E+00 -0.31118628462E+02  0.31118628462E+02  0.00000000000E+00 0. -1.
         25    2    1    2    0    0  0.22909716521E+01 -0.26480026891E+02  0.27497661536E+03  0.30322248140E+03  0.12500117542E+03 0.  0.
         23    2    1    2    0    0 -0.22909716521E+01  0.26480026891E+02  0.12613692412E+03  0.16012831500E+03  0.94995332857E+02 0.  0.
          5    1    3    3  502    0 -0.52101230274E+02 -0.45850367052E+02  0.16038502835E+03  0.17482059854E+03  0.47000000000E+01 0. -1.
         -5    1    3    3    0  502  0.54392201926E+02  0.19370340160E+02  0.11459158701E+03  0.12840188286E+03  0.47000000000E+01 0. -1.
          5    1    4    4  503    0 -0.34406106522E+02  0.20757269620E+02  0.13315471521E+02  0.42591503729E+02  0.47000000000E+01 0. -1.
         -5    1    4    4    0  503  0.32115134870E+02  0.57227572713E+01  0.11282145260E+03  0.11753681128E+03  0.47000000000E+01 0.  1.
<mgrwt>
<rscale>  0 0.11978552E+03</rscale>
<asrwt>0</asrwt>
<pdfrwt beam="1">  1        3 0.47874816E-02 0.12779567E+03</pdfrwt>
<pdfrwt beam="2">  1       -3 0.66497252E-01 0.12779567E+03</pdfrwt>
<totfact> 0.12360120E+03</totfact>
</mgrwt>
</event>
<event>
 8    1  0.3572165E-004  0.1711261E+03  0.7546771E-02  0.1182352E+00
          1   -1    0    0  501    0  0.00000000000E+00  0.00000000000E+00  0.16065634846E+03  0.16065634846E+03  0.00000000000E+00 0. -1.
         -1   -1    0    0    0  501 -0.00000000000E+00 -0.00000000000E+00 -0.17205635822E+03  0.17205635822E+03  0.00000000000E+00 0.  1.
         25    2    1    2    0    0  0.10838203609E+02  0.11636409213E+03  0.35880141983E+02  0.17484714366E+03  0.12500428178E+03 0.  0.
         23    2    1    2    0    0 -0.10838203609E+02 -0.11636409213E+03 -0.47280151744E+02  0.15786556303E+03  0.95016075730E+02 0.  0.
          5    1    3    3  502    0 -0.24471501501E+01  0.64960453666E+02 -0.44128662581E+02  0.78710087953E+02  0.47000000000E+01 0. -1.
         -5    1    3    3    0  502  0.13285353759E+02  0.51403638459E+02  0.80008804565E+02  0.96137055703E+02  0.47000000000E+01 0. -1.
          5    1    4    4  503    0 -0.12096196308E+02 -0.48209229713E+02  0.27148204654E+02  0.56829242566E+02  0.47000000000E+01 0. -1.
         -5    1    4    4    0  503  0.12579926983E+01 -0.68154862412E+02 -0.74428356399E+02  0.10103632046E+03  0.47000000000E+01 0.  1.
<mgrwt>
<rscale>  0 0.16575140E+03</rscale>
<asrwt>0</asrwt>
<pdfrwt beam="1">  1        1 0.24716361E-01 0.17112609E+03</pdfrwt>
<pdfrwt beam="2">  1       -1 0.26470209E-01 0.17112609E+03</pdfrwt>
<totfact> 0.24072630E+03</totfact>
</mgrwt>
</event>
<event>
 8    1  0.3572165E-004  0.1509209E+03  0.7546771E-02  0.1209534E+00
          2   -1    0    0  501    0  0.00000000000E+00  0.00000000000E+00  0.84607845618E+03  0.84607845618E+03  0.00000000000E+00 0. -1.
         -2   -1    0    0    0  501 -0.00000000000E+00 -0.00000000000E+00 -0.22108757602E+02  0.22108757602E+02  0.00000000000E+00 0.  1.
         25    2    1    2    0    0 -0.80834386404E+02  0.24882143023E+02  0.41213939076E+03  0.43890317981E+03  0.12499521895E+03 0.  0.
         23    2    1    2    0    0  0.80834386404E+02 -0.24882143023E+02  0.41183030782E+03  0.42928403398E+03  0.86759785169E+02 0.  0.
          5    1    3    3  502    0 -0.63244371537E+02  0.72670112680E+02  0.22284140541E+03  0.24281922859E+03  0.47000000000E+01 0. -1.
         -5    1    4    4    0  503  0.25073857540E+02  0.32162797214E+02  0.12822976726E+03  0.13464065905E+03  0.47000000000E+01 0.  1.
          5    1    4    4  503    0  0.55760528864E+02 -0.57044940237E+02  0.28360054056E+03  0.29464337493E+03  0.47000000000E+01 0. -1.
         -5    1    3    3    0  502 -0.17590014867E+02 -0.47787969658E+02  0.18929798535E+03  0.19608395121E+03  0.47000000000E+01 0. -1.
<mgrwt>
<rscale>  0 0.14285814E+03</rscale>
<asrwt>0</asrwt>
<pdfrwt beam="1">  1        2 0.13016589E+00 0.15092092E+03</pdfrwt>
<pdfrwt beam="2">  1       -2 0.34013480E-02 0.15092092E+03</pdfrwt>
<totfact> 0.11175470E+04</totfact>
</mgrwt>
</event>
<event>
 8    1  0.3572165E-004  0.1753444E+03  0.7546771E-02  0.1178302E+00
         -1   -1    0    0    0  501 -0.00000000000E+00  0.00000000000E+00  0.57267927494E+02  0.57267927494E+02  0.00000000000E+00 0.  1.
          1   -1    0    0  501    0  0.00000000000E+00 -0.00000000000E+00 -0.48952191446E+03  0.48952191446E+03  0.00000000000E+00 0. -1.
         25    2    1    2    0    0  0.12248152889E+03 -0.10954493275E+02 -0.28221028403E+03  0.33224732746E+03  0.12499566532E+03 0.  0.
         23    2    1    2    0    0 -0.12248152889E+03  0.10954493275E+02 -0.15004370293E+03  0.21454251449E+03  0.91616875589E+02 0.  0.
          5    1    3    3  502    0  0.11637071482E+03 -0.53347428190E+02 -0.23933576901E+03  0.27146232094E+03  0.47000000000E+01 0.  1.
         -5    1    4    4    0  503 -0.11780193480E+03 -0.17365790260E+02 -0.95441267325E+02  0.15267610168E+03  0.47000000000E+01 0.  1.
          5    1    4    4  503    0 -0.46795940878E+01  0.28320283535E+02 -0.54602435608E+02  0.61866412816E+02  0.47000000000E+01 0. -1.
         -5    1    3    3    0  502  0.61108140675E+01  0.42392934915E+02 -0.42874515022E+02  0.60785006520E+02  0.47000000000E+01 0.  1.
<mgrwt>
<rscale>  0 0.16956563E+03</rscale>
<asrwt>0</asrwt>
<pdfrwt beam="1">  1        1 0.75311064E-01 0.17534435E+03</pdfrwt>
<pdfrwt beam="2">  1       -1 0.88104504E-02 0.17534435E+03</pdfrwt>
<totfact> 0.33829491E+03</totfact>
</mgrwt>
</event>
<event>
 8    1  0.3572165E-004  0.1670216E+03  0.7546771E-02  0.1187807E+00
          1   -1    0    0  501    0  0.00000000000E+00  0.00000000000E+00  0.61082904012E+03  0.61082904012E+03  0.00000000000E+00 0. -1.
         -1   -1    0    0    0  501 -0.00000000000E+00 -0.00000000000E+00 -0.57853516411E+02  0.57853516411E+02  0.00000000000E+00 0.  1.
         25    2    1    2    0    0  0.30768535525E+02  0.10641922359E+03  0.10261521281E+03  0.19602578919E+03  0.12499789677E+03 0.  0.
         23    2    1    2    0    0 -0.30768535525E+02 -0.10641922359E+03  0.45036031090E+03  0.47265676734E+03  0.91149636081E+02 0.  0.
          5    1    4    4  502    0 -0.14376173248E+00 -0.10127139866E+03  0.40491854172E+03  0.41741709630E+03  0.47000000000E+01 0. -1.
         -5    1    4    4    0  502 -0.30624773793E+02 -0.51478249336E+01  0.45441769178E+02  0.55239671047E+02  0.47000000000E+01 0.  1.
          5    1    3    3  503    0  0.62033430614E+02  0.12580386172E+02  0.62833996137E+02  0.89311890029E+02  0.47000000000E+01 0.  1.
         -5    1    3    3    0  503 -0.31264895089E+02  0.93838837421E+02  0.39781216676E+02  0.10671389916E+03  0.47000000000E+01 0.  1.
<mgrwt>
<rscale>  0 0.16079045E+03</rscale>
<asrwt>0</asrwt>
<pdfrwt beam="1">  1        1 0.93973694E-01 0.16702164E+03</pdfrwt>
<pdfrwt beam="2">  1       -1 0.89005414E-02 0.16702164E+03</pdfrwt>
<totfact> 0.24709671E+03</totfact>
</mgrwt>
</event>
<event>
 8    1  0.3572165E-004  0.1525303E+03  0.7546771E-02  0.1204644E+00
         -1   -1    0    0    0  501 -0.00000000000E+00  0.00000000000E+00  0.80036877795E+02  0.80036877795E+02  0.00000000000E+00 0.  1.
          1   -1    0    0  501    0  0.00000000000E+00 -0.00000000000E+00 -0.26077814213E+03  0.26077814213E+03  0.00000000000E+00 0. -1.
         25    2    1    2    0    0  0.56681565532E+02  0.66522919815E+02 -0.13176675762E+03  0.20156382694E+03  0.12500959637E+03 0.  0.
         23    2    1    2    0    0 -0.56681565532E+02 -0.66522919815E+02 -0.48974506718E+02  0.13925119299E+03  0.96717597716E+02 0.  0.
          5    1    4    4  502    0 -0.44262400377E+02 -0.18327215418E+02 -0.70053140550E+02  0.84997525923E+02  0.47000000000E+01 0. -1.
         -5    1    4    4    0  502 -0.12419165155E+02 -0.48195704397E+02  0.21078633833E+02  0.54253667062E+02  0.47000000000E+01 0.  1.
          5    1    3    3  503    0  0.72286624356E+02 -0.10856331399E+02 -0.68590837341E+02  0.10034943428E+03  0.47000000000E+01 0. -1.
         -5    1    3    3    0  503 -0.15605058825E+02  0.77379251214E+02 -0.63175920275E+02  0.10121439266E+03  0.47000000000E+01 0. -1.
<mgrwt>
<rscale>  0 0.14665570E+03</rscale>
<asrwt>0</asrwt>
<pdfrwt beam="1">  1        1 0.40119714E-01 0.15253032E+03</pdfrwt>
<pdfrwt beam="2">  1       -1 0.12313366E-01 0.15253032E+03</pdfrwt>
<totfact> 0.44499086E+03</totfact>
</mgrwt>
</event>
<event>
 8    1  0.3572165E-004  0.1400236E+03  0.7546771E-02  0.1223426E+00
          1   -1    0    0  501    0  0.00000000000E+00  0.00000000000E+00  0.98719518372E+02  0.98719518372E+02  0.00000000000E+00 0. -1.
         -1   -1    0    0    0  501 -0.00000000000E+00 -0.00000000000E+00 -0.16337037551E+03  0.16337037551E+03  0.00000000000E+00 0.  1.
         25    2    1    2    0    0  0.38213824640E+02  0.50213015195E+02 -0.25179529282E+02  0.14226956291E+03  0.12499990618E+03 0.  0.
         23    2    1    2    0    0 -0.38213824640E+02 -0.50213015195E+02 -0.39471327854E+02  0.11982033097E+03  0.93900387132E+02 0.  0.
          5    1    3    3  502    0 -0.32246296838E+02  0.53453939131E+02 -0.33647517832E+02  0.71073150519E+02  0.47000000000E+01 0.  1.
         -5    1    4    4    0  503 -0.66181365973E+02 -0.47447086023E+02 -0.16500272194E+02  0.83219878374E+02  0.47000000000E+01 0.  1.
          5    1    4    4  503    0  0.27967541333E+02 -0.27659291723E+01 -0.22971055660E+02  0.36600452600E+02  0.47000000000E+01 0. -1.
         -5    1    3    3    0  502  0.70460121479E+02 -0.32409239361E+01  0.84679885500E+01  0.71196412387E+02  0.47000000000E+01 0.  1.
<mgrwt>
<rscale>  0 0.13275403E+03</rscale>
<asrwt>0</asrwt>
<pdfrwt beam="1">  1        1 0.15187618E-01 0.14002364E+03</pdfrwt>
<pdfrwt beam="2">  1       -1 0.25133904E-01 0.14002364E+03</pdfrwt>
<totfact> 0.48398788E+03</totfact>
</mgrwt>
</event>
<event>
 8    1  0.3572165E-004  0.1808558E+03  0.7546771E-02  0.1172494E+00
          2   -1    0    0  501    0  0.00000000000E+00  0.00000000000E+00  0.34485016409E+03  0.34485016409E+03  0.00000000000E+00 0. -1.
         -2   -1    0    0    0  501 -0.00000000000E+00 -0.00000000000E+00 -0.10759032070E+03  0.10759032070E+03  0.00000000000E+00 0.  1.
         25    2    1    2    0    0  0.92368995913E+02 -0.92477493302E+02  0.18552873797E+02  0.18180494687E+03  0.12499884562E+03 0.  0.
         23    2    1    2    0    0 -0.92368995913E+02  0.92477493302E+02  0.21870696960E+03  0.27063553792E+03  0.91250959790E+02 0.  0.
          5    1    3    3  502    0  0.85125438491E+02 -0.12238882678E+03  0.20762279362E+02  0.15059391569E+03  0.47000000000E+01 0.  1.
         -5    1    4    4    0  503 -0.91209819230E+02  0.52366641898E+02  0.99846534194E+02  0.14509623254E+03  0.47000000000E+01 0.  1.
          5    1    4    4  503    0 -0.11591766832E+01  0.40110851403E+02  0.11886043540E+03  0.12553930538E+03  0.47000000000E+01 0. -1.
         -5    1    3    3    0  502  0.72435574223E+01  0.29911333474E+02 -0.22094055650E+01  0.31211031179E+02  0.47000000000E+01 0.  1.
<mgrwt>
<rscale>  0 0.17523739E+03</rscale>
<asrwt>0</asrwt>
<pdfrwt beam="1">  1        2 0.53053871E-01 0.18085583E+03</pdfrwt>
<pdfrwt beam="2">  1       -2 0.16552357E-01 0.18085583E+03</pdfrwt>
<totfact> 0.26800785E+03</totfact>
</mgrwt>
</event>
<event>
 8    1  0.3572165E-004  0.1330036E+03  0.7546771E-02  0.1235850E+00
         -3   -1    0    0    0  501 -0.00000000000E+00  0.00000000000E+00  0.72254511812E+02  0.72254511812E+02  0.00000000000E+00 0.  1.
          3   -1    0    0  501    0  0.00000000000E+00 -0.00000000000E+00 -0.19276004006E+03  0.19276004006E+03  0.00000000000E+00 0. -1.
         25    2    1    2    0    0  0.23058615399E+02  0.39177506961E+02 -0.79616719722E+02  0.15501220122E+03  0.12499353453E+03 0.  0.
         23    2    1    2    0    0 -0.23058615399E+02 -0.39177506961E+02 -0.40888808521E+02  0.11000235064E+03  0.91444221736E+02 0.  0.
          5    1    4    4  502    0  0.29113775394E+02 -0.35634540916E+02 -0.52635856910E+01  0.46553493514E+02  0.47000000000E+01 0. -1.
         -5    1    3    3    0  503  0.24645532585E+02  0.65813788474E+02 -0.99142759505E+02  0.12161510511E+03  0.47000000000E+01 0. -1.
          5    1    3    3  503    0 -0.15869171868E+01 -0.26636281512E+02  0.19526039783E+02  0.33397096110E+02  0.47000000000E+01 0. -1.
         -5    1    4    4    0  502 -0.52172390792E+02 -0.35429660449E+01 -0.35625222830E+02  0.63448857130E+02  0.47000000000E+01 0.  1.
<mgrwt>
<rscale>  0 0.12450189E+03</rscale>
<asrwt>0</asrwt>
<pdfrwt beam="1">  1        3 0.29655391E-01 0.13300361E+03</pdfrwt>
<pdfrwt beam="2">  1       -3 0.11116079E-01 0.13300361E+03</pdfrwt>
<totfact> 0.15526810E+03</totfact>
</mgrwt>
</event>
<event>
 8    1  0.3572165E-004  0.1259343E+03  0.7546771E-02  0.1250533E+00
         -2   -1    0    0    0  501 -0.00000000000E+00  0.00000000000E+00  0.54399808922E+02  0.54399808922E+02  0.00000000000E+00 0.  1.
          2   -1    0    0  501    0  0.00000000000E+00 -0.00000000000E+00 -0.31319270112E+03  0.31319270112E+03  0.00000000000E+00 0. -1.
         25    2    1    2    0    0  0.15147978681E+01  0.15258447279E+02 -0.24719197235E+03  0.27742263587E+03  0.12499733146E+03 0.  0.
         23    2    1    2    0    0 -0.15147978681E+01 -0.15258447279E+02 -0.11600919844E+02  0.90169874171E+02  0.88096027384E+02 0.  0.
          5    1    3    3  502    0 -0.11656754920E+02  0.37133994689E+02 -0.24835757899E+03  0.25143267596E+03  0.47000000000E+01 0. -1.
         -5    1    3    3    0  502  0.13171552789E+02 -0.21875547410E+02  0.11656066396E+01  0.25989959912E+02  0.47000000000E+01 0. -1.
          5    1    4    4  503    0  0.59409600636E+01  0.36112526802E+02 -0.90171936721E+01  0.37984330720E+02  0.47000000000E+01 0. -1.
         -5    1    4    4    0  503 -0.74557579317E+01 -0.51370974081E+02 -0.25837261724E+01  0.52185543451E+02  0.47000000000E+01 0.  1.
<mgrwt>
<rscale>  0 0.11560252E+03</rscale>
<asrwt>0</asrwt>
<pdfrwt beam="1">  1        2 0.48183492E-01 0.12593430E+03</pdfrwt>
<pdfrwt beam="2">  1       -2 0.83692014E-02 0.12593430E+03</pdfrwt>
<totfact> 0.86725965E+03</totfact>
</mgrwt>
</event>
<event>
 8    1  0.3572165E-004  0.1551847E+03  0.7546771E-02  0.1202602E+00
          1   -1    0    0  501    0  0.00000000000E+00  0.00000000000E+00  0.12380261676E+04  0.12380261676E+04  0.00000000000E+00 0. -1.
         -1   -1    0    0    0  501 -0.00000000000E+00 -0.00000000000E+00 -0.26966878171E+02  0.26966878171E+02  0.00000000000E+00 0.  1.
         25    2    1    2    0    0 -0.22872697492E+02  0.89076878552E+02  0.10347398948E+04  0.10463120721E+04  0.12499780734E+03 0.  0.
         23    2    1    2    0    0  0.22872697492E+02 -0.89076878552E+02  0.17631939464E+03  0.21868097364E+03  0.90966965007E+02 0.  0.
          5    1    3    3  502    0 -0.70150266319E+02  0.62670233283E+02  0.49809865650E+03  0.50692502366E+03  0.47000000000E+01 0. -1.
         -5    1    4    4    0  503 -0.17347314028E+02  0.10194795329E+02  0.17592019618E+02  0.27137286342E+02  0.47000000000E+01 0.  1.
          5    1    4    4  503    0  0.40220011520E+02 -0.99271673881E+02  0.15872737502E+03  0.19154368730E+03  0.47000000000E+01 0. -1.
         -5    1    3    3    0  502  0.47277568827E+02  0.26406645269E+02  0.53664123829E+03  0.53938704847E+03  0.47000000000E+01 0. -1.
<mgrwt>
<rscale>  0 0.14828013E+03</rscale>
<asrwt>0</asrwt>
<pdfrwt beam="1">  1        1 0.19046552E+00 0.15518474E+03</pdfrwt>
<pdfrwt beam="2">  1       -1 0.41487514E-02 0.15518474E+03</pdfrwt>
<totfact> 0.24927623E+03</totfact>
</mgrwt>
</event>
<event>
 8    1  0.3572165E-004  0.1302080E+03  0.7546771E-02  0.1240278E+00
          1   -1    0    0  501    0  0.00000000000E+00  0.00000000000E+00  0.82031250161E+02  0.82031250161E+02  0.00000000000E+00 0. -1.
         -1   -1    0    0    0  501 -0.00000000000E+00 -0.00000000000E+00 -0.23837557677E+03  0.23837557677E+03  0.00000000000E+00 0.  1.
         25    2    1    2    0    0  0.31985396325E+02 -0.17507742472E+02 -0.17610365330E+03  0.21901282633E+03  0.12499813905E+03 0.  0.
         23    2    1    2    0    0 -0.31985396325E+02  0.17507742472E+02  0.19759326690E+02  0.10139400060E+03  0.92524190041E+02 0.  0.
          5    1    3    3  502    0  0.10190006752E+02  0.39511613287E+02 -0.14427906829E+03  0.15001181077E+03  0.47000000000E+01 0. -1.
         -5    1    4    4    0  503 -0.41645751401E+01 -0.37285612357E+02  0.81443632850E+01  0.38677916545E+02  0.47000000000E+01 0.  1.
          5    1    4    4  503    0 -0.27820821185E+02  0.54793354830E+02  0.11614963405E+02  0.62716084060E+02  0.47000000000E+01 0. -1.
         -5    1    3    3    0  502  0.21795389573E+02 -0.57019355759E+02 -0.31824585010E+02  0.69001015564E+02  0.47000000000E+01 0. -1.
<mgrwt>
<rscale>  0 0.12172492E+03</rscale>
<asrwt>0</asrwt>
<pdfrwt beam="1">  1        1 0.12620193E-01 0.13020799E+03</pdfrwt>
<pdfrwt beam="2">  1       -1 0.36673165E-01 0.13020799E+03</pdfrwt>
<totfact> 0.32463301E+03</totfact>
</mgrwt>
</event>
<event>
 8    1  0.3572165E-004  0.1380913E+03  0.7546771E-02  0.1229065E+00
          2   -1    0    0  501    0  0.00000000000E+00  0.00000000000E+00  0.18301358137E+03  0.18301358137E+03  0.00000000000E+00 0. -1.
         -2   -1    0    0    0  501 -0.00000000000E+00 -0.00000000000E+00 -0.11079661465E+03  0.11079661465E+03  0.00000000000E+00 0.  1.
         25    2    1    2    0    0  0.19071661643E+02  0.55504241682E+02  0.11579131734E+03  0.18021332611E+03  0.12499905846E+03 0.  0.
         23    2    1    2    0    0 -0.19071661643E+02 -0.55504241682E+02 -0.43574350615E+02  0.11359686991E+03  0.86954446109E+02 0.  0.
          5    1    3    3  502    0 -0.36660301565E+02  0.58494183252E+00  0.90646204860E+02  0.97893535657E+02  0.47000000000E+01 0.  1.
         -5    1    4    4    0  503 -0.50270175217E+02 -0.49893211938E+02 -0.19790998093E+02  0.73689868499E+02  0.47000000000E+01 0.  1.
          5    1    4    4  503    0  0.31198513574E+02 -0.56110297445E+01 -0.23783352523E+02  0.39907001406E+02  0.47000000000E+01 0. -1.
         -5    1    3    3    0  502  0.55731963208E+02  0.54919299850E+02  0.25145112477E+02  0.82319790454E+02  0.47000000000E+01 0.  1.
<mgrwt>
<rscale>  0 0.12892173E+03</rscale>
<asrwt>0</asrwt>
<pdfrwt beam="1">  1        2 0.28155936E-01 0.13809132E+03</pdfrwt>
<pdfrwt beam="2">  1       -2 0.17045633E-01 0.13809132E+03</pdfrwt>
<totfact> 0.49734636E+03</totfact>
</mgrwt>
</event>
<event>
 8    1  0.3572165E-004  0.1443222E+03  0.7546771E-02  0.1217769E+00
         -2   -1    0    0    0  501 -0.00000000000E+00  0.00000000000E+00  0.38180268899E+02  0.38180268899E+02  0.00000000000E+00 0.  1.
          2   -1    0    0  501    0  0.00000000000E+00 -0.00000000000E+00 -0.47917096617E+03  0.47917096617E+03  0.00000000000E+00 0. -1.
         25    2    1    2    0    0 -0.30403768966E+02  0.65409220160E+02 -0.17365258456E+03  0.22579662500E+03  0.12500456188E+03 0.  0.
         23    2    1    2    0    0  0.30403768966E+02 -0.65409220160E+02 -0.26733811272E+03  0.29155461007E+03  0.91277975939E+02 0.  0.
          5    1    4    4  502    0  0.28381002307E+02 -0.19869319179E+00 -0.18081232898E+03  0.18308661634E+03  0.47000000000E+01 0. -1.
         -5    1    3    3    0  503  0.33191753129E+02 -0.92869637454E+01 -0.12285968690E+02  0.36891397345E+02  0.47000000000E+01 0. -1.
          5    1    3    3  503    0 -0.63595522095E+02  0.74696183905E+02 -0.16136661587E+03  0.18890522766E+03  0.47000000000E+01 0. -1.
         -5    1    4    4    0  502  0.20227666584E+01 -0.65210526968E+02 -0.86525783736E+02  0.10846799373E+03  0.47000000000E+01 0.  1.
<mgrwt>
<rscale>  0 0.13675078E+03</rscale>
<asrwt>0</asrwt>
<pdfrwt beam="1">  1        2 0.73718605E-01 0.14432219E+03</pdfrwt>
<pdfrwt beam="2">  1       -2 0.58738879E-02 0.14432219E+03</pdfrwt>
<totfact> 0.95528109E+03</totfact>
</mgrwt>
</event>
<event>
 8    1  0.3572165E-004  0.1546854E+03  0.7546771E-02  0.1203586E+00
          2   -1    0    0  501    0  0.00000000000E+00  0.00000000000E+00  0.74681072588E+03  0.74681072588E+03  0.00000000000E+00 0. -1.
         -2   -1    0    0    0  501 -0.00000000000E+00 -0.00000000000E+00 -0.27298195940E+02  0.27298195940E+02  0.00000000000E+00 0.  1.
         25    2    1    2    0    0 -0.47391068105E+02 -0.77818266541E+02  0.33736998274E+03  0.37114159273E+03  0.12500392256E+03 0.  0.
         23    2    1    2    0    0  0.47391068105E+02  0.77818266541E+02  0.38214254720E+03  0.40296732909E+03  0.89711459642E+02 0.  0.
          5    1    4    4  502    0  0.68872721473E+02  0.71566801293E+02  0.25340688435E+03  0.27221755609E+03  0.47000000000E+01 0. -1.
         -5    1    3    3    0  503 -0.69436926492E+02 -0.44389080162E+01  0.10192649354E+03  0.12350016498E+03  0.47000000000E+01 0. -1.
          5    1    3    3  503    0  0.22045858387E+02 -0.73379358525E+02  0.23544348920E+03  0.24764142775E+03  0.47000000000E+01 0. -1.
         -5    1    4    4    0  502 -0.21481653368E+02  0.62514652479E+01  0.12873566285E+03  0.13074977300E+03  0.47000000000E+01 0.  1.
<mgrwt>
<rscale>  0 0.14749452E+03</rscale>
<asrwt>0</asrwt>
<pdfrwt beam="1">  1        2 0.11489394E+00 0.15468541E+03</pdfrwt>
<pdfrwt beam="2">  1       -2 0.41997230E-02 0.15468541E+03</pdfrwt>
<totfact> 0.95575652E+03</totfact>
</mgrwt>
</event>
<event>
 8    1  0.3572165E-004  0.1734500E+03  0.7546771E-02  0.1180760E+00
          1   -1    0    0  501    0  0.00000000000E+00  0.00000000000E+00  0.44585839162E+03  0.44585839162E+03  0.00000000000E+00 0. -1.
         -1   -1    0    0    0  501 -0.00000000000E+00 -0.00000000000E+00 -0.74349272066E+02  0.74349272066E+02  0.00000000000E+00 0.  1.
         25    2    1    2    0    0  0.12024524000E+03 -0.88392521773E+00  0.31577868657E+03  0.36027917029E+03  0.12500081034E+03 0.  0.
         23    2    1    2    0    0 -0.12024524000E+03  0.88392521773E+00  0.55730432981E+02  0.15992849339E+03  0.89507221902E+02 0.  0.
          5    1    3    3  502    0  0.10126619937E+03  0.53141790606E+02  0.23190864596E+03  0.25861671082E+03  0.47000000000E+01 0. -1.
         -5    1    4    4    0  503 -0.81698604122E+02  0.29615941361E+02  0.67585436850E+02  0.11018914272E+03  0.47000000000E+01 0.  1.
          5    1    4    4  503    0 -0.38546635879E+02 -0.28732016144E+02 -0.11855003869E+02  0.49739350680E+02  0.47000000000E+01 0. -1.
         -5    1    3    3    0  502  0.18979040629E+02 -0.54025715823E+02  0.83870040613E+02  0.10166245947E+03  0.47000000000E+01 0. -1.
<mgrwt>
<rscale>  0 0.16723767E+03</rscale>
<asrwt>0</asrwt>
<pdfrwt beam="1">  1        1 0.68593597E-01 0.17345000E+03</pdfrwt>
<pdfrwt beam="2">  1       -1 0.11438350E-01 0.17345000E+03</pdfrwt>
<totfact> 0.25567733E+03</totfact>
</mgrwt>
</event>
<event>
 8    1  0.3572165E-004  0.2395431E+03  0.7546771E-02  0.1123080E+00
         -2   -1    0    0    0  501 -0.00000000000E+00  0.00000000000E+00  0.25945269031E+02  0.25945269031E+02  0.00000000000E+00 0.  1.
          2   -1    0    0  501    0  0.00000000000E+00 -0.00000000000E+00 -0.20582027986E+04  0.20582027986E+04  0.00000000000E+00 0. -1.
         25    2    1    2    0    0 -0.19242747257E+03 -0.68745957422E+02 -0.10193300793E+04  0.10470982279E+04  0.12500619831E+03 0.  0.
         23    2    1    2    0    0  0.19242747257E+03  0.68745957422E+02 -0.10129274503E+04  0.10370498397E+04  0.87726914611E+02 0.  0.
          5    1    3    3  502    0 -0.16534585876E+03 -0.10316477767E+03 -0.80248166243E+03  0.82582148973E+03  0.47000000000E+01 0. -1.
         -5    1    4    4    0  503  0.25052759885E+02 -0.19718122304E+02 -0.18039979491E+03  0.18325561691E+03  0.47000000000E+01 0.  1.
          5    1    4    4  503    0  0.16737471269E+03  0.88464079726E+02 -0.83252765542E+03  0.85379422280E+03  0.47000000000E+01 0. -1.
         -5    1    3    3    0  502 -0.27081613810E+02  0.34418820243E+02 -0.21684841682E+03  0.22127673820E+03  0.47000000000E+01 0. -1.
<mgrwt>
<rscale>  0 0.23513046E+03</rscale>
<asrwt>0</asrwt>
<pdfrwt beam="1">  1        2 0.31664657E+00 0.23954308E+03</pdfrwt>
<pdfrwt beam="2">  1       -2 0.39915801E-02 0.23954308E+03</pdfrwt>
<totfact> 0.19122547E+03</totfact>
</mgrwt>
</event>
<event>
 8    1  0.3572165E-004  0.1403641E+03  0.7546771E-02  0.1223561E+00
         -1   -1    0    0    0  501 -0.00000000000E+00  0.00000000000E+00  0.37976393701E+03  0.37976393701E+03  0.00000000000E+00 0.  1.
          1   -1    0    0  501    0  0.00000000000E+00 -0.00000000000E+00 -0.43341736410E+02  0.43341736410E+02  0.00000000000E+00 0. -1.
         25    2    1    2    0    0  0.58578410985E+02  0.25518687907E+02  0.14846965932E+03  0.20431670386E+03  0.12497776631E+03 0.  0.
         23    2    1    2    0    0 -0.58578410985E+02 -0.25518687907E+02  0.18795254128E+03  0.21878896956E+03  0.91977289376E+02 0.  0.
          5    1    4    4  502    0 -0.60960566320E+01 -0.24044842243E+02  0.17933325934E+01  0.25310519290E+02  0.47000000000E+01 0. -1.
         -5    1    3    3    0  503 -0.37998765755E+02  0.20733973873E+02  0.47323357979E+02  0.64307029801E+02  0.47000000000E+01 0.  1.
          5    1    3    3  503    0  0.96577176739E+02  0.47847140340E+01  0.10114630134E+03  0.14000967406E+03  0.47000000000E+01 0.  1.
         -5    1    4    4    0  502 -0.52482354353E+02 -0.14738456639E+01  0.18615920869E+03  0.19347845027E+03  0.47000000000E+01 0.  1.
<mgrwt>
<rscale>  0 0.13265995E+03</rscale>
<asrwt>0</asrwt>
<pdfrwt beam="1">  1        1 0.66679597E-02 0.14036408E+03</pdfrwt>
<pdfrwt beam="2">  1       -1 0.58425219E-01 0.14036408E+03</pdfrwt>
<totfact> 0.32937093E+03</totfact>
</mgrwt>
</event>
<event>
 8    1  0.3572165E-004  0.1923746E+03  0.7546771E-02  0.1161439E+00
         -1   -1    0    0    0  501 -0.00000000000E+00  0.00000000000E+00  0.88958208499E+02  0.88958208499E+02  0.00000000000E+00 0.  1.
          1   -1    0    0  501    0  0.00000000000E+00 -0.00000000000E+00 -0.44568262601E+03  0.44568262601E+03  0.00000000000E+00 0. -1.
         25    2    1    2    0    0  0.13949873571E+02 -0.14556770978E+03 -0.77655356779E+02  0.20745682511E+03  0.12499369082E+03 0.  0.
         23    2    1    2    0    0 -0.13949873571E+02  0.14556770978E+03 -0.27906906073E+03  0.32718400940E+03  0.88234223776E+02 0.  0.
          5    1    3    3  502    0  0.68782833031E+02 -0.69006425961E+02 -0.31712845074E+02  0.10257075356E+03  0.47000000000E+01 0. -1.
         -5    1    3    3    0  502 -0.54832959460E+02 -0.76561283818E+02 -0.45942511705E+02  0.10488607155E+03  0.47000000000E+01 0. -1.
          5    1    4    4  503    0 -0.47202908670E+02  0.10113186429E+03 -0.21501353901E+03  0.24229874230E+03  0.47000000000E+01 0. -1.
         -5    1    4    4    0  503  0.33253035098E+02  0.44435845491E+02 -0.64055521720E+02  0.84885267099E+02  0.47000000000E+01 0.  1.
<mgrwt>
<rscale>  0 0.18673577E+03</rscale>
<asrwt>0</asrwt>
<pdfrwt beam="1">  1        1 0.68566559E-01 0.19237458E+03</pdfrwt>
<pdfrwt beam="2">  1       -1 0.13685878E-01 0.19237458E+03</pdfrwt>
<totfact> 0.19397329E+03</totfact>
</mgrwt>
</event>
<event>
 8    1  0.3572165E-004  0.1267897E+03  0.7546771E-02  0.1247167E+00
         -1   -1    0    0    0  501 -0.00000000000E+00  0.00000000000E+00  0.34897056431E+02  0.34897056431E+02  0.00000000000E+00 0.  1.
          1   -1    0    0  501    0  0.00000000000E+00 -0.00000000000E+00 -0.35371252580E+03  0.35371252580E+03  0.00000000000E+00 0. -1.
         25    2    1    2    0    0 -0.20529051457E+02  0.52338781096E+01 -0.20655517471E+03  0.24236475712E+03  0.12500719925E+03 0.  0.
         23    2    1    2    0    0  0.20529051457E+02 -0.52338781096E+01 -0.11226029466E+03  0.14624482511E+03  0.91303557868E+02 0.  0.
          5    1    3    3  502    0  0.21475125691E+02 -0.50230383676E+02 -0.68899333874E+02  0.88053851000E+02  0.47000000000E+01 0.  1.
         -5    1    3    3    0  502 -0.42004177147E+02  0.55464261786E+02 -0.13765584083E+03  0.15431090612E+03  0.47000000000E+01 0.  1.
          5    1    4    4  503    0 -0.15249807989E+02  0.15640903910E+02 -0.10046416362E+03  0.10291905892E+03  0.47000000000E+01 0. -1.
         -5    1    4    4    0  503  0.35778859446E+02 -0.20874782020E+02 -0.11796131045E+02  0.43325766182E+02  0.47000000000E+01 0.  1.
<mgrwt>
<rscale>  0 0.11756603E+03</rscale>
<asrwt>0</asrwt>
<pdfrwt beam="1">  1        1 0.54417312E-01 0.12678973E+03</pdfrwt>
<pdfrwt beam="2">  1       -1 0.53687779E-02 0.12678973E+03</pdfrwt>
<totfact> 0.10570027E+04</totfact>
</mgrwt>
</event>
<event>
 8    1  0.3572165E-004  0.1366089E+03  0.7546771E-02  0.1229725E+00
         -2   -1    0    0    0  501 -0.00000000000E+00  0.00000000000E+00  0.63910797296E+03  0.63910797296E+03  0.00000000000E+00 0.  1.
          2   -1    0    0  501    0  0.00000000000E+00 -0.00000000000E+00 -0.24038887573E+02  0.24038887573E+02  0.00000000000E+00 0. -1.
         25    2    1    2    0    0 -0.78110729751E+01 -0.54550963043E+02  0.28200089904E+03  0.31334726299E+03  0.12500071892E+03 0.  0.
         23    2    1    2    0    0  0.78110729751E+01  0.54550963043E+02  0.33306818635E+03  0.34979959755E+03  0.91588870822E+02 0.  0.
          5    1    3    3  502    0  0.42372872745E+02 -0.23844067575E+02  0.22857826773E+03  0.23373941555E+03  0.47000000000E+01 0.  1.
         -5    1    3    3    0  502 -0.50183945720E+02 -0.30706895469E+02  0.53422631312E+02  0.79607847437E+02  0.47000000000E+01 0.  1.
          5    1    4    4  503    0 -0.31604136198E+02  0.13004689128E+02  0.48676159449E+02  0.59660722949E+02  0.47000000000E+01 0. -1.
         -5    1    4    4    0  503  0.39415209173E+02  0.41546273915E+02  0.28439202690E+03  0.29013887460E+03  0.47000000000E+01 0.  1.
<mgrwt>
<rscale>  0 0.12848220E+03</rscale>
<asrwt>0</asrwt>
<pdfrwt beam="1">  1        2 0.36982909E-02 0.13660893E+03</pdfrwt>
<pdfrwt beam="2">  1       -2 0.98324290E-01 0.13660893E+03</pdfrwt>
<totfact> 0.20178063E+03</totfact>
</mgrwt>
</event>
<event>
 8    1  0.3572165E-004  0.1270666E+03  0.7546771E-02  0.1251403E+00
          1   -1    0    0  501    0  0.00000000000E+00  0.00000000000E+00  0.25615610182E+03  0.25615610182E+03  0.00000000000E+00 0. -1.
         -1   -1    0    0    0  501 -0.00000000000E+00 -0.00000000000E+00 -0.44544768400E+02  0.44544768400E+02  0.00000000000E+00 0.  1.
         25    2    1    2    0    0  0.26422221612E+01 -0.22653211746E+02  0.14065408045E+03  0.18955079201E+03  0.12500313222E+03 0.  0.
         23    2    1    2    0    0 -0.26422221612E+01  0.22653211746E+02  0.70957252969E+02  0.11115007821E+03  0.82457618180E+02 0.  0.
          5    1    3    3  502    0 -0.55482626627E+02 -0.11829401871E+02  0.10740255422E+03  0.12155515315E+03  0.47000000000E+01 0. -1.
         -5    1    3    3    0  502  0.58124848788E+02 -0.10823809875E+02  0.33251526234E+02  0.67995638858E+02  0.47000000000E+01 0. -1.
          5    1    4    4  503    0 -0.36929476162E+02  0.15705482134E+02  0.63196021846E+02  0.75008503223E+02  0.47000000000E+01 0. -1.
         -5    1    4    4    0  503  0.34287254001E+02  0.69477296117E+01  0.77612311231E+01  0.36141574982E+02  0.47000000000E+01 0.  1.
<mgrwt>
<rscale>  0 0.11510208E+03</rscale>
<asrwt>0</asrwt>
<pdfrwt beam="1">  1        1 0.39408630E-01 0.12706665E+03</pdfrwt>
<pdfrwt beam="2">  1       -1 0.68530415E-02 0.12706665E+03</pdfrwt>
<totfact> 0.10958067E+04</totfact>
</mgrwt>
</event>
<event>
 8    1  0.3572165E-004  0.2588998E+03  0.7546771E-02  0.1110015E+00
         -1   -1    0    0    0  501 -0.00000000000E+00  0.00000000000E+00  0.20219972783E+03  0.20219972783E+03  0.00000000000E+00 0.  1.
          1   -1    0    0  501    0  0.00000000000E+00 -0.00000000000E+00 -0.37982655518E+03  0.37982655518E+03  0.00000000000E+00 0. -1.
         25    2    1    2    0    0  0.21705843647E+03  0.65498615985E+02  0.30619850916E+02  0.26070423436E+03  0.12499875603E+03 0.  0.
         23    2    1    2    0    0 -0.21705843647E+03 -0.65498615985E+02 -0.20824667827E+03  0.32132204865E+03  0.92069247871E+02 0.  0.
          5    1    4    4  502    0 -0.41900507551E+02  0.59230128409E+01 -0.86245511152E+02  0.96182705348E+02  0.47000000000E+01 0. -1.
         -5    1    3    3    0  503  0.16434793189E+03 -0.11308948646E+02  0.95450437130E+01  0.16507977737E+03  0.47000000000E+01 0.  1.
          5    1    3    3  503    0  0.52710504575E+02  0.76807564631E+02  0.21074807203E+02  0.95624456996E+02  0.47000000000E+01 0.  1.
         -5    1    4    4    0  502 -0.17515792891E+03 -0.71421628826E+02 -0.12200116711E+03  0.22513934330E+03  0.47000000000E+01 0.  1.
<mgrwt>
<rscale>  0 0.25527608E+03</rscale>
<asrwt>0</asrwt>
<pdfrwt beam="1">  1        1 0.58434854E-01 0.25889983E+03</pdfrwt>
<pdfrwt beam="2">  1       -1 0.31107651E-01 0.25889983E+03</pdfrwt>
<totfact> 0.62457060E+02</totfact>
</mgrwt>
</event>
<event>
 8    1  0.3572165E-004  0.1775672E+03  0.7546771E-02  0.1175652E+00
          4   -1    0    0  501    0  0.00000000000E+00  0.00000000000E+00  0.32067967529E+02  0.32067967529E+02  0.00000000000E+00 0. -1.
         -4   -1    0    0    0  501 -0.00000000000E+00 -0.00000000000E+00 -0.87411408691E+03  0.87411408691E+03  0.00000000000E+00 0.  1.
         25    2    1    2    0    0 -0.10978646861E+03 -0.62081497763E+02 -0.42218491447E+03  0.45800679843E+03  0.12499177713E+03 0.  0.
         23    2    1    2    0    0  0.10978646861E+03  0.62081497763E+02 -0.41986120491E+03  0.44817525601E+03  0.93115238573E+02 0.  0.
          5    1    3    3  502    0 -0.61749567704E+02  0.31304632538E+02 -0.12791713031E+03  0.14552618787E+03  0.47000000000E+01 0. -1.
         -5    1    3    3    0  502 -0.48036900902E+02 -0.93386130301E+02 -0.29426778416E+03  0.31248061056E+03  0.47000000000E+01 0. -1.
          5    1    4    4  503    0  0.17820041602E+02  0.10333866059E+02 -0.73754009113E+01  0.22379213771E+02  0.47000000000E+01 0. -1.
         -5    1    4    4    0  503  0.91966427004E+02  0.51747631704E+02 -0.41248580400E+03  0.42579604224E+03  0.47000000000E+01 0.  1.
<mgrwt>
<rscale>  0 0.17212329E+03</rscale>
<asrwt>0</asrwt>
<pdfrwt beam="1">  1        4 0.49335331E-02 0.17756724E+03</pdfrwt>
<pdfrwt beam="2">  1       -4 0.13447910E+00 0.17756724E+03</pdfrwt>
<totfact> 0.17887616E+02</totfact>
</mgrwt>
</event>
<event>
 8    1  0.3572165E-004  0.1284485E+03  0.7546771E-02  0.1242804E+00
          2   -1    0    0  501    0  0.00000000000E+00  0.00000000000E+00  0.14360483027E+03  0.14360483027E+03  0.00000000000E+00 0. -1.
         -2   -1    0    0    0  501 -0.00000000000E+00 -0.00000000000E+00 -0.92139210241E+02  0.92139210241E+02  0.00000000000E+00 0.  1.
         25    2    1    2    0    0 -0.28516866010E+02 -0.77821623103E+01  0.96724632565E+01  0.12881211866E+03  0.12500092668E+03 0.  0.
         23    2    1    2    0    0  0.28516866010E+02  0.77821623103E+01  0.41793156778E+02  0.10693192186E+03  0.93882875229E+02 0.  0.
          5    1    4    4  502    0 -0.28090135546E+02  0.77500362426E+01  0.40501214897E+02  0.50115438588E+02  0.47000000000E+01 0. -1.
         -5    1    3    3    0  503 -0.56655903629E+02 -0.52252917635E+01 -0.41218023196E+02  0.70414561890E+02  0.47000000000E+01 0.  1.
          5    1    3    3  503    0  0.28139037619E+02 -0.25568705467E+01  0.50890486453E+02  0.58397556769E+02  0.47000000000E+01 0.  1.
         -5    1    4    4    0  502  0.56607001555E+02  0.32126067662E-01  0.12919418804E+01  0.56816483268E+02  0.47000000000E+01 0.  1.
<mgrwt>
<rscale>  0 0.12017790E+03</rscale>
<asrwt>0</asrwt>
<pdfrwt beam="1">  1        2 0.22093051E-01 0.12844845E+03</pdfrwt>
<pdfrwt beam="2">  1       -2 0.14175263E-01 0.12844845E+03</pdfrwt>
<totfact> 0.87485228E+03</totfact>
</mgrwt>
</event>
<event>
 8    1  0.3572165E-004  0.1416111E+03  0.7546771E-02  0.1223685E+00
          2   -1    0    0  501    0  0.00000000000E+00  0.00000000000E+00  0.13816479441E+03  0.13816479441E+03  0.00000000000E+00 0.  1.
         -2   -1    0    0    0  501 -0.00000000000E+00 -0.00000000000E+00 -0.11752962783E+03  0.11752962783E+03  0.00000000000E+00 0. -1.
         25    2    1    2    0    0  0.47340228968E+02  0.46764470828E+02  0.35265635978E+02  0.14593613419E+03  0.12500270866E+03 0.  0.
         23    2    1    2    0    0 -0.47340228968E+02 -0.46764470828E+02 -0.14630469402E+02  0.10975828805E+03  0.86051253037E+02 0.  0.
          5    1    3    3  502    0  0.80087098858E+02 -0.47149264515E+01  0.18008033198E+02  0.82356257775E+02  0.47000000000E+01 0.  1.
         -5    1    4    4    0  503 -0.43635101896E+01 -0.27643950675E+02  0.32403587962E+02  0.43073318225E+02  0.47000000000E+01 0.  1.
          5    1    4    4  503    0 -0.42976718778E+02 -0.19120520153E+02 -0.47034057364E+02  0.66684969821E+02  0.47000000000E+01 0. -1.
         -5    1    3    3    0  502 -0.32746869891E+02  0.51479397280E+02  0.17257602780E+02  0.63579876420E+02  0.47000000000E+01 0.  1.
<mgrwt>
<rscale>  0 0.13257418E+03</rscale>
<asrwt>0</asrwt>
<pdfrwt beam="1">  1        2 0.21256122E-01 0.14161105E+03</pdfrwt>
<pdfrwt beam="2">  1       -2 0.18081481E-01 0.14161105E+03</pdfrwt>
<totfact> 0.61633122E+03</totfact>
</mgrwt>
</event>
<event>
 8    1  0.3572165E-004  0.3976297E+03  0.7546771E-02  0.1045436E+00
         -2   -1    0    0    0  501 -0.00000000000E+00  0.00000000000E+00  0.13093932668E+04  0.13093932668E+04  0.00000000000E+00 0.  1.
          2   -1    0    0  501    0  0.00000000000E+00 -0.00000000000E+00 -0.11821093232E+03  0.11821093232E+03  0.00000000000E+00 0. -1.
         25    2    1    2    0    0 -0.35241950999E+03  0.13522434962E+03  0.56635694805E+03  0.69200401240E+03  0.12499689925E+03 0.  0.
         23    2    1    2    0    0  0.35241950999E+03 -0.13522434962E+03  0.62482538647E+03  0.73560018677E+03  0.90640694166E+02 0.  0.
          5    1    3    3  502    0 -0.12964721466E+03  0.92734235890E+02  0.15576475505E+03  0.22291879170E+03  0.47000000000E+01 0.  1.
         -5    1    4    4    0  503  0.23171199192E+03 -0.11797489586E+03  0.48254208029E+03  0.54815825498E+03  0.47000000000E+01 0.  1.
          5    1    4    4  503    0  0.12070751807E+03 -0.17249453758E+02  0.14228330618E+03  0.18744193178E+03  0.47000000000E+01 0. -1.
         -5    1    3    3    0  502 -0.22277229533E+03  0.42490113732E+02  0.41059219300E+03  0.46908522071E+03  0.47000000000E+01 0.  1.
<mgrwt>
<rscale>  0 0.39525153E+03</rscale>
<asrwt>0</asrwt>
<pdfrwt beam="1">  1        2 0.18186298E-01 0.39762968E+03</pdfrwt>
<pdfrwt beam="2">  1       -2 0.20144511E+00 0.39762968E+03</pdfrwt>
<totfact> 0.43262375E+01</totfact>
</mgrwt>
</event>
<event>
 8    1  0.3572165E-004  0.1301643E+03  0.7546771E-02  0.1240775E+00
         -1   -1    0    0    0  501 -0.00000000000E+00  0.00000000000E+00  0.13796204778E+03  0.13796204778E+03  0.00000000000E+00 0.  1.
          1   -1    0    0  501    0  0.00000000000E+00 -0.00000000000E+00 -0.10152261181E+03  0.10152261181E+03  0.00000000000E+00 0. -1.
         25    2    1    2    0    0 -0.14567873323E+02  0.33129298514E+02  0.51124181523E+02  0.13984430611E+03  0.12503189458E+03 0.  0.
         23    2    1    2    0    0  0.14567873323E+02 -0.33129298514E+02 -0.14684745551E+02  0.99640353472E+02  0.91666705706E+02 0.  0.
          5    1    4    4  502    0 -0.94276371366E+01  0.25050291449E+02  0.13710093132E+02  0.30437708477E+02  0.47000000000E+01 0. -1.
         -5    1    3    3    0  503 -0.40196560995E+02 -0.67770281282E+01  0.75786186111E+02  0.86181944927E+02  0.47000000000E+01 0. -1.
          5    1    3    3  503    0  0.25628687672E+02  0.39906326642E+02 -0.24662004588E+02  0.53662361187E+02  0.47000000000E+01 0. -1.
         -5    1    4    4    0  502  0.23995510459E+02 -0.58179589963E+02 -0.28394838683E+02  0.69202644995E+02  0.47000000000E+01 0.  1.
<mgrwt>
<rscale>  0 0.12141872E+03</rscale>
<asrwt>0</asrwt>
<pdfrwt beam="1">  1        1 0.15618863E-01 0.13016431E+03</pdfrwt>
<pdfrwt beam="2">  1       -1 0.21224930E-01 0.13016431E+03</pdfrwt>
<totfact> 0.61180126E+03</totfact>
</mgrwt>
</event>
<event>
 8    1  0.3572165E-004  0.1724451E+03  0.7546771E-02  0.1181628E+00
          1   -1    0    0  501    0  0.00000000000E+00  0.00000000000E+00  0.12349005385E+03  0.12349005385E+03  0.00000000000E+00 0. -1.
         -1   -1    0    0    0  501 -0.00000000000E+00 -0.00000000000E+00 -0.21327438189E+03  0.21327438189E+03  0.00000000000E+00 0.  1.
         25    2    1    2    0    0  0.21810014376E+02 -0.11675820366E+03 -0.27090341518E+02  0.17456005240E+03  0.12501668066E+03 0.  0.
         23    2    1    2    0    0 -0.21810014376E+02  0.11675820366E+03 -0.62693986520E+02  0.16220438334E+03  0.90948178550E+02 0.  0.
          5    1    3    3  502    0  0.28774553108E+02  0.20046394383E+02 -0.56777768513E+01  0.35835178028E+02  0.47000000000E+01 0.  1.
         -5    1    4    4    0  503 -0.33911129939E+02  0.11091273862E+02 -0.39137864326E+02  0.53168068553E+02  0.47000000000E+01 0.  1.
          5    1    4    4  503    0  0.12101115562E+02  0.10566692980E+03 -0.23556122194E+02  0.10903631479E+03  0.47000000000E+01 0. -1.
         -5    1    3    3    0  502 -0.69645387318E+01 -0.13680459804E+03 -0.21412564667E+02  0.13872487437E+03  0.47000000000E+01 0.  1.
<mgrwt>
<rscale>  0 0.16642557E+03</rscale>
<asrwt>0</asrwt>
<pdfrwt beam="1">  1        1 0.18998470E-01 0.17244514E+03</pdfrwt>
<pdfrwt beam="2">  1       -1 0.32811443E-01 0.17244514E+03</pdfrwt>
<totfact> 0.23438898E+03</totfact>
</mgrwt>
</event>
<event>
 8    1  0.3572165E-004  0.1595718E+03  0.7546771E-02  0.1196650E+00
          2   -1    0    0  501    0  0.00000000000E+00  0.00000000000E+00  0.25543353088E+03  0.25543353088E+03  0.00000000000E+00 0. -1.
         -2   -1    0    0    0  501 -0.00000000000E+00 -0.00000000000E+00 -0.13603705481E+03  0.13603705481E+03  0.00000000000E+00 0.  1.
         25    2    1    2    0    0 -0.64317490227E+02  0.75485517559E+02 -0.56687933421E+02  0.16934191719E+03  0.12501344012E+03 0.  0.
         23    2    1    2    0    0  0.64317490227E+02 -0.75485517559E+02  0.17608440949E+03  0.22212866851E+03  0.92198824268E+02 0.  0.
          5    1    3    3  502    0  0.56692561188E+01  0.79259065939E+02 -0.58961986126E+02  0.99059304492E+02  0.47000000000E+01 0.  1.
         -5    1    4    4    0  503  0.90084981331E+01 -0.59678844107E+02  0.35548891313E+02  0.70203498104E+02  0.47000000000E+01 0.  1.
          5    1    4    4  503    0  0.55308992094E+02 -0.15806673452E+02  0.14053551818E+03  0.15192517040E+03  0.47000000000E+01 0. -1.
         -5    1    3    3    0  502 -0.69986746346E+02 -0.37735483799E+01  0.22740527046E+01  0.70282612695E+02  0.47000000000E+01 0.  1.
<mgrwt>
<rscale>  0 0.15315406E+03</rscale>
<asrwt>0</asrwt>
<pdfrwt beam="1">  1        2 0.39297466E-01 0.15957181E+03</pdfrwt>
<pdfrwt beam="2">  1       -2 0.20928778E-01 0.15957181E+03</pdfrwt>
<totfact> 0.24755800E+03</totfact>
</mgrwt>
</event>
<event>
 8    1  0.3572165E-004  0.1389793E+03  0.7546771E-02  0.1225796E+00
         -1   -1    0    0    0  501 -0.00000000000E+00  0.00000000000E+00  0.17346975546E+02  0.17346975546E+02  0.00000000000E+00 0.  1.
          1   -1    0    0  501    0  0.00000000000E+00 -0.00000000000E+00 -0.12126466585E+04  0.12126466585E+04  0.00000000000E+00 0. -1.
         25    2    1    2    0    0 -0.59566679488E+02 -0.11899595719E+02 -0.96224162358E+03  0.97222641313E+03  0.12500186625E+03 0.  0.
         23    2    1    2    0    0  0.59566679488E+02  0.11899595719E+02 -0.23305805938E+03  0.25776722092E+03  0.91859084764E+02 0.  0.
          5    1    4    4  502    0 -0.20298497143E+02 -0.11589588504E+02 -0.30454118663E+02  0.38676748719E+02  0.47000000000E+01 0.  1.
         -5    1    4    4    0  502  0.79865176631E+02  0.23489184223E+02 -0.20260394072E+03  0.21909047220E+03  0.47000000000E+01 0.  1.
          5    1    3    3  503    0 -0.74304178858E+02  0.39342906330E+02 -0.64969088115E+03  0.65512541266E+03  0.47000000000E+01 0.  1.
         -5    1    3    3    0  503  0.14737499370E+02 -0.51242502049E+02 -0.31255074243E+03  0.31710100047E+03  0.47000000000E+01 0.  1.
<mgrwt>
<rscale>  0 0.13112509E+03</rscale>
<asrwt>0</asrwt>
<pdfrwt beam="1">  1        1 0.18656107E+00 0.13897934E+03</pdfrwt>
<pdfrwt beam="2">  1       -1 0.26687648E-02 0.13897934E+03</pdfrwt>
<totfact> 0.49341420E+03</totfact>
</mgrwt>
</event>
<event>
 8    1  0.3572165E-004  0.1255849E+03  0.7546771E-02  0.1247275E+00
         -3   -1    0    0    0  501 -0.00000000000E+00  0.00000000000E+00  0.50641348321E+03  0.50641348321E+03  0.00000000000E+00 0.  1.
          3   -1    0    0  501    0  0.00000000000E+00 -0.00000000000E+00 -0.24864994722E+02  0.24864994722E+02  0.00000000000E+00 0. -1.
         25    2    1    2    0    0 -0.12095781043E+02 -0.41640652133E+00  0.23192449558E+03  0.26374330773E+03  0.12500031763E+03 0.  0.
         23    2    1    2    0    0  0.12095781043E+02  0.41640652133E+00  0.24962399291E+03  0.26753517021E+03  0.95480092932E+02 0.  0.
          5    1    3    3  502    0 -0.56816355888E+02 -0.13760639659E+02  0.19621426803E+03  0.20479155861E+03  0.47000000000E+01 0.  1.
         -5    1    4    4    0  503 -0.35784312111E+02  0.21252966294E+02  0.84909986858E+02  0.94678410621E+02  0.47000000000E+01 0.  1.
          5    1    4    4  503    0  0.47880093155E+02 -0.20836559773E+02  0.16471400605E+03  0.17285675958E+03  0.47000000000E+01 0. -1.
         -5    1    3    3    0  502  0.44720574844E+02  0.13344233137E+02  0.35710227552E+02  0.58951749119E+02  0.47000000000E+01 0.  1.
<mgrwt>
<rscale>  0 0.11750235E+03</rscale>
<asrwt>0</asrwt>
<pdfrwt beam="1">  1        3 0.38253842E-02 0.12558487E+03</pdfrwt>
<pdfrwt beam="2">  1       -3 0.77909759E-01 0.12558487E+03</pdfrwt>
<totfact> 0.12510078E+03</totfact>
</mgrwt>
</event>
<event>
 8    1  0.3572165E-004  0.1296380E+03  0.7546771E-02  0.1244410E+00
          2   -1    0    0  501    0  0.00000000000E+00  0.00000000000E+00  0.24383861908E+03  0.24383861908E+03  0.00000000000E+00 0. -1.
         -2   -1    0    0    0  501 -0.00000000000E+00 -0.00000000000E+00 -0.59096103064E+02  0.59096103064E+02  0.00000000000E+00 0.  1.
         25    2    1    2    0    0 -0.25917695994E+02 -0.22587121554E+02  0.16202484971E+03  0.20750439914E+03  0.12499647480E+03 0.  0.
         23    2    1    2    0    0  0.25917695994E+02  0.22587121554E+02  0.22717666304E+02  0.95430323002E+02  0.86075252891E+02 0.  0.
          5    1    3    3  502    0 -0.15202964707E+02 -0.71683524026E+02  0.64679760038E+02  0.97853048553E+02  0.47000000000E+01 0. -1.
         -5    1    3    3    0  502 -0.10714731287E+02  0.49096402471E+02  0.97345089675E+02  0.10965135059E+03  0.47000000000E+01 0. -1.
          5    1    4    4  503    0  0.43126332296E+02 -0.17973279046E+01  0.41329771319E+02  0.59944565410E+02  0.47000000000E+01 0. -1.
         -5    1    4    4    0  503 -0.17208636302E+02  0.24384449459E+02 -0.18612105016E+02  0.35485757592E+02  0.47000000000E+01 0.  1.
<mgrwt>
<rscale>  0 0.11920759E+03</rscale>
<asrwt>0</asrwt>
<pdfrwt beam="1">  1        2 0.37513633E-01 0.12963805E+03</pdfrwt>
<pdfrwt beam="2">  1       -2 0.90917083E-02 0.12963805E+03</pdfrwt>
<totfact> 0.99645671E+03</totfact>
</mgrwt>
</event>
<event>
 8    1  0.3572165E-004  0.1373148E+03  0.7546771E-02  0.1228711E+00
         -2   -1    0    0    0  501 -0.00000000000E+00  0.00000000000E+00  0.18991984152E+03  0.18991984152E+03  0.00000000000E+00 0.  1.
          2   -1    0    0  501    0  0.00000000000E+00 -0.00000000000E+00 -0.86141445201E+02  0.86141445201E+02  0.00000000000E+00 0. -1.
         25    2    1    2    0    0  0.49244123337E+02  0.28390792376E+02  0.97477151416E+02  0.16839583227E+03  0.12499736198E+03 0.  0.
         23    2    1    2    0    0 -0.49244123337E+02 -0.28390792376E+02  0.63012448984E+01  0.10766545445E+03  0.91220193045E+02 0.  0.
          5    1    3    3  502    0 -0.10486650389E+02 -0.35911895088E+02  0.64127169517E+02  0.74390980068E+02  0.47000000000E+01 0. -1.
         -5    1    3    3    0  502  0.59730773725E+02  0.64302687464E+02  0.33349981899E+02  0.94004852202E+02  0.47000000000E+01 0. -1.
          5    1    4    4  503    0 -0.56775574537E+02  0.16206947867E+02  0.15603369195E+02  0.61251009407E+02  0.47000000000E+01 0. -1.
         -5    1    4    4    0  503  0.75314512002E+01 -0.44597740243E+02 -0.93021242967E+01  0.46414445040E+02  0.47000000000E+01 0.  1.
<mgrwt>
<rscale>  0 0.12915788E+03</rscale>
<asrwt>0</asrwt>
<pdfrwt beam="1">  1        2 0.13252530E-01 0.13731483E+03</pdfrwt>
<pdfrwt beam="2">  1       -2 0.29218437E-01 0.13731483E+03</pdfrwt>
<totfact> 0.46347052E+03</totfact>
</mgrwt>
</event>
<event>
 8    1  0.3572165E-004  0.1569430E+03  0.7546771E-02  0.1200069E+00
          2   -1    0    0  501    0  0.00000000000E+00  0.00000000000E+00  0.15215291830E+04  0.15215291830E+04  0.00000000000E+00 0. -1.
         -2   -1    0    0    0  501 -0.00000000000E+00 -0.00000000000E+00 -0.15665313898E+02  0.15665313898E+02  0.00000000000E+00 0.  1.
         25    2    1    2    0    0  0.35824068550E+02  0.87882021368E+02  0.10789925401E+04  0.10903467349E+04  0.12499794824E+03 0.  0.
         23    2    1    2    0    0 -0.35824068550E+02 -0.87882021368E+02  0.42687132897E+03  0.44684776201E+03  0.91908527056E+02 0.  0.
          5    1    3    3  502    0  0.61854420039E+02  0.29224023486E+01  0.59593799771E+03  0.59916499967E+03  0.47000000000E+01 0. -1.
         -5    1    3    3    0  502 -0.26030351489E+02  0.84959619020E+02  0.48305454239E+03  0.49118173519E+03  0.47000000000E+01 0. -1.
          5    1    4    4  503    0 -0.50486489931E+02 -0.52512543295E+02  0.37591418513E+03  0.38293604877E+03  0.47000000000E+01 0. -1.
         -5    1    4    4    0  503  0.14662421381E+02 -0.35369478073E+02  0.50957143844E+02  0.63911713235E+02  0.47000000000E+01 0.  1.
<mgrwt>
<rscale>  0 0.15032896E+03</rscale>
<asrwt>0</asrwt>
<pdfrwt beam="1">  1        2 0.23408130E+00 0.15694299E+03</pdfrwt>
<pdfrwt beam="2">  1       -2 0.24100495E-02 0.15694299E+03</pdfrwt>
<totfact> 0.76741643E+03</totfact>
</mgrwt>
</event>
<event>
 8    1  0.3572165E-004  0.1706847E+03  0.7546771E-02  0.1183296E+00
         -2   -1    0    0    0  501 -0.00000000000E+00  0.00000000000E+00  0.33162294164E+02  0.33162294164E+02  0.00000000000E+00 0.  1.
          2   -1    0    0  501    0  0.00000000000E+00 -0.00000000000E+00 -0.10473367918E+04  0.10473367918E+04  0.00000000000E+00 0. -1.
         25    2    1    2    0    0  0.11571368470E+03  0.10874867547E+02 -0.25458810225E+03  0.30650997294E+03  0.12500136853E+03 0.  0.
         23    2    1    2    0    0 -0.11571368470E+03 -0.10874867547E+02 -0.75958639539E+03  0.77398911303E+03  0.92626861395E+02 0.  0.
          5    1    3    3  502    0 -0.77266040749E+00 -0.24769982516E+02 -0.11196910833E+01  0.25248618697E+02  0.47000000000E+01 0.  1.
         -5    1    3    3    0  502  0.11648634511E+03  0.35644850063E+02 -0.25346841117E+03  0.28126135425E+03  0.47000000000E+01 0.  1.
          5    1    4    4  503    0 -0.10410519343E+03 -0.43929757521E+02 -0.56203264960E+03  0.57329791916E+03  0.47000000000E+01 0. -1.
         -5    1    4    4    0  503 -0.11608491269E+02  0.33054889974E+02 -0.19755374580E+03  0.20069119388E+03  0.47000000000E+01 0.  1.
<mgrwt>
<rscale>  0 0.16487872E+03</rscale>
<asrwt>0</asrwt>
<pdfrwt beam="1">  1        2 0.16112871E+00 0.17068469E+03</pdfrwt>
<pdfrwt beam="2">  1       -2 0.51018923E-02 0.17068469E+03</pdfrwt>
<totfact> 0.45982408E+03</totfact>
</mgrwt>
</event>
<event>
 8    1  0.3572165E-004  0.1535553E+03  0.7546771E-02  0.1204841E+00
          4   -1    0    0  501    0  0.00000000000E+00  0.00000000000E+00  0.12965975665E+03  0.12965975665E+03  0.00000000000E+00 0. -1.
         -4   -1    0    0    0  501 -0.00000000000E+00 -0.00000000000E+00 -0.15446041765E+03  0.15446041765E+03  0.00000000000E+00 0.  1.
         25    2    1    2    0    0 -0.34836869471E+02 -0.82097187206E+02  0.42993213173E+01  0.15361549596E+03  0.12500272322E+03 0.  0.
         23    2    1    2    0    0  0.34836869471E+02  0.82097187206E+02 -0.29099982310E+02  0.13050467834E+03  0.90725445588E+02 0.  0.
          5    1    3    3  502    0 -0.37790123437E+02  0.24157227941E+02 -0.10190173013E+02  0.46234129355E+02  0.47000000000E+01 0.  1.
         -5    1    4    4    0  503  0.53191452232E+02  0.16766758378E+02 -0.27745384294E+02  0.62468801226E+02  0.47000000000E+01 0.  1.
          5    1    4    4  503    0 -0.18354582761E+02  0.65330428828E+02 -0.13545980166E+01  0.68035877116E+02  0.47000000000E+01 0. -1.
         -5    1    3    3    0  502  0.29532539659E+01 -0.10625441515E+03  0.14489494330E+02  0.10738136660E+03  0.47000000000E+01 0.  1.
<mgrwt>
<rscale>  0 0.14649966E+03</rscale>
<asrwt>0</asrwt>
<pdfrwt beam="1">  1        4 0.19947655E-01 0.15355532E+03</pdfrwt>
<pdfrwt beam="2">  1       -4 0.23763141E-01 0.15355532E+03</pdfrwt>
<totfact> 0.63297818E+02</totfact>
</mgrwt>
</event>
<event>
 8    1  0.3572165E-004  0.1342644E+03  0.7546771E-02  0.1233715E+00
          1   -1    0    0  501    0  0.00000000000E+00  0.00000000000E+00  0.32582726343E+03  0.32582726343E+03  0.00000000000E+00 0. -1.
         -1   -1    0    0    0  501 -0.00000000000E+00 -0.00000000000E+00 -0.48686679429E+02  0.48686679429E+02  0.00000000000E+00 0.  1.
         25    2    1    2    0    0 -0.47325964755E+02 -0.12742899323E+02  0.21539879318E+03  0.25381800670E+03  0.12499924799E+03 0.  0.
         23    2    1    2    0    0  0.47325964755E+02  0.12742899323E+02  0.61741790826E+02  0.12069593617E+03  0.91396563663E+02 0.  0.
          5    1    4    4  502    0  0.34255309245E+02 -0.96689951558E+01  0.80629615183E+02  0.88261772719E+02  0.47000000000E+01 0. -1.
         -5    1    3    3    0  503 -0.43079531549E+01  0.53774410434E+02  0.74364868093E+02  0.91991680517E+02  0.47000000000E+01 0.  1.
          5    1    3    3  503    0 -0.43018011600E+02 -0.66517309757E+02  0.14103392509E+03  0.16182632618E+03  0.47000000000E+01 0.  1.
         -5    1    4    4    0  502  0.13070655509E+02  0.22411894478E+02 -0.18887824357E+02  0.32434163447E+02  0.47000000000E+01 0.  1.
<mgrwt>
<rscale>  0 0.12587062E+03</rscale>
<asrwt>0</asrwt>
<pdfrwt beam="1">  1        1 0.50127270E-01 0.13426444E+03</pdfrwt>
<pdfrwt beam="2">  1       -1 0.74902586E-02 0.13426444E+03</pdfrwt>
<totfact> 0.71532238E+03</totfact>
</mgrwt>
</event>
<event>
 8    1  0.3572165E-004  0.1307042E+03  0.7546771E-02  0.1242177E+00
          2   -1    0    0  501    0  0.00000000000E+00  0.00000000000E+00  0.14111198315E+03  0.14111198315E+03  0.00000000000E+00 0. -1.
         -2   -1    0    0    0  501 -0.00000000000E+00 -0.00000000000E+00 -0.91677653670E+02  0.91677653670E+02  0.00000000000E+00 0.  1.
         25    2    1    2    0    0  0.10958135158E+02  0.36546929734E+02  0.44420750924E+02  0.13804635876E+03  0.12501134050E+03 0.  0.
         23    2    1    2    0    0 -0.10958135158E+02 -0.36546929734E+02  0.50135785589E+01  0.94743278066E+02  0.86575943366E+02 0.  0.
          5    1    3    3  502    0  0.76029587831E+01  0.77229790797E+02  0.55459035500E+02  0.95498901499E+02  0.47000000000E+01 0.  1.
         -5    1    4    4    0  503 -0.19732285944E+02 -0.95285574076E+01 -0.37328129391E+02  0.43538899374E+02  0.47000000000E+01 0.  1.
          5    1    4    4  503    0  0.87741507870E+01 -0.27018372326E+02  0.42341707950E+02  0.51204378693E+02  0.47000000000E+01 0. -1.
         -5    1    3    3    0  502  0.33551763744E+01 -0.40682861063E+02 -0.11038284576E+02  0.42547457259E+02  0.47000000000E+01 0.  1.
<mgrwt>
<rscale>  0 0.12055968E+03</rscale>
<asrwt>0</asrwt>
<pdfrwt beam="1">  1        2 0.21709536E-01 0.13070422E+03</pdfrwt>
<pdfrwt beam="2">  1       -2 0.14104254E-01 0.13070422E+03</pdfrwt>
<totfact> 0.90068602E+03</totfact>
</mgrwt>
</event>
<event>
 8    1  0.3572165E-004  0.2007751E+03  0.7546771E-02  0.1153284E+00
         -4   -1    0    0    0  501 -0.00000000000E+00  0.00000000000E+00  0.59913181996E+02  0.59913181996E+02  0.00000000000E+00 0.  1.
          4   -1    0    0  501    0  0.00000000000E+00 -0.00000000000E+00 -0.61488245629E+03  0.61488245629E+03  0.00000000000E+00 0. -1.
         25    2    1    2    0    0  0.12327772363E+03  0.97406939097E+02 -0.31874301505E+03  0.37670642793E+03  0.12500045708E+03 0.  0.
         23    2    1    2    0    0 -0.12327772363E+03 -0.97406939097E+02 -0.23622625924E+03  0.29808921036E+03  0.91481270469E+02 0.  0.
          5    1    4    4  502    0 -0.74698212315E+02 -0.14667238988E+02 -0.58714981373E+02  0.96252220027E+02  0.47000000000E+01 0. -1.
         -5    1    4    4    0  502 -0.48579511319E+02 -0.82739700109E+02 -0.17751127787E+03  0.20183699033E+03  0.47000000000E+01 0.  1.
          5    1    3    3  503    0  0.86389988549E+02  0.11280182328E+03 -0.16505706502E+03  0.21783802737E+03  0.47000000000E+01 0.  1.
         -5    1    3    3    0  503  0.36887735084E+02 -0.15394884182E+02 -0.15368595003E+03  0.15886840056E+03  0.47000000000E+01 0.  1.
<mgrwt>
<rscale>  0 0.19585554E+03</rscale>
<asrwt>0</asrwt>
<pdfrwt beam="1">  1        4 0.94597296E-01 0.20077506E+03</pdfrwt>
<pdfrwt beam="2">  1       -4 0.92174131E-02 0.20077506E+03</pdfrwt>
<totfact> 0.15069100E+02</totfact>
</mgrwt>
</event>
<event>
 8    1  0.3572165E-004  0.1398742E+03  0.7546771E-02  0.1224587E+00
         -2   -1    0    0    0  501 -0.00000000000E+00  0.00000000000E+00  0.73010793584E+02  0.73010793584E+02  0.00000000000E+00 0.  1.
          2   -1    0    0  501    0  0.00000000000E+00 -0.00000000000E+00 -0.21620530990E+03  0.21620530990E+03  0.00000000000E+00 0. -1.
         25    2    1    2    0    0 -0.43877712356E+02  0.44845647783E+02 -0.69727405615E+02  0.15629041719E+03  0.12501358984E+03 0.  0.
         23    2    1    2    0    0  0.43877712356E+02 -0.44845647783E+02 -0.73467110704E+02  0.13292568630E+03  0.91298608733E+02 0.  0.
          5    1    4    4  502    0  0.30236708387E+02  0.10036636362E+02 -0.68827965712E+02  0.75989285215E+02  0.47000000000E+01 0. -1.
         -5    1    4    4    0  502  0.13641003969E+02 -0.54882284145E+02 -0.46391449923E+01  0.56936401085E+02  0.47000000000E+01 0.  1.
          5    1    3    3  503    0 -0.36315824563E+02  0.88244546600E+02 -0.46109418585E+02  0.10608537883E+03  0.47000000000E+01 0. -1.
         -5    1    3    3    0  503 -0.75618877936E+01 -0.43398898817E+02 -0.23617987030E+02  0.50205038361E+02  0.47000000000E+01 0. -1.
<mgrwt>
<rscale>  0 0.13195224E+03</rscale>
<asrwt>0</asrwt>
<pdfrwt beam="1">  1        2 0.33262356E-01 0.13987417E+03</pdfrwt>
<pdfrwt beam="2">  1       -2 0.11232430E-01 0.13987417E+03</pdfrwt>
<totfact> 0.81735792E+03</totfact>
</mgrwt>
</event>
<event>
 8    1  0.3572165E-004  0.1360230E+03  0.7546771E-02  0.1231160E+00
          2   -1    0    0  501    0  0.00000000000E+00  0.00000000000E+00  0.21917062389E+03  0.21917062389E+03  0.00000000000E+00 0.  1.
         -2   -1    0    0    0  501 -0.00000000000E+00 -0.00000000000E+00 -0.73294595341E+02  0.73294595341E+02  0.00000000000E+00 0. -1.
         25    2    1    2    0    0  0.26536853088E+02  0.46607180681E+02  0.36651995085E+02  0.14087447844E+03  0.12500326423E+03 0.  0.
         23    2    1    2    0    0 -0.26536853088E+02 -0.46607180681E+02  0.10922403347E+03  0.15159074079E+03  0.90407020438E+02 0.  0.
          5    1    4    4  502    0 -0.27410232075E+02 -0.10613821536E+02 -0.63592079163E+01  0.30438520912E+02  0.47000000000E+01 0. -1.
         -5    1    4    4    0  502  0.87337898710E+00 -0.35993359145E+02  0.11558324138E+03  0.12115221988E+03  0.47000000000E+01 0.  1.
          5    1    3    3  503    0 -0.17319938379E+02  0.52478495948E+02 -0.28203967839E+02  0.62221592749E+02  0.47000000000E+01 0.  1.
         -5    1    3    3    0  503  0.43856791466E+02 -0.58713152669E+01  0.64855962923E+02  0.78652885690E+02  0.47000000000E+01 0.  1.
<mgrwt>
<rscale>  0 0.12753483E+03</rscale>
<asrwt>0</asrwt>
<pdfrwt beam="1">  1        2 0.33718557E-01 0.13602298E+03</pdfrwt>
<pdfrwt beam="2">  1       -2 0.11276092E-01 0.13602298E+03</pdfrwt>
<totfact> 0.79896213E+03</totfact>
</mgrwt>
</event>
<event>
 8    1  0.3572165E-004  0.1253214E+03  0.7546771E-02  0.1249461E+00
         -2   -1    0    0    0  501 -0.00000000000E+00  0.00000000000E+00  0.14445076895E+03  0.14445076895E+03  0.00000000000E+00 0.  1.
          2   -1    0    0  501    0  0.00000000000E+00 -0.00000000000E+00 -0.84245162637E+02  0.84245162637E+02  0.00000000000E+00 0. -1.
         25    2    1    2    0    0  0.89608199143E+01  0.20410108776E+00  0.51825677068E+02  0.13561469984E+03  0.12500043223E+03 0.  0.
         23    2    1    2    0    0 -0.89608199143E+01 -0.20410108776E+00  0.83799292398E+01  0.93081231747E+02  0.92268925097E+02 0.  0.
          5    1    3    3  502    0 -0.54328510413E+02  0.83993466926E+01  0.45118770829E+02  0.71273624502E+02  0.47000000000E+01 0.  1.
         -5    1    4    4    0  503  0.33645476039E+01  0.44555489619E+02  0.11296644457E+02  0.46327270713E+02  0.47000000000E+01 0.  1.
          5    1    4    4  503    0 -0.12325367518E+02 -0.44759590706E+02 -0.29167152173E+01  0.46753961034E+02  0.47000000000E+01 0. -1.
         -5    1    3    3    0  502  0.63289330327E+02 -0.81952456048E+01  0.67069062391E+01  0.64341075334E+02  0.47000000000E+01 0.  1.
<mgrwt>
<rscale>  0 0.11622314E+03</rscale>
<asrwt>0</asrwt>
<pdfrwt beam="1">  1        2 0.12960794E-01 0.12532137E+03</pdfrwt>
<pdfrwt beam="2">  1       -2 0.22223195E-01 0.12532137E+03</pdfrwt>
<totfact> 0.76330704E+03</totfact>
</mgrwt>
</event>
<event>
 8    1  0.3572165E-004  0.1605121E+03  0.7546771E-02  0.1195740E+00
          2   -1    0    0  501    0  0.00000000000E+00  0.00000000000E+00  0.10689806214E+04  0.10689806214E+04  0.00000000000E+00 0. -1.
         -2   -1    0    0    0  501 -0.00000000000E+00 -0.00000000000E+00 -0.22905660370E+02  0.22905660370E+02  0.00000000000E+00 0.  1.
         25    2    1    2    0    0  0.86256817907E+02  0.51972288961E+02  0.73781635741E+03  0.75507424797E+03  0.12499114058E+03 0.  0.
         23    2    1    2    0    0 -0.86256817907E+02 -0.51972288961E+02  0.30825860357E+03  0.33681203376E+03  0.90981437407E+02 0.  0.
          5    1    3    3  502    0  0.24422908172E+02 -0.38260517107E+02  0.13806462128E+03  0.14541071233E+03  0.47000000000E+01 0.  1.
         -5    1    3    3    0  502  0.61833909735E+02  0.90232806068E+02  0.59975173614E+03  0.60966353564E+03  0.47000000000E+01 0.  1.
          5    1    4    4  503    0 -0.26487943585E+02  0.21945222615E+02  0.13211286899E+03  0.13659833126E+03  0.47000000000E+01 0. -1.
         -5    1    4    4    0  503 -0.59768874322E+02 -0.73917511576E+02  0.17614573458E+03  0.20021370250E+03  0.47000000000E+01 0.  1.
<mgrwt>
<rscale>  0 0.15391788E+03</rscale>
<asrwt>0</asrwt>
<pdfrwt beam="1">  1        2 0.16445852E+00 0.16051213E+03</pdfrwt>
<pdfrwt beam="2">  1       -2 0.35239486E-02 0.16051213E+03</pdfrwt>
<totfact> 0.77548221E+03</totfact>
</mgrwt>
</event>
<event>
 8    1  0.3572165E-004  0.1730289E+03  0.7546771E-02  0.1181384E+00
          2   -1    0    0  501    0  0.00000000000E+00  0.00000000000E+00  0.16783509903E+02  0.16783509903E+02  0.00000000000E+00 0. -1.
         -2   -1    0    0    0  501 -0.00000000000E+00 -0.00000000000E+00 -0.16767975448E+04  0.16767975448E+04  0.00000000000E+00 0.  1.
         25    2    1    2    0    0 -0.93453147696E+02 -0.74704324807E+02 -0.11251795634E+04  0.11384059316E+04  0.12499915261E+03 0.  0.
         23    2    1    2    0    0  0.93453147696E+02  0.74704324807E+02 -0.53483447146E+03  0.55517512311E+03  0.88641291160E+02 0.  0.
          5    1    4    4  502    0  0.25238785053E+02 -0.15594909322E+02 -0.61049571030E+02  0.68039235671E+02  0.47000000000E+01 0. -1.
         -5    1    3    3    0  503 -0.12067836985E+03 -0.79709673460E+02 -0.96375531008E+03  0.97455799658E+03  0.47000000000E+01 0. -1.
          5    1    3    3  503    0  0.27225222152E+02  0.50053486529E+01 -0.16142425337E+03  0.16384793503E+03  0.47000000000E+01 0. -1.
         -5    1    4    4    0  502  0.68214362642E+02  0.90299234130E+02 -0.47378490043E+03  0.48713588744E+03  0.47000000000E+01 0.  1.
<mgrwt>
<rscale>  0 0.16665313E+03</rscale>
<asrwt>0</asrwt>
<pdfrwt beam="1">  1        2 0.25820783E-02 0.17302894E+03</pdfrwt>
<pdfrwt beam="2">  1       -2 0.25796887E+00 0.17302894E+03</pdfrwt>
<totfact> 0.24685432E+02</totfact>
</mgrwt>
</event>
<event>
 8    1  0.3572165E-004  0.1448684E+03  0.7546771E-02  0.1216962E+00
          2   -1    0    0  501    0  0.00000000000E+00  0.00000000000E+00  0.80550497019E+03  0.80550497019E+03  0.00000000000E+00 0. -1.
         -2   -1    0    0    0  501 -0.00000000000E+00 -0.00000000000E+00 -0.23523348063E+02  0.23523348063E+02  0.00000000000E+00 0.  1.
         25    2    1    2    0    0  0.14986144875E+01  0.73213019099E+02  0.55589394984E+03  0.57446057224E+03  0.12499789427E+03 0.  0.
         23    2    1    2    0    0 -0.14986144875E+01 -0.73213019099E+02  0.22608767228E+03  0.25456774601E+03  0.91250806801E+02 0.  0.
          5    1    4    4  502    0 -0.36838242588E+02 -0.72045215267E+02  0.16485803677E+03  0.18370582856E+03  0.47000000000E+01 0. -1.
         -5    1    4    4    0  502  0.35339628101E+02 -0.11678038314E+01  0.61229635516E+02  0.70861917456E+02  0.47000000000E+01 0.  1.
          5    1    3    3  503    0  0.10539416235E+02  0.10772230019E+03  0.43786244490E+03  0.45106627440E+03  0.47000000000E+01 0. -1.
         -5    1    3    3    0  503 -0.90408017473E+01 -0.34509281093E+02  0.11803150495E+03  0.12339429783E+03  0.47000000000E+01 0. -1.
<mgrwt>
<rscale>  0 0.13733373E+03</rscale>
<asrwt>0</asrwt>
<pdfrwt beam="1">  1        2 0.12392382E+00 0.14486844E+03</pdfrwt>
<pdfrwt beam="2">  1       -2 0.36189772E-02 0.14486844E+03</pdfrwt>
<totfact> 0.10821029E+04</totfact>
</mgrwt>
</event>
<event>
 8    1  0.3572165E-004  0.1490015E+03  0.7546771E-02  0.1210647E+00
          1   -1    0    0  501    0  0.00000000000E+00  0.00000000000E+00  0.47858704167E+02  0.47858704167E+02  0.00000000000E+00 0. -1.
         -1   -1    0    0    0  501 -0.00000000000E+00 -0.00000000000E+00 -0.42940559469E+03  0.42940559469E+03  0.00000000000E+00 0.  1.
         25    2    1    2    0    0 -0.79424240499E+02 -0.16374010304E+02 -0.28248107972E+03  0.31936971507E+03  0.12500054526E+03 0.  0.
         23    2    1    2    0    0  0.79424240499E+02  0.16374010304E+02 -0.99065810803E+02  0.15789458378E+03  0.92413995286E+02 0.  0.
          5    1    4    4  502    0  0.30089327522E+02  0.25763572026E+02  0.69502370901E+01  0.40491049257E+02  0.47000000000E+01 0. -1.
         -5    1    4    4    0  502  0.49334912976E+02 -0.93895617223E+01 -0.10601604789E+03  0.11740353452E+03  0.47000000000E+01 0.  1.
          5    1    3    3  503    0 -0.53378585209E+02 -0.30734420185E+02 -0.28258518375E+03  0.28925828254E+03  0.47000000000E+01 0. -1.
         -5    1    3    3    0  503 -0.26045655289E+02  0.14360409882E+02  0.10410403563E+00  0.30111432531E+02  0.47000000000E+01 0. -1.
<mgrwt>
<rscale>  0 0.14201200E+03</rscale>
<asrwt>0</asrwt>
<pdfrwt beam="1">  1        1 0.73628775E-02 0.14900153E+03</pdfrwt>
<pdfrwt beam="2">  1       -1 0.66062400E-01 0.14900153E+03</pdfrwt>
<totfact> 0.22826899E+03</totfact>
</mgrwt>
</event>
<event>
 8    1  0.3572165E-004  0.3203791E+03  0.7546771E-02  0.1076735E+00
         -2   -1    0    0    0  501 -0.00000000000E+00  0.00000000000E+00  0.13200879020E+03  0.13200879020E+03  0.00000000000E+00 0.  1.
          2   -1    0    0  501    0  0.00000000000E+00 -0.00000000000E+00 -0.97750207695E+03  0.97750207695E+03  0.00000000000E+00 0. -1.
         25    2    1    2    0    0  0.29476937277E+03  0.11386341992E+02 -0.16166173223E+03  0.35885550186E+03  0.12499649451E+03 0.  0.
         23    2    1    2    0    0 -0.29476937277E+03 -0.11386341992E+02 -0.68383155452E+03  0.75065536529E+03  0.94017288638E+02 0.  0.
          5    1    3    3  502    0  0.16011970217E+02  0.27346561301E+02  0.67641573306E+01  0.32742349177E+02  0.47000000000E+01 0. -1.
         -5    1    4    4    0  503 -0.10504863952E+03 -0.15803574370E+02 -0.14836420781E+03  0.18253492210E+03  0.47000000000E+01 0.  1.
          5    1    4    4  503    0 -0.18972073325E+03  0.44172323778E+01 -0.53546734671E+03  0.56812044318E+03  0.47000000000E+01 0. -1.
         -5    1    3    3    0  502  0.27875740255E+03 -0.15960219309E+02 -0.16842588956E+03  0.32611315268E+03  0.47000000000E+01 0. -1.
<mgrwt>
<rscale>  0 0.31765200E+03</rscale>
<asrwt>0</asrwt>
<pdfrwt beam="1">  1        2 0.15038494E+00 0.32037908E+03</pdfrwt>
<pdfrwt beam="2">  1       -2 0.20309044E-01 0.32037908E+03</pdfrwt>
<totfact> 0.55560733E+02</totfact>
</mgrwt>
</event>
<event>
 8    1  0.3572165E-004  0.1386987E+03  0.7546771E-02  0.1226600E+00
         -1   -1    0    0    0  501 -0.00000000000E+00  0.00000000000E+00  0.18103200065E+02  0.18103200065E+02  0.00000000000E+00 0. -1.
          1   -1    0    0  501    0  0.00000000000E+00 -0.00000000000E+00 -0.86697823653E+03  0.86697823653E+03  0.00000000000E+00 0.  1.
         25    2    1    2    0    0  0.58482220383E+02 -0.13809680346E+02 -0.54089899701E+03  0.55839864434E+03  0.12500577453E+03 0.  0.
         23    2    1    2    0    0 -0.58482220383E+02  0.13809680346E+02 -0.30797603945E+03  0.32668279225E+03  0.90892950782E+02 0.  0.
          5    1    4    4  502    0 -0.33012529243E+02  0.25482313145E+02 -0.42633225136E+02  0.59823551012E+02  0.47000000000E+01 0. -1.
         -5    1    4    4    0  502 -0.25469691141E+02 -0.11672632799E+02 -0.26534281432E+03  0.26685924124E+03  0.47000000000E+01 0.  1.
          5    1    3    3  503    0 -0.34174856515E+02  0.12270967387E+02 -0.87161924188E+02  0.94539877758E+02  0.47000000000E+01 0. -1.
         -5    1    3    3    0  503  0.92657076898E+02 -0.26080647733E+02 -0.45373707282E+03  0.46385876659E+03  0.47000000000E+01 0. -1.
<mgrwt>
<rscale>  0 0.13057847E+03</rscale>
<asrwt>0</asrwt>
<pdfrwt beam="1">  1        1 0.13338128E+00 0.13869867E+03</pdfrwt>
<pdfrwt beam="2">  1       -1 0.27851074E-02 0.13869867E+03</pdfrwt>
<totfact> 0.82558839E+03</totfact>
</mgrwt>
</event>
<event>
 8    1  0.3572165E-004  0.1579701E+03  0.7546771E-02  0.1199312E+00
         -2   -1    0    0    0  501 -0.00000000000E+00  0.00000000000E+00  0.27216908199E+03  0.27216908199E+03  0.00000000000E+00 0.  1.
          2   -1    0    0  501    0  0.00000000000E+00 -0.00000000000E+00 -0.12418418744E+03  0.12418418744E+03  0.00000000000E+00 0. -1.
         25    2    1    2    0    0  0.54063806293E+02  0.80037841917E+02  0.19990378822E+03  0.25478636007E+03  0.12500245375E+03 0.  0.
         23    2    1    2    0    0 -0.54063806293E+02 -0.80037841917E+02 -0.51918893674E+02  0.14156690936E+03  0.89535842077E+02 0.  0.
          5    1    3    3  502    0  0.62823374432E+02  0.10970490366E+03  0.16491388119E+03  0.20784758952E+03  0.47000000000E+01 0.  1.
         -5    1    3    3    0  502 -0.87595681395E+01 -0.29667061742E+02  0.34989907031E+02  0.46938770547E+02  0.47000000000E+01 0.  1.
          5    1    4    4  503    0 -0.34179131023E+02 -0.98046756485E+02 -0.35876321933E+02  0.10995717316E+03  0.47000000000E+01 0. -1.
         -5    1    4    4    0  503 -0.19884675270E+02  0.18008914568E+02 -0.16042571740E+02  0.31609736198E+02  0.47000000000E+01 0.  1.
<mgrwt>
<rscale>  0 0.15094891E+03</rscale>
<asrwt>0</asrwt>
<pdfrwt beam="1">  1        2 0.19105260E-01 0.15797014E+03</pdfrwt>
<pdfrwt beam="2">  1       -2 0.41872166E-01 0.15797014E+03</pdfrwt>
<totfact> 0.15663387E+03</totfact>
</mgrwt>
</event>
<event>
 8    1  0.3572165E-004  0.1266318E+03  0.7546771E-02  0.1246660E+00
          2   -1    0    0  501    0  0.00000000000E+00  0.00000000000E+00  0.84572415641E+03  0.84572415641E+03  0.00000000000E+00 0.  1.
         -2   -1    0    0    0  501 -0.00000000000E+00 -0.00000000000E+00 -0.15645802055E+02  0.15645802055E+02  0.00000000000E+00 0. -1.
         25    2    1    2    0    0 -0.20163393007E+02  0.20129244513E+01  0.58408127646E+03  0.59765085731E+03  0.12499998182E+03 0.  0.
         23    2    1    2    0    0  0.20163393007E+02 -0.20129244513E+01  0.24599707789E+03  0.26371910115E+03  0.92857889790E+02 0.  0.
          5    1    3    3  502    0 -0.43040213751E+02 -0.36028219878E+02  0.49312617067E+03  0.49633255266E+03  0.47000000000E+01 0. -1.
         -5    1    4    4    0  503 -0.32675691804E+02  0.73592443964E+01  0.14876794190E+03  0.15256424827E+03  0.47000000000E+01 0.  1.
          5    1    4    4  503    0  0.52839084811E+02 -0.93721688477E+01  0.97229135997E+02  0.11115485288E+03  0.47000000000E+01 0. -1.
         -5    1    3    3    0  502  0.22876820744E+02  0.38041144330E+02  0.90955105791E+02  0.10131830466E+03  0.47000000000E+01 0. -1.
<mgrwt>
<rscale>  0 0.11786565E+03</rscale>
<asrwt>0</asrwt>
<pdfrwt beam="1">  1        2 0.13011137E+00 0.12663179E+03</pdfrwt>
<pdfrwt beam="2">  1       -2 0.24070471E-02 0.12663179E+03</pdfrwt>
<totfact> 0.18356509E+04</totfact>
</mgrwt>
</event>
<event>
 8    1  0.3572165E-004  0.1462472E+03  0.7546771E-02  0.1214864E+00
         -2   -1    0    0    0  501 -0.00000000000E+00  0.00000000000E+00  0.19241884007E+02  0.19241884007E+02  0.00000000000E+00 0.  1.
          2   -1    0    0  501    0  0.00000000000E+00 -0.00000000000E+00 -0.94824318699E+03  0.94824318699E+03  0.00000000000E+00 0. -1.
         25    2    1    2    0    0 -0.64114488210E+02 -0.40695224892E+02 -0.41826231198E+03  0.44309321303E+03  0.12498585872E+03 0.  0.
         23    2    1    2    0    0  0.64114488210E+02  0.40695224892E+02 -0.51073899100E+03  0.52439185797E+03  0.91464391141E+02 0.  0.
          5    1    4    4  502    0  0.21371279652E+02  0.55095478065E+02 -0.15809710845E+03  0.16884616963E+03  0.47000000000E+01 0. -1.
         -5    1    4    4    0  502  0.42743208557E+02 -0.14400253172E+02 -0.35264188255E+03  0.35554568835E+03  0.47000000000E+01 0.  1.
          5    1    3    3  503    0 -0.96574060401E+02 -0.52150182807E+02 -0.28685332331E+03  0.30716951314E+03  0.47000000000E+01 0. -1.
         -5    1    3    3    0  503  0.32459572191E+02  0.11454957915E+02 -0.13140898867E+03  0.13592369989E+03  0.47000000000E+01 0. -1.
<mgrwt>
<rscale>  0 0.13886506E+03</rscale>
<asrwt>0</asrwt>
<pdfrwt beam="1">  1        2 0.14588356E+00 0.14624717E+03</pdfrwt>
<pdfrwt beam="2">  1       -2 0.29602899E-02 0.14624717E+03</pdfrwt>
<totfact> 0.11793860E+04</totfact>
</mgrwt>
</event>
<event>
 8    1  0.3572165E-004  0.1291871E+03  0.7546771E-02  0.1242557E+00
         -2   -1    0    0    0  501 -0.00000000000E+00  0.00000000000E+00  0.13477191263E+02  0.13477191263E+02  0.00000000000E+00 0.  1.
          2   -1    0    0  501    0  0.00000000000E+00 -0.00000000000E+00 -0.10690579188E+04  0.10690579188E+04  0.00000000000E+00 0. -1.
         25    2    1    2    0    0 -0.21017261087E+02 -0.24945589971E+02 -0.77234812454E+03  0.78307785906E+03  0.12500120058E+03 0.  0.
         23    2    1    2    0    0  0.21017261087E+02  0.24945589971E+02 -0.28323260299E+03  0.29945725099E+03  0.91596561370E+02 0.  0.
          5    1    3    3  502    0  0.50403144440E+02  0.54475490521E+01 -0.27216183062E+03  0.27688319704E+03  0.47000000000E+01 0. -1.
         -5    1    3    3    0  502 -0.71420405527E+02 -0.30393139023E+02 -0.50018629392E+03  0.50619466202E+03  0.47000000000E+01 0. -1.
          5    1    4    4  503    0 -0.10099693188E+02 -0.21713437182E+02 -0.18202767251E+03  0.18365631140E+03  0.47000000000E+01 0. -1.
         -5    1    4    4    0  503  0.31116954275E+02  0.46659027154E+02 -0.10120493048E+03  0.11580093959E+03  0.47000000000E+01 0.  1.
<mgrwt>
<rscale>  0 0.12032780E+03</rscale>
<asrwt>0</asrwt>
<pdfrwt beam="1">  1        2 0.16447047E+00 0.12918710E+03</pdfrwt>
<pdfrwt beam="2">  1       -2 0.20734138E-02 0.12918710E+03</pdfrwt>
<totfact> 0.16682679E+04</totfact>
</mgrwt>
</event>
<event>
 8    1  0.3572165E-004  0.2145352E+03  0.7546771E-02  0.1141754E+00
          1   -1    0    0  501    0  0.00000000000E+00  0.00000000000E+00  0.13605876681E+03  0.13605876681E+03  0.00000000000E+00 0. -1.
         -1   -1    0    0    0  501 -0.00000000000E+00 -0.00000000000E+00 -0.34331048524E+03  0.34331048524E+03  0.00000000000E+00 0.  1.
         25    2    1    2    0    0 -0.61224419695E+02 -0.16325130004E+03 -0.33001667820E+02  0.21705866400E+03  0.12500374797E+03 0.  0.
         23    2    1    2    0    0  0.61224419695E+02  0.16325130004E+03 -0.17425005061E+03  0.26231058805E+03  0.89690288951E+02 0.  0.
          5    1    4    4  502    0  0.48225437109E+02  0.97721144536E+02 -0.16031784638E+03  0.19390465889E+03  0.47000000000E+01 0. -1.
         -5    1    3    3    0  503 -0.84938790422E+02 -0.14320786394E+03 -0.58566138109E+02  0.17656492558E+03  0.47000000000E+01 0.  1.
          5    1    3    3  503    0  0.23714370727E+02 -0.20043436101E+02  0.25564470289E+02  0.40493738416E+02  0.47000000000E+01 0.  1.
         -5    1    4    4    0  502  0.12998982586E+02  0.65530155506E+02 -0.13932204237E+02  0.68405929157E+02  0.47000000000E+01 0.  1.
<mgrwt>
<rscale>  0 0.20976217E+03</rscale>
<asrwt>0</asrwt>
<pdfrwt beam="1">  1        1 0.20932118E-01 0.21453520E+03</pdfrwt>
<pdfrwt beam="2">  1       -1 0.52816997E-01 0.21453520E+03</pdfrwt>
<totfact> 0.89078144E+02</totfact>
</mgrwt>
</event>
<event>
 8    1  0.3572165E-004  0.1314562E+03  0.7546771E-02  0.1238653E+00
         -1   -1    0    0    0  501 -0.00000000000E+00  0.00000000000E+00  0.68458545984E+03  0.68458545984E+03  0.00000000000E+00 0.  1.
          1   -1    0    0  501    0  0.00000000000E+00 -0.00000000000E+00 -0.19777690409E+02  0.19777690409E+02  0.00000000000E+00 0. -1.
         25    2    1    2    0    0 -0.17525944980E+02  0.36672724728E+02  0.33938337618E+03  0.36395304283E+03  0.12501477461E+03 0.  0.
         23    2    1    2    0    0  0.17525944980E+02 -0.36672724728E+02  0.32542439326E+03  0.34041010742E+03  0.91246687738E+02 0.  0.
          5    1    4    4  502    0 -0.15583963340E+02 -0.24946131040E+02  0.27997160948E+02  0.40879094760E+02  0.47000000000E+01 0. -1.
         -5    1    3    3    0  503  0.51470687932E+02  0.23309271657E+01  0.10274604898E+03  0.11503697457E+03  0.47000000000E+01 0. -1.
          5    1    3    3  503    0 -0.68996632912E+02  0.34341797562E+02  0.23663732720E+03  0.24891606826E+03  0.47000000000E+01 0. -1.
         -5    1    4    4    0  502  0.33109908320E+02 -0.11726593688E+02  0.29742723231E+03  0.29953101266E+03  0.47000000000E+01 0.  1.
<mgrwt>
<rscale>  0 0.12273441E+03</rscale>
<asrwt>0</asrwt>
<pdfrwt beam="1">  1        1 0.30427221E-02 0.13145623E+03</pdfrwt>
<pdfrwt beam="2">  1       -1 0.10532082E+00 0.13145623E+03</pdfrwt>
<totfact> 0.28820906E+03</totfact>
</mgrwt>
</event>
<event>
 8    1  0.3572165E-004  0.1254808E+03  0.7546771E-02  0.1251893E+00
          2   -1    0    0  501    0  0.00000000000E+00  0.00000000000E+00  0.11168593075E+04  0.11168593075E+04  0.00000000000E+00 0. -1.
         -2   -1    0    0    0  501 -0.00000000000E+00 -0.00000000000E+00 -0.10412229735E+02  0.10412229735E+02  0.00000000000E+00 0.  1.
         25    2    1    2    0    0 -0.10778594768E+02 -0.20600594206E+01  0.56902231596E+03  0.58269360693E+03  0.12500008618E+03 0.  0.
         23    2    1    2    0    0  0.10778594768E+02  0.20600594206E+01  0.53742476180E+03  0.54457793030E+03  0.87288748555E+02 0.  0.
          5    1    4    4  502    0 -0.36118078147E+02 -0.11744961179E+02  0.26718310106E+03  0.26990990937E+03  0.47000000000E+01 0. -1.
         -5    1    4    4    0  502  0.46896672915E+02  0.13805020600E+02  0.27024166075E+03  0.27466802094E+03  0.47000000000E+01 0.  1.
          5    1    3    3  503    0  0.38929240095E+02 -0.43985205730E+02  0.31313391435E+03  0.31863007136E+03  0.47000000000E+01 0.  1.
         -5    1    3    3    0  503 -0.49707834862E+02  0.41925146310E+02  0.25588840161E+03  0.26406353557E+03  0.47000000000E+01 0.  1.
<mgrwt>
<rscale>  0 0.11482169E+03</rscale>
<asrwt>0</asrwt>
<pdfrwt beam="1">  1        2 0.17182441E+00 0.12548085E+03</pdfrwt>
<pdfrwt beam="2">  1       -2 0.16018824E-02 0.12548085E+03</pdfrwt>
<totfact> 0.22700712E+04</totfact>
</mgrwt>
</event>
<event>
 8    1  0.3572165E-004  0.1729548E+03  0.7546771E-02  0.1181288E+00
          1   -1    0    0  501    0  0.00000000000E+00  0.00000000000E+00  0.23475993373E+03  0.23475993373E+03  0.00000000000E+00 0. -1.
         -1   -1    0    0    0  501 -0.00000000000E+00 -0.00000000000E+00 -0.11104873319E+03  0.11104873319E+03  0.00000000000E+00 0.  1.
         25    2    1    2    0    0 -0.24516015076E+02 -0.11699401500E+03  0.76456365413E+02  0.18910036395E+03  0.12499894918E+03 0.  0.
         23    2    1    2    0    0  0.24516015076E+02  0.11699401500E+03  0.47254835130E+02  0.15670830296E+03  0.89642837043E+02 0.  0.
          5    1    4    4  502    0  0.15970116371E+02  0.68150718842E+02  0.72485199516E+02  0.10087496837E+03  0.47000000000E+01 0. -1.
         -5    1    3    3    0  503 -0.71293482977E+02 -0.42640608908E+02  0.50711710031E+02  0.97441006652E+02  0.47000000000E+01 0.  1.
          5    1    3    3  503    0  0.46777467901E+02 -0.74353406088E+02  0.25744655382E+02  0.91659357301E+02  0.47000000000E+01 0.  1.
         -5    1    4    4    0  502  0.85458987056E+01  0.48843296154E+02 -0.25230364386E+02  0.55833334585E+02  0.47000000000E+01 0.  1.
<mgrwt>
<rscale>  0 0.16674283E+03</rscale>
<asrwt>0</asrwt>
<pdfrwt beam="1">  1        1 0.36116913E-01 0.17295483E+03</pdfrwt>
<pdfrwt beam="2">  1       -1 0.17084421E-01 0.17295483E+03</pdfrwt>
<totfact> 0.30501258E+03</totfact>
</mgrwt>
</event>
<event>
 8    1  0.3572165E-004  0.1428906E+03  0.7546771E-02  0.1219861E+00
         -2   -1    0    0    0  501 -0.00000000000E+00  0.00000000000E+00  0.21919399053E+02  0.21919399053E+02  0.00000000000E+00 0.  1.
          2   -1    0    0  501    0  0.00000000000E+00 -0.00000000000E+00 -0.76510633798E+03  0.76510633798E+03  0.00000000000E+00 0. -1.
         25    2    1    2    0    0  0.59380993752E+02  0.35590146592E+02 -0.45249514276E+03  0.47452037244E+03  0.12499987472E+03 0.  0.
         23    2    1    2    0    0 -0.59380993752E+02 -0.35590146592E+02 -0.29069179617E+03  0.31250536460E+03  0.91461038653E+02 0.  0.
          5    1    4    4  502    0 -0.40031583937E+02 -0.64742228567E+01 -0.26679276342E+03  0.26989796570E+03  0.47000000000E+01 0. -1.
         -5    1    4    4    0  502 -0.19349409814E+02 -0.29115923735E+02 -0.23899032750E+02  0.42607398906E+02  0.47000000000E+01 0.  1.
          5    1    3    3  503    0  0.47556215779E+02  0.75958147963E+02 -0.38108660273E+03  0.39151030980E+03  0.47000000000E+01 0. -1.
         -5    1    3    3    0  503  0.11824777973E+02 -0.40368001371E+02 -0.71408540034E+02  0.83010062634E+02  0.47000000000E+01 0. -1.
<mgrwt>
<rscale>  0 0.13525429E+03</rscale>
<asrwt>0</asrwt>
<pdfrwt beam="1">  1        2 0.11770865E+00 0.14289062E+03</pdfrwt>
<pdfrwt beam="2">  1       -2 0.33722158E-02 0.14289062E+03</pdfrwt>
<totfact> 0.12792335E+04</totfact>
</mgrwt>
</event>
<event>
 8    1  0.3572165E-004  0.1894489E+03  0.7546771E-02  0.1163834E+00
          1   -1    0    0  501    0  0.00000000000E+00  0.00000000000E+00  0.24907672797E+03  0.24907672797E+03  0.00000000000E+00 0. -1.
         -1   -1    0    0    0  501 -0.00000000000E+00 -0.00000000000E+00 -0.19787442889E+03  0.19787442889E+03  0.00000000000E+00 0.  1.
         25    2    1    2    0    0  0.14046758642E+03 -0.23135074283E+02 -0.10507886738E+03  0.21663900337E+03  0.12499805963E+03 0.  0.
         23    2    1    2    0    0 -0.14046758642E+03  0.23135074283E+02  0.15628116646E+03  0.23031215350E+03  0.91397541335E+02 0.  0.
          5    1    4    4  502    0 -0.49734778998E+02 -0.26531600287E+02  0.21875840935E+02  0.60647477048E+02  0.47000000000E+01 0. -1.
         -5    1    4    4    0  502 -0.90732807427E+02  0.49666674570E+02  0.13440532552E+03  0.16966467645E+03  0.47000000000E+01 0.  1.
          5    1    3    3  503    0  0.47913165636E+02  0.38389041217E+02  0.28592923998E+01  0.61641345540E+02  0.47000000000E+01 0.  1.
         -5    1    3    3    0  503  0.92554420788E+02 -0.61524115500E+02 -0.10793815978E+03  0.15499765783E+03  0.47000000000E+01 0.  1.
<mgrwt>
<rscale>  0 0.18416308E+03</rscale>
<asrwt>0</asrwt>
<pdfrwt beam="1">  1        1 0.38319497E-01 0.18944891E+03</pdfrwt>
<pdfrwt beam="2">  1       -1 0.30442220E-01 0.18944891E+03</pdfrwt>
<totfact> 0.11011417E+03</totfact>
</mgrwt>
</event>
<event>
 8    1  0.3572165E-004  0.1425715E+03  0.7546771E-02  0.1221022E+00
          1   -1    0    0  501    0  0.00000000000E+00  0.00000000000E+00  0.14834216955E+03  0.14834216955E+03  0.00000000000E+00 0. -1.
         -1   -1    0    0    0  501 -0.00000000000E+00 -0.00000000000E+00 -0.11067524821E+03  0.11067524821E+03  0.00000000000E+00 0.  1.
         25    2    1    2    0    0  0.61578235237E+02  0.30159938314E+02  0.97207680089E+01  0.14290248958E+03  0.12500050905E+03 0.  0.
         23    2    1    2    0    0 -0.61578235237E+02 -0.30159938314E+02  0.27946153330E+02  0.11611492819E+03  0.89443770762E+02 0.  0.
          5    1    4    4  502    0 -0.13700479875E+02  0.19619409872E+02  0.39014168204E+02  0.46008909063E+02  0.47000000000E+01 0. -1.
         -5    1    3    3    0  503  0.86650037719E+01 -0.42970303359E+02 -0.19078667287E+02  0.48037639478E+02  0.47000000000E+01 0. -1.
          5    1    3    3  503    0  0.52913231465E+02  0.73130241673E+02  0.28799435296E+02  0.94864850101E+02  0.47000000000E+01 0. -1.
         -5    1    4    4    0  502 -0.47877755362E+02 -0.49779348186E+02 -0.11068014873E+02  0.70106019125E+02  0.47000000000E+01 0.  1.
<mgrwt>
<rscale>  0 0.13443340E+03</rscale>
<asrwt>0</asrwt>
<pdfrwt beam="1">  1        1 0.22821872E-01 0.14257148E+03</pdfrwt>
<pdfrwt beam="2">  1       -1 0.17026961E-01 0.14257148E+03</pdfrwt>
<totfact> 0.53954255E+03</totfact>
</mgrwt>
</event>
<event>
 8    1  0.3572165E-004  0.1513090E+03  0.7546771E-02  0.1207856E+00
          1   -1    0    0  501    0  0.00000000000E+00  0.00000000000E+00  0.31311491694E+03  0.31311491694E+03  0.00000000000E+00 0. -1.
         -1   -1    0    0    0  501 -0.00000000000E+00 -0.00000000000E+00 -0.60799942073E+02  0.60799942073E+02  0.00000000000E+00 0.  1.
         25    2    1    2    0    0 -0.26140358358E+02 -0.81168533810E+02  0.13652941851E+03  0.20380065819E+03  0.12499110746E+03 0.  0.
         23    2    1    2    0    0  0.26140358358E+02  0.81168533810E+02  0.11578555636E+03  0.17011420082E+03  0.90889477085E+02 0.  0.
          5    1    4    4  502    0 -0.17800751878E+02  0.50083164214E+02  0.10078787494E+03  0.11404155313E+03  0.47000000000E+01 0. -1.
         -5    1    3    3    0  503  0.47640926457E+02 -0.23692331113E+02  0.73743946444E+02  0.91056268671E+02  0.47000000000E+01 0.  1.
          5    1    3    3  503    0 -0.73781284814E+02 -0.57476202698E+02  0.62785472069E+02  0.11274438952E+03  0.47000000000E+01 0.  1.
         -5    1    4    4    0  502  0.43941110236E+02  0.31085369596E+02  0.14997681419E+02  0.56072647696E+02  0.47000000000E+01 0.  1.
<mgrwt>
<rscale>  0 0.14414646E+03</rscale>
<asrwt>0</asrwt>
<pdfrwt beam="1">  1        1 0.48171525E-01 0.15130904E+03</pdfrwt>
<pdfrwt beam="2">  1       -1 0.93538374E-02 0.15130904E+03</pdfrwt>
<totfact> 0.54084062E+03</totfact>
</mgrwt>
</event>
<event>
 8    1  0.3572165E-004  0.1784385E+03  0.7546771E-02  0.1175532E+00
          2   -1    0    0  501    0  0.00000000000E+00  0.00000000000E+00  0.29071446534E+03  0.29071446534E+03  0.00000000000E+00 0. -1.
         -2   -1    0    0    0  501 -0.00000000000E+00 -0.00000000000E+00 -0.10236014589E+03  0.10236014589E+03  0.00000000000E+00 0.  1.
         25    2    1    2    0    0  0.62124018240E+02  0.11116317084E+03  0.49830504595E+02  0.18526567366E+03  0.12499458571E+03 0.  0.
         23    2    1    2    0    0 -0.62124018240E+02 -0.11116317084E+03  0.13852381486E+03  0.20780893756E+03  0.88198996897E+02 0.  0.
          5    1    3    3  502    0 -0.32151130325E+01 -0.25795811550E+02  0.10563636377E+02  0.28450681167E+02  0.47000000000E+01 0.  1.
         -5    1    3    3    0  502  0.65339131272E+02  0.13695898239E+03  0.39266868218E+02  0.15681499250E+03  0.47000000000E+01 0.  1.
          5    1    4    4  503    0 -0.30178423278E+02 -0.10989550084E+03  0.13268402414E+03  0.17497113647E+03  0.47000000000E+01 0. -1.
         -5    1    4    4    0  503 -0.31945594962E+02 -0.12676700024E+01  0.58397907156E+01  0.32837801088E+02  0.47000000000E+01 0.  1.
<mgrwt>
<rscale>  0 0.17223963E+03</rscale>
<asrwt>0</asrwt>
<pdfrwt beam="1">  1        2 0.44725302E-01 0.17843848E+03</pdfrwt>
<pdfrwt beam="2">  1       -2 0.15747715E-01 0.17843848E+03</pdfrwt>
<totfact> 0.34924795E+03</totfact>
</mgrwt>
</event>
