<event>
 8    1  0.3407580E-004  0.1377378E+03  0.7546771E-02  0.1226908E+00
         -1   -1    0    0    0  501 -0.00000000000E+00  0.00000000000E+00  0.60629277688E+02  0.60629277688E+02  0.00000000000E+00 0.  1.
          1   -1    0    0  501    0  0.00000000000E+00 -0.00000000000E+00 -0.28561081383E+03  0.28561081383E+03  0.00000000000E+00 0. -1.
         25    2    1    2    0    0  0.38177709544E+01  0.57729988892E+02 -0.66342757210E+02  0.15288254393E+03  0.12499753522E+03 0.  0.
         23    2    1    2    0    0 -0.38177709544E+01 -0.57729988892E+02 -0.15863877893E+03  0.19335754759E+03  0.94199533096E+02 0.  0.
          5    1    4    4  502    0  0.38941144515E+02 -0.54127418682E+02 -0.10551317712E+03  0.12490520700E+03  0.47000000000E+01 0. -1.
         -5    1    3    3    0  503 -0.23780134164E+02  0.59931607058E+02 -0.93594760179E+02  0.11375131401E+03  0.47000000000E+01 0.  1.
          5    1    3    3  503    0  0.27597905118E+02 -0.22016181668E+01  0.27252002969E+02  0.39131229923E+02  0.47000000000E+01 0.  1.
         -5    1    4    4    0  502 -0.42758915469E+02 -0.36025702096E+01 -0.53125601810E+02  0.68452340588E+02  0.47000000000E+01 0.  1.
<mgrwt>
<rscale>  0 0.13037002E+03</rscale>
<asrwt>0</asrwt>
<pdfrwt beam="1">  1        1 0.43940125E-01 0.13773783E+03</pdfrwt>
<pdfrwt beam="2">  1       -1 0.93275812E-02 0.13773783E+03</pdfrwt>
<totfact> 0.60538424E+03</totfact>
</mgrwt>
</event>
<event>
 8    1  0.3407580E-004  0.1259000E+03  0.7546771E-02  0.1248121E+00
          2   -1    0    0  501    0  0.00000000000E+00  0.00000000000E+00  0.51039159257E+02  0.51039159257E+02  0.00000000000E+00 0. -1.
         -2   -1    0    0    0  501 -0.00000000000E+00 -0.00000000000E+00 -0.23804803469E+03  0.23804803469E+03  0.00000000000E+00 0.  1.
         25    2    1    2    0    0  0.14141878304E+02 -0.48406758045E+01 -0.96184887948E+02  0.15843718583E+03  0.12500953692E+03 0.  0.
         23    2    1    2    0    0 -0.14141878304E+02  0.48406758045E+01 -0.90823987489E+02  0.13065000812E+03  0.92720025096E+02 0.  0.
          5    1    3    3  502    0  0.23477964165E+02 -0.25005913281E+02 -0.12037523370E+03  0.12525492959E+03  0.47000000000E+01 0.  1.
         -5    1    4    4    0  503  0.22672938096E+02 -0.17141867412E+02  0.13928934263E+01  0.28843298916E+02  0.47000000000E+01 0.  1.
          5    1    4    4  503    0 -0.36814816400E+02  0.21982543216E+02 -0.92216880916E+02  0.10180670920E+03  0.47000000000E+01 0. -1.
         -5    1    3    3    0  502 -0.93360858610E+01  0.20165237477E+02  0.24190345747E+02  0.33182256238E+02  0.47000000000E+01 0.  1.
<mgrwt>
<rscale>  0 0.11700529E+03</rscale>
<asrwt>0</asrwt>
<pdfrwt beam="1">  1        2 0.78521783E-02 0.12590000E+03</pdfrwt>
<pdfrwt beam="2">  1       -2 0.36622775E-01 0.12590000E+03</pdfrwt>
<totfact> 0.57850032E+03</totfact>
</mgrwt>
</event>
<event>
 8    1  0.3407580E-004  0.1279187E+03  0.7546771E-02  0.1241888E+00
          3   -1    0    0  501    0  0.00000000000E+00  0.00000000000E+00  0.74286642038E+02  0.74286642038E+02  0.00000000000E+00 0. -1.
         -3   -1    0    0    0  501 -0.00000000000E+00 -0.00000000000E+00 -0.17982331776E+03  0.17982331776E+03  0.00000000000E+00 0.  1.
         25    2    1    2    0    0 -0.95916405712E+01 -0.25556375042E+02 -0.74119780161E+02  0.14784093938E+03  0.12497229162E+03 0.  0.
         23    2    1    2    0    0  0.95916405712E+01  0.25556375042E+02 -0.31416895565E+02  0.10626902042E+03  0.97780138575E+02 0.  0.
          5    1    4    4  502    0  0.37873609308E+02  0.28723474436E+02  0.16335198885E+02  0.50481451923E+02  0.47000000000E+01 0. -1.
         -5    1    3    3    0  503 -0.47838463396E+02  0.30468276166E+02 -0.18043312563E+02  0.59703312813E+02  0.47000000000E+01 0.  1.
          5    1    3    3  503    0  0.38246822825E+02 -0.56024651207E+02 -0.56076467597E+02  0.88137626569E+02  0.47000000000E+01 0.  1.
         -5    1    4    4    0  502 -0.28281968737E+02 -0.31670993940E+01 -0.47752094451E+02  0.55787568495E+02  0.47000000000E+01 0.  1.
<mgrwt>
<rscale>  0 0.12073615E+03</rscale>
<asrwt>0</asrwt>
<pdfrwt beam="1">  1        3 0.11428714E-01 0.12791873E+03</pdfrwt>
<pdfrwt beam="2">  1       -3 0.27665126E-01 0.12791873E+03</pdfrwt>
<totfact> 0.16726812E+03</totfact>
</mgrwt>
</event>
<event>
 8    1  0.3407580E-004  0.1619581E+03  0.7546771E-02  0.1193542E+00
          2   -1    0    0  501    0  0.00000000000E+00  0.00000000000E+00  0.20728869686E+03  0.20728869686E+03  0.00000000000E+00 0.  1.
         -2   -1    0    0    0  501 -0.00000000000E+00 -0.00000000000E+00 -0.18752582978E+03  0.18752582978E+03  0.00000000000E+00 0. -1.
         25    2    1    2    0    0  0.96976745047E+02 -0.34648324430E+02  0.13786960588E+03  0.21269330280E+03  0.12500166944E+03 0.  0.
         23    2    1    2    0    0 -0.96976745047E+02  0.34648324430E+02 -0.11810673881E+03  0.18212122384E+03  0.92811329897E+02 0.  0.
          5    1    3    3  502    0  0.10844940926E+03  0.15906015184E+02  0.88567671888E+02  0.14099857514E+03  0.47000000000E+01 0.  1.
         -5    1    3    3    0  502 -0.11472664217E+02 -0.50554339614E+02  0.49301933991E+02  0.71694727653E+02  0.47000000000E+01 0.  1.
          5    1    4    4  503    0 -0.54531734317E+02  0.71928106468E+01 -0.18192719882E+01  0.55234466805E+02  0.47000000000E+01 0.  1.
         -5    1    4    4    0  503 -0.42445010730E+02  0.27455513783E+02 -0.11628746682E+03  0.12688675704E+03  0.47000000000E+01 0. -1.
<mgrwt>
<rscale>  0 0.15578229E+03</rscale>
<asrwt>0</asrwt>
<pdfrwt beam="1">  1        2 0.31890569E-01 0.16195806E+03</pdfrwt>
<pdfrwt beam="2">  1       -2 0.28850127E-01 0.16195806E+03</pdfrwt>
<totfact> 0.17688648E+03</totfact>
</mgrwt>
</event>
<event>
 8    1  0.3407580E-004  0.1395217E+03  0.7546771E-02  0.1226289E+00
         -2   -1    0    0    0  501 -0.00000000000E+00  0.00000000000E+00  0.60943525608E+02  0.60943525608E+02  0.00000000000E+00 0.  1.
          2   -1    0    0  501    0  0.00000000000E+00 -0.00000000000E+00 -0.27097072952E+03  0.27097072952E+03  0.00000000000E+00 0. -1.
         25    2    1    2    0    0 -0.29317624762E+01  0.61908126987E+02 -0.72570881143E+02  0.15726672866E+03  0.12500031894E+03 0.  0.
         23    2    1    2    0    0  0.29317624762E+01 -0.61908126987E+02 -0.13745632277E+03  0.17464752646E+03  0.88126649846E+02 0.  0.
          5    1    4    4  502    0  0.18194239621E+02 -0.45326397398E+02 -0.14281637417E+03  0.15101032875E+03  0.47000000000E+01 0. -1.
         -5    1    4    4    0  502 -0.15262477145E+02 -0.16581729589E+02  0.53600514073E+01  0.23637197716E+02  0.47000000000E+01 0.  1.
          5    1    3    3  503    0 -0.83549071930E+01  0.91852566644E+02 -0.83588594259E+02  0.12456260098E+03  0.47000000000E+01 0.  1.
         -5    1    3    3    0  503  0.54231447167E+01 -0.29944439657E+02  0.11017713116E+02  0.32704127679E+02  0.47000000000E+01 0.  1.
<mgrwt>
<rscale>  0 0.13078972E+03</rscale>
<asrwt>0</asrwt>
<pdfrwt beam="1">  1        2 0.41687805E-01 0.13952165E+03</pdfrwt>
<pdfrwt beam="2">  1       -2 0.93759270E-02 0.13952165E+03</pdfrwt>
<totfact> 0.85352717E+03</totfact>
</mgrwt>
</event>
<event>
 8    1  0.3407580E-004  0.1278180E+03  0.7546771E-02  0.1246280E+00
          1   -1    0    0  501    0  0.00000000000E+00  0.00000000000E+00  0.32709915002E+02  0.32709915002E+02  0.00000000000E+00 0. -1.
         -1   -1    0    0    0  501 -0.00000000000E+00 -0.00000000000E+00 -0.38016848127E+03  0.38016848127E+03  0.00000000000E+00 0.  1.
         25    2    1    2    0    0 -0.22967300314E+02  0.13513597501E+02 -0.22827854455E+03  0.26162672919E+03  0.12500934895E+03 0.  0.
         23    2    1    2    0    0  0.22967300314E+02 -0.13513597501E+02 -0.11918002173E+03  0.15125166709E+03  0.89236063435E+02 0.  0.
          5    1    4    4  502    0  0.49510764457E+02  0.16779255707E+02 -0.63881546181E+02  0.82678903970E+02  0.47000000000E+01 0. -1.
         -5    1    3    3    0  503 -0.69011262231E+02 -0.17306425693E+02 -0.11260242072E+03  0.13327963774E+03  0.47000000000E+01 0.  1.
          5    1    3    3  503    0  0.46043961917E+02  0.30820023194E+02 -0.11567612383E+03  0.12834709144E+03  0.47000000000E+01 0.  1.
         -5    1    4    4    0  502 -0.26543464143E+02 -0.30292853208E+02 -0.55298475545E+02  0.68572763119E+02  0.47000000000E+01 0.  1.
<mgrwt>
<rscale>  0 0.11809091E+03</rscale>
<asrwt>0</asrwt>
<pdfrwt beam="1">  1        1 0.50322948E-02 0.12781804E+03</pdfrwt>
<pdfrwt beam="2">  1       -1 0.58487456E-01 0.12781804E+03</pdfrwt>
<totfact> 0.47903322E+03</totfact>
</mgrwt>
</event>
<event>
 8    1  0.3407580E-004  0.1574461E+03  0.7546771E-02  0.1199985E+00
         -1   -1    0    0    0  501 -0.00000000000E+00  0.00000000000E+00  0.56679962271E+02  0.56679962271E+02  0.00000000000E+00 0.  1.
          1   -1    0    0  501    0  0.00000000000E+00 -0.00000000000E+00 -0.40110508772E+03  0.40110508772E+03  0.00000000000E+00 0. -1.
         25    2    1    2    0    0  0.34264688084E+02  0.89389795207E+02 -0.12032636616E+03  0.19816085308E+03  0.12499873985E+03 0.  0.
         23    2    1    2    0    0 -0.34264688084E+02 -0.89389795207E+02 -0.22409875929E+03  0.25962419691E+03  0.89553701035E+02 0.  0.
          5    1    3    3  502    0  0.77215630681E+02  0.41450498658E+02 -0.43901135603E+02  0.98131529937E+02  0.47000000000E+01 0.  1.
         -5    1    3    3    0  502 -0.42950942596E+02  0.47939296549E+02 -0.76425230554E+02  0.10002932314E+03  0.47000000000E+01 0.  1.
          5    1    4    4  503    0  0.19835418389E+02 -0.67594757799E+02 -0.14457018006E+03  0.16088853926E+03  0.47000000000E+01 0. -1.
         -5    1    4    4    0  503 -0.54100106474E+02 -0.21795037407E+02 -0.79528579239E+02  0.98735657651E+02  0.47000000000E+01 0.  1.
<mgrwt>
<rscale>  0 0.15039765E+03</rscale>
<asrwt>0</asrwt>
<pdfrwt beam="1">  1        1 0.61708477E-01 0.15744615E+03</pdfrwt>
<pdfrwt beam="2">  1       -1 0.87199940E-02 0.15744615E+03</pdfrwt>
<totfact> 0.44207633E+03</totfact>
</mgrwt>
</event>
<event>
 8    1  0.3407580E-004  0.1722933E+03  0.7546771E-02  0.1181447E+00
         -2   -1    0    0    0  501 -0.00000000000E+00  0.00000000000E+00  0.23822418162E+02  0.23822418162E+02  0.00000000000E+00 0.  1.
          2   -1    0    0  501    0  0.00000000000E+00 -0.00000000000E+00 -0.11127053739E+04  0.11127053739E+04  0.00000000000E+00 0. -1.
         25    2    1    2    0    0 -0.38108663330E+02 -0.11228247602E+03 -0.50719114671E+03  0.53565644866E+03  0.12500138819E+03 0.  0.
         23    2    1    2    0    0  0.38108663330E+02  0.11228247602E+03 -0.58169180902E+03  0.60087134339E+03  0.92851418894E+02 0.  0.
          5    1    3    3  502    0  0.86561510637E+01 -0.63680287249E+02 -0.42202488816E+03  0.42691592165E+03  0.47000000000E+01 0.  1.
         -5    1    3    3    0  502 -0.46764814394E+02 -0.48602188766E+02 -0.85166258548E+02  0.10874052700E+03  0.47000000000E+01 0.  1.
          5    1    4    4  503    0  0.15629845883E+02  0.52864581325E+02 -0.46184271186E+03  0.46514485544E+03  0.47000000000E+01 0. -1.
         -5    1    4    4    0  503  0.22478817447E+02  0.59417894690E+02 -0.11984909716E+03  0.13572648796E+03  0.47000000000E+01 0.  1.
<mgrwt>
<rscale>  0 0.16659388E+03</rscale>
<asrwt>0</asrwt>
<pdfrwt beam="1">  1        2 0.17118545E+00 0.17229327E+03</pdfrwt>
<pdfrwt beam="2">  1       -2 0.36649873E-02 0.17229327E+03</pdfrwt>
<totfact> 0.69202418E+03</totfact>
</mgrwt>
</event>
<event>
 8    1  0.3407580E-004  0.1301500E+03  0.7546771E-02  0.1241645E+00
         -3   -1    0    0    0  501 -0.00000000000E+00  0.00000000000E+00  0.13677239357E+03  0.13677239357E+03  0.00000000000E+00 0.  1.
          3   -1    0    0  501    0  0.00000000000E+00 -0.00000000000E+00 -0.11215995012E+03  0.11215995012E+03  0.00000000000E+00 0. -1.
         25    2    1    2    0    0  0.31391283769E+02 -0.18153197782E+02 -0.35537637968E+02  0.13491455019E+03  0.12499624336E+03 0.  0.
         23    2    1    2    0    0 -0.31391283769E+02  0.18153197782E+02  0.60150081420E+02  0.11401779349E+03  0.89816889568E+02 0.  0.
          5    1    3    3  502    0 -0.56993606929E+01 -0.67498797049E+02 -0.13727525287E+02  0.69275574815E+02  0.47000000000E+01 0. -1.
         -5    1    4    4    0  503  0.20836208362E+02  0.13445344231E+02  0.55735208918E+02  0.61183562936E+02  0.47000000000E+01 0.  1.
          5    1    4    4  503    0 -0.52227492131E+02  0.47078535510E+01  0.44148725027E+01  0.52834230557E+02  0.47000000000E+01 0. -1.
         -5    1    3    3    0  502  0.37090644462E+02  0.49345599267E+02 -0.21810112681E+02  0.65638975378E+02  0.47000000000E+01 0. -1.
<mgrwt>
<rscale>  0 0.12088436E+03</rscale>
<asrwt>0</asrwt>
<pdfrwt beam="1">  1        3 0.17255377E-01 0.13014996E+03</pdfrwt>
<pdfrwt beam="2">  1       -3 0.21041907E-01 0.13014996E+03</pdfrwt>
<totfact> 0.13627462E+03</totfact>
</mgrwt>
</event>
<event>
 8    1  0.3407580E-004  0.1711720E+03  0.7546771E-02  0.1183439E+00
          1   -1    0    0  501    0  0.00000000000E+00  0.00000000000E+00  0.26237480713E+03  0.26237480713E+03  0.00000000000E+00 0. -1.
         -1   -1    0    0    0  501 -0.00000000000E+00 -0.00000000000E+00 -0.13209127083E+03  0.13209127083E+03  0.00000000000E+00 0.  1.
         25    2    1    2    0    0 -0.11102900901E+03  0.36715762796E+02  0.17109280490E+03  0.24201774353E+03  0.12499740884E+03 0.  0.
         23    2    1    2    0    0  0.11102900901E+03 -0.36715762796E+02 -0.40809268590E+02  0.15244833443E+03  0.88879751287E+02 0.  0.
          5    1    3    3  502    0 -0.71293345805E+02  0.78757754055E+02  0.14111216189E+03  0.17669254997E+03  0.47000000000E+01 0. -1.
         -5    1    4    4    0  503  0.38272112081E+02 -0.38862596478E+02 -0.55594283479E+02  0.78024805823E+02  0.47000000000E+01 0.  1.
          5    1    4    4  503    0  0.72756896925E+02  0.21468336820E+01  0.14785014888E+02  0.74423528606E+02  0.47000000000E+01 0. -1.
         -5    1    3    3    0  502 -0.39735663201E+02 -0.42041991259E+02  0.29980643006E+02  0.65325193563E+02  0.47000000000E+01 0. -1.
<mgrwt>
<rscale>  0 0.16474740E+03</rscale>
<asrwt>0</asrwt>
<pdfrwt beam="1">  1        1 0.40365355E-01 0.17117196E+03</pdfrwt>
<pdfrwt beam="2">  1       -1 0.20321734E-01 0.17117196E+03</pdfrwt>
<totfact> 0.20093644E+03</totfact>
</mgrwt>
</event>
<event>
 8    1  0.3407580E-004  0.2011561E+03  0.7546771E-02  0.1153021E+00
          2   -1    0    0  501    0  0.00000000000E+00  0.00000000000E+00  0.34970883914E+03  0.34970883914E+03  0.00000000000E+00 0. -1.
         -2   -1    0    0    0  501 -0.00000000000E+00 -0.00000000000E+00 -0.11141941991E+03  0.11141941991E+03  0.00000000000E+00 0.  1.
         25    2    1    2    0    0 -0.12999965511E+03 -0.89111267574E+02  0.69061071883E+02  0.21268104717E+03  0.12499227111E+03 0.  0.
         23    2    1    2    0    0  0.12999965511E+03  0.89111267574E+02  0.16922834735E+03  0.24844721188E+03  0.90813298627E+02 0.  0.
          5    1    3    3  502    0 -0.11009584671E+03 -0.53673411612E+01  0.16068970102E+02  0.11149083198E+03  0.47000000000E+01 0.  1.
         -5    1    4    4    0  503  0.46177276642E+01  0.39452125669E+02  0.13106230334E+02  0.42091054895E+02  0.47000000000E+01 0.  1.
          5    1    4    4  503    0  0.12538192745E+03  0.49659141905E+02  0.15612211701E+03  0.20635615699E+03  0.47000000000E+01 0. -1.
         -5    1    3    3    0  502 -0.19903808402E+02 -0.83743926413E+02  0.52992101781E+02  0.10119021519E+03  0.47000000000E+01 0.  1.
<mgrwt>
<rscale>  0 0.19615909E+03</rscale>
<asrwt>0</asrwt>
<pdfrwt beam="1">  1        2 0.53801359E-01 0.20115615E+03</pdfrwt>
<pdfrwt beam="2">  1       -2 0.17141449E-01 0.20115615E+03</pdfrwt>
<totfact> 0.24995871E+03</totfact>
</mgrwt>
</event>
<event>
 8    1  0.3407580E-004  0.1492929E+03  0.7546771E-02  0.1210844E+00
         -2   -1    0    0    0  501 -0.00000000000E+00  0.00000000000E+00  0.15399254137E+03  0.15399254137E+03  0.00000000000E+00 0.  1.
          2   -1    0    0  501    0  0.00000000000E+00 -0.00000000000E+00 -0.13501091273E+03  0.13501091273E+03  0.00000000000E+00 0. -1.
         25    2    1    2    0    0  0.32967455589E+02 -0.74669275668E+02 -0.38818260858E+02  0.15425701400E+03  0.12500406047E+03 0.  0.
         23    2    1    2    0    0 -0.32967455589E+02  0.74669275668E+02  0.57799889491E+02  0.13474644010E+03  0.90296301355E+02 0.  0.
          5    1    3    3  502    0  0.20078472514E+02 -0.10643053271E+03 -0.47849542691E+02  0.11850009320E+03  0.47000000000E+01 0. -1.
         -5    1    4    4    0  503  0.14124741248E+01  0.59914481367E+02  0.72583564452E+02  0.94245445456E+02  0.47000000000E+01 0.  1.
          5    1    4    4  503    0 -0.34379929714E+02  0.14754794301E+02 -0.14783674961E+02  0.40500994647E+02  0.47000000000E+01 0. -1.
         -5    1    3    3    0  502  0.12888983075E+02  0.31761257044E+02  0.90312818329E+01  0.35756920802E+02  0.47000000000E+01 0. -1.
<mgrwt>
<rscale>  0 0.14186325E+03</rscale>
<asrwt>0</asrwt>
<pdfrwt beam="1">  1        2 0.20770910E-01 0.14929290E+03</pdfrwt>
<pdfrwt beam="2">  1       -2 0.23691160E-01 0.14929290E+03</pdfrwt>
<totfact> 0.40057215E+03</totfact>
</mgrwt>
</event>
<event>
 8    1  0.3407580E-004  0.1394180E+03  0.7546771E-02  0.1224931E+00
         -1   -1    0    0    0  501 -0.00000000000E+00  0.00000000000E+00  0.34659226528E+03  0.34659226528E+03  0.00000000000E+00 0.  1.
          1   -1    0    0  501    0  0.00000000000E+00 -0.00000000000E+00 -0.45649315386E+02  0.45649315386E+02  0.00000000000E+00 0. -1.
         25    2    1    2    0    0 -0.55725473263E+02 -0.26553100229E+02  0.18537697802E+03  0.23195260263E+03  0.12500796129E+03 0.  0.
         23    2    1    2    0    0  0.55725473263E+02  0.26553100229E+02  0.11556597187E+03  0.16028897803E+03  0.92339954094E+02 0.  0.
          5    1    4    4  502    0  0.82787813110E+01  0.34137685628E+02  0.43236595373E+00  0.35442865860E+02  0.47000000000E+01 0. -1.
         -5    1    4    4    0  502  0.47446691952E+02 -0.75845853997E+01  0.11513360592E+03  0.12484611217E+03  0.47000000000E+01 0.  1.
          5    1    3    3  503    0 -0.51201159282E+02 -0.74733808621E+02  0.11679574333E+03  0.14788521401E+03  0.47000000000E+01 0. -1.
         -5    1    3    3    0  503 -0.45243139815E+01  0.48180708392E+02  0.68581234694E+02  0.84067388625E+02  0.47000000000E+01 0. -1.
<mgrwt>
<rscale>  0 0.13171665E+03</rscale>
<asrwt>0</asrwt>
<pdfrwt beam="1">  1        1 0.70229718E-02 0.13941803E+03</pdfrwt>
<pdfrwt beam="2">  1       -1 0.53321885E-01 0.13941803E+03</pdfrwt>
<totfact> 0.36414109E+03</totfact>
</mgrwt>
</event>
<event>
 8    1  0.3407580E-004  0.1339859E+03  0.7546771E-02  0.1233947E+00
         -2   -1    0    0    0  501 -0.00000000000E+00  0.00000000000E+00  0.14647409606E+03  0.14647409606E+03  0.00000000000E+00 0.  1.
          2   -1    0    0  501    0  0.00000000000E+00 -0.00000000000E+00 -0.15319857086E+03  0.15319857086E+03  0.00000000000E+00 0. -1.
         25    2    1    2    0    0  0.44631958514E+02 -0.18305452781E+02  0.87016959563E+02  0.15976283646E+03  0.12500044536E+03 0.  0.
         23    2    1    2    0    0 -0.44631958514E+02  0.18305452781E+02 -0.93741434365E+02  0.13990983046E+03  0.91979360833E+02 0.  0.
          5    1    4    4  502    0 -0.65406382710E+02 -0.11861378223E+02 -0.65284202658E+02  0.93288821996E+02  0.47000000000E+01 0. -1.
         -5    1    3    3    0  503  0.42984479330E+02  0.49334184176E+02  0.50092675536E+02  0.82540252810E+02  0.47000000000E+01 0. -1.
          5    1    3    3  503    0  0.16474791840E+01 -0.67639636958E+02  0.36924284028E+02  0.77222583655E+02  0.47000000000E+01 0. -1.
         -5    1    4    4    0  502  0.20774424197E+02  0.30166831004E+02 -0.28457231707E+02  0.46621008461E+02  0.47000000000E+01 0.  1.
<mgrwt>
<rscale>  0 0.12572115E+03</rscale>
<asrwt>0</asrwt>
<pdfrwt beam="1">  1        2 0.23569011E-01 0.13398587E+03</pdfrwt>
<pdfrwt beam="2">  1       -2 0.22534476E-01 0.13398587E+03</pdfrwt>
<totfact> 0.37685810E+03</totfact>
</mgrwt>
</event>
<event>
 8    1  0.3407580E-004  0.1397797E+03  0.7546771E-02  0.1224971E+00
         -3   -1    0    0    0  501 -0.00000000000E+00  0.00000000000E+00  0.35732670727E+03  0.35732670727E+03  0.00000000000E+00 0.  1.
          3   -1    0    0  501    0  0.00000000000E+00 -0.00000000000E+00 -0.44062876755E+02  0.44062876755E+02  0.00000000000E+00 0. -1.
         25    2    1    2    0    0 -0.59989285182E+02 -0.17768579590E+02  0.19334339898E+03  0.23857920980E+03  0.12499573057E+03 0.  0.
         23    2    1    2    0    0  0.59989285182E+02  0.17768579590E+02  0.11992043153E+03  0.16281037423E+03  0.90619375959E+02 0.  0.
          5    1    3    3  502    0 -0.41572918097E+02 -0.67082884873E+02  0.15253852245E+03  0.17180952184E+03  0.47000000000E+01 0. -1.
         -5    1    4    4    0  503  0.36750352936E+02  0.49382165652E+02  0.39738077589E+02  0.73419285858E+02  0.47000000000E+01 0. -1.
          5    1    4    4  503    0  0.23238932246E+02 -0.31613586062E+02  0.80182353944E+02  0.89391088368E+02  0.47000000000E+01 0.  1.
         -5    1    3    3    0  502 -0.18416367086E+02  0.49314305282E+02  0.40804876531E+02  0.66769687964E+02  0.47000000000E+01 0. -1.
<mgrwt>
<rscale>  0 0.13168891E+03</rscale>
<asrwt>0</asrwt>
<pdfrwt beam="1">  1        3 0.67789044E-02 0.13977972E+03</pdfrwt>
<pdfrwt beam="2">  1       -3 0.54973338E-01 0.13977972E+03</pdfrwt>
<totfact> 0.10669095E+03</totfact>
</mgrwt>
</event>
<event>
 8    1  0.3407580E-004  0.1640704E+03  0.7546771E-02  0.1191002E+00
         -2   -1    0    0    0  501 -0.00000000000E+00  0.00000000000E+00  0.84798906447E+02  0.84798906447E+02  0.00000000000E+00 0.  1.
          2   -1    0    0  501    0  0.00000000000E+00 -0.00000000000E+00 -0.29245506365E+03  0.29245506365E+03  0.00000000000E+00 0. -1.
         25    2    1    2    0    0 -0.55248716788E+02  0.90798763312E+02 -0.15792273984E+03  0.22772503369E+03  0.12498905185E+03 0.  0.
         23    2    1    2    0    0  0.55248716788E+02 -0.90798763312E+02 -0.49733417357E+02  0.14952893640E+03  0.92674990663E+02 0.  0.
          5    1    3    3  502    0 -0.91061061744E+01 -0.31122445843E+02 -0.41546296863E+02  0.52912310363E+02  0.47000000000E+01 0. -1.
         -5    1    3    3    0  502 -0.46142610614E+02  0.12192120916E+03 -0.11637644298E+03  0.17481272333E+03  0.47000000000E+01 0. -1.
          5    1    4    4  503    0  0.20813990217E+02  0.13267414381E+02 -0.28109034717E+02  0.37702179060E+02  0.47000000000E+01 0. -1.
         -5    1    4    4    0  503  0.34434726570E+02 -0.10406617769E+03 -0.21624382639E+02  0.11182675734E+03  0.47000000000E+01 0.  1.
<mgrwt>
<rscale>  0 0.15797550E+03</rscale>
<asrwt>0</asrwt>
<pdfrwt beam="1">  1        2 0.44993087E-01 0.16407041E+03</pdfrwt>
<pdfrwt beam="2">  1       -2 0.13045985E-01 0.16407041E+03</pdfrwt>
<totfact> 0.47018668E+03</totfact>
</mgrwt>
</event>
<event>
 8    1  0.3407580E-004  0.1314870E+03  0.7546771E-02  0.1243178E+00
         -3   -1    0    0    0  501 -0.00000000000E+00  0.00000000000E+00  0.54499429919E+03  0.54499429919E+03  0.00000000000E+00 0. -1.
          3   -1    0    0  501    0  0.00000000000E+00 -0.00000000000E+00 -0.22730874602E+02  0.22730874602E+02  0.00000000000E+00 0.  1.
         25    2    1    2    0    0 -0.38629643719E+02 -0.13062754436E+02  0.30261074341E+03  0.32994256278E+03  0.12500379106E+03 0.  0.
         23    2    1    2    0    0  0.38629643719E+02  0.13062754436E+02  0.21965268117E+03  0.23778261101E+03  0.81427174973E+02 0.  0.
          5    1    3    3  502    0 -0.46353140233E+02  0.19284797974E+02  0.28954582813E+03  0.29390371490E+03  0.47000000000E+01 0. -1.
         -5    1    3    3    0  502  0.77234965138E+01 -0.32347552410E+02  0.13064915278E+02  0.36038847881E+02  0.47000000000E+01 0. -1.
          5    1    4    4  503    0  0.35014199343E+02 -0.28527343302E+02  0.80466484848E+02  0.92394527193E+02  0.47000000000E+01 0. -1.
         -5    1    4    4    0  503  0.36154443766E+01  0.41590097738E+02  0.13918619632E+03  0.14538808381E+03  0.47000000000E+01 0.  1.
<mgrwt>
<rscale>  0 0.11995072E+03</rscale>
<asrwt>0</asrwt>
<pdfrwt beam="1">  1        3 0.34970580E-02 0.13148701E+03</pdfrwt>
<pdfrwt beam="2">  1       -3 0.83845267E-01 0.13148701E+03</pdfrwt>
<totfact> 0.12360396E+03</totfact>
</mgrwt>
</event>
<event>
 8    1  0.3407580E-004  0.1568041E+03  0.7546771E-02  0.1200388E+00
          2   -1    0    0  501    0  0.00000000000E+00  0.00000000000E+00  0.15871331475E+04  0.15871331475E+04  0.00000000000E+00 0. -1.
         -2   -1    0    0    0  501 -0.00000000000E+00 -0.00000000000E+00 -0.13836751368E+02  0.13836751368E+02  0.00000000000E+00 0.  1.
         25    2    1    2    0    0  0.69053377386E+02  0.64743539539E+02  0.10362513821E+04  0.10480479307E+04  0.12500977293E+03 0.  0.
         23    2    1    2    0    0 -0.69053377386E+02 -0.64743539539E+02  0.53704501403E+03  0.55292196815E+03  0.91352399693E+02 0.  0.
          5    1    3    3  502    0  0.74702128986E+01 -0.36358990714E+02  0.30021552529E+03  0.30253798424E+03  0.47000000000E+01 0.  1.
         -5    1    3    3    0  502  0.61583164488E+02  0.10110253025E+03  0.73603585678E+03  0.74550994644E+03  0.47000000000E+01 0.  1.
          5    1    4    4  503    0  0.13859281566E+02 -0.43229638562E+02  0.19803207035E+03  0.20322320788E+03  0.47000000000E+01 0. -1.
         -5    1    4    4    0  503 -0.82912658953E+02 -0.21513900977E+02  0.33901294368E+03  0.34969876027E+03  0.47000000000E+01 0.  1.
<mgrwt>
<rscale>  0 0.15006890E+03</rscale>
<asrwt>0</asrwt>
<pdfrwt beam="1">  1        2 0.24417419E+00 0.15680414E+03</pdfrwt>
<pdfrwt beam="2">  1       -2 0.21287322E-02 0.15680414E+03</pdfrwt>
<totfact> 0.85045308E+03</totfact>
</mgrwt>
</event>
<event>
 8    1  0.3407580E-004  0.1310363E+03  0.7546771E-02  0.1239428E+00
          2   -1    0    0  501    0  0.00000000000E+00  0.00000000000E+00  0.31438535947E+03  0.31438535947E+03  0.00000000000E+00 0. -1.
         -2   -1    0    0    0  501 -0.00000000000E+00 -0.00000000000E+00 -0.44445027418E+02  0.44445027418E+02  0.00000000000E+00 0.  1.
         25    2    1    2    0    0  0.36735252461E+02 -0.14057102243E+02  0.11250348023E+03  0.17270653978E+03  0.12499373953E+03 0.  0.
         23    2    1    2    0    0 -0.36735252461E+02  0.14057102243E+02  0.15743685182E+03  0.18612384711E+03  0.91151759474E+02 0.  0.
          5    1    3    3  502    0 -0.15368538106E+01 -0.34536450945E+02 -0.14968960369E+02  0.37964300838E+02  0.47000000000E+01 0. -1.
         -5    1    3    3    0  502  0.38272106271E+02  0.20479348703E+02  0.12747244060E+03  0.13474223894E+03  0.47000000000E+01 0. -1.
          5    1    4    4  503    0 -0.48417266310E+02 -0.27233789834E+02  0.80822535844E+02  0.98184944293E+02  0.47000000000E+01 0. -1.
         -5    1    4    4    0  503  0.11682013849E+02  0.41290892077E+02  0.76614315981E+02  0.87938902821E+02  0.47000000000E+01 0.  1.
<mgrwt>
<rscale>  0 0.12225168E+03</rscale>
<asrwt>0</asrwt>
<pdfrwt beam="1">  1        2 0.48366977E-01 0.13103631E+03</pdfrwt>
<pdfrwt beam="2">  1       -2 0.68376967E-02 0.13103631E+03</pdfrwt>
<totfact> 0.11819154E+04</totfact>
</mgrwt>
</event>
<event>
 8    1  0.3407580E-004  0.1332426E+03  0.7546771E-02  0.1235593E+00
         -1   -1    0    0    0  501 -0.00000000000E+00  0.00000000000E+00  0.23105848643E+02  0.23105848643E+02  0.00000000000E+00 0.  1.
          1   -1    0    0  501    0  0.00000000000E+00 -0.00000000000E+00 -0.61376510133E+03  0.61376510133E+03  0.00000000000E+00 0. -1.
         25    2    1    2    0    0  0.44196499075E+02  0.13230499826E+02 -0.28500929684E+03  0.31461706701E+03  0.12500089165E+03 0.  0.
         23    2    1    2    0    0 -0.44196499075E+02 -0.13230499826E+02 -0.30564995585E+03  0.32225388296E+03  0.91089477547E+02 0.  0.
          5    1    4    4  502    0 -0.43819426091E+02 -0.39821141159E+02 -0.11242452753E+03  0.12715042185E+03  0.47000000000E+01 0. -1.
         -5    1    4    4    0  502 -0.37707298345E+00  0.26590641333E+02 -0.19322542831E+03  0.19510346111E+03  0.47000000000E+01 0.  1.
          5    1    3    3  503    0 -0.30858464587E+02 -0.21352485702E+02 -0.16197158591E+03  0.16632816396E+03  0.47000000000E+01 0.  1.
         -5    1    3    3    0  503  0.75054963662E+02  0.34582985529E+02 -0.12303771093E+03  0.14828890305E+03  0.47000000000E+01 0.  1.
<mgrwt>
<rscale>  0 0.12466525E+03</rscale>
<asrwt>0</asrwt>
<pdfrwt beam="1">  1        1 0.94425401E-01 0.13324263E+03</pdfrwt>
<pdfrwt beam="2">  1       -1 0.35547459E-02 0.13324263E+03</pdfrwt>
<totfact> 0.95424706E+03</totfact>
</mgrwt>
</event>
<event>
 8    1  0.3407580E-004  0.1554675E+03  0.7546771E-02  0.1201651E+00
          4   -1    0    0  501    0  0.00000000000E+00  0.00000000000E+00  0.39679947150E+02  0.39679947150E+02  0.00000000000E+00 0. -1.
         -4   -1    0    0    0  501 -0.00000000000E+00 -0.00000000000E+00 -0.60537165064E+03  0.60537165064E+03  0.00000000000E+00 0.  1.
         25    2    1    2    0    0 -0.92009267524E+02 -0.88804750773E+01 -0.18122144968E+03  0.23877053294E+03  0.12500234169E+03 0.  0.
         23    2    1    2    0    0  0.92009267524E+02  0.88804750773E+01 -0.38447025381E+03  0.40628106485E+03  0.93286437616E+02 0.  0.
          5    1    3    3  502    0 -0.43075475073E+02  0.51108621470E+02 -0.12871280679E+03  0.14510914641E+03  0.47000000000E+01 0.  1.
         -5    1    4    4    0  503  0.82339310440E+02 -0.18302655107E+02 -0.35445439270E+03  0.36438270504E+03  0.47000000000E+01 0.  1.
          5    1    4    4  503    0  0.96699570839E+01  0.27183130184E+02 -0.30015861110E+02  0.41898359810E+02  0.47000000000E+01 0. -1.
         -5    1    3    3    0  502 -0.48933792451E+02 -0.59989096548E+02 -0.52508642897E+02  0.93661386532E+02  0.47000000000E+01 0.  1.
<mgrwt>
<rscale>  0 0.14904546E+03</rscale>
<asrwt>0</asrwt>
<pdfrwt beam="1">  1        4 0.61046068E-02 0.15546753E+03</pdfrwt>
<pdfrwt beam="2">  1       -4 0.93134106E-01 0.15546753E+03</pdfrwt>
<totfact> 0.29720142E+02</totfact>
</mgrwt>
</event>
<event>
 8    1  0.3407580E-004  0.1408485E+03  0.7546771E-02  0.1222962E+00
         -1   -1    0    0    0  501 -0.00000000000E+00  0.00000000000E+00  0.78721118822E+02  0.78721118822E+02  0.00000000000E+00 0.  1.
          1   -1    0    0  501    0  0.00000000000E+00 -0.00000000000E+00 -0.20964036759E+03  0.20964036759E+03  0.00000000000E+00 0. -1.
         25    2    1    2    0    0 -0.27712368155E+02 -0.58700817126E+02 -0.47953427091E+02  0.14878784882E+03  0.12499812601E+03 0.  0.
         23    2    1    2    0    0  0.27712368155E+02  0.58700817126E+02 -0.82965821677E+02  0.13957363759E+03  0.91562609535E+02 0.  0.
          5    1    3    3  502    0 -0.20238432418E+02 -0.97147910514E+02 -0.22562171373E+02  0.10187468891E+03  0.47000000000E+01 0.  1.
         -5    1    3    3    0  502 -0.74739357365E+01  0.38447093388E+02 -0.25391255718E+02  0.46913159905E+02  0.47000000000E+01 0.  1.
          5    1    4    4  503    0  0.42578537926E+01  0.57410245862E+02 -0.96198289830E+02  0.11220635728E+03  0.47000000000E+01 0. -1.
         -5    1    4    4    0  503  0.23454514362E+02  0.12905712639E+01  0.13232468153E+02  0.27367280310E+02  0.47000000000E+01 0.  1.
<mgrwt>
<rscale>  0 0.13307594E+03</rscale>
<asrwt>0</asrwt>
<pdfrwt beam="1">  1        1 0.32252364E-01 0.14084847E+03</pdfrwt>
<pdfrwt beam="2">  1       -1 0.12110942E-01 0.14084847E+03</pdfrwt>
<totfact> 0.59580661E+03</totfact>
</mgrwt>
</event>
<event>
 8    1  0.3407580E-004  0.1569022E+03  0.7546771E-02  0.1198685E+00
          2   -1    0    0  501    0  0.00000000000E+00  0.00000000000E+00  0.32638778908E+03  0.32638778908E+03  0.00000000000E+00 0.  1.
         -2   -1    0    0    0  501 -0.00000000000E+00 -0.00000000000E+00 -0.65943213820E+02  0.65943213820E+02  0.00000000000E+00 0. -1.
         25    2    1    2    0    0 -0.60797465875E+01  0.94638780349E+02  0.13121477219E+03  0.20453757206E+03  0.12499935951E+03 0.  0.
         23    2    1    2    0    0  0.60797465875E+01 -0.94638780349E+02  0.12922980307E+03  0.18779343084E+03  0.97839504299E+02 0.  0.
          5    1    4    4  502    0 -0.97158878938E+00 -0.71973677115E+02  0.18524054027E+02  0.74474054272E+02  0.47000000000E+01 0. -1.
         -5    1    3    3    0  503 -0.59483313913E+02  0.37989839536E+02  0.30191238274E+02  0.76909644458E+02  0.47000000000E+01 0.  1.
          5    1    3    3  503    0  0.53403567326E+02  0.56648940813E+02  0.10102353391E+03  0.12762792760E+03  0.47000000000E+01 0.  1.
         -5    1    4    4    0  502  0.70513353768E+01 -0.22665103234E+02  0.11070574904E+03  0.11331937657E+03  0.47000000000E+01 0.  1.
<mgrwt>
<rscale>  0 0.15146478E+03</rscale>
<asrwt>0</asrwt>
<pdfrwt beam="1">  1        2 0.50213505E-01 0.15690221E+03</pdfrwt>
<pdfrwt beam="2">  1       -2 0.10145110E-01 0.15690221E+03</pdfrwt>
<totfact> 0.62350767E+03</totfact>
</mgrwt>
</event>
<event>
 8    1  0.3407580E-004  0.1317595E+03  0.7546771E-02  0.1238023E+00
         -2   -1    0    0    0  501 -0.00000000000E+00  0.00000000000E+00  0.29129948988E+02  0.29129948988E+02  0.00000000000E+00 0.  1.
          2   -1    0    0  501    0  0.00000000000E+00 -0.00000000000E+00 -0.60114447321E+03  0.60114447321E+03  0.00000000000E+00 0. -1.
         25    2    1    2    0    0 -0.39305689079E+02  0.13744246422E+02 -0.16559956345E+03  0.21162180128E+03  0.12500691925E+03 0.  0.
         23    2    1    2    0    0  0.39305689079E+02 -0.13744246422E+02 -0.40641496077E+03  0.41865262091E+03  0.91449741143E+02 0.  0.
          5    1    3    3  502    0 -0.34316743378E+02  0.50214859502E+02 -0.16343634454E+03  0.17444970538E+03  0.47000000000E+01 0.  1.
         -5    1    4    4    0  503  0.24914409907E+02 -0.51684506694E+02 -0.19468486754E+03  0.20301798862E+03  0.47000000000E+01 0.  1.
          5    1    4    4  503    0  0.14391279172E+02  0.37940260272E+02 -0.21173009323E+03  0.21563463229E+03  0.47000000000E+01 0. -1.
         -5    1    3    3    0  502 -0.49889457004E+01 -0.36470613080E+02 -0.21632189092E+01  0.37172095901E+02  0.47000000000E+01 0.  1.
<mgrwt>
<rscale>  0 0.12312890E+03</rscale>
<asrwt>0</asrwt>
<pdfrwt beam="1">  1        2 0.92483759E-01 0.13175952E+03</pdfrwt>
<pdfrwt beam="2">  1       -2 0.44815309E-02 0.13175952E+03</pdfrwt>
<totfact> 0.11080920E+04</totfact>
</mgrwt>
</event>
<event>
 8    1  0.3407580E-004  0.1353769E+03  0.7546771E-02  0.1231956E+00
          1   -1    0    0  501    0  0.00000000000E+00  0.00000000000E+00  0.12606932795E+03  0.12606932795E+03  0.00000000000E+00 0. -1.
         -1   -1    0    0    0  501 -0.00000000000E+00 -0.00000000000E+00 -0.12459608415E+03  0.12459608415E+03  0.00000000000E+00 0.  1.
         25    2    1    2    0    0 -0.49161710287E+02 -0.16900783913E+02  0.36264417695E+02  0.14014996311E+03  0.12499757563E+03 0.  0.
         23    2    1    2    0    0  0.49161710287E+02  0.16900783913E+02 -0.34791173894E+02  0.11051544898E+03  0.91108333470E+02 0.  0.
          5    1    3    3  502    0 -0.83304764288E+02 -0.13693150300E+02 -0.68843710918E+01  0.84833193289E+02  0.47000000000E+01 0. -1.
         -5    1    3    3    0  502  0.34143054001E+02 -0.32076336124E+01  0.43148788786E+02  0.55316769823E+02  0.47000000000E+01 0. -1.
          5    1    4    4  503    0  0.34840546024E+01  0.40227426825E+02  0.10439758212E+02  0.41969787430E+02  0.47000000000E+01 0. -1.
         -5    1    4    4    0  503  0.45677655685E+02 -0.23326642912E+02 -0.45230932106E+02  0.68545661552E+02  0.47000000000E+01 0.  1.
<mgrwt>
<rscale>  0 0.12701309E+03</rscale>
<asrwt>0</asrwt>
<pdfrwt beam="1">  1        1 0.19395281E-01 0.13537690E+03</pdfrwt>
<pdfrwt beam="2">  1       -1 0.19168628E-01 0.13537690E+03</pdfrwt>
<totfact> 0.54740721E+03</totfact>
</mgrwt>
</event>
<event>
 8    1  0.3407580E-004  0.1567575E+03  0.7546771E-02  0.1200361E+00
          3   -1    0    0  501    0  0.00000000000E+00  0.00000000000E+00  0.10333575628E+03  0.10333575628E+03  0.00000000000E+00 0. -1.
         -3   -1    0    0    0  501 -0.00000000000E+00 -0.00000000000E+00 -0.20165645356E+03  0.20165645356E+03  0.00000000000E+00 0.  1.
         25    2    1    2    0    0  0.46773048485E+01  0.94490342263E+02 -0.59145445136E+02  0.16754435257E+03  0.12499049739E+03 0.  0.
         23    2    1    2    0    0 -0.46773048485E+01 -0.94490342263E+02 -0.39175252146E+02  0.13744785726E+03  0.91689209421E+02 0.  0.
          5    1    3    3  502    0 -0.38202099148E+02  0.43565556572E+02  0.22285895591E+02  0.62258406990E+02  0.47000000000E+01 0. -1.
         -5    1    3    3    0  502  0.42879403996E+02  0.50924785692E+02 -0.81431340727E+02  0.10528594558E+03  0.47000000000E+01 0. -1.
          5    1    4    4  503    0  0.16612428175E+00 -0.39542761772E+02  0.29266305343E+02  0.49419269867E+02  0.47000000000E+01 0. -1.
         -5    1    4    4    0  503 -0.48434291303E+01 -0.54947580492E+02 -0.68441557489E+02  0.88028587397E+02  0.47000000000E+01 0.  1.
<mgrwt>
<rscale>  0 0.15009158E+03</rscale>
<asrwt>0</asrwt>
<pdfrwt beam="1">  1        3 0.15897809E-01 0.15675754E+03</pdfrwt>
<pdfrwt beam="2">  1       -3 0.31024070E-01 0.15675754E+03</pdfrwt>
<totfact> 0.79902093E+02</totfact>
</mgrwt>
</event>
<event>
 8    1  0.3407580E-004  0.1407921E+03  0.7546771E-02  0.1223317E+00
         -1   -1    0    0    0  501 -0.00000000000E+00  0.00000000000E+00  0.25972648414E+02  0.25972648414E+02  0.00000000000E+00 0.  1.
          1   -1    0    0  501    0  0.00000000000E+00 -0.00000000000E+00 -0.64892035433E+03  0.64892035433E+03  0.00000000000E+00 0. -1.
         25    2    1    2    0    0  0.40250323753E+01  0.64660518550E+02 -0.26655658748E+03  0.30145451066E+03  0.12500089649E+03 0.  0.
         23    2    1    2    0    0 -0.40250323753E+01 -0.64660518550E+02 -0.35639111844E+03  0.37343849209E+03  0.90799198914E+02 0.  0.
          5    1    3    3  502    0 -0.46580450983E+02 -0.87073585735E+01 -0.61222772428E+02  0.77562067861E+02  0.47000000000E+01 0. -1.
         -5    1    3    3    0  502  0.50605483358E+02  0.73367877124E+02 -0.20533381505E+03  0.22389244280E+03  0.47000000000E+01 0. -1.
          5    1    4    4  503    0 -0.41783906352E+02 -0.19250350103E+02 -0.21881529786E+03  0.22364859800E+03  0.47000000000E+01 0. -1.
         -5    1    4    4    0  503  0.37758873977E+02 -0.45410168447E+02 -0.13757582059E+03  0.14978989409E+03  0.47000000000E+01 0.  1.
<mgrwt>
<rscale>  0 0.13282919E+03</rscale>
<asrwt>0</asrwt>
<pdfrwt beam="1">  1        1 0.99833902E-01 0.14079207E+03</pdfrwt>
<pdfrwt beam="2">  1       -1 0.39957920E-02 0.14079207E+03</pdfrwt>
<totfact> 0.74686785E+03</totfact>
</mgrwt>
</event>
<event>
 8    1  0.3407580E-004  0.1652018E+03  0.7546771E-02  0.1190198E+00
          1   -1    0    0  501    0  0.00000000000E+00  0.00000000000E+00  0.27280002362E+03  0.27280002362E+03  0.00000000000E+00 0. -1.
         -1   -1    0    0    0  501 -0.00000000000E+00 -0.00000000000E+00 -0.26776924025E+03  0.26776924025E+03  0.00000000000E+00 0.  1.
         25    2    1    2    0    0 -0.18867562048E+02 -0.10635213865E+03  0.22522012191E+03  0.27931300276E+03  0.12499955160E+03 0.  0.
         23    2    1    2    0    0  0.18867562048E+02  0.10635213865E+03 -0.22018933854E+03  0.26125626111E+03  0.90026256549E+02 0.  0.
          5    1    3    3  502    0 -0.52085271659E+02 -0.15572657203E+02  0.14037493926E+03  0.15060742594E+03  0.47000000000E+01 0. -1.
         -5    1    3    3    0  502  0.33217709611E+02 -0.90779481450E+02  0.84845182658E+02  0.12870557682E+03  0.47000000000E+01 0. -1.
          5    1    4    4  503    0  0.49841835883E+02  0.56614453886E+02 -0.16090842848E+03  0.17777237510E+03  0.47000000000E+01 0. -1.
         -5    1    4    4    0  503 -0.30974273834E+02  0.49737684766E+02 -0.59280910062E+02  0.83483886009E+02  0.47000000000E+01 0.  1.
<mgrwt>
<rscale>  0 0.15867777E+03</rscale>
<asrwt>0</asrwt>
<pdfrwt beam="1">  1        1 0.41969234E-01 0.16520185E+03</pdfrwt>
<pdfrwt beam="2">  1       -1 0.41195268E-01 0.16520185E+03</pdfrwt>
<totfact> 0.58166912E+02</totfact>
</mgrwt>
</event>
<event>
 8    1  0.3407580E-004  0.1305061E+03  0.7546771E-02  0.1240866E+00
          1   -1    0    0  501    0  0.00000000000E+00  0.00000000000E+00  0.14397446953E+03  0.14397446953E+03  0.00000000000E+00 0. -1.
         -1   -1    0    0    0  501 -0.00000000000E+00 -0.00000000000E+00 -0.92843435315E+02  0.92843435315E+02  0.00000000000E+00 0.  1.
         25    2    1    2    0    0  0.91366266324E+01 -0.36382818278E+02  0.99429820176E+01  0.13088427167E+03  0.12499856906E+03 0.  0.
         23    2    1    2    0    0 -0.91366266324E+01  0.36382818278E+02  0.41188052193E+02  0.10593363317E+03  0.90101562589E+02 0.  0.
          5    1    3    3  502    0 -0.19118663302E+02 -0.98259115980E+01 -0.52672875894E+02  0.57084093057E+02  0.47000000000E+01 0.  1.
         -5    1    3    3    0  502  0.28255289935E+02 -0.26556906680E+02  0.62615857911E+02  0.73800178615E+02  0.47000000000E+01 0.  1.
          5    1    4    4  503    0 -0.43937360279E+02  0.26437222454E+02  0.46091115780E+02  0.69107881701E+02  0.47000000000E+01 0. -1.
         -5    1    4    4    0  503  0.34800733646E+02  0.99455958246E+01 -0.49030635878E+01  0.36825751468E+02  0.47000000000E+01 0.  1.
<mgrwt>
<rscale>  0 0.12136231E+03</rscale>
<asrwt>0</asrwt>
<pdfrwt beam="1">  1        1 0.22149918E-01 0.13050605E+03</pdfrwt>
<pdfrwt beam="2">  1       -1 0.14283605E-01 0.13050605E+03</pdfrwt>
<totfact> 0.73413944E+03</totfact>
</mgrwt>
</event>
<event>
 8    1  0.3407580E-004  0.1971897E+03  0.7546771E-02  0.1156700E+00
          1   -1    0    0  501    0  0.00000000000E+00  0.00000000000E+00  0.66979550780E+02  0.66979550780E+02  0.00000000000E+00 0. -1.
         -1   -1    0    0    0  501 -0.00000000000E+00 -0.00000000000E+00 -0.54364885834E+03  0.54364885834E+03  0.00000000000E+00 0.  1.
         25    2    1    2    0    0  0.13141363240E+03  0.77397442883E+02 -0.19110372258E+03  0.27459866899E+03  0.12499555705E+03 0.  0.
         23    2    1    2    0    0 -0.13141363240E+03 -0.77397442883E+02 -0.28556558498E+03  0.33602974013E+03  0.90046521206E+02 0.  0.
          5    1    4    4  502    0 -0.38673722869E+02 -0.44024095022E+02 -0.39251650253E+02  0.70686348262E+02  0.47000000000E+01 0. -1.
         -5    1    3    3    0  503  0.66410085212E+02  0.10152539693E+03 -0.86726926035E+02  0.14920239723E+03  0.47000000000E+01 0.  1.
          5    1    3    3  503    0  0.65003547192E+02 -0.24127954049E+02 -0.10437679655E+03  0.12539627176E+03  0.47000000000E+01 0.  1.
         -5    1    4    4    0  502 -0.92739909534E+02 -0.33373347861E+02 -0.24631393473E+03  0.26534339187E+03  0.47000000000E+01 0.  1.
<mgrwt>
<rscale>  0 0.19196612E+03</rscale>
<asrwt>0</asrwt>
<pdfrwt beam="1">  1        1 0.10304546E-01 0.19718975E+03</pdfrwt>
<pdfrwt beam="2">  1       -1 0.83638288E-01 0.19718975E+03</pdfrwt>
<totfact> 0.91069748E+02</totfact>
</mgrwt>
</event>
<event>
 8    1  0.3407580E-004  0.1330666E+03  0.7546771E-02  0.1236094E+00
          1   -1    0    0  501    0  0.00000000000E+00  0.00000000000E+00  0.47722680807E+03  0.47722680807E+03  0.00000000000E+00 0. -1.
         -1   -1    0    0    0  501 -0.00000000000E+00 -0.00000000000E+00 -0.48882354954E+02  0.48882354954E+02  0.00000000000E+00 0.  1.
         25    2    1    2    0    0 -0.62849635967E+01  0.45194942841E+02  0.63544812923E+02  0.14746073194E+03  0.12499856235E+03 0.  0.
         23    2    1    2    0    0  0.62849635967E+01 -0.45194942841E+02  0.36479964019E+03  0.37864843108E+03  0.90629869525E+02 0.  0.
          5    1    4    4  502    0  0.28064347654E+02 -0.51564460197E+02  0.33854557278E+03  0.34363017331E+03  0.47000000000E+01 0. -1.
         -5    1    3    3    0  503 -0.31582615171E+02  0.32176000312E+02 -0.26776255999E+02  0.52648024297E+02  0.47000000000E+01 0. -1.
          5    1    3    3  503    0  0.25297651574E+02  0.13018942529E+02  0.90321068922E+02  0.94812707645E+02  0.47000000000E+01 0. -1.
         -5    1    4    4    0  502 -0.21779384057E+02  0.63695173560E+01  0.26254067416E+02  0.35018257768E+02  0.47000000000E+01 0.  1.
<mgrwt>
<rscale>  0 0.12434681E+03</rscale>
<asrwt>0</asrwt>
<pdfrwt beam="1">  1        1 0.73419506E-01 0.13306662E+03</pdfrwt>
<pdfrwt beam="2">  1       -1 0.75203626E-02 0.13306662E+03</pdfrwt>
<totfact> 0.43915584E+03</totfact>
</mgrwt>
</event>
<event>
 8    1  0.3407580E-004  0.1448237E+03  0.7546771E-02  0.1217143E+00
         -1   -1    0    0    0  501 -0.00000000000E+00  0.00000000000E+00  0.45991400463E+02  0.45991400463E+02  0.00000000000E+00 0.  1.
          1   -1    0    0  501    0  0.00000000000E+00 -0.00000000000E+00 -0.37602669269E+03  0.37602669269E+03  0.00000000000E+00 0. -1.
         25    2    1    2    0    0 -0.52949659400E+02  0.50448587031E+02 -0.20515929640E+03  0.25112593862E+03  0.12500069514E+03 0.  0.
         23    2    1    2    0    0  0.52949659400E+02 -0.50448587031E+02 -0.12487599582E+03  0.17089215453E+03  0.90892176686E+02 0.  0.
          5    1    4    4  502    0 -0.13912151871E+02 -0.42428833632E+02 -0.28336445291E+02  0.53092353732E+02  0.47000000000E+01 0. -1.
         -5    1    4    4    0  502  0.66861811271E+02 -0.80197533988E+01 -0.96539550528E+02  0.11779980079E+03  0.47000000000E+01 0.  1.
          5    1    3    3  503    0 -0.74673822881E+02  0.20076393860E+01 -0.17393533763E+03  0.18935628354E+03  0.47000000000E+01 0. -1.
         -5    1    3    3    0  503  0.21724163481E+02  0.48440947645E+02 -0.31223958774E+02  0.61769655084E+02  0.47000000000E+01 0. -1.
<mgrwt>
<rscale>  0 0.13720262E+03</rscale>
<asrwt>0</asrwt>
<pdfrwt beam="1">  1        1 0.57850260E-01 0.14482369E+03</pdfrwt>
<pdfrwt beam="2">  1       -1 0.70756001E-02 0.14482369E+03</pdfrwt>
<totfact> 0.65468046E+03</totfact>
</mgrwt>
</event>
<event>
 8    1  0.3407580E-004  0.1680829E+03  0.7546771E-02  0.1188886E+00
         -1   -1    0    0    0  501 -0.00000000000E+00  0.00000000000E+00  0.53350994059E+02  0.53350994059E+02  0.00000000000E+00 0.  1.
          1   -1    0    0  501    0  0.00000000000E+00 -0.00000000000E+00 -0.55470469298E+03  0.55470469298E+03  0.00000000000E+00 0. -1.
         25    2    1    2    0    0  0.11219249796E+03  0.62746567751E+01 -0.40976730953E+03  0.44290079349E+03  0.12500134798E+03 0.  0.
         23    2    1    2    0    0 -0.11219249796E+03 -0.62746567751E+01 -0.91586389394E+02  0.16515489355E+03  0.79129919909E+02 0.  0.
          5    1    3    3  502    0  0.10544707135E+03  0.46329219833E+02 -0.21566430011E+03  0.24453764906E+03  0.47000000000E+01 0. -1.
         -5    1    3    3    0  502  0.67454266136E+01 -0.40054563058E+02 -0.19410300942E+03  0.19836314443E+03  0.47000000000E+01 0. -1.
          5    1    4    4  503    0 -0.59596434548E+02  0.13902800318E+02 -0.89580530770E+02  0.10858998278E+03  0.47000000000E+01 0. -1.
         -5    1    4    4    0  503 -0.52596063415E+02 -0.20177457093E+02 -0.20058586239E+01  0.56564910769E+02  0.47000000000E+01 0.  1.
<mgrwt>
<rscale>  0 0.15983288E+03</rscale>
<asrwt>0</asrwt>
<pdfrwt beam="1">  1        1 0.85339184E-01 0.16808291E+03</pdfrwt>
<pdfrwt beam="2">  1       -1 0.82078452E-02 0.16808291E+03</pdfrwt>
<totfact> 0.31874963E+03</totfact>
</mgrwt>
</event>
<event>
 8    1  0.3407580E-004  0.1550633E+03  0.7546771E-02  0.1202453E+00
          1   -1    0    0  501    0  0.00000000000E+00  0.00000000000E+00  0.10969867579E+03  0.10969867579E+03  0.00000000000E+00 0.  1.
         -1   -1    0    0    0  501 -0.00000000000E+00 -0.00000000000E+00 -0.20590874960E+03  0.20590874960E+03  0.00000000000E+00 0. -1.
         25    2    1    2    0    0  0.91742115514E+02 -0.16867772432E+01 -0.21397507443E+01  0.15507808963E+03  0.12500069749E+03 0.  0.
         23    2    1    2    0    0 -0.91742115514E+02  0.16867772432E+01 -0.94070323063E+02  0.16052933576E+03  0.92200764546E+02 0.  0.
          5    1    3    3  502    0 -0.29060567995E+02  0.95153410934E+01 -0.12185827920E+02  0.33251206451E+02  0.47000000000E+01 0.  1.
         -5    1    4    4    0  503 -0.36779487687E+02 -0.22711800832E+02  0.57905450510E+01  0.43865442247E+02  0.47000000000E+01 0.  1.
          5    1    4    4  503    0 -0.54962627827E+02  0.24398578076E+02 -0.99860868114E+02  0.11666389352E+03  0.47000000000E+01 0. -1.
         -5    1    3    3    0  502  0.12080268351E+03 -0.11202118337E+02  0.10046077176E+02  0.12182688318E+03  0.47000000000E+01 0.  1.
<mgrwt>
<rscale>  0 0.14839979E+03</rscale>
<asrwt>0</asrwt>
<pdfrwt beam="1">  1        1 0.16876720E-01 0.15506333E+03</pdfrwt>
<pdfrwt beam="2">  1       -1 0.31678269E-01 0.15506333E+03</pdfrwt>
<totfact> 0.28852451E+03</totfact>
</mgrwt>
</event>
<event>
 8    1  0.3407580E-004  0.1522352E+03  0.7546771E-02  0.1206611E+00
          2   -1    0    0  501    0  0.00000000000E+00  0.00000000000E+00  0.13400070561E+03  0.13400070561E+03  0.00000000000E+00 0. -1.
         -2   -1    0    0    0  501 -0.00000000000E+00 -0.00000000000E+00 -0.17288963454E+03  0.17288963454E+03  0.00000000000E+00 0.  1.
         25    2    1    2    0    0 -0.86494726703E+02 -0.82269219509E+01 -0.83371068854E+02  0.17356926408E+03  0.12500613712E+03 0.  0.
         23    2    1    2    0    0  0.86494726703E+02  0.82269219509E+01  0.44482139922E+02  0.13332107608E+03  0.90812050755E+02 0.  0.
          5    1    3    3  502    0 -0.48272854732E+02  0.47290873107E+02 -0.81500430894E+02  0.10597690984E+03  0.47000000000E+01 0.  1.
         -5    1    3    3    0  502 -0.38221871971E+02 -0.55517795058E+02 -0.18706379595E+01  0.67592354238E+02  0.47000000000E+01 0.  1.
          5    1    4    4  503    0  0.21191783868E+02 -0.25955979474E+02  0.48747492257E+02  0.59339805994E+02  0.47000000000E+01 0. -1.
         -5    1    4    4    0  503  0.65302942835E+02  0.34182901425E+02 -0.42653523352E+01  0.73981270084E+02  0.47000000000E+01 0.  1.
<mgrwt>
<rscale>  0 0.14511228E+03</rscale>
<asrwt>0</asrwt>
<pdfrwt beam="1">  1        2 0.20615493E-01 0.15223519E+03</pdfrwt>
<pdfrwt beam="2">  1       -2 0.26598405E-01 0.15223519E+03</pdfrwt>
<totfact> 0.33021103E+03</totfact>
</mgrwt>
</event>
<event>
 8    1  0.3407580E-004  0.2310254E+03  0.7546771E-02  0.1128840E+00
         -1   -1    0    0    0  501 -0.00000000000E+00  0.00000000000E+00  0.90962563070E+02  0.90962563070E+02  0.00000000000E+00 0.  1.
          1   -1    0    0  501    0  0.00000000000E+00 -0.00000000000E+00 -0.54673186903E+03  0.54673186903E+03  0.00000000000E+00 0. -1.
         25    2    1    2    0    0  0.77581596281E+02 -0.17812773755E+03 -0.23267802276E+03  0.32788994317E+03  0.12499743034E+03 0.  0.
         23    2    1    2    0    0 -0.77581596281E+02  0.17812773755E+03 -0.22309128320E+03  0.30980448893E+03  0.91982094738E+02 0.  0.
          5    1    4    4  502    0 -0.55198160203E+02  0.42121682298E+02 -0.11566392100E+03  0.13498631646E+03  0.47000000000E+01 0. -1.
         -5    1    3    3    0  503  0.15723481178E+02 -0.65787316069E+02 -0.68538545522E+01  0.68148838128E+02  0.47000000000E+01 0.  1.
          5    1    3    3  503    0  0.61858115103E+02 -0.11234042148E+03 -0.22582416820E+03  0.25974110504E+03  0.47000000000E+01 0.  1.
         -5    1    4    4    0  502 -0.22383436078E+02  0.13600605525E+03 -0.10742736220E+03  0.17481817247E+03  0.47000000000E+01 0.  1.
<mgrwt>
<rscale>  0 0.22690068E+03</rscale>
<asrwt>0</asrwt>
<pdfrwt beam="1">  1        1 0.84112596E-01 0.23102544E+03</pdfrwt>
<pdfrwt beam="2">  1       -1 0.13994240E-01 0.23102544E+03</pdfrwt>
<totfact> 0.14340596E+03</totfact>
</mgrwt>
</event>
<event>
 8    1  0.3407580E-004  0.1292285E+03  0.7546771E-02  0.1242508E+00
         -1   -1    0    0    0  501 -0.00000000000E+00  0.00000000000E+00  0.39261741213E+02  0.39261741213E+02  0.00000000000E+00 0.  1.
          1   -1    0    0  501    0  0.00000000000E+00 -0.00000000000E+00 -0.35743992560E+03  0.35743992560E+03  0.00000000000E+00 0. -1.
         25    2    1    2    0    0 -0.30837823235E+02  0.11069056316E+02 -0.23739009210E+03  0.27028513984E+03  0.12500602242E+03 0.  0.
         23    2    1    2    0    0  0.30837823235E+02 -0.11069056316E+02 -0.80788092282E+02  0.12641652697E+03  0.91547403497E+02 0.  0.
          5    1    4    4  502    0  0.48752120134E+02 -0.20939972947E+02 -0.89128850960E+02  0.10383300900E+03  0.47000000000E+01 0. -1.
         -5    1    4    4    0  502 -0.17914296899E+02  0.98709166317E+01  0.83407586788E+01  0.22583517969E+02  0.47000000000E+01 0.  1.
          5    1    3    3  503    0 -0.42086059318E+01  0.38309619668E+02 -0.22730815314E+03  0.23060014269E+03  0.47000000000E+01 0. -1.
         -5    1    3    3    0  503 -0.26629217303E+02 -0.27240563352E+02 -0.10081938963E+02  0.39684997155E+02  0.47000000000E+01 0. -1.
<mgrwt>
<rscale>  0 0.12035747E+03</rscale>
<asrwt>0</asrwt>
<pdfrwt beam="1">  1        1 0.54990757E-01 0.12922848E+03</pdfrwt>
<pdfrwt beam="2">  1       -1 0.60402680E-02 0.12922848E+03</pdfrwt>
<totfact> 0.87713265E+03</totfact>
</mgrwt>
</event>
<event>
 8    1  0.3407580E-004  0.1429405E+03  0.7546771E-02  0.1220034E+00
          2   -1    0    0  501    0  0.00000000000E+00  0.00000000000E+00  0.12362230987E+03  0.12362230987E+03  0.00000000000E+00 0. -1.
         -2   -1    0    0    0  501 -0.00000000000E+00 -0.00000000000E+00 -0.13421096246E+03  0.13421096246E+03  0.00000000000E+00 0.  1.
         25    2    1    2    0    0  0.55683938897E+02  0.41300519728E+02  0.21223814284E+01  0.14295621957E+03  0.12500216890E+03 0.  0.
         23    2    1    2    0    0 -0.55683938897E+02 -0.41300519728E+02 -0.12711034017E+02  0.11487705276E+03  0.90712363461E+02 0.  0.
          5    1    3    3  502    0  0.55720166636E+01 -0.21432509653E+02  0.46049976967E+02  0.51313645538E+02  0.47000000000E+01 0. -1.
         -5    1    4    4    0  503 -0.82589160158E+01  0.18965370841E+02 -0.29399246786E+02  0.36253285320E+02  0.47000000000E+01 0.  1.
          5    1    4    4  503    0 -0.47425022881E+02 -0.60265890570E+02  0.16688212769E+02  0.78623767442E+02  0.47000000000E+01 0. -1.
         -5    1    3    3    0  502  0.50111922233E+02  0.62733029381E+02 -0.43927595539E+02  0.91642574031E+02  0.47000000000E+01 0. -1.
<mgrwt>
<rscale>  0 0.13513130E+03</rscale>
<asrwt>0</asrwt>
<pdfrwt beam="1">  1        2 0.19018817E-01 0.14294046E+03</pdfrwt>
<pdfrwt beam="2">  1       -2 0.20647840E-01 0.14294046E+03</pdfrwt>
<totfact> 0.55914832E+03</totfact>
</mgrwt>
</event>
<event>
 8    1  0.3407580E-004  0.1783139E+03  0.7546771E-02  0.1175104E+00
          1   -1    0    0  501    0  0.00000000000E+00  0.00000000000E+00  0.49253186165E+02  0.49253186165E+02  0.00000000000E+00 0. -1.
         -1   -1    0    0    0  501 -0.00000000000E+00 -0.00000000000E+00 -0.57323553502E+03  0.57323553502E+03  0.00000000000E+00 0.  1.
         25    2    1    2    0    0  0.34295810680E+02  0.12245423830E+03 -0.25480022786E+03  0.31099679267E+03  0.12499842328E+03 0.  0.
         23    2    1    2    0    0 -0.34295810680E+02 -0.12245423830E+03 -0.26918212099E+03  0.31149192851E+03  0.91634950545E+02 0.  0.
          5    1    4    4  502    0 -0.51660925839E+02 -0.76147444531E+02 -0.10372661561E+03  0.13873927113E+03  0.47000000000E+01 0. -1.
         -5    1    3    3    0  503  0.41184725383E+02  0.22691378854E+02 -0.17980416415E+03  0.18591048309E+03  0.47000000000E+01 0. -1.
          5    1    3    3  503    0 -0.68889147033E+01  0.99762859446E+02 -0.74996063718E+02  0.12508630958E+03  0.47000000000E+01 0. -1.
         -5    1    4    4    0  502  0.17365115159E+02 -0.46306793769E+02 -0.16545550538E+03  0.17275265739E+03  0.47000000000E+01 0.  1.
<mgrwt>
<rscale>  0 0.17265756E+03</rscale>
<asrwt>0</asrwt>
<pdfrwt beam="1">  1        1 0.75774130E-02 0.17831391E+03</pdfrwt>
<pdfrwt beam="2">  1       -1 0.88190086E-01 0.17831391E+03</pdfrwt>
<totfact> 0.12292828E+03</totfact>
</mgrwt>
</event>
<event>
 8    1  0.3407580E-004  0.1620015E+03  0.7546771E-02  0.1191363E+00
          2   -1    0    0  501    0  0.00000000000E+00  0.00000000000E+00  0.51487896947E+02  0.51487896947E+02  0.00000000000E+00 0. -1.
         -2   -1    0    0    0  501 -0.00000000000E+00 -0.00000000000E+00 -0.52992319144E+03  0.52992319144E+03  0.00000000000E+00 0.  1.
         25    2    1    2    0    0  0.33907534296E+02  0.97311179206E+02 -0.35696094133E+03  0.39200203077E+03  0.12500116805E+03 0.  0.
         23    2    1    2    0    0 -0.33907534296E+02 -0.97311179206E+02 -0.12147435316E+03  0.18940905761E+03  0.10247236773E+03 0.  0.
          5    1    3    3  502    0  0.64067582703E+02  0.21474897159E+02 -0.88966625327E+02  0.11181671066E+03  0.47000000000E+01 0. -1.
         -5    1    4    4    0  503 -0.66198246701E+02 -0.82469266467E+02 -0.70851786884E+02  0.12737917209E+03  0.47000000000E+01 0.  1.
          5    1    4    4  503    0  0.32290712405E+02 -0.14841912739E+02 -0.50622566272E+02  0.62029885518E+02  0.47000000000E+01 0. -1.
         -5    1    3    3    0  502 -0.30160048407E+02  0.75836282047E+02 -0.26799431601E+03  0.28018532011E+03  0.47000000000E+01 0. -1.
<mgrwt>
<rscale>  0 0.15766140E+03</rscale>
<asrwt>0</asrwt>
<pdfrwt beam="1">  1        2 0.79212152E-02 0.16200148E+03</pdfrwt>
<pdfrwt beam="2">  1       -2 0.81526642E-01 0.16200148E+03</pdfrwt>
<totfact> 0.11524868E+03</totfact>
</mgrwt>
</event>
<event>
 8    1  0.3407580E-004  0.1650129E+03  0.7546771E-02  0.1192325E+00
          2   -1    0    0  501    0  0.00000000000E+00  0.00000000000E+00  0.18604005618E+03  0.18604005618E+03  0.00000000000E+00 0. -1.
         -2   -1    0    0    0  501 -0.00000000000E+00 -0.00000000000E+00 -0.17654344141E+03  0.17654344141E+03  0.00000000000E+00 0.  1.
         25    2    1    2    0    0 -0.10672028355E+03 -0.14688031277E+02  0.10672316838E+03  0.19651741148E+03  0.12499720462E+03 0.  0.
         23    2    1    2    0    0  0.10672028355E+03  0.14688031277E+02 -0.97226553604E+02  0.16606608611E+03  0.80746424369E+02 0.  0.
          5    1    3    3  502    0 -0.10526606254E+02  0.47996054000E+02  0.40792192156E+02  0.64035330715E+02  0.47000000000E+01 0.  1.
         -5    1    4    4    0  503  0.39837167129E+02 -0.12403318645E+01 -0.87764920800E+02  0.96505490160E+02  0.47000000000E+01 0.  1.
          5    1    4    4  503    0  0.66883116418E+02  0.15928363142E+02 -0.94616328040E+01  0.69560595954E+02  0.47000000000E+01 0. -1.
         -5    1    3    3    0  502 -0.96193677293E+02 -0.62684085277E+02  0.65930976220E+02  0.13248208076E+03  0.47000000000E+01 0.  1.
<mgrwt>
<rscale>  0 0.15682778E+03</rscale>
<asrwt>0</asrwt>
<pdfrwt beam="1">  1        2 0.28621547E-01 0.16501290E+03</pdfrwt>
<pdfrwt beam="2">  1       -2 0.27160530E-01 0.16501290E+03</pdfrwt>
<totfact> 0.22176752E+03</totfact>
</mgrwt>
</event>
<event>
 8    1  0.3407580E-004  0.1513734E+03  0.7546771E-02  0.1206650E+00
         -1   -1    0    0    0  501 -0.00000000000E+00  0.00000000000E+00  0.41230334180E+02  0.41230334180E+02  0.00000000000E+00 0.  1.
          1   -1    0    0  501    0  0.00000000000E+00 -0.00000000000E+00 -0.55799250296E+03  0.55799250296E+03  0.00000000000E+00 0. -1.
         25    2    1    2    0    0 -0.85367492959E+02 -0.24619250663E+01 -0.39392699735E+03  0.42200993609E+03  0.12498094650E+03 0.  0.
         23    2    1    2    0    0  0.85367492959E+02  0.24619250663E+01 -0.12283517144E+03  0.17721290106E+03  0.94985593801E+02 0.  0.
          5    1    3    3  502    0 -0.57756155507E+02  0.58543503255E+02 -0.24947860131E+03  0.26272567021E+03  0.47000000000E+01 0. -1.
         -5    1    3    3    0  502 -0.27611337452E+02 -0.61005428322E+02 -0.14444839603E+03  0.15928426588E+03  0.47000000000E+01 0. -1.
          5    1    4    4  503    0  0.68887425515E+02 -0.32227316553E+02 -0.40621444539E+02  0.86349690693E+02  0.47000000000E+01 0. -1.
         -5    1    4    4    0  503  0.16480067444E+02  0.34689241620E+02 -0.82213726898E+02  0.90863210364E+02  0.47000000000E+01 0.  1.
<mgrwt>
<rscale>  0 0.14508204E+03</rscale>
<asrwt>0</asrwt>
<pdfrwt beam="1">  1        1 0.85844996E-01 0.15137340E+03</pdfrwt>
<pdfrwt beam="2">  1       -1 0.63431286E-02 0.15137340E+03</pdfrwt>
<totfact> 0.46440604E+03</totfact>
</mgrwt>
</event>
<event>
 8    1  0.3407580E-004  0.1388809E+03  0.7546771E-02  0.1226948E+00
          1   -1    0    0  501    0  0.00000000000E+00  0.00000000000E+00  0.14132332780E+03  0.14132332780E+03  0.00000000000E+00 0. -1.
         -1   -1    0    0    0  501 -0.00000000000E+00 -0.00000000000E+00 -0.13116596845E+03  0.13116596845E+03  0.00000000000E+00 0.  1.
         25    2    1    2    0    0 -0.54001268202E+02  0.27364372135E+02 -0.51763308884E+02  0.14821382579E+03  0.12499180844E+03 0.  0.
         23    2    1    2    0    0  0.54001268202E+02 -0.27364372135E+02  0.61920668240E+02  0.12427547047E+03  0.89136286518E+02 0.  0.
          5    1    4    4  502    0 -0.16339088516E+02 -0.26220440607E+02  0.39339799430E+02  0.50241289178E+02  0.47000000000E+01 0. -1.
         -5    1    3    3    0  503 -0.17350845055E+02  0.43250968143E+02  0.31018839701E+02  0.56177900333E+02  0.47000000000E+01 0. -1.
          5    1    3    3  503    0 -0.36650423147E+02 -0.15886596008E+02 -0.82782148585E+02  0.92035925453E+02  0.47000000000E+01 0. -1.
         -5    1    4    4    0  502  0.70340356718E+02 -0.11439315285E+01  0.22580868811E+02  0.74034181287E+02  0.47000000000E+01 0.  1.
<mgrwt>
<rscale>  0 0.13034276E+03</rscale>
<asrwt>0</asrwt>
<pdfrwt beam="1">  1        1 0.21742050E-01 0.13888088E+03</pdfrwt>
<pdfrwt beam="2">  1       -1 0.20179380E-01 0.13888088E+03</pdfrwt>
<totfact> 0.43674364E+03</totfact>
</mgrwt>
</event>
<event>
 8    1  0.3407580E-004  0.1402447E+03  0.7546771E-02  0.1223515E+00
          2   -1    0    0  501    0  0.00000000000E+00  0.00000000000E+00  0.52005489879E+02  0.52005489879E+02  0.00000000000E+00 0. -1.
         -2   -1    0    0    0  501 -0.00000000000E+00 -0.00000000000E+00 -0.31468482500E+03  0.31468482500E+03  0.00000000000E+00 0.  1.
         25    2    1    2    0    0  0.17003701458E+02 -0.61269970442E+02 -0.11662654026E+03  0.18240156590E+03  0.12500178482E+03 0.  0.
         23    2    1    2    0    0 -0.17003701458E+02  0.61269970442E+02 -0.14605279486E+03  0.18428874898E+03  0.92670324123E+02 0.  0.
          5    1    3    3  502    0 -0.41153451056E+01 -0.27335899983E+02 -0.13520039814E+03  0.13807760553E+03  0.47000000000E+01 0. -1.
         -5    1    3    3    0  502  0.21119046563E+02 -0.33934070459E+02  0.18573857879E+02  0.44323960362E+02  0.47000000000E+01 0. -1.
          5    1    4    4  503    0 -0.41191623611E+02 -0.46399722665E+01 -0.47908849210E+02  0.63526585229E+02  0.47000000000E+01 0. -1.
         -5    1    4    4    0  503  0.24187922153E+02  0.65909942709E+02 -0.98143945650E+02  0.12076216375E+03  0.47000000000E+01 0.  1.
<mgrwt>
<rscale>  0 0.13269186E+03</rscale>
<asrwt>0</asrwt>
<pdfrwt beam="1">  1        2 0.80008448E-02 0.14024472E+03</pdfrwt>
<pdfrwt beam="2">  1       -2 0.48413049E-01 0.14024472E+03</pdfrwt>
<totfact> 0.33402077E+03</totfact>
</mgrwt>
</event>
<event>
 8    1  0.3407580E-004  0.1407139E+03  0.7546771E-02  0.1223194E+00
         -2   -1    0    0    0  501 -0.00000000000E+00  0.00000000000E+00  0.86364276683E+02  0.86364276683E+02  0.00000000000E+00 0.  1.
          2   -1    0    0  501    0  0.00000000000E+00 -0.00000000000E+00 -0.19233358688E+03  0.19233358688E+03  0.00000000000E+00 0. -1.
         25    2    1    2    0    0  0.43103737016E+02 -0.48137452649E+02 -0.31527773611E+02  0.14420264449E+03  0.12500102270E+03 0.  0.
         23    2    1    2    0    0 -0.43103737016E+02  0.48137452649E+02 -0.74441536585E+02  0.13449521908E+03  0.91500137118E+02 0.  0.
          5    1    4    4  502    0  0.19591471354E+02  0.20658450132E+02 -0.56706368773E+02  0.63626249073E+02  0.47000000000E+01 0. -1.
         -5    1    4    4    0  502 -0.62695208370E+02  0.27479002517E+02 -0.17735167813E+02  0.70868970003E+02  0.47000000000E+01 0.  1.
          5    1    3    3  503    0 -0.21395015483E+02 -0.60517229050E+02  0.11730404013E+02  0.65419982251E+02  0.47000000000E+01 0.  1.
         -5    1    3    3    0  503  0.64498752499E+02  0.12379776402E+02 -0.43258177624E+02  0.78782662236E+02  0.47000000000E+01 0.  1.
<mgrwt>
<rscale>  0 0.13291441E+03</rscale>
<asrwt>0</asrwt>
<pdfrwt beam="1">  1        2 0.29589783E-01 0.14071390E+03</pdfrwt>
<pdfrwt beam="2">  1       -2 0.13286812E-01 0.14071390E+03</pdfrwt>
<totfact> 0.70910224E+03</totfact>
</mgrwt>
</event>
<event>
 8    1  0.3407580E-004  0.2301688E+03  0.7546771E-02  0.1128993E+00
         -1   -1    0    0    0  501 -0.00000000000E+00  0.00000000000E+00  0.14392605157E+03  0.14392605157E+03  0.00000000000E+00 0.  1.
          1   -1    0    0  501    0  0.00000000000E+00 -0.00000000000E+00 -0.41908256419E+03  0.41908256419E+03  0.00000000000E+00 0. -1.
         25    2    1    2    0    0  0.91002906575E+01  0.19305442066E+03 -0.24056700572E+02  0.23142256563E+03  0.12499941767E+03 0.  0.
         23    2    1    2    0    0 -0.91002906575E+01 -0.19305442066E+03 -0.25109981205E+03  0.33158605013E+03  0.97700401251E+02 0.  0.
          5    1    4    4  502    0  0.37911829381E+02 -0.11115633145E+03 -0.17193567159E+03  0.20827146226E+03  0.47000000000E+01 0. -1.
         -5    1    4    4    0  502 -0.47012120039E+02 -0.81898089202E+02 -0.79164140465E+02  0.12331458787E+03  0.47000000000E+01 0.  1.
          5    1    3    3  503    0  0.60673531637E+02  0.69457363958E+02  0.10747357547E+02  0.92968804142E+02  0.47000000000E+01 0.  1.
         -5    1    3    3    0  503 -0.51573240980E+02  0.12359705670E+03 -0.34804058119E+02  0.13845376149E+03  0.47000000000E+01 0.  1.
<mgrwt>
<rscale>  0 0.22668843E+03</rscale>
<asrwt>0</asrwt>
<pdfrwt beam="1">  1        1 0.64474239E-01 0.23016881E+03</pdfrwt>
<pdfrwt beam="2">  1       -1 0.22142470E-01 0.23016881E+03</pdfrwt>
<totfact> 0.97322965E+02</totfact>
</mgrwt>
</event>
<event>
 8    1  0.3407580E-004  0.2286972E+03  0.7546771E-02  0.1130696E+00
          1   -1    0    0  501    0  0.00000000000E+00  0.00000000000E+00  0.78849622223E+03  0.78849622223E+03  0.00000000000E+00 0. -1.
         -1   -1    0    0    0  501 -0.00000000000E+00 -0.00000000000E+00 -0.83686264750E+02  0.83686264750E+02  0.00000000000E+00 0.  1.
         25    2    1    2    0    0 -0.10447928708E+03 -0.16050295136E+03  0.13796537927E+03  0.26708963605E+03  0.12500123594E+03 0.  0.
         23    2    1    2    0    0  0.10447928708E+03  0.16050295136E+03  0.56684457821E+03  0.60509285092E+03  0.90263301355E+02 0.  0.
          5    1    4    4  502    0  0.81188068855E+02  0.77773143204E+02  0.42065499946E+03  0.43544561417E+03  0.47000000000E+01 0. -1.
         -5    1    4    4    0  502  0.23291218222E+02  0.82729808158E+02  0.14618957875E+03  0.16964723676E+03  0.47000000000E+01 0.  1.
          5    1    3    3  503    0 -0.10303775045E+03 -0.45584463870E+02  0.80172209484E+02  0.13836327019E+03  0.47000000000E+01 0. -1.
         -5    1    3    3    0  503 -0.14415366305E+01 -0.11491848749E+03  0.57793169787E+02  0.12872636587E+03  0.47000000000E+01 0. -1.
<mgrwt>
<rscale>  0 0.22432890E+03</rscale>
<asrwt>0</asrwt>
<pdfrwt beam="1">  1        1 0.12130711E+00 0.22869724E+03</pdfrwt>
<pdfrwt beam="2">  1       -1 0.12874810E-01 0.22869724E+03</pdfrwt>
<totfact> 0.96851091E+02</totfact>
</mgrwt>
</event>
<event>
 8    1  0.3407580E-004  0.1567445E+03  0.7546771E-02  0.1200903E+00
         -2   -1    0    0    0  501 -0.00000000000E+00  0.00000000000E+00  0.36064903804E+02  0.36064903804E+02  0.00000000000E+00 0. -1.
          2   -1    0    0  501    0  0.00000000000E+00 -0.00000000000E+00 -0.57934545800E+03  0.57934545800E+03  0.00000000000E+00 0.  1.
         25    2    1    2    0    0  0.94177806428E+02  0.90316541427E+01 -0.33335502487E+03  0.36836723618E+03  0.12497126905E+03 0.  0.
         23    2    1    2    0    0 -0.94177806428E+02 -0.90316541427E+01 -0.20992552933E+03  0.24704312562E+03  0.89501665086E+02 0.  0.
          5    1    4    4  502    0 -0.75840508934E+01  0.32562208677E+02 -0.62051943681E+02  0.70642402114E+02  0.47000000000E+01 0.  1.
         -5    1    3    3    0  503 -0.11058267427E+01 -0.29883512799E+02 -0.18669884320E+03  0.18913697482E+03  0.47000000000E+01 0.  1.
          5    1    3    3  503    0  0.95283633170E+02  0.38915166942E+02 -0.14665618167E+03  0.17923026137E+03  0.47000000000E+01 0.  1.
         -5    1    4    4    0  502 -0.86593755534E+02 -0.41593862820E+02 -0.14787358564E+03  0.17640072351E+03  0.47000000000E+01 0.  1.
<mgrwt>
<rscale>  0 0.14965030E+03</rscale>
<asrwt>0</asrwt>
<pdfrwt beam="1">  1        2 0.89130075E-01 0.15674453E+03</pdfrwt>
<pdfrwt beam="2">  1       -2 0.55484465E-02 0.15674453E+03</pdfrwt>
<totfact> 0.84757983E+03</totfact>
</mgrwt>
</event>
<event>
 8    1  0.3407580E-004  0.1663930E+03  0.7546771E-02  0.1187223E+00
         -2   -1    0    0    0  501 -0.00000000000E+00  0.00000000000E+00  0.43980172742E+02  0.43980172742E+02  0.00000000000E+00 0.  1.
          2   -1    0    0  501    0  0.00000000000E+00 -0.00000000000E+00 -0.63384737785E+03  0.63384737785E+03  0.00000000000E+00 0. -1.
         25    2    1    2    0    0  0.10244701087E+03 -0.39579766859E+02 -0.19415845867E+03  0.25570322262E+03  0.12499873201E+03 0.  0.
         23    2    1    2    0    0 -0.10244701087E+03  0.39579766859E+02 -0.39570874644E+03  0.42212432798E+03  0.97681053855E+02 0.  0.
          5    1    4    4  502    0 -0.56894191582E+00  0.44603987590E+02 -0.12372701453E+03  0.13160662418E+03  0.47000000000E+01 0. -1.
         -5    1    3    3    0  503  0.99311782808E+02  0.20258876817E+02 -0.90913542991E+02  0.13623734654E+03  0.47000000000E+01 0.  1.
          5    1    3    3  503    0  0.31352280590E+01 -0.59838643676E+02 -0.10324491568E+03  0.11946587607E+03  0.47000000000E+01 0.  1.
         -5    1    4    4    0  502 -0.10187806895E+03 -0.50242207305E+01 -0.27198173191E+03  0.29051770380E+03  0.47000000000E+01 0.  1.
<mgrwt>
<rscale>  0 0.16131208E+03</rscale>
<asrwt>0</asrwt>
<pdfrwt beam="1">  1        2 0.97514974E-01 0.16639300E+03</pdfrwt>
<pdfrwt beam="2">  1       -2 0.67661809E-02 0.16639300E+03</pdfrwt>
<totfact> 0.56662947E+03</totfact>
</mgrwt>
</event>
<event>
 8    1  0.3407580E-004  0.1283952E+03  0.7546771E-02  0.1239548E+00
         -1   -1    0    0    0  501 -0.00000000000E+00  0.00000000000E+00  0.11782440733E+02  0.11782440733E+02  0.00000000000E+00 0.  1.
          1   -1    0    0  501    0  0.00000000000E+00 -0.00000000000E+00 -0.12032452239E+04  0.12032452239E+04  0.00000000000E+00 0. -1.
         25    2    1    2    0    0 -0.27684971743E+02  0.96987983174E+01 -0.53591601571E+03  0.55108193054E+03  0.12499917569E+03 0.  0.
         23    2    1    2    0    0  0.27684971743E+02 -0.96987983174E+01 -0.65554676748E+03  0.66394573412E+03  0.10110316092E+03 0.  0.
          5    1    4    4  502    0  0.29989498023E+02  0.40814032034E+02 -0.41437939491E+03  0.41748955452E+03  0.47000000000E+01 0. -1.
         -5    1    4    4    0  502 -0.23045262797E+01 -0.50512830351E+02 -0.24116737257E+03  0.24645617960E+03  0.47000000000E+01 0.  1.
          5    1    3    3  503    0  0.49409018228E+01 -0.52726845213E+02 -0.16021003992E+03  0.16880130215E+03  0.47000000000E+01 0. -1.
         -5    1    3    3    0  503 -0.32625873566E+02  0.62425643531E+02 -0.37570597579E+03  0.38228062839E+03  0.47000000000E+01 0. -1.
<mgrwt>
<rscale>  0 0.12217732E+03</rscale>
<asrwt>0</asrwt>
<pdfrwt beam="1">  1        1 0.18511450E+00 0.12839516E+03</pdfrwt>
<pdfrwt beam="2">  1       -1 0.18126846E-02 0.12839516E+03</pdfrwt>
<totfact> 0.87272880E+03</totfact>
</mgrwt>
</event>
<event>
 8    1  0.3407580E-004  0.1596644E+03  0.7546771E-02  0.1196519E+00
         -2   -1    0    0    0  501 -0.00000000000E+00  0.00000000000E+00  0.22626909481E+03  0.22626909481E+03  0.00000000000E+00 0.  1.
          2   -1    0    0  501    0  0.00000000000E+00 -0.00000000000E+00 -0.13142118367E+03  0.13142118367E+03  0.00000000000E+00 0. -1.
         25    2    1    2    0    0 -0.96982243149E+02 -0.21501338032E+02  0.14249114205E+03  0.21400104674E+03  0.12499943768E+03 0.  0.
         23    2    1    2    0    0  0.96982243149E+02  0.21501338032E+02 -0.47643230909E+02  0.14368923174E+03  0.92243454196E+02 0.  0.
          5    1    3    3  502    0 -0.86866114778E+02  0.28843776571E+02  0.13307559141E+03  0.16158245070E+03  0.47000000000E+01 0.  1.
         -5    1    4    4    0  503  0.57849225568E+02  0.65744669180E+01  0.21891768127E+02  0.62378650400E+02  0.47000000000E+01 0.  1.
          5    1    4    4  503    0  0.39133017582E+02  0.14926871114E+02 -0.69534999036E+02  0.81310581336E+02  0.47000000000E+01 0. -1.
         -5    1    3    3    0  502 -0.10116128372E+02 -0.50345114602E+02  0.94155506395E+01  0.52418596046E+02  0.47000000000E+01 0.  1.
<mgrwt>
<rscale>  0 0.15326380E+03</rscale>
<asrwt>0</asrwt>
<pdfrwt beam="1">  1        2 0.20218644E-01 0.15966441E+03</pdfrwt>
<pdfrwt beam="2">  1       -2 0.34810630E-01 0.15966441E+03</pdfrwt>
<totfact> 0.20799383E+03</totfact>
</mgrwt>
</event>
<event>
 8    1  0.3407580E-004  0.1296354E+03  0.7546771E-02  0.1242923E+00
          1   -1    0    0  501    0  0.00000000000E+00  0.00000000000E+00  0.92638252878E+02  0.92638252878E+02  0.00000000000E+00 0. -1.
         -1   -1    0    0    0  501 -0.00000000000E+00 -0.00000000000E+00 -0.14155252328E+03  0.14155252328E+03  0.00000000000E+00 0.  1.
         25    2    1    2    0    0 -0.10868901116E+02  0.32592923933E+02 -0.68335243855E+01  0.12981543108E+03  0.12499966956E+03 0.  0.
         23    2    1    2    0    0  0.10868901116E+02 -0.32592923933E+02 -0.42080746020E+02  0.10437534508E+03  0.89123463649E+02 0.  0.
          5    1    3    3  502    0 -0.56533000354E+02 -0.19700276048E+02 -0.33330801561E+01  0.60143831178E+02  0.47000000000E+01 0. -1.
         -5    1    4    4    0  503  0.32048517721E+02 -0.77062683707E+01 -0.58645165236E+02  0.67437670970E+02  0.47000000000E+01 0.  1.
          5    1    4    4  503    0 -0.21179616604E+02 -0.24886655563E+02  0.16564419216E+02  0.36937674109E+02  0.47000000000E+01 0. -1.
         -5    1    3    3    0  502  0.45664099238E+02  0.52293199982E+02 -0.35004442294E+01  0.69671599905E+02  0.47000000000E+01 0. -1.
<mgrwt>
<rscale>  0 0.12010541E+03</rscale>
<asrwt>0</asrwt>
<pdfrwt beam="1">  1        1 0.14252039E-01 0.12963545E+03</pdfrwt>
<pdfrwt beam="2">  1       -1 0.21777311E-01 0.12963545E+03</pdfrwt>
<totfact> 0.66052758E+03</totfact>
</mgrwt>
</event>
<event>
 8    1  0.3407580E-004  0.1534705E+03  0.7546771E-02  0.1205207E+00
          2   -1    0    0  501    0  0.00000000000E+00  0.00000000000E+00  0.39569952750E+03  0.39569952750E+03  0.00000000000E+00 0.  1.
         -2   -1    0    0    0  501 -0.00000000000E+00 -0.00000000000E+00 -0.49503711110E+02  0.49503711110E+02  0.00000000000E+00 0. -1.
         25    2    1    2    0    0  0.79042911147E+02 -0.40993302118E+02  0.19223777516E+03  0.24598489271E+03  0.12499989048E+03 0.  0.
         23    2    1    2    0    0 -0.79042911147E+02  0.40993302118E+02  0.15395804123E+03  0.19921834590E+03  0.89758778195E+02 0.  0.
          5    1    4    4  502    0 -0.52561059246E+01  0.33174852882E+02  0.71558077788E+01  0.34662560468E+02  0.47000000000E+01 0. -1.
         -5    1    3    3    0  503  0.17789616250E+02 -0.72425139650E+02  0.14255533025E+03  0.16095335809E+03  0.47000000000E+01 0. -1.
          5    1    3    3  503    0  0.61253294897E+02  0.31431837531E+02  0.49682444912E+02  0.85031534614E+02  0.47000000000E+01 0. -1.
         -5    1    4    4    0  502 -0.73786805223E+02  0.78184492366E+01  0.14680223345E+03  0.16455578543E+03  0.47000000000E+01 0.  1.
<mgrwt>
<rscale>  0 0.14621179E+03</rscale>
<asrwt>0</asrwt>
<pdfrwt beam="1">  1        2 0.60876848E-01 0.15347054E+03</pdfrwt>
<pdfrwt beam="2">  1       -2 0.76159558E-02 0.15347054E+03</pdfrwt>
<totfact> 0.79292062E+03</totfact>
</mgrwt>
</event>
<event>
 8    1  0.3407580E-004  0.1262238E+03  0.7546771E-02  0.1248049E+00
          2   -1    0    0  501    0  0.00000000000E+00  0.00000000000E+00  0.15994227954E+03  0.15994227954E+03  0.00000000000E+00 0. -1.
         -2   -1    0    0    0  501 -0.00000000000E+00 -0.00000000000E+00 -0.77711251765E+02  0.77711251765E+02  0.00000000000E+00 0.  1.
         25    2    1    2    0    0 -0.26429267340E+01 -0.17265272980E+02  0.67594298222E+02  0.14318321621E+03  0.12500947780E+03 0.  0.
         23    2    1    2    0    0  0.26429267340E+01  0.17265272980E+02  0.14636729553E+02  0.94470315098E+02  0.91680597020E+02 0.  0.
          5    1    4    4  502    0 -0.31537463601E+02  0.15875039727E+02  0.38536151307E+02  0.52476217988E+02  0.47000000000E+01 0. -1.
         -5    1    3    3    0  503  0.35347559324E+02  0.37948369423E+02  0.53257791496E+02  0.74484971954E+02  0.47000000000E+01 0.  1.
          5    1    3    3  503    0 -0.37990486058E+02 -0.55213642403E+02  0.14336506726E+02  0.68698244253E+02  0.47000000000E+01 0.  1.
         -5    1    4    4    0  502  0.34180390335E+02  0.13902332528E+01 -0.23899421754E+02  0.41994097111E+02  0.47000000000E+01 0.  1.
<mgrwt>
<rscale>  0 0.11704711E+03</rscale>
<asrwt>0</asrwt>
<pdfrwt beam="1">  1        2 0.24606504E-01 0.12622379E+03</pdfrwt>
<pdfrwt beam="2">  1       -2 0.11955577E-01 0.12622379E+03</pdfrwt>
<totfact> 0.10192755E+04</totfact>
</mgrwt>
</event>
<event>
 8    1  0.3407580E-004  0.1879500E+03  0.7546771E-02  0.1165680E+00
         -1   -1    0    0    0  501 -0.00000000000E+00  0.00000000000E+00  0.26936774298E+03  0.26936774298E+03  0.00000000000E+00 0.  1.
          1   -1    0    0  501    0  0.00000000000E+00 -0.00000000000E+00 -0.11645637656E+03  0.11645637656E+03  0.00000000000E+00 0. -1.
         25    2    1    2    0    0  0.98890135323E+01  0.14001234145E+03  0.88463299158E+02  0.20772805714E+03  0.12499576824E+03 0.  0.
         23    2    1    2    0    0 -0.98890135323E+01 -0.14001234145E+03  0.64448067262E+02  0.17809606241E+03  0.88675846349E+02 0.  0.
          5    1    4    4  502    0  0.31058186917E+02 -0.68533368446E+02  0.34168243094E+01  0.75466537310E+02  0.47000000000E+01 0. -1.
         -5    1    4    4    0  502 -0.40947200449E+02 -0.71478973004E+02  0.61031242952E+02  0.10262952510E+03  0.47000000000E+01 0.  1.
          5    1    3    3  503    0  0.22955983749E+02  0.11774411367E+03  0.49134493335E+01  0.12015359120E+03  0.47000000000E+01 0. -1.
         -5    1    3    3    0  503 -0.13066970217E+02  0.22268227783E+02  0.83549849824E+02  0.87574465941E+02  0.47000000000E+01 0. -1.
<mgrwt>
<rscale>  0 0.18221149E+03</rscale>
<asrwt>0</asrwt>
<pdfrwt beam="1">  1        1 0.17916366E-01 0.18794997E+03</pdfrwt>
<pdfrwt beam="2">  1       -1 0.41441191E-01 0.18794997E+03</pdfrwt>
<totfact> 0.16878846E+03</totfact>
</mgrwt>
</event>
<event>
 8    1  0.3407580E-004  0.1578719E+03  0.7546771E-02  0.1198673E+00
         -2   -1    0    0    0  501 -0.00000000000E+00  0.00000000000E+00  0.13262784547E+02  0.13262784547E+02  0.00000000000E+00 0.  1.
          2   -1    0    0  501    0  0.00000000000E+00 -0.00000000000E+00 -0.16740342061E+04  0.16740342061E+04  0.00000000000E+00 0. -1.
         25    2    1    2    0    0 -0.63452164571E+02 -0.72616085530E+02 -0.10685944365E+04  0.10801933226E+04  0.12499708566E+03 0.  0.
         23    2    1    2    0    0  0.63452164571E+02  0.72616085530E+02 -0.59217698499E+03  0.60710366798E+03  0.92747016399E+02 0.  0.
          5    1    4    4  502    0  0.21435840309E+02  0.76073522493E+02 -0.49178313880E+03  0.49811587174E+03  0.47000000000E+01 0. -1.
         -5    1    4    4    0  502  0.42016324262E+02 -0.34574369630E+01 -0.10039384619E+03  0.10898779624E+03  0.47000000000E+01 0.  1.
          5    1    3    3  503    0 -0.90380067777E+02 -0.46984384791E+02 -0.95823703007E+03  0.96364743805E+03  0.47000000000E+01 0.  1.
         -5    1    3    3    0  503  0.26927903206E+02 -0.25631700739E+02 -0.11035740647E+03  0.11654588459E+03  0.47000000000E+01 0.  1.
<mgrwt>
<rscale>  0 0.15147438E+03</rscale>
<asrwt>0</asrwt>
<pdfrwt beam="1">  1        2 0.25754385E+00 0.15787192E+03</pdfrwt>
<pdfrwt beam="2">  1       -2 0.20404274E-02 0.15787192E+03</pdfrwt>
<totfact> 0.81581041E+03</totfact>
</mgrwt>
</event>
<event>
 8    1  0.3407580E-004  0.1499529E+03  0.7546771E-02  0.1210574E+00
         -2   -1    0    0    0  501 -0.00000000000E+00  0.00000000000E+00  0.80522686836E+02  0.80522686836E+02  0.00000000000E+00 0. -1.
          2   -1    0    0  501    0  0.00000000000E+00 -0.00000000000E+00 -0.49701967001E+03  0.49701967001E+03  0.00000000000E+00 0.  1.
         25    2    1    2    0    0 -0.82737017198E+02 -0.43837922319E+01 -0.43054987477E+03  0.45591563547E+03  0.12498496049E+03 0.  0.
         23    2    1    2    0    0  0.82737017198E+02  0.43837922319E+01  0.14052891594E+02  0.12162672138E+03  0.87925786563E+02 0.  0.
          5    1    3    3  502    0 -0.62604718140E+02  0.56982198808E+02 -0.26071822125E+03  0.27415762365E+03  0.47000000000E+01 0. -1.
         -5    1    4    4    0  503 -0.10331092954E+02 -0.20935456948E+02 -0.12956670189E+01  0.23849393960E+02  0.47000000000E+01 0.  1.
          5    1    4    4  503    0  0.93068110152E+02  0.25319249180E+02  0.15348558613E+02  0.97777327422E+02  0.47000000000E+01 0. -1.
         -5    1    3    3    0  502 -0.20132299058E+02 -0.61365991040E+02 -0.16983165352E+03  0.18175801181E+03  0.47000000000E+01 0. -1.
<mgrwt>
<rscale>  0 0.14206719E+03</rscale>
<asrwt>0</asrwt>
<pdfrwt beam="1">  1        2 0.76464567E-01 0.14995290E+03</pdfrwt>
<pdfrwt beam="2">  1       -2 0.12388105E-01 0.14995290E+03</pdfrwt>
<totfact> 0.28776413E+03</totfact>
</mgrwt>
</event>
<event>
 8    1  0.3407580E-004  0.1287991E+03  0.7546771E-02  0.1243697E+00
         -2   -1    0    0    0  501 -0.00000000000E+00  0.00000000000E+00  0.29396993811E+02  0.29396993811E+02  0.00000000000E+00 0.  1.
          2   -1    0    0  501    0  0.00000000000E+00 -0.00000000000E+00 -0.44257611162E+03  0.44257611162E+03  0.00000000000E+00 0. -1.
         25    2    1    2    0    0 -0.24921706691E+02 -0.18531484767E+02 -0.19550805599E+03  0.23412092853E+03  0.12499880730E+03 0.  0.
         23    2    1    2    0    0  0.24921706691E+02  0.18531484767E+02 -0.21767106183E+03  0.23785217691E+03  0.90710856632E+02 0.  0.
          5    1    3    3  502    0  0.34033953484E+02  0.32631816837E+02 -0.49717973421E+02  0.68681237182E+02  0.47000000000E+01 0.  1.
         -5    1    3    3    0  502 -0.58955660175E+02 -0.51163301604E+02 -0.14579008257E+03  0.16543969134E+03  0.47000000000E+01 0.  1.
          5    1    4    4  503    0 -0.10680565628E+02  0.47624751826E+02 -0.12560858276E+03  0.13483989592E+03  0.47000000000E+01 0. -1.
         -5    1    4    4    0  503  0.35602272320E+02 -0.29093267059E+02 -0.92062479071E+02  0.10301228099E+03  0.47000000000E+01 0.  1.
<mgrwt>
<rscale>  0 0.11963730E+03</rscale>
<asrwt>0</asrwt>
<pdfrwt beam="1">  1        2 0.68088629E-01 0.12879910E+03</pdfrwt>
<pdfrwt beam="2">  1       -2 0.45226146E-02 0.12879910E+03</pdfrwt>
<totfact> 0.15299194E+04</totfact>
</mgrwt>
</event>
<event>
 8    1  0.3407580E-004  0.1837537E+03  0.7546771E-02  0.1169319E+00
          1   -1    0    0  501    0  0.00000000000E+00  0.00000000000E+00  0.80816978076E+02  0.80816978076E+02  0.00000000000E+00 0. -1.
         -1   -1    0    0    0  501 -0.00000000000E+00 -0.00000000000E+00 -0.39555269485E+03  0.39555269485E+03  0.00000000000E+00 0.  1.
         25    2    1    2    0    0 -0.13034447687E+03  0.34005988711E+02 -0.22305261253E+03  0.28899464620E+03  0.12497738860E+03 0.  0.
         23    2    1    2    0    0  0.13034447687E+03 -0.34005988711E+02 -0.91683104242E+02  0.18737502672E+03  0.92506859833E+02 0.  0.
          5    1    4    4  502    0  0.10656736822E+03 -0.34691022921E+02 -0.22954598771E+02  0.11449486733E+03  0.47000000000E+01 0. -1.
         -5    1    4    4    0  502  0.23777108643E+02  0.68503421080E+00 -0.68728505472E+02  0.72880159383E+02  0.47000000000E+01 0.  1.
          5    1    3    3  503    0 -0.19848388499E+02  0.62869379659E+02 -0.56268886859E+02  0.86803197252E+02  0.47000000000E+01 0.  1.
         -5    1    3    3    0  503 -0.11049608837E+03 -0.28863390949E+02 -0.16678372567E+03  0.20219144895E+03  0.47000000000E+01 0.  1.
<mgrwt>
<rscale>  0 0.17844254E+03</rscale>
<asrwt>0</asrwt>
<pdfrwt beam="1">  1        1 0.12433381E-01 0.18375374E+03</pdfrwt>
<pdfrwt beam="2">  1       -1 0.60854262E-01 0.18375374E+03</pdfrwt>
<totfact> 0.13387294E+03</totfact>
</mgrwt>
</event>
<event>
 8    1  0.3407580E-004  0.1313079E+03  0.7546771E-02  0.1236037E+00
         -2   -1    0    0    0  501 -0.00000000000E+00  0.00000000000E+00  0.14034166236E+03  0.14034166236E+03  0.00000000000E+00 0.  1.
          2   -1    0    0  501    0  0.00000000000E+00 -0.00000000000E+00 -0.10150179346E+03  0.10150179346E+03  0.00000000000E+00 0. -1.
         25    2    1    2    0    0  0.20474523110E+01 -0.40187694124E+02  0.35694735747E+02  0.13607308022E+03  0.12499010433E+03 0.  0.
         23    2    1    2    0    0 -0.20474523110E+01  0.40187694124E+02  0.31451331591E+01  0.10577037560E+03  0.97766239940E+02 0.  0.
          5    1    3    3  502    0  0.60373883410E+02 -0.24054713285E+02 -0.95822563018E+00  0.65166273681E+02  0.47000000000E+01 0.  1.
         -5    1    4    4    0  503  0.28628983534E+02 -0.20212770074E+02  0.11885634440E+02  0.37303258280E+02  0.47000000000E+01 0.  1.
          5    1    4    4  503    0 -0.30676435845E+02  0.60400464198E+02 -0.87405012810E+01  0.68467117320E+02  0.47000000000E+01 0. -1.
         -5    1    3    3    0  502 -0.58326431099E+02 -0.16132980839E+02  0.36652961378E+02  0.70906806537E+02  0.47000000000E+01 0.  1.
<mgrwt>
<rscale>  0 0.12438304E+03</rscale>
<asrwt>0</asrwt>
<pdfrwt beam="1">  1        2 0.15615661E-01 0.13130792E+03</pdfrwt>
<pdfrwt beam="2">  1       -2 0.21591025E-01 0.13130792E+03</pdfrwt>
<totfact> 0.64645230E+03</totfact>
</mgrwt>
</event>
<event>
 8    1  0.3407580E-004  0.2010106E+03  0.7546771E-02  0.1152938E+00
          1   -1    0    0  501    0  0.00000000000E+00  0.00000000000E+00  0.23251492176E+03  0.23251492176E+03  0.00000000000E+00 0. -1.
         -1   -1    0    0    0  501 -0.00000000000E+00 -0.00000000000E+00 -0.16112748095E+03  0.16112748095E+03  0.00000000000E+00 0.  1.
         25    2    1    2    0    0 -0.12634383697E+03  0.93906771410E+02  0.63569810554E+02  0.21082312210E+03  0.12499608451E+03 0.  0.
         23    2    1    2    0    0  0.12634383697E+03 -0.93906771410E+02  0.78176302572E+01  0.18281928060E+03  0.92631134942E+02 0.  0.
          5    1    4    4  502    0  0.96306941869E+02 -0.11020933040E+03 -0.36063474025E+01  0.14647941596E+03  0.47000000000E+01 0. -1.
         -5    1    4    4    0  502  0.30036895097E+02  0.16302558985E+02  0.11423977660E+02  0.36339864641E+02  0.47000000000E+01 0.  1.
          5    1    3    3  503    0 -0.91031446749E+02  0.68523963067E+02 -0.20678427284E+02  0.11589626899E+03  0.47000000000E+01 0.  1.
         -5    1    3    3    0  503 -0.35312390217E+02  0.25382808342E+02  0.84248237839E+02  0.94926853109E+02  0.47000000000E+01 0.  1.
<mgrwt>
<rscale>  0 0.19625485E+03</rscale>
<asrwt>0</asrwt>
<pdfrwt beam="1">  1        1 0.35771526E-01 0.20101062E+03</pdfrwt>
<pdfrwt beam="2">  1       -1 0.24788843E-01 0.20101062E+03</pdfrwt>
<totfact> 0.16954905E+03</totfact>
</mgrwt>
</event>
<event>
 8    1  0.3407580E-004  0.1498330E+03  0.7546771E-02  0.1210350E+00
          2   -1    0    0  501    0  0.00000000000E+00  0.00000000000E+00  0.10578236306E+04  0.10578236306E+04  0.00000000000E+00 0. -1.
         -2   -1    0    0    0  501 -0.00000000000E+00 -0.00000000000E+00 -0.20074252390E+02  0.20074252390E+02  0.00000000000E+00 0.  1.
         25    2    1    2    0    0  0.26863459787E+02 -0.78103676471E+02  0.37061249375E+03  0.39975436170E+03  0.12501239706E+03 0.  0.
         23    2    1    2    0    0 -0.26863459787E+02  0.78103676471E+02  0.66713688443E+03  0.67814352126E+03  0.89359851822E+02 0.  0.
          5    1    3    3  502    0  0.85014278548E+01 -0.39809398506E+02  0.18330428312E+02  0.44890501078E+02  0.47000000000E+01 0.  1.
         -5    1    4    4    0  503  0.27308751703E+02  0.46662336994E+02  0.21889402702E+03  0.22552123333E+03  0.47000000000E+01 0.  1.
          5    1    4    4  503    0 -0.54172211490E+02  0.31441339477E+02  0.44824285740E+03  0.45262228794E+03  0.47000000000E+01 0. -1.
         -5    1    3    3    0  502  0.18362031932E+02 -0.38294277965E+02  0.35228206544E+03  0.35486386062E+03  0.47000000000E+01 0.  1.
<mgrwt>
<rscale>  0 0.14223748E+03</rscale>
<asrwt>0</asrwt>
<pdfrwt beam="1">  1        2 0.16274205E+00 0.14983300E+03</pdfrwt>
<pdfrwt beam="2">  1       -2 0.30883474E-02 0.14983300E+03</pdfrwt>
<totfact> 0.95384078E+03</totfact>
</mgrwt>
</event>
<event>
 8    1  0.3407580E-004  0.1289539E+03  0.7546771E-02  0.1244120E+00
         -1   -1    0    0    0  501 -0.00000000000E+00  0.00000000000E+00  0.37684522974E+02  0.37684522974E+02  0.00000000000E+00 0.  1.
          1   -1    0    0  501    0  0.00000000000E+00 -0.00000000000E+00 -0.42633393690E+03  0.42633393690E+03  0.00000000000E+00 0. -1.
         25    2    1    2    0    0 -0.23290664156E+02  0.21494209667E+02 -0.32566680951E+03  0.35026843039E+03  0.12499858570E+03 0.  0.
         23    2    1    2    0    0  0.23290664156E+02 -0.21494209667E+02 -0.62982604419E+02  0.11375002948E+03  0.89262560249E+02 0.  0.
          5    1    4    4  502    0 -0.27122296427E+02 -0.30766226673E+02 -0.16713909573E+02  0.44537898922E+02  0.47000000000E+01 0. -1.
         -5    1    3    3    0  503 -0.39654873426E+02  0.42297231222E+02 -0.61181715876E+02  0.84420714952E+02  0.47000000000E+01 0.  1.
          5    1    3    3  503    0  0.16364209269E+02 -0.20803021555E+02 -0.26448509363E+03  0.26584771544E+03  0.47000000000E+01 0.  1.
         -5    1    4    4    0  502  0.50412960583E+02  0.92720170068E+01 -0.46268694847E+02  0.69212130562E+02  0.47000000000E+01 0.  1.
<mgrwt>
<rscale>  0 0.11938191E+03</rscale>
<asrwt>0</asrwt>
<pdfrwt beam="1">  1        1 0.65589837E-01 0.12895388E+03</pdfrwt>
<pdfrwt beam="2">  1       -1 0.57976189E-02 0.12895388E+03</pdfrwt>
<totfact> 0.74699217E+03</totfact>
</mgrwt>
</event>
<event>
 8    1  0.3407580E-004  0.1646987E+03  0.7546771E-02  0.1190480E+00
         -1   -1    0    0    0  501 -0.00000000000E+00  0.00000000000E+00  0.60369704251E+03  0.60369704251E+03  0.00000000000E+00 0.  1.
          1   -1    0    0  501    0  0.00000000000E+00 -0.00000000000E+00 -0.49834893247E+02  0.49834893247E+02  0.00000000000E+00 0. -1.
         25    2    1    2    0    0 -0.82274470932E+02 -0.68786975246E+02  0.44765389241E+03  0.47699020831E+03  0.12499965964E+03 0.  0.
         23    2    1    2    0    0  0.82274470932E+02  0.68786975246E+02  0.10620825686E+03  0.17654172744E+03  0.91575385193E+02 0.  0.
          5    1    3    3  502    0 -0.87972265528E+02 -0.99623799350E+02  0.36191579625E+03  0.38557639253E+03  0.47000000000E+01 0.  1.
         -5    1    4    4    0  503  0.74930874825E+02  0.18000872469E+02  0.97362895550E+02  0.12425896685E+03  0.47000000000E+01 0.  1.
          5    1    4    4  503    0  0.73435961068E+01  0.50786102777E+02  0.88453613075E+01  0.52282760597E+02  0.47000000000E+01 0. -1.
         -5    1    3    3    0  502  0.56977945960E+01  0.30836824105E+02  0.85738096153E+02  0.91413815783E+02  0.47000000000E+01 0.  1.
<mgrwt>
<rscale>  0 0.15843026E+03</rscale>
<asrwt>0</asrwt>
<pdfrwt beam="1">  1        1 0.76669071E-02 0.16469867E+03</pdfrwt>
<pdfrwt beam="2">  1       -1 0.92876463E-01 0.16469867E+03</pdfrwt>
<totfact> 0.10809214E+03</totfact>
</mgrwt>
</event>
<event>
 8    1  0.3407580E-004  0.2436251E+03  0.7546771E-02  0.1119973E+00
          1   -1    0    0  501    0  0.00000000000E+00  0.00000000000E+00  0.24878372443E+03  0.24878372443E+03  0.00000000000E+00 0. -1.
         -1   -1    0    0    0  501 -0.00000000000E+00 -0.00000000000E+00 -0.24564602899E+03  0.24564602899E+03  0.00000000000E+00 0.  1.
         25    2    1    2    0    0  0.28486899309E+02  0.20716549195E+03  0.75114471235E+02  0.25494194547E+03  0.12499666910E+03 0.  0.
         23    2    1    2    0    0 -0.28486899309E+02 -0.20716549195E+03 -0.71976775800E+02  0.23948780795E+03  0.91895100052E+02 0.  0.
          5    1    4    4  502    0 -0.28425909477E+02 -0.52719563768E+02  0.15339244974E+02  0.62006186545E+02  0.47000000000E+01 0. -1.
         -5    1    3    3    0  503 -0.48538562130E+02  0.83731159206E+02  0.17931475310E+02  0.98542005472E+02  0.47000000000E+01 0.  1.
          5    1    3    3  503    0  0.77025461438E+02  0.12343433274E+03  0.57182995925E+02  0.15639994000E+03  0.47000000000E+01 0.  1.
         -5    1    4    4    0  502 -0.60989831243E-01 -0.15444592818E+03 -0.87316020773E+02  0.17748162140E+03  0.47000000000E+01 0.  1.
<mgrwt>
<rscale>  0 0.23973039E+03</rscale>
<asrwt>0</asrwt>
<pdfrwt beam="1">  1        1 0.38274419E-01 0.24362515E+03</pdfrwt>
<pdfrwt beam="2">  1       -1 0.37791697E-01 0.24362515E+03</pdfrwt>
<totfact> 0.76071735E+02</totfact>
</mgrwt>
</event>
<event>
 8    1  0.3407580E-004  0.1988686E+03  0.7546771E-02  0.1154258E+00
         -2   -1    0    0    0  501 -0.00000000000E+00  0.00000000000E+00  0.47490176162E+02  0.47490176162E+02  0.00000000000E+00 0.  1.
          2   -1    0    0  501    0  0.00000000000E+00 -0.00000000000E+00 -0.84647944367E+03  0.84647944367E+03  0.00000000000E+00 0. -1.
         25    2    1    2    0    0 -0.14874600204E+03  0.42378908956E+02 -0.27786253332E+03  0.34169619279E+03  0.12500942246E+03 0.  0.
         23    2    1    2    0    0  0.14874600204E+03 -0.42378908956E+02 -0.52112673419E+03  0.55227342704E+03  0.97527022280E+02 0.  0.
          5    1    4    4  502    0  0.82730290810E+02 -0.13559476393E+02 -0.41826757792E+03  0.42661225622E+03  0.47000000000E+01 0. -1.
         -5    1    4    4    0  502  0.66015711228E+02 -0.28819432562E+02 -0.10285915627E+03  0.12566117082E+03  0.47000000000E+01 0.  1.
          5    1    3    3  503    0 -0.23115551739E+02  0.42670393915E+02 -0.16162916998E+02  0.51365563707E+02  0.47000000000E+01 0.  1.
         -5    1    3    3    0  503 -0.12563045030E+03 -0.29148495895E+00 -0.26169961632E+03  0.29033062909E+03  0.47000000000E+01 0.  1.
<mgrwt>
<rscale>  0 0.19473602E+03</rscale>
<asrwt>0</asrwt>
<pdfrwt beam="1">  1        2 0.13022760E+00 0.19886855E+03</pdfrwt>
<pdfrwt beam="2">  1       -2 0.73061811E-02 0.19886855E+03</pdfrwt>
<totfact> 0.35576822E+03</totfact>
</mgrwt>
</event>
<event>
 8    1  0.3407580E-004  0.1319060E+03  0.7546771E-02  0.1237549E+00
         -2   -1    0    0    0  501 -0.00000000000E+00  0.00000000000E+00  0.34274545997E+03  0.34274545997E+03  0.00000000000E+00 0.  1.
          2   -1    0    0  501    0  0.00000000000E+00 -0.00000000000E+00 -0.56182926060E+02  0.56182926060E+02  0.00000000000E+00 0. -1.
         25    2    1    2    0    0 -0.42120436641E+02 -0.81968652966E+00  0.26429712089E+03  0.29538474773E+03  0.12499751202E+03 0.  0.
         23    2    1    2    0    0  0.42120436641E+02  0.81968652966E+00  0.22265413024E+02  0.10354363831E+03  0.91927870352E+02 0.  0.
          5    1    3    3  502    0 -0.66901918174E+02  0.42420703146E+01  0.61918448025E+02  0.91377491877E+02  0.47000000000E+01 0.  1.
         -5    1    4    4    0  503 -0.15065110488E+02 -0.30298835081E+02 -0.11917634725E+01  0.34183142943E+02  0.47000000000E+01 0.  1.
          5    1    4    4  503    0  0.57185547130E+02  0.31118521610E+02  0.23457176496E+02  0.69360495362E+02  0.47000000000E+01 0. -1.
         -5    1    3    3    0  502  0.24781481532E+02 -0.50617568442E+01  0.20237867287E+03  0.20400725585E+03  0.47000000000E+01 0.  1.
<mgrwt>
<rscale>  0 0.12342669E+03</rscale>
<asrwt>0</asrwt>
<pdfrwt beam="1">  1        2 0.86435273E-02 0.13190596E+03</pdfrwt>
<pdfrwt beam="2">  1       -2 0.52730069E-01 0.13190596E+03</pdfrwt>
<totfact> 0.25508140E+03</totfact>
</mgrwt>
</event>
<event>
 8    1  0.3407580E-004  0.1358003E+03  0.7546771E-02  0.1230885E+00
          1   -1    0    0  501    0  0.00000000000E+00  0.00000000000E+00  0.10260282976E+04  0.10260282976E+04  0.00000000000E+00 0. -1.
         -1   -1    0    0    0  501 -0.00000000000E+00 -0.00000000000E+00 -0.17878170934E+02  0.17878170934E+02  0.00000000000E+00 0.  1.
         25    2    1    2    0    0  0.36586943639E+02 -0.38450720366E+02  0.32027536364E+03  0.34787645818E+03  0.12499863702E+03 0.  0.
         23    2    1    2    0    0 -0.36586943639E+02  0.38450720366E+02  0.68787476299E+03  0.69603001032E+03  0.92027296870E+02 0.  0.
          5    1    4    4  502    0 -0.61265257774E+02  0.33180539354E+02  0.61112002466E+03  0.61509686599E+03  0.47000000000E+01 0. -1.
         -5    1    3    3    0  503  0.16667594195E+02  0.36462297358E+02  0.39189983737E+02  0.56260578119E+02  0.47000000000E+01 0.  1.
          5    1    3    3  503    0  0.19919349444E+02 -0.74913017724E+02  0.28108537990E+03  0.29161588006E+03  0.47000000000E+01 0.  1.
         -5    1    4    4    0  502  0.24678314135E+02  0.52701810123E+01  0.76754738321E+02  0.80933144331E+02  0.47000000000E+01 0.  1.
<mgrwt>
<rscale>  0 0.12771546E+03</rscale>
<asrwt>0</asrwt>
<pdfrwt beam="1">  1        1 0.15785046E+00 0.13580030E+03</pdfrwt>
<pdfrwt beam="2">  1       -1 0.27504886E-02 0.13580030E+03</pdfrwt>
<totfact> 0.63777818E+03</totfact>
</mgrwt>
</event>
<event>
 8    1  0.3407580E-004  0.1736381E+03  0.7546771E-02  0.1179669E+00
          3   -1    0    0  501    0  0.00000000000E+00  0.00000000000E+00  0.26449491756E+03  0.26449491756E+03  0.00000000000E+00 0. -1.
         -3   -1    0    0    0  501 -0.00000000000E+00 -0.00000000000E+00 -0.10210301029E+03  0.10210301029E+03  0.00000000000E+00 0.  1.
         25    2    1    2    0    0  0.12017030762E+03  0.91158449409E+01  0.10591042372E+03  0.20338926277E+03  0.12500469149E+03 0.  0.
         23    2    1    2    0    0 -0.12017030762E+03 -0.91158449409E+01  0.56481483549E+02  0.16320866508E+03  0.94461150281E+02 0.  0.
          5    1    3    3  502    0  0.10482534527E+03  0.26513710168E+02  0.13031135889E+03  0.16939442168E+03  0.47000000000E+01 0.  1.
         -5    1    4    4    0  503 -0.10110203446E+03  0.32942538264E+02  0.34844424121E+02  0.11199578604E+03  0.47000000000E+01 0.  1.
          5    1    4    4  503    0 -0.19068273162E+02 -0.42058383205E+02  0.21637059428E+02  0.51212879043E+02  0.47000000000E+01 0. -1.
         -5    1    3    3    0  502  0.15344962347E+02 -0.17397865227E+02 -0.24400935168E+02  0.33994841094E+02  0.47000000000E+01 0.  1.
<mgrwt>
<rscale>  0 0.16826523E+03</rscale>
<asrwt>0</asrwt>
<pdfrwt beam="1">  1        3 0.40691525E-01 0.17363806E+03</pdfrwt>
<pdfrwt beam="2">  1       -3 0.15708156E-01 0.17363806E+03</pdfrwt>
<totfact> 0.49398972E+02</totfact>
</mgrwt>
</event>
<event>
 8    1  0.3407580E-004  0.1377984E+03  0.7546771E-02  0.1227657E+00
         -3   -1    0    0    0  501 -0.00000000000E+00  0.00000000000E+00  0.13646293665E+03  0.13646293665E+03  0.00000000000E+00 0.  1.
          3   -1    0    0  501    0  0.00000000000E+00 -0.00000000000E+00 -0.14516152772E+03  0.14516152772E+03  0.00000000000E+00 0. -1.
         25    2    1    2    0    0 -0.51382976725E+02  0.26841150987E+02 -0.72372364842E+02  0.15564757675E+03  0.12501100461E+03 0.  0.
         23    2    1    2    0    0  0.51382976725E+02 -0.26841150987E+02  0.63673773776E+02  0.12597688762E+03  0.91951993259E+02 0.  0.
          5    1    4    4  502    0  0.41381339019E+02 -0.58794012212E+02  0.29353338305E+02  0.77800125711E+02  0.47000000000E+01 0. -1.
         -5    1    4    4    0  502  0.10001637706E+02  0.31952861224E+02  0.34320435471E+02  0.48176761910E+02  0.47000000000E+01 0.  1.
          5    1    3    3  503    0 -0.33553347074E+02 -0.33197768766E+02  0.13444609685E+02  0.49302803982E+02  0.47000000000E+01 0.  1.
         -5    1    3    3    0  503 -0.17829629651E+02  0.60038919753E+02 -0.85816974527E+02  0.10634477277E+03  0.47000000000E+01 0.  1.
<mgrwt>
<rscale>  0 0.12986473E+03</rscale>
<asrwt>0</asrwt>
<pdfrwt beam="1">  1        3 0.22332543E-01 0.13779844E+03</pdfrwt>
<pdfrwt beam="2">  1       -3 0.20994298E-01 0.13779844E+03</pdfrwt>
<totfact> 0.87764610E+02</totfact>
</mgrwt>
</event>
<event>
 8    1  0.3407580E-004  0.1423564E+03  0.7546771E-02  0.1221067E+00
          1   -1    0    0  501    0  0.00000000000E+00  0.00000000000E+00  0.47541910509E+02  0.47541910509E+02  0.00000000000E+00 0. -1.
         -1   -1    0    0    0  501 -0.00000000000E+00 -0.00000000000E+00 -0.34380007727E+03  0.34380007727E+03  0.00000000000E+00 0.  1.
         25    2    1    2    0    0 -0.66979690833E+02  0.12411954537E+02 -0.17333314752E+03  0.22429828924E+03  0.12500002770E+03 0.  0.
         23    2    1    2    0    0  0.66979690833E+02 -0.12411954537E+02 -0.12292501924E+03  0.16704369854E+03  0.90292310124E+02 0.  0.
          5    1    3    3  502    0 -0.72105625848E+02 -0.41343063070E+02 -0.75174299648E+02  0.11216833542E+03  0.47000000000E+01 0. -1.
         -5    1    4    4    0  503  0.58705256413E+02 -0.48176377999E+02 -0.81671341891E+02  0.11162243777E+03  0.47000000000E+01 0.  1.
          5    1    4    4  503    0  0.82744344198E+01  0.35764423462E+02 -0.41253677346E+02  0.55421260768E+02  0.47000000000E+01 0. -1.
         -5    1    3    3    0  502  0.51259350156E+01  0.53755017607E+02 -0.98158847875E+02  0.11212995382E+03  0.47000000000E+01 0. -1.
<mgrwt>
<rscale>  0 0.13440160E+03</rscale>
<asrwt>0</asrwt>
<pdfrwt beam="1">  1        1 0.73141400E-02 0.14235639E+03</pdfrwt>
<pdfrwt beam="2">  1       -1 0.52892320E-01 0.14235639E+03</pdfrwt>
<totfact> 0.35033391E+03</totfact>
</mgrwt>
</event>
<event>
 8    1  0.3407580E-004  0.1307247E+03  0.7546771E-02  0.1239986E+00
          2   -1    0    0  501    0  0.00000000000E+00  0.00000000000E+00  0.92874629972E+03  0.92874629972E+03  0.00000000000E+00 0. -1.
         -2   -1    0    0    0  501 -0.00000000000E+00 -0.00000000000E+00 -0.14732658866E+02  0.14732658866E+02  0.00000000000E+00 0.  1.
         25    2    1    2    0    0  0.37751396761E+02 -0.61895666439E+01  0.42825063676E+03  0.44775835398E+03  0.12500182793E+03 0.  0.
         23    2    1    2    0    0 -0.37751396761E+02  0.61895666439E+01  0.48576300410E+03  0.49572060460E+03  0.91157791685E+02 0.  0.
          5    1    4    4  502    0 -0.55282662041E+02  0.18942689224E+02  0.44879346731E+03  0.45260652282E+03  0.47000000000E+01 0. -1.
         -5    1    3    3    0  503  0.72690705359E+02  0.25413611245E+02  0.19412042731E+03  0.20888901498E+03  0.47000000000E+01 0.  1.
          5    1    3    3  503    0 -0.34939308597E+02 -0.31603177889E+02  0.23413020945E+03  0.23886933900E+03  0.47000000000E+01 0.  1.
         -5    1    4    4    0  502  0.17531265279E+02 -0.12753122580E+02  0.36969536789E+02  0.43114081786E+02  0.47000000000E+01 0.  1.
<mgrwt>
<rscale>  0 0.12190537E+03</rscale>
<asrwt>0</asrwt>
<pdfrwt beam="1">  1        2 0.14288400E+00 0.13072466E+03</pdfrwt>
<pdfrwt beam="2">  1       -2 0.22665636E-02 0.13072466E+03</pdfrwt>
<totfact> 0.17790852E+04</totfact>
</mgrwt>
</event>
<event>
 8    1  0.3407580E-004  0.2211997E+03  0.7546771E-02  0.1136339E+00
          1   -1    0    0  501    0  0.00000000000E+00  0.00000000000E+00  0.72841301368E+02  0.72841301368E+02  0.00000000000E+00 0. -1.
         -1   -1    0    0    0  501 -0.00000000000E+00 -0.00000000000E+00 -0.65539428312E+03  0.65539428312E+03  0.00000000000E+00 0.  1.
         25    2    1    2    0    0  0.14834811990E+03 -0.10628879440E+03 -0.21815851897E+03  0.31068063840E+03  0.12499938873E+03 0.  0.
         23    2    1    2    0    0 -0.14834811990E+03  0.10628879440E+03 -0.36439446278E+03  0.41755494609E+03  0.90908393481E+02 0.  0.
          5    1    3    3  502    0  0.62791914512E+02 -0.11867633060E+03 -0.12501558991E+03  0.18351535002E+03  0.47000000000E+01 0. -1.
         -5    1    4    4    0  503 -0.30510455551E+01  0.24460069586E+02 -0.11364841189E+03  0.11638580415E+03  0.47000000000E+01 0.  1.
          5    1    4    4  503    0 -0.14529707434E+03  0.81828724814E+02 -0.25074605090E+03  0.30116914194E+03  0.47000000000E+01 0. -1.
         -5    1    3    3    0  502  0.85556205387E+02  0.12387536204E+02 -0.93142929057E+02  0.12716528837E+03  0.47000000000E+01 0. -1.
<mgrwt>
<rscale>  0 0.21673766E+03</rscale>
<asrwt>0</asrwt>
<pdfrwt beam="1">  1        1 0.11206354E-01 0.22119973E+03</pdfrwt>
<pdfrwt beam="2">  1       -1 0.10082989E+00 0.22119973E+03</pdfrwt>
<totfact> 0.54447503E+02</totfact>
</mgrwt>
</event>
<event>
 8    1  0.3407580E-004  0.1399063E+03  0.7546771E-02  0.1223834E+00
          1   -1    0    0  501    0  0.00000000000E+00  0.00000000000E+00  0.17241004984E+03  0.17241004984E+03  0.00000000000E+00 0.  1.
         -1   -1    0    0    0  501 -0.00000000000E+00 -0.00000000000E+00 -0.93361104530E+02  0.93361104530E+02  0.00000000000E+00 0. -1.
         25    2    1    2    0    0 -0.58717492707E+02  0.22399098031E+02  0.30005811712E+02  0.14308778758E+03  0.12499721067E+03 0.  0.
         23    2    1    2    0    0  0.58717492707E+02 -0.22399098031E+02  0.49043133596E+02  0.12268336679E+03  0.93255112416E+02 0.  0.
          5    1    3    3  502    0  0.35670805946E+02  0.24237331630E+01 -0.11649234372E+02  0.37895587352E+02  0.47000000000E+01 0. -1.
         -5    1    4    4    0  503  0.13926470523E+02 -0.46907828004E+02 -0.34835654525E+01  0.49279977045E+02  0.47000000000E+01 0.  1.
          5    1    4    4  503    0  0.44791022184E+02  0.24508729973E+02  0.52526699049E+02  0.73403389745E+02  0.47000000000E+01 0. -1.
         -5    1    3    3    0  502 -0.94388298652E+02  0.19975364868E+02  0.41655046085E+02  0.10519220023E+03  0.47000000000E+01 0. -1.
<mgrwt>
<rscale>  0 0.13247135E+03</rscale>
<asrwt>0</asrwt>
<pdfrwt beam="1">  1        1 0.26524623E-01 0.13990628E+03</pdfrwt>
<pdfrwt beam="2">  1       -1 0.14363247E-01 0.13990628E+03</pdfrwt>
<totfact> 0.58298369E+03</totfact>
</mgrwt>
</event>
<event>
 8    1  0.3407580E-004  0.1709472E+03  0.7546771E-02  0.1183065E+00
          4   -1    0    0  501    0  0.00000000000E+00  0.00000000000E+00  0.10753275619E+03  0.10753275619E+03  0.00000000000E+00 0. -1.
         -4   -1    0    0    0  501 -0.00000000000E+00 -0.00000000000E+00 -0.26782498733E+03  0.26782498733E+03  0.00000000000E+00 0.  1.
         25    2    1    2    0    0  0.47283992936E+02  0.10659073964E+03 -0.14806350698E+03  0.22615428978E+03  0.12500239567E+03 0.  0.
         23    2    1    2    0    0 -0.47283992936E+02 -0.10659073964E+03 -0.12228724157E+02  0.14920345374E+03  0.92275495918E+02 0.  0.
          5    1    3    3  502    0  0.78912301931E+02  0.84741721636E+02 -0.14729404055E+03  0.18741914300E+03  0.47000000000E+01 0. -1.
         -5    1    4    4    0  503 -0.10026876092E+02 -0.87071087675E+02 -0.42153628301E+02  0.97370072055E+02  0.47000000000E+01 0.  1.
          5    1    4    4  503    0 -0.37257116844E+02 -0.19519651966E+02  0.29924904144E+02  0.51833381680E+02  0.47000000000E+01 0. -1.
         -5    1    3    3    0  502 -0.31628308995E+02  0.21849018006E+02 -0.76946642628E+00  0.38735146783E+02  0.47000000000E+01 0. -1.
<mgrwt>
<rscale>  0 0.16509176E+03</rscale>
<asrwt>0</asrwt>
<pdfrwt beam="1">  1        4 0.16543501E-01 0.17094725E+03</pdfrwt>
<pdfrwt beam="2">  1       -4 0.41203844E-01 0.17094725E+03</pdfrwt>
<totfact> 0.31518257E+02</totfact>
</mgrwt>
</event>
<event>
 8    1  0.3407580E-004  0.1772825E+03  0.7546771E-02  0.1176156E+00
          2   -1    0    0  501    0  0.00000000000E+00  0.00000000000E+00  0.88855916224E+02  0.88855916224E+02  0.00000000000E+00 0. -1.
         -2   -1    0    0    0  501 -0.00000000000E+00 -0.00000000000E+00 -0.31209885886E+03  0.31209885886E+03  0.00000000000E+00 0.  1.
         25    2    1    2    0    0 -0.62407921743E+02  0.10912969114E+03 -0.11590371151E+03  0.21180829790E+03  0.12500018613E+03 0.  0.
         23    2    1    2    0    0  0.62407921743E+02 -0.10912969114E+03 -0.10733923113E+03  0.18914647718E+03  0.91927368655E+02 0.  0.
          5    1    4    4  502    0  0.78621752531E+02 -0.92907010799E+02 -0.58788140987E+02  0.13524506700E+03  0.47000000000E+01 0. -1.
         -5    1    3    3    0  503 -0.19702227336E+02 -0.89544066938E+01  0.17734580096E+02  0.28371896173E+02  0.47000000000E+01 0.  1.
          5    1    3    3  503    0 -0.42705694407E+02  0.11808409783E+03 -0.13363829160E+03  0.18343640172E+03  0.47000000000E+01 0.  1.
         -5    1    4    4    0  502 -0.16213830788E+02 -0.16222680339E+02 -0.48551090139E+02  0.53901410185E+02  0.47000000000E+01 0.  1.
<mgrwt>
<rscale>  0 0.17163223E+03</rscale>
<asrwt>0</asrwt>
<pdfrwt beam="1">  1        2 0.13670141E-01 0.17728250E+03</pdfrwt>
<pdfrwt beam="2">  1       -2 0.48015208E-01 0.17728250E+03</pdfrwt>
<totfact> 0.17823977E+03</totfact>
</mgrwt>
</event>
<event>
 8    1  0.3407580E-004  0.1598774E+03  0.7546771E-02  0.1195978E+00
         -2   -1    0    0    0  501 -0.00000000000E+00  0.00000000000E+00  0.55805117051E+03  0.55805117051E+03  0.00000000000E+00 0.  1.
          2   -1    0    0  501    0  0.00000000000E+00 -0.00000000000E+00 -0.11530457579E+03  0.11530457579E+03  0.00000000000E+00 0. -1.
         25    2    1    2    0    0 -0.98205070710E+02  0.17077136384E+02 -0.45603425915E+02  0.16625414408E+03  0.12499961387E+03 0.  0.
         23    2    1    2    0    0  0.98205070710E+02 -0.17077136384E+02  0.48835002063E+03  0.50710160223E+03  0.93436758464E+02 0.  0.
          5    1    4    4  502    0  0.21769236161E+02 -0.10129595558E+02  0.17665249694E+02  0.30177133660E+02  0.47000000000E+01 0. -1.
         -5    1    4    4    0  502  0.76435834549E+02 -0.69475408256E+01  0.47068477094E+03  0.47692446857E+03  0.47000000000E+01 0.  1.
          5    1    3    3  503    0 -0.32360390018E+02 -0.30661366921E+02 -0.68290944615E+02  0.81688783685E+02  0.47000000000E+01 0. -1.
         -5    1    3    3    0  503 -0.65844680692E+02  0.47738503305E+02  0.22687518700E+02  0.84565360390E+02  0.47000000000E+01 0. -1.
<mgrwt>
<rscale>  0 0.15371720E+03</rscale>
<asrwt>0</asrwt>
<pdfrwt beam="1">  1        2 0.17739166E-01 0.15987735E+03</pdfrwt>
<pdfrwt beam="2">  1       -2 0.85854025E-01 0.15987735E+03</pdfrwt>
<totfact> 0.38764681E+02</totfact>
</mgrwt>
</event>
<event>
 8    1  0.3407580E-004  0.1564494E+03  0.7546771E-02  0.1201269E+00
         -2   -1    0    0    0  501 -0.00000000000E+00  0.00000000000E+00  0.12418896839E+04  0.12418896839E+04  0.00000000000E+00 0.  1.
          2   -1    0    0  501    0  0.00000000000E+00 -0.00000000000E+00 -0.17095772307E+02  0.17095772307E+02  0.00000000000E+00 0. -1.
         25    2    1    2    0    0 -0.18000434103E+02 -0.92337366336E+02  0.78309615385E+03  0.79857121885E+03  0.12500480208E+03 0.  0.
         23    2    1    2    0    0  0.18000434103E+02  0.92337366336E+02  0.44169775773E+03  0.46041423735E+03  0.89633453132E+02 0.  0.
          5    1    3    3  502    0 -0.71817671804E+02 -0.56857938207E+02  0.47318983392E+03  0.48199721166E+03  0.47000000000E+01 0. -1.
         -5    1    3    3    0  502  0.53817237701E+02 -0.35479428129E+02  0.30990631993E+03  0.31657400719E+03  0.47000000000E+01 0. -1.
          5    1    4    4  503    0  0.25514357012E+00  0.62218020883E+02  0.10700616766E+03  0.12386911293E+03  0.47000000000E+01 0. -1.
         -5    1    4    4    0  503  0.17745290533E+02  0.30119345453E+02  0.33469159007E+03  0.33654512442E+03  0.47000000000E+01 0.  1.
<mgrwt>
<rscale>  0 0.14935368E+03</rscale>
<asrwt>0</asrwt>
<pdfrwt beam="1">  1        2 0.26301198E-02 0.15644937E+03</pdfrwt>
<pdfrwt beam="2">  1       -2 0.19105988E+00 0.15644937E+03</pdfrwt>
<totfact> 0.60591273E+02</totfact>
</mgrwt>
</event>
<event>
 8    1  0.3407580E-004  0.1352299E+03  0.7546771E-02  0.1232297E+00
         -1   -1    0    0    0  501 -0.00000000000E+00  0.00000000000E+00  0.16693348833E+03  0.16693348833E+03  0.00000000000E+00 0.  1.
          1   -1    0    0  501    0  0.00000000000E+00 -0.00000000000E+00 -0.87450194157E+02  0.87450194157E+02  0.00000000000E+00 0. -1.
         25    2    1    2    0    0  0.46791736489E+02  0.21705228164E+02  0.28906722783E+02  0.13828489068E+03  0.12500611519E+03 0.  0.
         23    2    1    2    0    0 -0.46791736489E+02 -0.21705228164E+02  0.50576571390E+02  0.11609879181E+03  0.90886502583E+02 0.  0.
          5    1    3    3  502    0  0.85538666918E+02  0.34692640701E+02  0.98472676766E+01  0.92948918969E+02  0.47000000000E+01 0.  1.
         -5    1    3    3    0  502 -0.38746930429E+02 -0.12987412537E+02  0.19059455106E+02  0.45335971711E+02  0.47000000000E+01 0.  1.
          5    1    4    4  503    0 -0.36637957998E+02  0.11380616706E+02 -0.15273215310E+02  0.41559830471E+02  0.47000000000E+01 0. -1.
         -5    1    4    4    0  503 -0.10153778491E+02 -0.33085844870E+02  0.65849786700E+02  0.74538961334E+02  0.47000000000E+01 0.  1.
<mgrwt>
<rscale>  0 0.12679056E+03</rscale>
<asrwt>0</asrwt>
<pdfrwt beam="1">  1        1 0.13453876E-01 0.13522985E+03</pdfrwt>
<pdfrwt beam="2">  1       -1 0.25682075E-01 0.13522985E+03</pdfrwt>
<totfact> 0.54552920E+03</totfact>
</mgrwt>
</event>
<event>
 8    1  0.3407580E-004  0.1301787E+03  0.7546771E-02  0.1239943E+00
         -1   -1    0    0    0  501 -0.00000000000E+00  0.00000000000E+00  0.50569374625E+02  0.50569374625E+02  0.00000000000E+00 0.  1.
          1   -1    0    0  501    0  0.00000000000E+00 -0.00000000000E+00 -0.44588174762E+03  0.44588174762E+03  0.00000000000E+00 0. -1.
         25    2    1    2    0    0 -0.97081284581E+00  0.36430495600E+02 -0.54345550429E+02  0.14106713941E+03  0.12497349912E+03 0.  0.
         23    2    1    2    0    0  0.97081284581E+00 -0.36430495600E+02 -0.34096682257E+03  0.35538398284E+03  0.93334225667E+02 0.  0.
          5    1    3    3  502    0  0.57231668912E+02 -0.22701859969E+01 -0.38711135656E+02  0.69291122770E+02  0.47000000000E+01 0. -1.
         -5    1    4    4    0  503  0.30592208991E+02 -0.49509637904E+02 -0.13871479432E+03  0.15050239752E+03  0.47000000000E+01 0.  1.
          5    1    4    4  503    0 -0.29621396145E+02  0.13079142304E+02 -0.20225202825E+03  0.20488158532E+03  0.47000000000E+01 0. -1.
         -5    1    3    3    0  502 -0.58202481758E+02  0.38700681597E+02 -0.15634414774E+02  0.71776016636E+02  0.47000000000E+01 0. -1.
<mgrwt>
<rscale>  0 0.12193222E+03</rscale>
<asrwt>0</asrwt>
<pdfrwt beam="1">  1        1 0.68597194E-01 0.13017872E+03</pdfrwt>
<pdfrwt beam="2">  1       -1 0.77799036E-02 0.13017872E+03</pdfrwt>
<totfact> 0.45483089E+03</totfact>
</mgrwt>
</event>
<event>
 8    1  0.3407580E-004  0.1341269E+03  0.7546771E-02  0.1231621E+00
          2   -1    0    0  501    0  0.00000000000E+00  0.00000000000E+00  0.13008412227E+04  0.13008412227E+04  0.00000000000E+00 0. -1.
         -2   -1    0    0    0  501 -0.00000000000E+00 -0.00000000000E+00 -0.11408822926E+02  0.11408822926E+02  0.00000000000E+00 0.  1.
         25    2    1    2    0    0  0.42081583229E+02 -0.24379989348E+02  0.76854731622E+03  0.78016343860E+03  0.12499908054E+03 0.  0.
         23    2    1    2    0    0 -0.42081583229E+02  0.24379989348E+02  0.52088508359E+03  0.53208660706E+03  0.97106351894E+02 0.  0.
          5    1    3    3  502    0  0.54469306307E+02  0.38048706825E+02  0.48300533360E+03  0.48757650857E+03  0.47000000000E+01 0. -1.
         -5    1    4    4    0  503  0.27231156011E+02 -0.10933834338E+02  0.11431036582E+03  0.11811026342E+03  0.47000000000E+01 0.  1.
          5    1    4    4  503    0 -0.69312739240E+02  0.35313823687E+02  0.40657471778E+03  0.41397634365E+03  0.47000000000E+01 0. -1.
         -5    1    3    3    0  502 -0.12387723078E+02 -0.62428696173E+02  0.28554198262E+03  0.29258693003E+03  0.47000000000E+01 0. -1.
<mgrwt>
<rscale>  0 0.12723264E+03</rscale>
<asrwt>0</asrwt>
<pdfrwt beam="1">  1        2 0.20012930E+00 0.13412686E+03</pdfrwt>
<pdfrwt beam="2">  1       -2 0.17552046E-02 0.13412686E+03</pdfrwt>
<totfact> 0.15820358E+04</totfact>
</mgrwt>
</event>
<event>
 8    1  0.3407580E-004  0.1395879E+03  0.7546771E-02  0.1224688E+00
         -2   -1    0    0    0  501 -0.00000000000E+00  0.00000000000E+00  0.25414118081E+02  0.25414118081E+02  0.00000000000E+00 0.  1.
          2   -1    0    0  501    0  0.00000000000E+00 -0.00000000000E+00 -0.62172947945E+03  0.62172947945E+03  0.00000000000E+00 0. -1.
         25    2    1    2    0    0  0.56823277518E+02  0.24988439545E+02 -0.35367090972E+03  0.38022085349E+03  0.12502590959E+03 0.  0.
         23    2    1    2    0    0 -0.56823277518E+02 -0.24988439545E+02 -0.24264445166E+03  0.26692274405E+03  0.92293631367E+02 0.  0.
          5    1    4    4  502    0 -0.15031618460E+02 -0.26643305911E+02 -0.21349431166E+03  0.21572604483E+03  0.47000000000E+01 0. -1.
         -5    1    3    3    0  503  0.35469691930E+02 -0.89643159957E+01 -0.16105510050E+02  0.40248421843E+02  0.47000000000E+01 0. -1.
          5    1    3    3  503    0  0.21353585587E+02  0.33952755541E+02 -0.33756539967E+03  0.33997243164E+03  0.47000000000E+01 0. -1.
         -5    1    4    4    0  502 -0.41791659058E+02  0.16548663661E+01 -0.29150139993E+02  0.51196699221E+02  0.47000000000E+01 0.  1.
<mgrwt>
<rscale>  0 0.13188284E+03</rscale>
<asrwt>0</asrwt>
<pdfrwt beam="1">  1        2 0.95650700E-01 0.13958791E+03</pdfrwt>
<pdfrwt beam="2">  1       -2 0.39098639E-02 0.13958791E+03</pdfrwt>
<totfact> 0.13117490E+04</totfact>
</mgrwt>
</event>
<event>
 8    1  0.3407580E-004  0.2007814E+03  0.7546771E-02  0.1153348E+00
         -2   -1    0    0    0  501 -0.00000000000E+00  0.00000000000E+00  0.55120654579E+03  0.55120654579E+03  0.00000000000E+00 0.  1.
          2   -1    0    0  501    0  0.00000000000E+00 -0.00000000000E+00 -0.69947797042E+02  0.69947797042E+02  0.00000000000E+00 0. -1.
         25    2    1    2    0    0  0.16099493216E+02  0.15630798582E+03  0.18115229876E+03  0.27042431687E+03  0.12498710213E+03 0.  0.
         23    2    1    2    0    0 -0.16099493216E+02 -0.15630798582E+03  0.30010644998E+03  0.35073002595E+03  0.90864127545E+02 0.  0.
          5    1    4    4  502    0  0.26847550026E+01 -0.12798804664E+03  0.15238138876E+03  0.19907366886E+03  0.47000000000E+01 0. -1.
         -5    1    4    4    0  502 -0.18784248218E+02 -0.28319939181E+02  0.14772506122E+03  0.15165635710E+03  0.47000000000E+01 0.  1.
          5    1    3    3  503    0  0.37740159369E+02  0.17009907810E+03  0.16301777770E+03  0.23865226135E+03  0.47000000000E+01 0. -1.
         -5    1    3    3    0  503 -0.21640666154E+02 -0.13791092287E+02  0.18134521063E+02  0.31772055524E+02  0.47000000000E+01 0. -1.
<mgrwt>
<rscale>  0 0.19578104E+03</rscale>
<asrwt>0</asrwt>
<pdfrwt beam="1">  1        2 0.10761200E-01 0.20078136E+03</pdfrwt>
<pdfrwt beam="2">  1       -2 0.84801004E-01 0.20078136E+03</pdfrwt>
<totfact> 0.72593113E+02</totfact>
</mgrwt>
</event>
<event>
 8    1  0.3407580E-004  0.1739678E+03  0.7546771E-02  0.1179499E+00
         -2   -1    0    0    0  501 -0.00000000000E+00  0.00000000000E+00  0.78745394316E+03  0.78745394316E+03  0.00000000000E+00 0.  1.
          2   -1    0    0  501    0  0.00000000000E+00 -0.00000000000E+00 -0.34089210044E+02  0.34089210044E+02  0.00000000000E+00 0. -1.
         25    2    1    2    0    0 -0.10143071403E+03 -0.65978505154E+02  0.43083351174E+03  0.46463136048E+03  0.12499373351E+03 0.  0.
         23    2    1    2    0    0  0.10143071403E+03  0.65978505154E+02  0.32253122138E+03  0.35691179272E+03  0.93371763031E+02 0.  0.
          5    1    3    3  502    0 -0.70978774098E+02 -0.12153195637E+02  0.77501663735E+02  0.10589751847E+03  0.47000000000E+01 0. -1.
         -5    1    3    3    0  502 -0.30451939928E+02 -0.53825309517E+02  0.35333184800E+03  0.35873384201E+03  0.47000000000E+01 0. -1.
          5    1    4    4  503    0 -0.15818535795E+02  0.21380466277E+02  0.66022812827E+02  0.71333387880E+02  0.47000000000E+01 0. -1.
         -5    1    4    4    0  503  0.11724924982E+03  0.44598038877E+02  0.25650840855E+03  0.28557840484E+03  0.47000000000E+01 0.  1.
<mgrwt>
<rscale>  0 0.16842629E+03</rscale>
<asrwt>0</asrwt>
<pdfrwt beam="1">  1        2 0.52444944E-02 0.17396777E+03</pdfrwt>
<pdfrwt beam="2">  1       -2 0.12114675E+00 0.17396777E+03</pdfrwt>
<totfact> 0.78781793E+02</totfact>
</mgrwt>
</event>
<event>
 8    1  0.3407580E-004  0.1629170E+03  0.7546771E-02  0.1192567E+00
          2   -1    0    0  501    0  0.00000000000E+00  0.00000000000E+00  0.27836420531E+03  0.27836420531E+03  0.00000000000E+00 0. -1.
         -2   -1    0    0    0  501 -0.00000000000E+00 -0.00000000000E+00 -0.86366705835E+02  0.86366705835E+02  0.00000000000E+00 0.  1.
         25    2    1    2    0    0  0.49593054056E+02 -0.91962068288E+02  0.14430056390E+03  0.21763408226E+03  0.12500179201E+03 0.  0.
         23    2    1    2    0    0 -0.49593054056E+02  0.91962068288E+02  0.47696935574E+02  0.14709682888E+03  0.91902047796E+02 0.  0.
          5    1    3    3  502    0 -0.13461230708E+02 -0.46026730683E+02 -0.56741665363E+01  0.48517531218E+02  0.47000000000E+01 0. -1.
         -5    1    4    4    0  503 -0.50407864377E+01  0.35110486043E+02 -0.25668766899E+02  0.44035569171E+02  0.47000000000E+01 0.  1.
          5    1    4    4  503    0 -0.44552267618E+02  0.56851582245E+02  0.73365702473E+02  0.10306125971E+03  0.47000000000E+01 0. -1.
         -5    1    3    3    0  502  0.63054284764E+02 -0.45935337605E+02  0.14997473044E+03  0.16911655105E+03  0.47000000000E+01 0. -1.
<mgrwt>
<rscale>  0 0.15661915E+03</rscale>
<asrwt>0</asrwt>
<pdfrwt beam="1">  1        2 0.42825262E-01 0.16291698E+03</pdfrwt>
<pdfrwt beam="2">  1       -2 0.13287186E-01 0.16291698E+03</pdfrwt>
<totfact> 0.48094740E+03</totfact>
</mgrwt>
</event>
<event>
 8    1  0.3407580E-004  0.1725462E+03  0.7546771E-02  0.1181702E+00
          2   -1    0    0  501    0  0.00000000000E+00  0.00000000000E+00  0.35298334240E+02  0.35298334240E+02  0.00000000000E+00 0. -1.
         -2   -1    0    0    0  501 -0.00000000000E+00 -0.00000000000E+00 -0.88175723927E+03  0.88175723927E+03  0.00000000000E+00 0.  1.
         25    2    1    2    0    0  0.79228365315E+02 -0.88706545289E+02 -0.63701337248E+03  0.65996834204E+03  0.12500476283E+03 0.  0.
         23    2    1    2    0    0 -0.79228365315E+02  0.88706545289E+02 -0.20944553255E+03  0.25708723147E+03  0.89891203307E+02 0.  0.
          5    1    4    4  502    0 -0.64161755380E+02  0.74133044626E+02 -0.82164215865E+02  0.12800581052E+03  0.47000000000E+01 0. -1.
         -5    1    3    3    0  503  0.20503734190E+02 -0.80790756168E+02 -0.53833284523E+03  0.54476774101E+03  0.47000000000E+01 0.  1.
          5    1    3    3  503    0  0.58724631125E+02 -0.79157891209E+01 -0.98680527254E+02  0.11520060103E+03  0.47000000000E+01 0.  1.
         -5    1    4    4    0  502 -0.15066609934E+02  0.14573500663E+02 -0.12728131669E+03  0.12908142095E+03  0.47000000000E+01 0.  1.
<mgrwt>
<rscale>  0 0.16635568E+03</rscale>
<asrwt>0</asrwt>
<pdfrwt beam="1">  1        2 0.54305131E-02 0.17254616E+03</pdfrwt>
<pdfrwt beam="2">  1       -2 0.13565496E+00 0.17254616E+03</pdfrwt>
<totfact> 0.57000293E+02</totfact>
</mgrwt>
</event>
<event>
 8    1  0.3407580E-004  0.1432418E+03  0.7546771E-02  0.1219096E+00
         -2   -1    0    0    0  501 -0.00000000000E+00  0.00000000000E+00  0.56334140015E+02  0.56334140015E+02  0.00000000000E+00 0.  1.
          2   -1    0    0  501    0  0.00000000000E+00 -0.00000000000E+00 -0.66606528373E+03  0.66606528373E+03  0.00000000000E+00 0. -1.
         25    2    1    2    0    0  0.47416807551E+02 -0.51436422187E+02 -0.51370011950E+02  0.15217457591E+03  0.12499665699E+03 0.  0.
         23    2    1    2    0    0 -0.47416807551E+02  0.51436422187E+02 -0.55836113176E+03  0.57022484783E+03  0.92169216441E+02 0.  0.
          5    1    3    3  502    0  0.13109286431E+02 -0.76061419126E+02 -0.71355363161E+02  0.10521820528E+03  0.47000000000E+01 0.  1.
         -5    1    4    4    0  503  0.21336521591E+01  0.59496918221E+02 -0.21342499279E+03  0.22162299812E+03  0.47000000000E+01 0.  1.
          5    1    4    4  503    0 -0.49550459710E+02 -0.80604960333E+01 -0.34493613897E+03  0.34860184971E+03  0.47000000000E+01 0. -1.
         -5    1    3    3    0  502  0.34307521120E+02  0.24624996939E+02  0.19985351211E+02  0.46956370629E+02  0.47000000000E+01 0.  1.
<mgrwt>
<rscale>  0 0.13579908E+03</rscale>
<asrwt>0</asrwt>
<pdfrwt beam="1">  1        2 0.10247158E+00 0.14324184E+03</pdfrwt>
<pdfrwt beam="2">  1       -2 0.86667911E-02 0.14324184E+03</pdfrwt>
<totfact> 0.36252221E+03</totfact>
</mgrwt>
</event>
<event>
 8    1  0.3407580E-004  0.4407304E+03  0.7546771E-02  0.1031165E+00
          1   -1    0    0  501    0  0.00000000000E+00  0.00000000000E+00  0.27360023730E+04  0.27360023730E+04  0.00000000000E+00 0. -1.
         -1   -1    0    0    0  501 -0.00000000000E+00 -0.00000000000E+00 -0.70084530029E+02  0.70084530029E+02  0.00000000000E+00 0.  1.
         25    2    1    2    0    0  0.20641010868E+03 -0.36879956284E+03  0.12368288395E+04  0.13130075730E+04  0.12500023166E+03 0.  0.
         23    2    1    2    0    0 -0.20641010868E+03  0.36879956284E+03  0.14290890035E+04  0.14930793301E+04  0.91500030201E+02 0.  0.
          5    1    4    4  502    0 -0.29902173781E+02  0.94860331361E+02  0.46002066086E+03  0.47067368832E+03  0.47000000000E+01 0. -1.
         -5    1    3    3    0  503  0.16254504764E+03 -0.17561259078E+03  0.59675543232E+03  0.64296174890E+03  0.47000000000E+01 0. -1.
          5    1    3    3  503    0  0.43865061042E+02 -0.19318697206E+03  0.64007340718E+03  0.67004582405E+03  0.47000000000E+01 0. -1.
         -5    1    4    4    0  502 -0.17650793490E+03  0.27393923148E+03  0.96906834267E+03  0.10224056418E+04  0.47000000000E+01 0.  1.
<mgrwt>
<rscale>  0 0.43863898E+03</rscale>
<asrwt>0</asrwt>
<pdfrwt beam="1">  1        1 0.42092336E+00 0.44073043E+03</pdfrwt>
<pdfrwt beam="2">  1       -1 0.10782238E-01 0.44073043E+03</pdfrwt>
<totfact> 0.57125278E+01</totfact>
</mgrwt>
</event>
<event>
 8    1  0.3407580E-004  0.1611774E+03  0.7546771E-02  0.1194082E+00
          1   -1    0    0  501    0  0.00000000000E+00  0.00000000000E+00  0.50895572974E+02  0.50895572974E+02  0.00000000000E+00 0.  1.
         -1   -1    0    0    0  501 -0.00000000000E+00 -0.00000000000E+00 -0.44485309864E+03  0.44485309864E+03  0.00000000000E+00 0. -1.
         25    2    1    2    0    0 -0.99666384581E+02  0.20475989109E+02 -0.19388448926E+03  0.25212961224E+03  0.12500196739E+03 0.  0.
         23    2    1    2    0    0  0.99666384581E+02 -0.20475989109E+02 -0.20007303641E+03  0.24361905937E+03  0.94701488083E+02 0.  0.
          5    1    4    4  502    0  0.21866759718E+02 -0.34715244115E+02 -0.13473605503E+03  0.14092266631E+03  0.47000000000E+01 0. -1.
         -5    1    3    3    0  503  0.27095322785E+02  0.54090781396E+01 -0.64427062677E+02  0.70259170564E+02  0.47000000000E+01 0. -1.
          5    1    3    3  503    0 -0.12676170737E+03  0.15066910970E+02 -0.12945742658E+03  0.18187044168E+03  0.47000000000E+01 0. -1.
         -5    1    4    4    0  502  0.77799624863E+02  0.14239255006E+02 -0.65336981377E+02  0.10269639306E+03  0.47000000000E+01 0.  1.
<mgrwt>
<rscale>  0 0.15532159E+03</rscale>
<asrwt>0</asrwt>
<pdfrwt beam="1">  1        1 0.78300883E-02 0.16117737E+03</pdfrwt>
<pdfrwt beam="2">  1       -1 0.68438937E-01 0.16117737E+03</pdfrwt>
<totfact> 0.19670069E+03</totfact>
</mgrwt>
</event>
<event>
 8    1  0.3407580E-004  0.1968495E+03  0.7546771E-02  0.1156432E+00
          1   -1    0    0  501    0  0.00000000000E+00  0.00000000000E+00  0.91791293941E+03  0.91791293941E+03  0.00000000000E+00 0. -1.
         -1   -1    0    0    0  501 -0.00000000000E+00 -0.00000000000E+00 -0.40976073207E+02  0.40976073207E+02  0.00000000000E+00 0.  1.
         25    2    1    2    0    0 -0.78006941251E+02 -0.13054064633E+03  0.57547528242E+03  0.60821175530E+03  0.12499518146E+03 0.  0.
         23    2    1    2    0    0  0.78006941251E+02  0.13054064633E+03  0.30146158379E+03  0.35067725731E+03  0.94707492155E+02 0.  0.
          5    1    3    3  502    0 -0.99963589598E+02 -0.68921460922E+02  0.27478669818E+03  0.30045416708E+03  0.47000000000E+01 0. -1.
         -5    1    3    3    0  502  0.21956648346E+02 -0.61619185408E+02  0.30068858424E+03  0.30775758822E+03  0.47000000000E+01 0. -1.
          5    1    4    4  503    0  0.43284751851E+02  0.31902067780E+02  0.19106782643E+03  0.19854550100E+03  0.47000000000E+01 0. -1.
         -5    1    4    4    0  503  0.34722189401E+02  0.98638578550E+02  0.11039375736E+03  0.15213175631E+03  0.47000000000E+01 0.  1.
<mgrwt>
<rscale>  0 0.19226765E+03</rscale>
<asrwt>0</asrwt>
<pdfrwt beam="1">  1        1 0.14121736E+00 0.19684953E+03</pdfrwt>
<pdfrwt beam="2">  1       -1 0.63040119E-02 0.19684953E+03</pdfrwt>
<totfact> 0.22798201E+03</totfact>
</mgrwt>
</event>
<event>
 8    1  0.3407580E-004  0.1454096E+03  0.7546771E-02  0.1215978E+00
         -1   -1    0    0    0  501 -0.00000000000E+00  0.00000000000E+00  0.19841351710E+03  0.19841351710E+03  0.00000000000E+00 0.  1.
          1   -1    0    0  501    0  0.00000000000E+00 -0.00000000000E+00 -0.10603371648E+03  0.10603371648E+03  0.00000000000E+00 0. -1.
         25    2    1    2    0    0  0.11719265956E+02 -0.73365831538E+02 -0.13206963102E+02  0.14600809904E+03  0.12499621866E+03 0.  0.
         23    2    1    2    0    0 -0.11719265956E+02  0.73365831538E+02  0.10558676373E+03  0.15843913454E+03  0.91839578869E+02 0.  0.
          5    1    3    3  502    0 -0.51359848626E+02 -0.59859902614E+02  0.38822211824E+01  0.79108808821E+02  0.47000000000E+01 0.  1.
         -5    1    4    4    0  503 -0.46520464895E+02  0.59580781445E+02  0.89982134766E+02  0.11761334001E+03  0.47000000000E+01 0.  1.
          5    1    4    4  503    0  0.34801198939E+02  0.13785050093E+02  0.15604628963E+02  0.40825794527E+02  0.47000000000E+01 0. -1.
         -5    1    3    3    0  502  0.63079114582E+02 -0.13505928925E+02 -0.17089184284E+02  0.66899290221E+02  0.47000000000E+01 0.  1.
<mgrwt>
<rscale>  0 0.13804911E+03</rscale>
<asrwt>0</asrwt>
<pdfrwt beam="1">  1        1 0.16312879E-01 0.14540956E+03</pdfrwt>
<pdfrwt beam="2">  1       -1 0.30525157E-01 0.14540956E+03</pdfrwt>
<totfact> 0.31996182E+03</totfact>
</mgrwt>
</event>
<event>
 8    1  0.3407580E-004  0.1695370E+03  0.7546771E-02  0.1185314E+00
          2   -1    0    0  501    0  0.00000000000E+00  0.00000000000E+00  0.68362291845E+03  0.68362291845E+03  0.00000000000E+00 0. -1.
         -2   -1    0    0    0  501 -0.00000000000E+00 -0.00000000000E+00 -0.45945413435E+02  0.45945413435E+02  0.00000000000E+00 0.  1.
         25    2    1    2    0    0 -0.74980380428E+02 -0.86575806717E+02  0.50624418655E+03  0.53387823731E+03  0.12500147236E+03 0.  0.
         23    2    1    2    0    0  0.74980380428E+02  0.86575806717E+02  0.13143331846E+03  0.19569009458E+03  0.88895827556E+02 0.  0.
          5    1    3    3  502    0 -0.71980355913E+02  0.55662613510E+01  0.16104305119E+03  0.17654775343E+03  0.47000000000E+01 0. -1.
         -5    1    3    3    0  502 -0.30000245155E+01 -0.92142068068E+02  0.34520113536E+03  0.35733048388E+03  0.47000000000E+01 0. -1.
          5    1    4    4  503    0  0.56245737927E+02  0.36529680916E+02  0.12464144398E+03  0.14161772551E+03  0.47000000000E+01 0. -1.
         -5    1    4    4    0  503  0.18734642501E+02  0.50046125802E+02  0.67918744842E+01  0.54072369066E+02  0.47000000000E+01 0.  1.
<mgrwt>
<rscale>  0 0.16303363E+03</rscale>
<asrwt>0</asrwt>
<pdfrwt beam="1">  1        2 0.10517275E+00 0.16953700E+03</pdfrwt>
<pdfrwt beam="2">  1       -2 0.70685257E-02 0.16953700E+03</pdfrwt>
<totfact> 0.48512461E+03</totfact>
</mgrwt>
</event>
<event>
 8    1  0.3407580E-004  0.1962172E+03  0.7546771E-02  0.1157461E+00
          2   -1    0    0  501    0  0.00000000000E+00  0.00000000000E+00  0.18291278646E+04  0.18291278646E+04  0.00000000000E+00 0.  1.
         -2   -1    0    0    0  501 -0.00000000000E+00 -0.00000000000E+00 -0.21522148834E+02  0.21522148834E+02  0.00000000000E+00 0. -1.
         25    2    1    2    0    0  0.13899869205E+03  0.59629799552E+02  0.12624525389E+04  0.12776101211E+04  0.12499943661E+03 0.  0.
         23    2    1    2    0    0 -0.13899869205E+03 -0.59629799552E+02  0.54515317694E+03  0.57303989241E+03  0.91139358054E+02 0.  0.
          5    1    3    3  502    0  0.97515789157E+02  0.94945131734E+02  0.10210555277E+04  0.10300972710E+04  0.47000000000E+01 0.  1.
         -5    1    4    4    0  503 -0.17047198881E+02 -0.28123634229E+02  0.24863282102E+03  0.25084241165E+03  0.47000000000E+01 0.  1.
          5    1    4    4  503    0 -0.12195149317E+03 -0.31506165322E+02  0.29652035591E+03  0.32219748076E+03  0.47000000000E+01 0. -1.
         -5    1    3    3    0  502  0.41482902893E+02 -0.35315332183E+02  0.24139701118E+03  0.24751285003E+03  0.47000000000E+01 0.  1.
<mgrwt>
<rscale>  0 0.19111385E+03</rscale>
<asrwt>0</asrwt>
<pdfrwt beam="1">  1        2 0.28140417E+00 0.19621725E+03</pdfrwt>
<pdfrwt beam="2">  1       -2 0.33111013E-02 0.19621725E+03</pdfrwt>
<totfact> 0.33361752E+03</totfact>
</mgrwt>
</event>
<event>
 8    1  0.3407580E-004  0.1399106E+03  0.7546771E-02  0.1224706E+00
          1   -1    0    0  501    0  0.00000000000E+00  0.00000000000E+00  0.22789633562E+02  0.22789633562E+02  0.00000000000E+00 0. -1.
         -1   -1    0    0    0  501 -0.00000000000E+00 -0.00000000000E+00 -0.76881196674E+03  0.76881196674E+03  0.00000000000E+00 0.  1.
         25    2    1    2    0    0  0.92373435611E+01 -0.62174003517E+02 -0.28432613389E+03  0.31688533471E+03  0.12499611880E+03 0.  0.
         23    2    1    2    0    0 -0.92373435611E+01  0.62174003517E+02 -0.46169619929E+03  0.47471626559E+03  0.90781149721E+02 0.  0.
          5    1    3    3  502    0 -0.56081130422E+02 -0.32981543362E+02 -0.10323129793E+03  0.12211333369E+03  0.47000000000E+01 0.  1.
         -5    1    3    3    0  502  0.65318473983E+02 -0.29192460155E+02 -0.18109483595E+03  0.19477200102E+03  0.47000000000E+01 0.  1.
          5    1    4    4  503    0 -0.48823433874E+02  0.26986039118E+02 -0.27243636541E+03  0.27812881404E+03  0.47000000000E+01 0. -1.
         -5    1    4    4    0  503  0.39586090313E+02  0.35187964399E+02 -0.18925983389E+03  0.19658745155E+03  0.47000000000E+01 0.  1.
<mgrwt>
<rscale>  0 0.13187058E+03</rscale>
<asrwt>0</asrwt>
<pdfrwt beam="1">  1        1 0.35060979E-02 0.13991056E+03</pdfrwt>
<pdfrwt beam="2">  1       -1 0.11827875E+00 0.13991056E+03</pdfrwt>
<totfact> 0.18232284E+03</totfact>
</mgrwt>
</event>
<event>
 8    1  0.3407580E-004  0.1325291E+03  0.7546771E-02  0.1236781E+00
         -2   -1    0    0    0  501 -0.00000000000E+00  0.00000000000E+00  0.28884899370E+02  0.28884899370E+02  0.00000000000E+00 0.  1.
          2   -1    0    0  501    0  0.00000000000E+00 -0.00000000000E+00 -0.55241343584E+03  0.55241343584E+03  0.00000000000E+00 0. -1.
         25    2    1    2    0    0  0.26524005070E+02 -0.35179717536E+02 -0.40100135613E+03  0.42233405133E+03  0.12499131141E+03 0.  0.
         23    2    1    2    0    0 -0.26524005070E+02  0.35179717536E+02 -0.12252718035E+03  0.15896428388E+03  0.91189902157E+02 0.  0.
          5    1    4    4  502    0  0.33442518205E+02  0.15826282610E+02 -0.55318826682E+02  0.66716833188E+02  0.47000000000E+01 0. -1.
         -5    1    3    3    0  503  0.13281716662E+02  0.46717741438E+02 -0.16886780585E+03  0.17577649790E+03  0.47000000000E+01 0. -1.
          5    1    3    3  503    0  0.13242288408E+02 -0.81897458974E+02 -0.23213355028E+03  0.24655755343E+03  0.47000000000E+01 0. -1.
         -5    1    4    4    0  502 -0.59966523275E+02  0.19353434925E+02 -0.67208353666E+02  0.92247450694E+02  0.47000000000E+01 0.  1.
<mgrwt>
<rscale>  0 0.12391092E+03</rscale>
<asrwt>0</asrwt>
<pdfrwt beam="1">  1        2 0.84986675E-01 0.13252910E+03</pdfrwt>
<pdfrwt beam="2">  1       -2 0.44438311E-02 0.13252910E+03</pdfrwt>
<totfact> 0.12347699E+04</totfact>
</mgrwt>
</event>
<event>
 8    1  0.3407580E-004  0.1460868E+03  0.7546771E-02  0.1215102E+00
         -1   -1    0    0    0  501 -0.00000000000E+00  0.00000000000E+00  0.18148501420E+03  0.18148501420E+03  0.00000000000E+00 0.  1.
          1   -1    0    0  501    0  0.00000000000E+00 -0.00000000000E+00 -0.11359635309E+03  0.11359635309E+03  0.00000000000E+00 0. -1.
         25    2    1    2    0    0  0.19745605814E+02  0.72993236933E+02  0.93806761074E+02  0.17361178884E+03  0.12499377270E+03 0.  0.
         23    2    1    2    0    0 -0.19745605814E+02 -0.72993236933E+02 -0.25918099964E+02  0.12146957845E+03  0.91461516476E+02 0.  0.
          5    1    3    3  502    0  0.69575987322E+02  0.25618597316E+02  0.65730859121E+02  0.99195596581E+02  0.47000000000E+01 0. -1.
         -5    1    3    3    0  502 -0.49830381507E+02  0.47374639617E+02  0.28075901953E+02  0.74416192259E+02  0.47000000000E+01 0. -1.
          5    1    4    4  503    0 -0.20392305819E+00 -0.36068520619E+02 -0.58085275665E+02  0.68534436696E+02  0.47000000000E+01 0. -1.
         -5    1    4    4    0  503 -0.19541682756E+02 -0.36924716314E+02  0.32167175701E+02  0.52935141753E+02  0.47000000000E+01 0.  1.
<mgrwt>
<rscale>  0 0.13869011E+03</rscale>
<asrwt>0</asrwt>
<pdfrwt beam="1">  1        1 0.17476362E-01 0.14608677E+03</pdfrwt>
<pdfrwt beam="2">  1       -1 0.27920771E-01 0.14608677E+03</pdfrwt>
<totfact> 0.34011858E+03</totfact>
</mgrwt>
</event>
<event>
 8    1  0.3407580E-004  0.1552798E+03  0.7546771E-02  0.1202875E+00
         -2   -1    0    0    0  501 -0.00000000000E+00  0.00000000000E+00  0.12731640580E+03  0.12731640580E+03  0.00000000000E+00 0.  1.
          2   -1    0    0  501    0  0.00000000000E+00 -0.00000000000E+00 -0.17016483846E+03  0.17016483846E+03  0.00000000000E+00 0. -1.
         25    2    1    2    0    0 -0.47767164413E+02 -0.78809746974E+02  0.16329994755E+02  0.15613613330E+03  0.12497657852E+03 0.  0.
         23    2    1    2    0    0  0.47767164413E+02  0.78809746974E+02 -0.59178427417E+02  0.14134511096E+03  0.89351418048E+02 0.  0.
          5    1    4    4  502    0  0.59843782388E+02  0.51641135659E+02 -0.73474595686E+02  0.10802171723E+03  0.47000000000E+01 0. -1.
         -5    1    4    4    0  502 -0.12076617974E+02  0.27168611315E+02  0.14296168269E+02  0.33323393729E+02  0.47000000000E+01 0.  1.
          5    1    3    3  503    0  0.20188702252E+02 -0.73200619291E+02 -0.20093835697E+02  0.78687779205E+02  0.47000000000E+01 0.  1.
         -5    1    3    3    0  503 -0.67955866665E+02 -0.56091276828E+01  0.36423830451E+02  0.77448354097E+02  0.47000000000E+01 0.  1.
<mgrwt>
<rscale>  0 0.14806210E+03</rscale>
<asrwt>0</asrwt>
<pdfrwt beam="1">  1        2 0.26179206E-01 0.15527982E+03</pdfrwt>
<pdfrwt beam="2">  1       -2 0.19587139E-01 0.15527982E+03</pdfrwt>
<totfact> 0.42971088E+03</totfact>
</mgrwt>
</event>
<event>
 8    1  0.3407580E-004  0.2980944E+03  0.7546771E-02  0.1087866E+00
         -1   -1    0    0    0  501 -0.00000000000E+00  0.00000000000E+00  0.23798735754E+03  0.23798735754E+03  0.00000000000E+00 0.  1.
          1   -1    0    0  501    0  0.00000000000E+00 -0.00000000000E+00 -0.39664073068E+03  0.39664073068E+03  0.00000000000E+00 0. -1.
         25    2    1    2    0    0 -0.14458840372E+03 -0.22875631691E+03  0.18924251810E+02  0.29869444189E+03  0.12499993317E+03 0.  0.
         23    2    1    2    0    0  0.14458840372E+03  0.22875631691E+03 -0.17757762496E+03  0.33593364633E+03  0.89901851135E+02 0.  0.
          5    1    4    4  502    0  0.52117823855E+02  0.15719226552E+03 -0.12552477129E+03  0.20785628234E+03  0.47000000000E+01 0. -1.
         -5    1    3    3    0  503 -0.62864870448E+02 -0.11120110410E+03 -0.53029492988E+02  0.13839037039E+03  0.47000000000E+01 0.  1.
          5    1    3    3  503    0 -0.81723533271E+02 -0.11755521281E+03  0.71953744797E+02  0.16030407150E+03  0.47000000000E+01 0.  1.
         -5    1    4    4    0  502  0.92470579864E+02  0.71564051390E+02 -0.52052853670E+02  0.12807736399E+03  0.47000000000E+01 0.  1.
<mgrwt>
<rscale>  0 0.29480740E+03</rscale>
<asrwt>0</asrwt>
<pdfrwt beam="1">  1        1 0.61021650E-01 0.29809435E+03</pdfrwt>
<pdfrwt beam="2">  1       -1 0.36613440E-01 0.29809435E+03</pdfrwt>
<totfact> 0.44454571E+02</totfact>
</mgrwt>
</event>
<event>
 8    1  0.3407580E-004  0.1480543E+03  0.7546771E-02  0.1212442E+00
         -2   -1    0    0    0  501 -0.00000000000E+00  0.00000000000E+00  0.13669468843E+02  0.13669468843E+02  0.00000000000E+00 0.  1.
          2   -1    0    0  501    0  0.00000000000E+00 -0.00000000000E+00 -0.15881840712E+04  0.15881840712E+04  0.00000000000E+00 0. -1.
         25    2    1    2    0    0 -0.78658544355E+02  0.10451084207E+02 -0.52652717760E+03  0.54694691907E+03  0.12499468697E+03 0.  0.
         23    2    1    2    0    0  0.78658544355E+02 -0.10451084207E+02 -0.10479874248E+04  0.10549066210E+04  0.90851223197E+02 0.  0.
          5    1    4    4  502    0  0.50632374985E+02  0.38641188322E+02 -0.54236403451E+03  0.54611135747E+03  0.47000000000E+01 0. -1.
         -5    1    3    3    0  503 -0.53732827759E+02 -0.54916510256E+02 -0.24427213180E+03  0.25611326450E+03  0.47000000000E+01 0.  1.
          5    1    3    3  503    0 -0.24925716596E+02  0.65367594463E+02 -0.28225504580E+03  0.29083365457E+03  0.47000000000E+01 0.  1.
         -5    1    4    4    0  502  0.28026169371E+02 -0.49092272529E+02 -0.50562339030E+03  0.50879526355E+03  0.47000000000E+01 0.  1.
<mgrwt>
<rscale>  0 0.14066136E+03</rscale>
<asrwt>0</asrwt>
<pdfrwt beam="1">  1        2 0.24433617E+00 0.14805426E+03</pdfrwt>
<pdfrwt beam="2">  1       -2 0.21029939E-02 0.14805426E+03</pdfrwt>
<totfact> 0.86289543E+03</totfact>
</mgrwt>
</event>
<event>
 8    1  0.3407580E-004  0.2560159E+03  0.7546771E-02  0.1111990E+00
          1   -1    0    0  501    0  0.00000000000E+00  0.00000000000E+00  0.29097641685E+03  0.29097641685E+03  0.00000000000E+00 0. -1.
         -1   -1    0    0    0  501 -0.00000000000E+00 -0.00000000000E+00 -0.25216873261E+03  0.25216873261E+03  0.00000000000E+00 0.  1.
         25    2    1    2    0    0 -0.30678071860E+02 -0.22131631186E+03 -0.88489713493E+02  0.27087739610E+03  0.12498832079E+03 0.  0.
         23    2    1    2    0    0  0.30678071860E+02  0.22131631186E+03  0.12729739773E+03  0.27226775336E+03  0.89459756672E+02 0.  0.
          5    1    4    4  502    0  0.41090582041E+02  0.14004622167E+03  0.12155569316E+03  0.18999804387E+03  0.47000000000E+01 0. -1.
         -5    1    3    3    0  503  0.32516027317E+02 -0.11394117445E+02 -0.99491632453E+00  0.34787897368E+02  0.47000000000E+01 0.  1.
          5    1    3    3  503    0 -0.63194099177E+02 -0.20992219442E+03 -0.87494797169E+02  0.23608949873E+03  0.47000000000E+01 0.  1.
         -5    1    4    4    0  502 -0.10412510181E+02  0.81270090197E+02  0.57417045714E+01  0.82269709494E+02  0.47000000000E+01 0.  1.
<mgrwt>
<rscale>  0 0.25209169E+03</rscale>
<asrwt>0</asrwt>
<pdfrwt beam="1">  1        1 0.44765603E-01 0.25601589E+03</pdfrwt>
<pdfrwt beam="2">  1       -1 0.38795190E-01 0.25601589E+03</pdfrwt>
<totfact> 0.59634231E+02</totfact>
</mgrwt>
</event>
<event>
 8    1  0.3407580E-004  0.2420089E+03  0.7546771E-02  0.1121659E+00
          3   -1    0    0  501    0  0.00000000000E+00  0.00000000000E+00  0.27266938365E+04  0.27266938365E+04  0.00000000000E+00 0.  1.
         -3   -1    0    0    0  501 -0.00000000000E+00 -0.00000000000E+00 -0.20997470359E+02  0.20997470359E+02  0.00000000000E+00 0. -1.
         25    2    1    2    0    0  0.14627632754E+03 -0.14678379415E+03  0.10845837952E+04  0.11112561955E+04  0.12500430793E+03 0.  0.
         23    2    1    2    0    0 -0.14627632754E+03  0.14678379415E+03  0.16211125709E+04  0.16364351113E+04  0.83496465803E+02 0.  0.
          5    1    4    4  502    0 -0.94849438035E+02  0.47014232542E+02  0.61409867007E+03  0.62317414945E+03  0.47000000000E+01 0. -1.
         -5    1    4    4    0  502 -0.51426889502E+02  0.99769561609E+02  0.10070139008E+04  0.10132609618E+04  0.47000000000E+01 0.  1.
          5    1    3    3  503    0  0.10114575154E+03 -0.21359033669E+02  0.36362739624E+03  0.37806566185E+03  0.47000000000E+01 0.  1.
         -5    1    3    3    0  503  0.45130575999E+02 -0.12542476048E+03  0.72095639897E+03  0.73319053366E+03  0.47000000000E+01 0.  1.
<mgrwt>
<rscale>  0 0.23721997E+03</rscale>
<asrwt>0</asrwt>
<pdfrwt beam="1">  1        3 0.41949108E+00 0.24200893E+03</pdfrwt>
<pdfrwt beam="2">  1       -3 0.32303822E-02 0.24200893E+03</pdfrwt>
<totfact> 0.12157304E+01</totfact>
</mgrwt>
</event>
<event>
 8    1  0.3407580E-004  0.1618225E+03  0.7546771E-02  0.1194000E+00
          1   -1    0    0  501    0  0.00000000000E+00  0.00000000000E+00  0.54100426594E+03  0.54100426594E+03  0.00000000000E+00 0. -1.
         -1   -1    0    0    0  501 -0.00000000000E+00 -0.00000000000E+00 -0.46464043249E+02  0.46464043249E+02  0.00000000000E+00 0.  1.
         25    2    1    2    0    0  0.52385495074E+01  0.10264297307E+03  0.36154165211E+03  0.39610464289E+03  0.12499399822E+03 0.  0.
         23    2    1    2    0    0 -0.52385495074E+01 -0.10264297307E+03  0.13299857059E+03  0.19136366630E+03  0.91479017698E+02 0.  0.
          5    1    3    3  502    0 -0.40338418652E+02  0.72305950969E+02  0.10529245465E+03  0.13402958469E+03  0.47000000000E+01 0.  1.
         -5    1    4    4    0  503 -0.19997149314E+02 -0.56963391712E+02  0.12860886060E+02  0.61904816987E+02  0.47000000000E+01 0.  1.
          5    1    4    4  503    0  0.14758599806E+02 -0.45679581362E+02  0.12013768453E+03  0.12945884931E+03  0.47000000000E+01 0. -1.
         -5    1    3    3    0  502  0.45576968159E+02  0.30337022104E+02  0.25624919746E+03  0.26207505821E+03  0.47000000000E+01 0.  1.
<mgrwt>
<rscale>  0 0.15539145E+03</rscale>
<asrwt>0</asrwt>
<pdfrwt beam="1">  1        1 0.83231421E-01 0.16182250E+03</pdfrwt>
<pdfrwt beam="2">  1       -1 0.71483147E-02 0.16182250E+03</pdfrwt>
<totfact> 0.40568456E+03</totfact>
</mgrwt>
</event>
<event>
 8    1  0.3407580E-004  0.1413833E+03  0.7546771E-02  0.1222354E+00
         -1   -1    0    0    0  501 -0.00000000000E+00  0.00000000000E+00  0.41819158992E+02  0.41819158992E+02  0.00000000000E+00 0.  1.
          1   -1    0    0  501    0  0.00000000000E+00 -0.00000000000E+00 -0.42697552897E+03  0.42697552897E+03  0.00000000000E+00 0. -1.
         25    2    1    2    0    0  0.64840895640E+02 -0.12657543191E+02 -0.13934845221E+03  0.19851256101E+03  0.12499876239E+03 0.  0.
         23    2    1    2    0    0 -0.64840895640E+02  0.12657543191E+02 -0.24580791777E+03  0.27028212695E+03  0.90919417960E+02 0.  0.
          5    1    4    4  502    0 -0.51771977808E+02 -0.16205849649E+02 -0.22634255943E+03  0.23280036826E+03  0.47000000000E+01 0. -1.
         -5    1    4    4    0  502 -0.13068917833E+02  0.28863392840E+02 -0.19465358338E+02  0.37481758694E+02  0.47000000000E+01 0.  1.
          5    1    3    3  503    0  0.57992592081E+02  0.37966033816E+02 -0.12849880899E+03  0.14607735749E+03  0.47000000000E+01 0.  1.
         -5    1    3    3    0  503  0.68483035593E+01 -0.50623577007E+02 -0.10849643221E+02  0.52435203524E+02  0.47000000000E+01 0.  1.
<mgrwt>
<rscale>  0 0.13349897E+03</rscale>
<asrwt>0</asrwt>
<pdfrwt beam="1">  1        1 0.65688538E-01 0.14138333E+03</pdfrwt>
<pdfrwt beam="2">  1       -1 0.64337172E-02 0.14138333E+03</pdfrwt>
<totfact> 0.64207810E+03</totfact>
</mgrwt>
</event>
<event>
 8    1  0.3407580E-004  0.1317743E+03  0.7546771E-02  0.1236782E+00
          3   -1    0    0  501    0  0.00000000000E+00  0.00000000000E+00  0.21802856826E+03  0.21802856826E+03  0.00000000000E+00 0. -1.
         -3   -1    0    0    0  501 -0.00000000000E+00 -0.00000000000E+00 -0.65170089898E+02  0.65170089898E+02  0.00000000000E+00 0.  1.
         25    2    1    2    0    0 -0.22600670319E+02  0.35051613933E+02  0.61157282884E+02  0.14527453088E+03  0.12500028054E+03 0.  0.
         23    2    1    2    0    0  0.22600670319E+02 -0.35051613933E+02  0.91701195476E+02  0.13792412727E+03  0.94204828402E+02 0.  0.
          5    1    4    4  502    0  0.52064001590E+02 -0.19046613641E+02  0.20881017197E+02  0.59426766966E+02  0.47000000000E+01 0. -1.
         -5    1    3    3    0  503 -0.73884742059E+02  0.24141615611E+02  0.46218651131E+02  0.90553997293E+02  0.47000000000E+01 0. -1.
          5    1    3    3  503    0  0.51284071740E+02  0.10909998322E+02  0.14938631753E+02  0.54720533589E+02  0.47000000000E+01 0. -1.
         -5    1    4    4    0  502 -0.29463331271E+02 -0.16005000292E+02  0.70820178279E+02  0.78497360308E+02  0.47000000000E+01 0.  1.
<mgrwt>
<rscale>  0 0.12391041E+03</rscale>
<asrwt>0</asrwt>
<pdfrwt beam="1">  1        3 0.33542856E-01 0.13177434E+03</pdfrwt>
<pdfrwt beam="2">  1       -3 0.10026168E-01 0.13177434E+03</pdfrwt>
<totfact> 0.14628676E+03</totfact>
</mgrwt>
</event>
<event>
 8    1  0.3407580E-004  0.1348566E+03  0.7546771E-02  0.1233543E+00
          2   -1    0    0  501    0  0.00000000000E+00  0.00000000000E+00  0.33220326254E+03  0.33220326254E+03  0.00000000000E+00 0.  1.
         -2   -1    0    0    0  501 -0.00000000000E+00 -0.00000000000E+00 -0.60324795777E+02  0.60324795777E+02  0.00000000000E+00 0. -1.
         25    2    1    2    0    0  0.31016815372E+02  0.39994385740E+02  0.25496875952E+03  0.28843606784E+03  0.12499881269E+03 0.  0.
         23    2    1    2    0    0 -0.31016815372E+02 -0.39994385740E+02  0.16909707239E+02  0.10409199047E+03  0.89373433161E+02 0.  0.
          5    1    3    3  502    0  0.55095797757E+02  0.36016688258E+02  0.52175897109E+02  0.84125875940E+02  0.47000000000E+01 0.  1.
         -5    1    4    4    0  503 -0.35450063079E+01  0.22202163856E+02  0.26717998293E+02  0.35234139444E+02  0.47000000000E+01 0.  1.
          5    1    4    4  503    0 -0.27471809064E+02 -0.62196549595E+02 -0.98082910533E+01  0.68857851028E+02  0.47000000000E+01 0. -1.
         -5    1    3    3    0  502 -0.24078982384E+02  0.39776974819E+01  0.20279286241E+03  0.20431019190E+03  0.47000000000E+01 0.  1.
<mgrwt>
<rscale>  0 0.12598144E+03</rscale>
<asrwt>0</asrwt>
<pdfrwt beam="1">  1        2 0.51108193E-01 0.13485658E+03</pdfrwt>
<pdfrwt beam="2">  1       -2 0.92807380E-02 0.13485658E+03</pdfrwt>
<totfact> 0.69719289E+03</totfact>
</mgrwt>
</event>
<event>
 8    1  0.3407580E-004  0.3318629E+03  0.7546771E-02  0.1071821E+00
         -2   -1    0    0    0  501 -0.00000000000E+00  0.00000000000E+00  0.80243080340E+02  0.80243080340E+02  0.00000000000E+00 0.  1.
          2   -1    0    0  501    0  0.00000000000E+00 -0.00000000000E+00 -0.19608587610E+04  0.19608587610E+04  0.00000000000E+00 0. -1.
         25    2    1    2    0    0  0.38181479803E+02 -0.30504310468E+03 -0.36888798982E+03  0.49619683841E+03  0.12499532911E+03 0.  0.
         23    2    1    2    0    0 -0.38181479803E+02  0.30504310468E+03 -0.15117276909E+04  0.15449050030E+04  0.83076685739E+02 0.  0.
          5    1    3    3  502    0 -0.37194993370E+02 -0.34547434596E+02 -0.59511817480E+02  0.78362868686E+02  0.47000000000E+01 0.  1.
         -5    1    4    4    0  503 -0.55947407027E+02  0.12365964844E+03 -0.68039572812E+03  0.69381716456E+03  0.47000000000E+01 0.  1.
          5    1    4    4  503    0  0.17765927224E+02  0.18138345625E+03 -0.83133196275E+03  0.85108783839E+03  0.47000000000E+01 0. -1.
         -5    1    3    3    0  502  0.75376473172E+02 -0.27049567009E+03 -0.30937617234E+03  0.41783396973E+03  0.47000000000E+01 0.  1.
<mgrwt>
<rscale>  0 0.32845777E+03</rscale>
<asrwt>0</asrwt>
<pdfrwt beam="1">  1        2 0.30167059E+00 0.33186285E+03</pdfrwt>
<pdfrwt beam="2">  1       -2 0.12345089E-01 0.33186285E+03</pdfrwt>
<totfact> 0.36489958E+02</totfact>
</mgrwt>
</event>
<event>
 8    1  0.3407580E-004  0.1307148E+03  0.7546771E-02  0.1239627E+00
         -1   -1    0    0    0  501 -0.00000000000E+00  0.00000000000E+00  0.38641914606E+03  0.38641914606E+03  0.00000000000E+00 0.  1.
          1   -1    0    0  501    0  0.00000000000E+00 -0.00000000000E+00 -0.38654820709E+02  0.38654820709E+02  0.00000000000E+00 0. -1.
         25    2    1    2    0    0  0.32922697075E+02  0.19563965589E+02  0.12414004141E+03  0.18026951523E+03  0.12497878023E+03 0.  0.
         23    2    1    2    0    0 -0.32922697075E+02 -0.19563965589E+02  0.22362428394E+03  0.24480445154E+03  0.91949694902E+02 0.  0.
          5    1    3    3  502    0 -0.41579692924E+02 -0.92012681416E+01  0.15956444915E+02  0.45719058755E+02  0.47000000000E+01 0.  1.
         -5    1    3    3    0  502  0.74502389999E+02  0.28765233731E+02  0.10818359650E+03  0.13455045648E+03  0.47000000000E+01 0.  1.
          5    1    4    4  503    0  0.19471475843E+02 -0.34765744822E+02  0.59313782815E+02  0.71610126493E+02  0.47000000000E+01 0. -1.
         -5    1    4    4    0  503 -0.52394172918E+02  0.15201779233E+02  0.16431050113E+03  0.17319432505E+03  0.47000000000E+01 0.  1.
<mgrwt>
<rscale>  0 0.12212796E+03</rscale>
<asrwt>0</asrwt>
<pdfrwt beam="1">  1        1 0.59468957E-02 0.13071476E+03</pdfrwt>
<pdfrwt beam="2">  1       -1 0.59449097E-01 0.13071476E+03</pdfrwt>
<totfact> 0.37064455E+03</totfact>
</mgrwt>
</event>
<event>
 8    1  0.3407580E-004  0.1277252E+03  0.7546771E-02  0.1244725E+00
         -2   -1    0    0    0  501 -0.00000000000E+00  0.00000000000E+00  0.88546997415E+02  0.88546997415E+02  0.00000000000E+00 0.  1.
          2   -1    0    0  501    0  0.00000000000E+00 -0.00000000000E+00 -0.16916596201E+03  0.16916596201E+03  0.00000000000E+00 0. -1.
         25    2    1    2    0    0  0.12958036857E+02 -0.22825730141E+02 -0.96540228943E+02  0.16010537539E+03  0.12499916299E+03 0.  0.
         23    2    1    2    0    0 -0.12958036857E+02  0.22825730141E+02  0.15921264353E+02  0.97607584034E+02  0.92654352984E+02 0.  0.
          5    1    4    4  502    0 -0.12226569915E+02 -0.34297481017E+02 -0.39831696408E+01  0.36929146435E+02  0.47000000000E+01 0. -1.
         -5    1    3    3    0  503 -0.45910362230E+02 -0.44998982881E+02 -0.44464340363E+02  0.78306049475E+02  0.47000000000E+01 0.  1.
          5    1    3    3  503    0  0.58868399087E+02  0.22173252741E+02 -0.52075888580E+02  0.81799325911E+02  0.47000000000E+01 0.  1.
         -5    1    4    4    0  502 -0.73146694151E+00  0.57123211158E+02  0.19904433993E+02  0.60678437599E+02  0.47000000000E+01 0.  1.
<mgrwt>
<rscale>  0 0.11901845E+03</rscale>
<asrwt>0</asrwt>
<pdfrwt beam="1">  1        2 0.26025533E-01 0.12772516E+03</pdfrwt>
<pdfrwt beam="2">  1       -2 0.13622615E-01 0.12772516E+03</pdfrwt>
<totfact> 0.77803990E+03</totfact>
</mgrwt>
</event>
<event>
 8    1  0.3407580E-004  0.1328138E+03  0.7546771E-02  0.1236062E+00
         -3   -1    0    0    0  501 -0.00000000000E+00  0.00000000000E+00  0.41294868846E+02  0.41294868846E+02  0.00000000000E+00 0.  1.
          3   -1    0    0  501    0  0.00000000000E+00 -0.00000000000E+00 -0.33528225479E+03  0.33528225479E+03  0.00000000000E+00 0. -1.
         25    2    1    2    0    0 -0.36160024315E+02 -0.26577065271E+02 -0.17707635416E+03  0.22134937120E+03  0.12500248466E+03 0.  0.
         23    2    1    2    0    0  0.36160024315E+02  0.26577065271E+02 -0.11691103179E+03  0.15522775244E+03  0.91725558143E+02 0.  0.
          5    1    3    3  502    0 -0.27079501865E+02 -0.76599354672E+02 -0.11680179448E+03  0.14235697999E+03  0.47000000000E+01 0.  1.
         -5    1    4    4    0  503 -0.22711794082E+02  0.17429449323E+02 -0.65779218077E+01  0.29748451211E+02  0.47000000000E+01 0.  1.
          5    1    4    4  503    0  0.58871818397E+02  0.91476159481E+01 -0.11033310998E+03  0.12547930123E+03  0.47000000000E+01 0. -1.
         -5    1    3    3    0  502 -0.90805224500E+01  0.50022289401E+02 -0.60274559680E+02  0.78992391212E+02  0.47000000000E+01 0.  1.
<mgrwt>
<rscale>  0 0.12436689E+03</rscale>
<asrwt>0</asrwt>
<pdfrwt beam="1">  1        3 0.51581886E-01 0.13281381E+03</pdfrwt>
<pdfrwt beam="2">  1       -3 0.63530566E-02 0.13281381E+03</pdfrwt>
<totfact> 0.13362313E+03</totfact>
</mgrwt>
</event>
<event>
 8    1  0.3407580E-004  0.1310880E+03  0.7546771E-02  0.1238182E+00
          2   -1    0    0  501    0  0.00000000000E+00  0.00000000000E+00  0.27628497814E+02  0.27628497814E+02  0.00000000000E+00 0. -1.
         -2   -1    0    0    0  501 -0.00000000000E+00 -0.00000000000E+00 -0.50014112796E+03  0.50014112796E+03  0.00000000000E+00 0.  1.
         25    2    1    2    0    0 -0.22412315077E+02  0.32519476788E+02 -0.30209734409E+03  0.32931273990E+03  0.12499698843E+03 0.  0.
         23    2    1    2    0    0  0.22412315077E+02 -0.32519476788E+02 -0.17041528606E+03  0.19845688588E+03  0.93722663171E+02 0.  0.
          5    1    4    4  502    0 -0.30901064010E+02 -0.17154246099E+02 -0.27345491553E+02  0.44933393199E+02  0.47000000000E+01 0. -1.
         -5    1    3    3    0  503 -0.72643243566E+02  0.74421511466E+01 -0.14498377183E+03  0.16240323440E+03  0.47000000000E+01 0. -1.
          5    1    3    3  503    0  0.50230928489E+02  0.25077325641E+02 -0.15711357225E+03  0.16690950550E+03  0.47000000000E+01 0. -1.
         -5    1    4    4    0  502  0.53313379087E+02 -0.15365230689E+02 -0.14306979451E+03  0.15352349268E+03  0.47000000000E+01 0.  1.
<mgrwt>
<rscale>  0 0.12302890E+03</rscale>
<asrwt>0</asrwt>
<pdfrwt beam="1">  1        2 0.42505386E-02 0.13108804E+03</pdfrwt>
<pdfrwt beam="2">  1       -2 0.76944781E-01 0.13108804E+03</pdfrwt>
<totfact> 0.28896278E+03</totfact>
</mgrwt>
</event>
<event>
 8    1  0.3407580E-004  0.1321658E+03  0.7546771E-02  0.1238187E+00
         -1   -1    0    0    0  501 -0.00000000000E+00  0.00000000000E+00  0.11183884957E+02  0.11183884957E+02  0.00000000000E+00 0.  1.
          1   -1    0    0  501    0  0.00000000000E+00 -0.00000000000E+00 -0.12281106919E+04  0.12281106919E+04  0.00000000000E+00 0. -1.
         25    2    1    2    0    0 -0.40146406937E+02  0.15220400326E+02 -0.59501766774E+03  0.60951934094E+03  0.12499762990E+03 0.  0.
         23    2    1    2    0    0  0.40146406937E+02 -0.15220400326E+02 -0.62190913924E+03  0.62977523596E+03  0.89456558043E+02 0.  0.
          5    1    4    4  502    0  0.11804140370E+02 -0.47516877625E+02 -0.44282612991E+03  0.44554939425E+03  0.47000000000E+01 0. -1.
         -5    1    3    3    0  503 -0.47984659063E+02  0.59461682963E+02 -0.47787260146E+03  0.48396542487E+03  0.47000000000E+01 0. -1.
          5    1    3    3  503    0  0.78382521259E+01 -0.44241282637E+02 -0.11714506628E+03  0.12555391607E+03  0.47000000000E+01 0. -1.
         -5    1    4    4    0  502  0.28342266567E+02  0.32296477299E+02 -0.17908300934E+03  0.18422584171E+03  0.47000000000E+01 0.  1.
<mgrwt>
<rscale>  0 0.12302578E+03</rscale>
<asrwt>0</asrwt>
<pdfrwt beam="1">  1        1 0.18894008E+00 0.13216581E+03</pdfrwt>
<pdfrwt beam="2">  1       -1 0.17205979E-02 0.13216581E+03</pdfrwt>
<totfact> 0.90605695E+03</totfact>
</mgrwt>
</event>
<event>
 8    1  0.3407580E-004  0.1842455E+03  0.7546771E-02  0.1169062E+00
         -1   -1    0    0    0  501 -0.00000000000E+00  0.00000000000E+00  0.29839308340E+02  0.29839308340E+02  0.00000000000E+00 0.  1.
          1   -1    0    0  501    0  0.00000000000E+00 -0.00000000000E+00 -0.10113196832E+04  0.10113196832E+04  0.00000000000E+00 0. -1.
         25    2    1    2    0    0 -0.13510779164E+03  0.82447356232E+01 -0.53436633157E+03  0.56523780989E+03  0.12499725752E+03 0.  0.
         23    2    1    2    0    0  0.13510779164E+03 -0.82447356232E+01 -0.44711404328E+03  0.47592118164E+03  0.90928061708E+02 0.  0.
          5    1    4    4  502    0  0.35253771759E+02  0.17641968778E+02 -0.25256203339E+03  0.25566332979E+03  0.47000000000E+01 0. -1.
         -5    1    4    4    0  502  0.99854019882E+02 -0.25886704401E+02 -0.19455200989E+03  0.22025785185E+03  0.47000000000E+01 0.  1.
          5    1    3    3  503    0 -0.12532031603E+03 -0.24803610373E+02 -0.50094051573E+03  0.51699505897E+03  0.47000000000E+01 0. -1.
         -5    1    3    3    0  503 -0.97874756124E+01  0.33048345997E+02 -0.33425815833E+02  0.48242750917E+02  0.47000000000E+01 0. -1.
<mgrwt>
<rscale>  0 0.17870532E+03</rscale>
<asrwt>0</asrwt>
<pdfrwt beam="1">  1        1 0.15558766E+00 0.18424550E+03</pdfrwt>
<pdfrwt beam="2">  1       -1 0.45906623E-02 0.18424550E+03</pdfrwt>
<totfact> 0.31120039E+03</totfact>
</mgrwt>
</event>
<event>
 8    1  0.3407580E-004  0.1263259E+03  0.7546771E-02  0.1248817E+00
         -2   -1    0    0    0  501 -0.00000000000E+00  0.00000000000E+00  0.11965552961E+02  0.11965552961E+02  0.00000000000E+00 0.  1.
          2   -1    0    0  501    0  0.00000000000E+00 -0.00000000000E+00 -0.99406776675E+03  0.99406776675E+03  0.00000000000E+00 0. -1.
         25    2    1    2    0    0 -0.91179741138E+01 -0.15794429665E+02 -0.55278424563E+03  0.56703497548E+03  0.12500255890E+03 0.  0.
         23    2    1    2    0    0  0.91179741138E+01  0.15794429665E+02 -0.42931796815E+03  0.43899834423E+03  0.89850025044E+02 0.  0.
          5    1    4    4  502    0 -0.31262699915E+02 -0.39302419951E+01 -0.30615724755E+03  0.30781025557E+03  0.47000000000E+01 0. -1.
         -5    1    4    4    0  502  0.40380674028E+02  0.19724671661E+02 -0.12316072060E+03  0.13118808866E+03  0.47000000000E+01 0.  1.
          5    1    3    3  503    0 -0.33939009081E+01  0.53226891906E+02 -0.30708565857E+03  0.31171832202E+03  0.47000000000E+01 0. -1.
         -5    1    3    3    0  503 -0.57240732057E+01 -0.69021321571E+02 -0.24569858707E+03  0.25531665346E+03  0.47000000000E+01 0. -1.
<mgrwt>
<rscale>  0 0.11659788E+03</rscale>
<asrwt>0</asrwt>
<pdfrwt beam="1">  1        2 0.15293357E+00 0.12632593E+03</pdfrwt>
<pdfrwt beam="2">  1       -2 0.18408534E-02 0.12632593E+03</pdfrwt>
<totfact> 0.21899774E+04</totfact>
</mgrwt>
</event>
<event>
 8    1  0.3407580E-004  0.1972693E+03  0.7546771E-02  0.1156496E+00
         -2   -1    0    0    0  501 -0.00000000000E+00  0.00000000000E+00  0.21173023314E+02  0.21173023314E+02  0.00000000000E+00 0.  1.
          2   -1    0    0  501    0  0.00000000000E+00 -0.00000000000E+00 -0.17239142599E+04  0.17239142599E+04  0.00000000000E+00 0. -1.
         25    2    1    2    0    0  0.15103034882E+03  0.21871756932E+02 -0.72700747520E+03  0.75329611195E+03  0.12500649288E+03 0.  0.
         23    2    1    2    0    0 -0.15103034882E+03 -0.21871756932E+02 -0.97573376141E+03  0.99179117129E+03  0.91130753750E+02 0.  0.
          5    1    4    4  502    0 -0.97932893743E+02 -0.37037118324E+02 -0.81627709356E+03  0.82297811835E+03  0.47000000000E+01 0. -1.
         -5    1    3    3    0  503  0.25168169263E+02 -0.26784119228E+02 -0.46171358436E+02  0.59200592283E+02  0.47000000000E+01 0.  1.
          5    1    3    3  503    0  0.12586217955E+03  0.48655876160E+02 -0.68083611676E+03  0.69409551966E+03  0.47000000000E+01 0.  1.
         -5    1    4    4    0  502 -0.53097455074E+02  0.15165361391E+02 -0.15945666785E+03  0.16881305294E+03  0.47000000000E+01 0.  1.
<mgrwt>
<rscale>  0 0.19219586E+03</rscale>
<asrwt>0</asrwt>
<pdfrwt beam="1">  1        2 0.26521772E+00 0.19726927E+03</pdfrwt>
<pdfrwt beam="2">  1       -2 0.32573865E-02 0.19726927E+03</pdfrwt>
<totfact> 0.38766881E+03</totfact>
</mgrwt>
</event>
<event>
 8    1  0.3407580E-004  0.1556819E+03  0.7546771E-02  0.1201940E+00
         -2   -1    0    0    0  501 -0.00000000000E+00  0.00000000000E+00  0.89686650839E+02  0.89686650839E+02  0.00000000000E+00 0.  1.
          2   -1    0    0  501    0  0.00000000000E+00 -0.00000000000E+00 -0.24279592410E+03  0.24279592410E+03  0.00000000000E+00 0. -1.
         25    2    1    2    0    0  0.89535639109E+02 -0.24388515734E+02 -0.12464635250E+03  0.19943310808E+03  0.12500168414E+03 0.  0.
         23    2    1    2    0    0 -0.89535639109E+02  0.24388515734E+02 -0.28462920765E+02  0.13304946686E+03  0.90997760429E+02 0.  0.
          5    1    4    4  502    0 -0.36273340026E+02  0.49168375719E+02 -0.39752787122E+02  0.73045591595E+02  0.47000000000E+01 0. -1.
         -5    1    4    4    0  502 -0.53262299083E+02 -0.24779859985E+02  0.11289866357E+02  0.60003875265E+02  0.47000000000E+01 0.  1.
          5    1    3    3  503    0  0.80144954958E+02 -0.64169775137E+02 -0.12004724413E+03  0.15803292274E+03  0.47000000000E+01 0. -1.
         -5    1    3    3    0  503  0.93906841512E+01  0.39781259403E+02 -0.45991083655E+01  0.41400185341E+02  0.47000000000E+01 0. -1.
<mgrwt>
<rscale>  0 0.14881228E+03</rscale>
<asrwt>0</asrwt>
<pdfrwt beam="1">  1        2 0.37353218E-01 0.15568189E+03</pdfrwt>
<pdfrwt beam="2">  1       -2 0.13797947E-01 0.15568189E+03</pdfrwt>
<totfact> 0.52223712E+03</totfact>
</mgrwt>
</event>
<event>
 8    1  0.3407580E-004  0.1456771E+03  0.7546771E-02  0.1215811E+00
         -1   -1    0    0    0  501 -0.00000000000E+00  0.00000000000E+00  0.27815038548E+02  0.27815038548E+02  0.00000000000E+00 0.  1.
          1   -1    0    0  501    0  0.00000000000E+00 -0.00000000000E+00 -0.67887918964E+03  0.67887918964E+03  0.00000000000E+00 0. -1.
         25    2    1    2    0    0  0.66787105037E+02 -0.33695602142E+02 -0.45667286625E+03  0.47934530196E+03  0.12500360291E+03 0.  0.
         23    2    1    2    0    0 -0.66787105037E+02  0.33695602142E+02 -0.19439128484E+03  0.22734892622E+03  0.91124374512E+02 0.  0.
          5    1    3    3  502    0  0.28042057634E+02  0.43825127381E+02 -0.10713208345E+03  0.11919048658E+03  0.47000000000E+01 0. -1.
         -5    1    4    4    0  503 -0.51012081857E+02 -0.22429932652E+02 -0.67720279813E+02  0.87826309681E+02  0.47000000000E+01 0.  1.
          5    1    4    4  503    0 -0.15775023179E+02  0.56125534794E+02 -0.12667100503E+03  0.13952261654E+03  0.47000000000E+01 0. -1.
         -5    1    3    3    0  502  0.38745047403E+02 -0.77520729523E+02 -0.34954078280E+03  0.36015481538E+03  0.47000000000E+01 0. -1.
<mgrwt>
<rscale>  0 0.13817153E+03</rscale>
<asrwt>0</asrwt>
<pdfrwt beam="1">  1        1 0.10444294E+00 0.14567708E+03</pdfrwt>
<pdfrwt beam="2">  1       -1 0.42792372E-02 0.14567708E+03</pdfrwt>
<totfact> 0.63485408E+03</totfact>
</mgrwt>
</event>
<event>
 8    1  0.3407580E-004  0.1618927E+03  0.7546771E-02  0.1193965E+00
          1   -1    0    0  501    0  0.00000000000E+00  0.00000000000E+00  0.32862391760E+02  0.32862391760E+02  0.00000000000E+00 0. -1.
         -1   -1    0    0    0  501 -0.00000000000E+00 -0.00000000000E+00 -0.68523693372E+03  0.68523693372E+03  0.00000000000E+00 0.  1.
         25    2    1    2    0    0  0.10172945117E+03 -0.15375046111E+02 -0.37727164308E+03  0.41054006341E+03  0.12499591079E+03 0.  0.
         23    2    1    2    0    0 -0.10172945117E+03  0.15375046111E+02 -0.27510289888E+03  0.30755926207E+03  0.91245939281E+02 0.  0.
          5    1    3    3  502    0  0.62729441443E+02 -0.56175258473E+02 -0.11730612088E+03  0.14447649803E+03  0.47000000000E+01 0.  1.
         -5    1    3    3    0  502  0.39000009727E+02  0.40800212361E+02 -0.25996552220E+03  0.26606356538E+03  0.47000000000E+01 0.  1.
          5    1    4    4  503    0 -0.39707353443E+02  0.50817399029E+02 -0.15148341596E+03  0.16470700432E+03  0.47000000000E+01 0. -1.
         -5    1    4    4    0  503 -0.62022097728E+02 -0.35442352917E+02 -0.12361948292E+03  0.14285225775E+03  0.47000000000E+01 0.  1.
<mgrwt>
<rscale>  0 0.15542113E+03</rscale>
<asrwt>0</asrwt>
<pdfrwt beam="1">  1        1 0.50557532E-02 0.16189271E+03</pdfrwt>
<pdfrwt beam="2">  1       -1 0.10542105E+00 0.16189271E+03</pdfrwt>
<totfact> 0.14417001E+03</totfact>
</mgrwt>
</event>
<event>
 8    1  0.3407580E-004  0.1447113E+03  0.7546771E-02  0.1215755E+00
         -2   -1    0    0    0  501 -0.00000000000E+00  0.00000000000E+00  0.55940245857E+03  0.55940245857E+03  0.00000000000E+00 0.  1.
          2   -1    0    0  501    0  0.00000000000E+00 -0.00000000000E+00 -0.44117659738E+02  0.44117659738E+02  0.00000000000E+00 0. -1.
         25    2    1    2    0    0  0.39480163300E+02  0.61319545770E+02  0.11300954071E+03  0.18360971165E+03  0.12499039937E+03 0.  0.
         23    2    1    2    0    0 -0.39480163300E+02 -0.61319545770E+02  0.40227525813E+03  0.41991040666E+03  0.95815428454E+02 0.  0.
          5    1    4    4  502    0 -0.84914508854E+01 -0.48517600848E+02  0.68928081089E+02  0.84848292221E+02  0.47000000000E+01 0. -1.
         -5    1    3    3    0  503  0.40995507269E+02  0.45395503093E+01 -0.14475560179E+02  0.43964428527E+02  0.47000000000E+01 0.  1.
          5    1    3    3  503    0 -0.15153439689E+01  0.56779995461E+02  0.12748510089E+03  0.13964528313E+03  0.47000000000E+01 0.  1.
         -5    1    4    4    0  502 -0.30988712414E+02 -0.12801944921E+02  0.33334717704E+03  0.33506211443E+03  0.47000000000E+01 0.  1.
<mgrwt>
<rscale>  0 0.13821193E+03</rscale>
<asrwt>0</asrwt>
<pdfrwt beam="1">  1        2 0.67873327E-02 0.14471133E+03</pdfrwt>
<pdfrwt beam="2">  1       -2 0.86061912E-01 0.14471133E+03</pdfrwt>
<totfact> 0.12376548E+03</totfact>
</mgrwt>
</event>
<event>
 8    1  0.3407580E-004  0.1516529E+03  0.7546771E-02  0.1207321E+00
         -2   -1    0    0    0  501 -0.00000000000E+00  0.00000000000E+00  0.15436333137E+02  0.15436333137E+02  0.00000000000E+00 0.  1.
          2   -1    0    0  501    0  0.00000000000E+00 -0.00000000000E+00 -0.12442361759E+04  0.12442361759E+04  0.00000000000E+00 0. -1.
         25    2    1    2    0    0  0.50819095583E+02 -0.69210096586E+02 -0.64328446085E+03  0.66091868489E+03  0.12500397003E+03 0.  0.
         23    2    1    2    0    0 -0.50819095583E+02  0.69210096586E+02 -0.58551538195E+03  0.59875382419E+03  0.91133207595E+02 0.  0.
          5    1    3    3  502    0 -0.10946812808E+02 -0.86210536061E+02 -0.34650329506E+03  0.35726560529E+03  0.47000000000E+01 0. -1.
         -5    1    4    4    0  503 -0.68361780932E+02  0.19097048435E+02 -0.30128850163E+03  0.30957209429E+03  0.47000000000E+01 0.  1.
          5    1    4    4  503    0  0.17542685349E+02  0.50113048152E+02 -0.28422688032E+03  0.28918172989E+03  0.47000000000E+01 0. -1.
         -5    1    3    3    0  502  0.61765908391E+02  0.17000439475E+02 -0.29678116579E+03  0.30365307960E+03  0.47000000000E+01 0. -1.
<mgrwt>
<rscale>  0 0.14456029E+03</rscale>
<asrwt>0</asrwt>
<pdfrwt beam="1">  1        2 0.19142105E+00 0.15165293E+03</pdfrwt>
<pdfrwt beam="2">  1       -2 0.23748193E-02 0.15165293E+03</pdfrwt>
<totfact> 0.11012773E+04</totfact>
</mgrwt>
</event>
<event>
 8    1  0.3407580E-004  0.1303895E+03  0.7546771E-02  0.1240905E+00
         -1   -1    0    0    0  501 -0.00000000000E+00  0.00000000000E+00  0.16002224521E+03  0.16002224521E+03  0.00000000000E+00 0.  1.
          1   -1    0    0  501    0  0.00000000000E+00 -0.00000000000E+00 -0.92931857182E+02  0.92931857182E+02  0.00000000000E+00 0. -1.
         25    2    1    2    0    0  0.36236389625E+02 -0.79736230366E+01  0.82013085446E+02  0.15403757975E+03  0.12499910077E+03 0.  0.
         23    2    1    2    0    0 -0.36236389625E+02  0.79736230366E+01 -0.14922697422E+02  0.98916522643E+02  0.90471746729E+02 0.  0.
          5    1    3    3  502    0 -0.13465234134E+02 -0.21846522838E+02 -0.24373627847E+02  0.35703596805E+02  0.47000000000E+01 0.  1.
         -5    1    4    4    0  503 -0.41627208410E+02  0.37890294035E+02  0.12336059519E+02  0.57816669106E+02  0.47000000000E+01 0.  1.
          5    1    4    4  503    0  0.53908187854E+01 -0.29916670998E+02 -0.27258756941E+02  0.41099853537E+02  0.47000000000E+01 0. -1.
         -5    1    3    3    0  502  0.49701623759E+02  0.13872899801E+02  0.10638671329E+03  0.11833398294E+03  0.47000000000E+01 0.  1.
<mgrwt>
<rscale>  0 0.12133873E+03</rscale>
<asrwt>0</asrwt>
<pdfrwt beam="1">  1        1 0.14297209E-01 0.13038953E+03</pdfrwt>
<pdfrwt beam="2">  1       -1 0.24618807E-01 0.13038953E+03</pdfrwt>
<totfact> 0.53902617E+03</totfact>
</mgrwt>
</event>
<event>
 8    1  0.3407580E-004  0.1982349E+03  0.7546771E-02  0.1155666E+00
         -1   -1    0    0    0  501 -0.00000000000E+00  0.00000000000E+00  0.19458896751E+03  0.19458896751E+03  0.00000000000E+00 0.  1.
          1   -1    0    0  501    0  0.00000000000E+00 -0.00000000000E+00 -0.18409599880E+03  0.18409599880E+03  0.00000000000E+00 0. -1.
         25    2    1    2    0    0 -0.14385445237E+03 -0.54566922654E+02 -0.12403889304E+02  0.19862255445E+03  0.12500164059E+03 0.  0.
         23    2    1    2    0    0  0.14385445237E+03  0.54566922654E+02  0.22896858017E+02  0.18006241187E+03  0.90700350305E+02 0.  0.
          5    1    4    4  502    0  0.73736532898E+02 -0.13171003229E+02  0.32898403741E+02  0.81944777616E+02  0.47000000000E+01 0. -1.
         -5    1    4    4    0  502  0.70117919473E+02  0.67737925883E+02 -0.10001545724E+02  0.98117634251E+02  0.47000000000E+01 0.  1.
          5    1    3    3  503    0 -0.10070263143E+03  0.24398471010E+02 -0.27383584685E+02  0.10727654019E+03  0.47000000000E+01 0.  1.
         -5    1    3    3    0  503 -0.43151820938E+02 -0.78965393664E+02  0.14979695381E+02  0.91346014256E+02  0.47000000000E+01 0.  1.
<mgrwt>
<rscale>  0 0.19313270E+03</rscale>
<asrwt>0</asrwt>
<pdfrwt beam="1">  1        1 0.28322461E-01 0.19823487E+03</pdfrwt>
<pdfrwt beam="2">  1       -1 0.29936764E-01 0.19823487E+03</pdfrwt>
<totfact> 0.16564761E+03</totfact>
</mgrwt>
</event>
<event>
 8    1  0.3407580E-004  0.2460261E+03  0.7546771E-02  0.1118450E+00
          1   -1    0    0  501    0  0.00000000000E+00  0.00000000000E+00  0.15390351557E+04  0.15390351557E+04  0.00000000000E+00 0. -1.
         -1   -1    0    0    0  501 -0.00000000000E+00 -0.00000000000E+00 -0.38498486508E+02  0.38498486508E+02  0.00000000000E+00 0.  1.
         25    2    1    2    0    0  0.18948462039E+03  0.94865799078E+02  0.93578835408E+03  0.96758911172E+03  0.12499961722E+03 0.  0.
         23    2    1    2    0    0 -0.18948462039E+03 -0.94865799078E+02  0.56474831512E+03  0.60994453049E+03  0.90486074297E+02 0.  0.
          5    1    4    4  502    0 -0.15205686167E+03 -0.11000819195E+03  0.42993644872E+03  0.46913807287E+03  0.47000000000E+01 0. -1.
         -5    1    3    3    0  503  0.10799685811E+03  0.10761172476E+03  0.45855332405E+03  0.48325650090E+03  0.47000000000E+01 0.  1.
          5    1    3    3  503    0  0.81487762284E+02 -0.12745925681E+02  0.47723503003E+03  0.48433261082E+03  0.47000000000E+01 0.  1.
         -5    1    4    4    0  502 -0.37427758722E+02  0.15142392874E+02  0.13481186640E+03  0.14080645762E+03  0.47000000000E+01 0.  1.
<mgrwt>
<rscale>  0 0.24202721E+03</rscale>
<asrwt>0</asrwt>
<pdfrwt beam="1">  1        1 0.23677459E+00 0.24602611E+03</pdfrwt>
<pdfrwt beam="2">  1       -1 0.59228453E-02 0.24602611E+03</pdfrwt>
<totfact> 0.92097974E+02</totfact>
</mgrwt>
</event>
<event>
 8    1  0.3407580E-004  0.1286946E+03  0.7546771E-02  0.1244194E+00
         -4   -1    0    0    0  501 -0.00000000000E+00  0.00000000000E+00  0.36333118972E+03  0.36333118972E+03  0.00000000000E+00 0.  1.
          4   -1    0    0  501    0  0.00000000000E+00 -0.00000000000E+00 -0.38172036840E+02  0.38172036840E+02  0.00000000000E+00 0. -1.
         25    2    1    2    0    0  0.22911673260E+02  0.20340479695E+02  0.24639653606E+03  0.27798119234E+03  0.12499444159E+03 0.  0.
         23    2    1    2    0    0 -0.22911673260E+02 -0.20340479695E+02  0.78762616821E+02  0.12352203422E+03  0.90085865946E+02 0.  0.
          5    1    3    3  502    0  0.38252335056E+02 -0.36146303991E+02  0.49093676480E+02  0.72125415075E+02  0.47000000000E+01 0.  1.
         -5    1    4    4    0  503 -0.29291059376E+02  0.30229702589E+02  0.24517284056E+02  0.48938617629E+02  0.47000000000E+01 0.  1.
          5    1    4    4  503    0  0.63793861157E+01 -0.50570182284E+02  0.54245332764E+02  0.74583416589E+02  0.47000000000E+01 0. -1.
         -5    1    3    3    0  502 -0.15340661796E+02  0.56486783685E+02  0.19730285958E+03  0.20585577726E+03  0.47000000000E+01 0.  1.
<mgrwt>
<rscale>  0 0.11933726E+03</rscale>
<asrwt>0</asrwt>
<pdfrwt beam="1">  1        4 0.58726213E-02 0.12869456E+03</pdfrwt>
<pdfrwt beam="2">  1       -4 0.55897104E-01 0.12869456E+03</pdfrwt>
<totfact> 0.92568949E+02</totfact>
</mgrwt>
</event>
<event>
 8    1  0.3407580E-004  0.1309168E+03  0.7546771E-02  0.1239812E+00
          2   -1    0    0  501    0  0.00000000000E+00  0.00000000000E+00  0.56174190607E+03  0.56174190607E+03  0.00000000000E+00 0. -1.
         -2   -1    0    0    0  501 -0.00000000000E+00 -0.00000000000E+00 -0.26291662527E+02  0.26291662527E+02  0.00000000000E+00 0.  1.
         25    2    1    2    0    0  0.34168614464E+02  0.18546728875E+02  0.20587397351E+03  0.24397399782E+03  0.12501097263E+03 0.  0.
         23    2    1    2    0    0 -0.34168614464E+02 -0.18546728875E+02  0.32957627003E+03  0.34405957078E+03  0.90801955418E+02 0.  0.
          5    1    3    3  502    0  0.49705703583E+02 -0.20982657576E+02  0.19130994852E+03  0.19882785341E+03  0.47000000000E+01 0.  1.
         -5    1    4    4    0  503  0.11791659941E+02  0.23352115991E+02  0.41300315099E+02  0.49113853368E+02  0.47000000000E+01 0.  1.
          5    1    4    4  503    0 -0.45960274405E+02 -0.41898844866E+02  0.28827595493E+03  0.29494571741E+03  0.47000000000E+01 0. -1.
         -5    1    3    3    0  502 -0.15537089119E+02  0.39529386451E+02  0.14564024990E+02  0.45146144413E+02  0.47000000000E+01 0.  1.
<mgrwt>
<rscale>  0 0.12201360E+03</rscale>
<asrwt>0</asrwt>
<pdfrwt beam="1">  1        2 0.86421822E-01 0.13091684E+03</pdfrwt>
<pdfrwt beam="2">  1       -2 0.40448716E-02 0.13091684E+03</pdfrwt>
<totfact> 0.13927346E+04</totfact>
</mgrwt>
</event>
<event>
 8    1  0.3407580E-004  0.1590268E+03  0.7546771E-02  0.1197681E+00
         -2   -1    0    0    0  501 -0.00000000000E+00  0.00000000000E+00  0.69855724944E+02  0.69855724944E+02  0.00000000000E+00 0.  1.
          2   -1    0    0  501    0  0.00000000000E+00 -0.00000000000E+00 -0.34245211920E+03  0.34245211920E+03  0.00000000000E+00 0. -1.
         25    2    1    2    0    0  0.33550918741E+02 -0.92404450935E+02 -0.80531905546E+02  0.17825515740E+03  0.12500106651E+03 0.  0.
         23    2    1    2    0    0 -0.33550918741E+02  0.92404450935E+02 -0.19206448871E+03  0.23405268674E+03  0.90706370486E+02 0.  0.
          5    1    3    3  502    0  0.50727431507E+02 -0.11723591996E+03 -0.58459245693E+02  0.14055997525E+03  0.47000000000E+01 0. -1.
         -5    1    4    4    0  503 -0.11744685607E+02  0.10579100395E+03 -0.16581961603E+03  0.19709872962E+03  0.47000000000E+01 0. -1.
          5    1    4    4  503    0 -0.21806233134E+02 -0.13386553015E+02 -0.26244872680E+02  0.36953957124E+02  0.47000000000E+01 0.  1.
         -5    1    3    3    0  502 -0.17176512765E+02  0.24831469021E+02 -0.22072659853E+02  0.37695182153E+02  0.47000000000E+01 0. -1.
<mgrwt>
<rscale>  0 0.15229467E+03</rscale>
<asrwt>0</asrwt>
<pdfrwt beam="1">  1        2 0.52684941E-01 0.15902677E+03</pdfrwt>
<pdfrwt beam="2">  1       -2 0.10747035E-01 0.15902677E+03</pdfrwt>
<totfact> 0.54114440E+03</totfact>
</mgrwt>
</event>
<event>
 8    1  0.3407580E-004  0.1299032E+03  0.7546771E-02  0.1241347E+00
          2   -1    0    0  501    0  0.00000000000E+00  0.00000000000E+00  0.27995897802E+03  0.27995897802E+03  0.00000000000E+00 0. -1.
         -2   -1    0    0    0  501 -0.00000000000E+00 -0.00000000000E+00 -0.50015434408E+02  0.50015434408E+02  0.00000000000E+00 0.  1.
         25    2    1    2    0    0 -0.33201717241E+02 -0.12187279923E+02  0.17395110290E+03  0.21710324932E+03  0.12499580331E+03 0.  0.
         23    2    1    2    0    0  0.33201717241E+02  0.12187279923E+02  0.55992440708E+02  0.11287116311E+03  0.91399465125E+02 0.  0.
          5    1    3    3  502    0  0.44655705187E+02 -0.10587294956E+01  0.33390494197E+02  0.55966668800E+02  0.47000000000E+01 0.  1.
         -5    1    3    3    0  502 -0.77857422428E+02 -0.11128550428E+02  0.14056060870E+03  0.16113658052E+03  0.47000000000E+01 0.  1.
          5    1    4    4  503    0  0.11662612364E+02 -0.21603738563E+02  0.66614228333E+02  0.71149725674E+02  0.47000000000E+01 0. -1.
         -5    1    4    4    0  503  0.21539104877E+02  0.33791018486E+02 -0.10621787625E+02  0.41721437434E+02  0.47000000000E+01 0.  1.
<mgrwt>
<rscale>  0 0.12106694E+03</rscale>
<asrwt>0</asrwt>
<pdfrwt beam="1">  1        2 0.43070611E-01 0.12990317E+03</pdfrwt>
<pdfrwt beam="2">  1       -2 0.76946824E-02 0.12990317E+03</pdfrwt>
<totfact> 0.11142553E+04</totfact>
</mgrwt>
</event>
<event>
 8    1  0.3407580E-004  0.1641657E+03  0.7546771E-02  0.1191440E+00
         -1   -1    0    0    0  501 -0.00000000000E+00  0.00000000000E+00  0.11278028608E+03  0.11278028608E+03  0.00000000000E+00 0.  1.
          1   -1    0    0  501    0  0.00000000000E+00 -0.00000000000E+00 -0.24337346059E+03  0.24337346059E+03  0.00000000000E+00 0. -1.
         25    2    1    2    0    0  0.75279396843E+02  0.75216140667E+02  0.13911256968E+01  0.16417162565E+03  0.12500372808E+03 0.  0.
         23    2    1    2    0    0 -0.75279396843E+02 -0.75216140667E+02 -0.13198430021E+03  0.19198212102E+03  0.90071215615E+02 0.  0.
          5    1    3    3  502    0  0.24701135412E+02  0.93718658774E+02 -0.30116163078E+02  0.10159924395E+03  0.47000000000E+01 0. -1.
         -5    1    3    3    0  502  0.50578261431E+02 -0.18502518107E+02  0.31507288775E+02  0.62572381700E+02  0.47000000000E+01 0. -1.
          5    1    4    4  503    0 -0.61852622537E+02 -0.34851070241E+01 -0.37737417832E+02  0.72691784889E+02  0.47000000000E+01 0. -1.
         -5    1    4    4    0  503 -0.13426774306E+02 -0.71731033643E+02 -0.94246882378E+02  0.11929033613E+03  0.47000000000E+01 0.  1.
<mgrwt>
<rscale>  0 0.15759459E+03</rscale>
<asrwt>0</asrwt>
<pdfrwt beam="1">  1        1 0.37442071E-01 0.16416573E+03</pdfrwt>
<pdfrwt beam="2">  1       -1 0.17350813E-01 0.16416573E+03</pdfrwt>
<totfact> 0.28392575E+03</totfact>
</mgrwt>
</event>
<event>
 8    1  0.3407580E-004  0.2040473E+03  0.7546771E-02  0.1150373E+00
         -2   -1    0    0    0  501 -0.00000000000E+00  0.00000000000E+00  0.25516630406E+02  0.25516630406E+02  0.00000000000E+00 0. -1.
          2   -1    0    0  501    0  0.00000000000E+00 -0.00000000000E+00 -0.15112361047E+04  0.15112361047E+04  0.00000000000E+00 0.  1.
         25    2    1    2    0    0  0.13375274296E+03 -0.90110893335E+02 -0.87492597231E+03  0.89840457146E+03  0.12500219062E+03 0.  0.
         23    2    1    2    0    0 -0.13375274296E+03  0.90110893335E+02 -0.61079350200E+03  0.63834816366E+03  0.91705542974E+02 0.  0.
          5    1    3    3  502    0  0.10691532785E+03 -0.44929419637E+02 -0.78959199425E+03  0.79807715634E+03  0.47000000000E+01 0.  1.
         -5    1    3    3    0  502  0.26837415107E+02 -0.45181473698E+02 -0.85333978053E+02  0.10032741512E+03  0.47000000000E+01 0.  1.
          5    1    4    4  503    0 -0.67886661431E+02  0.43880306480E+02 -0.14906790659E+03  0.16963906057E+03  0.47000000000E+01 0. -1.
         -5    1    4    4    0  503 -0.65866081529E+02  0.46230586855E+02 -0.46172559541E+03  0.46870910309E+03  0.47000000000E+01 0.  1.
<mgrwt>
<rscale>  0 0.19925033E+03</rscale>
<asrwt>0</asrwt>
<pdfrwt beam="1">  1        2 0.23249795E+00 0.20404734E+03</pdfrwt>
<pdfrwt beam="2">  1       -2 0.39256339E-02 0.20404734E+03</pdfrwt>
<totfact> 0.37932422E+03</totfact>
</mgrwt>
</event>
<event>
 8    1  0.3407580E-004  0.3470616E+03  0.7546771E-02  0.1064963E+00
         -1   -1    0    0    0  501 -0.00000000000E+00  0.00000000000E+00  0.92604573973E+02  0.92604573973E+02  0.00000000000E+00 0.  1.
          1   -1    0    0  501    0  0.00000000000E+00 -0.00000000000E+00 -0.14567193110E+04  0.14567193110E+04  0.00000000000E+00 0. -1.
         25    2    1    2    0    0  0.32121213559E+03  0.40560331984E+02 -0.40720741968E+03  0.53504170116E+03  0.12501744982E+03 0.  0.
         23    2    1    2    0    0 -0.32121213559E+03 -0.40560331984E+02 -0.95690731732E+03  0.10142821838E+04  0.90963497240E+02 0.  0.
          5    1    4    4  502    0 -0.27970785019E+03 -0.59738012458E+02 -0.87217489397E+03  0.91788683794E+03  0.47000000000E+01 0. -1.
         -5    1    3    3    0  503  0.18805072456E+03  0.53589384615E+02 -0.15523170966E+03  0.24970757064E+03  0.47000000000E+01 0.  1.
          5    1    3    3  503    0  0.13316141102E+03 -0.13029052631E+02 -0.25197571002E+03  0.28533413052E+03  0.47000000000E+01 0.  1.
         -5    1    4    4    0  502 -0.41504285396E+02  0.19177680474E+02 -0.84732423358E+02  0.96395345856E+02  0.47000000000E+01 0.  1.
<mgrwt>
<rscale>  0 0.34433896E+03</rscale>
<asrwt>0</asrwt>
<pdfrwt beam="1">  1        1 0.22411066E+00 0.34706158E+03</pdfrwt>
<pdfrwt beam="2">  1       -1 0.14246858E-01 0.34706158E+03</pdfrwt>
<totfact> 0.26508816E+02</totfact>
</mgrwt>
</event>
<event>
 8    1  0.3407580E-004  0.3290663E+03  0.7546771E-02  0.1072695E+00
         -1   -1    0    0    0  501 -0.00000000000E+00  0.00000000000E+00  0.51608323482E+03  0.51608323482E+03  0.00000000000E+00 0.  1.
          1   -1    0    0  501    0  0.00000000000E+00 -0.00000000000E+00 -0.24210301846E+03  0.24210301846E+03  0.00000000000E+00 0. -1.
         25    2    1    2    0    0 -0.93370018359E+01 -0.30425774821E+03 -0.12749631674E+02  0.32931324799E+03  0.12499882098E+03 0.  0.
         23    2    1    2    0    0  0.93370018359E+01  0.30425774821E+03  0.28672984803E+03  0.42887300529E+03  0.95174008897E+02 0.  0.
          5    1    3    3  502    0  0.56003694422E+02 -0.16619363156E+03  0.47056591637E+01  0.17550205180E+03  0.47000000000E+01 0. -1.
         -5    1    3    3    0  502 -0.65340696258E+02 -0.13806411665E+03 -0.17455290838E+02  0.15381119619E+03  0.47000000000E+01 0. -1.
          5    1    4    4  503    0  0.18024636992E+02  0.64943920812E+02  0.20164106906E+02  0.70507315907E+02  0.47000000000E+01 0. -1.
         -5    1    4    4    0  503 -0.86876351563E+01  0.23931382740E+03  0.26656574112E+03  0.35836568938E+03  0.47000000000E+01 0.  1.
<mgrwt>
<rscale>  0 0.32650314E+03</rscale>
<asrwt>0</asrwt>
<pdfrwt beam="1">  1        1 0.37246618E-01 0.32906635E+03</pdfrwt>
<pdfrwt beam="2">  1       -1 0.79397420E-01 0.32906635E+03</pdfrwt>
<totfact> 0.19100513E+02</totfact>
</mgrwt>
</event>
<event>
 8    1  0.3407580E-004  0.2004556E+03  0.7546771E-02  0.1153601E+00
          2   -1    0    0  501    0  0.00000000000E+00  0.00000000000E+00  0.11979299832E+03  0.11979299832E+03  0.00000000000E+00 0. -1.
         -2   -1    0    0    0  501 -0.00000000000E+00 -0.00000000000E+00 -0.34964524793E+03  0.34964524793E+03  0.00000000000E+00 0.  1.
         25    2    1    2    0    0  0.82423094146E+02 -0.13328185788E+03 -0.35382788789E+02  0.20355441437E+03  0.12499935112E+03 0.  0.
         23    2    1    2    0    0 -0.82423094146E+02  0.13328185788E+03 -0.19446946081E+03  0.26588383188E+03  0.91204280474E+02 0.  0.
          5    1    3    3  502    0  0.52360565056E+02  0.10351183745E+02 -0.11566180219E+02  0.54814617601E+02  0.47000000000E+01 0. -1.
         -5    1    3    3    0  502  0.30062529091E+02 -0.14363304162E+03 -0.23816608571E+02  0.14873979677E+03  0.47000000000E+01 0. -1.
          5    1    4    4  503    0 -0.84424390086E+02  0.63554286654E+02 -0.83659974271E+02  0.13486180441E+03  0.47000000000E+01 0. -1.
         -5    1    4    4    0  503  0.20012959394E+01  0.69727571222E+02 -0.11080948654E+03  0.13102202747E+03  0.47000000000E+01 0.  1.
<mgrwt>
<rscale>  0 0.19548944E+03</rscale>
<asrwt>0</asrwt>
<pdfrwt beam="1">  1        2 0.18429693E-01 0.20045563E+03</pdfrwt>
<pdfrwt beam="2">  1       -2 0.53791575E-01 0.20045563E+03</pdfrwt>
<totfact> 0.10046166E+03</totfact>
</mgrwt>
</event>
<event>
 8    1  0.3407580E-004  0.1263279E+03  0.7546771E-02  0.1251805E+00
         -1   -1    0    0    0  501 -0.00000000000E+00  0.00000000000E+00  0.18998321770E+03  0.18998321770E+03  0.00000000000E+00 0.  1.
          1   -1    0    0  501    0  0.00000000000E+00 -0.00000000000E+00 -0.59700485380E+02  0.59700485380E+02  0.00000000000E+00 0. -1.
         25    2    1    2    0    0  0.12362328646E+02  0.13530205964E+02  0.83880919805E+02  0.15164021127E+03  0.12499140500E+03 0.  0.
         23    2    1    2    0    0 -0.12362328646E+02 -0.13530205964E+02  0.46401812511E+02  0.98043491809E+02  0.84400855676E+02 0.  0.
          5    1    4    4  502    0 -0.14578536918E+02  0.21369620915E+02 -0.12708742699E+02  0.29202681002E+02  0.47000000000E+01 0. -1.
         -5    1    4    4    0  502  0.22162082714E+01 -0.34899826879E+02  0.59110555210E+02  0.68840810807E+02  0.47000000000E+01 0.  1.
          5    1    3    3  503    0 -0.20786958179E+01 -0.54286428545E+02  0.22753472762E+02  0.59085935917E+02  0.47000000000E+01 0. -1.
         -5    1    3    3    0  503  0.14441024464E+02  0.67816634509E+02  0.61127447042E+02  0.92554275350E+02  0.47000000000E+01 0. -1.
<mgrwt>
<rscale>  0 0.11487155E+03</rscale>
<asrwt>0</asrwt>
<pdfrwt beam="1">  1        1 0.91846901E-02 0.12632793E+03</pdfrwt>
<pdfrwt beam="2">  1       -1 0.29228187E-01 0.12632793E+03</pdfrwt>
<totfact> 0.72393799E+03</totfact>
</mgrwt>
</event>
<event>
 8    1  0.3407580E-004  0.1398081E+03  0.7546771E-02  0.1224070E+00
         -1   -1    0    0    0  501 -0.00000000000E+00  0.00000000000E+00  0.27204502270E+02  0.27204502270E+02  0.00000000000E+00 0.  1.
          1   -1    0    0  501    0  0.00000000000E+00 -0.00000000000E+00 -0.67926441355E+03  0.67926441355E+03  0.00000000000E+00 0. -1.
         25    2    1    2    0    0  0.62544252179E+02 -0.30293169318E+01 -0.48883542046E+03  0.50843520791E+03  0.12500132839E+03 0.  0.
         23    2    1    2    0    0 -0.62544252179E+02  0.30293169318E+01 -0.16322449081E+03  0.19803370791E+03  0.93027709986E+02 0.  0.
          5    1    3    3  502    0  0.61056043825E+02 -0.50089367388E+02 -0.18901221922E+03  0.20490118161E+03  0.47000000000E+01 0. -1.
         -5    1    3    3    0  502  0.14882083540E+01  0.47060050456E+02 -0.29982320125E+03  0.30353402629E+03  0.47000000000E+01 0. -1.
          5    1    4    4  503    0 -0.45299128032E+02  0.15046712965E+02 -0.16904908479E+03  0.17572164818E+03  0.47000000000E+01 0. -1.
         -5    1    4    4    0  503 -0.17245124148E+02 -0.12017396033E+02  0.58245939762E+01  0.22312059727E+02  0.47000000000E+01 0.  1.
<mgrwt>
<rscale>  0 0.13230862E+03</rscale>
<asrwt>0</asrwt>
<pdfrwt beam="1">  1        1 0.10450221E+00 0.13980806E+03</pdfrwt>
<pdfrwt beam="2">  1       -1 0.41853083E-02 0.13980806E+03</pdfrwt>
<totfact> 0.65400752E+03</totfact>
</mgrwt>
</event>
<event>
 8    1  0.3407580E-004  0.1560585E+03  0.7546771E-02  0.1201240E+00
         -3   -1    0    0    0  501 -0.00000000000E+00  0.00000000000E+00  0.22876714141E+03  0.22876714141E+03  0.00000000000E+00 0.  1.
          3   -1    0    0  501    0  0.00000000000E+00 -0.00000000000E+00 -0.11709548963E+03  0.11709548963E+03  0.00000000000E+00 0. -1.
         25    2    1    2    0    0 -0.88288681096E+02 -0.30616878636E+02  0.14244755203E+03  0.21129494762E+03  0.12498786078E+03 0.  0.
         23    2    1    2    0    0  0.88288681096E+02  0.30616878636E+02 -0.30775900245E+02  0.13456768342E+03  0.91809699482E+02 0.  0.
          5    1    4    4  502    0  0.13224803914E+02  0.29697680699E+02 -0.47271820868E+02  0.57563553796E+02  0.47000000000E+01 0. -1.
         -5    1    4    4    0  502  0.75063877183E+02  0.91919793724E+00  0.16495920623E+02  0.77004129628E+02  0.47000000000E+01 0.  1.
          5    1    3    3  503    0 -0.55810176317E+02 -0.66540316943E+02  0.35764976215E+02  0.94040486404E+02  0.47000000000E+01 0. -1.
         -5    1    3    3    0  503 -0.32478504779E+02  0.35923438307E+02  0.10668257581E+03  0.11725446121E+03  0.47000000000E+01 0. -1.
<mgrwt>
<rscale>  0 0.14937720E+03</rscale>
<asrwt>0</asrwt>
<pdfrwt beam="1">  1        3 0.18014691E-01 0.15605848E+03</pdfrwt>
<pdfrwt beam="2">  1       -3 0.35194945E-01 0.15605848E+03</pdfrwt>
<totfact> 0.50710061E+02</totfact>
</mgrwt>
</event>
<event>
 8    1  0.3407580E-004  0.1342480E+03  0.7546771E-02  0.1234040E+00
          2   -1    0    0  501    0  0.00000000000E+00  0.00000000000E+00  0.67429273665E+03  0.67429273665E+03  0.00000000000E+00 0.  1.
         -2   -1    0    0    0  501 -0.00000000000E+00 -0.00000000000E+00 -0.23703245628E+02  0.23703245628E+02  0.00000000000E+00 0. -1.
         25    2    1    2    0    0 -0.88182446554E+01 -0.48163137300E+02  0.48250622553E+03  0.50083408243E+03  0.12500028485E+03 0.  0.
         23    2    1    2    0    0  0.88182446554E+01  0.48163137300E+02  0.16808326549E+03  0.19716189985E+03  0.90682861561E+02 0.  0.
          5    1    3    3  502    0 -0.23021164323E+02  0.38490453688E+02  0.19685028316E+03  0.20194953086E+03  0.47000000000E+01 0. -1.
         -5    1    3    3    0  502  0.14202919667E+02 -0.86653590988E+02  0.28565594236E+03  0.29888455157E+03  0.47000000000E+01 0. -1.
          5    1    4    4  503    0  0.86904937993E+01  0.69940158421E+02  0.15725676797E+03  0.17239179655E+03  0.47000000000E+01 0.  1.
         -5    1    4    4    0  503  0.12775085609E+00 -0.21777021121E+02  0.10826497514E+02  0.24770103302E+02  0.47000000000E+01 0. -1.
<mgrwt>
<rscale>  0 0.12566104E+03</rscale>
<asrwt>0</asrwt>
<pdfrwt beam="1">  1        2 0.10373733E+00 0.13424798E+03</pdfrwt>
<pdfrwt beam="2">  1       -2 0.36466537E-02 0.13424798E+03</pdfrwt>
<totfact> 0.13201192E+04</totfact>
</mgrwt>
</event>
<event>
 8    1  0.3407580E-004  0.1506909E+03  0.7546771E-02  0.1209221E+00
          2   -1    0    0  501    0  0.00000000000E+00  0.00000000000E+00  0.76097738399E+02  0.76097738399E+02  0.00000000000E+00 0. -1.
         -2   -1    0    0    0  501 -0.00000000000E+00 -0.00000000000E+00 -0.37021583639E+03  0.37021583639E+03  0.00000000000E+00 0.  1.
         25    2    1    2    0    0  0.47063882494E+02 -0.69775149427E+02 -0.27904770107E+02  0.15325283074E+03  0.12499669364E+03 0.  0.
         23    2    1    2    0    0 -0.47063882494E+02  0.69775149427E+02 -0.26621332788E+03  0.29306074405E+03  0.89058875179E+02 0.  0.
          5    1    3    3  502    0 -0.40746177341E+02 -0.10705217936E+02 -0.20427474529E+02  0.47055545631E+02  0.47000000000E+01 0.  1.
         -5    1    3    3    0  502  0.87810059836E+02 -0.59069931491E+02 -0.74772955778E+01  0.10619728511E+03  0.47000000000E+01 0.  1.
          5    1    4    4  503    0  0.25219429824E+02  0.23600082987E+02 -0.55863172577E+02  0.65846545908E+02  0.47000000000E+01 0. -1.
         -5    1    4    4    0  503 -0.72283312319E+02  0.46175066441E+02 -0.21035015530E+03  0.22721419814E+03  0.47000000000E+01 0.  1.
<mgrwt>
<rscale>  0 0.14309723E+03</rscale>
<asrwt>0</asrwt>
<pdfrwt beam="1">  1        2 0.11707344E-01 0.15069092E+03</pdfrwt>
<pdfrwt beam="2">  1       -2 0.56956284E-01 0.15069092E+03</pdfrwt>
<totfact> 0.15147784E+03</totfact>
</mgrwt>
</event>
<event>
 8    1  0.3407580E-004  0.1707924E+03  0.7546771E-02  0.1183697E+00
          2   -1    0    0  501    0  0.00000000000E+00  0.00000000000E+00  0.17679492793E+03  0.17679492793E+03  0.00000000000E+00 0. -1.
         -2   -1    0    0    0  501 -0.00000000000E+00 -0.00000000000E+00 -0.17435208329E+03  0.17435208329E+03  0.00000000000E+00 0.  1.
         25    2    1    2    0    0  0.11607728161E+03  0.83980084987E+01  0.75785052082E+02  0.18685135998E+03  0.12500237900E+03 0.  0.
         23    2    1    2    0    0 -0.11607728161E+03 -0.83980084987E+01 -0.73342207442E+02  0.16429565124E+03  0.89830505786E+02 0.  0.
          5    1    3    3  502    0  0.43161323981E+02 -0.49545238229E+01 -0.33257365080E+02  0.54914383601E+02  0.47000000000E+01 0. -1.
         -5    1    3    3    0  502  0.72915957631E+02  0.13352532322E+02  0.10904241716E+03  0.13193697638E+03  0.47000000000E+01 0. -1.
          5    1    4    4  503    0 -0.56180769467E+02  0.48668953630E+01 -0.84566778458E+02  0.10175261936E+03  0.47000000000E+01 0. -1.
         -5    1    4    4    0  503 -0.59896512145E+02 -0.13264903862E+02  0.11224571016E+02  0.62543031874E+02  0.47000000000E+01 0.  1.
<mgrwt>
<rscale>  0 0.16451039E+03</rscale>
<asrwt>0</asrwt>
<pdfrwt beam="1">  1        2 0.27199220E-01 0.17079244E+03</pdfrwt>
<pdfrwt beam="2">  1       -2 0.26823397E-01 0.17079244E+03</pdfrwt>
<totfact> 0.24010246E+03</totfact>
</mgrwt>
</event>
<event>
 8    1  0.3407580E-004  0.1354814E+03  0.7546771E-02  0.1233027E+00
          2   -1    0    0  501    0  0.00000000000E+00  0.00000000000E+00  0.11380802080E+04  0.11380802080E+04  0.00000000000E+00 0. -1.
         -2   -1    0    0    0  501 -0.00000000000E+00 -0.00000000000E+00 -0.15151282885E+02  0.15151282885E+02  0.00000000000E+00 0.  1.
         25    2    1    2    0    0 -0.19084776345E+02  0.48657407113E+02  0.86808016781E+03  0.87858885665E+03  0.12499371720E+03 0.  0.
         23    2    1    2    0    0  0.19084776345E+02 -0.48657407113E+02  0.25484875728E+03  0.27464263421E+03  0.88027924440E+02 0.  0.
          5    1    4    4  502    0  0.41052329704E+02 -0.27024677267E+02  0.22862517036E+03  0.23389567221E+03  0.47000000000E+01 0. -1.
         -5    1    4    4    0  502 -0.21967553359E+02 -0.21632729846E+02  0.26223586923E+02  0.40746962001E+02  0.47000000000E+01 0.  1.
          5    1    3    3  503    0  0.37287239951E+02  0.62939651952E+02  0.58373223044E+03  0.58831721452E+03  0.47000000000E+01 0. -1.
         -5    1    3    3    0  503 -0.56372016296E+02 -0.14282244839E+02  0.28434793737E+03  0.29027164213E+03  0.47000000000E+01 0. -1.
<mgrwt>
<rscale>  0 0.12631601E+03</rscale>
<asrwt>0</asrwt>
<pdfrwt beam="1">  1        2 0.17508919E+00 0.13548137E+03</pdfrwt>
<pdfrwt beam="2">  1       -2 0.23309675E-02 0.13548137E+03</pdfrwt>
<totfact> 0.12887891E+04</totfact>
</mgrwt>
</event>
<event>
 8    1  0.3407580E-004  0.1736914E+03  0.7546771E-02  0.1180846E+00
         -2   -1    0    0    0  501 -0.00000000000E+00  0.00000000000E+00  0.36944479736E+02  0.36944479736E+02  0.00000000000E+00 0.  1.
          2   -1    0    0  501    0  0.00000000000E+00 -0.00000000000E+00 -0.85962594657E+03  0.85962594657E+03  0.00000000000E+00 0. -1.
         25    2    1    2    0    0  0.91850946567E+02  0.78153459125E+02 -0.62706747441E+03  0.65067836251E+03  0.12499661765E+03 0.  0.
         23    2    1    2    0    0 -0.91850946567E+02 -0.78153459125E+02 -0.19561399243E+03  0.24589206380E+03  0.87484361151E+02 0.  0.
          5    1    3    3  502    0  0.81379290104E+02  0.10268274230E+03 -0.37694308435E+03  0.39909211125E+03  0.47000000000E+01 0. -1.
         -5    1    4    4    0  503 -0.19527800717E+02 -0.18733179710E+02  0.16308063296E+01  0.27513933782E+02  0.47000000000E+01 0.  1.
          5    1    4    4  503    0 -0.72323145850E+02 -0.59420279415E+02 -0.19724479876E+03  0.21837813002E+03  0.47000000000E+01 0. -1.
         -5    1    3    3    0  502  0.10471656463E+02 -0.24529283173E+02 -0.25012439006E+03  0.25158625126E+03  0.47000000000E+01 0. -1.
<mgrwt>
<rscale>  0 0.16715648E+03</rscale>
<asrwt>0</asrwt>
<pdfrwt beam="1">  1        2 0.13225013E+00 0.17369143E+03</pdfrwt>
<pdfrwt beam="2">  1       -2 0.56837667E-02 0.17369143E+03</pdfrwt>
<totfact> 0.51048868E+03</totfact>
</mgrwt>
</event>
<event>
 8    1  0.3407580E-004  0.1287032E+03  0.7546771E-02  0.1243032E+00
         -2   -1    0    0    0  501 -0.00000000000E+00  0.00000000000E+00  0.21692339215E+02  0.21692339215E+02  0.00000000000E+00 0.  1.
          2   -1    0    0  501    0  0.00000000000E+00 -0.00000000000E+00 -0.64482161081E+03  0.64482161081E+03  0.00000000000E+00 0. -1.
         25    2    1    2    0    0 -0.30659749374E+02  0.35566237728E+00 -0.44804792456E+03  0.46616677090E+03  0.12499747543E+03 0.  0.
         23    2    1    2    0    0  0.30659749374E+02 -0.35566237728E+00 -0.17508134703E+03  0.20034717912E+03  0.92441156282E+02 0.  0.
          5    1    4    4  502    0  0.11156218246E+02 -0.45974445401E+02 -0.83619653401E+02  0.96189642220E+02  0.47000000000E+01 0. -1.
         -5    1    3    3    0  503 -0.22105601420E+02 -0.46569900945E+02 -0.37654126686E+03  0.38008266067E+03  0.47000000000E+01 0. -1.
          5    1    3    3  503    0 -0.85541479539E+01  0.46925563322E+02 -0.71506657696E+02  0.86084110236E+02  0.47000000000E+01 0. -1.
         -5    1    4    4    0  502  0.19503531128E+02  0.45618783023E+02 -0.91461693633E+02  0.10415753690E+03  0.47000000000E+01 0.  1.
<mgrwt>
<rscale>  0 0.12003963E+03</rscale>
<asrwt>0</asrwt>
<pdfrwt beam="1">  1        2 0.99203330E-01 0.12870321E+03</pdfrwt>
<pdfrwt beam="2">  1       -2 0.33372828E-02 0.12870321E+03</pdfrwt>
<totfact> 0.15801553E+04</totfact>
</mgrwt>
</event>
<event>
 8    1  0.3407580E-004  0.1271093E+03  0.7546771E-02  0.1246754E+00
          1   -1    0    0  501    0  0.00000000000E+00  0.00000000000E+00  0.65870993620E+02  0.65870993620E+02  0.00000000000E+00 0. -1.
         -1   -1    0    0    0  501 -0.00000000000E+00 -0.00000000000E+00 -0.19660755703E+03  0.19660755703E+03  0.00000000000E+00 0.  1.
         25    2    1    2    0    0 -0.15336930827E+02 -0.17207593000E+02 -0.10590962705E+03  0.16544978611E+03  0.12500183965E+03 0.  0.
         23    2    1    2    0    0  0.15336930827E+02  0.17207593000E+02 -0.24826936361E+02  0.97028764546E+02  0.90922393700E+02 0.  0.
          5    1    3    3  502    0 -0.12676246809E+02 -0.47265628975E+02  0.59281718779E+01  0.49517271102E+02  0.47000000000E+01 0.  1.
         -5    1    3    3    0  502 -0.26606840171E+01  0.30058035975E+02 -0.11183779893E+03  0.11593251501E+03  0.47000000000E+01 0.  1.
          5    1    4    4  503    0  0.37066435304E+02  0.20390417141E+02  0.19894502907E+02  0.46984795234E+02  0.47000000000E+01 0. -1.
         -5    1    4    4    0  503 -0.21729504477E+02 -0.31828241405E+01 -0.44721439267E+02  0.50043969312E+02  0.47000000000E+01 0.  1.
<mgrwt>
<rscale>  0 0.11781005E+03</rscale>
<asrwt>0</asrwt>
<pdfrwt beam="1">  1        1 0.10133999E-01 0.12710933E+03</pdfrwt>
<pdfrwt beam="2">  1       -1 0.30247317E-01 0.12710933E+03</pdfrwt>
<totfact> 0.60027016E+03</totfact>
</mgrwt>
</event>
<event>
 8    1  0.3407580E-004  0.1390812E+03  0.7546771E-02  0.1225480E+00
         -4   -1    0    0    0  501 -0.00000000000E+00  0.00000000000E+00  0.19324547267E+03  0.19324547267E+03  0.00000000000E+00 0.  1.
          4   -1    0    0  501    0  0.00000000000E+00 -0.00000000000E+00 -0.98665545315E+02  0.98665545315E+02  0.00000000000E+00 0. -1.
         25    2    1    2    0    0 -0.57834912617E+02 -0.19334038553E+02 -0.10327040557E+02  0.13946405888E+03  0.12499957515E+03 0.  0.
         23    2    1    2    0    0  0.57834912617E+02  0.19334038553E+02  0.10490696792E+03  0.15244695911E+03  0.92281749342E+02 0.  0.
          5    1    4    4  502    0  0.47116382068E+02  0.46807467828E+02  0.10284212283E+03  0.12251320228E+03  0.47000000000E+01 0. -1.
         -5    1    3    3    0  503 -0.29907323790E+02 -0.31571294894E+02  0.53181306628E+02  0.68858812451E+02  0.47000000000E+01 0.  1.
          5    1    3    3  503    0 -0.27927588827E+02  0.12237256342E+02 -0.63508347185E+02  0.70605246424E+02  0.47000000000E+01 0.  1.
         -5    1    4    4    0  502  0.10718530549E+02 -0.27473429275E+02  0.20648450867E+01  0.29933756839E+02  0.47000000000E+01 0.  1.
<mgrwt>
<rscale>  0 0.13134091E+03</rscale>
<asrwt>0</asrwt>
<pdfrwt beam="1">  1        4 0.15179315E-01 0.13908118E+03</pdfrwt>
<pdfrwt beam="2">  1       -4 0.29730073E-01 0.13908118E+03</pdfrwt>
<totfact> 0.66424074E+02</totfact>
</mgrwt>
</event>
<event>
 8    1  0.3407580E-004  0.1336963E+03  0.7546771E-02  0.1234577E+00
         -2   -1    0    0    0  501 -0.00000000000E+00  0.00000000000E+00  0.66342563672E+03  0.66342563672E+03  0.00000000000E+00 0.  1.
          2   -1    0    0  501    0  0.00000000000E+00 -0.00000000000E+00 -0.21175649756E+02  0.21175649756E+02  0.00000000000E+00 0. -1.
         25    2    1    2    0    0  0.88710174306E+01 -0.46578313822E+02  0.37486705756E+03  0.39799498070E+03  0.12500583805E+03 0.  0.
         23    2    1    2    0    0 -0.88710174306E+01  0.46578313822E+02  0.26738292940E+03  0.28660630578E+03  0.91658656484E+02 0.  0.
          5    1    3    3  502    0 -0.60380850387E+01 -0.79686094448E+02  0.14865694708E+03  0.16884107922E+03  0.47000000000E+01 0. -1.
         -5    1    3    3    0  502  0.14909102469E+02  0.33107780625E+02  0.22621011049E+03  0.22915390148E+03  0.47000000000E+01 0. -1.
          5    1    4    4  503    0  0.40378938578E+02  0.24910930878E+02  0.14997861484E+03  0.15737435645E+03  0.47000000000E+01 0. -1.
         -5    1    4    4    0  503 -0.49249956008E+02  0.21667382944E+02  0.11740431456E+03  0.12923194933E+03  0.47000000000E+01 0.  1.
<mgrwt>
<rscale>  0 0.12531581E+03</rscale>
<asrwt>0</asrwt>
<pdfrwt beam="1">  1        2 0.32577928E-02 0.13369627E+03</pdfrwt>
<pdfrwt beam="2">  1       -2 0.10206547E+00 0.13369627E+03</pdfrwt>
<totfact> 0.21896045E+03</totfact>
</mgrwt>
</event>
<event>
 8    1  0.3407580E-004  0.1280679E+03  0.7546771E-02  0.1244075E+00
         -2   -1    0    0    0  501 -0.00000000000E+00  0.00000000000E+00  0.23927930473E+02  0.23927930473E+02  0.00000000000E+00 0.  1.
          2   -1    0    0  501    0  0.00000000000E+00 -0.00000000000E+00 -0.52852037708E+03  0.52852037708E+03  0.00000000000E+00 0. -1.
         25    2    1    2    0    0 -0.10878785090E+02  0.25655883756E+02 -0.28133995408E+03  0.30911736482E+03  0.12499921252E+03 0.  0.
         23    2    1    2    0    0  0.10878785090E+02 -0.25655883756E+02 -0.22325249252E+03  0.24333094274E+03  0.92691423220E+02 0.  0.
          5    1    4    4  502    0 -0.28456548906E+02  0.16484563318E+02 -0.12480716438E+03  0.12915275562E+03  0.47000000000E+01 0. -1.
         -5    1    4    4    0  502  0.39335333996E+02 -0.42140447073E+02 -0.98445328147E+02  0.11417818712E+03  0.47000000000E+01 0.  1.
          5    1    3    3  503    0  0.89304140033E+01 -0.48738242869E+02 -0.90564189717E+02  0.10333988132E+03  0.47000000000E+01 0.  1.
         -5    1    3    3    0  503 -0.19809199093E+02  0.74394126624E+02 -0.19077576436E+03  0.20577748349E+03  0.47000000000E+01 0.  1.
<mgrwt>
<rscale>  0 0.11940913E+03</rscale>
<asrwt>0</asrwt>
<pdfrwt beam="1">  1        2 0.81310825E-01 0.12806785E+03</pdfrwt>
<pdfrwt beam="2">  1       -2 0.36812202E-02 0.12806785E+03</pdfrwt>
<totfact> 0.17107129E+04</totfact>
</mgrwt>
</event>
<event>
 8    1  0.3407580E-004  0.1268407E+03  0.7546771E-02  0.1246106E+00
          3   -1    0    0  501    0  0.00000000000E+00  0.00000000000E+00  0.80247071355E+02  0.80247071355E+02  0.00000000000E+00 0. -1.
         -3   -1    0    0    0  501 -0.00000000000E+00 -0.00000000000E+00 -0.15728172372E+03  0.15728172372E+03  0.00000000000E+00 0.  1.
         25    2    1    2    0    0 -0.21519583662E+02 -0.51038089990E+00 -0.27338894187E+02  0.12975349659E+03  0.12500080709E+03 0.  0.
         23    2    1    2    0    0  0.21519583662E+02  0.51038089990E+00 -0.49695758180E+02  0.10777529848E+03  0.93179899187E+02 0.  0.
          5    1    3    3  502    0  0.12154777709E+02  0.20572746725E+02  0.42663889911E+02  0.49125085561E+02  0.47000000000E+01 0.  1.
         -5    1    3    3    0  502 -0.33674361371E+02 -0.21083127625E+02 -0.70002784098E+02  0.80628411033E+02  0.47000000000E+01 0.  1.
          5    1    4    4  503    0  0.15723848979E+02 -0.44912636886E+02 -0.14942036987E+02  0.50097293820E+02  0.47000000000E+01 0. -1.
         -5    1    4    4    0  503  0.57957346833E+01  0.45423017786E+02 -0.34753721193E+02  0.57678004664E+02  0.47000000000E+01 0.  1.
<mgrwt>
<rscale>  0 0.11819439E+03</rscale>
<asrwt>0</asrwt>
<pdfrwt beam="1">  1        3 0.12345703E-01 0.12684067E+03</pdfrwt>
<pdfrwt beam="2">  1       -3 0.24197188E-01 0.12684067E+03</pdfrwt>
<totfact> 0.18710178E+03</totfact>
</mgrwt>
</event>
<event>
 8    1  0.3407580E-004  0.1892049E+03  0.7546771E-02  0.1164087E+00
          1   -1    0    0  501    0  0.00000000000E+00  0.00000000000E+00  0.79092202227E+03  0.79092202227E+03  0.00000000000E+00 0. -1.
         -1   -1    0    0    0  501 -0.00000000000E+00 -0.00000000000E+00 -0.40638898863E+02  0.40638898863E+02  0.00000000000E+00 0.  1.
         25    2    1    2    0    0  0.14065706714E+03  0.19815406630E+02  0.41878772690E+03  0.45954504540E+03  0.12498570988E+03 0.  0.
         23    2    1    2    0    0 -0.14065706714E+03 -0.19815406630E+02  0.33149539651E+03  0.37201587573E+03  0.91266384907E+02 0.  0.
          5    1    4    4  502    0 -0.13783526143E+03  0.31529126399E+01  0.23341606649E+03  0.27113400791E+03  0.47000000000E+01 0. -1.
         -5    1    4    4    0  502 -0.28218057095E+01 -0.22968319269E+02  0.98079330022E+02  0.10088186782E+03  0.47000000000E+01 0.  1.
          5    1    3    3  503    0  0.14686389156E+03 -0.16173483905E+02  0.28869307273E+03  0.32433989034E+03  0.47000000000E+01 0. -1.
         -5    1    3    3    0  503 -0.62068244158E+01  0.35988890534E+02  0.13009465417E+03  0.13520515506E+03  0.47000000000E+01 0. -1.
<mgrwt>
<rscale>  0 0.18389396E+03</rscale>
<asrwt>0</asrwt>
<pdfrwt beam="1">  1        1 0.12168030E+00 0.18920489E+03</pdfrwt>
<pdfrwt beam="2">  1       -1 0.62521389E-02 0.18920489E+03</pdfrwt>
<totfact> 0.29149571E+03</totfact>
</mgrwt>
</event>
<event>
 8    1  0.3407580E-004  0.1368930E+03  0.7546771E-02  0.1229582E+00
         -1   -1    0    0    0  501 -0.00000000000E+00  0.00000000000E+00  0.31057004606E+02  0.31057004606E+02  0.00000000000E+00 0. -1.
          1   -1    0    0  501    0  0.00000000000E+00 -0.00000000000E+00 -0.49954680966E+03  0.49954680966E+03  0.00000000000E+00 0.  1.
         25    2    1    2    0    0  0.11104118651E+02  0.54704722350E+02 -0.20622636906E+03  0.24752579070E+03  0.12499517457E+03 0.  0.
         23    2    1    2    0    0 -0.11104118651E+02 -0.54704722350E+02 -0.26226343599E+03  0.28307802356E+03  0.90747724321E+02 0.  0.
          5    1    3    3  502    0 -0.13910637125E+01 -0.25459888057E+02 -0.68140634602E-01  0.25927506653E+02  0.47000000000E+01 0. -1.
         -5    1    3    3    0  502  0.12495182364E+02  0.80164610406E+02 -0.20615822843E+03  0.22159828405E+03  0.47000000000E+01 0. -1.
          5    1    4    4  503    0  0.66099073536E+01 -0.33187921434E+02 -0.20868148905E+02  0.40033718826E+02  0.47000000000E+01 0. -1.
         -5    1    4    4    0  503 -0.17714026005E+02 -0.21516800916E+02 -0.24139528708E+03  0.24304430474E+03  0.47000000000E+01 0.  1.
<mgrwt>
<rscale>  0 0.12857767E+03</rscale>
<asrwt>0</asrwt>
<pdfrwt beam="1">  1        1 0.76853355E-01 0.13689303E+03</pdfrwt>
<pdfrwt beam="2">  1       -1 0.47780007E-02 0.13689303E+03</pdfrwt>
<totfact> 0.81468378E+03</totfact>
</mgrwt>
</event>
<event>
 8    1  0.3407580E-004  0.1844388E+03  0.7546771E-02  0.1169154E+00
         -3   -1    0    0    0  501 -0.00000000000E+00  0.00000000000E+00  0.50242602256E+02  0.50242602256E+02  0.00000000000E+00 0.  1.
          3   -1    0    0  501    0  0.00000000000E+00 -0.00000000000E+00 -0.67443840743E+03  0.67443840743E+03  0.00000000000E+00 0. -1.
         25    2    1    2    0    0 -0.96686829398E+02 -0.95101218247E+02 -0.20802132914E+03  0.27801176654E+03  0.12500033707E+03 0.  0.
         23    2    1    2    0    0  0.96686829398E+02  0.95101218247E+02 -0.41617447603E+03  0.44666924314E+03  0.88992323136E+02 0.  0.
          5    1    3    3  502    0 -0.11787830042E+03 -0.39923659726E+02 -0.15117414487E+03  0.19586961069E+03  0.47000000000E+01 0. -1.
         -5    1    3    3    0  502  0.21191471019E+02 -0.55177558521E+02 -0.56847184268E+02  0.82142155849E+02  0.47000000000E+01 0. -1.
          5    1    4    4  503    0  0.64719244700E+02  0.82191828504E+01 -0.22319122556E+03  0.23257804877E+03  0.47000000000E+01 0. -1.
         -5    1    4    4    0  503  0.31967584698E+02  0.86882035397E+02 -0.19298325047E+03  0.21409119437E+03  0.47000000000E+01 0.  1.
<mgrwt>
<rscale>  0 0.17861128E+03</rscale>
<asrwt>0</asrwt>
<pdfrwt beam="1">  1        3 0.10375975E+00 0.18443879E+03</pdfrwt>
<pdfrwt beam="2">  1       -3 0.77296313E-02 0.18443879E+03</pdfrwt>
<totfact> 0.22763368E+02</totfact>
</mgrwt>
</event>
<event>
 8    1  0.3407580E-004  0.1704110E+03  0.7546771E-02  0.1183855E+00
          2   -1    0    0  501    0  0.00000000000E+00  0.00000000000E+00  0.21706870993E+03  0.21706870993E+03  0.00000000000E+00 0. -1.
         -2   -1    0    0    0  501 -0.00000000000E+00 -0.00000000000E+00 -0.16429864166E+03  0.16429864166E+03  0.00000000000E+00 0.  1.
         25    2    1    2    0    0 -0.85822860318E+02 -0.77781678367E+02  0.13051275401E+03  0.21464734458E+03  0.12499740290E+03 0.  0.
         23    2    1    2    0    0  0.85822860318E+02  0.77781678367E+02 -0.77742685739E+02  0.16672000700E+03  0.91302150613E+02 0.  0.
          5    1    4    4  502    0  0.25197494145E+02  0.82379565551E+02 -0.40959162219E+02  0.95504185779E+02  0.47000000000E+01 0. -1.
         -5    1    3    3    0  503 -0.10328696477E+03 -0.96903978587E+02  0.95657418841E+02  0.17097078680E+03  0.47000000000E+01 0. -1.
          5    1    3    3  503    0  0.17464104455E+02  0.19122300220E+02  0.34855335171E+02  0.43676557786E+02  0.47000000000E+01 0. -1.
         -5    1    4    4    0  502  0.60625366173E+02 -0.45978871836E+01 -0.36783523520E+02  0.71215821225E+02  0.47000000000E+01 0.  1.
<mgrwt>
<rscale>  0 0.16436513E+03</rscale>
<asrwt>0</asrwt>
<pdfrwt beam="1">  1        2 0.33395186E-01 0.17041098E+03</pdfrwt>
<pdfrwt beam="2">  1       -2 0.25276714E-01 0.17041098E+03</pdfrwt>
<totfact> 0.21316847E+03</totfact>
</mgrwt>
</event>
<event>
 8    1  0.3407580E-004  0.1262927E+03  0.7546771E-02  0.1247062E+00
         -1   -1    0    0    0  501 -0.00000000000E+00  0.00000000000E+00  0.20504044935E+03  0.20504044935E+03  0.00000000000E+00 0.  1.
          1   -1    0    0  501    0  0.00000000000E+00 -0.00000000000E+00 -0.75435720877E+02  0.75435720877E+02  0.00000000000E+00 0. -1.
         25    2    1    2    0    0  0.15549800341E+02 -0.90785929116E+01  0.85665091467E+01  0.12658287478E+03  0.12500248785E+03 0.  0.
         23    2    1    2    0    0 -0.15549800341E+02  0.90785929116E+01  0.12103821932E+03  0.15389329545E+03  0.93320301681E+02 0.  0.
          5    1    3    3  502    0  0.51705675938E+02 -0.43176726246E+02  0.27882011999E+02  0.73056164741E+02  0.47000000000E+01 0.  1.
         -5    1    4    4    0  503  0.13912125941E+02  0.45240814510E+02  0.52344753574E+02  0.70727235012E+02  0.47000000000E+01 0. -1.
          5    1    4    4  503    0 -0.29461926283E+02 -0.36162221598E+02  0.68693465750E+02  0.83166060433E+02  0.47000000000E+01 0.  1.
         -5    1    3    3    0  502 -0.36155875597E+02  0.34098133335E+02 -0.19315502853E+02  0.53526710038E+02  0.47000000000E+01 0.  1.
<mgrwt>
<rscale>  0 0.11762835E+03</rscale>
<asrwt>0</asrwt>
<pdfrwt beam="1">  1        1 0.11605496E-01 0.12629267E+03</pdfrwt>
<pdfrwt beam="2">  1       -1 0.31544684E-01 0.12629267E+03</pdfrwt>
<totfact> 0.46761881E+03</totfact>
</mgrwt>
</event>
<event>
 8    1  0.3407580E-004  0.2205829E+03  0.7546771E-02  0.1136826E+00
          2   -1    0    0  501    0  0.00000000000E+00  0.00000000000E+00  0.23543113831E+03  0.23543113831E+03  0.00000000000E+00 0. -1.
         -2   -1    0    0    0  501 -0.00000000000E+00 -0.00000000000E+00 -0.19847191769E+03  0.19847191769E+03  0.00000000000E+00 0.  1.
         25    2    1    2    0    0  0.16892767803E+03  0.67040804507E+02 -0.23715577637E+02  0.22185414673E+03  0.12500321565E+03 0.  0.
         23    2    1    2    0    0 -0.16892767803E+03 -0.67040804507E+02  0.60674798260E+02  0.21204890927E+03  0.90842054700E+02 0.  0.
          5    1    4    4  502    0 -0.10442151902E+03 -0.36382601639E+02  0.81565922195E+02  0.13748686119E+03  0.47000000000E+01 0. -1.
         -5    1    3    3    0  503  0.29734063714E+02 -0.42725756281E+01  0.42246070027E+02  0.52049878772E+02  0.47000000000E+01 0. -1.
          5    1    3    3  503    0  0.13919361432E+03  0.71313380136E+02 -0.65961647664E+02  0.16980426796E+03  0.47000000000E+01 0. -1.
         -5    1    4    4    0  502 -0.64506159019E+02 -0.30658202869E+02 -0.20891123935E+02  0.74562048079E+02  0.47000000000E+01 0.  1.
<mgrwt>
<rscale>  0 0.21609800E+03</rscale>
<asrwt>0</asrwt>
<pdfrwt beam="1">  1        2 0.36220175E-01 0.22058294E+03</pdfrwt>
<pdfrwt beam="2">  1       -2 0.30534141E-01 0.22058294E+03</pdfrwt>
<totfact> 0.14029344E+03</totfact>
</mgrwt>
</event>
<event>
 8    1  0.3407580E-004  0.2485997E+03  0.7546771E-02  0.1116640E+00
          1   -1    0    0  501    0  0.00000000000E+00  0.00000000000E+00  0.64439433684E+02  0.64439433684E+02  0.00000000000E+00 0. -1.
         -1   -1    0    0    0  501 -0.00000000000E+00 -0.00000000000E+00 -0.91071150405E+03  0.91071150405E+03  0.00000000000E+00 0.  1.
         25    2    1    2    0    0 -0.78214486654E+02 -0.20014597262E+03 -0.48224073145E+03  0.54254762415E+03  0.12500354045E+03 0.  0.
         23    2    1    2    0    0  0.78214486654E+02  0.20014597262E+03 -0.36403133892E+03  0.43260331358E+03  0.91928749194E+02 0.  0.
          5    1    4    4  502    0  0.72553394170E+02  0.16318939728E+03 -0.21832879641E+03  0.28210694379E+03  0.47000000000E+01 0. -1.
         -5    1    3    3    0  503 -0.10375063238E+02 -0.15447965542E+03 -0.38745992443E+03  0.41727555514E+03  0.47000000000E+01 0.  1.
          5    1    3    3  503    0 -0.67839423416E+02 -0.45666317206E+02 -0.94780807016E+02  0.12527206901E+03  0.47000000000E+01 0.  1.
         -5    1    4    4    0  502  0.56610924837E+01  0.36956575345E+02 -0.14570254250E+03  0.15049636980E+03  0.47000000000E+01 0.  1.
<mgrwt>
<rscale>  0 0.24479422E+03</rscale>
<asrwt>0</asrwt>
<pdfrwt beam="1">  1        1 0.99137591E-02 0.24859968E+03</pdfrwt>
<pdfrwt beam="2">  1       -1 0.14010946E+00 0.24859968E+03</pdfrwt>
<totfact> 0.29355047E+02</totfact>
</mgrwt>
</event>
<event>
 8    1  0.3407580E-004  0.1346809E+03  0.7546771E-02  0.1233410E+00
          2   -1    0    0  501    0  0.00000000000E+00  0.00000000000E+00  0.12693034132E+03  0.12693034132E+03  0.00000000000E+00 0. -1.
         -2   -1    0    0    0  501 -0.00000000000E+00 -0.00000000000E+00 -0.11188956234E+03  0.11188956234E+03  0.00000000000E+00 0.  1.
         25    2    1    2    0    0  0.36838473763E+02 -0.34012408616E+02  0.14144903476E+02  0.13542162973E+03  0.12500008967E+03 0.  0.
         23    2    1    2    0    0 -0.36838473763E+02  0.34012408616E+02  0.89587549813E+00  0.10339827393E+03  0.90423909279E+02 0.  0.
          5    1    4    4  502    0 -0.47788704840E+02 -0.60576995226E+01  0.25688862901E+02  0.54794741636E+02  0.47000000000E+01 0. -1.
         -5    1    3    3    0  503  0.77024052731E+02  0.15698585894E+01 -0.70894553362E+01  0.77508190097E+02  0.47000000000E+01 0.  1.
          5    1    3    3  503    0 -0.40185578968E+02 -0.35582267205E+02  0.21234358812E+02  0.57913439637E+02  0.47000000000E+01 0.  1.
         -5    1    4    4    0  502  0.10950231077E+02  0.40070108138E+02 -0.24792987403E+02  0.48603532292E+02  0.47000000000E+01 0.  1.
<mgrwt>
<rscale>  0 0.12606766E+03</rscale>
<asrwt>0</asrwt>
<pdfrwt beam="1">  1        2 0.19527745E-01 0.13468088E+03</pdfrwt>
<pdfrwt beam="2">  1       -2 0.17213779E-01 0.13468088E+03</pdfrwt>
<totfact> 0.73357134E+03</totfact>
</mgrwt>
</event>
<event>
 8    1  0.3407580E-004  0.1324457E+03  0.7546771E-02  0.1236481E+00
          2   -1    0    0  501    0  0.00000000000E+00  0.00000000000E+00  0.22277534854E+03  0.22277534854E+03  0.00000000000E+00 0. -1.
         -2   -1    0    0    0  501 -0.00000000000E+00 -0.00000000000E+00 -0.61744237923E+02  0.61744237923E+02  0.00000000000E+00 0.  1.
         25    2    1    2    0    0 -0.43043940497E+02  0.79604377486E+01  0.93077610842E+02  0.16188049019E+03  0.12500280830E+03 0.  0.
         23    2    1    2    0    0  0.43043940497E+02 -0.79604377486E+01  0.67953499770E+02  0.12263909627E+03  0.92230799732E+02 0.  0.
          5    1    4    4  502    0 -0.25226418413E+02 -0.11413537213E+01  0.41803615136E+02  0.49064316083E+02  0.47000000000E+01 0. -1.
         -5    1    3    3    0  503  0.19452437979E+02 -0.36648320686E+02  0.82780538341E+00  0.41764482688E+02  0.47000000000E+01 0.  1.
          5    1    3    3  503    0 -0.62496378476E+02  0.44608758435E+02  0.92249805459E+02  0.12011600750E+03  0.47000000000E+01 0.  1.
         -5    1    4    4    0  502  0.68270358910E+02 -0.68190840274E+01  0.26149884634E+02  0.73574780183E+02  0.47000000000E+01 0.  1.
<mgrwt>
<rscale>  0 0.12410111E+03</rscale>
<asrwt>0</asrwt>
<pdfrwt beam="1">  1        2 0.34273130E-01 0.13244565E+03</pdfrwt>
<pdfrwt beam="2">  1       -2 0.94991136E-02 0.13244565E+03</pdfrwt>
<totfact> 0.10266219E+04</totfact>
</mgrwt>
</event>
<event>
 8    1  0.3407580E-004  0.2398824E+03  0.7546771E-02  0.1122627E+00
         -2   -1    0    0    0  501 -0.00000000000E+00  0.00000000000E+00  0.47088107204E+02  0.47088107204E+02  0.00000000000E+00 0.  1.
          2   -1    0    0  501    0  0.00000000000E+00 -0.00000000000E+00 -0.11927967338E+04  0.11927967338E+04  0.00000000000E+00 0. -1.
         25    2    1    2    0    0  0.19576688559E+03  0.59948823427E+02 -0.46408089107E+03  0.52241231128E+03  0.12500005839E+03 0.  0.
         23    2    1    2    0    0 -0.19576688559E+03 -0.59948823427E+02 -0.68162773551E+03  0.71747252971E+03  0.90729962785E+02 0.  0.
          5    1    3    3  502    0  0.98482133314E+02 -0.24823188816E+02 -0.27724247428E+03  0.29529713989E+03  0.47000000000E+01 0. -1.
         -5    1    3    3    0  502  0.97284752274E+02  0.84772012244E+02 -0.18683841679E+03  0.22711517139E+03  0.47000000000E+01 0. -1.
          5    1    4    4  503    0 -0.51379171545E+02  0.12389659724E+01 -0.30719544376E+03  0.31150037716E+03  0.47000000000E+01 0. -1.
         -5    1    4    4    0  503 -0.14438771404E+03 -0.61187789400E+02 -0.37443229175E+03  0.40597215255E+03  0.47000000000E+01 0.  1.
<mgrwt>
<rscale>  0 0.23579420E+03</rscale>
<asrwt>0</asrwt>
<pdfrwt beam="1">  1        2 0.18350720E+00 0.23988237E+03</pdfrwt>
<pdfrwt beam="2">  1       -2 0.72443238E-02 0.23988237E+03</pdfrwt>
<totfact> 0.22263023E+03</totfact>
</mgrwt>
</event>
<event>
 8    1  0.3407580E-004  0.1953725E+03  0.7546771E-02  0.1159493E+00
          1   -1    0    0  501    0  0.00000000000E+00  0.00000000000E+00  0.52031363798E+03  0.52031363798E+03  0.00000000000E+00 0. -1.
         -1   -1    0    0    0  501 -0.00000000000E+00 -0.00000000000E+00 -0.68172601461E+02  0.68172601461E+02  0.00000000000E+00 0.  1.
         25    2    1    2    0    0  0.13860948221E+03  0.57730443135E+02  0.17101806771E+03  0.25964900075E+03  0.12500012593E+03 0.  0.
         23    2    1    2    0    0 -0.13860948221E+03 -0.57730443135E+02  0.28112296880E+03  0.32883723869E+03  0.80984031358E+02 0.  0.
          5    1    4    4  502    0 -0.18543482331E+02 -0.10998509880E+02  0.12229149832E+03  0.12426636117E+03  0.47000000000E+01 0. -1.
         -5    1    4    4    0  502 -0.12006599988E+03 -0.46731933254E+02  0.15883147048E+03  0.20457087752E+03  0.47000000000E+01 0.  1.
          5    1    3    3  503    0  0.69650760952E+02  0.94177380164E+02  0.10341258813E+03  0.15632293760E+03  0.47000000000E+01 0. -1.
         -5    1    3    3    0  503  0.68958721261E+02 -0.36446937029E+02  0.67605479586E+02  0.10332606315E+03  0.47000000000E+01 0. -1.
<mgrwt>
<rscale>  0 0.18886059E+03</rscale>
<asrwt>0</asrwt>
<pdfrwt beam="1">  1        1 0.80048249E-01 0.19537253E+03</pdfrwt>
<pdfrwt beam="2">  1       -1 0.10488093E-01 0.19537253E+03</pdfrwt>
<totfact> 0.23968132E+03</totfact>
</mgrwt>
</event>
<event>
 8    1  0.3407580E-004  0.2195920E+03  0.7546771E-02  0.1136779E+00
         -1   -1    0    0    0  501 -0.00000000000E+00  0.00000000000E+00  0.38992662848E+02  0.38992662848E+02  0.00000000000E+00 0.  1.
          1   -1    0    0  501    0  0.00000000000E+00 -0.00000000000E+00 -0.12471190121E+04  0.12471190121E+04  0.00000000000E+00 0. -1.
         25    2    1    2    0    0  0.18014652748E+03 -0.11875795469E+02 -0.78944198941E+03  0.81941399498E+03  0.12500733833E+03 0.  0.
         23    2    1    2    0    0 -0.18014652748E+03  0.11875795469E+02 -0.41868435987E+03  0.46669768000E+03  0.99580748336E+02 0.  0.
          5    1    4    4  502    0 -0.10885506592E+03  0.35117219921E+02 -0.33605585669E+03  0.35501869434E+03  0.47000000000E+01 0. -1.
         -5    1    4    4    0  502 -0.71291461559E+02 -0.23241424452E+02 -0.82628503177E+02  0.11167898566E+03  0.47000000000E+01 0.  1.
          5    1    3    3  503    0  0.14091524819E+03  0.35844508803E+02 -0.66087760486E+03  0.67670025460E+03  0.47000000000E+01 0.  1.
         -5    1    3    3    0  503  0.39231279289E+02 -0.47720304272E+02 -0.12856438456E+03  0.14271374037E+03  0.47000000000E+01 0.  1.
<mgrwt>
<rscale>  0 0.21615930E+03</rscale>
<asrwt>0</asrwt>
<pdfrwt beam="1">  1        1 0.19186442E+00 0.21959199E+03</pdfrwt>
<pdfrwt beam="2">  1       -1 0.59988727E-02 0.21959199E+03</pdfrwt>
<totfact> 0.14205982E+03</totfact>
</mgrwt>
</event>
<event>
 8    1  0.3407580E-004  0.1604708E+03  0.7546771E-02  0.1196006E+00
          1   -1    0    0  501    0  0.00000000000E+00  0.00000000000E+00  0.44024837257E+03  0.44024837257E+03  0.00000000000E+00 0. -1.
         -1   -1    0    0    0  501 -0.00000000000E+00 -0.00000000000E+00 -0.49881210303E+02  0.49881210303E+02  0.00000000000E+00 0.  1.
         25    2    1    2    0    0  0.98981975779E+02  0.18113504509E+02  0.19312545549E+03  0.25109424454E+03  0.12500139002E+03 0.  0.
         23    2    1    2    0    0 -0.98981975779E+02 -0.18113504509E+02  0.19724170677E+03  0.23903533833E+03  0.90044830536E+02 0.  0.
          5    1    4    4  502    0 -0.37263576293E+02 -0.18190201074E+02  0.16308400496E+03  0.16833876621E+03  0.47000000000E+01 0. -1.
         -5    1    3    3    0  503  0.23187967298E+02  0.15442018647E+01 -0.15589782174E+02  0.28376005622E+02  0.47000000000E+01 0. -1.
          5    1    3    3  503    0  0.75794008481E+02  0.16569302644E+02  0.20871523766E+03  0.22271823891E+03  0.47000000000E+01 0. -1.
         -5    1    4    4    0  502 -0.61718399486E+02  0.76696564922E-01  0.34157701811E+02  0.70696572126E+02  0.47000000000E+01 0.  1.
<mgrwt>
<rscale>  0 0.15369370E+03</rscale>
<asrwt>0</asrwt>
<pdfrwt beam="1">  1        1 0.67730516E-01 0.16047080E+03</pdfrwt>
<pdfrwt beam="2">  1       -1 0.76740326E-02 0.16047080E+03</pdfrwt>
<totfact> 0.47695387E+03</totfact>
</mgrwt>
</event>
<event>
 8    1  0.3407580E-004  0.2372612E+03  0.7546771E-02  0.1124481E+00
         -2   -1    0    0    0  501 -0.00000000000E+00  0.00000000000E+00  0.86997535486E+02  0.86997535486E+02  0.00000000000E+00 0.  1.
          2   -1    0    0  501    0  0.00000000000E+00 -0.00000000000E+00 -0.60382226306E+03  0.60382226306E+03  0.00000000000E+00 0. -1.
         25    2    1    2    0    0 -0.19351161530E+03 -0.56762972080E+02 -0.27498843579E+03  0.36319627328E+03  0.12499645134E+03 0.  0.
         23    2    1    2    0    0  0.19351161530E+03  0.56762972080E+02 -0.24183629178E+03  0.32762352527E+03  0.90463263432E+02 0.  0.
          5    1    3    3  502    0 -0.57401610554E+02 -0.59979488137E+02 -0.41650133527E+02  0.93001653287E+02  0.47000000000E+01 0. -1.
         -5    1    4    4    0  503  0.10325263053E+03  0.75718117521E+02 -0.12903008026E+03  0.18183836406E+03  0.47000000000E+01 0.  1.
          5    1    4    4  503    0  0.90258984770E+02 -0.18955145441E+02 -0.11280621152E+03  0.14578516121E+03  0.47000000000E+01 0. -1.
         -5    1    3    3    0  502 -0.13611000475E+03  0.32165160570E+01 -0.23333830226E+03  0.27019461999E+03  0.47000000000E+01 0. -1.
<mgrwt>
<rscale>  0 0.23309385E+03</rscale>
<asrwt>0</asrwt>
<pdfrwt beam="1">  1        2 0.92895735E-01 0.23726123E+03</pdfrwt>
<pdfrwt beam="2">  1       -2 0.13384236E-01 0.23726123E+03</pdfrwt>
<totfact> 0.20627097E+03</totfact>
</mgrwt>
</event>
<event>
 8    1  0.3407580E-004  0.1644813E+03  0.7546771E-02  0.1190200E+00
          1   -1    0    0  501    0  0.00000000000E+00  0.00000000000E+00  0.14250161544E+03  0.14250161544E+03  0.00000000000E+00 0. -1.
         -1   -1    0    0    0  501 -0.00000000000E+00 -0.00000000000E+00 -0.20894522167E+03  0.20894522167E+03  0.00000000000E+00 0.  1.
         25    2    1    2    0    0 -0.17509894893E+02  0.10546537508E+03 -0.11527118501E+03  0.20085207133E+03  0.12499826681E+03 0.  0.
         23    2    1    2    0    0  0.17509894893E+02 -0.10546537508E+03  0.48827578786E+02  0.15059476578E+03  0.94154709227E+02 0.  0.
          5    1    4    4  502    0  0.30683673533E+02 -0.53174774032E+02  0.69319837721E+02  0.92716634519E+02  0.47000000000E+01 0. -1.
         -5    1    3    3    0  503  0.30916940755E+02  0.92642465418E+02 -0.11444905529E+03  0.15052959802E+03  0.47000000000E+01 0. -1.
          5    1    3    3  503    0 -0.48426835648E+02  0.12822909667E+02 -0.82212972595E+00  0.50322473314E+02  0.47000000000E+01 0. -1.
         -5    1    4    4    0  502 -0.13173778640E+02 -0.52290601053E+02 -0.20492258935E+02  0.57878131262E+02  0.47000000000E+01 0.  1.
<mgrwt>
<rscale>  0 0.15867560E+03</rscale>
<asrwt>0</asrwt>
<pdfrwt beam="1">  1        1 0.21923325E-01 0.16448133E+03</pdfrwt>
<pdfrwt beam="2">  1       -1 0.32145419E-01 0.16448133E+03</pdfrwt>
<totfact> 0.20181517E+03</totfact>
</mgrwt>
</event>
<event>
 8    1  0.3407580E-004  0.1502403E+03  0.7546771E-02  0.1206040E+00
         -1   -1    0    0    0  501 -0.00000000000E+00  0.00000000000E+00  0.17243213381E+03  0.17243213381E+03  0.00000000000E+00 0.  1.
          1   -1    0    0  501    0  0.00000000000E+00 -0.00000000000E+00 -0.12129895972E+03  0.12129895972E+03  0.00000000000E+00 0. -1.
         25    2    1    2    0    0 -0.49853766704E+02 -0.66779463701E+02 -0.41098357730E+01  0.15029652504E+03  0.12500903912E+03 0.  0.
         23    2    1    2    0    0  0.49853766704E+02  0.66779463701E+02  0.55243009870E+02  0.14343456849E+03  0.10284352421E+03 0.  0.
          5    1    4    4  502    0 -0.20177394276E+02  0.58046133035E+02  0.26459852278E+02  0.67072308613E+02  0.47000000000E+01 0. -1.
         -5    1    3    3    0  503 -0.41942109834E+02 -0.93607539905E+02  0.29000927681E+02  0.10669890304E+03  0.47000000000E+01 0.  1.
          5    1    3    3  503    0 -0.79116568695E+01  0.26828076204E+02 -0.33110763455E+02  0.43597621997E+02  0.47000000000E+01 0.  1.
         -5    1    4    4    0  502  0.70031160980E+02  0.87333306655E+01  0.28783157592E+02  0.76362259878E+02  0.47000000000E+01 0.  1.
<mgrwt>
<rscale>  0 0.14555826E+03</rscale>
<asrwt>0</asrwt>
<pdfrwt beam="1">  1        1 0.18661378E-01 0.15024032E+03</pdfrwt>
<pdfrwt beam="2">  1       -1 0.26528020E-01 0.15024032E+03</pdfrwt>
<totfact> 0.34092785E+03</totfact>
</mgrwt>
</event>
<event>
 8    1  0.3407580E-004  0.1448403E+03  0.7546771E-02  0.1217499E+00
          3   -1    0    0  501    0  0.00000000000E+00  0.00000000000E+00  0.23504500028E+02  0.23504500028E+02  0.00000000000E+00 0. -1.
         -3   -1    0    0    0  501 -0.00000000000E+00 -0.00000000000E+00 -0.73973931460E+03  0.73973931460E+03  0.00000000000E+00 0.  1.
         25    2    1    2    0    0  0.72377665441E+02 -0.10985412818E+02 -0.45540587122E+03  0.47788411604E+03  0.12497805838E+03 0.  0.
         23    2    1    2    0    0 -0.72377665441E+02  0.10985412818E+02 -0.26082894335E+03  0.28535969859E+03  0.89661664809E+02 0.  0.
          5    1    4    4  502    0 -0.14362058660E+02 -0.37199577258E+02 -0.93975642007E+02  0.10219387735E+03  0.47000000000E+01 0. -1.
         -5    1    4    4    0  502 -0.58015606781E+02  0.48184990076E+02 -0.16685330135E+03  0.18316582124E+03  0.47000000000E+01 0.  1.
          5    1    3    3  503    0  0.61617094639E+02 -0.58447573966E+02 -0.36829932775E+03  0.37799374343E+03  0.47000000000E+01 0. -1.
         -5    1    3    3    0  503  0.10760570802E+02  0.47462161148E+02 -0.87106543468E+02  0.99890372608E+02  0.47000000000E+01 0. -1.
<mgrwt>
<rscale>  0 0.13694583E+03</rscale>
<asrwt>0</asrwt>
<pdfrwt beam="1">  1        3 0.36160765E-02 0.14484033E+03</pdfrwt>
<pdfrwt beam="2">  1       -3 0.11380606E+00 0.14484033E+03</pdfrwt>
<totfact> 0.59690257E+02</totfact>
</mgrwt>
</event>
<event>
 8    1  0.3407580E-004  0.1513531E+03  0.7546771E-02  0.1207990E+00
          1   -1    0    0  501    0  0.00000000000E+00  0.00000000000E+00  0.38169790085E+03  0.38169790085E+03  0.00000000000E+00 0. -1.
         -1   -1    0    0    0  501 -0.00000000000E+00 -0.00000000000E+00 -0.53298299598E+02  0.53298299598E+02  0.00000000000E+00 0.  1.
         25    2    1    2    0    0  0.12095057229E+02 -0.84479397153E+02  0.12320163013E+03  0.19515735718E+03  0.12499877376E+03 0.  0.
         23    2    1    2    0    0 -0.12095057229E+02  0.84479397153E+02  0.20519797112E+03  0.23983884327E+03  0.90185389265E+02 0.  0.
          5    1    3    3  502    0  0.20704568539E+02  0.73257533281E+01 -0.16383473669E+02  0.27800252331E+02  0.47000000000E+01 0.  1.
         -5    1    3    3    0  502 -0.86095113100E+01 -0.91805150481E+02  0.13958510380E+03  0.16735710485E+03  0.47000000000E+01 0.  1.
          5    1    4    4  503    0 -0.26646035546E+02  0.88195011763E+01  0.12628129081E+03  0.12944824919E+03  0.47000000000E+01 0. -1.
         -5    1    4    4    0  503  0.14550978317E+02  0.75659895977E+02  0.78916680316E+02  0.11039059408E+03  0.47000000000E+01 0.  1.
<mgrwt>
<rscale>  0 0.14404279E+03</rscale>
<asrwt>0</asrwt>
<pdfrwt beam="1">  1        1 0.58722752E-01 0.15135307E+03</pdfrwt>
<pdfrwt beam="2">  1       -1 0.81997387E-02 0.15135307E+03</pdfrwt>
<totfact> 0.51565633E+03</totfact>
</mgrwt>
</event>
<event>
 8    1  0.3407580E-004  0.1250778E+03  0.7546771E-02  0.1249563E+00
         -3   -1    0    0    0  501 -0.00000000000E+00  0.00000000000E+00  0.13954201026E+03  0.13954201026E+03  0.00000000000E+00 0.  1.
          3   -1    0    0  501    0  0.00000000000E+00 -0.00000000000E+00 -0.96606586885E+02  0.96606586885E+02  0.00000000000E+00 0. -1.
         25    2    1    2    0    0 -0.31858660082E+01 -0.28558956306E+01 -0.15852704117E+02  0.12607839810E+03  0.12500459335E+03 0.  0.
         23    2    1    2    0    0  0.31858660082E+01  0.28558956306E+01  0.58788127489E+02  0.11007019904E+03  0.92957511264E+02 0.  0.
          5    1    4    4  502    0  0.84361959263E+00 -0.44157317698E+02  0.19207684376E+02  0.48390138866E+02  0.47000000000E+01 0. -1.
         -5    1    4    4    0  502  0.23422464156E+01  0.47013213329E+02  0.39580443113E+02  0.61680060172E+02  0.47000000000E+01 0.  1.
          5    1    3    3  503    0 -0.39012912032E+02  0.48013744273E+02 -0.14258651001E+02  0.63661024753E+02  0.47000000000E+01 0. -1.
         -5    1    3    3    0  503  0.35827046024E+02 -0.50869639903E+02 -0.15940531157E+01  0.62417373351E+02  0.47000000000E+01 0. -1.
<mgrwt>
<rscale>  0 0.11616389E+03</rscale>
<asrwt>0</asrwt>
<pdfrwt beam="1">  1        3 0.14862552E-01 0.12507779E+03</pdfrwt>
<pdfrwt beam="2">  1       -3 0.21468002E-01 0.12507779E+03</pdfrwt>
<totfact> 0.16881583E+03</totfact>
</mgrwt>
</event>
<event>
 8    1  0.3407580E-004  0.1304952E+03  0.7546771E-02  0.1241335E+00
          2   -1    0    0  501    0  0.00000000000E+00  0.00000000000E+00  0.25068450048E+02  0.25068450048E+02  0.00000000000E+00 0. -1.
         -2   -1    0    0    0  501 -0.00000000000E+00 -0.00000000000E+00 -0.56474868660E+03  0.56474868660E+03  0.00000000000E+00 0.  1.
         25    2    1    2    0    0 -0.55127124175E+01 -0.36979912772E+02 -0.21958461721E+03  0.25543375388E+03  0.12502437585E+03 0.  0.
         23    2    1    2    0    0  0.55127124175E+01  0.36979912772E+02 -0.32009561934E+03  0.33438338278E+03  0.89180363355E+02 0.  0.
          5    1    3    3  502    0 -0.55029268209E+02 -0.42990411268E+02 -0.17458242291E+03  0.18808909646E+03  0.47000000000E+01 0.  1.
         -5    1    3    3    0  502  0.49516555791E+02  0.60104984956E+01 -0.45002194306E+02  0.67344657412E+02  0.47000000000E+01 0.  1.
          5    1    4    4  503    0  0.42827841760E+02  0.37160720191E+02 -0.15654547510E+03  0.16656445878E+03  0.47000000000E+01 0. -1.
         -5    1    4    4    0  503 -0.37315129342E+02 -0.18080741940E+00 -0.16355014424E+03  0.16781892400E+03  0.47000000000E+01 0.  1.
<mgrwt>
<rscale>  0 0.12107470E+03</rscale>
<asrwt>0</asrwt>
<pdfrwt beam="1">  1        2 0.38566852E-02 0.13049520E+03</pdfrwt>
<pdfrwt beam="2">  1       -2 0.86884401E-01 0.13049520E+03</pdfrwt>
<totfact> 0.25155326E+03</totfact>
</mgrwt>
</event>
<event>
 8    1  0.3407580E-004  0.1269839E+03  0.7546771E-02  0.1247305E+00
         -2   -1    0    0    0  501 -0.00000000000E+00  0.00000000000E+00  0.10410457511E+02  0.10410457511E+02  0.00000000000E+00 0.  1.
          2   -1    0    0  501    0  0.00000000000E+00 -0.00000000000E+00 -0.12309573564E+04  0.12309573564E+04  0.00000000000E+00 0. -1.
         25    2    1    2    0    0  0.11426597390E+01  0.22305209045E+02 -0.55454342548E+03  0.56889657757E+03  0.12500430875E+03 0.  0.
         23    2    1    2    0    0 -0.11426597390E+01 -0.22305209045E+02 -0.66600347339E+03  0.67247123632E+03  0.90322251357E+02 0.  0.
          5    1    3    3  502    0  0.48745367259E+02  0.20741590039E+02 -0.45865231416E+03  0.46172541588E+03  0.47000000000E+01 0.  1.
         -5    1    4    4    0  503 -0.97156234945E+01 -0.56313869206E+02 -0.38431954250E+03  0.38857334694E+03  0.47000000000E+01 0.  1.
          5    1    4    4  503    0  0.85729637555E+01  0.34008660161E+02 -0.28168393089E+03  0.28389788938E+03  0.47000000000E+01 0. -1.
         -5    1    3    3    0  502 -0.47602707520E+02  0.15636190062E+01 -0.95891111322E+02  0.10717116169E+03  0.47000000000E+01 0.  1.
<mgrwt>
<rscale>  0 0.11748488E+03</rscale>
<asrwt>0</asrwt>
<pdfrwt beam="1">  1        2 0.18937801E+00 0.12698388E+03</pdfrwt>
<pdfrwt beam="2">  1       -2 0.16016092E-02 0.12698388E+03</pdfrwt>
<totfact> 0.19635830E+04</totfact>
</mgrwt>
</event>
<event>
 8    1  0.3407580E-004  0.1255152E+03  0.7546771E-02  0.1249725E+00
          2   -1    0    0  501    0  0.00000000000E+00  0.00000000000E+00  0.11923995264E+03  0.11923995264E+03  0.00000000000E+00 0. -1.
         -2   -1    0    0    0  501 -0.00000000000E+00 -0.00000000000E+00 -0.99470506116E+02  0.99470506116E+02  0.00000000000E+00 0.  1.
         25    2    1    2    0    0  0.56676337347E+01  0.98759531757E+01  0.40094186975E+01  0.12557918217E+03  0.12499759611E+03 0.  0.
         23    2    1    2    0    0 -0.56676337347E+01 -0.98759531757E+01  0.15760027821E+02  0.93131276583E+02  0.91079084744E+02 0.  0.
          5    1    4    4  502    0 -0.34950726036E+02  0.18093098454E+02  0.30256706229E+02  0.49864533828E+02  0.47000000000E+01 0. -1.
         -5    1    4    4    0  502  0.29283092301E+02 -0.27969051630E+02 -0.14496678407E+02  0.43266742755E+02  0.47000000000E+01 0.  1.
          5    1    3    3  503    0  0.64833821344E+02  0.54389020431E+00  0.72551293192E+01  0.65409839535E+02  0.47000000000E+01 0. -1.
         -5    1    3    3    0  503 -0.59166187609E+02  0.93320629714E+01 -0.32457106217E+01  0.60169342633E+02  0.47000000000E+01 0. -1.
<mgrwt>
<rscale>  0 0.11606967E+03</rscale>
<asrwt>0</asrwt>
<pdfrwt beam="1">  1        2 0.18344608E-01 0.12551516E+03</pdfrwt>
<pdfrwt beam="2">  1       -2 0.15303155E-01 0.12551516E+03</pdfrwt>
<totfact> 0.95068448E+03</totfact>
</mgrwt>
</event>
<event>
 8    1  0.3407580E-004  0.1521846E+03  0.7546771E-02  0.1205623E+00
          1   -1    0    0  501    0  0.00000000000E+00  0.00000000000E+00  0.55626987061E+03  0.55626987061E+03  0.00000000000E+00 0. -1.
         -1   -1    0    0    0  501 -0.00000000000E+00 -0.00000000000E+00 -0.35447856764E+02  0.35447856764E+02  0.00000000000E+00 0.  1.
         25    2    1    2    0    0 -0.62257322223E+02  0.60478884843E+02  0.27259899051E+03  0.31220245263E+03  0.12500596834E+03 0.  0.
         23    2    1    2    0    0  0.62257322223E+02 -0.60478884843E+02  0.24822302334E+03  0.27951527475E+03  0.94765235277E+02 0.  0.
          5    1    3    3  502    0  0.32182654355E+02  0.33290801660E+02  0.47303181412E+02  0.66360241773E+02  0.47000000000E+01 0.  1.
         -5    1    3    3    0  502 -0.94439976578E+02  0.27188083184E+02  0.22529580909E+03  0.24584221086E+03  0.47000000000E+01 0.  1.
          5    1    4    4  503    0  0.56222894160E+02 -0.29227858719E+02  0.23711078257E+03  0.24547687216E+03  0.47000000000E+01 0. -1.
         -5    1    4    4    0  503  0.60344280630E+01 -0.31251026124E+02  0.11112240773E+02  0.34038402590E+02  0.47000000000E+01 0.  1.
<mgrwt>
<rscale>  0 0.14588479E+03</rscale>
<asrwt>0</asrwt>
<pdfrwt beam="1">  1        1 0.85579973E-01 0.15218463E+03</pdfrwt>
<pdfrwt beam="2">  1       -1 0.54535168E-02 0.15218463E+03</pdfrwt>
<totfact> 0.58448156E+03</totfact>
</mgrwt>
</event>
<event>
 8    1  0.3407580E-004  0.1405222E+03  0.7546771E-02  0.1224140E+00
         -1   -1    0    0    0  501 -0.00000000000E+00  0.00000000000E+00  0.28774045702E+02  0.28774045702E+02  0.00000000000E+00 0.  1.
          1   -1    0    0  501    0  0.00000000000E+00 -0.00000000000E+00 -0.55032222939E+03  0.55032222939E+03  0.00000000000E+00 0. -1.
         25    2    1    2    0    0  0.45852070460E+02  0.44923507302E+02 -0.26803646296E+03  0.30263843306E+03  0.12500376722E+03 0.  0.
         23    2    1    2    0    0 -0.45852070460E+02 -0.44923507302E+02 -0.25351172073E+03  0.27645784203E+03  0.89667229229E+02 0.  0.
          5    1    4    4  502    0  0.42305827826E+01 -0.30360560190E+02 -0.19694586972E+03  0.19937258348E+03  0.47000000000E+01 0. -1.
         -5    1    3    3    0  503 -0.34247529930E+02  0.12987162086E+02 -0.24686713753E+02  0.44419404783E+02  0.47000000000E+01 0. -1.
          5    1    3    3  503    0  0.80099600389E+02  0.31936345216E+02 -0.24334974920E+03  0.25821902828E+03  0.47000000000E+01 0. -1.
         -5    1    4    4    0  502 -0.50082653242E+02 -0.14562947112E+02 -0.56565851017E+02  0.77085258550E+02  0.47000000000E+01 0.  1.
<mgrwt>
<rscale>  0 0.13226003E+03</rscale>
<asrwt>0</asrwt>
<pdfrwt beam="1">  1        1 0.84664960E-01 0.14052215E+03</pdfrwt>
<pdfrwt beam="2">  1       -1 0.44267762E-02 0.14052215E+03</pdfrwt>
<totfact> 0.80394095E+03</totfact>
</mgrwt>
</event>
<event>
 8    1  0.3407580E-004  0.1343899E+03  0.7546771E-02  0.1233532E+00
         -2   -1    0    0    0  501 -0.00000000000E+00  0.00000000000E+00  0.21410037903E+03  0.21410037903E+03  0.00000000000E+00 0. -1.
          2   -1    0    0  501    0  0.00000000000E+00 -0.00000000000E+00 -0.69122786439E+02  0.69122786439E+02  0.00000000000E+00 0.  1.
         25    2    1    2    0    0  0.15916864402E+02 -0.46708925561E+02  0.52774487665E+02  0.14438070031E+03  0.12500227908E+03 0.  0.
         23    2    1    2    0    0 -0.15916864402E+02  0.46708925561E+02  0.92203104930E+02  0.13884246516E+03  0.91327691713E+02 0.  0.
          5    1    4    4  502    0 -0.36807063949E+02  0.12549631782E+02  0.90359848704E+02  0.98484747409E+02  0.47000000000E+01 0. -1.
         -5    1    3    3    0  503  0.15467076999E+01 -0.65276503595E+02  0.83070384516E+02  0.10576480043E+03  0.47000000000E+01 0. -1.
          5    1    3    3  503    0  0.14370156703E+02  0.18567578034E+02 -0.30295896851E+02  0.38615899882E+02  0.47000000000E+01 0. -1.
         -5    1    4    4    0  502  0.20890199546E+02  0.34159293779E+02  0.18432562257E+01  0.40357717751E+02  0.47000000000E+01 0.  1.
<mgrwt>
<rscale>  0 0.12598859E+03</rscale>
<asrwt>0</asrwt>
<pdfrwt beam="1">  1        2 0.10634275E-01 0.13438988E+03</pdfrwt>
<pdfrwt beam="2">  1       -2 0.32938520E-01 0.13438988E+03</pdfrwt>
<totfact> 0.48565847E+03</totfact>
</mgrwt>
</event>
<event>
 8    1  0.3407580E-004  0.2135806E+03  0.7546771E-02  0.1142286E+00
         -1   -1    0    0    0  501 -0.00000000000E+00  0.00000000000E+00  0.11509546778E+03  0.11509546778E+03  0.00000000000E+00 0.  1.
          1   -1    0    0  501    0  0.00000000000E+00 -0.00000000000E+00 -0.36822806373E+03  0.36822806373E+03  0.00000000000E+00 0. -1.
         25    2    1    2    0    0  0.16259664602E+03  0.59605042334E+02 -0.10832387493E+03  0.23948012558E+03  0.12500495310E+03 0.  0.
         23    2    1    2    0    0 -0.16259664602E+03 -0.59605042334E+02 -0.14480872101E+03  0.24384340593E+03  0.92193332541E+02 0.  0.
          5    1    4    4  502    0 -0.10375985413E+03 -0.73530851221E+02 -0.12892375928E+03  0.18115275078E+03  0.47000000000E+01 0. -1.
         -5    1    4    4    0  502 -0.58836791891E+02  0.13925808887E+02 -0.15884961735E+02  0.62690655145E+02  0.47000000000E+01 0.  1.
          5    1    3    3  503    0  0.27450834941E+02  0.43737086428E+02  0.16858945516E+02  0.54523344652E+02  0.47000000000E+01 0.  1.
         -5    1    3    3    0  503  0.13514581108E+03  0.15867955905E+02 -0.12518282045E+03  0.18495678093E+03  0.47000000000E+01 0.  1.
<mgrwt>
<rscale>  0 0.20909319E+03</rscale>
<asrwt>0</asrwt>
<pdfrwt beam="1">  1        1 0.56650471E-01 0.21358059E+03</pdfrwt>
<pdfrwt beam="2">  1       -1 0.17706995E-01 0.21358059E+03</pdfrwt>
<totfact> 0.16491818E+03</totfact>
</mgrwt>
</event>
<event>
 8    1  0.3407580E-004  0.3117674E+03  0.7546771E-02  0.1080903E+00
         -1   -1    0    0    0  501 -0.00000000000E+00  0.00000000000E+00  0.56984055203E+03  0.56984055203E+03  0.00000000000E+00 0.  1.
          1   -1    0    0  501    0  0.00000000000E+00 -0.00000000000E+00 -0.16663967243E+03  0.16663967243E+03  0.00000000000E+00 0. -1.
         25    2    1    2    0    0 -0.13470249338E+03 -0.25184891927E+03  0.24885733367E+03  0.39890960775E+03  0.12500505099E+03 0.  0.
         23    2    1    2    0    0  0.13470249338E+03  0.25184891927E+03  0.15434354592E+03  0.33757061670E+03  0.92516761895E+02 0.  0.
          5    1    3    3  502    0 -0.10568504212E+03 -0.24453079218E+03  0.25408892619E+03  0.36816831594E+03  0.47000000000E+01 0. -1.
         -5    1    4    4    0  503  0.63512922268E+02  0.79931258759E+02  0.11304206340E+02  0.10282398797E+03  0.47000000000E+01 0.  1.
          5    1    4    4  503    0  0.71189571116E+02  0.17191766051E+03  0.14303933958E+03  0.23474662873E+03  0.47000000000E+01 0. -1.
         -5    1    3    3    0  502 -0.29017451260E+02 -0.73181270939E+01 -0.52315925194E+01  0.30741291809E+02  0.47000000000E+01 0. -1.
<mgrwt>
<rscale>  0 0.30883953E+03</rscale>
<asrwt>0</asrwt>
<pdfrwt beam="1">  1        1 0.25636873E-01 0.31176739E+03</pdfrwt>
<pdfrwt beam="2">  1       -1 0.87667776E-01 0.31176739E+03</pdfrwt>
<totfact> 0.24962677E+02</totfact>
</mgrwt>
</event>
<event>
 8    1  0.3407580E-004  0.2494706E+03  0.7546771E-02  0.1116313E+00
          2   -1    0    0  501    0  0.00000000000E+00  0.00000000000E+00  0.11572998014E+03  0.11572998014E+03  0.00000000000E+00 0. -1.
         -2   -1    0    0    0  501 -0.00000000000E+00 -0.00000000000E+00 -0.50569578133E+03  0.50569578133E+03  0.00000000000E+00 0.  1.
         25    2    1    2    0    0 -0.17277176145E+03 -0.12945680396E+03 -0.22312607793E+03  0.33469511439E+03  0.12500570904E+03 0.  0.
         23    2    1    2    0    0  0.17277176145E+03  0.12945680396E+03 -0.16683972326E+03  0.28673064708E+03  0.88146611235E+02 0.  0.
          5    1    4    4  502    0  0.75429408546E+02  0.49413960450E+02 -0.18757478988E+02  0.92224010860E+02  0.47000000000E+01 0. -1.
         -5    1    4    4    0  502  0.97342352903E+02  0.80042843508E+02 -0.14808224427E+03  0.19450663622E+03  0.47000000000E+01 0.  1.
          5    1    3    3  503    0 -0.15439726498E+03 -0.55808059802E+02 -0.19162071034E+03  0.25237599253E+03  0.47000000000E+01 0. -1.
         -5    1    3    3    0  503 -0.18374496466E+02 -0.73648744156E+02 -0.31505367595E+02  0.82319121858E+02  0.47000000000E+01 0. -1.
<mgrwt>
<rscale>  0 0.24529765E+03</rscale>
<asrwt>0</asrwt>
<pdfrwt beam="1">  1        2 0.17804613E-01 0.24947059E+03</pdfrwt>
<pdfrwt beam="2">  1       -2 0.77799350E-01 0.24947059E+03</pdfrwt>
<totfact> 0.48232923E+02</totfact>
</mgrwt>
</event>
<event>
 8    1  0.3407580E-004  0.1282068E+03  0.7546771E-02  0.1244374E+00
          3   -1    0    0  501    0  0.00000000000E+00  0.00000000000E+00  0.58299762354E+03  0.58299762354E+03  0.00000000000E+00 0. -1.
         -3   -1    0    0    0  501 -0.00000000000E+00 -0.00000000000E+00 -0.30541016744E+02  0.30541016744E+02  0.00000000000E+00 0.  1.
         25    2    1    2    0    0  0.27523802533E+02 -0.75486224464E+01  0.13896181130E+03  0.18906972326E+03  0.12498973497E+03 0.  0.
         23    2    1    2    0    0 -0.27523802533E+02  0.75486224464E+01  0.41349479550E+03  0.42446891702E+03  0.91549845504E+02 0.  0.
          5    1    3    3  502    0 -0.43155359014E+01 -0.46682454688E+02  0.68969696590E+01  0.47618626778E+02  0.47000000000E+01 0. -1.
         -5    1    4    4    0  503  0.32968770722E+02  0.19727837088E+01  0.18532856797E+03  0.18830719536E+03  0.47000000000E+01 0.  1.
          5    1    4    4  503    0 -0.60492573255E+02  0.55758387376E+01  0.22816622753E+03  0.23616172167E+03  0.47000000000E+01 0. -1.
         -5    1    3    3    0  502  0.31839338434E+02  0.39133832241E+02  0.13206484164E+03  0.14145109648E+03  0.47000000000E+01 0. -1.
<mgrwt>
<rscale>  0 0.11922919E+03</rscale>
<asrwt>0</asrwt>
<pdfrwt beam="1">  1        3 0.89691934E-01 0.12820677E+03</pdfrwt>
<pdfrwt beam="2">  1       -3 0.46986184E-02 0.12820677E+03</pdfrwt>
<totfact> 0.66972084E+02</totfact>
</mgrwt>
</event>
<event>
 8    1  0.3407580E-004  0.1808290E+03  0.7546771E-02  0.1172877E+00
         -1   -1    0    0    0  501 -0.00000000000E+00  0.00000000000E+00  0.26219281240E+02  0.26219281240E+02  0.00000000000E+00 0.  1.
          1   -1    0    0  501    0  0.00000000000E+00 -0.00000000000E+00 -0.10987909469E+04  0.10987909469E+04  0.00000000000E+00 0. -1.
         25    2    1    2    0    0 -0.73285192430E+02  0.10818370233E+03 -0.54035425574E+03  0.56980862093E+03  0.12499883964E+03 0.  0.
         23    2    1    2    0    0  0.73285192430E+02 -0.10818370233E+03 -0.53221740987E+03  0.55520160716E+03  0.88988877658E+02 0.  0.
          5    1    3    3  502    0 -0.24610965828E+02  0.66381729041E+02 -0.88658623991E+02  0.11355472336E+03  0.47000000000E+01 0. -1.
         -5    1    4    4    0  503  0.14296884976E+02  0.15108137959E+02 -0.69585937808E+02  0.72780144911E+02  0.47000000000E+01 0.  1.
          5    1    4    4  503    0  0.58988307454E+02 -0.12329184029E+03 -0.46263147206E+03  0.48242146225E+03  0.47000000000E+01 0. -1.
         -5    1    3    3    0  502 -0.48674226602E+02  0.41801973286E+02 -0.45169563175E+03  0.45625389757E+03  0.47000000000E+01 0. -1.
<mgrwt>
<rscale>  0 0.17485555E+03</rscale>
<asrwt>0</asrwt>
<pdfrwt beam="1">  1        1 0.16904477E+00 0.18082904E+03</pdfrwt>
<pdfrwt beam="2">  1       -1 0.40337353E-02 0.18082904E+03</pdfrwt>
<totfact> 0.32568329E+03</totfact>
</mgrwt>
</event>
<event>
 8    1  0.3407580E-004  0.1626312E+03  0.7546771E-02  0.1194024E+00
         -1   -1    0    0    0  501 -0.00000000000E+00  0.00000000000E+00  0.40062990429E+02  0.40062990429E+02  0.00000000000E+00 0. -1.
          1   -1    0    0  501    0  0.00000000000E+00 -0.00000000000E+00 -0.74515333420E+03  0.74515333420E+03  0.00000000000E+00 0.  1.
         25    2    1    2    0    0  0.64715100239E+02 -0.81460600380E+02 -0.57438796368E+03  0.59696771635E+03  0.12500019170E+03 0.  0.
         23    2    1    2    0    0 -0.64715100239E+02  0.81460600380E+02 -0.13070238008E+03  0.18824860828E+03  0.86778757455E+02 0.  0.
          5    1    4    4  502    0  0.16332020231E+02  0.37078715171E+02 -0.25295630759E+02  0.47995051194E+02  0.47000000000E+01 0.  1.
         -5    1    3    3    0  503  0.81719460756E+02 -0.11814645381E+02 -0.39813560957E+03  0.40663461451E+03  0.47000000000E+01 0. -1.
          5    1    3    3  503    0 -0.17004360516E+02 -0.69645954999E+02 -0.17625235411E+03  0.19033310183E+03  0.47000000000E+01 0. -1.
         -5    1    4    4    0  502 -0.81047120471E+02  0.44381885209E+02 -0.10540674933E+03  0.14025355708E+03  0.47000000000E+01 0. -1.
<mgrwt>
<rscale>  0 0.15537123E+03</rscale>
<asrwt>0</asrwt>
<pdfrwt beam="1">  1        1 0.11463897E+00 0.16263124E+03</pdfrwt>
<pdfrwt beam="2">  1       -1 0.61635372E-02 0.16263124E+03</pdfrwt>
<totfact> 0.32419322E+03</totfact>
</mgrwt>
</event>
<event>
 8    1  0.3407580E-004  0.1821022E+03  0.7546771E-02  0.1171392E+00
          1   -1    0    0  501    0  0.00000000000E+00  0.00000000000E+00  0.23567458900E+02  0.23567458900E+02  0.00000000000E+00 0. -1.
         -1   -1    0    0    0  501 -0.00000000000E+00 -0.00000000000E+00 -0.12633827801E+04  0.12633827801E+04  0.00000000000E+00 0.  1.
         25    2    1    2    0    0 -0.36346136951E+02 -0.12734761160E+03 -0.74181764507E+03  0.76384202740E+03  0.12499107346E+03 0.  0.
         23    2    1    2    0    0  0.36346136951E+02  0.12734761160E+03 -0.49799767610E+03  0.52310821156E+03  0.90011442343E+02 0.  0.
          5    1    4    4  502    0  0.53051240379E+02  0.74812056981E+02 -0.40155645981E+03  0.41192348608E+03  0.47000000000E+01 0.  1.
         -5    1    4    4    0  502 -0.16705103428E+02  0.52535554621E+02 -0.96441216295E+02  0.11118472548E+03  0.47000000000E+01 0. -1.
          5    1    3    3  503    0  0.24729414772E+02 -0.68773183762E+02 -0.54009738260E+03  0.54503996867E+03  0.47000000000E+01 0. -1.
         -5    1    3    3    0  503 -0.61075551723E+02 -0.58574427841E+02 -0.20172026247E+03  0.21880205873E+03  0.47000000000E+01 0. -1.
<mgrwt>
<rscale>  0 0.17634060E+03</rscale>
<asrwt>0</asrwt>
<pdfrwt beam="1">  1        1 0.36257614E-02 0.18210224E+03</pdfrwt>
<pdfrwt beam="2">  1       -1 0.19436666E+00 0.18210224E+03</pdfrwt>
<totfact> 0.47447845E+02</totfact>
</mgrwt>
</event>
<event>
 8    1  0.3407580E-004  0.1773946E+03  0.7546771E-02  0.1176209E+00
          1   -1    0    0  501    0  0.00000000000E+00  0.00000000000E+00  0.23337112464E+03  0.23337112464E+03  0.00000000000E+00 0. -1.
         -1   -1    0    0    0  501 -0.00000000000E+00 -0.00000000000E+00 -0.13539445757E+03  0.13539445757E+03  0.00000000000E+00 0.  1.
         25    2    1    2    0    0  0.46076538905E+02  0.11714024882E+03  0.11676636686E+03  0.21237521158E+03  0.12499584286E+03 0.  0.
         23    2    1    2    0    0 -0.46076538905E+02 -0.11714024882E+03 -0.18789699784E+02  0.15639037063E+03  0.90884596487E+02 0.  0.
          5    1    4    4  502    0 -0.48233671948E+02 -0.26053270968E+02  0.18185487674E+02  0.57948787732E+02  0.47000000000E+01 0. -1.
         -5    1    4    4    0  502  0.21571330429E+01 -0.91086977848E+02 -0.36975187458E+02  0.98441582901E+02  0.47000000000E+01 0.  1.
          5    1    3    3  503    0 -0.26041767358E+02  0.92770345823E+02  0.40849661281E+02  0.10476304472E+03  0.47000000000E+01 0. -1.
         -5    1    3    3    0  503  0.72118306263E+02  0.24369902993E+02  0.75916705581E+02  0.10761216686E+03  0.47000000000E+01 0. -1.
<mgrwt>
<rscale>  0 0.17158071E+03</rscale>
<asrwt>0</asrwt>
<pdfrwt beam="1">  1        1 0.35903250E-01 0.17739461E+03</pdfrwt>
<pdfrwt beam="2">  1       -1 0.20829917E-01 0.17739461E+03</pdfrwt>
<totfact> 0.22365649E+03</totfact>
</mgrwt>
</event>
<event>
 8    1  0.3407580E-004  0.1384064E+03  0.7546771E-02  0.1226896E+00
          2   -1    0    0  501    0  0.00000000000E+00  0.00000000000E+00  0.10077626083E+04  0.10077626083E+04  0.00000000000E+00 0. -1.
         -2   -1    0    0    0  501 -0.00000000000E+00 -0.00000000000E+00 -0.16786098332E+02  0.16786098332E+02  0.00000000000E+00 0.  1.
         25    2    1    2    0    0  0.35587494840E+02 -0.47623060361E+02  0.39146297881E+03  0.41521029126E+03  0.12498758545E+03 0.  0.
         23    2    1    2    0    0 -0.35587494840E+02  0.47623060361E+02  0.59951353112E+03  0.60933841534E+03  0.91336765579E+02 0.  0.
          5    1    3    3  502    0  0.27841738732E+02 -0.85388274709E+02  0.33368825103E+03  0.34559551321E+03  0.47000000000E+01 0.  1.
         -5    1    4    4    0  503 -0.77496698506E+01  0.70345271717E+02  0.34109551315E+03  0.34839166713E+03  0.47000000000E+01 0.  1.
          5    1    4    4  503    0 -0.27837824989E+02 -0.22722211356E+02  0.25841801798E+03  0.26094674821E+03  0.47000000000E+01 0. -1.
         -5    1    3    3    0  502  0.77457561080E+01  0.37765214348E+02  0.57774727779E+02  0.69614778046E+02  0.47000000000E+01 0.  1.
<mgrwt>
<rscale>  0 0.13037809E+03</rscale>
<asrwt>0</asrwt>
<pdfrwt beam="1">  1        2 0.15504035E+00 0.13840637E+03</pdfrwt>
<pdfrwt beam="2">  1       -2 0.25824775E-02 0.13840637E+03</pdfrwt>
<totfact> 0.13219349E+04</totfact>
</mgrwt>
</event>
<event>
 8    1  0.3407580E-004  0.1509520E+03  0.7546771E-02  0.1208634E+00
         -2   -1    0    0    0  501 -0.00000000000E+00  0.00000000000E+00  0.14014550553E+02  0.14014550553E+02  0.00000000000E+00 0.  1.
          2   -1    0    0  501    0  0.00000000000E+00 -0.00000000000E+00 -0.13515041489E+04  0.13515041489E+04  0.00000000000E+00 0. -1.
         25    2    1    2    0    0 -0.79923353686E+02  0.27821250001E+02 -0.78895789008E+03  0.80326898513E+03  0.12499898295E+03 0.  0.
         23    2    1    2    0    0  0.79923353686E+02 -0.27821250001E+02 -0.54853170830E+03  0.56224971436E+03  0.89866244299E+02 0.  0.
          5    1    3    3  502    0 -0.28670599941E+01  0.63949866748E+02 -0.39651910334E+03  0.40168058803E+03  0.47000000000E+01 0.  1.
         -5    1    4    4    0  503  0.91403161976E+02  0.15594685558E+01 -0.40336413080E+03  0.41362021466E+03  0.47000000000E+01 0.  1.
          5    1    4    4  503    0 -0.11479808290E+02 -0.29380718556E+02 -0.14516757750E+03  0.14862949969E+03  0.47000000000E+01 0. -1.
         -5    1    3    3    0  502 -0.77056293692E+02 -0.36128616747E+02 -0.39243878674E+03  0.40158839710E+03  0.47000000000E+01 0.  1.
<mgrwt>
<rscale>  0 0.14354700E+03</rscale>
<asrwt>0</asrwt>
<pdfrwt beam="1">  1        2 0.20792380E+00 0.15095201E+03</pdfrwt>
<pdfrwt beam="2">  1       -2 0.21560838E-02 0.15095201E+03</pdfrwt>
<totfact> 0.11090264E+04</totfact>
</mgrwt>
</event>
<event>
 8    1  0.3407580E-004  0.2059173E+03  0.7546771E-02  0.1149214E+00
         -1   -1    0    0    0  501 -0.00000000000E+00  0.00000000000E+00  0.41788240386E+03  0.41788240386E+03  0.00000000000E+00 0.  1.
          1   -1    0    0  501    0  0.00000000000E+00 -0.00000000000E+00 -0.12121026521E+03  0.12121026521E+03  0.00000000000E+00 0. -1.
         25    2    1    2    0    0 -0.73680981546E+02 -0.14610738338E+03  0.21261990287E+02  0.20701207676E+03  0.12500269267E+03 0.  0.
         23    2    1    2    0    0  0.73680981546E+02  0.14610738338E+03  0.27541014837E+03  0.33208059231E+03  0.87467224984E+02 0.  0.
          5    1    3    3  502    0 -0.46043692066E+01 -0.11633065012E+03  0.49409061204E+02  0.12655973176E+03  0.47000000000E+01 0. -1.
         -5    1    3    3    0  502 -0.69076612340E+02 -0.29776733258E+02 -0.28147070917E+02  0.80452345007E+02  0.47000000000E+01 0. -1.
          5    1    4    4  503    0  0.52837943529E+02  0.24629431003E+02  0.12151430379E+03  0.13485649103E+03  0.47000000000E+01 0. -1.
         -5    1    4    4    0  503  0.20843038017E+02  0.12147795238E+03  0.15389584458E+03  0.19722410128E+03  0.47000000000E+01 0.  1.
<mgrwt>
<rscale>  0 0.20062342E+03</rscale>
<asrwt>0</asrwt>
<pdfrwt beam="1">  1        1 0.18647733E-01 0.20591728E+03</pdfrwt>
<pdfrwt beam="2">  1       -1 0.64289600E-01 0.20591728E+03</pdfrwt>
<totfact> 0.71028384E+02</totfact>
</mgrwt>
</event>
<event>
 8    1  0.3407580E-004  0.1395593E+03  0.7546771E-02  0.1225206E+00
         -1   -1    0    0    0  501 -0.00000000000E+00  0.00000000000E+00  0.30228716888E+02  0.30228716888E+02  0.00000000000E+00 0.  1.
          1   -1    0    0  501    0  0.00000000000E+00 -0.00000000000E+00 -0.58696177996E+03  0.58696177996E+03  0.00000000000E+00 0. -1.
         25    2    1    2    0    0 -0.57196858328E+02  0.24088919621E+02 -0.41423369230E+03  0.43711138489E+03  0.12500021727E+03 0.  0.
         23    2    1    2    0    0  0.57196858328E+02 -0.24088919621E+02 -0.14249937077E+03  0.18007911195E+03  0.90943164888E+02 0.  0.
          5    1    3    3  502    0  0.19626338733E+02 -0.33882710557E+02 -0.78883700584E+02  0.88192740430E+02  0.47000000000E+01 0.  1.
         -5    1    3    3    0  502 -0.76823197061E+02  0.57971630178E+02 -0.33534999171E+03  0.34891864446E+03  0.47000000000E+01 0.  1.
          5    1    4    4  503    0  0.27378320333E+01 -0.42224589149E+02 -0.99439757142E+02  0.10817008345E+03  0.47000000000E+01 0. -1.
         -5    1    4    4    0  503  0.54459026295E+02  0.18135669528E+02 -0.43059613632E+02  0.71909028504E+02  0.47000000000E+01 0.  1.
<mgrwt>
<rscale>  0 0.13152789E+03</rscale>
<asrwt>0</asrwt>
<pdfrwt beam="1">  1        1 0.90301803E-01 0.13955935E+03</pdfrwt>
<pdfrwt beam="2">  1       -1 0.46505723E-02 0.13955935E+03</pdfrwt>
<totfact> 0.68522307E+03</totfact>
</mgrwt>
</event>
<event>
 8    1  0.3407580E-004  0.2516584E+03  0.7546771E-02  0.1114699E+00
          1   -1    0    0  501    0  0.00000000000E+00  0.00000000000E+00  0.19170366851E+04  0.19170366851E+04  0.00000000000E+00 0. -1.
         -1   -1    0    0    0  501 -0.00000000000E+00 -0.00000000000E+00 -0.55326431374E+02  0.55326431374E+02  0.00000000000E+00 0.  1.
         25    2    1    2    0    0 -0.10788877884E+03  0.18991100211E+03  0.15995414117E+04  0.16192172978E+04  0.12500300995E+03 0.  0.
         23    2    1    2    0    0  0.10788877884E+03 -0.18991100211E+03  0.26216884206E+03  0.35314581869E+03  0.90957628530E+02 0.  0.
          5    1    3    3  502    0 -0.12650798341E+03  0.16177465887E+03  0.15001776312E+04  0.15141764512E+04  0.47000000000E+01 0. -1.
         -5    1    3    3    0  502  0.18619204574E+02  0.28136343243E+02  0.99363780476E+02  0.10504084663E+03  0.47000000000E+01 0. -1.
          5    1    4    4  503    0  0.38126143184E+02 -0.86162111686E+02  0.49828829191E+02  0.10668886776E+03  0.47000000000E+01 0. -1.
         -5    1    4    4    0  503  0.69762635656E+02 -0.10374889042E+03  0.21234001287E+03  0.24645695094E+03  0.47000000000E+01 0.  1.
<mgrwt>
<rscale>  0 0.24780617E+03</rscale>
<asrwt>0</asrwt>
<pdfrwt beam="1">  1        1 0.29492867E+00 0.25165836E+03</pdfrwt>
<pdfrwt beam="2">  1       -1 0.85117601E-02 0.25165836E+03</pdfrwt>
<totfact> 0.30044322E+02</totfact>
</mgrwt>
</event>
<event>
 8    1  0.3407580E-004  0.1337352E+03  0.7546771E-02  0.1232443E+00
          1   -1    0    0  501    0  0.00000000000E+00  0.00000000000E+00  0.11916210291E+04  0.11916210291E+04  0.00000000000E+00 0. -1.
         -1   -1    0    0    0  501 -0.00000000000E+00 -0.00000000000E+00 -0.13331691333E+02  0.13331691333E+02  0.00000000000E+00 0.  1.
         25    2    1    2    0    0 -0.33201648068E+02  0.34019177536E+02  0.81950357871E+03  0.83034403092E+03  0.12500176115E+03 0.  0.
         23    2    1    2    0    0  0.33201648068E+02 -0.34019177536E+02  0.35878575906E+03  0.37460868952E+03  0.96668482360E+02 0.  0.
          5    1    3    3  502    0 -0.71874024230E+02  0.52978744049E+02  0.50242062227E+03  0.51031479928E+03  0.47000000000E+01 0. -1.
         -5    1    3    3    0  502  0.38672376162E+02 -0.18959566513E+02  0.31708295644E+03  0.32002923164E+03  0.47000000000E+01 0. -1.
          5    1    4    4  503    0  0.30272590308E+02 -0.57742193540E+02  0.33211718787E+03  0.33848856276E+03  0.47000000000E+01 0. -1.
         -5    1    4    4    0  503  0.29290577600E+01  0.23723016004E+02  0.26668571188E+02  0.36120126756E+02  0.47000000000E+01 0.  1.
<mgrwt>
<rscale>  0 0.12669582E+03</rscale>
<asrwt>0</asrwt>
<pdfrwt beam="1">  1        1 0.18332623E+00 0.13373516E+03</pdfrwt>
<pdfrwt beam="2">  1       -1 0.20510304E-02 0.13373516E+03</pdfrwt>
<totfact> 0.74546808E+03</totfact>
</mgrwt>
</event>
<event>
 8    1  0.3407580E-004  0.1324307E+03  0.7546771E-02  0.1236257E+00
          1   -1    0    0  501    0  0.00000000000E+00  0.00000000000E+00  0.79221098746E+03  0.79221098746E+03  0.00000000000E+00 0. -1.
         -1   -1    0    0    0  501 -0.00000000000E+00 -0.00000000000E+00 -0.17514174238E+02  0.17514174238E+02  0.00000000000E+00 0.  1.
         25    2    1    2    0    0  0.76614072853E+01  0.43137508363E+02  0.40866036687E+03  0.42958258118E+03  0.12497342443E+03 0.  0.
         23    2    1    2    0    0 -0.76614072853E+01 -0.43137508363E+02  0.36603644635E+03  0.38014258052E+03  0.92769389751E+02 0.  0.
          5    1    4    4  502    0  0.32856208310E+02 -0.14486481677E+02  0.26517282347E+03  0.26763427449E+03  0.47000000000E+01 0. -1.
         -5    1    3    3    0  503 -0.45513490346E+02  0.60857830439E+02  0.24052375776E+03  0.25228737855E+03  0.47000000000E+01 0. -1.
          5    1    3    3  503    0  0.53174897631E+02 -0.17720322076E+02  0.16813660910E+03  0.17729520262E+03  0.47000000000E+01 0. -1.
         -5    1    4    4    0  502 -0.40517615596E+02 -0.28651026686E+02  0.10086362289E+03  0.11250830603E+03  0.47000000000E+01 0.  1.
<mgrwt>
<rscale>  0 0.12424330E+03</rscale>
<asrwt>0</asrwt>
<pdfrwt beam="1">  1        1 0.12187859E+00 0.13243073E+03</pdfrwt>
<pdfrwt beam="2">  1       -1 0.26944890E-02 0.13243073E+03</pdfrwt>
<totfact> 0.99178374E+03</totfact>
</mgrwt>
</event>
<event>
 8    1  0.3407580E-004  0.1378488E+03  0.7546771E-02  0.1229471E+00
          2   -1    0    0  501    0  0.00000000000E+00  0.00000000000E+00  0.37712342849E+03  0.37712342849E+03  0.00000000000E+00 0.  1.
         -2   -1    0    0    0  501 -0.00000000000E+00 -0.00000000000E+00 -0.38969257674E+02  0.38969257674E+02  0.00000000000E+00 0. -1.
         25    2    1    2    0    0  0.54971693883E+02 -0.18744584069E+02  0.18920700898E+03  0.23409736522E+03  0.12501614935E+03 0.  0.
         23    2    1    2    0    0 -0.54971693883E+02  0.18744584069E+02  0.14894716184E+03  0.18199532094E+03  0.86970071077E+02 0.  0.
          5    1    3    3  502    0  0.25791085474E+02  0.49797812056E+02  0.11894658471E+03  0.13158792570E+03  0.47000000000E+01 0.  1.
         -5    1    4    4    0  503 -0.33203662174E+02  0.80074980615E+01  0.15309297020E+03  0.15692721476E+03  0.47000000000E+01 0.  1.
          5    1    4    4  503    0 -0.21768031709E+02  0.10737086008E+02 -0.41458083623E+01  0.25068106179E+02  0.47000000000E+01 0. -1.
         -5    1    3    3    0  502  0.29180608409E+02 -0.68542396125E+02  0.70260424260E+02  0.10250943952E+03  0.47000000000E+01 0.  1.
<mgrwt>
<rscale>  0 0.12865144E+03</rscale>
<asrwt>0</asrwt>
<pdfrwt beam="1">  1        2 0.58018986E-01 0.13784877E+03</pdfrwt>
<pdfrwt beam="2">  1       -2 0.59952707E-02 0.13784877E+03</pdfrwt>
<totfact> 0.11947660E+04</totfact>
</mgrwt>
</event>
<event>
 8    1  0.3407580E-004  0.1255935E+03  0.7546771E-02  0.1250588E+00
          2   -1    0    0  501    0  0.00000000000E+00  0.00000000000E+00  0.48912245784E+03  0.48912245784E+03  0.00000000000E+00 0. -1.
         -2   -1    0    0    0  501 -0.00000000000E+00 -0.00000000000E+00 -0.30713787430E+02  0.30713787430E+02  0.00000000000E+00 0.  1.
         25    2    1    2    0    0  0.81106296659E+01  0.92349945306E+01  0.38073295742E+03  0.40091310864E+03  0.12499067316E+03 0.  0.
         23    2    1    2    0    0 -0.81106296659E+01 -0.92349945306E+01  0.77675712997E+02  0.11892313663E+03  0.89208343778E+02 0.  0.
          5    1    4    4  502    0 -0.18884817972E+02  0.26926092523E+02  0.73513927336E+02  0.80672413629E+02  0.47000000000E+01 0. -1.
         -5    1    3    3    0  503 -0.28820862203E+02  0.17438163695E+02  0.22780205856E+02  0.40936040722E+02  0.47000000000E+01 0.  1.
          5    1    3    3  503    0  0.36931491869E+02 -0.82031691645E+01  0.35795275156E+03  0.35997706792E+03  0.47000000000E+01 0.  1.
         -5    1    4    4    0  502  0.10774188306E+02 -0.36161087053E+02  0.41617856612E+01  0.38250723005E+02  0.47000000000E+01 0.  1.
<mgrwt>
<rscale>  0 0.11557068E+03</rscale>
<asrwt>0</asrwt>
<pdfrwt beam="1">  1        2 0.75249603E-01 0.12559353E+03</pdfrwt>
<pdfrwt beam="2">  1       -2 0.47251984E-02 0.12559353E+03</pdfrwt>
<totfact> 0.12831801E+04</totfact>
</mgrwt>
</event>
<event>
 8    1  0.3407580E-004  0.1272218E+03  0.7546771E-02  0.1246513E+00
          1   -1    0    0  501    0  0.00000000000E+00  0.00000000000E+00  0.12719512869E+04  0.12719512869E+04  0.00000000000E+00 0. -1.
         -1   -1    0    0    0  501 -0.00000000000E+00 -0.00000000000E+00 -0.11534735921E+02  0.11534735921E+02  0.00000000000E+00 0.  1.
         25    2    1    2    0    0  0.19169351586E+02 -0.13902409498E+02  0.96816117154E+03  0.97648422906E+03  0.12499861796E+03 0.  0.
         23    2    1    2    0    0 -0.19169351586E+02  0.13902409498E+02  0.29225537941E+03  0.30700179373E+03  0.90973367154E+02 0.  0.
          5    1    4    4  502    0  0.33796750251E+02 -0.97142700582E+01  0.98230080306E+02  0.10444053833E+03  0.47000000000E+01 0. -1.
         -5    1    3    3    0  503 -0.48923194672E+02  0.17232366548E+02  0.37606662052E+03  0.37965593174E+03  0.47000000000E+01 0. -1.
          5    1    3    3  503    0  0.68092546259E+02 -0.31134776047E+02  0.59209455102E+03  0.59682829732E+03  0.47000000000E+01 0. -1.
         -5    1    4    4    0  502 -0.52966101838E+02  0.23616679556E+02  0.19402529910E+03  0.20256125540E+03  0.47000000000E+01 0.  1.
<mgrwt>
<rscale>  0 0.11795292E+03</rscale>
<asrwt>0</asrwt>
<pdfrwt beam="1">  1        1 0.19568470E+00 0.12722184E+03</pdfrwt>
<pdfrwt beam="2">  1       -1 0.17745758E-02 0.12722184E+03</pdfrwt>
<totfact> 0.80815045E+03</totfact>
</mgrwt>
</event>
<event>
 8    1  0.3407580E-004  0.1338743E+03  0.7546771E-02  0.1234244E+00
          2   -1    0    0  501    0  0.00000000000E+00  0.00000000000E+00  0.24056083490E+03  0.24056083490E+03  0.00000000000E+00 0. -1.
         -2   -1    0    0    0  501 -0.00000000000E+00 -0.00000000000E+00 -0.59097153746E+02  0.59097153746E+02  0.00000000000E+00 0.  1.
         25    2    1    2    0    0 -0.32932550512E+02  0.34828840116E+02  0.87959983197E+02  0.16018519098E+03  0.12499894310E+03 0.  0.
         23    2    1    2    0    0  0.32932550512E+02 -0.34828840116E+02  0.93503697954E+02  0.13947279767E+03  0.91717603384E+02 0.  0.
          5    1    3    3  502    0 -0.30881382285E+02 -0.35304372715E+02 -0.54767561126E+00  0.47142851560E+02  0.47000000000E+01 0. -1.
         -5    1    3    3    0  502 -0.20511682273E+01  0.70133212831E+02  0.88507658808E+02  0.11304233942E+03  0.47000000000E+01 0. -1.
          5    1    4    4  503    0 -0.11891918141E+02 -0.17429686967E+02  0.88269576777E+02  0.90878049545E+02  0.47000000000E+01 0. -1.
         -5    1    4    4    0  503  0.44824468653E+02 -0.17399153149E+02  0.52341211769E+01  0.48594748120E+02  0.47000000000E+01 0.  1.
<mgrwt>
<rscale>  0 0.12552934E+03</rscale>
<asrwt>0</asrwt>
<pdfrwt beam="1">  1        2 0.37009359E-01 0.13387433E+03</pdfrwt>
<pdfrwt beam="2">  1       -2 0.90918699E-02 0.13387433E+03</pdfrwt>
<totfact> 0.10134496E+04</totfact>
</mgrwt>
</event>
<event>
 8    1  0.3407580E-004  0.1490742E+03  0.7546771E-02  0.1211978E+00
          2   -1    0    0  501    0  0.00000000000E+00  0.00000000000E+00  0.11721412515E+03  0.11721412515E+03  0.00000000000E+00 0.  1.
         -2   -1    0    0    0  501 -0.00000000000E+00 -0.00000000000E+00 -0.34305221338E+03  0.34305221338E+03  0.00000000000E+00 0. -1.
         25    2    1    2    0    0  0.73691339526E+01  0.80882200663E+02  0.52000333564E+02  0.15788330321E+03  0.12500747267E+03 0.  0.
         23    2    1    2    0    0 -0.73691339526E+01 -0.80882200663E+02 -0.27783842180E+03  0.30238303532E+03  0.87436130424E+02 0.  0.
          5    1    4    4  502    0  0.22617281285E+02 -0.10519141114E+01 -0.12661185986E+03  0.12870625856E+03  0.47000000000E+01 0. -1.
         -5    1    4    4    0  502 -0.29986415238E+02 -0.79830286552E+02 -0.15122656194E+03  0.17367677676E+03  0.47000000000E+01 0.  1.
          5    1    3    3  503    0  0.58898173995E+01  0.11390014388E+03  0.30423744250E+02  0.11813393644E+03  0.47000000000E+01 0. -1.
         -5    1    3    3    0  503  0.14793165531E+01 -0.33017943220E+02  0.21576589314E+02  0.39749366767E+02  0.47000000000E+01 0. -1.
<mgrwt>
<rscale>  0 0.14100857E+03</rscale>
<asrwt>0</asrwt>
<pdfrwt beam="1">  1        2 0.18032943E-01 0.14907415E+03</pdfrwt>
<pdfrwt beam="2">  1       -2 0.52777263E-01 0.14907415E+03</pdfrwt>
<totfact> 0.10614597E+03</totfact>
</mgrwt>
</event>
<event>
 8    1  0.3407580E-004  0.3111483E+03  0.7546771E-02  0.1081252E+00
          2   -1    0    0  501    0  0.00000000000E+00  0.00000000000E+00  0.74494708743E+03  0.74494708743E+03  0.00000000000E+00 0. -1.
         -2   -1    0    0    0  501 -0.00000000000E+00 -0.00000000000E+00 -0.12503521395E+03  0.12503521395E+03  0.00000000000E+00 0.  1.
         25    2    1    2    0    0  0.24917751108E+02 -0.28384391477E+03  0.32144449072E+03  0.44736986635E+03  0.12499989773E+03 0.  0.
         23    2    1    2    0    0 -0.24917751108E+02  0.28384391477E+03  0.29846738277E+03  0.42261243503E+03  0.91270090329E+02 0.  0.
          5    1    4    4  502    0 -0.30858658380E+02  0.21821585880E+03  0.27513283443E+03  0.35254869793E+03  0.47000000000E+01 0. -1.
         -5    1    4    4    0  502  0.59409072723E+01  0.65628055974E+02  0.23334548337E+02  0.70063737099E+02  0.47000000000E+01 0.  1.
          5    1    3    3  503    0  0.41186722765E+02 -0.97960192724E+02  0.19434914020E+03  0.22155411029E+03  0.47000000000E+01 0.  1.
         -5    1    3    3    0  503 -0.16268971657E+02 -0.18588372205E+03  0.12709535052E+03  0.22581575606E+03  0.47000000000E+01 0.  1.
<mgrwt>
<rscale>  0 0.30811626E+03</rscale>
<asrwt>0</asrwt>
<pdfrwt beam="1">  1        2 0.11460724E+00 0.31114826E+03</pdfrwt>
<pdfrwt beam="2">  1       -2 0.19236187E-01 0.31114826E+03</pdfrwt>
<totfact> 0.87437666E+02</totfact>
</mgrwt>
</event>
<event>
 8    1  0.3407580E-004  0.1351364E+03  0.7546771E-02  0.1235899E+00
          1   -1    0    0  501    0  0.00000000000E+00  0.00000000000E+00  0.20501496935E+03  0.20501496935E+03  0.00000000000E+00 0. -1.
         -1   -1    0    0    0  501 -0.00000000000E+00 -0.00000000000E+00 -0.16359564598E+03  0.16359564598E+03  0.00000000000E+00 0.  1.
         25    2    1    2    0    0  0.89020327157E+01 -0.50543500812E+02 -0.11962266901E+03  0.18047557865E+03  0.12501183899E+03 0.  0.
         23    2    1    2    0    0 -0.89020327157E+01  0.50543500812E+02  0.16104199238E+03  0.18813503668E+03  0.82621892107E+02 0.  0.
          5    1    4    4  502    0 -0.34258898455E+01  0.22390384344E+02  0.15711345733E+03  0.15880741326E+03  0.47000000000E+01 0. -1.
         -5    1    3    3    0  503 -0.43849354398E+02 -0.30474730542E+02 -0.11089510092E+03  0.12317178448E+03  0.47000000000E+01 0.  1.
          5    1    3    3  503    0  0.52751387113E+02 -0.20068770270E+02 -0.87275680904E+01  0.57303794179E+02  0.47000000000E+01 0.  1.
         -5    1    4    4    0  502 -0.54761428702E+01  0.28153116467E+02  0.39285350470E+01  0.29327623415E+02  0.47000000000E+01 0.  1.
<mgrwt>
<rscale>  0 0.12447073E+03</rscale>
<asrwt>0</asrwt>
<pdfrwt beam="1">  1        1 0.31540765E-01 0.13513642E+03</pdfrwt>
<pdfrwt beam="2">  1       -1 0.25168561E-01 0.13513642E+03</pdfrwt>
<totfact> 0.19114056E+03</totfact>
</mgrwt>
</event>
<event>
 8    1  0.3407580E-004  0.1661835E+03  0.7546771E-02  0.1188922E+00
         -1   -1    0    0    0  501 -0.00000000000E+00  0.00000000000E+00  0.14263249824E+03  0.14263249824E+03  0.00000000000E+00 0.  1.
          1   -1    0    0  501    0  0.00000000000E+00 -0.00000000000E+00 -0.37417278340E+03  0.37417278340E+03  0.00000000000E+00 0. -1.
         25    2    1    2    0    0  0.37435629620E+02 -0.10290681833E+03  0.72418310078E+02  0.18127701614E+03  0.12500282126E+03 0.  0.
         23    2    1    2    0    0 -0.37435629620E+02  0.10290681833E+03 -0.30395859524E+03  0.33552826550E+03  0.90538111927E+02 0.  0.
          5    1    3    3  502    0  0.47118955533E+01 -0.12275623615E+03  0.72488112491E+02  0.14271619364E+03  0.47000000000E+01 0. -1.
         -5    1    3    3    0  502  0.32723734067E+02  0.19849417829E+02 -0.69802413628E-01  0.38560822499E+02  0.47000000000E+01 0. -1.
          5    1    4    4  503    0  0.29771848460E+02  0.25870856834E+02 -0.87831219420E+02  0.96395421566E+02  0.47000000000E+01 0. -1.
         -5    1    4    4    0  503 -0.67207478080E+02  0.77035961491E+02 -0.21612737582E+03  0.23913284394E+03  0.47000000000E+01 0.  1.
<mgrwt>
<rscale>  0 0.15980066E+03</rscale>
<asrwt>0</asrwt>
<pdfrwt beam="1">  1        1 0.57565043E-01 0.16618347E+03</pdfrwt>
<pdfrwt beam="2">  1       -1 0.21943461E-01 0.16618347E+03</pdfrwt>
<totfact> 0.11375646E+03</totfact>
</mgrwt>
</event>
<event>
 8    1  0.3407580E-004  0.5035381E+03  0.7546771E-02  0.1013346E+00
          1   -1    0    0  501    0  0.00000000000E+00  0.00000000000E+00  0.36613758430E+03  0.36613758430E+03  0.00000000000E+00 0. -1.
         -1   -1    0    0    0  501 -0.00000000000E+00 -0.00000000000E+00 -0.68273542528E+03  0.68273542528E+03  0.00000000000E+00 0.  1.
         25    2    1    2    0    0  0.33473356882E+03  0.35479459497E+03 -0.17310920128E+03  0.53246350178E+03  0.12499927377E+03 0.  0.
         23    2    1    2    0    0 -0.33473356882E+03 -0.35479459497E+03 -0.14348863970E+03  0.51640950780E+03  0.90354984964E+02 0.  0.
          5    1    4    4  502    0 -0.72332815520E+02 -0.88929869026E+02 -0.73722385230E+02  0.13637315678E+03  0.47000000000E+01 0. -1.
         -5    1    4    4    0  502 -0.26240075330E+03 -0.26586472595E+03 -0.69766254470E+02  0.38003635102E+03  0.47000000000E+01 0.  1.
          5    1    3    3  503    0  0.36483480429E+02  0.36696083130E+02  0.19826728725E+02  0.55613272096E+02  0.47000000000E+01 0.  1.
         -5    1    3    3    0  503  0.29825008839E+03  0.31809851184E+03 -0.19293593000E+03  0.47685022968E+03  0.47000000000E+01 0.  1.
<mgrwt>
<rscale>  0 0.50166168E+03</rscale>
<asrwt>0</asrwt>
<pdfrwt beam="1">  1        1 0.56328860E-01 0.50353807E+03</pdfrwt>
<pdfrwt beam="2">  1       -1 0.10503622E+00 0.50353807E+03</pdfrwt>
<totfact> 0.59881050E+01</totfact>
</mgrwt>
</event>
<event>
 8    1  0.3407580E-004  0.1648455E+03  0.7546771E-02  0.1188203E+00
          1   -1    0    0  501    0  0.00000000000E+00  0.00000000000E+00  0.38461156875E+03  0.38461156875E+03  0.00000000000E+00 0. -1.
         -1   -1    0    0    0  501 -0.00000000000E+00 -0.00000000000E+00 -0.10792253705E+03  0.10792253705E+03  0.00000000000E+00 0.  1.
         25    2    1    2    0    0 -0.78550562182E+02  0.73337045547E+02 -0.14959760884E+02  0.16552293302E+03  0.12500213534E+03 0.  0.
         23    2    1    2    0    0  0.78550562182E+02 -0.73337045547E+02  0.29164879259E+03  0.32701117279E+03  0.10163058517E+03 0.  0.
          5    1    3    3  502    0 -0.52305653545E+02  0.82637765035E+02  0.38382510475E+02  0.10516743181E+03  0.47000000000E+01 0. -1.
         -5    1    4    4    0  503  0.61592147679E+02 -0.99004617726E+02  0.23490432973E+03  0.26229304435E+03  0.47000000000E+01 0.  1.
          5    1    4    4  503    0  0.16958414503E+02  0.25667572179E+02  0.56744462857E+02  0.64718128441E+02  0.47000000000E+01 0. -1.
         -5    1    3    3    0  502 -0.26244908636E+02 -0.93007194881E+01 -0.53342271359E+02  0.60355501208E+02  0.47000000000E+01 0. -1.
<mgrwt>
<rscale>  0 0.16043793E+03</rscale>
<asrwt>0</asrwt>
<pdfrwt beam="1">  1        1 0.59171010E-01 0.16484552E+03</pdfrwt>
<pdfrwt beam="2">  1       -1 0.16603467E-01 0.16484552E+03</pdfrwt>
<totfact> 0.17196458E+03</totfact>
</mgrwt>
</event>
<event>
 8    1  0.3407580E-004  0.1300249E+03  0.7546771E-02  0.1245108E+00
          1   -1    0    0  501    0  0.00000000000E+00  0.00000000000E+00  0.10498855679E+04  0.10498855679E+04  0.00000000000E+00 0. -1.
         -1   -1    0    0    0  501 -0.00000000000E+00 -0.00000000000E+00 -0.11648322639E+02  0.11648322639E+02  0.00000000000E+00 0.  1.
         25    2    1    2    0    0  0.12706907533E+02 -0.33463964000E+02  0.64893897387E+03  0.66183704642E+03  0.12500072732E+03 0.  0.
         23    2    1    2    0    0 -0.12706907533E+02  0.33463964000E+02  0.38929827139E+03  0.39969684411E+03  0.83205292500E+02 0.  0.
          5    1    3    3  502    0 -0.18010271584E+01  0.46364342548E+02  0.29675874035E+03  0.30040095860E+03  0.47000000000E+01 0.  1.
         -5    1    3    3    0  502  0.14507934691E+02 -0.79828306548E+02  0.35218023352E+03  0.36143608782E+03  0.47000000000E+01 0.  1.
          5    1    4    4  503    0  0.20035061662E+02 -0.17825998290E+02  0.82160637547E+02  0.86554204248E+02  0.47000000000E+01 0. -1.
         -5    1    4    4    0  503 -0.32741969194E+02  0.51289962290E+02  0.30713763384E+03  0.31314263987E+03  0.47000000000E+01 0.  1.
<mgrwt>
<rscale>  0 0.11878894E+03</rscale>
<asrwt>0</asrwt>
<pdfrwt beam="1">  1        1 0.16152078E+00 0.13002494E+03</pdfrwt>
<pdfrwt beam="2">  1       -1 0.17920505E-02 0.13002494E+03</pdfrwt>
<totfact> 0.11359147E+04</totfact>
</mgrwt>
</event>
<event>
 8    1  0.3407580E-004  0.1406346E+03  0.7546771E-02  0.1223031E+00
         -1   -1    0    0    0  501 -0.00000000000E+00  0.00000000000E+00  0.19419587154E+02  0.19419587154E+02  0.00000000000E+00 0.  1.
          1   -1    0    0  501    0  0.00000000000E+00 -0.00000000000E+00 -0.82566594045E+03  0.82566594045E+03  0.00000000000E+00 0. -1.
         25    2    1    2    0    0  0.17213993276E+02 -0.62107653073E+02 -0.45411352862E+03  0.47539161935E+03  0.12499765095E+03 0.  0.
         23    2    1    2    0    0 -0.17213993276E+02  0.62107653073E+02 -0.35213282468E+03  0.36969390826E+03  0.92316723554E+02 0.  0.
          5    1    3    3  502    0 -0.48143031432E+02 -0.56306663059E+02 -0.21836056531E+03  0.23063308145E+03  0.47000000000E+01 0.  1.
         -5    1    3    3    0  502  0.65357024708E+02 -0.58009900139E+01 -0.23575296331E+03  0.24475853790E+03  0.47000000000E+01 0.  1.
          5    1    4    4  503    0  0.17598279448E+02 -0.10183425795E+02 -0.16103697293E+03  0.16238349131E+03  0.47000000000E+01 0. -1.
         -5    1    4    4    0  503 -0.34812272725E+02  0.72291078869E+02 -0.19109585176E+03  0.20731041695E+03  0.47000000000E+01 0.  1.
<mgrwt>
<rscale>  0 0.13302774E+03</rscale>
<asrwt>0</asrwt>
<pdfrwt beam="1">  1        1 0.12702554E+00 0.14063461E+03</pdfrwt>
<pdfrwt beam="2">  1       -1 0.29876285E-02 0.14063461E+03</pdfrwt>
<totfact> 0.80448551E+03</totfact>
</mgrwt>
</event>
<event>
 8    1  0.3407580E-004  0.1501445E+03  0.7546771E-02  0.1209080E+00
         -1   -1    0    0    0  501 -0.00000000000E+00  0.00000000000E+00  0.40224064040E+02  0.40224064040E+02  0.00000000000E+00 0.  1.
          1   -1    0    0  501    0  0.00000000000E+00 -0.00000000000E+00 -0.55534031748E+03  0.55534031748E+03  0.00000000000E+00 0. -1.
         25    2    1    2    0    0 -0.52897008501E+02  0.64198911069E+02 -0.39570983929E+03  0.42323711420E+03  0.12499513685E+03 0.  0.
         23    2    1    2    0    0  0.52897008501E+02 -0.64198911069E+02 -0.11940641415E+03  0.17232726732E+03  0.92299521287E+02 0.  0.
          5    1    3    3  502    0  0.16943934755E+02 -0.28501556654E+02 -0.74940628954E+02  0.82083028238E+02  0.47000000000E+01 0.  1.
         -5    1    4    4    0  503 -0.11152682001E+02 -0.58104899365E+02 -0.50411283146E+02  0.77871362608E+02  0.47000000000E+01 0. -1.
          5    1    4    4  503    0  0.64049690502E+02 -0.60940117042E+01 -0.68995131005E+02  0.94455904709E+02  0.47000000000E+01 0.  1.
         -5    1    3    3    0  502 -0.69840943256E+02  0.92700467723E+02 -0.32076921033E+03  0.34115408596E+03  0.47000000000E+01 0.  1.
<mgrwt>
<rscale>  0 0.14320520E+03</rscale>
<asrwt>0</asrwt>
<pdfrwt beam="1">  1        1 0.85436970E-01 0.15014452E+03</pdfrwt>
<pdfrwt beam="2">  1       -1 0.61883177E-02 0.15014452E+03</pdfrwt>
<totfact> 0.48479706E+03</totfact>
</mgrwt>
</event>
<event>
 8    1  0.3407580E-004  0.1320826E+03  0.7546771E-02  0.1238249E+00
          1   -1    0    0  501    0  0.00000000000E+00  0.00000000000E+00  0.53773399314E+02  0.53773399314E+02  0.00000000000E+00 0. -1.
         -1   -1    0    0    0  501 -0.00000000000E+00 -0.00000000000E+00 -0.30892283034E+03  0.30892283034E+03  0.00000000000E+00 0.  1.
         25    2    1    2    0    0  0.23261233136E+02 -0.35838086735E+02 -0.22143978705E+03  0.25783984034E+03  0.12498140082E+03 0.  0.
         23    2    1    2    0    0 -0.23261233136E+02  0.35838086735E+02 -0.33709643978E+02  0.10485638932E+03  0.89627388980E+02 0.  0.
          5    1    3    3  502    0 -0.40005122907E+02 -0.51296773885E+02 -0.90876851525E+02  0.11185911234E+03  0.47000000000E+01 0.  1.
         -5    1    3    3    0  502  0.63266356043E+02  0.15458687150E+02 -0.13056293553E+03  0.14598072800E+03  0.47000000000E+01 0.  1.
          5    1    4    4  503    0 -0.57580287503E+02  0.23164324785E+02 -0.18256301802E+02  0.64864921238E+02  0.47000000000E+01 0. -1.
         -5    1    4    4    0  503  0.34319054367E+02  0.12673761949E+02 -0.15453342177E+02  0.39991468078E+02  0.47000000000E+01 0.  1.
<mgrwt>
<rscale>  0 0.12298739E+03</rscale>
<asrwt>0</asrwt>
<pdfrwt beam="1">  1        1 0.82728306E-02 0.13208257E+03</pdfrwt>
<pdfrwt beam="2">  1       -1 0.47526590E-01 0.13208257E+03</pdfrwt>
<totfact> 0.35945990E+03</totfact>
</mgrwt>
</event>
<event>
 8    1  0.3407580E-004  0.1543499E+03  0.7546771E-02  0.1204179E+00
          2   -1    0    0  501    0  0.00000000000E+00  0.00000000000E+00  0.10212443526E+03  0.10212443526E+03  0.00000000000E+00 0. -1.
         -2   -1    0    0    0  501 -0.00000000000E+00 -0.00000000000E+00 -0.20723200312E+03  0.20723200312E+03  0.00000000000E+00 0.  1.
         25    2    1    2    0    0 -0.65734177904E+02  0.62272783375E+02 -0.96427613331E+02  0.18199499873E+03  0.12500005303E+03 0.  0.
         23    2    1    2    0    0  0.65734177904E+02 -0.62272783375E+02 -0.86799545327E+01  0.12736143965E+03  0.89144338039E+02 0.  0.
          5    1    3    3  502    0 -0.23098535581E+02  0.84908132148E+02 -0.10009473911E+03  0.13335658982E+03  0.47000000000E+01 0. -1.
         -5    1    3    3    0  502 -0.42635642323E+02 -0.22635348773E+02  0.36671257747E+01  0.48638408916E+02  0.47000000000E+01 0. -1.
          5    1    4    4  503    0  0.11483352114E+02 -0.30731696938E+02  0.36945769848E+02  0.49632494217E+02  0.47000000000E+01 0. -1.
         -5    1    4    4    0  503  0.54250825790E+02 -0.31541086437E+02 -0.45625724381E+02  0.77728945431E+02  0.47000000000E+01 0.  1.
<mgrwt>
<rscale>  0 0.14702343E+03</rscale>
<asrwt>0</asrwt>
<pdfrwt beam="1">  1        2 0.15711452E-01 0.15434991E+03</pdfrwt>
<pdfrwt beam="2">  1       -2 0.31881846E-01 0.15434991E+03</pdfrwt>
<totfact> 0.32623303E+03</totfact>
</mgrwt>
</event>
<event>
 8    1  0.3407580E-004  0.1347083E+03  0.7546771E-02  0.1233209E+00
         -2   -1    0    0    0  501 -0.00000000000E+00  0.00000000000E+00  0.57762904406E+03  0.57762904406E+03  0.00000000000E+00 0. -1.
          2   -1    0    0  501    0  0.00000000000E+00 -0.00000000000E+00 -0.24983086990E+02  0.24983086990E+02  0.00000000000E+00 0.  1.
         25    2    1    2    0    0 -0.48074412006E+02  0.14542213797E+02  0.34807031676E+03  0.37322819259E+03  0.12499485294E+03 0.  0.
         23    2    1    2    0    0  0.48074412006E+02 -0.14542213797E+02  0.20457564031E+03  0.22938393846E+03  0.90791924438E+02 0.  0.
          5    1    4    4  502    0  0.23057880799E+02 -0.44445611445E+02  0.16924835102E+03  0.17656209267E+03  0.47000000000E+01 0. -1.
         -5    1    4    4    0  502  0.25016531207E+02  0.29903397648E+02  0.35327289294E+02  0.52821845797E+02  0.47000000000E+01 0.  1.
          5    1    3    3  503    0 -0.26285499907E+02 -0.14350541096E+02  0.81990441056E+01  0.31403500750E+02  0.47000000000E+01 0.  1.
         -5    1    3    3    0  503 -0.21788912099E+02  0.28892754892E+02  0.33987127265E+03  0.34182469184E+03  0.47000000000E+01 0.  1.
<mgrwt>
<rscale>  0 0.12619776E+03</rscale>
<asrwt>0</asrwt>
<pdfrwt beam="1">  1        2 0.38435523E-02 0.13470835E+03</pdfrwt>
<pdfrwt beam="2">  1       -2 0.88865997E-01 0.13470835E+03</pdfrwt>
<totfact> 0.24082806E+03</totfact>
</mgrwt>
</event>
<event>
 8    1  0.3407580E-004  0.1428181E+03  0.7546771E-02  0.1219510E+00
          4   -1    0    0  501    0  0.00000000000E+00  0.00000000000E+00  0.29809306922E+02  0.29809306922E+02  0.00000000000E+00 0. -1.
         -4   -1    0    0    0  501 -0.00000000000E+00 -0.00000000000E+00 -0.59338064554E+03  0.59338064554E+03  0.00000000000E+00 0.  1.
         25    2    1    2    0    0 -0.61445248918E+02 -0.31570493532E+02 -0.23685589216E+03  0.27658223337E+03  0.12499921395E+03 0.  0.
         23    2    1    2    0    0  0.61445248918E+02  0.31570493532E+02 -0.32671544646E+03  0.34660771910E+03  0.92853181449E+02 0.  0.
          5    1    3    3  502    0  0.33682015781E+02 -0.16543927505E+02 -0.11579986874E+03  0.12181904336E+03  0.47000000000E+01 0.  1.
         -5    1    3    3    0  502 -0.95127264700E+02 -0.15026566027E+02 -0.12105602342E+03  0.15476319001E+03  0.47000000000E+01 0.  1.
          5    1    4    4  503    0  0.55436229519E+02  0.57885421409E+02 -0.17634500306E+03  0.19376157426E+03  0.47000000000E+01 0. -1.
         -5    1    4    4    0  503  0.60090193990E+01 -0.26314927877E+02 -0.15037044340E+03  0.15284614484E+03  0.47000000000E+01 0.  1.
<mgrwt>
<rscale>  0 0.13550365E+03</rscale>
<asrwt>0</asrwt>
<pdfrwt beam="1">  1        4 0.45860474E-02 0.14281813E+03</pdfrwt>
<pdfrwt beam="2">  1       -4 0.91289327E-01 0.14281813E+03</pdfrwt>
<totfact> 0.48628795E+02</totfact>
</mgrwt>
</event>
<event>
 8    1  0.3407580E-004  0.1388613E+03  0.7546771E-02  0.1225222E+00
          2   -1    0    0  501    0  0.00000000000E+00  0.00000000000E+00  0.27220827238E+03  0.27220827238E+03  0.00000000000E+00 0. -1.
         -2   -1    0    0    0  501 -0.00000000000E+00 -0.00000000000E+00 -0.68467258345E+02  0.68467258345E+02  0.00000000000E+00 0.  1.
         25    2    1    2    0    0 -0.58224878393E+02  0.16350210207E+02  0.43865677650E+02  0.14562507720E+03  0.12499999839E+03 0.  0.
         23    2    1    2    0    0  0.58224878393E+02 -0.16350210207E+02  0.15987533638E+03  0.19505045352E+03  0.93952596545E+02 0.  0.
          5    1    4    4  502    0  0.46931230880E+02  0.34375247886E+02  0.98496184166E+02  0.11448924139E+03  0.47000000000E+01 0. -1.
         -5    1    3    3    0  503  0.36072085305E+02 -0.14393292562E+02  0.71984658162E+01  0.39777759102E+02  0.47000000000E+01 0. -1.
          5    1    3    3  503    0 -0.94296963699E+02  0.30743502769E+02  0.36667211834E+02  0.10584731810E+03  0.47000000000E+01 0. -1.
         -5    1    4    4    0  502  0.11293647514E+02 -0.50725458093E+02  0.61379152216E+02  0.80561212129E+02  0.47000000000E+01 0.  1.
<mgrwt>
<rscale>  0 0.13151721E+03</rscale>
<asrwt>0</asrwt>
<pdfrwt beam="1">  1        2 0.41878195E-01 0.13886132E+03</pdfrwt>
<pdfrwt beam="2">  1       -2 0.10533424E-01 0.13886132E+03</pdfrwt>
<totfact> 0.70718185E+03</totfact>
</mgrwt>
</event>
<event>
 8    1  0.3407580E-004  0.1536042E+03  0.7546771E-02  0.1204816E+00
         -1   -1    0    0    0  501 -0.00000000000E+00  0.00000000000E+00  0.42678122351E+02  0.42678122351E+02  0.00000000000E+00 0.  1.
          1   -1    0    0  501    0  0.00000000000E+00 -0.00000000000E+00 -0.50110169004E+03  0.50110169004E+03  0.00000000000E+00 0. -1.
         25    2    1    2    0    0  0.60478871055E+02 -0.65659133168E+02 -0.17325666734E+03  0.23154292962E+03  0.12500175946E+03 0.  0.
         23    2    1    2    0    0 -0.60478871055E+02  0.65659133168E+02 -0.28516690035E+03  0.31223688277E+03  0.90569831026E+02 0.  0.
          5    1    4    4  502    0 -0.58110230423E+02  0.43252985745E+02 -0.27916811982E+03  0.28845198696E+03  0.47000000000E+01 0. -1.
         -5    1    4    4    0  502 -0.23686406324E+01  0.22406147424E+02 -0.59987805300E+01  0.23784895809E+02  0.47000000000E+01 0.  1.
          5    1    3    3  503    0  0.65413928746E+02  0.51840288104E+01 -0.13630766800E+03  0.15135298670E+03  0.47000000000E+01 0. -1.
         -5    1    3    3    0  503 -0.49350576902E+01 -0.70843161979E+02 -0.36948999342E+02  0.80189942922E+02  0.47000000000E+01 0. -1.
<mgrwt>
<rscale>  0 0.14651998E+03</rscale>
<asrwt>0</asrwt>
<pdfrwt beam="1">  1        1 0.77092571E-01 0.15360422E+03</pdfrwt>
<pdfrwt beam="2">  1       -1 0.65658647E-02 0.15360422E+03</pdfrwt>
<totfact> 0.50890031E+03</totfact>
</mgrwt>
</event>
<event>
 8    1  0.3407580E-004  0.1263120E+03  0.7546771E-02  0.1249133E+00
          1   -1    0    0  501    0  0.00000000000E+00  0.00000000000E+00  0.31667865321E+02  0.31667865321E+02  0.00000000000E+00 0. -1.
         -1   -1    0    0    0  501 -0.00000000000E+00 -0.00000000000E+00 -0.37327673191E+03  0.37327673191E+03  0.00000000000E+00 0.  1.
         25    2    1    2    0    0 -0.54818209034E+00  0.18136207529E+02 -0.19825755056E+03  0.23507612895E+03  0.12500203007E+03 0.  0.
         23    2    1    2    0    0  0.54818209034E+00 -0.18136207529E+02 -0.14335131602E+03  0.16986846828E+03  0.89311108947E+02 0.  0.
          5    1    3    3  502    0  0.40012087418E+02 -0.17550789736E+02 -0.16656709631E+03  0.17226631979E+03  0.47000000000E+01 0. -1.
         -5    1    4    4    0  503 -0.14297629904E+02 -0.38454377691E+02 -0.13755712831E+03  0.14362177736E+03  0.47000000000E+01 0.  1.
          5    1    4    4  503    0  0.14845811994E+02  0.20318170162E+02 -0.57941877140E+01  0.26246690911E+02  0.47000000000E+01 0. -1.
         -5    1    3    3    0  502 -0.40560269509E+02  0.35686997264E+02 -0.31690454246E+02  0.62809809159E+02  0.47000000000E+01 0. -1.
<mgrwt>
<rscale>  0 0.11641409E+03</rscale>
<asrwt>0</asrwt>
<pdfrwt beam="1">  1        1 0.48719792E-02 0.12631203E+03</pdfrwt>
<pdfrwt beam="2">  1       -1 0.57427190E-01 0.12631203E+03</pdfrwt>
<totfact> 0.51776712E+03</totfact>
</mgrwt>
</event>
<event>
 8    1  0.3407580E-004  0.2202811E+03  0.7546771E-02  0.1136797E+00
          1   -1    0    0  501    0  0.00000000000E+00  0.00000000000E+00  0.21463985128E+04  0.21463985128E+04  0.00000000000E+00 0. -1.
         -1   -1    0    0    0  501 -0.00000000000E+00 -0.00000000000E+00 -0.22213292585E+02  0.22213292585E+02  0.00000000000E+00 0.  1.
         25    2    1    2    0    0 -0.17466783003E+03 -0.48865273634E+02  0.84521012315E+03  0.87344372053E+03  0.12500845912E+03 0.  0.
         23    2    1    2    0    0  0.17466783003E+03  0.48865273634E+02  0.12789750971E+04  0.12951680849E+04  0.93735816471E+02 0.  0.
          5    1    4    4  502    0  0.89600549586E+02  0.30763673513E+01  0.88296438046E+03  0.88751670953E+03  0.47000000000E+01 0. -1.
         -5    1    3    3    0  503 -0.33738270708E+02  0.40227042293E+02  0.23579072561E+03  0.24161093130E+03  0.47000000000E+01 0. -1.
          5    1    3    3  503    0 -0.14092955932E+03 -0.89092315927E+02  0.60941939754E+03  0.63183278923E+03  0.47000000000E+01 0. -1.
         -5    1    4    4    0  502  0.85067280442E+02  0.45788906283E+02  0.39601071661E+03  0.40765137534E+03  0.47000000000E+01 0.  1.
<mgrwt>
<rscale>  0 0.21613642E+03</rscale>
<asrwt>0</asrwt>
<pdfrwt beam="1">  1        1 0.33021499E+00 0.22028114E+03</pdfrwt>
<pdfrwt beam="2">  1       -1 0.34174313E-02 0.22028114E+03</pdfrwt>
<totfact> 0.84710409E+02</totfact>
</mgrwt>
</event>
<event>
 8    1  0.3407580E-004  0.1569908E+03  0.7546771E-02  0.1199641E+00
         -2   -1    0    0    0  501 -0.00000000000E+00  0.00000000000E+00  0.23202921642E+02  0.23202921642E+02  0.00000000000E+00 0.  1.
          2   -1    0    0  501    0  0.00000000000E+00 -0.00000000000E+00 -0.91596666401E+03  0.91596666401E+03  0.00000000000E+00 0. -1.
         25    2    1    2    0    0  0.29643263010E+02 -0.90235774170E+02 -0.43758720336E+03  0.46489640967E+03  0.12499957281E+03 0.  0.
         23    2    1    2    0    0 -0.29643263010E+02  0.90235774170E+02 -0.45517653901E+03  0.47427317598E+03  0.93424546058E+02 0.  0.
          5    1    3    3  502    0  0.75670460495E+02 -0.72518466498E+02 -0.25579930354E+03  0.27647842640E+03  0.47000000000E+01 0.  1.
         -5    1    3    3    0  502 -0.46027197485E+02 -0.17717307672E+02 -0.18178789982E+03  0.18841798327E+03  0.47000000000E+01 0.  1.
          5    1    4    4  503    0  0.28784293494E+02  0.14591153305E+02 -0.67574702552E+02  0.75032444527E+02  0.47000000000E+01 0. -1.
         -5    1    4    4    0  503 -0.58427556504E+02  0.75644620865E+02 -0.38760183645E+03  0.39924073145E+03  0.47000000000E+01 0.  1.
<mgrwt>
<rscale>  0 0.15067927E+03</rscale>
<asrwt>0</asrwt>
<pdfrwt beam="1">  1        2 0.14091797E+00 0.15699080E+03</pdfrwt>
<pdfrwt beam="2">  1       -2 0.35696797E-02 0.15699080E+03</pdfrwt>
<totfact> 0.94034421E+03</totfact>
</mgrwt>
</event>
<event>
 8    1  0.3407580E-004  0.1552092E+03  0.7546771E-02  0.1202478E+00
          2   -1    0    0  501    0  0.00000000000E+00  0.00000000000E+00  0.83368435654E+03  0.83368435654E+03  0.00000000000E+00 0. -1.
         -2   -1    0    0    0  501 -0.00000000000E+00 -0.00000000000E+00 -0.31875605714E+02  0.31875605714E+02  0.00000000000E+00 0.  1.
         25    2    1    2    0    0  0.44156386864E+02  0.80735146006E+02  0.21848233032E+03  0.26800077640E+03  0.12498774816E+03 0.  0.
         23    2    1    2    0    0 -0.44156386864E+02 -0.80735146006E+02  0.58332642051E+03  0.59755918585E+03  0.91319863277E+02 0.  0.
          5    1    4    4  502    0 -0.54739854915E+02 -0.56239969799E+02  0.54488937992E+03  0.55053238984E+03  0.47000000000E+01 0. -1.
         -5    1    4    4    0  502  0.10583468051E+02 -0.24495176207E+02  0.38437040598E+02  0.47026796014E+02  0.47000000000E+01 0.  1.
          5    1    3    3  503    0 -0.42539271386E+01  0.97406434989E+02  0.10471911711E+03  0.14315827941E+03  0.47000000000E+01 0.  1.
         -5    1    3    3    0  503  0.48410314002E+02 -0.16671288983E+02  0.11376321320E+03  0.12484249700E+03  0.47000000000E+01 0.  1.
<mgrwt>
<rscale>  0 0.14837994E+03</rscale>
<asrwt>0</asrwt>
<pdfrwt beam="1">  1        2 0.12825912E+00 0.15520917E+03</pdfrwt>
<pdfrwt beam="2">  1       -2 0.49039400E-02 0.15520917E+03</pdfrwt>
<totfact> 0.66067856E+03</totfact>
</mgrwt>
</event>
<event>
 8    1  0.3407580E-004  0.1552832E+03  0.7546771E-02  0.1201970E+00
         -2   -1    0    0    0  501 -0.00000000000E+00  0.00000000000E+00  0.37364020379E+03  0.37364020379E+03  0.00000000000E+00 0.  1.
          2   -1    0    0  501    0  0.00000000000E+00 -0.00000000000E+00 -0.59722734633E+02  0.59722734633E+02  0.00000000000E+00 0. -1.
         25    2    1    2    0    0  0.80367556240E+02  0.45062644943E+02  0.10719967378E+03  0.18869189290E+03  0.12499309710E+03 0.  0.
         23    2    1    2    0    0 -0.80367556240E+02 -0.45062644943E+02  0.20671779537E+03  0.24467104552E+03  0.92962828742E+02 0.  0.
          5    1    3    3  502    0  0.48246202770E+02  0.86447804632E+02  0.50085346500E+02  0.11104751659E+03  0.47000000000E+01 0.  1.
         -5    1    3    3    0  502  0.32121353470E+02 -0.41385159689E+02  0.57114327285E+02  0.77644376309E+02  0.47000000000E+01 0.  1.
          5    1    4    4  503    0 -0.52359273797E+02 -0.58643604988E+02  0.73300153240E+02  0.10758981561E+03  0.47000000000E+01 0. -1.
         -5    1    4    4    0  503 -0.28008282443E+02  0.13580960045E+02  0.13341764213E+03  0.13708122991E+03  0.47000000000E+01 0.  1.
<mgrwt>
<rscale>  0 0.14878812E+03</rscale>
<asrwt>0</asrwt>
<pdfrwt beam="1">  1        2 0.91881132E-02 0.15528316E+03</pdfrwt>
<pdfrwt beam="2">  1       -2 0.57483107E-01 0.15528316E+03</pdfrwt>
<totfact> 0.20037109E+03</totfact>
</mgrwt>
</event>
<event>
 8    1  0.3407580E-004  0.1563427E+03  0.7546771E-02  0.1201335E+00
         -1   -1    0    0    0  501 -0.00000000000E+00  0.00000000000E+00  0.50385192751E+02  0.50385192751E+02  0.00000000000E+00 0.  1.
          1   -1    0    0  501    0  0.00000000000E+00 -0.00000000000E+00 -0.43101692467E+03  0.43101692467E+03  0.00000000000E+00 0. -1.
         25    2    1    2    0    0  0.26825764983E+02  0.89971528293E+02 -0.15010458683E+03  0.21673587096E+03  0.12501421200E+03 0.  0.
         23    2    1    2    0    0 -0.26825764983E+02 -0.89971528293E+02 -0.23052714509E+03  0.26466624647E+03  0.89949762778E+02 0.  0.
          5    1    4    4  502    0 -0.19669471205E+02  0.48008544137E+01 -0.10559478623E+03  0.10762102573E+03  0.47000000000E+01 0. -1.
         -5    1    4    4    0  502 -0.71562937777E+01 -0.94772382707E+02 -0.12493235886E+03  0.15704522073E+03  0.47000000000E+01 0.  1.
          5    1    3    3  503    0 -0.21345817892E+02 -0.92125958415E+01  0.70096114894E+01  0.24733388706E+02  0.47000000000E+01 0. -1.
         -5    1    3    3    0  503  0.48171582876E+02  0.99184124134E+02 -0.15711419832E+03  0.19200248225E+03  0.47000000000E+01 0. -1.
<mgrwt>
<rscale>  0 0.14930063E+03</rscale>
<asrwt>0</asrwt>
<pdfrwt beam="1">  1        1 0.66310297E-01 0.15634273E+03</pdfrwt>
<pdfrwt beam="2">  1       -1 0.77515680E-02 0.15634273E+03</pdfrwt>
<totfact> 0.48205602E+03</totfact>
</mgrwt>
</event>
<event>
 8    1  0.3407580E-004  0.2032927E+03  0.7546771E-02  0.1151140E+00
          1   -1    0    0  501    0  0.00000000000E+00  0.00000000000E+00  0.16542434382E+04  0.16542434382E+04  0.00000000000E+00 0. -1.
         -1   -1    0    0    0  501 -0.00000000000E+00 -0.00000000000E+00 -0.31274808860E+02  0.31274808860E+02  0.00000000000E+00 0.  1.
         25    2    1    2    0    0 -0.13619899135E+03  0.84571776803E+02  0.12814994562E+04  0.12975240945E+04  0.12500147492E+03 0.  0.
         23    2    1    2    0    0  0.13619899135E+03 -0.84571776803E+02  0.34146917306E+03  0.38799415254E+03  0.90750843407E+02 0.  0.
          5    1    4    4  502    0  0.34725247985E+02  0.16694979779E+02  0.98109955984E+02  0.10550932973E+03  0.47000000000E+01 0. -1.
         -5    1    3    3    0  503  0.17014245595E+02  0.37842263594E+02  0.32884447744E+03  0.33148499485E+03  0.47000000000E+01 0.  1.
          5    1    3    3  503    0 -0.15321323695E+03  0.46729513209E+02  0.95265497880E+03  0.96603909963E+03  0.47000000000E+01 0.  1.
         -5    1    4    4    0  502  0.10147374337E+03 -0.10126675658E+03  0.24335921707E+03  0.28248482281E+03  0.47000000000E+01 0.  1.
<mgrwt>
<rscale>  0 0.19834787E+03</rscale>
<asrwt>0</asrwt>
<pdfrwt beam="1">  1        1 0.25449892E+00 0.20329269E+03</pdfrwt>
<pdfrwt beam="2">  1       -1 0.48115103E-02 0.20329269E+03</pdfrwt>
<totfact> 0.10615576E+03</totfact>
</mgrwt>
</event>
<event>
 8    1  0.3407580E-004  0.2140712E+03  0.7546771E-02  0.1142105E+00
         -1   -1    0    0    0  501 -0.00000000000E+00  0.00000000000E+00  0.16354554601E+03  0.16354554601E+03  0.00000000000E+00 0.  1.
          1   -1    0    0  501    0  0.00000000000E+00 -0.00000000000E+00 -0.27079446928E+03  0.27079446928E+03  0.00000000000E+00 0. -1.
         25    2    1    2    0    0 -0.12223948418E+03 -0.12352895323E+03 -0.10545872065E+03  0.23863783628E+03  0.12499832545E+03 0.  0.
         23    2    1    2    0    0  0.12223948418E+03  0.12352895323E+03 -0.17902026282E+01  0.19570217902E+03  0.89968018040E+02 0.  0.
          5    1    4    4  502    0  0.10864044827E+03  0.65322181946E+02 -0.28575944305E+02  0.13003233847E+03  0.47000000000E+01 0. -1.
         -5    1    3    3    0  503 -0.14054496789E+02  0.22655603934E+02  0.23432327571E+01  0.27173259087E+02  0.47000000000E+01 0. -1.
          5    1    3    3  503    0 -0.10818498739E+03 -0.14618455716E+03 -0.10780195340E+03  0.21146457719E+03  0.47000000000E+01 0. -1.
         -5    1    4    4    0  502  0.13599035904E+02  0.58206771281E+02  0.26785741677E+02  0.65669840549E+02  0.47000000000E+01 0.  1.
<mgrwt>
<rscale>  0 0.20932112E+03</rscale>
<asrwt>0</asrwt>
<pdfrwt beam="1">  1        1 0.41660687E-01 0.21407119E+03</pdfrwt>
<pdfrwt beam="2">  1       -1 0.25160854E-01 0.21407119E+03</pdfrwt>
<totfact> 0.13685238E+03</totfact>
</mgrwt>
</event>
<event>
 8    1  0.3407580E-004  0.1569725E+03  0.7546771E-02  0.1201084E+00
         -1   -1    0    0    0  501 -0.00000000000E+00  0.00000000000E+00  0.14304904103E+03  0.14304904103E+03  0.00000000000E+00 0.  1.
          1   -1    0    0  501    0  0.00000000000E+00 -0.00000000000E+00 -0.26391702306E+03  0.26391702306E+03  0.00000000000E+00 0. -1.
         25    2    1    2    0    0 -0.93950119723E+02  0.13763793115E+02  0.73711877251E+02  0.17341803934E+03  0.12499723407E+03 0.  0.
         23    2    1    2    0    0  0.93950119723E+02 -0.13763793115E+02 -0.19457985928E+03  0.23354802475E+03  0.87563069999E+02 0.  0.
          5    1    3    3  502    0 -0.81741074779E+02 -0.38257686889E+02  0.11229140609E+02  0.91068312331E+02  0.47000000000E+01 0. -1.
         -5    1    3    3    0  502 -0.12209044944E+02  0.52021480004E+02  0.62482736641E+02  0.82349727009E+02  0.47000000000E+01 0. -1.
          5    1    4    4  503    0  0.99146213518E+02  0.12487997184E+02 -0.16805164715E+03  0.19557445600E+03  0.47000000000E+01 0. -1.
         -5    1    4    4    0  503 -0.51960937948E+01 -0.26251790299E+02 -0.26528212132E+02  0.37973568749E+02  0.47000000000E+01 0.  1.
<mgrwt>
<rscale>  0 0.14950413E+03</rscale>
<asrwt>0</asrwt>
<pdfrwt beam="1">  1        1 0.40602618E-01 0.15697253E+03</pdfrwt>
<pdfrwt beam="2">  1       -1 0.22007545E-01 0.15697253E+03</pdfrwt>
<totfact> 0.17484300E+03</totfact>
</mgrwt>
</event>
<event>
 8    1  0.3407580E-004  0.1304260E+03  0.7546771E-02  0.1240330E+00
          2   -1    0    0  501    0  0.00000000000E+00  0.00000000000E+00  0.16018871108E+03  0.16018871108E+03  0.00000000000E+00 0. -1.
         -2   -1    0    0    0  501 -0.00000000000E+00 -0.00000000000E+00 -0.92013614480E+02  0.92013614480E+02  0.00000000000E+00 0.  1.
         25    2    1    2    0    0  0.27091291655E+02  0.25534519369E+02  0.79439456975E+02  0.15271401072E+03  0.12499996793E+03 0.  0.
         23    2    1    2    0    0 -0.27091291655E+02 -0.25534519369E+02 -0.11264360373E+02  0.99488314842E+02  0.91570132754E+02 0.  0.
          5    1    3    3  502    0  0.19862620936E+02 -0.43698986612E+02  0.65867465355E+02  0.81637847434E+02  0.47000000000E+01 0. -1.
         -5    1    4    4    0  503 -0.42247419991E+02  0.22616068978E+02 -0.53028879076E+01  0.48441115719E+02  0.47000000000E+01 0.  1.
          5    1    4    4  503    0  0.15156128337E+02 -0.48150588347E+02 -0.59614724653E+01  0.51047199123E+02  0.47000000000E+01 0. -1.
         -5    1    3    3    0  502  0.72286707190E+01  0.69233505981E+02  0.13571991620E+02  0.71076163285E+02  0.47000000000E+01 0. -1.
<mgrwt>
<rscale>  0 0.12169304E+03</rscale>
<asrwt>0</asrwt>
<pdfrwt beam="1">  1        2 0.24644417E-01 0.13042600E+03</pdfrwt>
<pdfrwt beam="2">  1       -2 0.14155941E-01 0.13042600E+03</pdfrwt>
<totfact> 0.77757941E+03</totfact>
</mgrwt>
</event>
<event>
 8    1  0.3407580E-004  0.1315418E+03  0.7546771E-02  0.1238857E+00
         -1   -1    0    0    0  501 -0.00000000000E+00  0.00000000000E+00  0.36744850243E+02  0.36744850243E+02  0.00000000000E+00 0.  1.
          1   -1    0    0  501    0  0.00000000000E+00 -0.00000000000E+00 -0.38513611014E+03  0.38513611014E+03  0.00000000000E+00 0. -1.
         25    2    1    2    0    0 -0.12690067078E+02 -0.39007140759E+02 -0.14644064123E+03  0.19684535926E+03  0.12498255569E+03 0.  0.
         23    2    1    2    0    0  0.12690067078E+02  0.39007140759E+02 -0.20195061867E+03  0.22503560112E+03  0.90412247840E+02 0.  0.
          5    1    4    4  502    0  0.25201651484E+02 -0.36953036997E+01 -0.16495746726E+03  0.16697854506E+03  0.47000000000E+01 0. -1.
         -5    1    3    3    0  503  0.40471052036E+02  0.51652674054E+01 -0.11237632520E+03  0.11964578766E+03  0.47000000000E+01 0.  1.
          5    1    3    3  503    0 -0.53161119114E+02 -0.44172408164E+02 -0.34064316033E+02  0.77199571600E+02  0.47000000000E+01 0.  1.
         -5    1    4    4    0  502 -0.12511584406E+02  0.42702444458E+02 -0.36993151408E+02  0.58057056058E+02  0.47000000000E+01 0.  1.
<mgrwt>
<rscale>  0 0.12260711E+03</rscale>
<asrwt>0</asrwt>
<pdfrwt beam="1">  1        1 0.59251709E-01 0.13154176E+03</pdfrwt>
<pdfrwt beam="2">  1       -1 0.56530539E-02 0.13154176E+03</pdfrwt>
<totfact> 0.88278361E+03</totfact>
</mgrwt>
</event>
<event>
 8    1  0.3407580E-004  0.1586493E+03  0.7546771E-02  0.1196670E+00
         -3   -1    0    0    0  501 -0.00000000000E+00  0.00000000000E+00  0.13398768968E+03  0.13398768968E+03  0.00000000000E+00 0.  1.
          3   -1    0    0  501    0  0.00000000000E+00 -0.00000000000E+00 -0.19303783865E+03  0.19303783865E+03  0.00000000000E+00 0. -1.
         25    2    1    2    0    0 -0.12223702419E+02  0.96930268157E+02  0.32106959560E+02  0.16186558993E+03  0.12499886626E+03 0.  0.
         23    2    1    2    0    0  0.12223702419E+02 -0.96930268157E+02 -0.91157108537E+02  0.16515993840E+03  0.97073637147E+02 0.  0.
          5    1    4    4  502    0 -0.98079629961E+01 -0.27819650735E+02 -0.87411308683E+02  0.92374000621E+02  0.47000000000E+01 0. -1.
         -5    1    4    4    0  502  0.22031665415E+02 -0.69110617423E+02 -0.37457998541E+01  0.72785937777E+02  0.47000000000E+01 0.  1.
          5    1    3    3  503    0  0.54794395690E+02  0.59737434495E+02  0.23873821152E+02  0.84634722281E+02  0.47000000000E+01 0.  1.
         -5    1    3    3    0  503 -0.67018098109E+02  0.37192833662E+02  0.82331384074E+01  0.77230867650E+02  0.47000000000E+01 0.  1.
<mgrwt>
<rscale>  0 0.15313763E+03</rscale>
<asrwt>0</asrwt>
<pdfrwt beam="1">  1        3 0.29698129E-01 0.15864934E+03</pdfrwt>
<pdfrwt beam="2">  1       -3 0.20613491E-01 0.15864934E+03</pdfrwt>
<totfact> 0.55130307E+02</totfact>
</mgrwt>
</event>
<event>
 8    1  0.3407580E-004  0.1989504E+03  0.7546771E-02  0.1154726E+00
          2   -1    0    0  501    0  0.00000000000E+00  0.00000000000E+00  0.14431627561E+04  0.14431627561E+04  0.00000000000E+00 0. -1.
         -2   -1    0    0    0  501 -0.00000000000E+00 -0.00000000000E+00 -0.44037403330E+02  0.44037403330E+02  0.00000000000E+00 0.  1.
         25    2    1    2    0    0 -0.45458152069E+01 -0.15471218789E+03  0.22958040128E+03  0.30379010788E+03  0.12499897388E+03 0.  0.
         23    2    1    2    0    0  0.45458152069E+01  0.15471218789E+03  0.11695449514E+04  0.11834100515E+04  0.93099038954E+02 0.  0.
          5    1    4    4  502    0  0.41091995213E+02  0.31799703298E+02  0.31785797899E+03  0.32211109576E+03  0.47000000000E+01 0. -1.
         -5    1    4    4    0  502 -0.36546180006E+02  0.12291248460E+03  0.85168697245E+03  0.86129895575E+03  0.47000000000E+01 0.  1.
          5    1    3    3  503    0 -0.52980537323E+02 -0.84721586591E+02  0.17791918017E+03  0.20411273660E+03  0.47000000000E+01 0.  1.
         -5    1    3    3    0  503  0.48434722116E+02 -0.69990601304E+02  0.51661221109E+02  0.99677371273E+02  0.47000000000E+01 0.  1.
<mgrwt>
<rscale>  0 0.19420067E+03</rscale>
<asrwt>0</asrwt>
<pdfrwt beam="1">  1        2 0.22202500E+00 0.19895042E+03</pdfrwt>
<pdfrwt beam="2">  1       -2 0.67749863E-02 0.19895042E+03</pdfrwt>
<totfact> 0.17994259E+03</totfact>
</mgrwt>
</event>
<event>
 8    1  0.3407580E-004  0.2149743E+03  0.7546771E-02  0.1141178E+00
          4   -1    0    0  501    0  0.00000000000E+00  0.00000000000E+00  0.70528085065E+02  0.70528085065E+02  0.00000000000E+00 0. -1.
         -4   -1    0    0    0  501 -0.00000000000E+00 -0.00000000000E+00 -0.69012413164E+03  0.69012413164E+03  0.00000000000E+00 0.  1.
         25    2    1    2    0    0 -0.17395918228E+02  0.17403707782E+03 -0.18644790441E+03  0.28456417383E+03  0.12498970175E+03 0.  0.
         23    2    1    2    0    0  0.17395918228E+02 -0.17403707782E+03 -0.43314814217E+03  0.47608804288E+03  0.91929261288E+02 0.  0.
          5    1    4    4  502    0 -0.20350106114E+02 -0.13245251696E+03 -0.35701455083E+03  0.38136501618E+03  0.47000000000E+01 0. -1.
         -5    1    4    4    0  502  0.37746024341E+02 -0.41584560857E+02 -0.76133591344E+02  0.94723026695E+02  0.47000000000E+01 0.  1.
          5    1    3    3  503    0 -0.16761596959E+02  0.41920793506E+02 -0.13547368672E+03  0.14287586869E+03  0.47000000000E+01 0. -1.
         -5    1    3    3    0  503 -0.63432126898E+00  0.13211628431E+03 -0.50974217685E+02  0.14168830513E+03  0.47000000000E+01 0. -1.
<mgrwt>
<rscale>  0 0.21049032E+03</rscale>
<asrwt>0</asrwt>
<pdfrwt beam="1">  1        4 0.10850474E-01 0.21497430E+03</pdfrwt>
<pdfrwt beam="2">  1       -4 0.10617295E+00 0.21497430E+03</pdfrwt>
<totfact> 0.87988167E+01</totfact>
</mgrwt>
</event>
<event>
 8    1  0.3407580E-004  0.1331430E+03  0.7546771E-02  0.1235102E+00
          3   -1    0    0  501    0  0.00000000000E+00  0.00000000000E+00  0.31503889506E+02  0.31503889506E+02  0.00000000000E+00 0. -1.
         -3   -1    0    0    0  501 -0.00000000000E+00 -0.00000000000E+00 -0.48711627636E+03  0.48711627636E+03  0.00000000000E+00 0.  1.
         25    2    1    2    0    0  0.76324945159E+01  0.45257965508E+02 -0.17726276982E+03  0.22169604496E+03  0.12498203219E+03 0.  0.
         23    2    1    2    0    0 -0.76324945159E+01 -0.45257965508E+02 -0.27834961703E+03  0.29692412091E+03  0.92622275194E+02 0.  0.
          5    1    4    4  502    0  0.22577090967E+02 -0.31440860324E+02 -0.38697196509E+02  0.54934649832E+02  0.47000000000E+01 0. -1.
         -5    1    4    4    0  502 -0.30209585483E+02 -0.13817105184E+02 -0.23965242052E+03  0.24198947108E+03  0.47000000000E+01 0.  1.
          5    1    3    3  503    0 -0.55896775472E+02  0.19306613735E+02 -0.11268422772E+03  0.12734606401E+03  0.47000000000E+01 0. -1.
         -5    1    3    3    0  503  0.63529269988E+02  0.25951351773E+02 -0.64578542099E+02  0.94349980942E+02  0.47000000000E+01 0. -1.
<mgrwt>
<rscale>  0 0.12497916E+03</rscale>
<asrwt>0</asrwt>
<pdfrwt beam="1">  1        3 0.48467525E-02 0.13314296E+03</pdfrwt>
<pdfrwt beam="2">  1       -3 0.74940961E-01 0.13314296E+03</pdfrwt>
<totfact> 0.94740425E+02</totfact>
</mgrwt>
</event>
<event>
 8    1  0.3407580E-004  0.1605243E+03  0.7546771E-02  0.1195939E+00
         -2   -1    0    0    0  501 -0.00000000000E+00  0.00000000000E+00  0.47395193075E+02  0.47395193075E+02  0.00000000000E+00 0. -1.
          2   -1    0    0  501    0  0.00000000000E+00 -0.00000000000E+00 -0.47685726218E+03  0.47685726218E+03  0.00000000000E+00 0.  1.
         25    2    1    2    0    0 -0.91201550183E+02 -0.42709509246E+02 -0.18491322172E+03  0.24486927265E+03  0.12500494464E+03 0.  0.
         23    2    1    2    0    0  0.91201550183E+02  0.42709509246E+02 -0.24454884739E+03  0.27938318260E+03  0.90049980727E+02 0.  0.
          5    1    4    4  502    0  0.32564571047E+02  0.43784739300E+02 -0.43617527746E+02  0.70015236983E+02  0.47000000000E+01 0. -1.
         -5    1    4    4    0  502  0.58636979135E+02 -0.10752300543E+01 -0.20093131964E+03  0.20936794562E+03  0.47000000000E+01 0.  1.
          5    1    3    3  503    0 -0.43901592574E+02 -0.85604853102E+02 -0.10539914532E+03  0.14278168839E+03  0.47000000000E+01 0.  1.
         -5    1    3    3    0  503 -0.47299957609E+02  0.42895343856E+02 -0.79514076399E+02  0.10208758426E+03  0.47000000000E+01 0.  1.
<mgrwt>
<rscale>  0 0.15375030E+03</rscale>
<asrwt>0</asrwt>
<pdfrwt beam="1">  1        2 0.73362655E-01 0.16052433E+03</pdfrwt>
<pdfrwt beam="2">  1       -2 0.72915682E-02 0.16052433E+03</pdfrwt>
<totfact> 0.69467245E+03</totfact>
</mgrwt>
</event>
<event>
 8    1  0.3407580E-004  0.1324532E+03  0.7546771E-02  0.1237245E+00
         -1   -1    0    0    0  501 -0.00000000000E+00  0.00000000000E+00  0.32980627042E+03  0.32980627042E+03  0.00000000000E+00 0.  1.
          1   -1    0    0  501    0  0.00000000000E+00 -0.00000000000E+00 -0.58160603764E+02  0.58160603764E+02  0.00000000000E+00 0. -1.
         25    2    1    2    0    0 -0.16679616200E+02  0.40526121774E+02  0.25326055973E+03  0.28580545288E+03  0.12499307835E+03 0.  0.
         23    2    1    2    0    0  0.16679616200E+02 -0.40526121774E+02  0.18385106928E+02  0.10216142131E+03  0.90434328132E+02 0.  0.
          5    1    4    4  502    0  0.46505648568E+02 -0.25611814978E+01  0.25220558601E+02  0.53174256699E+02  0.47000000000E+01 0. -1.
         -5    1    4    4    0  502 -0.29826032368E+02 -0.37964940276E+02 -0.68354516729E+01  0.48987164610E+02  0.47000000000E+01 0.  1.
          5    1    3    3  503    0  0.39006115115E+02  0.10958642308E+02  0.19698682285E+03  0.20116527343E+03  0.47000000000E+01 0. -1.
         -5    1    3    3    0  503 -0.55685731314E+02  0.29567479466E+02  0.56273736877E+02  0.84640179443E+02  0.47000000000E+01 0. -1.
<mgrwt>
<rscale>  0 0.12361788E+03</rscale>
<asrwt>0</asrwt>
<pdfrwt beam="1">  1        1 0.89477854E-02 0.13245318E+03</pdfrwt>
<pdfrwt beam="2">  1       -1 0.50739425E-01 0.13245318E+03</pdfrwt>
<totfact> 0.28747448E+03</totfact>
</mgrwt>
</event>
<event>
 8    1  0.3407580E-004  0.1269981E+03  0.7546771E-02  0.1247058E+00
         -4   -1    0    0    0  501 -0.00000000000E+00  0.00000000000E+00  0.54604453166E+02  0.54604453166E+02  0.00000000000E+00 0.  1.
          4   -1    0    0  501    0  0.00000000000E+00 -0.00000000000E+00 -0.22544740795E+03  0.22544740795E+03  0.00000000000E+00 0. -1.
         25    2    1    2    0    0 -0.19813240230E+02  0.10496376711E+02 -0.82536165868E+02  0.15146196602E+03  0.12500308021E+03 0.  0.
         23    2    1    2    0    0  0.19813240230E+02 -0.10496376711E+02 -0.88306788920E+02  0.12858989510E+03  0.90744331723E+02 0.  0.
          5    1    3    3  502    0 -0.33439051329E+02  0.61903984969E+02 -0.63157637361E+02  0.94663882584E+02  0.47000000000E+01 0.  1.
         -5    1    3    3    0  502  0.13625811099E+02 -0.51407608258E+02 -0.19378528506E+02  0.56798083436E+02  0.47000000000E+01 0.  1.
          5    1    4    4  503    0 -0.62604129185E+01 -0.33811039168E+02 -0.86556367002E+02  0.93254886243E+02  0.47000000000E+01 0. -1.
         -5    1    4    4    0  503  0.26073653148E+02  0.23314662457E+02 -0.17504219175E+01  0.35335008857E+02  0.47000000000E+01 0.  1.
<mgrwt>
<rscale>  0 0.11763046E+03</rscale>
<asrwt>0</asrwt>
<pdfrwt beam="1">  1        4 0.34684216E-01 0.12699806E+03</pdfrwt>
<pdfrwt beam="2">  1       -4 0.84006851E-02 0.12699806E+03</pdfrwt>
<totfact> 0.13297802E+03</totfact>
</mgrwt>
</event>
<event>
 8    1  0.3407580E-004  0.1349214E+03  0.7546771E-02  0.1234230E+00
         -2   -1    0    0    0  501 -0.00000000000E+00  0.00000000000E+00  0.22430410055E+02  0.22430410055E+02  0.00000000000E+00 0.  1.
          2   -1    0    0  501    0  0.00000000000E+00 -0.00000000000E+00 -0.75241002410E+03  0.75241002410E+03  0.00000000000E+00 0. -1.
         25    2    1    2    0    0  0.44917567864E+02 -0.23673309726E+02 -0.24759589870E+03  0.28197074950E+03  0.12500304406E+03 0.  0.
         23    2    1    2    0    0 -0.44917567864E+02  0.23673309726E+02 -0.48238371535E+03  0.49286968465E+03  0.87455495678E+02 0.  0.
          5    1    4    4  502    0 -0.16951881279E+02 -0.31670570129E+02 -0.23572768283E+03  0.23849532856E+03  0.47000000000E+01 0. -1.
         -5    1    3    3    0  503 -0.31339647384E+02 -0.22497477305E+02 -0.16473065264E+03  0.16925302923E+03  0.47000000000E+01 0.  1.
          5    1    3    3  503    0  0.76257215248E+02 -0.11758324203E+01 -0.82865246054E+02  0.11271772027E+03  0.47000000000E+01 0.  1.
         -5    1    4    4    0  502 -0.27965686585E+02  0.55343879854E+02 -0.24665603252E+03  0.25437435610E+03  0.47000000000E+01 0.  1.
<mgrwt>
<rscale>  0 0.12553832E+03</rscale>
<asrwt>0</asrwt>
<pdfrwt beam="1">  1        2 0.11575537E+00 0.13492136E+03</pdfrwt>
<pdfrwt beam="2">  1       -2 0.34508327E-02 0.13492136E+03</pdfrwt>
<totfact> 0.12571179E+04</totfact>
</mgrwt>
</event>
<event>
 8    1  0.3407580E-004  0.1612945E+03  0.7546771E-02  0.1194567E+00
         -2   -1    0    0    0  501 -0.00000000000E+00  0.00000000000E+00  0.53748516243E+02  0.53748516243E+02  0.00000000000E+00 0. -1.
          2   -1    0    0  501    0  0.00000000000E+00 -0.00000000000E+00 -0.44572534300E+03  0.44572534300E+03  0.00000000000E+00 0.  1.
         25    2    1    2    0    0 -0.10098204307E+03 -0.13878031720E+02 -0.27656603110E+03  0.32016352848E+03  0.12500377045E+03 0.  0.
         23    2    1    2    0    0  0.10098204307E+03  0.13878031720E+02 -0.11541079566E+03  0.17931033076E+03  0.91883459754E+02 0.  0.
          5    1    4    4  502    0  0.11612326406E+02 -0.25871782635E+02 -0.10655439624E+01  0.28764920393E+02  0.47000000000E+01 0. -1.
         -5    1    3    3    0  503 -0.28569205162E+01 -0.23300170830E+02  0.25864892236E+01  0.24079864660E+02  0.47000000000E+01 0. -1.
          5    1    3    3  503    0 -0.98125122550E+02  0.94221391092E+01 -0.27915252032E+03  0.29608366382E+03  0.47000000000E+01 0. -1.
         -5    1    4    4    0  502  0.89369716660E+02  0.39749814355E+02 -0.11434525169E+03  0.15054541037E+03  0.47000000000E+01 0.  1.
<mgrwt>
<rscale>  0 0.15490958E+03</rscale>
<asrwt>0</asrwt>
<pdfrwt beam="1">  1        2 0.68573129E-01 0.16129450E+03</pdfrwt>
<pdfrwt beam="2">  1       -2 0.82690026E-02 0.16129450E+03</pdfrwt>
<totfact> 0.61569176E+03</totfact>
</mgrwt>
</event>
<event>
 8    1  0.3407580E-004  0.1850462E+03  0.7546771E-02  0.1168719E+00
          2   -1    0    0  501    0  0.00000000000E+00  0.00000000000E+00  0.15348030194E+03  0.15348030194E+03  0.00000000000E+00 0. -1.
         -2   -1    0    0    0  501 -0.00000000000E+00 -0.00000000000E+00 -0.22584129907E+03  0.22584129907E+03  0.00000000000E+00 0.  1.
         25    2    1    2    0    0 -0.16084915867E+02  0.13548694903E+03  0.30053731029E+02  0.18747088270E+03  0.12500666875E+03 0.  0.
         23    2    1    2    0    0  0.16084915867E+02 -0.13548694903E+03 -0.10241472816E+03  0.19185071831E+03  0.87763794899E+02 0.  0.
          5    1    3    3  502    0 -0.63319984059E+02  0.93847728939E+02  0.46088399771E+02  0.12232353495E+03  0.47000000000E+01 0. -1.
         -5    1    3    3    0  502  0.47235068192E+02  0.41639220096E+02 -0.16034668742E+02  0.65147347751E+02  0.47000000000E+01 0. -1.
          5    1    4    4  503    0 -0.24234796647E+02 -0.64963789398E+02 -0.12550838751E+02  0.70620343066E+02  0.47000000000E+01 0. -1.
         -5    1    4    4    0  503  0.40319712513E+02 -0.70523159637E+02 -0.89863889407E+02  0.12123037524E+03  0.47000000000E+01 0.  1.
<mgrwt>
<rscale>  0 0.17905713E+03</rscale>
<asrwt>0</asrwt>
<pdfrwt beam="1">  1        2 0.23612354E-01 0.18504622E+03</pdfrwt>
<pdfrwt beam="2">  1       -2 0.34744815E-01 0.18504622E+03</pdfrwt>
<totfact> 0.17621966E+03</totfact>
</mgrwt>
</event>
<event>
 8    1  0.3407580E-004  0.1747822E+03  0.7546771E-02  0.1179313E+00
         -2   -1    0    0    0  501 -0.00000000000E+00  0.00000000000E+00  0.21958641116E+03  0.21958641116E+03  0.00000000000E+00 0.  1.
          2   -1    0    0  501    0  0.00000000000E+00 -0.00000000000E+00 -0.13526951354E+03  0.13526951354E+03  0.00000000000E+00 0. -1.
         25    2    1    2    0    0 -0.73457504783E+02  0.97610619975E+02  0.10218561605E+03  0.20246163740E+03  0.12499990540E+03 0.  0.
         23    2    1    2    0    0  0.73457504783E+02 -0.97610619975E+02 -0.17868718419E+02  0.15239428730E+03  0.89335824639E+02 0.  0.
          5    1    4    4  502    0  0.21055854401E+02 -0.64774468456E+02 -0.47986650049E+02  0.83449921218E+02  0.47000000000E+01 0. -1.
         -5    1    4    4    0  502  0.52401650382E+02 -0.32836151519E+02  0.30117931630E+02  0.68944366086E+02  0.47000000000E+01 0.  1.
          5    1    3    3  503    0 -0.11859078862E+02 -0.26341483748E+02  0.42619348058E+02  0.51701163878E+02  0.47000000000E+01 0.  1.
         -5    1    3    3    0  503 -0.61598425921E+02  0.12395210372E+03  0.59566267989E+02  0.15076047352E+03  0.47000000000E+01 0.  1.
<mgrwt>
<rscale>  0 0.16860231E+03</rscale>
<asrwt>0</asrwt>
<pdfrwt beam="1">  1        2 0.20810694E-01 0.17478219E+03</pdfrwt>
<pdfrwt beam="2">  1       -2 0.33782525E-01 0.17478219E+03</pdfrwt>
<totfact> 0.21353878E+03</totfact>
</mgrwt>
</event>
<event>
 8    1  0.3407580E-004  0.1645339E+03  0.7546771E-02  0.1190905E+00
         -1   -1    0    0    0  501 -0.00000000000E+00  0.00000000000E+00  0.31355492913E+03  0.31355492913E+03  0.00000000000E+00 0.  1.
          1   -1    0    0  501    0  0.00000000000E+00 -0.00000000000E+00 -0.74070528946E+02  0.74070528946E+02  0.00000000000E+00 0. -1.
         25    2    1    2    0    0 -0.31982969817E+02 -0.10209778615E+03  0.12354207312E+03  0.20575242106E+03  0.12499818658E+03 0.  0.
         23    2    1    2    0    0  0.31982969817E+02  0.10209778615E+03  0.11594232707E+03  0.18187303701E+03  0.90489281648E+02 0.  0.
          5    1    4    4  502    0  0.24344684787E+02  0.42512032485E+02 -0.21873187408E+01  0.49262672955E+02  0.47000000000E+01 0. -1.
         -5    1    4    4    0  502  0.76382850302E+01  0.59585753661E+02  0.11812964581E+03  0.13261036406E+03  0.47000000000E+01 0.  1.
          5    1    3    3  503    0 -0.68553918516E+02 -0.10391182737E+03  0.11073328792E+03  0.16667710900E+03  0.47000000000E+01 0. -1.
         -5    1    3    3    0  503  0.36570948699E+02  0.18140412283E+01  0.12808785198E+02  0.39075312060E+02  0.47000000000E+01 0. -1.
<mgrwt>
<rscale>  0 0.15805963E+03</rscale>
<asrwt>0</asrwt>
<pdfrwt beam="1">  1        1 0.11395466E-01 0.16453393E+03</pdfrwt>
<pdfrwt beam="2">  1       -1 0.48239219E-01 0.16453393E+03</pdfrwt>
<totfact> 0.23099742E+03</totfact>
</mgrwt>
</event>
<event>
 8    1  0.3407580E-004  0.1329716E+03  0.7546771E-02  0.1236011E+00
          2   -1    0    0  501    0  0.00000000000E+00  0.00000000000E+00  0.62482455765E+03  0.62482455765E+03  0.00000000000E+00 0.  1.
         -2   -1    0    0    0  501 -0.00000000000E+00 -0.00000000000E+00 -0.23702434050E+02  0.23702434050E+02  0.00000000000E+00 0. -1.
         25    2    1    2    0    0 -0.42754821425E+02  0.15082401294E+02  0.25308017360E+03  0.28588635679E+03  0.12500392453E+03 0.  0.
         23    2    1    2    0    0  0.42754821425E+02 -0.15082401294E+02  0.34804195001E+03  0.36264063491E+03  0.91211718217E+02 0.  0.
          5    1    4    4  502    0  0.49461684640E+02  0.21225655163E+02  0.12027763201E+03  0.13185516845E+03  0.47000000000E+01 0. -1.
         -5    1    3    3    0  503 -0.31377044862E+02  0.67178876537E+02  0.10663459073E+03  0.12996363467E+03  0.47000000000E+01 0. -1.
          5    1    3    3  503    0 -0.11377776564E+02 -0.52096475242E+02  0.14644558287E+03  0.15592272212E+03  0.47000000000E+01 0. -1.
         -5    1    4    4    0  502 -0.67068632148E+01 -0.36308056457E+02  0.22776431800E+03  0.23078546647E+03  0.47000000000E+01 0.  1.
<mgrwt>
<rscale>  0 0.12439924E+03</rscale>
<asrwt>0</asrwt>
<pdfrwt beam="1">  1        2 0.96126842E-01 0.13297156E+03</pdfrwt>
<pdfrwt beam="2">  1       -2 0.36465288E-02 0.13297156E+03</pdfrwt>
<totfact> 0.14412582E+04</totfact>
</mgrwt>
</event>
<event>
 8    1  0.3407580E-004  0.1519269E+03  0.7546771E-02  0.1207531E+00
         -2   -1    0    0    0  501 -0.00000000000E+00  0.00000000000E+00  0.38883475958E+02  0.38883475958E+02  0.00000000000E+00 0.  1.
          2   -1    0    0  501    0  0.00000000000E+00 -0.00000000000E+00 -0.54793178193E+03  0.54793178193E+03  0.00000000000E+00 0. -1.
         25    2    1    2    0    0  0.19310909078E+02 -0.84169267202E+02 -0.37299319882E+03  0.40274770418E+03  0.12499764041E+03 0.  0.
         23    2    1    2    0    0 -0.19310909078E+02  0.84169267202E+02 -0.13605510716E+03  0.18406755371E+03  0.88952208480E+02 0.  0.
          5    1    4    4  502    0 -0.54039268873E+02  0.42822771234E+02 -0.85618038008E+02  0.11002986299E+03  0.47000000000E+01 0. -1.
         -5    1    3    3    0  503 -0.10798730141E+02 -0.29075703250E+02 -0.80139017806E+01  0.32377796619E+02  0.47000000000E+01 0.  1.
          5    1    3    3  503    0  0.30109639219E+02 -0.55093563952E+02 -0.36497929704E+03  0.37036990756E+03  0.47000000000E+01 0.  1.
         -5    1    4    4    0  502  0.34728359795E+02  0.41346495968E+02 -0.50437069147E+02  0.74037690719E+02  0.47000000000E+01 0.  1.
<mgrwt>
<rscale>  0 0.14439755E+03</rscale>
<asrwt>0</asrwt>
<pdfrwt beam="1">  1        2 0.84297198E-01 0.15192691E+03</pdfrwt>
<pdfrwt beam="2">  1       -2 0.59820732E-02 0.15192691E+03</pdfrwt>
<totfact> 0.80366189E+03</totfact>
</mgrwt>
</event>
<event>
 8    1  0.3407580E-004  0.1624602E+03  0.7546771E-02  0.1192636E+00
          1   -1    0    0  501    0  0.00000000000E+00  0.00000000000E+00  0.87571204604E+03  0.87571204604E+03  0.00000000000E+00 0. -1.
         -1   -1    0    0    0  501 -0.00000000000E+00 -0.00000000000E+00 -0.26164916652E+02  0.26164916652E+02  0.00000000000E+00 0.  1.
         25    2    1    2    0    0  0.92151758094E+02 -0.47730701758E+02  0.44127770241E+03  0.47023326723E+03  0.12499259398E+03 0.  0.
         23    2    1    2    0    0 -0.92151758094E+02  0.47730701758E+02  0.40826942697E+03  0.43164369546E+03  0.94139197051E+02 0.  0.
          5    1    4    4  502    0  0.13744317572E+02  0.23524446139E+02  0.12954841915E+03  0.13246580214E+03  0.47000000000E+01 0. -1.
         -5    1    3    3    0  503  0.90469778203E+02  0.18228510155E+02  0.30601043865E+03  0.31965847073E+03  0.47000000000E+01 0.  1.
          5    1    3    3  503    0  0.16819798917E+01 -0.65959211913E+02  0.13526726377E+03  0.15057479650E+03  0.47000000000E+01 0.  1.
         -5    1    4    4    0  502 -0.10589607567E+03  0.24206255619E+02  0.27872100782E+03  0.29917789333E+03  0.47000000000E+01 0.  1.
<mgrwt>
<rscale>  0 0.15656035E+03</rscale>
<asrwt>0</asrwt>
<pdfrwt beam="1">  1        1 0.13472491E+00 0.16246020E+03</pdfrwt>
<pdfrwt beam="2">  1       -1 0.40253725E-02 0.16246020E+03</pdfrwt>
<totfact> 0.47736597E+03</totfact>
</mgrwt>
</event>
<event>
 8    1  0.3407580E-004  0.1645953E+03  0.7546771E-02  0.1191284E+00
          2   -1    0    0  501    0  0.00000000000E+00  0.00000000000E+00  0.80441926956E+03  0.80441926956E+03  0.00000000000E+00 0. -1.
         -2   -1    0    0    0  501 -0.00000000000E+00 -0.00000000000E+00 -0.29033881354E+02  0.29033881354E+02  0.00000000000E+00 0.  1.
         25    2    1    2    0    0 -0.10384939773E+03  0.26133278585E+02  0.47047880523E+03  0.49843949034E+03  0.12499589473E+03 0.  0.
         23    2    1    2    0    0  0.10384939773E+03 -0.26133278585E+02  0.30490658298E+03  0.33501366058E+03  0.88309018625E+02 0.  0.
          5    1    3    3  502    0  0.11755112370E+02 -0.16711415191E+02  0.20063935093E+03  0.20173173574E+03  0.47000000000E+01 0.  1.
         -5    1    4    4    0  503  0.55251150674E+02 -0.58010730723E+02  0.16673068518E+03  0.18503822824E+03  0.47000000000E+01 0.  1.
          5    1    4    4  503    0  0.48598247058E+02  0.31877452139E+02  0.13817589780E+03  0.14997543234E+03  0.47000000000E+01 0. -1.
         -5    1    3    3    0  502 -0.11560451010E+03  0.42844693776E+02  0.26983945430E+03  0.29670775460E+03  0.47000000000E+01 0.  1.
<mgrwt>
<rscale>  0 0.15772932E+03</rscale>
<asrwt>0</asrwt>
<pdfrwt beam="1">  1        2 0.12375679E+00 0.16459532E+03</pdfrwt>
<pdfrwt beam="2">  1       -2 0.44667516E-02 0.16459532E+03</pdfrwt>
<totfact> 0.79759306E+03</totfact>
</mgrwt>
</event>
<event>
 8    1  0.3407580E-004  0.1472206E+03  0.7546771E-02  0.1213289E+00
          2   -1    0    0  501    0  0.00000000000E+00  0.00000000000E+00  0.50128867793E+03  0.50128867793E+03  0.00000000000E+00 0. -1.
         -2   -1    0    0    0  501 -0.00000000000E+00 -0.00000000000E+00 -0.36032086587E+02  0.36032086587E+02  0.00000000000E+00 0.  1.
         25    2    1    2    0    0  0.14345647428E+02 -0.76434757673E+02  0.23177737804E+03  0.27458088404E+03  0.12500335647E+03 0.  0.
         23    2    1    2    0    0 -0.14345647428E+02  0.76434757673E+02  0.23347921330E+03  0.26273988048E+03  0.92041468742E+02 0.  0.
          5    1    4    4  502    0  0.45798986712E+01  0.45112358650E+02  0.26985164149E+02  0.52975366530E+02  0.47000000000E+01 0.  1.
         -5    1    3    3    0  503  0.16302870765E+02 -0.44489810893E+02  0.77641864050E+01  0.48244165025E+02  0.47000000000E+01 0. -1.
          5    1    3    3  503    0 -0.19572233366E+01 -0.31944946780E+02  0.22401319163E+03  0.22633671901E+03  0.47000000000E+01 0. -1.
         -5    1    4    4    0  502 -0.18925546099E+02  0.31322399023E+02  0.20649404916E+03  0.20976451395E+03  0.47000000000E+01 0. -1.
<mgrwt>
<rscale>  0 0.14003003E+03</rscale>
<asrwt>0</asrwt>
<pdfrwt beam="1">  1        2 0.77121330E-01 0.14722061E+03</pdfrwt>
<pdfrwt beam="2">  1       -2 0.55433983E-02 0.14722061E+03</pdfrwt>
<totfact> 0.99377269E+03</totfact>
</mgrwt>
</event>
<event>
 8    1  0.3407580E-004  0.4616683E+03  0.7546771E-02  0.1024904E+00
          1   -1    0    0  501    0  0.00000000000E+00  0.00000000000E+00  0.39117159400E+03  0.39117159400E+03  0.00000000000E+00 0. -1.
         -1   -1    0    0    0  501 -0.00000000000E+00 -0.00000000000E+00 -0.54369739332E+03  0.54369739332E+03  0.00000000000E+00 0.  1.
         25    2    1    2    0    0 -0.35668744102E+03  0.26511584842E+03 -0.13568880045E+03  0.48119550067E+03  0.12500126252E+03 0.  0.
         23    2    1    2    0    0  0.35668744102E+03 -0.26511584842E+03 -0.16836998862E+02  0.45367348665E+03  0.89575690299E+02 0.  0.
          5    1    3    3  502    0 -0.35083136290E+03  0.22694089038E+03 -0.10296956616E+03  0.43035988948E+03  0.47000000000E+01 0. -1.
         -5    1    4    4    0  503  0.27700710020E+03 -0.16619240167E+03  0.12153508337E+02  0.32329962218E+03  0.47000000000E+01 0.  1.
          5    1    4    4  503    0  0.79680340818E+02 -0.98923446746E+02 -0.28990507199E+02  0.13037386447E+03  0.47000000000E+01 0. -1.
         -5    1    3    3    0  502 -0.58560781216E+01  0.38174958036E+02 -0.32719234289E+02  0.50835611184E+02  0.47000000000E+01 0. -1.
<mgrwt>
<rscale>  0 0.45957733E+03</rscale>
<asrwt>0</asrwt>
<pdfrwt beam="1">  1        1 0.60180245E-01 0.46166834E+03</pdfrwt>
<pdfrwt beam="2">  1       -1 0.83645753E-01 0.46166834E+03</pdfrwt>
<totfact> 0.91346500E+01</totfact>
</mgrwt>
</event>
<event>
 8    1  0.3407580E-004  0.2106378E+03  0.7546771E-02  0.1145043E+00
         -1   -1    0    0    0  501 -0.00000000000E+00  0.00000000000E+00  0.44484247780E+03  0.44484247780E+03  0.00000000000E+00 0.  1.
          1   -1    0    0  501    0  0.00000000000E+00 -0.00000000000E+00 -0.11145148366E+03  0.11145148366E+03  0.00000000000E+00 0. -1.
         25    2    1    2    0    0  0.10594775976E+03 -0.13235979393E+03  0.29262157066E+03  0.36054913366E+03  0.12499700525E+03 0.  0.
         23    2    1    2    0    0 -0.10594775976E+03  0.13235979393E+03  0.40769423479E+02  0.19574482780E+03  0.88937331160E+02 0.  0.
          5    1    4    4  502    0 -0.80010579799E+02  0.47106087473E+02 -0.92855151137E+01  0.93429048736E+02  0.47000000000E+01 0. -1.
         -5    1    3    3    0  503  0.68449157133E+02 -0.61520223794E+02  0.49695354480E+02  0.10469834433E+03  0.47000000000E+01 0. -1.
          5    1    3    3  503    0  0.37498602628E+02 -0.70839570133E+02  0.24292621618E+03  0.25585078934E+03  0.47000000000E+01 0. -1.
         -5    1    4    4    0  502 -0.25937179962E+02  0.85253706454E+02  0.50054938592E+02  0.10231577907E+03  0.47000000000E+01 0.  1.
<mgrwt>
<rscale>  0 0.20566827E+03</rscale>
<asrwt>0</asrwt>
<pdfrwt beam="1">  1        1 0.17146382E-01 0.21063783E+03</pdfrwt>
<pdfrwt beam="2">  1       -1 0.68437304E-01 0.21063783E+03</pdfrwt>
<totfact> 0.70041773E+02</totfact>
</mgrwt>
</event>
<event>
 8    1  0.3407580E-004  0.1293760E+03  0.7546771E-02  0.1240664E+00
         -1   -1    0    0    0  501 -0.00000000000E+00  0.00000000000E+00  0.23209856423E+02  0.23209856423E+02  0.00000000000E+00 0.  1.
          1   -1    0    0  501    0  0.00000000000E+00 -0.00000000000E+00 -0.75905789537E+03  0.75905789537E+03  0.00000000000E+00 0. -1.
         25    2    1    2    0    0  0.31634503057E+02 -0.10581169712E+02 -0.59672177873E+03  0.61058580119E+03  0.12500174587E+03 0.  0.
         23    2    1    2    0    0 -0.31634503057E+02  0.10581169712E+02 -0.13912626022E+03  0.17168195061E+03  0.94899277892E+02 0.  0.
          5    1    3    3  502    0  0.49615602043E+01 -0.66216806990E+02 -0.27259254603E+03  0.28060304481E+03  0.47000000000E+01 0. -1.
         -5    1    3    3    0  502  0.26672942853E+02  0.55635637278E+02 -0.32412923270E+03  0.32998275638E+03  0.47000000000E+01 0. -1.
          5    1    4    4  503    0  0.19112200413E+02  0.29178473555E+02 -0.96406172292E+02  0.10262991562E+03  0.47000000000E+01 0. -1.
         -5    1    4    4    0  503 -0.50746703470E+02 -0.18597303843E+02 -0.42720087929E+02  0.69052034988E+02  0.47000000000E+01 0.  1.
<mgrwt>
<rscale>  0 0.12148709E+03</rscale>
<asrwt>0</asrwt>
<pdfrwt beam="1">  1        1 0.11677814E+00 0.12937596E+03</pdfrwt>
<pdfrwt beam="2">  1       -1 0.35707472E-02 0.12937596E+03</pdfrwt>
<totfact> 0.70035083E+03</totfact>
</mgrwt>
</event>
<event>
 8    1  0.3407580E-004  0.1707843E+03  0.7546771E-02  0.1183394E+00
         -2   -1    0    0    0  501 -0.00000000000E+00  0.00000000000E+00  0.54109816426E+03  0.54109816426E+03  0.00000000000E+00 0.  1.
          2   -1    0    0  501    0  0.00000000000E+00 -0.00000000000E+00 -0.61405308992E+02  0.61405308992E+02  0.00000000000E+00 0. -1.
         25    2    1    2    0    0 -0.98994016564E+02 -0.61179379437E+02  0.10712172629E+03  0.20159948238E+03  0.12499822106E+03 0.  0.
         23    2    1    2    0    0  0.98994016564E+02  0.61179379437E+02  0.37257112898E+03  0.40090399088E+03  0.91498808535E+02 0.  0.
          5    1    4    4  502    0  0.16893586451E+02  0.20637439196E+02  0.13399494169E+02  0.30214791142E+02  0.47000000000E+01 0. -1.
         -5    1    4    4    0  502  0.82100430113E+02  0.40541940241E+02  0.35917163482E+03  0.37068919973E+03  0.47000000000E+01 0.  1.
          5    1    3    3  503    0 -0.47738147047E+02 -0.50068927282E+02  0.12750191083E+03  0.14513667844E+03  0.47000000000E+01 0.  1.
         -5    1    3    3    0  503 -0.51255869517E+02 -0.11110452154E+02 -0.20380184542E+02  0.56462803942E+02  0.47000000000E+01 0.  1.
<mgrwt>
<rscale>  0 0.16478896E+03</rscale>
<asrwt>0</asrwt>
<pdfrwt beam="1">  1        2 0.94469709E-02 0.17078433E+03</pdfrwt>
<pdfrwt beam="2">  1       -2 0.83245869E-01 0.17078433E+03</pdfrwt>
<totfact> 0.88432827E+02</totfact>
</mgrwt>
</event>
<event>
 8    1  0.3407580E-004  0.1385143E+03  0.7546771E-02  0.1226718E+00
         -1   -1    0    0    0  501 -0.00000000000E+00  0.00000000000E+00  0.94694878407E+03  0.94694878407E+03  0.00000000000E+00 0.  1.
          1   -1    0    0  501    0  0.00000000000E+00 -0.00000000000E+00 -0.16243886375E+02  0.16243886375E+02  0.00000000000E+00 0. -1.
         25    2    1    2    0    0 -0.17205088248E+02 -0.57139618032E+02  0.54773395575E+03  0.56497672992E+03  0.12500107222E+03 0.  0.
         23    2    1    2    0    0  0.17205088248E+02  0.57139618032E+02  0.38297094194E+03  0.39821594053E+03  0.91368714037E+02 0.  0.
          5    1    3    3  502    0  0.35010699452E+02 -0.27232844287E+02  0.67127392862E+02  0.80594998335E+02  0.47000000000E+01 0.  1.
         -5    1    3    3    0  502 -0.52215787700E+02 -0.29906773745E+02  0.48060656289E+03  0.48438173158E+03  0.47000000000E+01 0.  1.
          5    1    4    4  503    0  0.52650427599E+02  0.37385684255E+02  0.18300584613E+03  0.19412106180E+03  0.47000000000E+01 0. -1.
         -5    1    4    4    0  503 -0.35445339351E+02  0.19753933777E+02  0.19996509581E+03  0.20409487873E+03  0.47000000000E+01 0.  1.
<mgrwt>
<rscale>  0 0.13049874E+03</rscale>
<asrwt>0</asrwt>
<pdfrwt beam="1">  1        1 0.24990602E-02 0.13851433E+03</pdfrwt>
<pdfrwt beam="2">  1       -1 0.14568439E+00 0.13851433E+03</pdfrwt>
<totfact> 0.17515966E+03</totfact>
</mgrwt>
</event>
<event>
 8    1  0.3407580E-004  0.1928804E+03  0.7546771E-02  0.1160469E+00
         -1   -1    0    0    0  501 -0.00000000000E+00  0.00000000000E+00  0.21986480192E+03  0.21986480192E+03  0.00000000000E+00 0.  1.
          1   -1    0    0  501    0  0.00000000000E+00 -0.00000000000E+00 -0.15358246266E+03  0.15358246266E+03  0.00000000000E+00 0. -1.
         25    2    1    2    0    0  0.13967473176E+03  0.45474154269E+02  0.19079006394E+02  0.19382170004E+03  0.12500365404E+03 0.  0.
         23    2    1    2    0    0 -0.13967473176E+03 -0.45474154269E+02  0.47203332867E+02  0.17962556453E+03  0.91979668420E+02 0.  0.
          5    1    3    3  502    0  0.17692492705E+02  0.65900102652E+02  0.14797139313E+02  0.69977804764E+02  0.47000000000E+01 0.  1.
         -5    1    4    4    0  503 -0.77762439959E+02 -0.70802920823E+02  0.38091736053E+02  0.11195142259E+03  0.47000000000E+01 0.  1.
          5    1    4    4  503    0 -0.61912291797E+02  0.25328766554E+02  0.91115968144E+01  0.67674141939E+02  0.47000000000E+01 0. -1.
         -5    1    3    3    0  502  0.12198223905E+03 -0.20425948384E+02  0.42818670818E+01  0.12384389528E+03  0.47000000000E+01 0.  1.
<mgrwt>
<rscale>  0 0.18779043E+03</rscale>
<asrwt>0</asrwt>
<pdfrwt beam="1">  1        1 0.23628071E-01 0.19288039E+03</pdfrwt>
<pdfrwt beam="2">  1       -1 0.33825354E-01 0.19288039E+03</pdfrwt>
<totfact> 0.16901010E+03</totfact>
</mgrwt>
</event>
<event>
 8    1  0.3407580E-004  0.1360910E+03  0.7546771E-02  0.1230974E+00
         -2   -1    0    0    0  501 -0.00000000000E+00  0.00000000000E+00  0.25984233087E+02  0.25984233087E+02  0.00000000000E+00 0. -1.
          2   -1    0    0  501    0  0.00000000000E+00 -0.00000000000E+00 -0.66046261627E+03  0.66046261627E+03  0.00000000000E+00 0.  1.
         25    2    1    2    0    0  0.24973825833E+02  0.47666033479E+02 -0.48384755942E+03  0.50262234819E+03  0.12500008567E+03 0.  0.
         23    2    1    2    0    0 -0.24973825833E+02 -0.47666033479E+02 -0.15063082377E+03  0.18382450117E+03  0.90587302851E+02 0.  0.
          5    1    3    3  502    0  0.52381231309E+02  0.28805620669E+02 -0.45318315940E+03  0.45713304753E+03  0.47000000000E+01 0.  1.
         -5    1    3    3    0  502 -0.27407405475E+02  0.18860412811E+02 -0.30664400018E+02  0.45489300663E+02  0.47000000000E+01 0.  1.
          5    1    4    4  503    0 -0.30647909805E+02 -0.98251726248E+01 -0.46710326166E+01  0.32859350849E+02  0.47000000000E+01 0. -1.
         -5    1    4    4    0  503  0.56740839718E+01 -0.37840860855E+02 -0.14595979115E+03  0.15096515032E+03  0.47000000000E+01 0.  1.
<mgrwt>
<rscale>  0 0.12765748E+03</rscale>
<asrwt>0</asrwt>
<pdfrwt beam="1">  1        2 0.10160963E+00 0.13609101E+03</pdfrwt>
<pdfrwt beam="2">  1       -2 0.39975745E-02 0.13609101E+03</pdfrwt>
<totfact> 0.11813529E+04</totfact>
</mgrwt>
</event>
<event>
 8    1  0.3407580E-004  0.1256592E+03  0.7546771E-02  0.1245840E+00
          4   -1    0    0  501    0  0.00000000000E+00  0.00000000000E+00  0.33276427698E+03  0.33276427698E+03  0.00000000000E+00 0. -1.
         -4   -1    0    0    0  501 -0.00000000000E+00 -0.00000000000E+00 -0.39755120085E+02  0.39755120085E+02  0.00000000000E+00 0.  1.
         25    2    1    2    0    0  0.11917413599E+02 -0.48891556068E+01  0.12296789289E+03  0.17581618329E+03  0.12499719611E+03 0.  0.
         23    2    1    2    0    0 -0.11917413599E+02  0.48891556068E+01  0.17004126400E+03  0.19670321377E+03  0.98041798509E+02 0.  0.
          5    1    3    3  502    0  0.22739632551E+02 -0.38540589849E+02 -0.28082215168E+01  0.45082635932E+02  0.47000000000E+01 0.  1.
         -5    1    3    3    0  502 -0.10822218953E+02  0.33651434243E+02  0.12577611441E+03  0.13073354736E+03  0.47000000000E+01 0.  1.
          5    1    4    4  503    0 -0.13529505324E+02 -0.42928979968E+02  0.50248784664E+02  0.67623776851E+02  0.47000000000E+01 0. -1.
         -5    1    4    4    0  503  0.16120917249E+01  0.47818135575E+02  0.11979247934E+03  0.12907943692E+03  0.47000000000E+01 0.  1.
<mgrwt>
<rscale>  0 0.11835254E+03</rscale>
<asrwt>0</asrwt>
<pdfrwt beam="1">  1        4 0.51194502E-01 0.12565917E+03</pdfrwt>
<pdfrwt beam="2">  1       -4 0.61161725E-02 0.12565917E+03</pdfrwt>
<totfact> 0.10329374E+03</totfact>
</mgrwt>
</event>
<event>
 8    1  0.3407580E-004  0.1288705E+03  0.7546771E-02  0.1242630E+00
          1   -1    0    0  501    0  0.00000000000E+00  0.00000000000E+00  0.60353179346E+03  0.60353179346E+03  0.00000000000E+00 0. -1.
         -1   -1    0    0    0  501 -0.00000000000E+00 -0.00000000000E+00 -0.21462663781E+02  0.21462663781E+02  0.00000000000E+00 0.  1.
         25    2    1    2    0    0 -0.27756437642E+02  0.14554443034E+02  0.35883891625E+03  0.38127809491E+03  0.12500146480E+03 0.  0.
         23    2    1    2    0    0  0.27756437642E+02 -0.14554443034E+02  0.22323021343E+03  0.24371636233E+03  0.92648180965E+02 0.  0.
          5    1    3    3  502    0 -0.54632372556E+02  0.49712297790E+02  0.14432730752E+03  0.16219886059E+03  0.47000000000E+01 0.  1.
         -5    1    3    3    0  502  0.26875934914E+02 -0.35157854756E+02  0.21451160873E+03  0.21907923432E+03  0.47000000000E+01 0.  1.
          5    1    4    4  503    0 -0.12796551835E+02  0.29826391533E+02  0.45884226694E+02  0.56398737841E+02  0.47000000000E+01 0. -1.
         -5    1    4    4    0  503  0.40552989477E+02 -0.44380834567E+02  0.17734598673E+03  0.18731762448E+03  0.47000000000E+01 0.  1.
<mgrwt>
<rscale>  0 0.12028354E+03</rscale>
<asrwt>0</asrwt>
<pdfrwt beam="1">  1        1 0.92851032E-01 0.12887055E+03</pdfrwt>
<pdfrwt beam="2">  1       -1 0.33019487E-02 0.12887055E+03</pdfrwt>
<totfact> 0.10849368E+04</totfact>
</mgrwt>
</event>
<event>
 8    1  0.3407580E-004  0.1350958E+03  0.7546771E-02  0.1233770E+00
         -2   -1    0    0    0  501 -0.00000000000E+00  0.00000000000E+00  0.51379659579E+02  0.51379659579E+02  0.00000000000E+00 0.  1.
          2   -1    0    0  501    0  0.00000000000E+00 -0.00000000000E+00 -0.28397132633E+03  0.28397132633E+03  0.00000000000E+00 0. -1.
         25    2    1    2    0    0 -0.11101529526E+02 -0.50011241074E+02 -0.16497858573E+03  0.21323413394E+03  0.12500597561E+03 0.  0.
         23    2    1    2    0    0  0.11101529526E+02  0.50011241074E+02 -0.67613081024E+02  0.12211685197E+03  0.87844343115E+02 0.  0.
          5    1    3    3  502    0  0.51593149351E+02 -0.85654081681E+01 -0.35283600054E+02  0.63263272993E+02  0.47000000000E+01 0. -1.
         -5    1    3    3    0  502 -0.62694678877E+02 -0.41445832906E+02 -0.12969498567E+03  0.14997086095E+03  0.47000000000E+01 0. -1.
          5    1    4    4  503    0  0.34682797528E+02  0.23095718562E+02 -0.74389631038E+02  0.85394472106E+02  0.47000000000E+01 0. -1.
         -5    1    4    4    0  503 -0.23581268002E+02  0.26915522512E+02  0.67765500137E+01  0.36722379862E+02  0.47000000000E+01 0.  1.
<mgrwt>
<rscale>  0 0.12583503E+03</rscale>
<asrwt>0</asrwt>
<pdfrwt beam="1">  1        2 0.43687896E-01 0.13509575E+03</pdfrwt>
<pdfrwt beam="2">  1       -2 0.79045630E-02 0.13509575E+03</pdfrwt>
<totfact> 0.10562322E+04</totfact>
</mgrwt>
</event>
<event>
 8    1  0.3407580E-004  0.1299913E+03  0.7546771E-02  0.1240678E+00
         -2   -1    0    0    0  501 -0.00000000000E+00  0.00000000000E+00  0.17348440520E+03  0.17348440520E+03  0.00000000000E+00 0.  1.
          2   -1    0    0  501    0  0.00000000000E+00 -0.00000000000E+00 -0.13620588373E+03  0.13620588373E+03  0.00000000000E+00 0. -1.
         25    2    1    2    0    0  0.95091257313E+00  0.35669371364E+02 -0.82686471823E+02  0.15406101778E+03  0.12499814515E+03 0.  0.
         23    2    1    2    0    0 -0.95091257313E+00 -0.35669371364E+02  0.11996499329E+03  0.15562927114E+03  0.92496822280E+02 0.  0.
          5    1    3    3  502    0  0.38357407474E+02 -0.16692853610E+02  0.79144240734E+01  0.42833050068E+02  0.47000000000E+01 0. -1.
         -5    1    3    3    0  502 -0.37406494900E+02  0.52362224974E+02 -0.90600895896E+02  0.11122796772E+03  0.47000000000E+01 0. -1.
          5    1    4    4  503    0 -0.33751455470E+02 -0.75382012928E+01  0.84023627996E+01  0.35898118693E+02  0.47000000000E+01 0. -1.
         -5    1    4    4    0  503  0.32800542897E+02 -0.28131170071E+02  0.11156263049E+03  0.11973115245E+03  0.47000000000E+01 0.  1.
<mgrwt>
<rscale>  0 0.12147831E+03</rscale>
<asrwt>0</asrwt>
<pdfrwt beam="1">  1        2 0.20954751E-01 0.12999133E+03</pdfrwt>
<pdfrwt beam="2">  1       -2 0.26689909E-01 0.12999133E+03</pdfrwt>
<totfact> 0.31953160E+03</totfact>
</mgrwt>
</event>
<event>
 8    1  0.3407580E-004  0.1880958E+03  0.7546771E-02  0.1165291E+00
         -1   -1    0    0    0  501 -0.00000000000E+00  0.00000000000E+00  0.18285221971E+03  0.18285221971E+03  0.00000000000E+00 0.  1.
          1   -1    0    0  501    0  0.00000000000E+00 -0.00000000000E+00 -0.17986960835E+03  0.17986960835E+03  0.00000000000E+00 0. -1.
         25    2    1    2    0    0 -0.65178896240E+02 -0.12452262005E+03  0.38162590247E+02  0.19192812739E+03  0.12500340543E+03 0.  0.
         23    2    1    2    0    0  0.65178896240E+02  0.12452262005E+03 -0.35179978892E+02  0.17079370067E+03  0.90436087123E+02 0.  0.
          5    1    3    3  502    0 -0.27150505044E+01 -0.60431996979E+02 -0.40280315123E+02  0.72828507773E+02  0.47000000000E+01 0.  1.
         -5    1    4    4    0  503  0.38506936070E+02 -0.79642111403E+00 -0.54726928182E+01  0.39184930506E+02  0.47000000000E+01 0.  1.
          5    1    4    4  503    0  0.26671960169E+02  0.12531904117E+03 -0.29707286074E+02  0.13160877016E+03  0.47000000000E+01 0. -1.
         -5    1    3    3    0  502 -0.62463845735E+02 -0.64090623074E+02  0.78442905369E+02  0.11909961962E+03  0.47000000000E+01 0.  1.
<mgrwt>
<rscale>  0 0.18262016E+03</rscale>
<asrwt>0</asrwt>
<pdfrwt beam="1">  1        1 0.27672247E-01 0.18809578E+03</pdfrwt>
<pdfrwt beam="2">  1       -1 0.28131111E-01 0.18809578E+03</pdfrwt>
<totfact> 0.18916495E+03</totfact>
</mgrwt>
</event>
<event>
 8    1  0.3407580E-004  0.1263290E+03  0.7546771E-02  0.1248871E+00
         -1   -1    0    0    0  501 -0.00000000000E+00  0.00000000000E+00  0.14338892526E+03  0.14338892526E+03  0.00000000000E+00 0.  1.
          1   -1    0    0  501    0  0.00000000000E+00 -0.00000000000E+00 -0.92886863961E+02  0.92886863961E+02  0.00000000000E+00 0. -1.
         25    2    1    2    0    0 -0.18029173481E+02 -0.31497026143E+01  0.67352248502E+02  0.14316190998E+03  0.12499614141E+03 0.  0.
         23    2    1    2    0    0  0.18029173481E+02  0.31497026143E+01 -0.16850187206E+02  0.93113879242E+02  0.89729002979E+02 0.  0.
          5    1    4    4  502    0  0.36841624752E+02  0.10269665631E+02 -0.44329551758E+02  0.58736449549E+02  0.47000000000E+01 0. -1.
         -5    1    3    3    0  503 -0.39328452408E+02  0.52584747161E+02  0.28043464486E+02  0.71557031123E+02  0.47000000000E+01 0.  1.
          5    1    3    3  503    0  0.21299278927E+02 -0.55734449775E+02  0.39308784016E+02  0.71604878852E+02  0.47000000000E+01 0.  1.
         -5    1    4    4    0  502 -0.18812451271E+02 -0.71199630165E+01  0.27479364552E+02  0.34377429694E+02  0.47000000000E+01 0.  1.
<mgrwt>
<rscale>  0 0.11656637E+03</rscale>
<asrwt>0</asrwt>
<pdfrwt beam="1">  1        1 0.14290287E-01 0.12632896E+03</pdfrwt>
<pdfrwt beam="2">  1       -1 0.22059835E-01 0.12632896E+03</pdfrwt>
<totfact> 0.64342806E+03</totfact>
</mgrwt>
</event>
<event>
 8    1  0.3407580E-004  0.1316841E+03  0.7546771E-02  0.1238340E+00
          1   -1    0    0  501    0  0.00000000000E+00  0.00000000000E+00  0.10191662152E+04  0.10191662152E+04  0.00000000000E+00 0. -1.
         -1   -1    0    0    0  501 -0.00000000000E+00 -0.00000000000E+00 -0.13193655390E+02  0.13193655390E+02  0.00000000000E+00 0.  1.
         25    2    1    2    0    0 -0.34895996125E+02  0.22287377514E+02  0.59417990107E+03  0.60859712291E+03  0.12500498166E+03 0.  0.
         23    2    1    2    0    0  0.34895996125E+02 -0.22287377514E+02  0.41179265877E+03  0.42376274771E+03  0.91034140775E+02 0.  0.
          5    1    3    3  502    0 -0.55093567454E+02  0.42998940140E+02  0.55635041097E+03  0.56074243626E+03  0.47000000000E+01 0. -1.
         -5    1    4    4    0  503 -0.30648058279E+02 -0.23118722784E+01  0.11525042419E+03  0.11937084445E+03  0.47000000000E+01 0.  1.
          5    1    4    4  503    0  0.65544054404E+02 -0.19975505236E+02  0.29654223458E+03  0.30439190326E+03  0.47000000000E+01 0. -1.
         -5    1    3    3    0  502  0.20197571328E+02 -0.20711562626E+02  0.37829490098E+02  0.47854686657E+02  0.47000000000E+01 0. -1.
<mgrwt>
<rscale>  0 0.12293034E+03</rscale>
<asrwt>0</asrwt>
<pdfrwt beam="1">  1        1 0.15679474E+00 0.13168410E+03</pdfrwt>
<pdfrwt beam="2">  1       -1 0.20297939E-02 0.13168410E+03</pdfrwt>
<totfact> 0.99982212E+03</totfact>
</mgrwt>
</event>
<event>
 8    1  0.3407580E-004  0.1535555E+03  0.7546771E-02  0.1204385E+00
         -2   -1    0    0    0  501 -0.00000000000E+00  0.00000000000E+00  0.50196660627E+02  0.50196660627E+02  0.00000000000E+00 0.  1.
          2   -1    0    0  501    0  0.00000000000E+00 -0.00000000000E+00 -0.43251379027E+03  0.43251379027E+03  0.00000000000E+00 0. -1.
         25    2    1    2    0    0 -0.58668332909E+01 -0.88994344386E+02 -0.27645315282E+03  0.31623667524E+03  0.12499950398E+03 0.  0.
         23    2    1    2    0    0  0.58668332909E+01  0.88994344386E+02 -0.10586397682E+03  0.16647377566E+03  0.92476609625E+02 0.  0.
          5    1    3    3  502    0 -0.50442476021E+02 -0.94931730764E+02 -0.17997534703E+03  0.20968951436E+03  0.47000000000E+01 0.  1.
         -5    1    4    4    0  503  0.38862385637E+02  0.82249806284E+02 -0.92830546489E+02  0.13005735663E+03  0.47000000000E+01 0.  1.
          5    1    4    4  503    0 -0.32995552346E+02  0.67445381022E+01 -0.13033430333E+02  0.36416419032E+02  0.47000000000E+01 0. -1.
         -5    1    3    3    0  502  0.44575642730E+02  0.59373863776E+01 -0.96477805793E+02  0.10654716088E+03  0.47000000000E+01 0.  1.
<mgrwt>
<rscale>  0 0.14686062E+03</rscale>
<asrwt>0</asrwt>
<pdfrwt beam="1">  1        2 0.66540585E-01 0.15355549E+03</pdfrwt>
<pdfrwt beam="2">  1       -2 0.77225629E-02 0.15355549E+03</pdfrwt>
<totfact> 0.70521326E+03</totfact>
</mgrwt>
</event>
<event>
 8    1  0.3407580E-004  0.1544551E+03  0.7546771E-02  0.1203809E+00
          2   -1    0    0  501    0  0.00000000000E+00  0.00000000000E+00  0.39436344962E+03  0.39436344962E+03  0.00000000000E+00 0.  1.
         -2   -1    0    0    0  501 -0.00000000000E+00 -0.00000000000E+00 -0.80520631312E+02  0.80520631312E+02  0.00000000000E+00 0. -1.
         25    2    1    2    0    0 -0.86884441890E+02  0.26102119340E+02  0.31075593630E+03  0.34702396049E+03  0.12500460123E+03 0.  0.
         23    2    1    2    0    0  0.86884441890E+02 -0.26102119340E+02  0.30868820047E+01  0.12786012044E+03  0.90046958210E+02 0.  0.
          5    1    4    4  502    0  0.57643819256E+02 -0.30756753941E+02 -0.38963550493E+02  0.76217032731E+02  0.47000000000E+01 0. -1.
         -5    1    4    4    0  502  0.29240622634E+02  0.46546346003E+01  0.42050432498E+02  0.51643087713E+02  0.47000000000E+01 0.  1.
          5    1    3    3  503    0 -0.41687972137E+02  0.71898011239E+02  0.12322966159E+03  0.14871062685E+03  0.47000000000E+01 0. -1.
         -5    1    3    3    0  503 -0.45196469753E+02 -0.45795891899E+02  0.18752627471E+03  0.19831333364E+03  0.47000000000E+01 0. -1.
<mgrwt>
<rscale>  0 0.14731732E+03</rscale>
<asrwt>0</asrwt>
<pdfrwt beam="1">  1        2 0.60671299E-01 0.15445510E+03</pdfrwt>
<pdfrwt beam="2">  1       -2 0.12387790E-01 0.15445510E+03</pdfrwt>
<totfact> 0.37034057E+03</totfact>
</mgrwt>
</event>
<event>
 8    1  0.3407580E-004  0.2053653E+03  0.7546771E-02  0.1149031E+00
          1   -1    0    0  501    0  0.00000000000E+00  0.00000000000E+00  0.29898335213E+03  0.29898335213E+03  0.00000000000E+00 0.  1.
         -1   -1    0    0    0  501 -0.00000000000E+00 -0.00000000000E+00 -0.18782520712E+03  0.18782520712E+03  0.00000000000E+00 0. -1.
         25    2    1    2    0    0 -0.12592386912E+03  0.10340873405E+03 -0.78503932283E+02  0.21985849653E+03  0.12499881607E+03 0.  0.
         23    2    1    2    0    0  0.12592386912E+03 -0.10340873405E+03  0.18966207729E+03  0.26695006272E+03  0.93490348878E+02 0.  0.
          5    1    4    4  502    0  0.10251841024E+03 -0.10672663755E+03  0.11205155019E+03  0.18568316968E+03  0.47000000000E+01 0. -1.
         -5    1    3    3    0  503 -0.10891835771E+03  0.22839789672E+02 -0.85580332959E+01  0.11171479120E+03  0.47000000000E+01 0. -1.
          5    1    3    3  503    0 -0.17005511411E+02  0.80568944382E+02 -0.69945898987E+02  0.10814370533E+03  0.47000000000E+01 0. -1.
         -5    1    4    4    0  502  0.23405458883E+02  0.33179034984E+01  0.77610527095E+02  0.81266893045E+02  0.47000000000E+01 0.  1.
<mgrwt>
<rscale>  0 0.20084114E+03</rscale>
<asrwt>0</asrwt>
<pdfrwt beam="1">  1        1 0.45997439E-01 0.20536526E+03</pdfrwt>
<pdfrwt beam="2">  1       -1 0.28896186E-01 0.20536526E+03</pdfrwt>
<totfact> 0.95811475E+02</totfact>
</mgrwt>
</event>
<event>
 8    1  0.3407580E-004  0.1313674E+03  0.7546771E-02  0.1240366E+00
          2   -1    0    0  501    0  0.00000000000E+00  0.00000000000E+00  0.20889866733E+03  0.20889866733E+03  0.00000000000E+00 0. -1.
         -2   -1    0    0    0  501 -0.00000000000E+00 -0.00000000000E+00 -0.64339058616E+02  0.64339058616E+02  0.00000000000E+00 0.  1.
         25    2    1    2    0    0 -0.39085769919E+02  0.10005807193E+02  0.10736555805E+03  0.16966068109E+03  0.12501827893E+03 0.  0.
         23    2    1    2    0    0  0.39085769919E+02 -0.10005807193E+02  0.37194050668E+02  0.10357704485E+03  0.87846418410E+02 0.  0.
          5    1    3    3  502    0  0.34172070935E+02 -0.31772003175E+02  0.37507162552E+02  0.60050544214E+02  0.47000000000E+01 0. -1.
         -5    1    3    3    0  502 -0.73257840855E+02  0.41777810368E+02  0.69858395494E+02  0.10961013688E+03  0.47000000000E+01 0. -1.
          5    1    4    4  503    0  0.26750571283E+01  0.33166902360E+02  0.32436653734E+02  0.46705736781E+02  0.47000000000E+01 0. -1.
         -5    1    4    4    0  503  0.36410712791E+02 -0.43172709553E+02  0.47573969343E+01  0.56871308071E+02  0.47000000000E+01 0.  1.
<mgrwt>
<rscale>  0 0.12167095E+03</rscale>
<asrwt>0</asrwt>
<pdfrwt beam="1">  1        2 0.32138256E-01 0.13136736E+03</pdfrwt>
<pdfrwt beam="2">  1       -2 0.98983168E-02 0.13136736E+03</pdfrwt>
<totfact> 0.10306657E+04</totfact>
</mgrwt>
</event>
<event>
 8    1  0.3407580E-004  0.1290980E+03  0.7546771E-02  0.1241475E+00
          1   -1    0    0  501    0  0.00000000000E+00  0.00000000000E+00  0.10225968300E+03  0.10225968300E+03  0.00000000000E+00 0. -1.
         -1   -1    0    0    0  501 -0.00000000000E+00 -0.00000000000E+00 -0.12938431676E+03  0.12938431676E+03  0.00000000000E+00 0.  1.
         25    2    1    2    0    0 -0.72993571360E+01 -0.31376009174E+02 -0.27766427091E+02  0.13205026664E+03  0.12501425471E+03 0.  0.
         23    2    1    2    0    0  0.72993571360E+01  0.31376009174E+02  0.64179332968E+00  0.99593733127E+02  0.94237812014E+02 0.  0.
          5    1    4    4  502    0 -0.27308923559E+02 -0.24300520569E+01 -0.30956724559E+02  0.41618400430E+02  0.47000000000E+01 0. -1.
         -5    1    3    3    0  503 -0.22800440653E+02 -0.71960526880E+02 -0.41468417857E+02  0.86254838718E+02  0.47000000000E+01 0. -1.
          5    1    3    3  503    0  0.15501083517E+02  0.40584517706E+02  0.13701990766E+02  0.45795427922E+02  0.47000000000E+01 0. -1.
         -5    1    4    4    0  502  0.34608280695E+02  0.33806061231E+02  0.31598517888E+02  0.57975332697E+02  0.47000000000E+01 0.  1.
<mgrwt>
<rscale>  0 0.12098887E+03</rscale>
<asrwt>0</asrwt>
<pdfrwt beam="1">  1        1 0.15732259E-01 0.12909802E+03</pdfrwt>
<pdfrwt beam="2">  1       -1 0.19905279E-01 0.12909802E+03</pdfrwt>
<totfact> 0.67162313E+03</totfact>
</mgrwt>
</event>
<event>
 8    1  0.3407580E-004  0.1989210E+03  0.7546771E-02  0.1154961E+00
          2   -1    0    0  501    0  0.00000000000E+00  0.00000000000E+00  0.25746470374E+03  0.25746470374E+03  0.00000000000E+00 0.  1.
         -2   -1    0    0    0  501 -0.00000000000E+00 -0.00000000000E+00 -0.31817368477E+03  0.31817368477E+03  0.00000000000E+00 0. -1.
         25    2    1    2    0    0  0.10698114629E+03 -0.11180513061E+03 -0.24676903258E+03  0.31696137349E+03  0.12499681576E+03 0.  0.
         23    2    1    2    0    0 -0.10698114629E+03  0.11180513061E+03  0.18606005155E+03  0.25867701503E+03  0.91378894855E+02 0.  0.
          5    1    3    3  502    0  0.72425550005E+02 -0.81178003165E+02 -0.59624117139E+02  0.12414690425E+03  0.47000000000E+01 0. -1.
         -5    1    4    4    0  503 -0.71386000941E+02  0.20329228602E+02  0.45551549838E+02  0.87213945895E+02  0.47000000000E+01 0.  1.
          5    1    4    4  503    0 -0.35595145351E+02  0.91475902011E+02  0.14050850172E+03  0.17146306913E+03  0.47000000000E+01 0. -1.
         -5    1    3    3    0  502  0.34555596287E+02 -0.30627127448E+02 -0.18714491544E+03  0.19281446924E+03  0.47000000000E+01 0. -1.
<mgrwt>
<rscale>  0 0.19393363E+03</rscale>
<asrwt>0</asrwt>
<pdfrwt beam="1">  1        2 0.39609954E-01 0.19892098E+03</pdfrwt>
<pdfrwt beam="2">  1       -2 0.48949798E-01 0.19892098E+03</pdfrwt>
<totfact> 0.51920624E+02</totfact>
</mgrwt>
</event>
<event>
 8    1  0.3407580E-004  0.1565382E+03  0.7546771E-02  0.1201230E+00
          2   -1    0    0  501    0  0.00000000000E+00  0.00000000000E+00  0.42154926875E+03  0.42154926875E+03  0.00000000000E+00 0.  1.
         -2   -1    0    0    0  501 -0.00000000000E+00 -0.00000000000E+00 -0.51444408687E+02  0.51444408687E+02  0.00000000000E+00 0. -1.
         25    2    1    2    0    0 -0.79610391960E+02 -0.50406825537E+02  0.14631760238E+03  0.21427330724E+03  0.12500218742E+03 0.  0.
         23    2    1    2    0    0  0.79610391960E+02  0.50406825537E+02  0.22378725769E+03  0.25872037020E+03  0.89313104781E+02 0.  0.
          5    1    3    3  502    0 -0.74542491579E+02 -0.11947269925E+02  0.14801082947E+02  0.77074524753E+02  0.47000000000E+01 0. -1.
         -5    1    3    3    0  502 -0.50679003808E+01 -0.38459555612E+02  0.13151651943E+03  0.13719878248E+03  0.47000000000E+01 0. -1.
          5    1    4    4  503    0  0.12402583845E+02 -0.25242682730E+02  0.47653605446E+02  0.55533532478E+02  0.47000000000E+01 0. -1.
         -5    1    4    4    0  503  0.67207808114E+02  0.75649508267E+02  0.17613365224E+03  0.20318683773E+03  0.47000000000E+01 0.  1.
<mgrwt>
<rscale>  0 0.14938533E+03</rscale>
<asrwt>0</asrwt>
<pdfrwt beam="1">  1        2 0.64853731E-01 0.15653820E+03</pdfrwt>
<pdfrwt beam="2">  1       -2 0.79145247E-02 0.15653820E+03</pdfrwt>
<totfact> 0.69883687E+03</totfact>
</mgrwt>
</event>
<event>
 8    1  0.3407580E-004  0.2335588E+03  0.7546771E-02  0.1126972E+00
         -1   -1    0    0    0  501 -0.00000000000E+00  0.00000000000E+00  0.47203701835E+02  0.47203701835E+02  0.00000000000E+00 0.  1.
          1   -1    0    0  501    0  0.00000000000E+00 -0.00000000000E+00 -0.10865603876E+04  0.10865603876E+04  0.00000000000E+00 0. -1.
         25    2    1    2    0    0 -0.19592929351E+03 -0.23164760729E+02 -0.49103676592E+03  0.54375252130E+03  0.12499921898E+03 0.  0.
         23    2    1    2    0    0  0.19592929351E+03  0.23164760729E+02 -0.54831991988E+03  0.59001156817E+03  0.92379769626E+02 0.  0.
          5    1    4    4  502    0  0.13965948747E+03  0.85208639802E+01 -0.48087529380E+03  0.50083981047E+03  0.47000000000E+01 0. -1.
         -5    1    4    4    0  502  0.56269806039E+02  0.14643896749E+02 -0.67444626087E+02  0.89171757702E+02  0.47000000000E+01 0.  1.
          5    1    3    3  503    0 -0.38623552977E+02 -0.55658226780E+02 -0.20116469277E+03  0.21231801777E+03  0.47000000000E+01 0. -1.
         -5    1    3    3    0  503 -0.15730574053E+03  0.32493466051E+02 -0.28987207315E+03  0.33143450353E+03  0.47000000000E+01 0. -1.
<mgrwt>
<rscale>  0 0.22952863E+03</rscale>
<asrwt>0</asrwt>
<pdfrwt beam="1">  1        1 0.16716312E+00 0.23355877E+03</pdfrwt>
<pdfrwt beam="2">  1       -1 0.72621087E-02 0.23355877E+03</pdfrwt>
<totfact> 0.13794967E+03</totfact>
</mgrwt>
</event>
<event>
 8    1  0.3407580E-004  0.1469527E+03  0.7546771E-02  0.1213870E+00
          2   -1    0    0  501    0  0.00000000000E+00  0.00000000000E+00  0.17967254549E+03  0.17967254549E+03  0.00000000000E+00 0. -1.
         -2   -1    0    0    0  501 -0.00000000000E+00 -0.00000000000E+00 -0.11311378041E+03  0.11311378041E+03  0.00000000000E+00 0.  1.
         25    2    1    2    0    0 -0.49380536633E+02 -0.59461093385E+02 -0.15372506646E+02  0.14775453695E+03  0.12498411981E+03 0.  0.
         23    2    1    2    0    0  0.49380536633E+02  0.59461093385E+02  0.81931271724E+02  0.14503178894E+03  0.91364257193E+02 0.  0.
          5    1    3    3  502    0 -0.83885114948E+02 -0.79659583928E+01 -0.34959604560E+01  0.84465855483E+02  0.47000000000E+01 0. -1.
         -5    1    3    3    0  502  0.34504578316E+02 -0.51495134992E+02 -0.11876546190E+02  0.63288681468E+02  0.47000000000E+01 0. -1.
          5    1    4    4  503    0 -0.51025999530E+01  0.55052986756E+02  0.69220979123E+02  0.88715848797E+02  0.47000000000E+01 0. -1.
         -5    1    4    4    0  503  0.54483136586E+02  0.44081066289E+01  0.12710292600E+02  0.56315940144E+02  0.47000000000E+01 0.  1.
<mgrwt>
<rscale>  0 0.13959878E+03</rscale>
<asrwt>0</asrwt>
<pdfrwt beam="1">  1        2 0.27641930E-01 0.14695268E+03</pdfrwt>
<pdfrwt beam="2">  1       -2 0.17402120E-01 0.14695268E+03</pdfrwt>
<totfact> 0.49212496E+03</totfact>
</mgrwt>
</event>
<event>
 8    1  0.3407580E-004  0.1271359E+03  0.7546771E-02  0.1245974E+00
          2   -1    0    0  501    0  0.00000000000E+00  0.00000000000E+00  0.14877862790E+04  0.14877862790E+04  0.00000000000E+00 0. -1.
         -2   -1    0    0    0  501 -0.00000000000E+00 -0.00000000000E+00 -0.10419232150E+02  0.10419232150E+02  0.00000000000E+00 0.  1.
         25    2    1    2    0    0 -0.52095272359E+01  0.22620194224E+02  0.11576435483E+04  0.11646038471E+04  0.12499889357E+03 0.  0.
         23    2    1    2    0    0  0.52095272359E+01 -0.22620194224E+02  0.31972349861E+03  0.33360166411E+03  0.92347941902E+02 0.  0.
          5    1    4    4  502    0 -0.36489253808E+02 -0.21542842292E+02  0.23735737594E+03  0.24115591142E+03  0.47000000000E+01 0. -1.
         -5    1    4    4    0  502  0.41698781043E+02 -0.10773519318E+01  0.82366122662E+02  0.92445752688E+02  0.47000000000E+01 0.  1.
          5    1    3    3  503    0  0.32860649465E+02 -0.41056849393E+02  0.48055727243E+03  0.48344893137E+03  0.47000000000E+01 0. -1.
         -5    1    3    3    0  503 -0.38070176701E+02  0.63677043617E+02  0.67708627586E+03  0.68115491571E+03  0.47000000000E+01 0. -1.
<mgrwt>
<rscale>  0 0.11827251E+03</rscale>
<asrwt>0</asrwt>
<pdfrwt beam="1">  1        2 0.22889003E+00 0.12713589E+03</pdfrwt>
<pdfrwt beam="2">  1       -2 0.16029600E-02 0.12713589E+03</pdfrwt>
<totfact> 0.14321952E+04</totfact>
</mgrwt>
</event>
<event>
 8    1  0.3407580E-004  0.1291926E+03  0.7546771E-02  0.1243381E+00
          2   -1    0    0  501    0  0.00000000000E+00  0.00000000000E+00  0.50822014309E+03  0.50822014309E+03  0.00000000000E+00 0. -1.
         -2   -1    0    0    0  501 -0.00000000000E+00 -0.00000000000E+00 -0.25639598790E+02  0.25639598790E+02  0.00000000000E+00 0.  1.
         25    2    1    2    0    0 -0.27203005058E+02  0.18072078719E+02  0.32226014079E+03  0.34719204435E+03  0.12499645518E+03 0.  0.
         23    2    1    2    0    0  0.27203005058E+02 -0.18072078719E+02  0.16032040351E+03  0.18666769753E+03  0.89864308850E+02 0.  0.
          5    1    3    3  502    0 -0.60156210527E+02  0.52813910690E+02  0.18115508709E+03  0.19810940010E+03  0.47000000000E+01 0.  1.
         -5    1    3    3    0  502  0.32953205469E+02 -0.34741831971E+02  0.14110505370E+03  0.14908264426E+03  0.47000000000E+01 0.  1.
          5    1    4    4  503    0  0.70667347870E+01 -0.48354186752E+02  0.48587347450E+02  0.69071603784E+02  0.47000000000E+01 0. -1.
         -5    1    4    4    0  503  0.20136270271E+02  0.30282108033E+02  0.11173305606E+03  0.11759609374E+03  0.47000000000E+01 0.  1.
<mgrwt>
<rscale>  0 0.11982831E+03</rscale>
<asrwt>0</asrwt>
<pdfrwt beam="1">  1        2 0.78187707E-01 0.12919256E+03</pdfrwt>
<pdfrwt beam="2">  1       -2 0.39445540E-02 0.12919256E+03</pdfrwt>
<totfact> 0.16136569E+04</totfact>
</mgrwt>
</event>
<event>
 8    1  0.3407580E-004  0.1890703E+03  0.7546771E-02  0.1163623E+00
         -2   -1    0    0    0  501 -0.00000000000E+00  0.00000000000E+00  0.35533085571E+02  0.35533085571E+02  0.00000000000E+00 0.  1.
          2   -1    0    0  501    0  0.00000000000E+00 -0.00000000000E+00 -0.93369231171E+03  0.93369231171E+03  0.00000000000E+00 0. -1.
         25    2    1    2    0    0 -0.22840577070E+02  0.14000385788E+03 -0.54433972235E+03  0.57624067281E+03  0.12499922997E+03 0.  0.
         23    2    1    2    0    0  0.22840577070E+02 -0.14000385788E+03 -0.35381950379E+03  0.39298472447E+03  0.95529996453E+02 0.  0.
          5    1    3    3  502    0 -0.53299243078E+02  0.12420597385E+03 -0.50939422620E+03  0.52704127062E+03  0.47000000000E+01 0. -1.
         -5    1    3    3    0  502  0.30458666008E+02  0.15797884025E+02 -0.34945496151E+02  0.49199402191E+02  0.47000000000E+01 0. -1.
          5    1    4    4  503    0 -0.83137531018E+01 -0.12563271524E+03 -0.32270814856E+03  0.34643229753E+03  0.47000000000E+01 0. -1.
         -5    1    4    4    0  503  0.31154330172E+02 -0.14371142639E+02 -0.31111355233E+02  0.46552426936E+02  0.47000000000E+01 0.  1.
<mgrwt>
<rscale>  0 0.18438726E+03</rscale>
<asrwt>0</asrwt>
<pdfrwt beam="1">  1        2 0.14364495E+00 0.18907030E+03</pdfrwt>
<pdfrwt beam="2">  1       -2 0.54666294E-02 0.18907030E+03</pdfrwt>
<totfact> 0.48708301E+03</totfact>
</mgrwt>
</event>
<event>
 8    1  0.3407580E-004  0.1434676E+03  0.7546771E-02  0.1218977E+00
         -3   -1    0    0    0  501 -0.00000000000E+00  0.00000000000E+00  0.15177194991E+02  0.15177194991E+02  0.00000000000E+00 0.  1.
          3   -1    0    0  501    0  0.00000000000E+00 -0.00000000000E+00 -0.12122352712E+04  0.12122352712E+04  0.00000000000E+00 0. -1.
         25    2    1    2    0    0  0.69409940443E+02 -0.11783508458E+02 -0.47537170250E+03  0.49654929389E+03  0.12500541916E+03 0.  0.
         23    2    1    2    0    0 -0.69409940443E+02  0.11783508458E+02 -0.72168637374E+03  0.73086317233E+03  0.91504992912E+02 0.  0.
          5    1    3    3  502    0  0.87519424492E+02 -0.44515934301E+02 -0.40449605557E+03  0.41626970469E+03  0.47000000000E+01 0. -1.
         -5    1    3    3    0  502 -0.18109484049E+02  0.32732425843E+02 -0.70875646929E+02  0.80279589198E+02  0.47000000000E+01 0. -1.
          5    1    4    4  503    0 -0.59125225132E+02  0.45378452639E+02 -0.37460559844E+03  0.38197701579E+03  0.47000000000E+01 0. -1.
         -5    1    4    4    0  503 -0.10284715312E+02 -0.33594944181E+02 -0.34708077529E+03  0.34888615654E+03  0.47000000000E+01 0.  1.
<mgrwt>
<rscale>  0 0.13588393E+03</rscale>
<asrwt>0</asrwt>
<pdfrwt beam="1">  1        3 0.18649779E+00 0.14346758E+03</pdfrwt>
<pdfrwt beam="2">  1       -3 0.23349523E-02 0.14346758E+03</pdfrwt>
<totfact> 0.34510911E+02</totfact>
</mgrwt>
</event>
<event>
 8    1  0.3407580E-004  0.1627861E+03  0.7546771E-02  0.1193059E+00
          2   -1    0    0  501    0  0.00000000000E+00  0.00000000000E+00  0.13742360550E+04  0.13742360550E+04  0.00000000000E+00 0. -1.
         -2   -1    0    0    0  501 -0.00000000000E+00 -0.00000000000E+00 -0.16615974062E+02  0.16615974062E+02  0.00000000000E+00 0.  1.
         25    2    1    2    0    0 -0.10418398860E+03  0.45107090207E+01  0.80203099480E+03  0.81838439684E+03  0.12499861757E+03 0.  0.
         23    2    1    2    0    0  0.10418398860E+03 -0.45107090207E+01  0.55558908616E+03  0.57246763225E+03  0.90362090125E+02 0.  0.
          5    1    3    3  502    0 -0.76391288947E+02 -0.19422742820E+02  0.75219568777E+03  0.75632884030E+03  0.47000000000E+01 0.  1.
         -5    1    3    3    0  502 -0.27792699649E+02  0.23933451841E+02  0.49835307022E+02  0.62055556534E+02  0.47000000000E+01 0.  1.
          5    1    4    4  503    0  0.97822888456E+02 -0.36674830496E+02  0.43709813433E+03  0.44943434418E+03  0.47000000000E+01 0. -1.
         -5    1    4    4    0  503  0.63611001396E+01  0.32164121475E+02  0.11849095184E+03  0.12303328807E+03  0.47000000000E+01 0.  1.
<mgrwt>
<rscale>  0 0.15619646E+03</rscale>
<asrwt>0</asrwt>
<pdfrwt beam="1">  1        2 0.21142084E+00 0.16278607E+03</pdfrwt>
<pdfrwt beam="2">  1       -2 0.25563048E-02 0.16278607E+03</pdfrwt>
<totfact> 0.84316768E+03</totfact>
</mgrwt>
</event>
<event>
 8    1  0.3407580E-004  0.3468065E+03  0.7546771E-02  0.1065068E+00
         -1   -1    0    0    0  501 -0.00000000000E+00  0.00000000000E+00  0.25254721956E+03  0.25254721956E+03  0.00000000000E+00 0.  1.
          1   -1    0    0  501    0  0.00000000000E+00 -0.00000000000E+00 -0.48250735143E+03  0.48250735143E+03  0.00000000000E+00 0. -1.
         25    2    1    2    0    0  0.31891312249E+03 -0.54235890753E+02 -0.40216279056E+02  0.34913052986E+03  0.12501066449E+03 0.  0.
         23    2    1    2    0    0 -0.31891312249E+03  0.54235890753E+02 -0.18974385281E+03  0.38592404113E+03  0.91035840771E+02 0.  0.
          5    1    3    3  502    0  0.22871974867E+03 -0.94953526883E+02 -0.26176341975E+02  0.24907064576E+03  0.47000000000E+01 0.  1.
         -5    1    3    3    0  502  0.90193373815E+02  0.40717636131E+02 -0.14039937081E+02  0.10005988410E+03  0.47000000000E+01 0.  1.
          5    1    4    4  503    0 -0.12754198409E+03 -0.63074619635E+01 -0.11429309218E+03  0.17144020153E+03  0.47000000000E+01 0. -1.
         -5    1    4    4    0  503 -0.19137113840E+03  0.60543352716E+02 -0.75450760633E+02  0.21448383961E+03  0.47000000000E+01 0.  1.
<mgrwt>
<rscale>  0 0.34408747E+03</rscale>
<asrwt>0</asrwt>
<pdfrwt beam="1">  1        1 0.74231899E-01 0.34680654E+03</pdfrwt>
<pdfrwt beam="2">  1       -1 0.38853419E-01 0.34680654E+03</pdfrwt>
<totfact> 0.30854146E+02</totfact>
</mgrwt>
</event>
<event>
 8    1  0.3407580E-004  0.1316482E+03  0.7546771E-02  0.1238415E+00
          2   -1    0    0  501    0  0.00000000000E+00  0.00000000000E+00  0.48996005344E+03  0.48996005344E+03  0.00000000000E+00 0. -1.
         -2   -1    0    0    0  501 -0.00000000000E+00 -0.00000000000E+00 -0.40103889138E+02  0.40103889138E+02  0.00000000000E+00 0.  1.
         25    2    1    2    0    0  0.23372160499E+02 -0.34021845944E+02  0.97532329989E+02  0.16384079967E+03  0.12501003302E+03 0.  0.
         23    2    1    2    0    0 -0.23372160499E+02  0.34021845944E+02  0.35232383432E+03  0.36622314291E+03  0.91014077416E+02 0.  0.
          5    1    3    3  502    0  0.28820475280E+02 -0.79795353489E+02  0.57399422946E+02  0.10254122092E+03  0.47000000000E+01 0. -1.
         -5    1    4    4    0  503  0.31571175392E+02  0.31271178586E+02  0.16271937267E+03  0.16874332570E+03  0.47000000000E+01 0. -1.
          5    1    4    4  503    0 -0.54943335890E+02  0.27506673589E+01  0.18960446164E+03  0.19747981721E+03  0.47000000000E+01 0.  1.
         -5    1    3    3    0  502 -0.54483147814E+01  0.45773507545E+02  0.40132907043E+02  0.61299578748E+02  0.47000000000E+01 0. -1.
<mgrwt>
<rscale>  0 0.12288313E+03</rscale>
<asrwt>0</asrwt>
<pdfrwt beam="1">  1        2 0.75378466E-01 0.13164821E+03</pdfrwt>
<pdfrwt beam="2">  1       -2 0.61698294E-02 0.13164821E+03</pdfrwt>
<totfact> 0.86010366E+03</totfact>
</mgrwt>
</event>
<event>
 8    1  0.3407580E-004  0.3137764E+03  0.7546771E-02  0.1079959E+00
         -1   -1    0    0    0  501 -0.00000000000E+00  0.00000000000E+00  0.47329490829E+02  0.47329490829E+02  0.00000000000E+00 0.  1.
          1   -1    0    0  501    0  0.00000000000E+00 -0.00000000000E+00 -0.26023079416E+04  0.26023079416E+04  0.00000000000E+00 0. -1.
         25    2    1    2    0    0  0.19162525110E+03  0.21473434628E+03 -0.66068470042E+03  0.73140953188E+03  0.12499821447E+03 0.  0.
         23    2    1    2    0    0 -0.19162525110E+03 -0.21473434628E+03 -0.18942937503E+04  0.19182279005E+04  0.91751782026E+02 0.  0.
          5    1    4    4  502    0 -0.90890515792E+02 -0.39631334562E+02 -0.56240208166E+03  0.57109536856E+03  0.47000000000E+01 0. -1.
         -5    1    4    4    0  502 -0.10073473530E+03 -0.17510301172E+03 -0.13318916686E+04  0.13471325319E+04  0.47000000000E+01 0.  1.
          5    1    3    3  503    0  0.31425577063E+02  0.20885971551E+02 -0.22619790241E+03  0.22937168909E+03  0.47000000000E+01 0.  1.
         -5    1    3    3    0  503  0.16019967403E+03  0.19384837473E+03 -0.43448679801E+03  0.50203784279E+03  0.47000000000E+01 0.  1.
<mgrwt>
<rscale>  0 0.31080930E+03</rscale>
<asrwt>0</asrwt>
<pdfrwt beam="1">  1        1 0.40035526E+00 0.31377640E+03</pdfrwt>
<pdfrwt beam="2">  1       -1 0.72814566E-02 0.31377640E+03</pdfrwt>
<totfact> 0.13337527E+02</totfact>
</mgrwt>
</event>
<event>
 8    1  0.3407580E-004  0.1691429E+03  0.7546771E-02  0.1185826E+00
         -2   -1    0    0    0  501 -0.00000000000E+00  0.00000000000E+00  0.29538156547E+03  0.29538156547E+03  0.00000000000E+00 0.  1.
          2   -1    0    0  501    0  0.00000000000E+00 -0.00000000000E+00 -0.34491015883E+03  0.34491015883E+03  0.00000000000E+00 0. -1.
         25    2    1    2    0    0 -0.16174079157E+02 -0.11280178790E+03  0.25343820686E+03  0.30469697902E+03  0.12499392040E+03 0.  0.
         23    2    1    2    0    0  0.16174079157E+02  0.11280178790E+03 -0.30296680022E+03  0.33559474528E+03  0.88595185149E+02 0.  0.
          5    1    3    3  502    0 -0.64673223381E+02 -0.61783290305E+02  0.91406286577E+02  0.12797265336E+03  0.47000000000E+01 0.  1.
         -5    1    3    3    0  502  0.48499144224E+02 -0.51018497594E+02  0.16203192028E+03  0.17672432565E+03  0.47000000000E+01 0.  1.
          5    1    4    4  503    0 -0.27236505059E+02  0.52146339485E+01 -0.64321324812E+02  0.70202154103E+02  0.47000000000E+01 0. -1.
         -5    1    4    4    0  503  0.43410584217E+02  0.10758715395E+03 -0.23864547541E+03  0.26539259117E+03  0.47000000000E+01 0. -1.
<mgrwt>
<rscale>  0 0.16256963E+03</rscale>
<asrwt>0</asrwt>
<pdfrwt beam="1">  1        2 0.53063102E-01 0.16914291E+03</pdfrwt>
<pdfrwt beam="2">  1       -2 0.45443317E-01 0.16914291E+03</pdfrwt>
<totfact> 0.43920531E+02</totfact>
</mgrwt>
</event>
<event>
 8    1  0.3407580E-004  0.1664908E+03  0.7546771E-02  0.1188380E+00
          1   -1    0    0  501    0  0.00000000000E+00  0.00000000000E+00  0.65192660051E+03  0.65192660051E+03  0.00000000000E+00 0. -1.
         -1   -1    0    0    0  501 -0.00000000000E+00 -0.00000000000E+00 -0.38749859766E+02  0.38749859766E+02  0.00000000000E+00 0.  1.
         25    2    1    2    0    0  0.48441985264E+02  0.98731487649E+02  0.40721263377E+03  0.43993331872E+03  0.12499865292E+03 0.  0.
         23    2    1    2    0    0 -0.48441985264E+02 -0.98731487649E+02  0.20596410698E+03  0.25074314156E+03  0.91413221606E+02 0.  0.
          5    1    3    3  502    0 -0.37171239921E+02  0.24534786353E+01  0.89004924482E+02  0.96600658470E+02  0.47000000000E+01 0.  1.
         -5    1    4    4    0  503 -0.77085406695E+01 -0.49232920447E+02  0.19856482060E+02  0.53848601976E+02  0.47000000000E+01 0.  1.
          5    1    4    4  503    0 -0.40733444595E+02 -0.49498567202E+02  0.18610762492E+03  0.19689453958E+03  0.47000000000E+01 0. -1.
         -5    1    3    3    0  502  0.85613225185E+02  0.96278009014E+02  0.31820770928E+03  0.34333266025E+03  0.47000000000E+01 0.  1.
<mgrwt>
<rscale>  0 0.16028092E+03</rscale>
<asrwt>0</asrwt>
<pdfrwt beam="1">  1        1 0.10029639E+00 0.16649083E+03</pdfrwt>
<pdfrwt beam="2">  1       -1 0.59615174E-02 0.16649083E+03</pdfrwt>
<totfact> 0.41333931E+03</totfact>
</mgrwt>
</event>
<event>
 8    1  0.3407580E-004  0.1544880E+03  0.7546771E-02  0.1202768E+00
         -1   -1    0    0    0  501 -0.00000000000E+00  0.00000000000E+00  0.43110304494E+03  0.43110304494E+03  0.00000000000E+00 0.  1.
          1   -1    0    0  501    0  0.00000000000E+00 -0.00000000000E+00 -0.55963188900E+02  0.55963188900E+02  0.00000000000E+00 0. -1.
         25    2    1    2    0    0  0.12357266463E+01 -0.90762280835E+02  0.29715979559E+03  0.33491864219E+03  0.12500893620E+03 0.  0.
         23    2    1    2    0    0 -0.12357266463E+01  0.90762280835E+02  0.77980060450E+02  0.15214759165E+03  0.93961062010E+02 0.  0.
          5    1    4    4  502    0 -0.23048249580E+02 -0.10385690010E+02  0.72283507139E+01  0.26709987266E+02  0.47000000000E+01 0. -1.
         -5    1    3    3    0  503 -0.43425845605E+02 -0.98537145855E+02  0.22645715150E+03  0.25079933143E+03  0.47000000000E+01 0.  1.
          5    1    3    3  503    0  0.44661572251E+02  0.77748650209E+01  0.70702644094E+02  0.84119310767E+02  0.47000000000E+01 0.  1.
         -5    1    4    4    0  502  0.21812522934E+02  0.10114797084E+03  0.70751709736E+02  0.12543760438E+03  0.47000000000E+01 0.  1.
<mgrwt>
<rscale>  0 0.14814738E+03</rscale>
<asrwt>0</asrwt>
<pdfrwt beam="1">  1        1 0.86097217E-02 0.15448803E+03</pdfrwt>
<pdfrwt beam="2">  1       -1 0.66323543E-01 0.15448803E+03</pdfrwt>
<totfact> 0.18380596E+03</totfact>
</mgrwt>
</event>
<event>
 8    1  0.3407580E-004  0.1280630E+03  0.7546771E-02  0.1242873E+00
          3   -1    0    0  501    0  0.00000000000E+00  0.00000000000E+00  0.67279844712E+02  0.67279844712E+02  0.00000000000E+00 0. -1.
         -3   -1    0    0    0  501 -0.00000000000E+00 -0.00000000000E+00 -0.20232443010E+03  0.20232443010E+03  0.00000000000E+00 0.  1.
         25    2    1    2    0    0 -0.21286935552E+01 -0.27745319360E+02 -0.10605208708E+03  0.16627437732E+03  0.12500315714E+03 0.  0.
         23    2    1    2    0    0  0.21286935552E+01  0.27745319360E+02 -0.28992498309E+02  0.10332989750E+03  0.95195423608E+02 0.  0.
          5    1    4    4  502    0  0.47719678209E+02  0.81881643948E+01 -0.81811186203E+01  0.49327826087E+02  0.47000000000E+01 0. -1.
         -5    1    3    3    0  503  0.43259650459E+02 -0.22163856414E+02  0.19739212978E+01  0.48873512809E+02  0.47000000000E+01 0. -1.
          5    1    3    3  503    0 -0.45388344015E+02 -0.55814629463E+01 -0.10802600838E+03  0.11740086451E+03  0.47000000000E+01 0. -1.
         -5    1    4    4    0  502 -0.45590984654E+02  0.19557154965E+02 -0.20811379688E+02  0.54002071410E+02  0.47000000000E+01 0.  1.
<mgrwt>
<rscale>  0 0.12013589E+03</rscale>
<asrwt>0</asrwt>
<pdfrwt beam="1">  1        3 0.10350745E-01 0.12806297E+03</pdfrwt>
<pdfrwt beam="2">  1       -3 0.31126835E-01 0.12806297E+03</pdfrwt>
<totfact> 0.15873525E+03</totfact>
</mgrwt>
</event>
<event>
 8    1  0.3407580E-004  0.1282935E+03  0.7546771E-02  0.1244806E+00
         -2   -1    0    0    0  501 -0.00000000000E+00  0.00000000000E+00  0.25928599169E+02  0.25928599169E+02  0.00000000000E+00 0.  1.
          2   -1    0    0  501    0  0.00000000000E+00 -0.00000000000E+00 -0.49326776129E+03  0.49326776129E+03  0.00000000000E+00 0. -1.
         25    2    1    2    0    0 -0.26348302612E+02  0.11808216252E+02 -0.30954545927E+03  0.33507852393E+03  0.12500223527E+03 0.  0.
         23    2    1    2    0    0  0.26348302612E+02 -0.11808216252E+02 -0.15779370285E+03  0.18411783653E+03  0.90370670285E+02 0.  0.
          5    1    4    4  502    0 -0.32687950071E+02 -0.57392986867E+01 -0.74929736390E+02  0.82085303342E+02  0.47000000000E+01 0. -1.
         -5    1    4    4    0  502  0.59036252683E+02 -0.60689175650E+01 -0.82863966461E+02  0.10203253319E+03  0.47000000000E+01 0.  1.
          5    1    3    3  503    0 -0.14095311059E+02 -0.49221823720E+02 -0.66018711872E+02  0.83678109691E+02  0.47000000000E+01 0. -1.
         -5    1    3    3    0  503 -0.12252991553E+02  0.61030039972E+02 -0.24352674739E+03  0.25140041423E+03  0.47000000000E+01 0. -1.
<mgrwt>
<rscale>  0 0.11896988E+03</rscale>
<asrwt>0</asrwt>
<pdfrwt beam="1">  1        2 0.75887346E-01 0.12829351E+03</pdfrwt>
<pdfrwt beam="2">  1       -2 0.39890153E-02 0.12829351E+03</pdfrwt>
<totfact> 0.16388988E+04</totfact>
</mgrwt>
</event>
<event>
 8    1  0.3407580E-004  0.1268376E+03  0.7546771E-02  0.1246302E+00
         -2   -1    0    0    0  501 -0.00000000000E+00  0.00000000000E+00  0.22867102546E+02  0.22867102546E+02  0.00000000000E+00 0.  1.
          2   -1    0    0  501    0  0.00000000000E+00 -0.00000000000E+00 -0.55202425451E+03  0.55202425451E+03  0.00000000000E+00 0. -1.
         25    2    1    2    0    0  0.20318799530E+02  0.70568619091E+01 -0.25812557071E+03  0.28760490216E+03  0.12500046630E+03 0.  0.
         23    2    1    2    0    0 -0.20318799530E+02 -0.70568619091E+01 -0.27103158125E+03  0.28728645490E+03  0.92804828633E+02 0.  0.
          5    1    4    4  502    0 -0.48178916209E+02 -0.57504189009E+01 -0.24159389489E+03  0.24646292893E+03  0.47000000000E+01 0. -1.
         -5    1    4    4    0  502  0.27860116678E+02 -0.13064430082E+01 -0.29437686355E+02  0.40823525970E+02  0.47000000000E+01 0.  1.
          5    1    3    3  503    0 -0.94248699972E+01  0.46532384336E+02 -0.21970567149E+03  0.22482607289E+03  0.47000000000E+01 0.  1.
         -5    1    3    3    0  503  0.29743669528E+02 -0.39475522427E+02 -0.38419899219E+02  0.62778829264E+02  0.47000000000E+01 0.  1.
<mgrwt>
<rscale>  0 0.11807803E+03</rscale>
<asrwt>0</asrwt>
<pdfrwt beam="1">  1        2 0.84926804E-01 0.12683757E+03</pdfrwt>
<pdfrwt beam="2">  1       -2 0.35180160E-02 0.12683757E+03</pdfrwt>
<totfact> 0.17415754E+04</totfact>
</mgrwt>
</event>
<event>
 8    1  0.3407580E-004  0.2262612E+03  0.7546771E-02  0.1132253E+00
          2   -1    0    0  501    0  0.00000000000E+00  0.00000000000E+00  0.40422272378E+03  0.40422272378E+03  0.00000000000E+00 0. -1.
         -2   -1    0    0    0  501 -0.00000000000E+00 -0.00000000000E+00 -0.11814328139E+03  0.11814328139E+03  0.00000000000E+00 0.  1.
         25    2    1    2    0    0 -0.17308771289E+03 -0.74869589748E+02  0.13770694222E+03  0.26487226442E+03  0.12501720961E+03 0.  0.
         23    2    1    2    0    0  0.17308771289E+03  0.74869589748E+02  0.14837250018E+03  0.25749374075E+03  0.93401369874E+02 0.  0.
          5    1    4    4  502    0  0.11817815542E+03  0.64638820816E+02  0.14968717947E+03  0.20142640163E+03  0.47000000000E+01 0. -1.
         -5    1    4    4    0  502  0.54909557473E+02  0.10230768932E+02 -0.13146792933E+01  0.56067339124E+02  0.47000000000E+01 0.  1.
          5    1    3    3  503    0 -0.12236364086E+03 -0.10834699226E+03  0.11466793596E+03  0.19970667709E+03  0.47000000000E+01 0.  1.
         -5    1    3    3    0  503 -0.50724072034E+02  0.33477402514E+02  0.23039006259E+02  0.65165587331E+02  0.47000000000E+01 0.  1.
<mgrwt>
<rscale>  0 0.22219999E+03</rscale>
<asrwt>0</asrwt>
<pdfrwt beam="1">  1        2 0.62188111E-01 0.22626116E+03</pdfrwt>
<pdfrwt beam="2">  1       -2 0.18175890E-01 0.22626116E+03</pdfrwt>
<totfact> 0.19429000E+03</totfact>
</mgrwt>
</event>
<event>
 8    1  0.3407580E-004  0.2075276E+03  0.7546771E-02  0.1147385E+00
         -2   -1    0    0    0  501 -0.00000000000E+00  0.00000000000E+00  0.17774227188E+02  0.17774227188E+02  0.00000000000E+00 0.  1.
          2   -1    0    0  501    0  0.00000000000E+00 -0.00000000000E+00 -0.22299497866E+04  0.22299497866E+04  0.00000000000E+00 0. -1.
         25    2    1    2    0    0 -0.77555914534E+02 -0.14637887811E+03 -0.10647439795E+04  0.10847799105E+04  0.12500406571E+03 0.  0.
         23    2    1    2    0    0  0.77555914534E+02  0.14637887811E+03 -0.11474315799E+04  0.11629441033E+04  0.91640935305E+02 0.  0.
          5    1    3    3  502    0 -0.63401116185E+02 -0.96891815681E+02 -0.96962235979E+03  0.97652308528E+03  0.47000000000E+01 0. -1.
         -5    1    3    3    0  502 -0.14154798349E+02 -0.49487062431E+02 -0.95121619713E+02  0.10825682519E+03  0.47000000000E+01 0. -1.
          5    1    4    4  503    0  0.91200495036E+02  0.10163226682E+03 -0.96152733351E+03  0.97118667157E+03  0.47000000000E+01 0. -1.
         -5    1    4    4    0  503 -0.13644580502E+02  0.44746611289E+02 -0.18590424644E+03  0.19175743178E+03  0.47000000000E+01 0.  1.
<mgrwt>
<rscale>  0 0.20281616E+03</rscale>
<asrwt>0</asrwt>
<pdfrwt beam="1">  1        2 0.34306880E+00 0.20752762E+03</pdfrwt>
<pdfrwt beam="2">  1       -2 0.27344996E-02 0.20752762E+03</pdfrwt>
<totfact> 0.27372975E+03</totfact>
</mgrwt>
</event>
<event>
 8    1  0.3407580E-004  0.1385720E+03  0.7546771E-02  0.1226932E+00
         -1   -1    0    0    0  501 -0.00000000000E+00  0.00000000000E+00  0.10794292584E+03  0.10794292584E+03  0.00000000000E+00 0.  1.
          1   -1    0    0  501    0  0.00000000000E+00 -0.00000000000E+00 -0.14659068710E+03  0.14659068710E+03  0.00000000000E+00 0. -1.
         25    2    1    2    0    0 -0.59783241160E+02  0.16189622643E+01  0.22041189397E+01  0.13858954822E+03  0.12500219107E+03 0.  0.
         23    2    1    2    0    0  0.59783241160E+02 -0.16189622643E+01 -0.40851880197E+02  0.11594406472E+03  0.90540008098E+02 0.  0.
          5    1    4    4  502    0  0.45426715621E+02 -0.42144248690E+02 -0.37462801046E+02  0.72562219178E+02  0.47000000000E+01 0. -1.
         -5    1    4    4    0  502  0.14356525539E+02  0.40525286425E+02 -0.33890791503E+01  0.43381845545E+02  0.47000000000E+01 0.  1.
          5    1    3    3  503    0 -0.17439399956E+02  0.27238758638E+02  0.56312965006E+02  0.65110081176E+02  0.47000000000E+01 0.  1.
         -5    1    3    3    0  503 -0.42343841204E+02 -0.25619796373E+02 -0.54108846066E+02  0.73479467042E+02  0.47000000000E+01 0.  1.
<mgrwt>
<rscale>  0 0.13035355E+03</rscale>
<asrwt>0</asrwt>
<pdfrwt beam="1">  1        1 0.22552413E-01 0.13857202E+03</pdfrwt>
<pdfrwt beam="2">  1       -1 0.16606604E-01 0.13857202E+03</pdfrwt>
<totfact> 0.56877812E+03</totfact>
</mgrwt>
</event>
<event>
 8    1  0.3407580E-004  0.2143154E+03  0.7546771E-02  0.1142260E+00
          1   -1    0    0  501    0  0.00000000000E+00  0.00000000000E+00  0.16525499958E+04  0.16525499958E+04  0.00000000000E+00 0. -1.
         -1   -1    0    0    0  501 -0.00000000000E+00 -0.00000000000E+00 -0.26306246592E+02  0.26306246592E+02  0.00000000000E+00 0.  1.
         25    2    1    2    0    0 -0.83784880481E+02 -0.15259046530E+03  0.68404902704E+03  0.71683622817E+03  0.12500940095E+03 0.  0.
         23    2    1    2    0    0  0.83784880481E+02  0.15259046530E+03  0.94219472213E+03  0.96202001418E+03  0.86300967446E+02 0.  0.
          5    1    3    3  502    0  0.55010429298E+00 -0.56209779117E+02  0.71746727875E+02  0.91266230578E+02  0.47000000000E+01 0.  1.
         -5    1    4    4    0  503  0.95474801660E+02  0.92916586411E+02  0.64720005066E+03  0.66078659592E+03  0.47000000000E+01 0.  1.
          5    1    4    4  503    0 -0.11689921179E+02  0.59673878889E+02  0.29499467147E+03  0.30123341826E+03  0.47000000000E+01 0. -1.
         -5    1    3    3    0  502 -0.84334984774E+02 -0.96380686183E+02  0.61230229917E+03  0.62556999760E+03  0.47000000000E+01 0.  1.
<mgrwt>
<rscale>  0 0.20912552E+03</rscale>
<asrwt>0</asrwt>
<pdfrwt beam="1">  1        1 0.25423838E+00 0.21431544E+03</pdfrwt>
<pdfrwt beam="2">  1       -1 0.40471162E-02 0.21431544E+03</pdfrwt>
<totfact> 0.13759113E+03</totfact>
</mgrwt>
</event>
<event>
 8    1  0.3407580E-004  0.2733044E+03  0.7546771E-02  0.1101206E+00
         -2   -1    0    0    0  501 -0.00000000000E+00  0.00000000000E+00  0.24012897276E+03  0.24012897276E+03  0.00000000000E+00 0.  1.
          2   -1    0    0  501    0  0.00000000000E+00 -0.00000000000E+00 -0.35392497815E+03  0.35392497815E+03  0.00000000000E+00 0. -1.
         25    2    1    2    0    0 -0.26606297819E+02 -0.24158307098E+03 -0.17709332314E+03  0.32566447232E+03  0.12500011264E+03 0.  0.
         23    2    1    2    0    0  0.26606297819E+02  0.24158307098E+03  0.63297317755E+02  0.26838947859E+03  0.94636602409E+02 0.  0.
          5    1    3    3  502    0 -0.49489806027E+02 -0.29991000025E+02 -0.56448385760E+02  0.80976609203E+02  0.47000000000E+01 0. -1.
         -5    1    4    4    0  503  0.56625268917E+02  0.13458355839E+03  0.57542108986E+02  0.15701063523E+03  0.47000000000E+01 0.  1.
          5    1    4    4  503    0 -0.30018971099E+02  0.10699951259E+03  0.57552087694E+01  0.11137884336E+03  0.47000000000E+01 0. -1.
         -5    1    3    3    0  502  0.22883508208E+02 -0.21159207096E+03 -0.12064493738E+03  0.24468786311E+03  0.47000000000E+01 0. -1.
<mgrwt>
<rscale>  0 0.27012802E+03</rscale>
<asrwt>0</asrwt>
<pdfrwt beam="1">  1        2 0.54449997E-01 0.27330442E+03</pdfrwt>
<pdfrwt beam="2">  1       -2 0.36942919E-01 0.27330442E+03</pdfrwt>
<totfact> 0.63555388E+02</totfact>
</mgrwt>
</event>
<event>
 8    1  0.3407580E-004  0.1264237E+03  0.7546771E-02  0.1247015E+00
         -1   -1    0    0    0  501 -0.00000000000E+00  0.00000000000E+00  0.30668987085E+03  0.30668987085E+03  0.00000000000E+00 0.  1.
          1   -1    0    0  501    0  0.00000000000E+00 -0.00000000000E+00 -0.53383510226E+02  0.53383510226E+02  0.00000000000E+00 0. -1.
         25    2    1    2    0    0 -0.13831788304E+02 -0.12912921144E+02  0.22993980442E+03  0.26240284704E+03  0.12499951430E+03 0.  0.
         23    2    1    2    0    0  0.13831788304E+02  0.12912921144E+02  0.23366556199E+02  0.97670534037E+02  0.92927258489E+02 0.  0.
          5    1    3    3  502    0  0.26873316879E+02  0.45608548096E+02  0.12062973225E+03  0.13181781792E+03  0.47000000000E+01 0. -1.
         -5    1    3    3    0  502 -0.40705105183E+02 -0.58521469240E+02  0.10931007218E+03  0.13058502911E+03  0.47000000000E+01 0. -1.
          5    1    4    4  503    0  0.16240403066E+02  0.49717948463E+02 -0.21782891799E+01  0.52559109913E+02  0.47000000000E+01 0. -1.
         -5    1    4    4    0  503 -0.24086147616E+01 -0.36805027319E+02  0.25544845379E+02  0.45111424124E+02  0.47000000000E+01 0.  1.
<mgrwt>
<rscale>  0 0.11765559E+03</rscale>
<asrwt>0</asrwt>
<pdfrwt beam="1">  1        1 0.82128479E-02 0.12642365E+03</pdfrwt>
<pdfrwt beam="2">  1       -1 0.47183056E-01 0.12642365E+03</pdfrwt>
<totfact> 0.36677372E+03</totfact>
</mgrwt>
</event>
<event>
 8    1  0.3407580E-004  0.1654900E+03  0.7546771E-02  0.1189569E+00
          2   -1    0    0  501    0  0.00000000000E+00  0.00000000000E+00  0.10628926694E+04  0.10628926694E+04  0.00000000000E+00 0.  1.
         -2   -1    0    0    0  501 -0.00000000000E+00 -0.00000000000E+00 -0.22274324757E+02  0.22274324757E+02  0.00000000000E+00 0. -1.
         25    2    1    2    0    0 -0.62291725901E+02  0.88784209114E+02  0.53231225834E+03  0.55744352992E+03  0.12499621502E+03 0.  0.
         23    2    1    2    0    0  0.62291725901E+02 -0.88784209114E+02  0.50830608626E+03  0.52772346419E+03  0.91400669723E+02 0.  0.
          5    1    3    3  502    0 -0.78371489562E+02  0.61363908437E+02  0.50655031166E+03  0.51625858625E+03  0.47000000000E+01 0.  1.
         -5    1    3    3    0  502  0.16079763661E+02  0.27420300677E+02  0.25761946682E+02  0.41184943674E+02  0.47000000000E+01 0.  1.
          5    1    4    4  503    0 -0.16757872960E+02 -0.44832033045E+02  0.12678407733E+03  0.13559878228E+03  0.47000000000E+01 0. -1.
         -5    1    4    4    0  503  0.79049598862E+02 -0.43952176069E+02  0.38152200893E+03  0.39212468191E+03  0.47000000000E+01 0.  1.
<mgrwt>
<rscale>  0 0.15922975E+03</rscale>
<asrwt>0</asrwt>
<pdfrwt beam="1">  1        2 0.16352191E+00 0.16549003E+03</pdfrwt>
<pdfrwt beam="2">  1       -2 0.34268200E-02 0.16549003E+03</pdfrwt>
<totfact> 0.81605909E+03</totfact>
</mgrwt>
</event>
<event>
 8    1  0.3407580E-004  0.1291250E+03  0.7546771E-02  0.1243342E+00
          3   -1    0    0  501    0  0.00000000000E+00  0.00000000000E+00  0.59376465099E+02  0.59376465099E+02  0.00000000000E+00 0. -1.
         -3   -1    0    0    0  501 -0.00000000000E+00 -0.00000000000E+00 -0.22822873046E+03  0.22822873046E+03  0.00000000000E+00 0.  1.
         25    2    1    2    0    0 -0.30533867125E+02  0.10670104781E+02 -0.13275153856E+03  0.18519241116E+03  0.12500835965E+03 0.  0.
         23    2    1    2    0    0  0.30533867125E+02 -0.10670104781E+02 -0.36100726799E+02  0.10241278440E+03  0.90216116941E+02 0.  0.
          5    1    3    3  502    0 -0.50013305710E+02 -0.46480132742E+02 -0.66354147171E+02  0.95324164484E+02  0.47000000000E+01 0. -1.
         -5    1    4    4    0  503  0.43949035506E+02  0.24599611211E+02 -0.39578331875E+02  0.64227664972E+02  0.47000000000E+01 0.  1.
          5    1    4    4  503    0 -0.13415168381E+02 -0.35269715992E+02  0.34776050762E+01  0.38185119430E+02  0.47000000000E+01 0. -1.
         -5    1    3    3    0  502  0.19479438585E+02  0.57150237523E+02 -0.66397391390E+02  0.89868246672E+02  0.47000000000E+01 0. -1.
<mgrwt>
<rscale>  0 0.11985144E+03</rscale>
<asrwt>0</asrwt>
<pdfrwt beam="1">  1        3 0.91348407E-02 0.12912497E+03</pdfrwt>
<pdfrwt beam="2">  1       -3 0.35112113E-01 0.12912497E+03</pdfrwt>
<totfact> 0.15587200E+03</totfact>
</mgrwt>
</event>
<event>
 8    1  0.3407580E-004  0.1466056E+03  0.7546771E-02  0.1214108E+00
         -1   -1    0    0    0  501 -0.00000000000E+00  0.00000000000E+00  0.36002434827E+02  0.36002434827E+02  0.00000000000E+00 0.  1.
          1   -1    0    0  501    0  0.00000000000E+00 -0.00000000000E+00 -0.50791139548E+03  0.50791139548E+03  0.00000000000E+00 0. -1.
         25    2    1    2    0    0  0.23026878267E+02 -0.73063508248E+02 -0.30485785286E+03  0.33827725287E+03  0.12499870399E+03 0.  0.
         23    2    1    2    0    0 -0.23026878267E+02  0.73063508248E+02 -0.16705110779E+03  0.20563657743E+03  0.92259503601E+02 0.  0.
          5    1    3    3  502    0 -0.24839546985E+01 -0.10298675611E+03 -0.25156446489E+03  0.27188087825E+03  0.47000000000E+01 0. -1.
         -5    1    4    4    0  503 -0.90511647939E+01  0.27822214805E+02  0.23056359033E+01  0.29722132792E+02  0.47000000000E+01 0.  1.
          5    1    4    4  503    0 -0.13975713473E+02  0.45241293443E+02 -0.16935674369E+03  0.17591444464E+03  0.47000000000E+01 0. -1.
         -5    1    3    3    0  502  0.25510832965E+02  0.29923247858E+02 -0.53293387975E+02  0.66396374621E+02  0.47000000000E+01 0. -1.
<mgrwt>
<rscale>  0 0.13942284E+03</rscale>
<asrwt>0</asrwt>
<pdfrwt beam="1">  1        1 0.78140213E-01 0.14660556E+03</pdfrwt>
<pdfrwt beam="2">  1       -1 0.55388363E-02 0.14660556E+03</pdfrwt>
<totfact> 0.64299888E+03</totfact>
</mgrwt>
</event>
<event>
 8    1  0.3407580E-004  0.1385231E+03  0.7546771E-02  0.1226980E+00
         -2   -1    0    0    0  501 -0.00000000000E+00  0.00000000000E+00  0.21995098688E+03  0.21995098688E+03  0.00000000000E+00 0.  1.
          2   -1    0    0  501    0  0.00000000000E+00 -0.00000000000E+00 -0.71403888290E+02  0.71403888290E+02  0.00000000000E+00 0. -1.
         25    2    1    2    0    0  0.38667425817E+02 -0.45441334881E+02  0.10747231408E+03  0.17532526872E+03  0.12501426648E+03 0.  0.
         23    2    1    2    0    0 -0.38667425817E+02  0.45441334881E+02  0.41074784508E+02  0.11602960645E+03  0.90640205838E+02 0.  0.
          5    1    4    4  502    0 -0.12977504936E+01  0.28024337813E+02 -0.25089643445E+02  0.37929248271E+02  0.47000000000E+01 0. -1.
         -5    1    3    3    0  503 -0.32497313085E+02  0.19980438506E+02  0.14377733409E+02  0.41037817908E+02  0.47000000000E+01 0. -1.
          5    1    3    3  503    0  0.71164738902E+02 -0.65421773387E+02  0.93094580673E+02  0.13428745082E+03  0.47000000000E+01 0. -1.
         -5    1    4    4    0  502 -0.37369675323E+02  0.17416997068E+02  0.66164427953E+02  0.78100358174E+02  0.47000000000E+01 0.  1.
<mgrwt>
<rscale>  0 0.13032123E+03</rscale>
<asrwt>0</asrwt>
<pdfrwt beam="1">  1        2 0.10985214E-01 0.13852311E+03</pdfrwt>
<pdfrwt beam="2">  1       -2 0.33838613E-01 0.13852311E+03</pdfrwt>
<totfact> 0.44525521E+03</totfact>
</mgrwt>
</event>
<event>
 8    1  0.3407580E-004  0.1502369E+03  0.7546771E-02  0.1208899E+00
         -1   -1    0    0    0  501 -0.00000000000E+00  0.00000000000E+00  0.57403235701E+02  0.57403235701E+02  0.00000000000E+00 0.  1.
          1   -1    0    0  501    0  0.00000000000E+00 -0.00000000000E+00 -0.38498126114E+03  0.38498126114E+03  0.00000000000E+00 0. -1.
         25    2    1    2    0    0  0.83326769822E+02 -0.29292109889E+01 -0.92664513306E+02  0.17651581717E+03  0.12497676119E+03 0.  0.
         23    2    1    2    0    0 -0.83326769822E+02  0.29292109889E+01 -0.23491351213E+03  0.26586867968E+03  0.92465484392E+02 0.  0.
          5    1    4    4  502    0 -0.38079478986E+02  0.54929740212E+01 -0.15450071599E+02  0.41725462201E+02  0.47000000000E+01 0. -1.
         -5    1    3    3    0  503  0.86364291966E+02  0.41047176027E+02 -0.31122562973E+02  0.10066958584E+03  0.47000000000E+01 0. -1.
          5    1    3    3  503    0 -0.30375221445E+01 -0.43976387016E+02 -0.61541950333E+02  0.75846231328E+02  0.47000000000E+01 0. -1.
         -5    1    4    4    0  502 -0.45247290836E+02 -0.25637630323E+01 -0.21946344053E+03  0.22414321748E+03  0.47000000000E+01 0.  1.
<mgrwt>
<rscale>  0 0.14334422E+03</rscale>
<asrwt>0</asrwt>
<pdfrwt beam="1">  1        1 0.59227885E-01 0.15023689E+03</pdfrwt>
<pdfrwt beam="2">  1       -1 0.88312672E-02 0.15023689E+03</pdfrwt>
<totfact> 0.45563757E+03</totfact>
</mgrwt>
</event>
<event>
 8    1  0.3407580E-004  0.1512202E+03  0.7546771E-02  0.1208182E+00
         -1   -1    0    0    0  501 -0.00000000000E+00  0.00000000000E+00  0.41558675327E+02  0.41558675327E+02  0.00000000000E+00 0.  1.
          1   -1    0    0  501    0  0.00000000000E+00 -0.00000000000E+00 -0.45897648793E+03  0.45897648793E+03  0.00000000000E+00 0. -1.
         25    2    1    2    0    0  0.60296581480E+02 -0.60086410312E+02 -0.20784197970E+03  0.25703277939E+03  0.12498602608E+03 0.  0.
         23    2    1    2    0    0 -0.60296581480E+02  0.60086410312E+02 -0.20957583291E+03  0.24350238387E+03  0.90140594444E+02 0.  0.
          5    1    4    4  502    0 -0.81658908973E+02  0.56070836615E+02 -0.14909859088E+03  0.17906589830E+03  0.47000000000E+01 0. -1.
         -5    1    4    4    0  502  0.21362327493E+02  0.40155736978E+01 -0.60477242033E+02  0.64436485565E+02  0.47000000000E+01 0.  1.
          5    1    3    3  503    0 -0.19593884219E+02  0.16951841354E+02 -0.65660659840E+01  0.27138320630E+02  0.47000000000E+01 0. -1.
         -5    1    3    3    0  503  0.79890465699E+02 -0.77038251667E+02 -0.20127591371E+03  0.22989445876E+03  0.47000000000E+01 0. -1.
<mgrwt>
<rscale>  0 0.14389528E+03</rscale>
<asrwt>0</asrwt>
<pdfrwt beam="1">  1        1 0.70611767E-01 0.15122024E+03</pdfrwt>
<pdfrwt beam="2">  1       -1 0.63936424E-02 0.15122024E+03</pdfrwt>
<totfact> 0.59309898E+03</totfact>
</mgrwt>
</event>
<event>
 8    1  0.3407580E-004  0.1706250E+03  0.7546771E-02  0.1183799E+00
          2   -1    0    0  501    0  0.00000000000E+00  0.00000000000E+00  0.46742836727E+02  0.46742836727E+02  0.00000000000E+00 0. -1.
         -2   -1    0    0    0  501 -0.00000000000E+00 -0.00000000000E+00 -0.67448141649E+03  0.67448141649E+03  0.00000000000E+00 0.  1.
         25    2    1    2    0    0 -0.77946513255E+02  0.86091811084E+02 -0.17177275615E+03  0.24211315340E+03  0.12500176170E+03 0.  0.
         23    2    1    2    0    0  0.77946513255E+02 -0.86091811084E+02 -0.45596582361E+03  0.47911109982E+03  0.90305895724E+02 0.  0.
          5    1    4    4  502    0  0.93293137920E+02 -0.69782336408E+02 -0.30697149686E+03  0.32836987369E+03  0.47000000000E+01 0. -1.
         -5    1    3    3    0  503 -0.42368594489E+02  0.54594744223E+02 -0.18071460983E+03  0.19353434864E+03  0.47000000000E+01 0. -1.
          5    1    3    3  503    0 -0.35577918765E+02  0.31497066861E+02  0.89418536834E+01  0.48578804759E+02  0.47000000000E+01 0. -1.
         -5    1    4    4    0  502 -0.15346624665E+02 -0.16309474676E+02 -0.14899432675E+03  0.15074122613E+03  0.47000000000E+01 0.  1.
<mgrwt>
<rscale>  0 0.16441664E+03</rscale>
<asrwt>0</asrwt>
<pdfrwt beam="1">  1        2 0.71912058E-02 0.17062503E+03</pdfrwt>
<pdfrwt beam="2">  1       -2 0.10376637E+00 0.17062503E+03</pdfrwt>
<totfact> 0.75581239E+02</totfact>
</mgrwt>
</event>
<event>
 8    1  0.3407580E-004  0.1392240E+03  0.7546771E-02  0.1224494E+00
          2   -1    0    0  501    0  0.00000000000E+00  0.00000000000E+00  0.32950067552E+03  0.32950067552E+03  0.00000000000E+00 0. -1.
         -2   -1    0    0    0  501 -0.00000000000E+00 -0.00000000000E+00 -0.60388310985E+02  0.60388310985E+02  0.00000000000E+00 0.  1.
         25    2    1    2    0    0  0.27547684658E+02 -0.54766517875E+02  0.23345830890E+03  0.27181996266E+03  0.12500025478E+03 0.  0.
         23    2    1    2    0    0 -0.27547684658E+02  0.54766517875E+02  0.35654055630E+02  0.11806902384E+03  0.94397226112E+02 0.  0.
          5    1    4    4  502    0 -0.55838555471E+02  0.53951383600E+02  0.42406188738E+02  0.88594982435E+02  0.47000000000E+01 0. -1.
         -5    1    3    3    0  503 -0.47464708127E+02 -0.11340193157E+02  0.11453728094E+03  0.12458883266E+03  0.47000000000E+01 0.  1.
          5    1    3    3  503    0  0.75012392785E+02 -0.43426324718E+02  0.11892102796E+03  0.14723113000E+03  0.47000000000E+01 0.  1.
         -5    1    4    4    0  502  0.28290870813E+02  0.81513427529E+00 -0.67521331088E+01  0.29474041405E+02  0.47000000000E+01 0.  1.
<mgrwt>
<rscale>  0 0.13201662E+03</rscale>
<asrwt>0</asrwt>
<pdfrwt beam="1">  1        2 0.50692411E-01 0.13922396E+03</pdfrwt>
<pdfrwt beam="2">  1       -2 0.92905096E-02 0.13922396E+03</pdfrwt>
<totfact> 0.70352688E+03</totfact>
</mgrwt>
</event>
<event>
 8    1  0.3407580E-004  0.2055659E+03  0.7546771E-02  0.1149544E+00
         -2   -1    0    0    0  501 -0.00000000000E+00  0.00000000000E+00  0.21818070149E+02  0.21818070149E+02  0.00000000000E+00 0.  1.
          2   -1    0    0  501    0  0.00000000000E+00 -0.00000000000E+00 -0.17750978561E+04  0.17750978561E+04  0.00000000000E+00 0. -1.
         25    2    1    2    0    0  0.31905164355E+02  0.16004095951E+03 -0.81174243249E+03  0.83736678422E+03  0.12500522543E+03 0.  0.
         23    2    1    2    0    0 -0.31905164355E+02 -0.16004095951E+03 -0.94153735349E+03  0.95954914206E+03  0.87240585556E+02 0.  0.
          5    1    3    3  502    0  0.64621967771E+02  0.86302717384E+02 -0.29049437465E+03  0.30989228686E+03  0.47000000000E+01 0.  1.
         -5    1    3    3    0  502 -0.32716803417E+02  0.73738242123E+02 -0.52124805783E+03  0.52747449737E+03  0.47000000000E+01 0.  1.
          5    1    4    4  503    0 -0.19356421955E+02 -0.86545239172E+02 -0.72642290950E+03  0.73183132137E+03  0.47000000000E+01 0. -1.
         -5    1    4    4    0  503 -0.12548742399E+02 -0.73495720335E+02 -0.21511444399E+03  0.22771782068E+03  0.47000000000E+01 0.  1.
<mgrwt>
<rscale>  0 0.20023187E+03</rscale>
<asrwt>0</asrwt>
<pdfrwt beam="1">  1        2 0.27309201E+00 0.20556594E+03</pdfrwt>
<pdfrwt beam="2">  1       -2 0.33566258E-02 0.20556594E+03</pdfrwt>
<totfact> 0.34876225E+03</totfact>
</mgrwt>
</event>
<event>
 8    1  0.3407580E-004  0.1402143E+03  0.7546771E-02  0.1224708E+00
          3   -1    0    0  501    0  0.00000000000E+00  0.00000000000E+00  0.76961636141E+02  0.76961636141E+02  0.00000000000E+00 0. -1.
         -3   -1    0    0    0  501 -0.00000000000E+00 -0.00000000000E+00 -0.20344387491E+03  0.20344387491E+03  0.00000000000E+00 0.  1.
         25    2    1    2    0    0  0.23854180288E+02  0.58872571649E+02 -0.63618200135E+02  0.15397185236E+03  0.12500021728E+03 0.  0.
         23    2    1    2    0    0 -0.23854180288E+02 -0.58872571649E+02 -0.62864038630E+02  0.12643365869E+03  0.89434786781E+02 0.  0.
          5    1    4    4  502    0 -0.46408726895E+01 -0.50946247965E+02  0.83974509134E+01  0.52054443258E+02  0.47000000000E+01 0. -1.
         -5    1    3    3    0  503 -0.78752133674E+01 -0.37321827014E+02 -0.12495406543E+02  0.40412410741E+02  0.47000000000E+01 0.  1.
          5    1    3    3  503    0  0.31729393655E+02  0.96194398664E+02 -0.51122793592E+02  0.11355944162E+03  0.47000000000E+01 0.  1.
         -5    1    4    4    0  502 -0.19213307599E+02 -0.79263236841E+01 -0.71261489544E+02  0.74379215430E+02  0.47000000000E+01 0.  1.
<mgrwt>
<rscale>  0 0.13186928E+03</rscale>
<asrwt>0</asrwt>
<pdfrwt beam="1">  1        3 0.11840252E-01 0.14021432E+03</pdfrwt>
<pdfrwt beam="2">  1       -3 0.31299057E-01 0.14021432E+03</pdfrwt>
<totfact> 0.12750534E+03</totfact>
</mgrwt>
</event>
<event>
 8    1  0.3407580E-004  0.2052629E+03  0.7546771E-02  0.1149407E+00
          1   -1    0    0  501    0  0.00000000000E+00  0.00000000000E+00  0.51799543753E+03  0.51799543753E+03  0.00000000000E+00 0. -1.
         -1   -1    0    0    0  501 -0.00000000000E+00 -0.00000000000E+00 -0.74428465593E+02  0.74428465593E+02  0.00000000000E+00 0.  1.
         25    2    1    2    0    0  0.42016647355E+02  0.15732048608E+03  0.25314337741E+03  0.32590555812E+03  0.12497091379E+03 0.  0.
         23    2    1    2    0    0 -0.42016647355E+02 -0.15732048608E+03  0.19042359452E+03  0.26651834500E+03  0.90861151619E+02 0.  0.
          5    1    3    3  502    0  0.73820865116E+02  0.15650019938E+03  0.21296659998E+03  0.27444251718E+03  0.47000000000E+01 0.  1.
         -5    1    3    3    0  502 -0.31804217761E+02  0.82028670067E+00  0.40176777436E+02  0.51463040941E+02  0.47000000000E+01 0.  1.
          5    1    4    4  503    0 -0.23657329134E+02 -0.33077295648E+02  0.32523331649E+01  0.41066341208E+02  0.47000000000E+01 0. -1.
         -5    1    4    4    0  503 -0.18359318220E+02 -0.12424319043E+03  0.18717126136E+03  0.22545200379E+03  0.47000000000E+01 0.  1.
<mgrwt>
<rscale>  0 0.20039405E+03</rscale>
<asrwt>0</asrwt>
<pdfrwt beam="1">  1        1 0.79691603E-01 0.20526291E+03</pdfrwt>
<pdfrwt beam="2">  1       -1 0.11450534E-01 0.20526291E+03</pdfrwt>
<totfact> 0.21069775E+03</totfact>
</mgrwt>
</event>
<event>
 8    1  0.3407580E-004  0.1511006E+03  0.7546771E-02  0.1207678E+00
          2   -1    0    0  501    0  0.00000000000E+00  0.00000000000E+00  0.12001628198E+04  0.12001628198E+04  0.00000000000E+00 0. -1.
         -2   -1    0    0    0  501 -0.00000000000E+00 -0.00000000000E+00 -0.24234181991E+02  0.24234181991E+02  0.00000000000E+00 0.  1.
         25    2    1    2    0    0 -0.84687233361E+02 -0.58501140728E+01  0.98050245579E+03  0.99207683929E+03  0.12500095169E+03 0.  0.
         23    2    1    2    0    0  0.84687233361E+02  0.58501140728E+01  0.19542618199E+03  0.23232016246E+03  0.92601911171E+02 0.  0.
          5    1    4    4  502    0 -0.13466339482E+02 -0.19436127283E+02  0.40100285741E+02  0.46789189557E+02  0.47000000000E+01 0. -1.
         -5    1    3    3    0  503 -0.29899072422E+02 -0.63406890335E+02  0.52342404191E+03  0.52811855291E+03  0.47000000000E+01 0.  1.
          5    1    3    3  503    0 -0.54788160940E+02  0.57556776262E+02  0.45707841388E+03  0.46395828639E+03  0.47000000000E+01 0.  1.
         -5    1    4    4    0  502  0.98153572843E+02  0.25286241356E+02  0.15532589624E+03  0.18553097291E+03  0.47000000000E+01 0.  1.
<mgrwt>
<rscale>  0 0.14428373E+03</rscale>
<asrwt>0</asrwt>
<pdfrwt beam="1">  1        2 0.18464039E+00 0.15110059E+03</pdfrwt>
<pdfrwt beam="2">  1       -2 0.37283366E-02 0.15110059E+03</pdfrwt>
<totfact> 0.59912980E+03</totfact>
</mgrwt>
</event>
<event>
 8    1  0.3407580E-004  0.1311789E+03  0.7546771E-02  0.1239618E+00
          4   -1    0    0  501    0  0.00000000000E+00  0.00000000000E+00  0.29895501367E+03  0.29895501367E+03  0.00000000000E+00 0. -1.
         -4   -1    0    0    0  501 -0.00000000000E+00 -0.00000000000E+00 -0.47980000309E+02  0.47980000309E+02  0.00000000000E+00 0.  1.
         25    2    1    2    0    0  0.33269340629E+02  0.21825698857E+02  0.93262405261E+02  0.16095270250E+03  0.12499874419E+03 0.  0.
         23    2    1    2    0    0 -0.33269340629E+02 -0.21825698857E+02  0.15771260810E+03  0.18598231148E+03  0.90182832475E+02 0.  0.
          5    1    3    3  502    0 -0.30040838402E+02  0.23894011344E+02  0.89297020309E+02  0.97310963340E+02  0.47000000000E+01 0.  1.
         -5    1    4    4    0  503 -0.96240500986E+00 -0.25346502488E+02  0.94622090585E+00  0.25813886685E+02  0.47000000000E+01 0.  1.
          5    1    4    4  503    0 -0.32306935619E+02  0.35208036309E+01  0.15676638720E+03  0.16016842480E+03  0.47000000000E+01 0. -1.
         -5    1    3    3    0  502  0.63310179031E+02 -0.20683124862E+01  0.39653849518E+01  0.63641739160E+02  0.47000000000E+01 0.  1.
<mgrwt>
<rscale>  0 0.12213347E+03</rscale>
<asrwt>0</asrwt>
<pdfrwt beam="1">  1        4 0.45993078E-01 0.13117887E+03</pdfrwt>
<pdfrwt beam="2">  1       -4 0.73815387E-02 0.13117887E+03</pdfrwt>
<totfact> 0.95236726E+02</totfact>
</mgrwt>
</event>
<event>
 8    1  0.3407580E-004  0.1470140E+03  0.7546771E-02  0.1213646E+00
         -2   -1    0    0    0  501 -0.00000000000E+00  0.00000000000E+00  0.71420172237E+02  0.71420172237E+02  0.00000000000E+00 0.  1.
          2   -1    0    0  501    0  0.00000000000E+00 -0.00000000000E+00 -0.26083078459E+03  0.26083078459E+03  0.00000000000E+00 0. -1.
         25    2    1    2    0    0  0.30269278273E+02  0.71209329904E+02 -0.13793502185E+03  0.20159163885E+03  0.12500448284E+03 0.  0.
         23    2    1    2    0    0 -0.30269278273E+02 -0.71209329904E+02 -0.51475590508E+02  0.13065931798E+03  0.91842926153E+02 0.  0.
          5    1    3    3  502    0  0.43967368583E+02  0.38383971009E+01 -0.12343570768E+03  0.13117288867E+03  0.47000000000E+01 0.  1.
         -5    1    4    4    0  503 -0.39704711312E+02 -0.10143685498E+02  0.10972067369E+02  0.42682955828E+02  0.47000000000E+01 0.  1.
          5    1    4    4  503    0  0.94354330388E+01 -0.61065644405E+02 -0.62447657877E+02  0.87976362152E+02  0.47000000000E+01 0. -1.
         -5    1    3    3    0  502 -0.13698090310E+02  0.67370932803E+02 -0.14499314166E+02  0.70418750175E+02  0.47000000000E+01 0.  1.
<mgrwt>
<rscale>  0 0.13976476E+03</rscale>
<asrwt>0</asrwt>
<pdfrwt beam="1">  1        2 0.40127813E-01 0.14701401E+03</pdfrwt>
<pdfrwt beam="2">  1       -2 0.10987719E-01 0.14701401E+03</pdfrwt>
<totfact> 0.69475423E+03</totfact>
</mgrwt>
</event>
<event>
 8    1  0.3407580E-004  0.1308833E+03  0.7546771E-02  0.1240089E+00
         -2   -1    0    0    0  501 -0.00000000000E+00  0.00000000000E+00  0.17846269915E+02  0.17846269915E+02  0.00000000000E+00 0.  1.
          2   -1    0    0  501    0  0.00000000000E+00 -0.00000000000E+00 -0.73576587165E+03  0.73576587165E+03  0.00000000000E+00 0. -1.
         25    2    1    2    0    0 -0.38100809617E+02 -0.73798016354E+01 -0.40968943315E+03  0.43008819800E+03  0.12499717299E+03 0.  0.
         23    2    1    2    0    0  0.38100809617E+02  0.73798016354E+01 -0.30823016858E+03  0.32352394357E+03  0.90309313309E+02 0.  0.
          5    1    3    3  502    0 -0.59686405799E+02 -0.40464749132E+02 -0.35603338095E+03  0.36329288640E+03  0.47000000000E+01 0. -1.
         -5    1    3    3    0  502  0.21585596182E+02  0.33084947497E+02 -0.53656052206E+02  0.66795311600E+02  0.47000000000E+01 0. -1.
          5    1    4    4  503    0  0.38598039829E+02  0.33980396636E+02 -0.27892647251E+03  0.28366625302E+03  0.47000000000E+01 0. -1.
         -5    1    4    4    0  503 -0.49723021160E+00 -0.26600595001E+02 -0.29303696070E+02  0.39857690546E+02  0.47000000000E+01 0.  1.
<mgrwt>
<rscale>  0 0.12184169E+03</rscale>
<asrwt>0</asrwt>
<pdfrwt beam="1">  1        2 0.11319476E+00 0.13088325E+03</pdfrwt>
<pdfrwt beam="2">  1       -2 0.27455797E-02 0.13088325E+03</pdfrwt>
<totfact> 0.18036754E+04</totfact>
</mgrwt>
</event>
<event>
 8    1  0.3407580E-004  0.1973007E+03  0.7546771E-02  0.1157034E+00
         -1   -1    0    0    0  501 -0.00000000000E+00  0.00000000000E+00  0.37489589630E+02  0.37489589630E+02  0.00000000000E+00 0.  1.
          1   -1    0    0  501    0  0.00000000000E+00 -0.00000000000E+00 -0.95929984654E+03  0.95929984654E+03  0.00000000000E+00 0. -1.
         25    2    1    2    0    0  0.11147361722E+03 -0.10428951817E+03 -0.39497022246E+03  0.44150769200E+03  0.12499957811E+03 0.  0.
         23    2    1    2    0    0 -0.11147361722E+03  0.10428951817E+03 -0.52684003445E+03  0.55528174417E+03  0.86456477922E+02 0.  0.
          5    1    4    4  502    0 -0.89374583699E+02  0.10734069257E+03 -0.50397022560E+03  0.52298940599E+03  0.47000000000E+01 0. -1.
         -5    1    3    3    0  503  0.77245049856E+02  0.46472121060E+01 -0.21252131452E+03  0.22622067419E+03  0.47000000000E+01 0. -1.
          5    1    3    3  503    0  0.34228567369E+02 -0.10893673027E+03 -0.18244890795E+03  0.21528701781E+03  0.47000000000E+01 0. -1.
         -5    1    4    4    0  502 -0.22099033526E+02 -0.30511744007E+01 -0.22869808846E+02  0.32292338173E+02  0.47000000000E+01 0.  1.
<mgrwt>
<rscale>  0 0.19159115E+03</rscale>
<asrwt>0</asrwt>
<pdfrwt beam="1">  1        1 0.14758460E+00 0.19730070E+03</pdfrwt>
<pdfrwt beam="2">  1       -1 0.57676290E-02 0.19730070E+03</pdfrwt>
<totfact> 0.24231395E+03</totfact>
</mgrwt>
</event>
<event>
 8    1  0.3407580E-004  0.1733466E+03  0.7546771E-02  0.1182604E+00
          2   -1    0    0  501    0  0.00000000000E+00  0.00000000000E+00  0.32713842651E+03  0.32713842651E+03  0.00000000000E+00 0. -1.
         -2   -1    0    0    0  501 -0.00000000000E+00 -0.00000000000E+00 -0.77032724516E+02  0.77032724516E+02  0.00000000000E+00 0.  1.
         25    2    1    2    0    0 -0.44780176322E+02 -0.11144433649E+03  0.14031370364E+03  0.22301788340E+03  0.12499574616E+03 0.  0.
         23    2    1    2    0    0  0.44780176322E+02  0.11144433649E+03  0.10979199835E+03  0.18115326762E+03  0.79606024539E+02 0.  0.
          5    1    4    4  502    0  0.64674513391E+01  0.97361219937E+02  0.53253355616E+02  0.11126115656E+03  0.47000000000E+01 0. -1.
         -5    1    4    4    0  502  0.38312724983E+02  0.14083116554E+02  0.56538642729E+02  0.69892111065E+02  0.47000000000E+01 0.  1.
          5    1    3    3  503    0 -0.34088857678E+02 -0.13862141753E+03  0.10697368347E+03  0.17844720948E+03  0.47000000000E+01 0. -1.
         -5    1    3    3    0  503 -0.10691318644E+02  0.27177081040E+02  0.33340020171E+02  0.44570673915E+02  0.47000000000E+01 0. -1.
<mgrwt>
<rscale>  0 0.16551818E+03</rscale>
<asrwt>0</asrwt>
<pdfrwt beam="1">  1        2 0.50328988E-01 0.17334659E+03</pdfrwt>
<pdfrwt beam="2">  1       -2 0.11851189E-01 0.17334659E+03</pdfrwt>
<totfact> 0.48833859E+03</totfact>
</mgrwt>
</event>
<event>
 8    1  0.3407580E-004  0.4331378E+03  0.7546771E-02  0.1033558E+00
          1   -1    0    0  501    0  0.00000000000E+00  0.00000000000E+00  0.11599319817E+04  0.11599319817E+04  0.00000000000E+00 0. -1.
         -1   -1    0    0    0  501 -0.00000000000E+00 -0.00000000000E+00 -0.17011813481E+03  0.17011813481E+03  0.00000000000E+00 0.  1.
         25    2    1    2    0    0 -0.35448049588E+03 -0.21522593592E+03  0.32597359458E+03  0.54209516697E+03  0.12501903948E+03 0.  0.
         23    2    1    2    0    0  0.35448049588E+03  0.21522593592E+03  0.66384025226E+03  0.78795494951E+03  0.90611789945E+02 0.  0.
          5    1    4    4  502    0  0.23039932260E+03  0.11939573344E+03  0.33637637604E+03  0.42486509079E+03  0.47000000000E+01 0. -1.
         -5    1    4    4    0  502  0.12408117329E+03  0.95830202478E+02  0.32746387622E+03  0.36308985872E+03  0.47000000000E+01 0.  1.
          5    1    3    3  503    0 -0.21965602534E+02 -0.17766678472E+02 -0.94416913024E+01  0.30155896492E+02  0.47000000000E+01 0. -1.
         -5    1    3    3    0  503 -0.33251489335E+03 -0.19745925745E+03  0.33541528589E+03  0.51193927048E+03  0.47000000000E+01 0. -1.
<mgrwt>
<rscale>  0 0.43095871E+03</rscale>
<asrwt>0</asrwt>
<pdfrwt beam="1">  1        1 0.17845107E+00 0.43313784E+03</pdfrwt>
<pdfrwt beam="2">  1       -1 0.26172022E-01 0.43313784E+03</pdfrwt>
<totfact> 0.15511692E+02</totfact>
</mgrwt>
</event>
<event>
 8    1  0.3407580E-004  0.1515758E+03  0.7546771E-02  0.1207432E+00
         -1   -1    0    0    0  501 -0.00000000000E+00  0.00000000000E+00  0.49268916412E+02  0.49268916412E+02  0.00000000000E+00 0.  1.
          1   -1    0    0  501    0  0.00000000000E+00 -0.00000000000E+00 -0.56643206236E+03  0.56643206236E+03  0.00000000000E+00 0. -1.
         25    2    1    2    0    0 -0.82022279604E+02  0.24948351329E+02 -0.44757533028E+03  0.47254511960E+03  0.12500055678E+03 0.  0.
         23    2    1    2    0    0  0.82022279604E+02 -0.24948351329E+02 -0.69587815672E+02  0.14315585918E+03  0.91110160471E+02 0.  0.
          5    1    3    3  502    0 -0.18136095794E+02 -0.40041400800E+02 -0.60935368541E+02  0.75282407559E+02  0.47000000000E+01 0.  1.
         -5    1    4    4    0  503  0.10040736861E+03 -0.16899210406E+02 -0.67901382494E+02  0.12247412269E+03  0.47000000000E+01 0.  1.
          5    1    4    4  503    0 -0.18385089005E+02 -0.80491409237E+01 -0.16864331783E+01  0.20681736489E+02  0.47000000000E+01 0. -1.
         -5    1    3    3    0  502 -0.63886183810E+02  0.64989752130E+02 -0.38663996174E+03  0.39726271204E+03  0.47000000000E+01 0.  1.
<mgrwt>
<rscale>  0 0.14447429E+03</rscale>
<asrwt>0</asrwt>
<pdfrwt beam="1">  1        1 0.87143390E-01 0.15157577E+03</pdfrwt>
<pdfrwt beam="2">  1       -1 0.75798337E-02 0.15157577E+03</pdfrwt>
<totfact> 0.34825672E+03</totfact>
</mgrwt>
</event>
<event>
 8    1  0.3407580E-004  0.1980368E+03  0.7546771E-02  0.1155854E+00
         -1   -1    0    0    0  501 -0.00000000000E+00  0.00000000000E+00  0.67597685191E+03  0.67597685191E+03  0.00000000000E+00 0.  1.
          1   -1    0    0  501    0  0.00000000000E+00 -0.00000000000E+00 -0.60746772583E+02  0.60746772583E+02  0.00000000000E+00 0. -1.
         25    2    1    2    0    0 -0.15277241447E+03  0.15907767469E+02  0.45793262928E+03  0.49891968384E+03  0.12500436106E+03 0.  0.
         23    2    1    2    0    0  0.15277241447E+03 -0.15907767469E+02  0.15729745005E+03  0.23780394065E+03  0.90640822520E+02 0.  0.
          5    1    3    3  502    0 -0.16063028614E+03 -0.82008156774E+01  0.43707105386E+03  0.46574943727E+03  0.47000000000E+01 0. -1.
         -5    1    3    3    0  502  0.78578716687E+01  0.24108583147E+02  0.20861575419E+02  0.33170246569E+02  0.47000000000E+01 0. -1.
          5    1    4    4  503    0  0.72536423790E+02 -0.25356502525E+02  0.21855382406E+02  0.80026450232E+02  0.47000000000E+01 0. -1.
         -5    1    4    4    0  503  0.80235990677E+02  0.94487350553E+01  0.13544206765E+03  0.15777749042E+03  0.47000000000E+01 0.  1.
<mgrwt>
<rscale>  0 0.19291979E+03</rscale>
<asrwt>0</asrwt>
<pdfrwt beam="1">  1        1 0.93456578E-02 0.19803676E+03</pdfrwt>
<pdfrwt beam="2">  1       -1 0.10399643E+00 0.19803676E+03</pdfrwt>
<totfact> 0.64745699E+02</totfact>
</mgrwt>
</event>
<event>
 8    1  0.3407580E-004  0.2252181E+03  0.7546771E-02  0.1133192E+00
          2   -1    0    0  501    0  0.00000000000E+00  0.00000000000E+00  0.10606783653E+04  0.10606783653E+04  0.00000000000E+00 0. -1.
         -2   -1    0    0    0  501 -0.00000000000E+00 -0.00000000000E+00 -0.44363357565E+02  0.44363357565E+02  0.00000000000E+00 0.  1.
         25    2    1    2    0    0  0.30822734121E+02  0.18479405496E+03  0.51708783904E+03  0.56400623989E+03  0.12499728663E+03 0.  0.
         23    2    1    2    0    0 -0.30822734121E+02 -0.18479405496E+03  0.49922716872E+03  0.54103548300E+03  0.91611921662E+02 0.  0.
          5    1    3    3  502    0  0.18252375564E+02  0.11603810437E+03  0.15146875239E+03  0.19173644367E+03  0.47000000000E+01 0.  1.
         -5    1    3    3    0  502  0.12570358557E+02  0.68755950586E+02  0.36561908666E+03  0.37226979623E+03  0.47000000000E+01 0.  1.
          5    1    4    4  503    0 -0.33153836482E+02 -0.49203882434E+02  0.25288287332E+03  0.25979229500E+03  0.47000000000E+01 0. -1.
         -5    1    4    4    0  503  0.23311023613E+01 -0.13559017252E+03  0.24634429540E+03  0.28124318800E+03  0.47000000000E+01 0.  1.
<mgrwt>
<rscale>  0 0.22092925E+03</rscale>
<asrwt>0</asrwt>
<pdfrwt beam="1">  1        2 0.16318127E+00 0.22521813E+03</pdfrwt>
<pdfrwt beam="2">  1       -2 0.68251327E-02 0.22521813E+03</pdfrwt>
<totfact> 0.29117970E+03</totfact>
</mgrwt>
</event>
<event>
 8    1  0.3407580E-004  0.1631117E+03  0.7546771E-02  0.1191837E+00
         -2   -1    0    0    0  501 -0.00000000000E+00  0.00000000000E+00  0.18867280106E+02  0.18867280106E+02  0.00000000000E+00 0.  1.
          2   -1    0    0  501    0  0.00000000000E+00 -0.00000000000E+00 -0.12679324352E+04  0.12679324352E+04  0.00000000000E+00 0. -1.
         25    2    1    2    0    0  0.99148656099E+02 -0.33880139619E+02 -0.78720908300E+03  0.80393007321E+03  0.12500840929E+03 0.  0.
         23    2    1    2    0    0 -0.99148656099E+02  0.33880139619E+02 -0.46185607212E+03  0.48286964212E+03  0.94200531091E+02 0.  0.
          5    1    4    4  502    0 -0.10064562767E+03  0.58014550634E+02 -0.38113095536E+03  0.39846972982E+03  0.47000000000E+01 0. -1.
         -5    1    3    3    0  503 -0.94590001698E+01  0.22261820470E+02 -0.41605842027E+02  0.48354911081E+02  0.47000000000E+01 0. -1.
          5    1    3    3  503    0  0.10860765627E+03 -0.56141960089E+02 -0.74560324097E+03  0.75557516213E+03  0.47000000000E+01 0. -1.
         -5    1    4    4    0  502  0.14969715694E+01 -0.24134411015E+02 -0.80725116764E+02  0.84399912295E+02  0.47000000000E+01 0.  1.
<mgrwt>
<rscale>  0 0.15724958E+03</rscale>
<asrwt>0</asrwt>
<pdfrwt beam="1">  1        2 0.19506654E+00 0.16311169E+03</pdfrwt>
<pdfrwt beam="2">  1       -2 0.29026583E-02 0.16311169E+03</pdfrwt>
<totfact> 0.79848736E+03</totfact>
</mgrwt>
</event>
<event>
 8    1  0.3407580E-004  0.1786720E+03  0.7546771E-02  0.1174602E+00
         -1   -1    0    0    0  501 -0.00000000000E+00  0.00000000000E+00  0.25392478575E+03  0.25392478575E+03  0.00000000000E+00 0.  1.
          1   -1    0    0  501    0  0.00000000000E+00 -0.00000000000E+00 -0.11510585471E+03  0.11510585471E+03  0.00000000000E+00 0. -1.
         25    2    1    2    0    0  0.14972341912E+02  0.12678346499E+03  0.40228913229E+02  0.18314488900E+03  0.12500186754E+03 0.  0.
         23    2    1    2    0    0 -0.14972341912E+02 -0.12678346499E+03  0.98590017816E+02  0.18588575147E+03  0.92386703419E+02 0.  0.
          5    1    3    3  502    0  0.52446876948E+02  0.66368157244E+02 -0.23106756581E+02  0.87814687822E+02  0.47000000000E+01 0.  1.
         -5    1    4    4    0  503 -0.87980582159E+01 -0.22300606254E+02  0.74469815145E+02  0.78374525424E+02  0.47000000000E+01 0.  1.
          5    1    4    4  503    0 -0.61742836962E+01 -0.10448285873E+03  0.24120202671E+02  0.10751122604E+03  0.47000000000E+01 0. -1.
         -5    1    3    3    0  502 -0.37474535036E+02  0.60415307745E+02  0.63335669810E+02  0.95330201176E+02  0.47000000000E+01 0.  1.
<mgrwt>
<rscale>  0 0.17314987E+03</rscale>
<asrwt>0</asrwt>
<pdfrwt beam="1">  1        1 0.17708593E-01 0.17867200E+03</pdfrwt>
<pdfrwt beam="2">  1       -1 0.39065352E-01 0.17867200E+03</pdfrwt>
<totfact> 0.18989052E+03</totfact>
</mgrwt>
</event>
<event>
 8    1  0.3407580E-004  0.1367390E+03  0.7546771E-02  0.1229521E+00
          2   -1    0    0  501    0  0.00000000000E+00  0.00000000000E+00  0.25260072098E+03  0.25260072098E+03  0.00000000000E+00 0. -1.
         -2   -1    0    0    0  501 -0.00000000000E+00 -0.00000000000E+00 -0.63254269687E+02  0.63254269687E+02  0.00000000000E+00 0.  1.
         25    2    1    2    0    0  0.20435691507E+02 -0.51483397076E+02  0.14695185228E+03  0.20072970288E+03  0.12501763502E+03 0.  0.
         23    2    1    2    0    0 -0.20435691507E+02  0.51483397076E+02  0.42394599015E+02  0.11512528779E+03  0.91588057094E+02 0.  0.
          5    1    3    3  502    0 -0.21151972266E+02 -0.29648621679E+02 -0.89838825959E+01  0.37805381161E+02  0.47000000000E+01 0.  1.
         -5    1    4    4    0  503 -0.30647464149E+02 -0.10671517674E+02 -0.86524695125E+01  0.33913177039E+02  0.47000000000E+01 0.  1.
          5    1    4    4  503    0  0.10211772642E+02  0.62154914750E+02  0.51047068527E+02  0.81212110755E+02  0.47000000000E+01 0. -1.
         -5    1    3    3    0  502  0.41587663774E+02 -0.21834775398E+02  0.15593573488E+03  0.16292432172E+03  0.47000000000E+01 0.  1.
<mgrwt>
<rscale>  0 0.12861779E+03</rscale>
<asrwt>0</asrwt>
<pdfrwt beam="1">  1        2 0.38861649E-01 0.13673905E+03</pdfrwt>
<pdfrwt beam="2">  1       -2 0.97314262E-02 0.13673905E+03</pdfrwt>
<totfact> 0.86636183E+03</totfact>
</mgrwt>
</event>
<event>
 8    1  0.3407580E-004  0.1677894E+03  0.7546771E-02  0.1186852E+00
          2   -1    0    0  501    0  0.00000000000E+00  0.00000000000E+00  0.16461992317E+03  0.16461992317E+03  0.00000000000E+00 0. -1.
         -2   -1    0    0    0  501 -0.00000000000E+00 -0.00000000000E+00 -0.27323165358E+03  0.27323165358E+03  0.00000000000E+00 0.  1.
         25    2    1    2    0    0 -0.26758672949E+02  0.10867205009E+03 -0.20441044067E+03  0.26445585435E+03  0.12501051794E+03 0.  0.
         23    2    1    2    0    0  0.26758672949E+02 -0.10867205009E+03  0.95798710265E+02  0.17339572241E+03  0.91449672570E+02 0.  0.
          5    1    4    4  502    0 -0.23428040945E+02 -0.84461307386E+02  0.67466457931E+02  0.11070861978E+03  0.47000000000E+01 0. -1.
         -5    1    4    4    0  502  0.50186713894E+02 -0.24210742700E+02  0.28332252334E+02  0.62687102628E+02  0.47000000000E+01 0.  1.
          5    1    3    3  503    0  0.50175430807E+02  0.43502808871E+02 -0.73843815341E+02  0.99423675754E+02  0.47000000000E+01 0. -1.
         -5    1    3    3    0  503 -0.76934103755E+02  0.65169241215E+02 -0.13056662533E+03  0.16503217859E+03  0.47000000000E+01 0. -1.
<mgrwt>
<rscale>  0 0.16164497E+03</rscale>
<asrwt>0</asrwt>
<pdfrwt beam="1">  1        2 0.25326142E-01 0.16778936E+03</pdfrwt>
<pdfrwt beam="2">  1       -2 0.42035638E-01 0.16778936E+03</pdfrwt>
<totfact> 0.11344880E+03</totfact>
</mgrwt>
</event>
<event>
 8    1  0.3407580E-004  0.1408763E+03  0.7546771E-02  0.1223099E+00
         -1   -1    0    0    0  501 -0.00000000000E+00  0.00000000000E+00  0.29099730283E+02  0.29099730283E+02  0.00000000000E+00 0.  1.
          1   -1    0    0  501    0  0.00000000000E+00 -0.00000000000E+00 -0.57160816210E+03  0.57160816210E+03  0.00000000000E+00 0. -1.
         25    2    1    2    0    0 -0.46026339533E+02  0.45852477733E+02 -0.36087729664E+03  0.38739972197E+03  0.12500099082E+03 0.  0.
         23    2    1    2    0    0  0.46026339533E+02 -0.45852477733E+02 -0.18163113517E+03  0.21330817041E+03  0.91047419814E+02 0.  0.
          5    1    3    3  502    0 -0.71440186718E+02 -0.11695400367E+02 -0.24435954748E+03  0.25490029642E+03  0.47000000000E+01 0. -1.
         -5    1    4    4    0  503  0.48692424627E+02  0.12795823964E+02 -0.10606000822E+03  0.11749681132E+03  0.47000000000E+01 0.  1.
          5    1    4    4  503    0 -0.26660850940E+01 -0.58648301697E+02 -0.75571126947E+02  0.95811359085E+02  0.47000000000E+01 0. -1.
         -5    1    3    3    0  502  0.25413847185E+02  0.57547878100E+02 -0.11651774916E+03  0.13249942556E+03  0.47000000000E+01 0. -1.
<mgrwt>
<rscale>  0 0.13298043E+03</rscale>
<asrwt>0</asrwt>
<pdfrwt beam="1">  1        1 0.87939717E-01 0.14087626E+03</pdfrwt>
<pdfrwt beam="2">  1       -1 0.44768816E-02 0.14087626E+03</pdfrwt>
<totfact> 0.75163594E+03</totfact>
</mgrwt>
</event>
<event>
 8    1  0.3407580E-004  0.1321962E+03  0.7546771E-02  0.1237084E+00
          2   -1    0    0  501    0  0.00000000000E+00  0.00000000000E+00  0.91432939660E+02  0.91432939660E+02  0.00000000000E+00 0. -1.
         -2   -1    0    0    0  501 -0.00000000000E+00 -0.00000000000E+00 -0.21259277923E+03  0.21259277923E+03  0.00000000000E+00 0.  1.
         25    2    1    2    0    0  0.12835396038E+02  0.41067396657E+02 -0.14867224935E+03  0.19894543032E+03  0.12499827223E+03 0.  0.
         23    2    1    2    0    0 -0.12835396038E+02 -0.41067396657E+02  0.27512409780E+02  0.10508028857E+03  0.91834938306E+02 0.  0.
          5    1    3    3  502    0 -0.19429004954E+02  0.68197991255E+02 -0.38359389461E+02  0.80758807597E+02  0.47000000000E+01 0. -1.
         -5    1    4    4    0  503 -0.43391523322E+02 -0.50782566913E+02  0.84728852376E+01  0.67494986353E+02  0.47000000000E+01 0.  1.
          5    1    4    4  503    0  0.30556127284E+02  0.97151702560E+01  0.19039524543E+02  0.37585302214E+02  0.47000000000E+01 0. -1.
         -5    1    3    3    0  502  0.32264400992E+02 -0.27130594597E+02 -0.11031285989E+03  0.11818662273E+03  0.47000000000E+01 0. -1.
<mgrwt>
<rscale>  0 0.12371989E+03</rscale>
<asrwt>0</asrwt>
<pdfrwt beam="1">  1        2 0.14066606E-01 0.13219624E+03</pdfrwt>
<pdfrwt beam="2">  1       -2 0.32706581E-01 0.13219624E+03</pdfrwt>
<totfact> 0.35144664E+03</totfact>
</mgrwt>
</event>
<event>
 8    1  0.3407580E-004  0.1498642E+03  0.7546771E-02  0.1209576E+00
         -2   -1    0    0    0  501 -0.00000000000E+00  0.00000000000E+00  0.27135325258E+03  0.27135325258E+03  0.00000000000E+00 0.  1.
          2   -1    0    0  501    0  0.00000000000E+00 -0.00000000000E+00 -0.87809262659E+02  0.87809262659E+02  0.00000000000E+00 0. -1.
         25    2    1    2    0    0  0.78202962946E+02 -0.26783558583E+02  0.15678085294E+02  0.15068207064E+03  0.12500488642E+03 0.  0.
         23    2    1    2    0    0 -0.78202962946E+02  0.26783558583E+02  0.16786590463E+03  0.20848044460E+03  0.91935147908E+02 0.  0.
          5    1    3    3  502    0 -0.11271016830E+02 -0.20067552643E+02  0.49410060787E+02  0.54710022815E+02  0.47000000000E+01 0.  1.
         -5    1    3    3    0  502  0.89473979776E+02 -0.67160059402E+01 -0.33731975493E+02  0.95972047823E+02  0.47000000000E+01 0.  1.
          5    1    4    4  503    0 -0.55551703475E+02  0.40339071307E+02  0.43846180156E+02  0.81595403958E+02  0.47000000000E+01 0. -1.
         -5    1    4    4    0  503 -0.22651259471E+02 -0.13555512724E+02  0.12401972447E+03  0.12688504064E+03  0.47000000000E+01 0.  1.
<mgrwt>
<rscale>  0 0.14282595E+03</rscale>
<asrwt>0</asrwt>
<pdfrwt beam="1">  1        2 0.13509117E-01 0.14986422E+03</pdfrwt>
<pdfrwt beam="2">  1       -2 0.41746654E-01 0.14986422E+03</pdfrwt>
<totfact> 0.23538502E+03</totfact>
</mgrwt>
</event>
<event>
 8    1  0.3407580E-004  0.1444726E+03  0.7546771E-02  0.1217510E+00
         -3   -1    0    0    0  501 -0.00000000000E+00  0.00000000000E+00  0.17144201273E+03  0.17144201273E+03  0.00000000000E+00 0.  1.
          3   -1    0    0  501    0  0.00000000000E+00 -0.00000000000E+00 -0.10681505769E+03  0.10681505769E+03  0.00000000000E+00 0. -1.
         25    2    1    2    0    0 -0.11824551262E+02  0.71469109154E+02  0.71988508105E+02  0.16141463242E+03  0.12499873873E+03 0.  0.
         23    2    1    2    0    0  0.11824551262E+02 -0.71469109154E+02 -0.73615530708E+01  0.11684243800E+03  0.91380026694E+02 0.  0.
          5    1    3    3  502    0 -0.20490133886E+02  0.10557471297E+03  0.44361068370E+02  0.11642963537E+03  0.47000000000E+01 0. -1.
         -5    1    3    3    0  502  0.86655826238E+01 -0.34105603812E+02  0.27627439736E+02  0.44984997054E+02  0.47000000000E+01 0. -1.
          5    1    4    4  503    0  0.70071694267E+01 -0.93147809209E+02 -0.96612729498E+01  0.94026831164E+02  0.47000000000E+01 0. -1.
         -5    1    4    4    0  503  0.48173818357E+01  0.21678700055E+02  0.22997198790E+01  0.22815606837E+02  0.47000000000E+01 0.  1.
<mgrwt>
<rscale>  0 0.13693782E+03</rscale>
<asrwt>0</asrwt>
<pdfrwt beam="1">  1        3 0.16433086E-01 0.14447262E+03</pdfrwt>
<pdfrwt beam="2">  1       -3 0.26375694E-01 0.14447262E+03</pdfrwt>
<totfact> 0.10051951E+03</totfact>
</mgrwt>
</event>
<event>
 8    1  0.3407580E-004  0.2423341E+03  0.7546771E-02  0.1120994E+00
         -1   -1    0    0    0  501 -0.00000000000E+00  0.00000000000E+00  0.11631805982E+03  0.11631805982E+03  0.00000000000E+00 0.  1.
          1   -1    0    0  501    0  0.00000000000E+00 -0.00000000000E+00 -0.49222193753E+03  0.49222193753E+03  0.00000000000E+00 0. -1.
         25    2    1    2    0    0  0.85975103524E+02 -0.18896488446E+03 -0.25594976444E+03  0.35247141008E+03  0.12500546798E+03 0.  0.
         23    2    1    2    0    0 -0.85975103524E+02  0.18896488446E+03 -0.11995411327E+03  0.25606858727E+03  0.89903760264E+02 0.  0.
          5    1    3    3  502    0  0.31032340003E+02 -0.15933501347E+03 -0.11725379448E+03  0.20030275825E+03  0.47000000000E+01 0.  1.
         -5    1    4    4    0  503 -0.33253691444E+01  0.89613117744E+02 -0.18459047098E+02  0.91675489481E+02  0.47000000000E+01 0.  1.
          5    1    4    4  503    0 -0.82649734380E+02  0.99351766720E+02 -0.10149506617E+03  0.16439309779E+03  0.47000000000E+01 0. -1.
         -5    1    3    3    0  502  0.54942763521E+02 -0.29629870998E+02 -0.13869596996E+03  0.15216865184E+03  0.47000000000E+01 0.  1.
<mgrwt>
<rscale>  0 0.23820490E+03</rscale>
<asrwt>0</asrwt>
<pdfrwt beam="1">  1        1 0.75726453E-01 0.24233409E+03</pdfrwt>
<pdfrwt beam="2">  1       -1 0.17895086E-01 0.24233409E+03</pdfrwt>
<totfact> 0.11155981E+03</totfact>
</mgrwt>
</event>
<event>
 8    1  0.3407580E-004  0.1341005E+03  0.7546771E-02  0.1234495E+00
          1   -1    0    0  501    0  0.00000000000E+00  0.00000000000E+00  0.82936015170E+02  0.82936015170E+02  0.00000000000E+00 0. -1.
         -1   -1    0    0    0  501 -0.00000000000E+00 -0.00000000000E+00 -0.20465390858E+03  0.20465390858E+03  0.00000000000E+00 0.  1.
         25    2    1    2    0    0 -0.43117466895E+02  0.22348222263E+02 -0.12743411305E+03  0.18499294635E+03  0.12499751214E+03 0.  0.
         23    2    1    2    0    0  0.43117466895E+02 -0.22348222263E+02  0.57162196441E+01  0.10259697740E+03  0.90193711612E+02 0.  0.
          5    1    3    3  502    0  0.25749843646E+02 -0.25112331727E+02 -0.82070635831E+02  0.89729387150E+02  0.47000000000E+01 0. -1.
         -5    1    4    4    0  503  0.10488477447E+02 -0.30520787317E+02 -0.36149736062E+02  0.48686959598E+02  0.47000000000E+01 0.  1.
          5    1    4    4  503    0  0.32628989448E+02  0.81725650539E+01  0.41865955706E+02  0.53910017799E+02  0.47000000000E+01 0. -1.
         -5    1    3    3    0  502 -0.68867310541E+02  0.47460553990E+02 -0.45363477222E+02  0.95263559202E+02  0.47000000000E+01 0. -1.
<mgrwt>
<rscale>  0 0.12536826E+03</rscale>
<asrwt>0</asrwt>
<pdfrwt beam="1">  1        1 0.12759387E-01 0.13410047E+03</pdfrwt>
<pdfrwt beam="2">  1       -1 0.31485217E-01 0.13410047E+03</pdfrwt>
<totfact> 0.41593531E+03</totfact>
</mgrwt>
</event>
<event>
 8    1  0.3407580E-004  0.1263431E+03  0.7546771E-02  0.1248110E+00
         -1   -1    0    0    0  501 -0.00000000000E+00  0.00000000000E+00  0.16686606511E+03  0.16686606511E+03  0.00000000000E+00 0.  1.
          1   -1    0    0  501    0  0.00000000000E+00 -0.00000000000E+00 -0.74364415364E+02  0.74364415364E+02  0.00000000000E+00 0. -1.
         25    2    1    2    0    0  0.66499817146E+01 -0.17105780787E+02  0.32035739866E+02  0.13034130902E+03  0.12500295283E+03 0.  0.
         23    2    1    2    0    0 -0.66499817146E+01  0.17105780787E+02  0.60465909880E+02  0.11088917145E+03  0.91123279651E+02 0.  0.
          5    1    3    3  502    0 -0.20372450219E+01 -0.57098418122E+02  0.58077763692E+02  0.81605737267E+02  0.47000000000E+01 0. -1.
         -5    1    4    4    0  503  0.28247190554E+02  0.24544068527E+02  0.64456161435E+02  0.74679326597E+02  0.47000000000E+01 0.  1.
          5    1    4    4  503    0 -0.34897172269E+02 -0.74382877405E+01 -0.39902515549E+01  0.36209844854E+02  0.47000000000E+01 0. -1.
         -5    1    3    3    0  502  0.86872267365E+01  0.39992637335E+02 -0.26042023827E+02  0.48735571756E+02  0.47000000000E+01 0. -1.
<mgrwt>
<rscale>  0 0.11701176E+03</rscale>
<asrwt>0</asrwt>
<pdfrwt beam="1">  1        1 0.11440679E-01 0.12634306E+03</pdfrwt>
<pdfrwt beam="2">  1       -1 0.25671702E-01 0.12634306E+03</pdfrwt>
<totfact> 0.67156281E+03</totfact>
</mgrwt>
</event>
<event>
 8    1  0.3407580E-004  0.1356980E+03  0.7546771E-02  0.1231500E+00
          2   -1    0    0  501    0  0.00000000000E+00  0.00000000000E+00  0.30660559823E+03  0.30660559823E+03  0.00000000000E+00 0. -1.
         -2   -1    0    0    0  501 -0.00000000000E+00 -0.00000000000E+00 -0.47330771565E+02  0.47330771565E+02  0.00000000000E+00 0.  1.
         25    2    1    2    0    0  0.42143744681E+02  0.31824502597E+02  0.15102965082E+03  0.20303673435E+03  0.12500026354E+03 0.  0.
         23    2    1    2    0    0 -0.42143744681E+02 -0.31824502597E+02  0.10824517584E+03  0.15089963544E+03  0.90910877805E+02 0.  0.
          5    1    4    4  502    0 -0.54418332214E+01  0.20991449748E+02 -0.29235869077E+01  0.22380613748E+02  0.47000000000E+01 0. -1.
         -5    1    3    3    0  503  0.10133227665E+02 -0.25669669751E+02  0.13119317120E+03  0.13414675701E+03  0.47000000000E+01 0.  1.
          5    1    3    3  503    0  0.32010517016E+02  0.57494172348E+02  0.19836479627E+02  0.68889977338E+02  0.47000000000E+01 0.  1.
         -5    1    4    4    0  502 -0.36701911459E+02 -0.52815952345E+02  0.11116876275E+03  0.12851902170E+03  0.47000000000E+01 0.  1.
<mgrwt>
<rscale>  0 0.12731177E+03</rscale>
<asrwt>0</asrwt>
<pdfrwt beam="1">  1        2 0.47170091E-01 0.13569805E+03</pdfrwt>
<pdfrwt beam="2">  1       -2 0.72816573E-02 0.13569805E+03</pdfrwt>
<totfact> 0.11052692E+04</totfact>
</mgrwt>
</event>
<event>
 8    1  0.3407580E-004  0.1426535E+03  0.7546771E-02  0.1220260E+00
         -2   -1    0    0    0  501 -0.00000000000E+00  0.00000000000E+00  0.16560923354E+03  0.16560923354E+03  0.00000000000E+00 0.  1.
          2   -1    0    0  501    0  0.00000000000E+00 -0.00000000000E+00 -0.10586010051E+03  0.10586010051E+03  0.00000000000E+00 0. -1.
         25    2    1    2    0    0  0.58607835873E+02 -0.35914036572E+02  0.38124835252E+00  0.14265400317E+03  0.12500129127E+03 0.  0.
         23    2    1    2    0    0 -0.58607835873E+02  0.35914036572E+02  0.59367884678E+02  0.12881533089E+03  0.91346304212E+02 0.  0.
          5    1    4    4  502    0 -0.48467926670E+02  0.10722465350E+02 -0.12872423609E+02  0.51496606377E+02  0.47000000000E+01 0. -1.
         -5    1    4    4    0  502 -0.10139909204E+02  0.25191571222E+02  0.72240308287E+02  0.77318724515E+02  0.47000000000E+01 0.  1.
          5    1    3    3  503    0  0.92213200411E+02 -0.46238801280E+02 -0.14334646277E+02  0.10425388797E+03  0.47000000000E+01 0.  1.
         -5    1    3    3    0  503 -0.33605364538E+02  0.10324764708E+02  0.14715894629E+02  0.38400115192E+02  0.47000000000E+01 0.  1.
<mgrwt>
<rscale>  0 0.13497131E+03</rscale>
<asrwt>0</asrwt>
<pdfrwt beam="1">  1        2 0.16286169E-01 0.14265349E+03</pdfrwt>
<pdfrwt beam="2">  1       -2 0.25478344E-01 0.14265349E+03</pdfrwt>
<totfact> 0.46485199E+03</totfact>
</mgrwt>
</event>
<event>
 8    1  0.3407580E-004  0.1700928E+03  0.7546771E-02  0.1182181E+00
          1   -1    0    0  501    0  0.00000000000E+00  0.00000000000E+00  0.17261465724E+04  0.17261465724E+04  0.00000000000E+00 0. -1.
         -1   -1    0    0    0  501 -0.00000000000E+00 -0.00000000000E+00 -0.16165948506E+02  0.16165948506E+02  0.00000000000E+00 0.  1.
         25    2    1    2    0    0 -0.81373307514E+02  0.81756627171E+02  0.68338222991E+03  0.70423209793E+03  0.12500325730E+03 0.  0.
         23    2    1    2    0    0  0.81373307514E+02 -0.81756627171E+02  0.10265983940E+04  0.10380804230E+04  0.10198500270E+03 0.  0.
          5    1    4    4  502    0  0.35745991353E+02 -0.97036519999E+02  0.77456700374E+03  0.78145377047E+03  0.47000000000E+01 0. -1.
         -5    1    4    4    0  502  0.45627316160E+02  0.15279892828E+02  0.25203139028E+03  0.25662665254E+03  0.47000000000E+01 0.  1.
          5    1    3    3  503    0 -0.10456713821E+03  0.45851181407E+02  0.59582570597E+03  0.60668523892E+03  0.47000000000E+01 0. -1.
         -5    1    3    3    0  503  0.23193830697E+02  0.35905445764E+02  0.87556523933E+02  0.97546859002E+02  0.47000000000E+01 0. -1.
<mgrwt>
<rscale>  0 0.16591033E+03</rscale>
<asrwt>0</asrwt>
<pdfrwt beam="1">  1        1 0.26556087E+00 0.17009284E+03</pdfrwt>
<pdfrwt beam="2">  1       -1 0.24870704E-02 0.17009284E+03</pdfrwt>
<totfact> 0.25257670E+03</totfact>
</mgrwt>
</event>
<event>
 8    1  0.3407580E-004  0.1376892E+03  0.7546771E-02  0.1228051E+00
          1   -1    0    0  501    0  0.00000000000E+00  0.00000000000E+00  0.46140670414E+03  0.46140670414E+03  0.00000000000E+00 0. -1.
         -1   -1    0    0    0  501 -0.00000000000E+00 -0.00000000000E+00 -0.38678080171E+02  0.38678080171E+02  0.00000000000E+00 0.  1.
         25    2    1    2    0    0  0.52954420687E+02 -0.22996167560E+02  0.13542644715E+03  0.19312856591E+03  0.12500130395E+03 0.  0.
         23    2    1    2    0    0 -0.52954420687E+02  0.22996167560E+02  0.28730217682E+03  0.30695621840E+03  0.91359645448E+02 0.  0.
          5    1    3    3  502    0 -0.21316581597E+02 -0.42376810568E+02  0.94905702307E+02  0.10620439282E+03  0.47000000000E+01 0.  1.
         -5    1    4    4    0  503 -0.15014597307E+02 -0.26398674670E+02  0.18157421980E+03  0.18415649718E+03  0.47000000000E+01 0.  1.
          5    1    4    4  503    0 -0.37939823380E+02  0.49394842230E+02  0.10572795703E+03  0.12279972123E+03  0.47000000000E+01 0. -1.
         -5    1    3    3    0  502  0.74271002284E+02  0.19380643008E+02  0.40520744839E+02  0.86924173082E+02  0.47000000000E+01 0.  1.
<mgrwt>
<rscale>  0 0.12959951E+03</rscale>
<asrwt>0</asrwt>
<pdfrwt beam="1">  1        1 0.70985643E-01 0.13768922E+03</pdfrwt>
<pdfrwt beam="2">  1       -1 0.59504742E-02 0.13768922E+03</pdfrwt>
<totfact> 0.65229265E+03</totfact>
</mgrwt>
</event>
<event>
 8    1  0.3407580E-004  0.1923966E+03  0.7546771E-02  0.1161409E+00
         -1   -1    0    0    0  501 -0.00000000000E+00  0.00000000000E+00  0.12131403726E+03  0.12131403726E+03  0.00000000000E+00 0.  1.
          1   -1    0    0  501    0  0.00000000000E+00 -0.00000000000E+00 -0.33772784098E+03  0.33772784098E+03  0.00000000000E+00 0. -1.
         25    2    1    2    0    0 -0.54832424316E+02 -0.13559339522E+03 -0.21455151608E+03  0.28818190244E+03  0.12499716901E+03 0.  0.
         23    2    1    2    0    0  0.54832424316E+02  0.13559339522E+03 -0.18622876403E+01  0.17085997580E+03  0.88303451981E+02 0.  0.
          5    1    3    3  502    0 -0.74186504891E+02 -0.15014373700E+03 -0.19118514232E+03  0.25420587702E+03  0.47000000000E+01 0. -1.
         -5    1    3    3    0  502  0.19354080576E+02  0.14550341780E+02 -0.23366373758E+02  0.33976025421E+02  0.47000000000E+01 0. -1.
          5    1    4    4  503    0  0.65074748870E+02  0.88273006460E+02 -0.31121929506E+02  0.11409430795E+03  0.47000000000E+01 0. -1.
         -5    1    4    4    0  503 -0.10242324554E+02  0.47320388759E+02  0.29259641866E+02  0.56765667852E+02  0.47000000000E+01 0.  1.
<mgrwt>
<rscale>  0 0.18676767E+03</rscale>
<asrwt>0</asrwt>
<pdfrwt beam="1">  1        1 0.51958129E-01 0.19239661E+03</pdfrwt>
<pdfrwt beam="2">  1       -1 0.18663698E-01 0.19239661E+03</pdfrwt>
<totfact> 0.16868004E+03</totfact>
</mgrwt>
</event>
<event>
 8    1  0.3407580E-004  0.1387103E+03  0.7546771E-02  0.1227744E+00
         -1   -1    0    0    0  501 -0.00000000000E+00  0.00000000000E+00  0.37550304171E+03  0.37550304171E+03  0.00000000000E+00 0.  1.
          1   -1    0    0  501    0  0.00000000000E+00 -0.00000000000E+00 -0.43465485556E+02  0.43465485556E+02  0.00000000000E+00 0. -1.
         25    2    1    2    0    0  0.46158258636E+02 -0.38467561502E+02  0.12742738418E+03  0.18835684004E+03  0.12502088954E+03 0.  0.
         23    2    1    2    0    0 -0.46158258636E+02  0.38467561502E+02  0.20461017197E+03  0.23061168723E+03  0.87784336214E+02 0.  0.
          5    1    4    4  502    0 -0.66644949983E+01  0.57207311472E+02  0.81666088385E+02  0.10004265076E+03  0.47000000000E+01 0. -1.
         -5    1    4    4    0  502 -0.39493763638E+02 -0.18739749970E+02  0.12294408359E+03  0.13056903647E+03  0.47000000000E+01 0.  1.
          5    1    3    3  503    0 -0.97273708029E+01 -0.70782415179E+02  0.49462090163E+02  0.87025056189E+02  0.47000000000E+01 0.  1.
         -5    1    3    3    0  503  0.55885629439E+02  0.32314853677E+02  0.77965294020E+02  0.10133178385E+03  0.47000000000E+01 0.  1.
<mgrwt>
<rscale>  0 0.12980616E+03</rscale>
<asrwt>0</asrwt>
<pdfrwt beam="1">  1        1 0.66869980E-02 0.13871035E+03</pdfrwt>
<pdfrwt beam="2">  1       -1 0.57769697E-01 0.13871035E+03</pdfrwt>
<totfact> 0.33494141E+03</totfact>
</mgrwt>
</event>
<event>
 8    1  0.3407580E-004  0.1324098E+03  0.7546771E-02  0.1237493E+00
         -1   -1    0    0    0  501 -0.00000000000E+00  0.00000000000E+00  0.12766453182E+02  0.12766453182E+02  0.00000000000E+00 0.  1.
          1   -1    0    0  501    0  0.00000000000E+00 -0.00000000000E+00 -0.11964474701E+04  0.11964474701E+04  0.00000000000E+00 0. -1.
         25    2    1    2    0    0  0.37955003311E+02  0.21544367452E+02 -0.46111838280E+03  0.47975257141E+03  0.12501049867E+03 0.  0.
         23    2    1    2    0    0 -0.37955003311E+02 -0.21544367452E+02 -0.72256263410E+03  0.72946135185E+03  0.90068649364E+02 0.  0.
          5    1    4    4  502    0  0.21166611466E+02 -0.32892645619E+02 -0.25791165417E+03  0.26090316773E+03  0.47000000000E+01 0. -1.
         -5    1    3    3    0  503  0.54403275718E+02  0.40196832816E+02 -0.44411697295E+03  0.44926326072E+03  0.47000000000E+01 0.  1.
          5    1    3    3  503    0 -0.16448272407E+02 -0.18652465365E+02 -0.17001409852E+02  0.30489310689E+02  0.47000000000E+01 0.  1.
         -5    1    4    4    0  502 -0.59121614777E+02  0.11348278167E+02 -0.46465097993E+03  0.46855818412E+03  0.47000000000E+01 0.  1.
<mgrwt>
<rscale>  0 0.12346191E+03</rscale>
<asrwt>0</asrwt>
<pdfrwt beam="1">  1        1 0.18406890E+00 0.13240984E+03</pdfrwt>
<pdfrwt beam="2">  1       -1 0.19640691E-02 0.13240984E+03</pdfrwt>
<totfact> 0.78713589E+03</totfact>
</mgrwt>
</event>
<event>
 8    1  0.3407580E-004  0.1263126E+03  0.7546771E-02  0.1246874E+00
          1   -1    0    0  501    0  0.00000000000E+00  0.00000000000E+00  0.53390534870E+03  0.53390534870E+03  0.00000000000E+00 0. -1.
         -1   -1    0    0    0  501 -0.00000000000E+00 -0.00000000000E+00 -0.23719913192E+02  0.23719913192E+02  0.00000000000E+00 0.  1.
         25    2    1    2    0    0 -0.16730257093E+02 -0.70708314361E+01  0.33749630790E+03  0.36035902647E+03  0.12499988779E+03 0.  0.
         23    2    1    2    0    0  0.16730257093E+02  0.70708314361E+01  0.17268912761E+03  0.19726623542E+03  0.93608411406E+02 0.  0.
          5    1    3    3  502    0  0.16186588560E+02 -0.27932210652E+02  0.15749067007E+02  0.36226194290E+02  0.47000000000E+01 0.  1.
         -5    1    4    4    0  503 -0.12428484330E+02 -0.26947721630E+02  0.15618575202E+02  0.33862616780E+02  0.47000000000E+01 0.  1.
          5    1    4    4  503    0  0.29158741423E+02  0.34018553067E+02  0.15707055240E+03  0.16340361864E+03  0.47000000000E+01 0. -1.
         -5    1    3    3    0  502 -0.32916845654E+02  0.20861379216E+02  0.32174724090E+03  0.32413283218E+03  0.47000000000E+01 0.  1.
<mgrwt>
<rscale>  0 0.11773890E+03</rscale>
<asrwt>0</asrwt>
<pdfrwt beam="1">  1        1 0.82139275E-01 0.12631259E+03</pdfrwt>
<pdfrwt beam="2">  1       -1 0.36492178E-02 0.12631259E+03</pdfrwt>
<totfact> 0.11031885E+04</totfact>
</mgrwt>
</event>
<event>
 8    1  0.3407580E-004  0.1649990E+03  0.7546771E-02  0.1191985E+00
          1   -1    0    0  501    0  0.00000000000E+00  0.00000000000E+00  0.16921897460E+04  0.16921897460E+04  0.00000000000E+00 0. -1.
         -1   -1    0    0    0  501 -0.00000000000E+00 -0.00000000000E+00 -0.13356914083E+02  0.13356914083E+02  0.00000000000E+00 0.  1.
         25    2    1    2    0    0  0.13771828414E+02 -0.10682829809E+03  0.92754368410E+03  0.94210506820E+03  0.12499090001E+03 0.  0.
         23    2    1    2    0    0 -0.13771828414E+02  0.10682829809E+03  0.75128914784E+03  0.76344159191E+03  0.82496860909E+02 0.  0.
          5    1    4    4  502    0  0.21614481162E+02  0.57216331964E+02  0.21189621035E+03  0.22059689119E+03  0.47000000000E+01 0. -1.
         -5    1    3    3    0  503  0.52106625104E+02 -0.11398720979E+03  0.72962531732E+03  0.74032653474E+03  0.47000000000E+01 0.  1.
          5    1    3    3  503    0 -0.38334796690E+02  0.71589117053E+01  0.19791836679E+03  0.20177853346E+03  0.47000000000E+01 0.  1.
         -5    1    4    4    0  502 -0.35386309576E+02  0.49611966121E+02  0.53939293749E+03  0.54284470072E+03  0.47000000000E+01 0.  1.
<mgrwt>
<rscale>  0 0.15712160E+03</rscale>
<asrwt>0</asrwt>
<pdfrwt beam="1">  1        1 0.26033671E+00 0.16499901E+03</pdfrwt>
<pdfrwt beam="2">  1       -1 0.20549112E-02 0.16499901E+03</pdfrwt>
<totfact> 0.35044331E+03</totfact>
</mgrwt>
</event>
<event>
 8    1  0.3407580E-004  0.1881038E+03  0.7546771E-02  0.1165040E+00
         -1   -1    0    0    0  501 -0.00000000000E+00  0.00000000000E+00  0.84494423712E+02  0.84494423712E+02  0.00000000000E+00 0.  1.
          1   -1    0    0  501    0  0.00000000000E+00 -0.00000000000E+00 -0.41524350789E+03  0.41524350789E+03  0.00000000000E+00 0. -1.
         25    2    1    2    0    0 -0.51693212824E+01 -0.14046712188E+03 -0.25109692003E+03  0.31373985573E+03  0.12500119843E+03 0.  0.
         23    2    1    2    0    0  0.51693212824E+01  0.14046712188E+03 -0.79652164143E+02  0.18599807587E+03  0.92157922959E+02 0.  0.
          5    1    3    3  502    0 -0.49199533656E+02 -0.12646201091E+03 -0.21756894793E+03  0.25645968771E+03  0.47000000000E+01 0. -1.
         -5    1    4    4    0  503 -0.18029548001E+01  0.11153258682E+03 -0.12435240462E+02  0.11233652021E+03  0.47000000000E+01 0.  1.
          5    1    4    4  503    0  0.69722760825E+01  0.28934535061E+02 -0.67216923681E+02  0.73661555659E+02  0.47000000000E+01 0. -1.
         -5    1    3    3    0  502  0.44030212373E+02 -0.14005110967E+02 -0.33527972100E+02  0.57280168016E+02  0.47000000000E+01 0. -1.
<mgrwt>
<rscale>  0 0.18288455E+03</rscale>
<asrwt>0</asrwt>
<pdfrwt beam="1">  1        1 0.63883617E-01 0.18810378E+03</pdfrwt>
<pdfrwt beam="2">  1       -1 0.12999142E-01 0.18810378E+03</pdfrwt>
<totfact> 0.23016842E+03</totfact>
</mgrwt>
</event>
<event>
 8    1  0.3407580E-004  0.2013928E+03  0.7546771E-02  0.1153017E+00
         -4   -1    0    0    0  501 -0.00000000000E+00  0.00000000000E+00  0.25744223715E+03  0.25744223715E+03  0.00000000000E+00 0.  1.
          4   -1    0    0  501    0  0.00000000000E+00 -0.00000000000E+00 -0.14220355177E+03  0.14220355177E+03  0.00000000000E+00 0. -1.
         25    2    1    2    0    0  0.15775057705E+03  0.69863685727E+01  0.61566250060E+02  0.21059315234E+03  0.12500007504E+03 0.  0.
         23    2    1    2    0    0 -0.15775057705E+03 -0.69863685727E+01  0.53672435323E+02  0.18905263659E+03  0.89028732340E+02 0.  0.
          5    1    3    3  502    0  0.10251026131E+03  0.45005819402E+02 -0.98860291330E+01  0.11248867065E+03  0.47000000000E+01 0.  1.
         -5    1    4    4    0  503 -0.15985015453E+03  0.12988568773E+02  0.44684630658E+02  0.16655203703E+03  0.47000000000E+01 0.  1.
          5    1    4    4  503    0  0.20995774851E+01 -0.19974937345E+02  0.89878046643E+01  0.22500599553E+02  0.47000000000E+01 0. -1.
         -5    1    3    3    0  502  0.55240315740E+02 -0.38019450829E+02  0.71452279193E+02  0.98104481683E+02  0.47000000000E+01 0.  1.
<mgrwt>
<rscale>  0 0.19616284E+03</rscale>
<asrwt>0</asrwt>
<pdfrwt beam="1">  1        4 0.21877470E-01 0.20139283E+03</pdfrwt>
<pdfrwt beam="2">  1       -4 0.39606498E-01 0.20139283E+03</pdfrwt>
<totfact> 0.21152822E+02</totfact>
</mgrwt>
</event>
<event>
 8    1  0.3407580E-004  0.1552087E+03  0.7546771E-02  0.1203116E+00
         -2   -1    0    0    0  501 -0.00000000000E+00  0.00000000000E+00  0.60124595050E+03  0.60124595050E+03  0.00000000000E+00 0.  1.
          2   -1    0    0  501    0  0.00000000000E+00 -0.00000000000E+00 -0.34612822927E+02  0.34612822927E+02  0.00000000000E+00 0. -1.
         25    2    1    2    0    0 -0.91965735375E+02 -0.53720527043E+00  0.37084769947E+03  0.40201709952E+03  0.12502698522E+03 0.  0.
         23    2    1    2    0    0  0.91965735375E+02  0.53720527043E+00  0.19578542811E+03  0.23384167391E+03  0.88836982871E+02 0.  0.
          5    1    3    3  502    0 -0.73499605773E+02 -0.58511416456E+02  0.21713499714E+03  0.23663363008E+03  0.47000000000E+01 0. -1.
         -5    1    4    4    0  503  0.54705363058E+02  0.60879011813E+01  0.18684345672E+03  0.19483918139E+03  0.47000000000E+01 0.  1.
          5    1    4    4  503    0  0.37260372317E+02 -0.55506959109E+01  0.89419713916E+01  0.39002492518E+02  0.47000000000E+01 0. -1.
         -5    1    3    3    0  502 -0.18466129602E+02  0.57974211186E+02  0.15371270233E+03  0.16538346944E+03  0.47000000000E+01 0. -1.
<mgrwt>
<rscale>  0 0.14786885E+03</rscale>
<asrwt>0</asrwt>
<pdfrwt beam="1">  1        2 0.53250501E-02 0.15520867E+03</pdfrwt>
<pdfrwt beam="2">  1       -2 0.92499369E-01 0.15520867E+03</pdfrwt>
<totfact> 0.14449413E+03</totfact>
</mgrwt>
</event>
<event>
 8    1  0.3407580E-004  0.1377412E+03  0.7546771E-02  0.1226688E+00
         -3   -1    0    0    0  501 -0.00000000000E+00  0.00000000000E+00  0.81334257131E+02  0.81334257131E+02  0.00000000000E+00 0. -1.
          3   -1    0    0  501    0  0.00000000000E+00 -0.00000000000E+00 -0.19491189080E+03  0.19491189080E+03  0.00000000000E+00 0.  1.
         25    2    1    2    0    0  0.12158412540E+02 -0.56555340424E+02 -0.41493626769E+02  0.14385535436E+03  0.12500523345E+03 0.  0.
         23    2    1    2    0    0 -0.12158412540E+02  0.56555340424E+02 -0.72084006896E+02  0.13239079357E+03  0.94788631417E+02 0.  0.
          5    1    3    3  502    0  0.22862052245E+02 -0.71596887025E+01 -0.77739384988E+02  0.81482737764E+02  0.47000000000E+01 0.  1.
         -5    1    3    3    0  502 -0.10703639705E+02 -0.49395651721E+02  0.36245758219E+02  0.62372616594E+02  0.47000000000E+01 0.  1.
          5    1    4    4  503    0 -0.46612932519E+02  0.18862408830E+02 -0.93486705693E+01  0.51361888461E+02  0.47000000000E+01 0. -1.
         -5    1    4    4    0  503  0.34454519978E+02  0.37692931594E+02 -0.62735336327E+02  0.81028905109E+02  0.47000000000E+01 0.  1.
<mgrwt>
<rscale>  0 0.13051898E+03</rscale>
<asrwt>0</asrwt>
<pdfrwt beam="1">  1        3 0.29986445E-01 0.13774121E+03</pdfrwt>
<pdfrwt beam="2">  1       -3 0.12512963E-01 0.13774121E+03</pdfrwt>
<totfact> 0.12548176E+03</totfact>
</mgrwt>
</event>
<event>
 8    1  0.3407580E-004  0.1404719E+03  0.7546771E-02  0.1223253E+00
         -2   -1    0    0    0  501 -0.00000000000E+00  0.00000000000E+00  0.81977190957E+02  0.81977190957E+02  0.00000000000E+00 0. -1.
          2   -1    0    0  501    0  0.00000000000E+00 -0.00000000000E+00 -0.24167577080E+03  0.24167577080E+03  0.00000000000E+00 0.  1.
         25    2    1    2    0    0  0.50608351281E+02  0.39293652849E+02 -0.16296371096E+02  0.14141404002E+03  0.12500865022E+03 0.  0.
         23    2    1    2    0    0 -0.50608351281E+02 -0.39293652849E+02 -0.14340220875E+03  0.18223892174E+03  0.92420964874E+02 0.  0.
          5    1    3    3  502    0 -0.35833086294E+02 -0.13677203075E+02 -0.10876298803E+00  0.38641658695E+02  0.47000000000E+01 0. -1.
         -5    1    4    4    0  503 -0.40130489342E+02 -0.58299504839E+02 -0.14345451778E+03  0.16003305006E+03  0.47000000000E+01 0.  1.
          5    1    4    4  503    0 -0.10477861939E+02  0.19005851990E+02  0.52309033571E-01  0.22205871677E+02  0.47000000000E+01 0. -1.
         -5    1    3    3    0  502  0.86441437575E+02  0.52970855924E+02 -0.16187608108E+02  0.10277238133E+03  0.47000000000E+01 0. -1.
<mgrwt>
<rscale>  0 0.13287395E+03</rscale>
<asrwt>0</asrwt>
<pdfrwt beam="1">  1        2 0.37180887E-01 0.14047192E+03</pdfrwt>
<pdfrwt beam="2">  1       -2 0.12611876E-01 0.14047192E+03</pdfrwt>
<totfact> 0.60306376E+03</totfact>
</mgrwt>
</event>
<event>
 8    1  0.3407580E-004  0.2115489E+03  0.7546771E-02  0.1144610E+00
          2   -1    0    0  501    0  0.00000000000E+00  0.00000000000E+00  0.10609010030E+04  0.10609010030E+04  0.00000000000E+00 0. -1.
         -2   -1    0    0    0  501 -0.00000000000E+00 -0.00000000000E+00 -0.39348317381E+02  0.39348317381E+02  0.00000000000E+00 0.  1.
         25    2    1    2    0    0  0.16850770378E+03 -0.27040701472E+02  0.44135102521E+03  0.48943198207E+03  0.12500756716E+03 0.  0.
         23    2    1    2    0    0 -0.16850770378E+03  0.27040701472E+02  0.58020166036E+03  0.61081733827E+03  0.85661007881E+02 0.  0.
          5    1    4    4  502    0 -0.15124726457E+03 -0.80228380703E+01  0.46660428857E+03  0.49059326645E+03  0.47000000000E+01 0. -1.
         -5    1    3    3    0  503  0.13479224477E+03  0.35987523669E+02  0.27866729613E+03  0.31167547713E+03  0.47000000000E+01 0.  1.
          5    1    3    3  503    0  0.33715459008E+02 -0.63028225142E+02  0.16268372908E+03  0.17775650494E+03  0.47000000000E+01 0.  1.
         -5    1    4    4    0  502 -0.17260439209E+02  0.35063539543E+02  0.11359737179E+03  0.12022407182E+03  0.47000000000E+01 0.  1.
<mgrwt>
<rscale>  0 0.20620106E+03</rscale>
<asrwt>0</asrwt>
<pdfrwt beam="1">  1        2 0.16321552E+00 0.21154890E+03</pdfrwt>
<pdfrwt beam="2">  1       -2 0.60535881E-02 0.21154890E+03</pdfrwt>
<totfact> 0.34977804E+03</totfact>
</mgrwt>
</event>
<event>
 8    1  0.3407580E-004  0.2264044E+03  0.7546771E-02  0.1132199E+00
         -2   -1    0    0    0  501 -0.00000000000E+00  0.00000000000E+00  0.15084041616E+03  0.15084041616E+03  0.00000000000E+00 0.  1.
          2   -1    0    0  501    0  0.00000000000E+00 -0.00000000000E+00 -0.60878418005E+03  0.60878418005E+03  0.00000000000E+00 0. -1.
         25    2    1    2    0    0  0.62767907174E+02  0.17802955241E+03  0.29901098314E+02  0.22837032510E+03  0.12499839200E+03 0.  0.
         23    2    1    2    0    0 -0.62767907174E+02 -0.17802955241E+03 -0.48784486220E+03  0.53125427111E+03  0.92758607682E+02 0.  0.
          5    1    3    3  502    0  0.22091163582E+02  0.12511492602E+03 -0.38348636578E+02  0.13279484985E+03  0.47000000000E+01 0.  1.
         -5    1    3    3    0  502  0.40676743592E+02  0.52914626394E+02  0.68249734892E+02  0.95575475246E+02  0.47000000000E+01 0.  1.
          5    1    4    4  503    0 -0.39037775754E+02 -0.50111141044E+02 -0.27053717580E+03  0.27793439492E+03  0.47000000000E+01 0. -1.
         -5    1    4    4    0  503 -0.23730131420E+02 -0.12791841137E+03 -0.21730768640E+03  0.25331987619E+03  0.47000000000E+01 0.  1.
<mgrwt>
<rscale>  0 0.22227397E+03</rscale>
<asrwt>0</asrwt>
<pdfrwt beam="1">  1        2 0.93659102E-01 0.22640435E+03</pdfrwt>
<pdfrwt beam="2">  1       -2 0.23206219E-01 0.22640435E+03</pdfrwt>
<totfact> 0.80722839E+02</totfact>
</mgrwt>
</event>
<event>
 8    1  0.3407580E-004  0.1453985E+03  0.7546771E-02  0.1216146E+00
         -1   -1    0    0    0  501 -0.00000000000E+00  0.00000000000E+00  0.24368558963E+02  0.24368558963E+02  0.00000000000E+00 0.  1.
          1   -1    0    0  501    0  0.00000000000E+00 -0.00000000000E+00 -0.72144540490E+03  0.72144540490E+03  0.00000000000E+00 0. -1.
         25    2    1    2    0    0 -0.17765010233E+02 -0.72112903505E+02 -0.43061499881E+03  0.45449971527E+03  0.12499939014E+03 0.  0.
         23    2    1    2    0    0  0.17765010233E+02  0.72112903505E+02 -0.26646184712E+03  0.29131424860E+03  0.91357588742E+02 0.  0.
          5    1    3    3  502    0 -0.42858855879E+02 -0.96800466886E+02 -0.27100317611E+03  0.29098457584E+03  0.47000000000E+01 0.  1.
         -5    1    3    3    0  502  0.25093845646E+02  0.24687563380E+02 -0.15961182271E+03  0.16351513943E+03  0.47000000000E+01 0.  1.
          5    1    4    4  503    0 -0.16560726752E+02  0.79382154648E+02 -0.16622258812E+03  0.18500762943E+03  0.47000000000E+01 0. -1.
         -5    1    4    4    0  503  0.34325736985E+02 -0.72692511432E+01 -0.10023925901E+03  0.10630661916E+03  0.47000000000E+01 0.  1.
<mgrwt>
<rscale>  0 0.13792672E+03</rscale>
<asrwt>0</asrwt>
<pdfrwt beam="1">  1        1 0.11099160E+00 0.14539847E+03</pdfrwt>
<pdfrwt beam="2">  1       -1 0.37490092E-02 0.14539847E+03</pdfrwt>
<totfact> 0.70678116E+03</totfact>
</mgrwt>
</event>
<event>
 8    1  0.3407580E-004  0.1428872E+03  0.7546771E-02  0.1221217E+00
          1   -1    0    0  501    0  0.00000000000E+00  0.00000000000E+00  0.38985441617E+03  0.38985441617E+03  0.00000000000E+00 0. -1.
         -1   -1    0    0    0  501 -0.00000000000E+00 -0.00000000000E+00 -0.41587575218E+02  0.41587575218E+02  0.00000000000E+00 0.  1.
         25    2    1    2    0    0  0.47421337200E+02  0.50416370478E+02  0.18562389312E+03  0.23424983664E+03  0.12500465046E+03 0.  0.
         23    2    1    2    0    0 -0.47421337200E+02 -0.50416370478E+02  0.16264294783E+03  0.19719215474E+03  0.87415237684E+02 0.  0.
          5    1    3    3  502    0 -0.40892236556E+02  0.24737497129E+02  0.86586780405E+02  0.99012521005E+02  0.47000000000E+01 0.  1.
         -5    1    4    4    0  503 -0.39594594844E+02 -0.71301908020E+02  0.92358428059E+02  0.12330394666E+03  0.47000000000E+01 0.  1.
          5    1    4    4  503    0 -0.78267423554E+01  0.20885537542E+02  0.70284519774E+02  0.73888208086E+02  0.47000000000E+01 0. -1.
         -5    1    3    3    0  502  0.88313573756E+02  0.25678873349E+02  0.99037112714E+02  0.13523731564E+03  0.47000000000E+01 0.  1.
<mgrwt>
<rscale>  0 0.13429589E+03</rscale>
<asrwt>0</asrwt>
<pdfrwt beam="1">  1        1 0.59977600E-01 0.14288722E+03</pdfrwt>
<pdfrwt beam="2">  1       -1 0.63980888E-02 0.14288722E+03</pdfrwt>
<totfact> 0.72689317E+03</totfact>
</mgrwt>
</event>
<event>
 8    1  0.3407580E-004  0.1499420E+03  0.7546771E-02  0.1209634E+00
          1   -1    0    0  501    0  0.00000000000E+00  0.00000000000E+00  0.37054185402E+02  0.37054185402E+02  0.00000000000E+00 0. -1.
         -1   -1    0    0    0  501 -0.00000000000E+00 -0.00000000000E+00 -0.50369967189E+03  0.50369967189E+03  0.00000000000E+00 0.  1.
         25    2    1    2    0    0  0.11579651134E+02  0.81999302442E+02 -0.25763430927E+03  0.29809063353E+03  0.12499845823E+03 0.  0.
         23    2    1    2    0    0 -0.11579651134E+02 -0.81999302442E+02 -0.20901117722E+03  0.24266322377E+03  0.91333422398E+02 0.  0.
          5    1    3    3  502    0  0.27752380774E+02 -0.24401399907E+02 -0.36704760289E+02  0.52296772213E+02  0.47000000000E+01 0.  1.
         -5    1    4    4    0  503  0.25348929610E+02 -0.18365313482E+02 -0.13322663853E+03  0.13693531388E+03  0.47000000000E+01 0.  1.
          5    1    4    4  503    0 -0.36928580744E+02 -0.63633988960E+02 -0.75784538686E+02  0.10572790989E+03  0.47000000000E+01 0. -1.
         -5    1    3    3    0  502 -0.16172729640E+02  0.10640070235E+03 -0.22092954899E+03  0.24579386131E+03  0.47000000000E+01 0.  1.
<mgrwt>
<rscale>  0 0.14278152E+03</rscale>
<asrwt>0</asrwt>
<pdfrwt beam="1">  1        1 0.57006439E-02 0.14994195E+03</pdfrwt>
<pdfrwt beam="2">  1       -1 0.77492257E-01 0.14994195E+03</pdfrwt>
<totfact> 0.23524466E+03</totfact>
</mgrwt>
</event>
<event>
 8    1  0.3407580E-004  0.1597059E+03  0.7546771E-02  0.1196227E+00
         -2   -1    0    0    0  501 -0.00000000000E+00  0.00000000000E+00  0.75010809921E+02  0.75010809921E+02  0.00000000000E+00 0.  1.
          2   -1    0    0  501    0  0.00000000000E+00 -0.00000000000E+00 -0.34609813439E+03  0.34609813439E+03  0.00000000000E+00 0. -1.
         25    2    1    2    0    0  0.95304112652E+02  0.28248600209E+02 -0.22755395431E+03  0.27800499075E+03  0.12500046184E+03 0.  0.
         23    2    1    2    0    0 -0.95304112652E+02 -0.28248600209E+02 -0.43533370156E+02  0.14310395355E+03  0.93288423200E+02 0.  0.
          5    1    4    4  502    0 -0.68339247463E+02  0.22498160747E+02 -0.45772290674E+02  0.85402649692E+02  0.47000000000E+01 0. -1.
         -5    1    4    4    0  502 -0.26964865189E+02 -0.50746760956E+02  0.22389205178E+01  0.57701303861E+02  0.47000000000E+01 0.  1.
          5    1    3    3  503    0  0.80035751415E+02  0.72481345488E+02 -0.12542535307E+03  0.16556834281E+03  0.47000000000E+01 0.  1.
         -5    1    3    3    0  503  0.15268361237E+02 -0.44232745279E+02 -0.10212860124E+03  0.11243664794E+03  0.47000000000E+01 0.  1.
<mgrwt>
<rscale>  0 0.15350831E+03</rscale>
<asrwt>0</asrwt>
<pdfrwt beam="1">  1        2 0.53245867E-01 0.15970589E+03</pdfrwt>
<pdfrwt beam="2">  1       -2 0.11540125E-01 0.15970589E+03</pdfrwt>
<totfact> 0.47783575E+03</totfact>
</mgrwt>
</event>
<event>
 8    1  0.3407580E-004  0.1888283E+03  0.7546771E-02  0.1164551E+00
          3   -1    0    0  501    0  0.00000000000E+00  0.00000000000E+00  0.34817688822E+03  0.34817688822E+03  0.00000000000E+00 0. -1.
         -3   -1    0    0    0  501 -0.00000000000E+00 -0.00000000000E+00 -0.91444339025E+02  0.91444339025E+02  0.00000000000E+00 0.  1.
         25    2    1    2    0    0 -0.49067172236E+02 -0.13275831217E+03  0.13672731565E+03  0.23313193265E+03  0.12499512924E+03 0.  0.
         23    2    1    2    0    0  0.49067172236E+02  0.13275831217E+03  0.12000523355E+03  0.20648929460E+03  0.90577126603E+02 0.  0.
          5    1    4    4  502    0  0.20484943545E+02  0.42193900767E+00  0.49482737810E+02  0.53762833684E+02  0.47000000000E+01 0. -1.
         -5    1    3    3    0  503  0.10020864508E+02 -0.11289576975E+03  0.44801302122E+02  0.12196359795E+03  0.47000000000E+01 0. -1.
          5    1    3    3  503    0 -0.59088036744E+02 -0.19862542424E+02  0.91926013524E+02  0.11116833470E+03  0.47000000000E+01 0. -1.
         -5    1    4    4    0  502  0.28582228691E+02  0.13233637316E+03  0.70522495744E+02  0.15272646092E+03  0.47000000000E+01 0.  1.
<mgrwt>
<rscale>  0 0.18340107E+03</rscale>
<asrwt>0</asrwt>
<pdfrwt beam="1">  1        3 0.53565674E-01 0.18882833E+03</pdfrwt>
<pdfrwt beam="2">  1       -3 0.14068360E-01 0.18882833E+03</pdfrwt>
<totfact> 0.34961794E+02</totfact>
</mgrwt>
</event>
<event>
 8    1  0.3407580E-004  0.2798888E+03  0.7546771E-02  0.1097112E+00
          1   -1    0    0  501    0  0.00000000000E+00  0.00000000000E+00  0.15523341751E+04  0.15523341751E+04  0.00000000000E+00 0. -1.
         -1   -1    0    0    0  501 -0.00000000000E+00 -0.00000000000E+00 -0.56119061403E+02  0.56119061403E+02  0.00000000000E+00 0.  1.
         25    2    1    2    0    0 -0.24470708455E+03 -0.53205526715E+02  0.10517194786E+04  0.10883251257E+04  0.12500132972E+03 0.  0.
         23    2    1    2    0    0  0.24470708455E+03  0.53205526715E+02  0.44449563514E+03  0.52012811076E+03  0.10121510089E+03 0.  0.
          5    1    3    3  502    0 -0.18712236402E+03  0.12765538011E+02  0.80208658187E+03  0.82373704111E+03  0.47000000000E+01 0. -1.
         -5    1    4    4    0  503  0.20923968958E+03  0.66337212421E+02  0.30687413324E+03  0.37732704263E+03  0.47000000000E+01 0.  1.
          5    1    4    4  503    0  0.35467394965E+02 -0.13131685706E+02  0.13762150189E+03  0.14280106813E+03  0.47000000000E+01 0. -1.
         -5    1    3    3    0  502 -0.57584720532E+02 -0.65971064726E+02  0.24963289670E+03  0.26458808464E+03  0.47000000000E+01 0. -1.
<mgrwt>
<rscale>  0 0.27741017E+03</rscale>
<asrwt>0</asrwt>
<pdfrwt beam="1">  1        1 0.23882061E+00 0.27988876E+03</pdfrwt>
<pdfrwt beam="2">  1       -1 0.86337029E-02 0.27988876E+03</pdfrwt>
<totfact> 0.50619597E+02</totfact>
</mgrwt>
</event>
<event>
 8    1  0.3407580E-004  0.1253940E+03  0.7546771E-02  0.1250163E+00
         -1   -1    0    0    0  501 -0.00000000000E+00  0.00000000000E+00  0.10818468065E+02  0.10818468065E+02  0.00000000000E+00 0.  1.
          1   -1    0    0  501    0  0.00000000000E+00 -0.00000000000E+00 -0.11920953925E+04  0.11920953925E+04  0.00000000000E+00 0. -1.
         25    2    1    2    0    0 -0.93837154478E+01 -0.32860009622E+01 -0.49678229087E+03  0.51236345019E+03  0.12499923459E+03 0.  0.
         23    2    1    2    0    0  0.93837154478E+01  0.32860009622E+01 -0.68449463358E+03  0.69055041039E+03  0.90708952022E+02 0.  0.
          5    1    3    3  502    0  0.77531256071E+01 -0.59695516224E+02 -0.32820030657E+03  0.33370825109E+03  0.47000000000E+01 0.  1.
         -5    1    4    4    0  503 -0.26313769751E+02 -0.29374710318E+02 -0.22366066549E+03  0.22715957249E+03  0.47000000000E+01 0.  1.
          5    1    4    4  503    0  0.35697485198E+02  0.32660711280E+02 -0.46083396808E+03  0.46339083790E+03  0.47000000000E+01 0. -1.
         -5    1    3    3    0  502 -0.17136841055E+02  0.56409515262E+02 -0.16858198430E+03  0.17865519910E+03  0.47000000000E+01 0.  1.
<mgrwt>
<rscale>  0 0.11581598E+03</rscale>
<asrwt>0</asrwt>
<pdfrwt beam="1">  1        1 0.18339929E+00 0.12539402E+03</pdfrwt>
<pdfrwt beam="2">  1       -1 0.16643797E-02 0.12539402E+03</pdfrwt>
<totfact> 0.10026993E+04</totfact>
</mgrwt>
</event>
<event>
 8    1  0.3407580E-004  0.2013716E+03  0.7546771E-02  0.1152229E+00
          1   -1    0    0  501    0  0.00000000000E+00  0.00000000000E+00  0.12230735538E+03  0.12230735538E+03  0.00000000000E+00 0. -1.
         -1   -1    0    0    0  501 -0.00000000000E+00 -0.00000000000E+00 -0.34064816946E+03  0.34064816946E+03  0.00000000000E+00 0.  1.
         25    2    1    2    0    0 -0.15078096887E+03  0.46792373185E+02 -0.38266559564E+02  0.20497525872E+03  0.12500440130E+03 0.  0.
         23    2    1    2    0    0  0.15078096887E+03 -0.46792373185E+02 -0.18007425451E+03  0.25798026613E+03  0.95930463418E+02 0.  0.
          5    1    4    4  502    0  0.82231061074E+02 -0.10939346799E+02 -0.28675993047E+02  0.87897777509E+02  0.47000000000E+01 0. -1.
         -5    1    3    3    0  503 -0.11774505006E+03 -0.66715437244E+01  0.19328104469E+02  0.11959963182E+03  0.47000000000E+01 0. -1.
          5    1    3    3  503    0 -0.33035918806E+02  0.53463916910E+02 -0.57594664033E+02  0.85375626895E+02  0.47000000000E+01 0. -1.
         -5    1    4    4    0  502  0.68549907795E+02 -0.35853026386E+02 -0.15139826147E+03  0.17008248862E+03  0.47000000000E+01 0.  1.
<mgrwt>
<rscale>  0 0.19707706E+03</rscale>
<asrwt>0</asrwt>
<pdfrwt beam="1">  1        1 0.18816516E-01 0.20137161E+03</pdfrwt>
<pdfrwt beam="2">  1       -1 0.52407411E-01 0.20137161E+03</pdfrwt>
<totfact> 0.10356987E+03</totfact>
</mgrwt>
</event>
<event>
 8    1  0.3407580E-004  0.1575588E+03  0.7546771E-02  0.1199968E+00
          2   -1    0    0  501    0  0.00000000000E+00  0.00000000000E+00  0.10637553737E+03  0.10637553737E+03  0.00000000000E+00 0. -1.
         -2   -1    0    0    0  501 -0.00000000000E+00 -0.00000000000E+00 -0.22981854697E+03  0.22981854697E+03  0.00000000000E+00 0.  1.
         25    2    1    2    0    0 -0.23168162922E+02  0.93072176226E+02 -0.18565876430E+01  0.15756970645E+03  0.12500228682E+03 0.  0.
         23    2    1    2    0    0  0.23168162922E+02 -0.93072176226E+02 -0.12158642195E+03  0.17862437790E+03  0.89018069038E+02 0.  0.
          5    1    3    3  502    0  0.42361963235E+02  0.67453569312E+02  0.22604175209E+02  0.82931047738E+02  0.47000000000E+01 0. -1.
         -5    1    3    3    0  502 -0.65530126158E+02  0.25618606914E+02 -0.24460762852E+02  0.74638658708E+02  0.47000000000E+01 0. -1.
          5    1    4    4  503    0 -0.13239552635E+02 -0.91475632018E+02 -0.98860132610E+02  0.13541969143E+03  0.47000000000E+01 0. -1.
         -5    1    4    4    0  503  0.36407715557E+02 -0.15965442079E+01 -0.22726289343E+02  0.43204686468E+02  0.47000000000E+01 0.  1.
<mgrwt>
<rscale>  0 0.15041139E+03</rscale>
<asrwt>0</asrwt>
<pdfrwt beam="1">  1        2 0.16365467E-01 0.15755877E+03</pdfrwt>
<pdfrwt beam="2">  1       -2 0.35356699E-01 0.15755877E+03</pdfrwt>
<totfact> 0.25748633E+03</totfact>
</mgrwt>
</event>
<event>
 8    1  0.3407580E-004  0.1637667E+03  0.7546771E-02  0.1192037E+00
          1   -1    0    0  501    0  0.00000000000E+00  0.00000000000E+00  0.68967015897E+03  0.68967015897E+03  0.00000000000E+00 0. -1.
         -1   -1    0    0    0  501 -0.00000000000E+00 -0.00000000000E+00 -0.45600989543E+02  0.45600989543E+02  0.00000000000E+00 0.  1.
         25    2    1    2    0    0  0.55264682266E+02  0.90225151256E+02  0.14983153886E+03  0.22196625821E+03  0.12499906688E+03 0.  0.
         23    2    1    2    0    0 -0.55264682266E+02 -0.90225151256E+02  0.49423763057E+03  0.51330489030E+03  0.89533859048E+02 0.  0.
          5    1    3    3  502    0  0.70275438003E+01  0.20741623936E+02  0.13390545900E+03  0.13576583991E+03  0.47000000000E+01 0. -1.
         -5    1    3    3    0  502  0.48237138466E+02  0.69483527319E+02  0.15926079861E+02  0.86200418304E+02  0.47000000000E+01 0. -1.
          5    1    4    4  503    0 -0.59940007864E+02 -0.23210536036E+02  0.32167722464E+03  0.32806990166E+03  0.47000000000E+01 0. -1.
         -5    1    4    4    0  503  0.46753255985E+01 -0.67014615220E+02  0.17256040593E+03  0.18523498864E+03  0.47000000000E+01 0.  1.
<mgrwt>
<rscale>  0 0.15707720E+03</rscale>
<asrwt>0</asrwt>
<pdfrwt beam="1">  1        1 0.10610309E+00 0.16376669E+03</pdfrwt>
<pdfrwt beam="2">  1       -1 0.70155373E-02 0.16376669E+03</pdfrwt>
<totfact> 0.29867683E+03</totfact>
</mgrwt>
</event>
<event>
 8    1  0.3407580E-004  0.1424852E+03  0.7546771E-02  0.1220775E+00
         -2   -1    0    0    0  501 -0.00000000000E+00  0.00000000000E+00  0.10511215982E+03  0.10511215982E+03  0.00000000000E+00 0.  1.
          2   -1    0    0  501    0  0.00000000000E+00 -0.00000000000E+00 -0.17614947204E+03  0.17614947204E+03  0.00000000000E+00 0. -1.
         25    2    1    2    0    0  0.46764249620E+02 -0.49893353156E+02  0.83977410582E+01  0.14273243980E+03  0.12500314229E+03 0.  0.
         23    2    1    2    0    0 -0.46764249620E+02  0.49893353156E+02 -0.79435053278E+02  0.13852919206E+03  0.90576860360E+02 0.  0.
          5    1    4    4  502    0 -0.55024963142E+02  0.15400621287E+02 -0.70237165570E+01  0.57761131387E+02  0.47000000000E+01 0.  1.
         -5    1    3    3    0  503  0.59171448418E+02 -0.29797385548E+02 -0.47642391420E+02  0.81737579813E+02  0.47000000000E+01 0.  1.
          5    1    3    3  503    0 -0.12407198799E+02 -0.20095967608E+02  0.56040132478E+02  0.60994859983E+02  0.47000000000E+01 0.  1.
         -5    1    4    4    0  502  0.82607135221E+01  0.34492731869E+02 -0.72411336721E+02  0.80768060676E+02  0.47000000000E+01 0. -1.
<mgrwt>
<rscale>  0 0.13460726E+03</rscale>
<asrwt>0</asrwt>
<pdfrwt beam="1">  1        2 0.27099919E-01 0.14248518E+03</pdfrwt>
<pdfrwt beam="2">  1       -2 0.16171102E-01 0.14248518E+03</pdfrwt>
<totfact> 0.56684427E+03</totfact>
</mgrwt>
</event>
<event>
 8    1  0.3407580E-004  0.1367835E+03  0.7546771E-02  0.1229826E+00
         -1   -1    0    0    0  501 -0.00000000000E+00  0.00000000000E+00  0.28020879687E+02  0.28020879687E+02  0.00000000000E+00 0. -1.
          1   -1    0    0  501    0  0.00000000000E+00 -0.00000000000E+00 -0.52975885420E+03  0.52975885420E+03  0.00000000000E+00 0.  1.
         25    2    1    2    0    0 -0.55130933694E+02  0.65204716443E+01 -0.26231527930E+03  0.29583616588E+03  0.12501117904E+03 0.  0.
         23    2    1    2    0    0  0.55130933694E+02 -0.65204716443E+01 -0.23942269521E+03  0.26194356801E+03  0.90605018836E+02 0.  0.
          5    1    4    4  502    0  0.23345016139E+02 -0.55378469436E+01 -0.45345203190E+01  0.24865827994E+02  0.47000000000E+01 0. -1.
         -5    1    4    4    0  502  0.31785917555E+02 -0.98262470069E+00 -0.23488817489E+03  0.23707774001E+03  0.47000000000E+01 0.  1.
          5    1    3    3  503    0 -0.15455482603E+02  0.59304280357E+02 -0.17999338024E+03  0.19019878165E+03  0.47000000000E+01 0. -1.
         -5    1    3    3    0  503 -0.39675451091E+02 -0.52783808713E+02 -0.82321899069E+02  0.10563738423E+03  0.47000000000E+01 0. -1.
<mgrwt>
<rscale>  0 0.12841563E+03</rscale>
<asrwt>0</asrwt>
<pdfrwt beam="1">  1        1 0.81501354E-01 0.13678352E+03</pdfrwt>
<pdfrwt beam="2">  1       -1 0.43109050E-02 0.13678352E+03</pdfrwt>
<totfact> 0.87779924E+03</totfact>
</mgrwt>
</event>
<event>
 8    1  0.3407580E-004  0.1330558E+03  0.7546771E-02  0.1235380E+00
         -3   -1    0    0    0  501 -0.00000000000E+00  0.00000000000E+00  0.23539849906E+03  0.23539849906E+03  0.00000000000E+00 0.  1.
          3   -1    0    0  501    0  0.00000000000E+00 -0.00000000000E+00 -0.65905545797E+02  0.65905545797E+02  0.00000000000E+00 0. -1.
         25    2    1    2    0    0 -0.17674564265E+02  0.42070091354E+02  0.46636638669E+02  0.14099224441E+03  0.12498621568E+03 0.  0.
         23    2    1    2    0    0  0.17674564265E+02 -0.42070091354E+02  0.12285631459E+03  0.16031180045E+03  0.92325058992E+02 0.  0.
          5    1    4    4  502    0 -0.69969061521E+01 -0.65321198904E+02  0.61799068285E+02  0.90316280719E+02  0.47000000000E+01 0. -1.
         -5    1    3    3    0  503 -0.29114431373E+02 -0.39036001358E+02  0.55561166344E+01  0.49238399124E+02  0.47000000000E+01 0. -1.
          5    1    3    3  503    0  0.11439867108E+02  0.81106092712E+02  0.41080522034E+02  0.91753845288E+02  0.47000000000E+01 0. -1.
         -5    1    4    4    0  502  0.24671470417E+02  0.23251107551E+02  0.61057246310E+02  0.69995519727E+02  0.47000000000E+01 0.  1.
<mgrwt>
<rscale>  0 0.12480163E+03</rscale>
<asrwt>0</asrwt>
<pdfrwt beam="1">  1        3 0.10139315E-01 0.13305577E+03</pdfrwt>
<pdfrwt beam="2">  1       -3 0.36215153E-01 0.13305577E+03</pdfrwt>
<totfact> 0.12443853E+03</totfact>
</mgrwt>
</event>
<event>
 8    1  0.3407580E-004  0.1312058E+03  0.7546771E-02  0.1238838E+00
         -4   -1    0    0    0  501 -0.00000000000E+00  0.00000000000E+00  0.79107727197E+03  0.79107727197E+03  0.00000000000E+00 0.  1.
          4   -1    0    0  501    0  0.00000000000E+00 -0.00000000000E+00 -0.25118714351E+02  0.25118714351E+02  0.00000000000E+00 0. -1.
         25    2    1    2    0    0 -0.35582433700E+02 -0.17964618314E+02  0.18573652274E+03  0.22740498146E+03  0.12500453038E+03 0.  0.
         23    2    1    2    0    0  0.35582433700E+02  0.17964618314E+02  0.58022203488E+03  0.58879100486E+03  0.91806320844E+02 0.  0.
          5    1    3    3  502    0 -0.56610784218E+02 -0.33468782066E+02  0.35579302116E+02  0.74919403374E+02  0.47000000000E+01 0. -1.
         -5    1    3    3    0  502  0.21028350518E+02  0.15504163752E+02  0.15015722062E+03  0.15248557809E+03  0.47000000000E+01 0. -1.
          5    1    4    4  503    0  0.12214883865E+02  0.51424289127E+02  0.22358043854E+03  0.22979112994E+03  0.47000000000E+01 0. -1.
         -5    1    4    4    0  503  0.23367549835E+02 -0.33459670813E+02  0.35664159634E+03  0.35899987492E+03  0.47000000000E+01 0.  1.
<mgrwt>
<rscale>  0 0.12261916E+03</rscale>
<asrwt>0</asrwt>
<pdfrwt beam="1">  1        4 0.38644182E-02 0.13120583E+03</pdfrwt>
<pdfrwt beam="2">  1       -4 0.12170418E+00 0.13120583E+03</pdfrwt>
<totfact> 0.32107587E+02</totfact>
</mgrwt>
</event>
<event>
 8    1  0.3407580E-004  0.2584527E+03  0.7546771E-02  0.1110137E+00
         -2   -1    0    0    0  501 -0.00000000000E+00  0.00000000000E+00  0.35633531462E+03  0.35633531462E+03  0.00000000000E+00 0.  1.
          2   -1    0    0  501    0  0.00000000000E+00 -0.00000000000E+00 -0.17843250114E+03  0.17843250114E+03  0.00000000000E+00 0. -1.
         25    2    1    2    0    0 -0.12387760958E+03  0.18928092462E+03  0.77825768290E+02  0.26991595509E+03  0.12499936809E+03 0.  0.
         23    2    1    2    0    0  0.12387760958E+03 -0.18928092462E+03  0.10007704519E+03  0.26485186066E+03  0.94647570179E+02 0.  0.
          5    1    4    4  502    0  0.20210448383E+01 -0.83169260635E+02  0.28524081961E+02  0.88073400005E+02  0.47000000000E+01 0. -1.
         -5    1    4    4    0  502  0.12185656474E+03 -0.10611166399E+03  0.71552963233E+02  0.17677846066E+03  0.47000000000E+01 0.  1.
          5    1    3    3  503    0 -0.87827979900E+02  0.17515182462E+03  0.15780139389E+02  0.19662913955E+03  0.47000000000E+01 0.  1.
         -5    1    3    3    0  503 -0.36049629683E+02  0.14129100002E+02  0.62045628900E+02  0.73286815545E+02  0.47000000000E+01 0.  1.
<mgrwt>
<rscale>  0 0.25507807E+03</rscale>
<asrwt>0</asrwt>
<pdfrwt beam="1">  1        2 0.27451154E-01 0.25845265E+03</pdfrwt>
<pdfrwt beam="2">  1       -2 0.54820817E-01 0.25845265E+03</pdfrwt>
<totfact> 0.61824779E+02</totfact>
</mgrwt>
</event>
<event>
 8    1  0.3407580E-004  0.1414866E+03  0.7546771E-02  0.1222549E+00
          1   -1    0    0  501    0  0.00000000000E+00  0.00000000000E+00  0.61868737835E+03  0.61868737835E+03  0.00000000000E+00 0. -1.
         -1   -1    0    0    0  501 -0.00000000000E+00 -0.00000000000E+00 -0.26431164066E+02  0.26431164066E+02  0.00000000000E+00 0.  1.
         25    2    1    2    0    0 -0.29453471084E+02 -0.59368896988E+02  0.28488303838E+03  0.31808299396E+03  0.12500509031E+03 0.  0.
         23    2    1    2    0    0  0.29453471084E+02  0.59368896988E+02  0.30737317591E+03  0.32703554846E+03  0.89898875398E+02 0.  0.
          5    1    4    4  502    0  0.41220733113E+02 -0.71189632213E+01  0.89777347189E+02  0.99155890113E+02  0.47000000000E+01 0. -1.
         -5    1    3    3    0  503 -0.62141588968E+02  0.10946162289E+02  0.11431369194E+03  0.13065644153E+03  0.47000000000E+01 0. -1.
          5    1    3    3  503    0  0.32688117884E+02 -0.70315059277E+02  0.17056934644E+03  0.18742655243E+03  0.47000000000E+01 0. -1.
         -5    1    4    4    0  502 -0.11767262029E+02  0.66487860209E+02  0.21759582872E+03  0.22787965835E+03  0.47000000000E+01 0.  1.
<mgrwt>
<rscale>  0 0.13336351E+03</rscale>
<asrwt>0</asrwt>
<pdfrwt beam="1">  1        1 0.95182663E-01 0.14148656E+03</pdfrwt>
<pdfrwt beam="2">  1       -1 0.40663334E-02 0.14148656E+03</pdfrwt>
<totfact> 0.77784434E+03</totfact>
</mgrwt>
</event>
<event>
 8    1  0.3407580E-004  0.1293885E+03  0.7546771E-02  0.1240572E+00
         -3   -1    0    0    0  501 -0.00000000000E+00  0.00000000000E+00  0.66522807249E+02  0.66522807249E+02  0.00000000000E+00 0.  1.
          3   -1    0    0  501    0  0.00000000000E+00 -0.00000000000E+00 -0.19905210344E+03  0.19905210344E+03  0.00000000000E+00 0. -1.
         25    2    1    2    0    0  0.10515089208E+02  0.31709524771E+02 -0.75396519688E+02  0.14975321719E+03  0.12500131926E+03 0.  0.
         23    2    1    2    0    0 -0.10515089208E+02 -0.31709524771E+02 -0.57132776506E+02  0.11582169350E+03  0.95049721050E+02 0.  0.
          5    1    3    3  502    0  0.19992467470E+02 -0.38302939201E+02 -0.64993299361E+02  0.78185886634E+02  0.47000000000E+01 0.  1.
         -5    1    4    4    0  503 -0.93947392454E+01  0.23009213544E+02  0.11606676796E+02  0.27829660070E+02  0.47000000000E+01 0.  1.
          5    1    4    4  503    0 -0.11203499627E+01 -0.54718738314E+02 -0.68739453302E+02  0.87992033430E+02  0.47000000000E+01 0. -1.
         -5    1    3    3    0  502 -0.94773782618E+01  0.70012463971E+02 -0.10403220327E+02  0.71567330558E+02  0.47000000000E+01 0.  1.
<mgrwt>
<rscale>  0 0.12154380E+03</rscale>
<asrwt>0</asrwt>
<pdfrwt beam="1">  1        3 0.30623400E-01 0.12938853E+03</pdfrwt>
<pdfrwt beam="2">  1       -3 0.10234278E-01 0.12938853E+03</pdfrwt>
<totfact> 0.16702644E+03</totfact>
</mgrwt>
</event>
<event>
 8    1  0.3407580E-004  0.1513895E+03  0.7546771E-02  0.1206884E+00
         -2   -1    0    0    0  501 -0.00000000000E+00  0.00000000000E+00  0.46841343537E+02  0.46841343537E+02  0.00000000000E+00 0.  1.
          2   -1    0    0  501    0  0.00000000000E+00 -0.00000000000E+00 -0.55884180564E+03  0.55884180564E+03  0.00000000000E+00 0. -1.
         25    2    1    2    0    0  0.67804652797E+02  0.51921054139E+02 -0.11871716673E+03  0.19238641448E+03  0.12500199997E+03 0.  0.
         23    2    1    2    0    0 -0.67804652797E+02 -0.51921054139E+02 -0.39328329537E+03  0.41329673469E+03  0.94070046706E+02 0.  0.
          5    1    4    4  502    0 -0.61489060639E+02  0.59808321418E+01 -0.13580407391E+03  0.14926992806E+03  0.47000000000E+01 0. -1.
         -5    1    4    4    0  502 -0.63155921577E+01 -0.57901886280E+02 -0.25747922146E+03  0.26402680664E+03  0.47000000000E+01 0.  1.
          5    1    3    3  503    0 -0.78106202573E+01  0.65456270133E+02 -0.23923465139E+02  0.70284786923E+02  0.47000000000E+01 0.  1.
         -5    1    3    3    0  503  0.75615273054E+02 -0.13535215994E+02 -0.94793701589E+02  0.12210162756E+03  0.47000000000E+01 0.  1.
<mgrwt>
<rscale>  0 0.14489983E+03</rscale>
<asrwt>0</asrwt>
<pdfrwt beam="1">  1        2 0.85975663E-01 0.15138945E+03</pdfrwt>
<pdfrwt beam="2">  1       -2 0.72063605E-02 0.15138945E+03</pdfrwt>
<totfact> 0.59122990E+03</totfact>
</mgrwt>
</event>
<event>
 8    1  0.3407580E-004  0.1712943E+03  0.7546771E-02  0.1182969E+00
          3   -1    0    0  501    0  0.00000000000E+00  0.00000000000E+00  0.19107127325E+03  0.19107127325E+03  0.00000000000E+00 0. -1.
         -3   -1    0    0    0  501 -0.00000000000E+00 -0.00000000000E+00 -0.14359221208E+03  0.14359221208E+03  0.00000000000E+00 0.  1.
         25    2    1    2    0    0  0.10120469107E+03 -0.58957711877E+02 -0.18934380601E+02  0.17233762549E+03  0.12499338026E+03 0.  0.
         23    2    1    2    0    0 -0.10120469107E+03  0.58957711877E+02  0.66413441772E+02  0.16232585984E+03  0.90667183920E+02 0.  0.
          5    1    4    4  502    0 -0.67374716382E+02  0.38427636308E+02  0.87678748465E+02  0.11715668386E+03  0.47000000000E+01 0. -1.
         -5    1    3    3    0  503  0.88038067394E+02 -0.25697269451E+02 -0.65960245047E+02  0.11306588740E+03  0.47000000000E+01 0.  1.
          5    1    3    3  503    0  0.13166623675E+02 -0.33260442426E+02  0.47025864445E+02  0.59271738090E+02  0.47000000000E+01 0.  1.
         -5    1    4    4    0  502 -0.33829974687E+02  0.20530075569E+02 -0.21265306692E+02  0.45169175982E+02  0.47000000000E+01 0.  1.
<mgrwt>
<rscale>  0 0.16518066E+03</rscale>
<asrwt>0</asrwt>
<pdfrwt beam="1">  1        3 0.29395580E-01 0.17129433E+03</pdfrwt>
<pdfrwt beam="2">  1       -3 0.22091110E-01 0.17129433E+03</pdfrwt>
<totfact> 0.50169337E+02</totfact>
</mgrwt>
</event>
<event>
 8    1  0.3407580E-004  0.1643822E+03  0.7546771E-02  0.1191302E+00
          4   -1    0    0  501    0  0.00000000000E+00  0.00000000000E+00  0.28122213684E+02  0.28122213684E+02  0.00000000000E+00 0. -1.
         -4   -1    0    0    0  501 -0.00000000000E+00 -0.00000000000E+00 -0.84655193990E+03  0.84655193990E+03  0.00000000000E+00 0.  1.
         25    2    1    2    0    0  0.58706099037E+02 -0.89157721985E+02 -0.36444517092E+03  0.39980219536E+03  0.12500402937E+03 0.  0.
         23    2    1    2    0    0 -0.58706099037E+02  0.89157721985E+02 -0.45398455529E+03  0.47487195822E+03  0.89475665973E+02 0.  0.
          5    1    4    4  502    0  0.79446874260E+01  0.49632243876E+02 -0.94907595180E+02  0.10749892703E+03  0.47000000000E+01 0. -1.
         -5    1    4    4    0  502 -0.66650786463E+02  0.39525478108E+02 -0.35907696011E+03  0.36737303118E+03  0.47000000000E+01 0.  1.
          5    1    3    3  503    0  0.24312233466E+02 -0.60780307244E+02 -0.50868469267E+02  0.83036266838E+02  0.47000000000E+01 0. -1.
         -5    1    3    3    0  503  0.34393865571E+02 -0.28377414741E+02 -0.31357670165E+03  0.31676592853E+03  0.47000000000E+01 0. -1.
<mgrwt>
<rscale>  0 0.15771400E+03</rscale>
<asrwt>0</asrwt>
<pdfrwt beam="1">  1        4 0.43264941E-02 0.16438222E+03</pdfrwt>
<pdfrwt beam="2">  1       -4 0.13023877E+00 0.16438222E+03</pdfrwt>
<totfact> 0.23633460E+02</totfact>
</mgrwt>
</event>
<event>
 8    1  0.3407580E-004  0.1838094E+03  0.7546771E-02  0.1169517E+00
          2   -1    0    0  501    0  0.00000000000E+00  0.00000000000E+00  0.73511393879E+03  0.73511393879E+03  0.00000000000E+00 0. -1.
         -2   -1    0    0    0  501 -0.00000000000E+00 -0.00000000000E+00 -0.43265037745E+02  0.43265037745E+02  0.00000000000E+00 0.  1.
         25    2    1    2    0    0 -0.21708919886E+02 -0.13300339358E+03  0.45883997625E+03  0.49428737579E+03  0.12499882464E+03 0.  0.
         23    2    1    2    0    0  0.21708919886E+02  0.13300339358E+03  0.23300892480E+03  0.28409160075E+03  0.90849868845E+02 0.  0.
          5    1    4    4  502    0 -0.26302256137E+01  0.13118348894E+03  0.21958409404E+03  0.25584231513E+03  0.47000000000E+01 0. -1.
         -5    1    4    4    0  502  0.24339145500E+02  0.18199046386E+01  0.13424830767E+02  0.28249285614E+02  0.47000000000E+01 0.  1.
          5    1    3    3  503    0  0.12649872581E+02 -0.14386087527E+03  0.32639672928E+03  0.35694941602E+03  0.47000000000E+01 0.  1.
         -5    1    3    3    0  503 -0.34358792467E+02  0.10857481693E+02  0.13244324696E+03  0.13733795977E+03  0.47000000000E+01 0.  1.
<mgrwt>
<rscale>  0 0.17824068E+03</rscale>
<asrwt>0</asrwt>
<pdfrwt beam="1">  1        2 0.11309444E+00 0.18380937E+03</pdfrwt>
<pdfrwt beam="2">  1       -2 0.66561602E-02 0.18380937E+03</pdfrwt>
<totfact> 0.48911021E+03</totfact>
</mgrwt>
</event>
<event>
 8    1  0.3407580E-004  0.1667499E+03  0.7546771E-02  0.1188312E+00
         -1   -1    0    0    0  501 -0.00000000000E+00  0.00000000000E+00  0.12962685484E+03  0.12962685484E+03  0.00000000000E+00 0.  1.
          1   -1    0    0  501    0  0.00000000000E+00 -0.00000000000E+00 -0.18896850186E+03  0.18896850186E+03  0.00000000000E+00 0. -1.
         25    2    1    2    0    0  0.64911190011E+02 -0.89249297586E+02 -0.75457157317E+01  0.16692054712E+03  0.12500652590E+03 0.  0.
         23    2    1    2    0    0 -0.64911190011E+02  0.89249297586E+02 -0.51795931292E+02  0.15167480958E+03  0.90241507377E+02 0.  0.
          5    1    4    4  502    0 -0.42173975649E+02  0.62515810050E+02 -0.77256792943E+02  0.10806281869E+03  0.47000000000E+01 0. -1.
         -5    1    4    4    0  502 -0.22737214362E+02  0.26733487536E+02  0.25460861651E+02  0.43611990883E+02  0.47000000000E+01 0.  1.
          5    1    3    3  503    0  0.30413988105E+02  0.16628660003E+02  0.33222994685E+02  0.48242930900E+02  0.47000000000E+01 0. -1.
         -5    1    3    3    0  503  0.34497201906E+02 -0.10587795759E+03 -0.40768710417E+02  0.11867761622E+03  0.47000000000E+01 0. -1.
<mgrwt>
<rscale>  0 0.16034158E+03</rscale>
<asrwt>0</asrwt>
<pdfrwt beam="1">  1        1 0.29072077E-01 0.16674991E+03</pdfrwt>
<pdfrwt beam="2">  1       -1 0.19942593E-01 0.16674991E+03</pdfrwt>
<totfact> 0.31166370E+03</totfact>
</mgrwt>
</event>
<event>
 8    1  0.3407580E-004  0.1998074E+03  0.7546771E-02  0.1154045E+00
         -1   -1    0    0    0  501 -0.00000000000E+00  0.00000000000E+00  0.68010238200E+03  0.68010238200E+03  0.00000000000E+00 0.  1.
          1   -1    0    0  501    0  0.00000000000E+00 -0.00000000000E+00 -0.67752216975E+02  0.67752216975E+02  0.00000000000E+00 0. -1.
         25    2    1    2    0    0  0.15051805438E+03 -0.40530442248E+02  0.14576820043E+03  0.24732849580E+03  0.12499846053E+03 0.  0.
         23    2    1    2    0    0 -0.15051805438E+03  0.40530442248E+02  0.46658196460E+03  0.50052610318E+03  0.92353932398E+02 0.  0.
          5    1    3    3  502    0  0.10947208886E+02 -0.25556084268E+02  0.93184750913E+02  0.97357293657E+02  0.47000000000E+01 0. -1.
         -5    1    4    4    0  503 -0.10123196767E+03  0.43210251280E+02  0.41335082560E+03  0.42778035499E+03  0.47000000000E+01 0.  1.
          5    1    4    4  503    0 -0.49286086712E+02 -0.26798090322E+01  0.53231139001E+02  0.72745748186E+02  0.47000000000E+01 0. -1.
         -5    1    3    3    0  502  0.13957084549E+03 -0.14974357980E+02  0.52583449513E+02  0.14997120214E+03  0.47000000000E+01 0. -1.
<mgrwt>
<rscale>  0 0.19497940E+03</rscale>
<asrwt>0</asrwt>
<pdfrwt beam="1">  1        1 0.10423418E-01 0.19980745E+03</pdfrwt>
<pdfrwt beam="2">  1       -1 0.10463113E+00 0.19980745E+03</pdfrwt>
<totfact> 0.55172991E+02</totfact>
</mgrwt>
</event>
<event>
 8    1  0.3407580E-004  0.1438941E+03  0.7546771E-02  0.1220708E+00
         -1   -1    0    0    0  501 -0.00000000000E+00  0.00000000000E+00  0.64994989901E+03  0.64994989901E+03  0.00000000000E+00 0.  1.
          1   -1    0    0  501    0  0.00000000000E+00 -0.00000000000E+00 -0.30684134753E+02  0.30684134753E+02  0.00000000000E+00 0. -1.
         25    2    1    2    0    0  0.18638537259E+01  0.71260215627E+02  0.48992279076E+03  0.51061712419E+03  0.12499605724E+03 0.  0.
         23    2    1    2    0    0 -0.18638537259E+01 -0.71260215627E+02  0.12934297350E+03  0.17001690958E+03  0.84229759982E+02 0.  0.
          5    1    4    4  502    0  0.19501386355E+02 -0.61213619986E+02  0.36363377449E+02  0.73971592933E+02  0.47000000000E+01 0. -1.
         -5    1    4    4    0  502 -0.21365240081E+02 -0.10046595642E+02  0.92979596050E+02  0.96045316644E+02  0.47000000000E+01 0.  1.
          5    1    3    3  503    0 -0.56450015967E+02  0.63118213424E+02  0.28480145323E+03  0.29716068200E+03  0.47000000000E+01 0. -1.
         -5    1    3    3    0  503  0.58313869693E+02  0.81420022034E+01  0.20512133754E+03  0.21345644219E+03  0.47000000000E+01 0. -1.
<mgrwt>
<rscale>  0 0.13465452E+03</rscale>
<asrwt>0</asrwt>
<pdfrwt beam="1">  1        1 0.47206366E-02 0.14389408E+03</pdfrwt>
<pdfrwt beam="2">  1       -1 0.99992281E-01 0.14389408E+03</pdfrwt>
<totfact> 0.17738240E+03</totfact>
</mgrwt>
</event>
<event>
 8    1  0.3407580E-004  0.2169379E+03  0.7546771E-02  0.1139294E+00
         -1   -1    0    0    0  501 -0.00000000000E+00  0.00000000000E+00  0.73784637840E+02  0.73784637840E+02  0.00000000000E+00 0.  1.
          1   -1    0    0  501    0  0.00000000000E+00 -0.00000000000E+00 -0.59668709757E+03  0.59668709757E+03  0.00000000000E+00 0. -1.
         25    2    1    2    0    0  0.10309194314E+03  0.14426076025E+03 -0.29948789204E+03  0.36980404321E+03  0.12499166856E+03 0.  0.
         23    2    1    2    0    0 -0.10309194314E+03 -0.14426076025E+03 -0.22341456769E+03  0.30066769220E+03  0.95120325849E+02 0.  0.
          5    1    3    3  502    0  0.80058088781E+02  0.11544318058E+03 -0.30139827929E+03  0.33256493844E+03  0.47000000000E+01 0. -1.
         -5    1    4    4    0  503 -0.22763793175E+02 -0.11068873031E+03 -0.11176793601E+03  0.15901052423E+03  0.47000000000E+01 0.  1.
          5    1    4    4  503    0 -0.80328149961E+02 -0.33572029939E+02 -0.11164663169E+03  0.14165716797E+03  0.47000000000E+01 0. -1.
         -5    1    3    3    0  502  0.23033854356E+02  0.28817579669E+02  0.19103872512E+01  0.37239104768E+02  0.47000000000E+01 0. -1.
<mgrwt>
<rscale>  0 0.21289524E+03</rscale>
<asrwt>0</asrwt>
<pdfrwt beam="1">  1        1 0.91798013E-01 0.21693785E+03</pdfrwt>
<pdfrwt beam="2">  1       -1 0.11351483E-01 0.21693785E+03</pdfrwt>
<totfact> 0.17647482E+03</totfact>
</mgrwt>
</event>
<event>
 8    1  0.3407580E-004  0.1253634E+03  0.7546771E-02  0.1245432E+00
          2   -1    0    0  501    0  0.00000000000E+00  0.00000000000E+00  0.65178398948E+03  0.65178398948E+03  0.00000000000E+00 0. -1.
         -2   -1    0    0    0  501 -0.00000000000E+00 -0.00000000000E+00 -0.30680450669E+02  0.30680450669E+02  0.00000000000E+00 0.  1.
         25    2    1    2    0    0  0.68632409968E+01 -0.65750379960E+01  0.53714927560E+03  0.55158438919E+03  0.12500263563E+03 0.  0.
         23    2    1    2    0    0 -0.68632409968E+01  0.65750379960E+01  0.83954263202E+02  0.13088005095E+03  0.99954660854E+02 0.  0.
          5    1    3    3  502    0 -0.49249559122E+01  0.47999408695E+02  0.10305092134E+03  0.11388494551E+03  0.47000000000E+01 0.  1.
         -5    1    4    4    0  503  0.40005031663E+02  0.27585369780E+02  0.39986125975E+02  0.63105748191E+02  0.47000000000E+01 0.  1.
          5    1    4    4  503    0 -0.46868272660E+02 -0.21010331784E+02  0.43968137228E+02  0.67774302764E+02  0.47000000000E+01 0. -1.
         -5    1    3    3    0  502  0.11788196909E+02 -0.54574446691E+02  0.43409835427E+03  0.43769944368E+03  0.47000000000E+01 0.  1.
<mgrwt>
<rscale>  0 0.11859533E+03</rscale>
<asrwt>0</asrwt>
<pdfrwt beam="1">  1        2 0.10027445E+00 0.12536345E+03</pdfrwt>
<pdfrwt beam="2">  1       -2 0.47200698E-02 0.12536345E+03</pdfrwt>
<totfact> 0.93145803E+03</totfact>
</mgrwt>
</event>
<event>
 8    1  0.3407580E-004  0.1744668E+03  0.7546771E-02  0.1178800E+00
         -1   -1    0    0    0  501 -0.00000000000E+00  0.00000000000E+00  0.82751514048E+02  0.82751514048E+02  0.00000000000E+00 0.  1.
          1   -1    0    0  501    0  0.00000000000E+00 -0.00000000000E+00 -0.51967991197E+03  0.51967991197E+03  0.00000000000E+00 0. -1.
         25    2    1    2    0    0  0.62143680648E+02 -0.10465218578E+03 -0.41077526599E+03  0.44629023245E+03  0.12499894159E+03 0.  0.
         23    2    1    2    0    0 -0.62143680648E+02  0.10465218578E+03 -0.26153131938E+02  0.15614119357E+03  0.94245259764E+02 0.  0.
          5    1    4    4  502    0 -0.57602705581E+02  0.85080570121E+02 -0.58085792895E+02  0.11812207431E+03  0.47000000000E+01 0. -1.
         -5    1    4    4    0  502 -0.45409750673E+01  0.19571615654E+02  0.31932660958E+02  0.38019119265E+02  0.47000000000E+01 0.  1.
          5    1    3    3  503    0  0.76638543655E+02 -0.15233619187E+02 -0.24656320020E+03  0.25869099563E+03  0.47000000000E+01 0. -1.
         -5    1    3    3    0  503 -0.14494863007E+02 -0.89418566589E+02 -0.16421206578E+03  0.18759923681E+03  0.47000000000E+01 0. -1.
<mgrwt>
<rscale>  0 0.16909046E+03</rscale>
<asrwt>0</asrwt>
<pdfrwt beam="1">  1        1 0.79950754E-01 0.17446677E+03</pdfrwt>
<pdfrwt beam="2">  1       -1 0.12731002E-01 0.17446677E+03</pdfrwt>
<totfact> 0.17725829E+03</totfact>
</mgrwt>
</event>
<event>
 8    1  0.3407580E-004  0.1521933E+03  0.7546771E-02  0.1206065E+00
          2   -1    0    0  501    0  0.00000000000E+00  0.00000000000E+00  0.64104754124E+03  0.64104754124E+03  0.00000000000E+00 0. -1.
         -2   -1    0    0    0  501 -0.00000000000E+00 -0.00000000000E+00 -0.38202785483E+02  0.38202785483E+02  0.00000000000E+00 0.  1.
         25    2    1    2    0    0 -0.86744538846E+02  0.31388857347E+01  0.47528829471E+03  0.49906088273E+03  0.12501333512E+03 0.  0.
         23    2    1    2    0    0  0.86744538846E+02 -0.31388857347E+01  0.12755646105E+03  0.18018944400E+03  0.93075868780E+02 0.  0.
          5    1    4    4  502    0  0.96715842173E+02 -0.26263761874E+02  0.90338124905E+02  0.13500668919E+03  0.47000000000E+01 0. -1.
         -5    1    4    4    0  502 -0.99713033265E+01  0.23124876139E+02  0.37218336143E+02  0.45182754805E+02  0.47000000000E+01 0.  1.
          5    1    3    3  503    0  0.24078619789E+02 -0.15251719742E+01  0.21063531615E+03  0.21206468940E+03  0.47000000000E+01 0.  1.
         -5    1    3    3    0  503 -0.11082315864E+03  0.46640577089E+01  0.26465297856E+03  0.28699619333E+03  0.47000000000E+01 0.  1.
<mgrwt>
<rscale>  0 0.14553852E+03</rscale>
<asrwt>0</asrwt>
<pdfrwt beam="1">  1        2 0.98622691E-01 0.15219330E+03</pdfrwt>
<pdfrwt beam="2">  1       -2 0.58773521E-02 0.15219330E+03</pdfrwt>
<totfact> 0.69031244E+03</totfact>
</mgrwt>
</event>
<event>
 8    1  0.3407580E-004  0.1291912E+03  0.7546771E-02  0.1240276E+00
          2   -1    0    0  501    0  0.00000000000E+00  0.00000000000E+00  0.32282871808E+02  0.32282871808E+02  0.00000000000E+00 0. -1.
         -2   -1    0    0    0  501 -0.00000000000E+00 -0.00000000000E+00 -0.42646133709E+03  0.42646133709E+03  0.00000000000E+00 0.  1.
         25    2    1    2    0    0 -0.32305078991E+02 -0.47059899152E+01 -0.17965916056E+03  0.22128662126E+03  0.12499836121E+03 0.  0.
         23    2    1    2    0    0  0.32305078991E+02  0.47059899152E+01 -0.21451930472E+03  0.23745758764E+03  0.96445888252E+02 0.  0.
          5    1    3    3  502    0  0.47633684105E+02  0.60119446444E+00 -0.81255217844E+02  0.94307103248E+02  0.47000000000E+01 0. -1.
         -5    1    4    4    0  503 -0.17794179855E+02  0.30097590473E+02 -0.13789559569E+03  0.14233686486E+03  0.47000000000E+01 0.  1.
          5    1    4    4  503    0  0.50099258846E+02 -0.25391600558E+02 -0.76623709034E+02  0.95120722779E+02  0.47000000000E+01 0. -1.
         -5    1    3    3    0  502 -0.79938763096E+02 -0.53071843796E+01 -0.98403942720E+02  0.12697951801E+03  0.47000000000E+01 0. -1.
<mgrwt>
<rscale>  0 0.12172625E+03</rscale>
<asrwt>0</asrwt>
<pdfrwt beam="1">  1        2 0.49665959E-02 0.12919116E+03</pdfrwt>
<pdfrwt beam="2">  1       -2 0.65609434E-01 0.12919116E+03</pdfrwt>
<totfact> 0.33045158E+03</totfact>
</mgrwt>
</event>
<event>
 8    1  0.3407580E-004  0.1333009E+03  0.7546771E-02  0.1234385E+00
         -2   -1    0    0    0  501 -0.00000000000E+00  0.00000000000E+00  0.11237675170E+02  0.11237675170E+02  0.00000000000E+00 0.  1.
          2   -1    0    0  501    0  0.00000000000E+00 -0.00000000000E+00 -0.12869895480E+04  0.12869895480E+04  0.00000000000E+00 0. -1.
         25    2    1    2    0    0  0.44446419133E+02 -0.12986618745E+02 -0.61712731000E+03  0.63135984528E+03  0.12500000414E+03 0.  0.
         23    2    1    2    0    0 -0.44446419133E+02  0.12986618745E+02 -0.65862456280E+03  0.66686737787E+03  0.93710450320E+02 0.  0.
          5    1    3    3  502    0  0.46021086280E+02 -0.65377813248E+02 -0.40080359619E+03  0.40872706243E+03  0.47000000000E+01 0. -1.
         -5    1    4    4    0  503 -0.25092630571E+02  0.51825503664E+02 -0.45243751679E+03  0.45611108245E+03  0.47000000000E+01 0.  1.
          5    1    4    4  503    0 -0.19353788562E+02 -0.38838884919E+02 -0.20618704601E+03  0.21075629542E+03  0.47000000000E+01 0. -1.
         -5    1    3    3    0  502 -0.15746671467E+01  0.52391194503E+02 -0.21632371382E+03  0.22263278284E+03  0.47000000000E+01 0. -1.
<mgrwt>
<rscale>  0 0.12543868E+03</rscale>
<asrwt>0</asrwt>
<pdfrwt beam="1">  1        2 0.19799828E+00 0.13330093E+03</pdfrwt>
<pdfrwt beam="2">  1       -2 0.17288741E-02 0.13330093E+03</pdfrwt>
<totfact> 0.16444564E+04</totfact>
</mgrwt>
</event>
<event>
 8    1  0.3407580E-004  0.1707178E+03  0.7546771E-02  0.1183846E+00
          2   -1    0    0  501    0  0.00000000000E+00  0.00000000000E+00  0.14366300591E+03  0.14366300591E+03  0.00000000000E+00 0. -1.
         -2   -1    0    0    0  501 -0.00000000000E+00 -0.00000000000E+00 -0.19143780157E+03  0.19143780157E+03  0.00000000000E+00 0.  1.
         25    2    1    2    0    0  0.95230018006E+01  0.11587330777E+03  0.22901649701E+02  0.17224710394E+03  0.12500907262E+03 0.  0.
         23    2    1    2    0    0 -0.95230018006E+01 -0.11587330777E+03 -0.70676445369E+02  0.16285370354E+03  0.89492222066E+02 0.  0.
          5    1    3    3  502    0  0.39610874404E+02 -0.24258000564E+01 -0.17440112221E+02  0.43602217733E+02  0.47000000000E+01 0. -1.
         -5    1    4    4    0  503 -0.13313818546E+02 -0.35496750469E+02 -0.72809091673E+02  0.82222447594E+02  0.47000000000E+01 0.  1.
          5    1    4    4  503    0  0.37908167453E+01 -0.80376557305E+02  0.21326463037E+01  0.80631255950E+02  0.47000000000E+01 0. -1.
         -5    1    3    3    0  502 -0.30087872603E+02  0.11829910783E+03  0.40341761922E+02  0.12864488620E+03  0.47000000000E+01 0. -1.
<mgrwt>
<rscale>  0 0.16437282E+03</rscale>
<asrwt>0</asrwt>
<pdfrwt beam="1">  1        2 0.22102001E-01 0.17071784E+03</pdfrwt>
<pdfrwt beam="2">  1       -2 0.29451970E-01 0.17071784E+03</pdfrwt>
<totfact> 0.25592196E+03</totfact>
</mgrwt>
</event>
<event>
 8    1  0.3407580E-004  0.2693625E+03  0.7546771E-02  0.1103687E+00
         -1   -1    0    0    0  501 -0.00000000000E+00  0.00000000000E+00  0.63989638195E+02  0.63989638195E+02  0.00000000000E+00 0.  1.
          1   -1    0    0  501    0  0.00000000000E+00 -0.00000000000E+00 -0.11011669345E+04  0.11011669345E+04  0.00000000000E+00 0. -1.
         25    2    1    2    0    0  0.11573915118E+03 -0.20864367843E+03 -0.61933354974E+03  0.67537411215E+03  0.12501363871E+03 0.  0.
         23    2    1    2    0    0 -0.11573915118E+03  0.20864367843E+03 -0.41784374657E+03  0.48978246055E+03  0.91464345257E+02 0.  0.
          5    1    4    4  502    0 -0.95910731042E+02  0.17399568550E+03 -0.39821134786E+03  0.44504801367E+03  0.47000000000E+01 0. -1.
         -5    1    4    4    0  502 -0.19828420134E+02  0.34647992926E+02 -0.19632398701E+02  0.44734446879E+02  0.47000000000E+01 0.  1.
          5    1    3    3  503    0  0.65054222539E+02 -0.27371408731E+02 -0.26311231486E+03  0.27245444779E+03  0.47000000000E+01 0.  1.
         -5    1    3    3    0  503  0.50684928637E+02 -0.18127226970E+03 -0.35622123488E+03  0.40291966436E+03  0.47000000000E+01 0.  1.
<mgrwt>
<rscale>  0 0.26583462E+03</rscale>
<asrwt>0</asrwt>
<pdfrwt beam="1">  1        1 0.16941029E+00 0.26936248E+03</pdfrwt>
<pdfrwt beam="2">  1       -1 0.98445604E-02 0.26936248E+03</pdfrwt>
<totfact> 0.84280321E+02</totfact>
</mgrwt>
</event>
<event>
 8    1  0.3407580E-004  0.1301698E+03  0.7546771E-02  0.1240318E+00
          2   -1    0    0  501    0  0.00000000000E+00  0.00000000000E+00  0.42865365772E+03  0.42865365772E+03  0.00000000000E+00 0. -1.
         -2   -1    0    0    0  501 -0.00000000000E+00 -0.00000000000E+00 -0.33036278745E+02  0.33036278745E+02  0.00000000000E+00 0.  1.
         25    2    1    2    0    0  0.36296060233E+02 -0.15881652061E+01  0.16224955999E+03  0.20801222533E+03  0.12499695961E+03 0.  0.
         23    2    1    2    0    0 -0.36296060233E+02  0.15881652061E+01  0.23336781899E+03  0.25367771114E+03  0.92584641991E+02 0.  0.
          5    1    3    3  502    0  0.75390181287E+02 -0.28790645135E+02  0.11654447706E+03  0.14183541806E+03  0.47000000000E+01 0.  1.
         -5    1    3    3    0  502 -0.39094121053E+02  0.27202479929E+02  0.45705082928E+02  0.66176807272E+02  0.47000000000E+01 0.  1.
          5    1    4    4  503    0  0.20576269237E+02  0.59502904821E+01  0.11931552409E+02  0.24964790314E+02  0.47000000000E+01 0. -1.
         -5    1    4    4    0  503 -0.56872329470E+02 -0.43621252760E+01  0.22143626658E+03  0.22871292083E+03  0.47000000000E+01 0.  1.
<mgrwt>
<rscale>  0 0.12170046E+03</rscale>
<asrwt>0</asrwt>
<pdfrwt beam="1">  1        2 0.65946713E-01 0.13016976E+03</pdfrwt>
<pdfrwt beam="2">  1       -2 0.50825047E-02 0.13016976E+03</pdfrwt>
<totfact> 0.13308143E+04</totfact>
</mgrwt>
</event>
<event>
 8    1  0.3407580E-004  0.1575206E+03  0.7546771E-02  0.1199271E+00
         -2   -1    0    0    0  501 -0.00000000000E+00  0.00000000000E+00  0.60186734647E+02  0.60186734647E+02  0.00000000000E+00 0.  1.
          2   -1    0    0  501    0  0.00000000000E+00 -0.00000000000E+00 -0.35074816746E+03  0.35074816746E+03  0.00000000000E+00 0. -1.
         25    2    1    2    0    0 -0.89160824937E+02 -0.35200303524E+02 -0.16333589490E+03  0.22691703047E+03  0.12499604027E+03 0.  0.
         23    2    1    2    0    0  0.89160824937E+02  0.35200303524E+02 -0.12722553791E+03  0.18401787164E+03  0.92127767331E+02 0.  0.
          5    1    3    3  502    0 -0.40427336840E+02 -0.80417064034E+02 -0.10468836880E+03  0.13814129836E+03  0.47000000000E+01 0.  1.
         -5    1    4    4    0  503  0.20670383077E+02  0.28369839469E+02  0.41221223842E+01  0.35653813555E+02  0.47000000000E+01 0.  1.
          5    1    4    4  503    0  0.68490441860E+02  0.68304640546E+01 -0.13134766030E+03  0.14836405808E+03  0.47000000000E+01 0. -1.
         -5    1    3    3    0  502 -0.48733488097E+02  0.45216760510E+02 -0.58647526105E+02  0.88775732108E+02  0.47000000000E+01 0.  1.
<mgrwt>
<rscale>  0 0.15098251E+03</rscale>
<asrwt>0</asrwt>
<pdfrwt beam="1">  1        2 0.53961257E-01 0.15752055E+03</pdfrwt>
<pdfrwt beam="2">  1       -2 0.92594976E-02 0.15752055E+03</pdfrwt>
<totfact> 0.66680422E+03</totfact>
</mgrwt>
</event>
<event>
 8    1  0.3407580E-004  0.1402055E+03  0.7546771E-02  0.1224347E+00
          2   -1    0    0  501    0  0.00000000000E+00  0.00000000000E+00  0.88642865048E+03  0.88642865048E+03  0.00000000000E+00 0.  1.
         -2   -1    0    0    0  501 -0.00000000000E+00 -0.00000000000E+00 -0.17903766409E+02  0.17903766409E+02  0.00000000000E+00 0. -1.
         25    2    1    2    0    0 -0.33116086431E+02 -0.54186362649E+02  0.44132586082E+03  0.46306166667E+03  0.12499901856E+03 0.  0.
         23    2    1    2    0    0  0.33116086431E+02  0.54186362649E+02  0.42719902325E+03  0.44127075021E+03  0.90487747493E+02 0.  0.
          5    1    3    3  502    0 -0.56965206582E+02 -0.16162208081E+02  0.83903739659E+02  0.10280165008E+03  0.47000000000E+01 0. -1.
         -5    1    4    4    0  503  0.10892014256E+02  0.77168986709E+02  0.31264302546E+03  0.32224437909E+03  0.47000000000E+01 0.  1.
          5    1    4    4  503    0  0.22224072175E+02 -0.22982624061E+02  0.11455599779E+03  0.11902637112E+03  0.47000000000E+01 0. -1.
         -5    1    3    3    0  502  0.23849120151E+02 -0.38024154568E+02  0.35742212116E+03  0.36026001659E+03  0.47000000000E+01 0. -1.
<mgrwt>
<rscale>  0 0.13211789E+03</rscale>
<asrwt>0</asrwt>
<pdfrwt beam="1">  1        2 0.13637360E+00 0.14020553E+03</pdfrwt>
<pdfrwt beam="2">  1       -2 0.27544263E-02 0.14020553E+03</pdfrwt>
<totfact> 0.14294756E+04</totfact>
</mgrwt>
</event>
<event>
 8    1  0.3407580E-004  0.1290592E+03  0.7546771E-02  0.1243828E+00
         -2   -1    0    0    0  501 -0.00000000000E+00  0.00000000000E+00  0.23758800076E+03  0.23758800076E+03  0.00000000000E+00 0.  1.
          2   -1    0    0  501    0  0.00000000000E+00 -0.00000000000E+00 -0.53349870765E+02  0.53349870765E+02  0.00000000000E+00 0. -1.
         25    2    1    2    0    0  0.48537685671E+01 -0.31734568142E+02  0.92025385129E+02  0.15850848069E+03  0.12500250020E+03 0.  0.
         23    2    1    2    0    0 -0.48537685671E+01  0.31734568142E+02  0.92212744865E+02  0.13242939084E+03  0.89463463814E+02 0.  0.
          5    1    3    3  502    0  0.96781986896E+01  0.23189475686E+02  0.99444604408E+02  0.10267783918E+03  0.47000000000E+01 0.  1.
         -5    1    4    4    0  503 -0.25156628256E+02 -0.49883404957E+01  0.85858138395E+02  0.89729869134E+02  0.47000000000E+01 0.  1.
          5    1    4    4  503    0  0.20302859689E+02  0.36722908637E+02  0.63546064700E+01  0.42699521703E+02  0.47000000000E+01 0. -1.
         -5    1    3    3    0  502 -0.48244301225E+01 -0.54924043827E+02 -0.74192192798E+01  0.55830641507E+02  0.47000000000E+01 0.  1.
<mgrwt>
<rscale>  0 0.11955803E+03</rscale>
<asrwt>0</asrwt>
<pdfrwt beam="1">  1        2 0.82076726E-02 0.12905916E+03</pdfrwt>
<pdfrwt beam="2">  1       -2 0.36552000E-01 0.12905916E+03</pdfrwt>
<totfact> 0.55032471E+03</totfact>
</mgrwt>
</event>
<event>
 8    1  0.3407580E-004  0.1271349E+03  0.7546771E-02  0.1246389E+00
          2   -1    0    0  501    0  0.00000000000E+00  0.00000000000E+00  0.50245678201E+03  0.50245678201E+03  0.00000000000E+00 0. -1.
         -2   -1    0    0    0  501 -0.00000000000E+00 -0.00000000000E+00 -0.37259728652E+02  0.37259728652E+02  0.00000000000E+00 0.  1.
         25    2    1    2    0    0  0.20802591364E+02 -0.10275075495E+02  0.41234522865E+03  0.43149956336E+03  0.12499984243E+03 0.  0.
         23    2    1    2    0    0 -0.20802591364E+02  0.10275075495E+02  0.52851824711E+02  0.10821694730E+03  0.91538338003E+02 0.  0.
          5    1    4    4  502    0  0.18682646293E+02 -0.85189035650E+01  0.60061609522E+02  0.63648251577E+02  0.47000000000E+01 0. -1.
         -5    1    3    3    0  503  0.13637382850E+02  0.56762896049E+02  0.16493414569E+03  0.17502390406E+03  0.47000000000E+01 0. -1.
          5    1    3    3  503    0  0.71652085134E+01 -0.67037971545E+02  0.24741108296E+03  0.25647565930E+03  0.47000000000E+01 0. -1.
         -5    1    4    4    0  502 -0.39485237657E+02  0.18793979060E+02 -0.72097848100E+01  0.44568695726E+02  0.47000000000E+01 0.  1.
<mgrwt>
<rscale>  0 0.11802651E+03</rscale>
<asrwt>0</asrwt>
<pdfrwt beam="1">  1        2 0.77301039E-01 0.12713491E+03</pdfrwt>
<pdfrwt beam="2">  1       -2 0.57322663E-02 0.12713491E+03</pdfrwt>
<totfact> 0.93301691E+03</totfact>
</mgrwt>
</event>
<event>
 8    1  0.3407580E-004  0.1608700E+03  0.7546771E-02  0.1195278E+00
          1   -1    0    0  501    0  0.00000000000E+00  0.00000000000E+00  0.18012182628E+02  0.18012182628E+02  0.00000000000E+00 0. -1.
         -1   -1    0    0    0  501 -0.00000000000E+00 -0.00000000000E+00 -0.12327707327E+04  0.12327707327E+04  0.00000000000E+00 0.  1.
         25    2    1    2    0    0  0.80667586083E+02 -0.61213420151E+02 -0.60715421153E+03  0.62810459193E+03  0.12499919828E+03 0.  0.
         23    2    1    2    0    0 -0.80667586083E+02  0.61213420151E+02 -0.60760433856E+03  0.62267832342E+03  0.91054489002E+02 0.  0.
          5    1    4    4  502    0 -0.19535261370E+02  0.67786256514E+02 -0.39641915462E+03  0.40267460705E+03  0.47000000000E+01 0. -1.
         -5    1    4    4    0  502 -0.61132324712E+02 -0.65728363626E+01 -0.21118518394E+03  0.22000371638E+03  0.47000000000E+01 0.  1.
          5    1    3    3  503    0  0.54352796886E+02  0.28214335843E+01 -0.82917830952E+02  0.99295738612E+02  0.47000000000E+01 0. -1.
         -5    1    3    3    0  503  0.26314789197E+02 -0.64034853735E+02 -0.52423638058E+03  0.52880885331E+03  0.47000000000E+01 0. -1.
<mgrwt>
<rscale>  0 0.15430689E+03</rscale>
<asrwt>0</asrwt>
<pdfrwt beam="1">  1        1 0.27711048E-02 0.16086995E+03</pdfrwt>
<pdfrwt beam="2">  1       -1 0.18965705E+00 0.16086995E+03</pdfrwt>
<totfact> 0.74065587E+02</totfact>
</mgrwt>
</event>
<event>
 8    1  0.3407580E-004  0.1269504E+03  0.7546771E-02  0.1248870E+00
          2   -1    0    0  501    0  0.00000000000E+00  0.00000000000E+00  0.85590953328E+03  0.85590953328E+03  0.00000000000E+00 0. -1.
         -2   -1    0    0    0  501 -0.00000000000E+00 -0.00000000000E+00 -0.14011505141E+02  0.14011505141E+02  0.00000000000E+00 0.  1.
         25    2    1    2    0    0 -0.17341886965E+02  0.13536107707E+02  0.43559182081E+03  0.45371426277E+03  0.12502971897E+03 0.  0.
         23    2    1    2    0    0  0.17341886965E+02 -0.13536107707E+02  0.40630620733E+03  0.41620677566E+03  0.87517876634E+02 0.  0.
          5    1    4    4  502    0  0.52830219262E+02 -0.11258809843E+02  0.23268211629E+03  0.23891598964E+03  0.47000000000E+01 0. -1.
         -5    1    4    4    0  502 -0.35488332297E+02 -0.22772978642E+01  0.17362409104E+03  0.17729078601E+03  0.47000000000E+01 0.  1.
          5    1    3    3  503    0  0.21648547633E+02 -0.48604309743E+02  0.17885361095E+03  0.18665942968E+03  0.47000000000E+01 0.  1.
         -5    1    3    3    0  503 -0.38990434597E+02  0.62140417450E+02  0.25673820986E+03  0.26705483309E+03  0.47000000000E+01 0.  1.
<mgrwt>
<rscale>  0 0.11656706E+03</rscale>
<asrwt>0</asrwt>
<pdfrwt beam="1">  1        2 0.13167835E+00 0.12695038E+03</pdfrwt>
<pdfrwt beam="2">  1       -2 0.21556168E-02 0.12695038E+03</pdfrwt>
<totfact> 0.21230352E+04</totfact>
</mgrwt>
</event>
<event>
 8    1  0.3407580E-004  0.2050342E+03  0.7546771E-02  0.1149609E+00
          1   -1    0    0  501    0  0.00000000000E+00  0.00000000000E+00  0.35124974413E+03  0.35124974413E+03  0.00000000000E+00 0. -1.
         -1   -1    0    0    0  501 -0.00000000000E+00 -0.00000000000E+00 -0.11222912836E+03  0.11222912836E+03  0.00000000000E+00 0.  1.
         25    2    1    2    0    0 -0.14339740133E+03  0.76476661475E+02  0.16471132961E+03  0.26299973342E+03  0.12501017245E+03 0.  0.
         23    2    1    2    0    0  0.14339740133E+03 -0.76476661475E+02  0.74309286160E+02  0.20047913908E+03  0.90876403625E+02 0.  0.
          5    1    4    4  502    0  0.12802089378E+03 -0.59689540602E+02  0.94232092573E+02  0.16986455714E+03  0.47000000000E+01 0. -1.
         -5    1    3    3    0  503  0.85954800681E+01 -0.19111246097E+02  0.36399008984E+02  0.42262274667E+02  0.47000000000E+01 0.  1.
          5    1    3    3  503    0 -0.15199288140E+03  0.95587907572E+02  0.12831232063E+03  0.22073745875E+03  0.47000000000E+01 0.  1.
         -5    1    4    4    0  502  0.15376507551E+02 -0.16787120873E+02 -0.19922806414E+02  0.30614581935E+02  0.47000000000E+01 0.  1.
<mgrwt>
<rscale>  0 0.20015389E+03</rscale>
<asrwt>0</asrwt>
<pdfrwt beam="1">  1        1 0.54038422E-01 0.20503424E+03</pdfrwt>
<pdfrwt beam="2">  1       -1 0.17266020E-01 0.20503424E+03</pdfrwt>
<totfact> 0.18214899E+03</totfact>
</mgrwt>
</event>
<event>
 8    1  0.3407580E-004  0.2429191E+03  0.7546771E-02  0.1120435E+00
         -1   -1    0    0    0  501 -0.00000000000E+00  0.00000000000E+00  0.75271343681E+02  0.75271343681E+02  0.00000000000E+00 0.  1.
          1   -1    0    0  501    0  0.00000000000E+00 -0.00000000000E+00 -0.82967381507E+03  0.82967381507E+03  0.00000000000E+00 0. -1.
         25    2    1    2    0    0  0.12137775165E+03 -0.16926645634E+03 -0.54008147690E+03  0.59219735401E+03  0.12500405021E+03 0.  0.
         23    2    1    2    0    0 -0.12137775165E+03  0.16926645634E+03 -0.21432099448E+03  0.31274780474E+03  0.92162947299E+02 0.  0.
          5    1    3    3  502    0  0.92438307638E+02 -0.71264618475E+02 -0.41222206885E+03  0.42845374384E+03  0.47000000000E+01 0. -1.
         -5    1    4    4    0  503 -0.10819958704E+03  0.73644313053E+02 -0.11754215921E+03  0.17597978484E+03  0.47000000000E+01 0.  1.
          5    1    4    4  503    0 -0.13178164603E+02  0.95622143286E+02 -0.96778835272E+02  0.13676801989E+03  0.47000000000E+01 0. -1.
         -5    1    3    3    0  502  0.28939444009E+02 -0.98001837864E+02 -0.12785940806E+03  0.16374361017E+03  0.47000000000E+01 0. -1.
<mgrwt>
<rscale>  0 0.23903906E+03</rscale>
<asrwt>0</asrwt>
<pdfrwt beam="1">  1        1 0.12764213E+00 0.24291913E+03</pdfrwt>
<pdfrwt beam="2">  1       -1 0.11580206E-01 0.24291913E+03</pdfrwt>
<totfact> 0.10565498E+03</totfact>
</mgrwt>
</event>
<event>
 8    1  0.3407580E-004  0.1299560E+03  0.7546771E-02  0.1241358E+00
         -4   -1    0    0    0  501 -0.00000000000E+00  0.00000000000E+00  0.14598408943E+03  0.14598408943E+03  0.00000000000E+00 0. -1.
          4   -1    0    0  501    0  0.00000000000E+00 -0.00000000000E+00 -0.91184943953E+02  0.91184943953E+02  0.00000000000E+00 0.  1.
         25    2    1    2    0    0 -0.15075577860E+02 -0.32183704969E+02  0.49821810440E+02  0.13917893568E+03  0.12500199769E+03 0.  0.
         23    2    1    2    0    0  0.15075577860E+02  0.32183704969E+02  0.49773350407E+01  0.97990097711E+02  0.91182352854E+02 0.  0.
          5    1    3    3  502    0 -0.19123254628E+02 -0.79647583890E+02  0.33180639012E+02  0.88501306726E+02  0.47000000000E+01 0.  1.
         -5    1    4    4    0  503  0.38401466747E+02  0.40309477233E+02  0.29230144086E+02  0.63055673230E+02  0.47000000000E+01 0.  1.
          5    1    4    4  503    0 -0.23325888887E+02 -0.81257722641E+01 -0.24252809045E+02  0.34934424481E+02  0.47000000000E+01 0. -1.
         -5    1    3    3    0  502  0.40476767674E+01  0.47463878921E+02  0.16641171429E+02  0.50677628950E+02  0.47000000000E+01 0.  1.
<mgrwt>
<rscale>  0 0.12106053E+03</rscale>
<asrwt>0</asrwt>
<pdfrwt beam="1">  1        4 0.14028453E-01 0.12995601E+03</pdfrwt>
<pdfrwt beam="2">  1       -4 0.22459091E-01 0.12995601E+03</pdfrwt>
<totfact> 0.12637272E+03</totfact>
</mgrwt>
</event>
<event>
 8    1  0.3407580E-004  0.1501521E+03  0.7546771E-02  0.1208746E+00
         -2   -1    0    0    0  501 -0.00000000000E+00  0.00000000000E+00  0.18456069889E+03  0.18456069889E+03  0.00000000000E+00 0.  1.
          2   -1    0    0  501    0  0.00000000000E+00 -0.00000000000E+00 -0.17152345105E+03  0.17152345105E+03  0.00000000000E+00 0. -1.
         25    2    1    2    0    0 -0.15591004598E+02 -0.81723615825E+02 -0.10567091019E+03  0.18360827508E+03  0.12499531436E+03 0.  0.
         23    2    1    2    0    0  0.15591004598E+02  0.81723615825E+02  0.11870815802E+03  0.17247587486E+03  0.93458396196E+02 0.  0.
          5    1    4    4  502    0 -0.26245911287E+02  0.59800596298E+02  0.30333364053E+02  0.72160669008E+02  0.47000000000E+01 0. -1.
         -5    1    3    3    0  503 -0.40500254300E+02 -0.65977796286E+02 -0.40151372399E+01  0.77663064117E+02  0.47000000000E+01 0. -1.
          5    1    3    3  503    0  0.24909249701E+02 -0.15745819540E+02 -0.10165577295E+03  0.10594521097E+03  0.47000000000E+01 0. -1.
         -5    1    4    4    0  502  0.41836915885E+02  0.21923019527E+02  0.88374793967E+02  0.10031520585E+03  0.47000000000E+01 0.  1.
<mgrwt>
<rscale>  0 0.14346129E+03</rscale>
<asrwt>0</asrwt>
<pdfrwt beam="1">  1        2 0.26388223E-01 0.15015211E+03</pdfrwt>
<pdfrwt beam="2">  1       -2 0.28393954E-01 0.15015211E+03</pdfrwt>
<totfact> 0.22313105E+03</totfact>
</mgrwt>
</event>
<event>
 8    1  0.3407580E-004  0.1834876E+03  0.7546771E-02  0.1169690E+00
          2   -1    0    0  501    0  0.00000000000E+00  0.00000000000E+00  0.65595923004E+02  0.65595923004E+02  0.00000000000E+00 0. -1.
         -2   -1    0    0    0  501 -0.00000000000E+00 -0.00000000000E+00 -0.55533675937E+03  0.55533675937E+03  0.00000000000E+00 0.  1.
         25    2    1    2    0    0  0.72962269212E+02  0.11278726474E+03 -0.38749157099E+03  0.42873932579E+03  0.12499292809E+03 0.  0.
         23    2    1    2    0    0 -0.72962269212E+02 -0.11278726474E+03 -0.10224926538E+03  0.19219335659E+03  0.91863563137E+02 0.  0.
          5    1    4    4  502    0 -0.21721346505E+02 -0.76261871682E+02 -0.94807769304E+01  0.79997906833E+02  0.47000000000E+01 0. -1.
         -5    1    4    4    0  502 -0.51240922706E+02 -0.36525393053E+02 -0.92768488446E+02  0.11219544976E+03  0.47000000000E+01 0.  1.
          5    1    3    3  503    0  0.85533380883E+02  0.22815019179E+02 -0.14754978465E+03  0.17213225524E+03  0.47000000000E+01 0. -1.
         -5    1    3    3    0  503 -0.12571111671E+02  0.89972245557E+02 -0.23994178635E+03  0.25660707055E+03  0.47000000000E+01 0. -1.
<mgrwt>
<rscale>  0 0.17806422E+03</rscale>
<asrwt>0</asrwt>
<pdfrwt beam="1">  1        2 0.10091680E-01 0.18348758E+03</pdfrwt>
<pdfrwt beam="2">  1       -2 0.85436425E-01 0.18348758E+03</pdfrwt>
<totfact> 0.77090386E+02</totfact>
</mgrwt>
</event>
<event>
 8    1  0.3407580E-004  0.1301517E+03  0.7546771E-02  0.1241296E+00
          1   -1    0    0  501    0  0.00000000000E+00  0.00000000000E+00  0.43277467929E+03  0.43277467929E+03  0.00000000000E+00 0. -1.
         -1   -1    0    0    0  501 -0.00000000000E+00 -0.00000000000E+00 -0.30441453889E+02  0.30441453889E+02  0.00000000000E+00 0.  1.
         25    2    1    2    0    0  0.18155125024E+02  0.31398008980E+02  0.20036943602E+03  0.23892964586E+03  0.12499608492E+03 0.  0.
         23    2    1    2    0    0 -0.18155125024E+02 -0.31398008980E+02  0.20196378938E+03  0.22428648732E+03  0.90551712532E+02 0.  0.
          5    1    4    4  502    0  0.21313356510E+02 -0.11820059258E+01  0.15231191362E+03  0.15387223705E+03  0.47000000000E+01 0. -1.
         -5    1    3    3    0  503  0.41782594272E+02  0.30553022278E+02  0.20740543531E+03  0.21381856082E+03  0.47000000000E+01 0. -1.
          5    1    3    3  503    0 -0.23627469249E+02  0.84498670246E+00 -0.70359992916E+01  0.25111085035E+02  0.47000000000E+01 0. -1.
         -5    1    4    4    0  502 -0.39468481534E+02 -0.30216003055E+02  0.49651875759E+02  0.70414250273E+02  0.47000000000E+01 0.  1.
<mgrwt>
<rscale>  0 0.12109851E+03</rscale>
<asrwt>0</asrwt>
<pdfrwt beam="1">  1        1 0.66580715E-01 0.13015170E+03</pdfrwt>
<pdfrwt beam="2">  1       -1 0.46833009E-02 0.13015170E+03</pdfrwt>
<totfact> 0.10057794E+04</totfact>
</mgrwt>
</event>
<event>
 8    1  0.3407580E-004  0.1374013E+03  0.7546771E-02  0.1228912E+00
          1   -1    0    0  501    0  0.00000000000E+00  0.00000000000E+00  0.12351721130E+04  0.12351721130E+04  0.00000000000E+00 0. -1.
         -1   -1    0    0    0  501 -0.00000000000E+00 -0.00000000000E+00 -0.12437886075E+02  0.12437886075E+02  0.00000000000E+00 0.  1.
         25    2    1    2    0    0 -0.49415178822E+02  0.28501993135E+02  0.79162714112E+03  0.80346290310E+03  0.12499953036E+03 0.  0.
         23    2    1    2    0    0  0.49415178822E+02 -0.28501993135E+02  0.43110708582E+03  0.44414709599E+03  0.90327736169E+02 0.  0.
          5    1    4    4  502    0  0.65565406383E+02 -0.48296986393E+01  0.37720540579E+03  0.38292056182E+03  0.47000000000E+01 0. -1.
         -5    1    4    4    0  502 -0.16150227561E+02 -0.23672294496E+02  0.53901680022E+02  0.61226534168E+02  0.47000000000E+01 0.  1.
          5    1    3    3  503    0  0.22625368125E+01  0.60772480178E+02  0.57975057517E+03  0.58295045487E+03  0.47000000000E+01 0. -1.
         -5    1    3    3    0  503 -0.51677715635E+02 -0.32270487043E+02  0.21187656596E+03  0.22051244824E+03  0.47000000000E+01 0. -1.
<mgrwt>
<rscale>  0 0.12902372E+03</rscale>
<asrwt>0</asrwt>
<pdfrwt beam="1">  1        1 0.19002638E+00 0.13740126E+03</pdfrwt>
<pdfrwt beam="2">  1       -1 0.19135219E-02 0.13740126E+03</pdfrwt>
<totfact> 0.77045609E+03</totfact>
</mgrwt>
</event>
<event>
 8    1  0.3407580E-004  0.1913700E+03  0.7546771E-02  0.1162328E+00
         -2   -1    0    0    0  501 -0.00000000000E+00  0.00000000000E+00  0.40118504369E+02  0.40118504369E+02  0.00000000000E+00 0.  1.
          2   -1    0    0  501    0  0.00000000000E+00 -0.00000000000E+00 -0.96174077919E+03  0.96174077919E+03  0.00000000000E+00 0. -1.
         25    2    1    2    0    0  0.11754409145E+03  0.84734501082E+02 -0.28757435924E+03  0.34542941446E+03  0.12500367665E+03 0.  0.
         23    2    1    2    0    0 -0.11754409145E+03 -0.84734501082E+02 -0.63404791558E+03  0.65642986910E+03  0.88808021460E+02 0.  0.
          5    1    3    3  502    0  0.37662636504E+02 -0.19017645719E+02 -0.14809797669E+03  0.15406247349E+03  0.47000000000E+01 0. -1.
         -5    1    3    3    0  502  0.79881454948E+02  0.10375214680E+03 -0.13947638255E+03  0.19136694098E+03  0.47000000000E+01 0. -1.
          5    1    4    4  503    0 -0.10889894381E+03 -0.28255337019E+02 -0.41556923552E+03  0.43055455350E+03  0.47000000000E+01 0. -1.
         -5    1    4    4    0  503 -0.86451476449E+01 -0.56479164064E+02 -0.21847868007E+03  0.22587531559E+03  0.47000000000E+01 0.  1.
<mgrwt>
<rscale>  0 0.18577464E+03</rscale>
<asrwt>0</asrwt>
<pdfrwt beam="1">  1        2 0.14796010E+00 0.19136998E+03</pdfrwt>
<pdfrwt beam="2">  1       -2 0.61720783E-02 0.19136998E+03</pdfrwt>
<totfact> 0.38892867E+03</totfact>
</mgrwt>
</event>
<event>
 8    1  0.3407580E-004  0.2524510E+03  0.7546771E-02  0.1114060E+00
         -1   -1    0    0    0  501 -0.00000000000E+00  0.00000000000E+00  0.48322237833E+02  0.48322237833E+02  0.00000000000E+00 0.  1.
          1   -1    0    0  501    0  0.00000000000E+00 -0.00000000000E+00 -0.13970963458E+04  0.13970963458E+04  0.00000000000E+00 0. -1.
         25    2    1    2    0    0  0.35275365110E+01  0.21930397937E+03 -0.92985913529E+03  0.96351934147E+03  0.12499932411E+03 0.  0.
         23    2    1    2    0    0 -0.35275365110E+01 -0.21930397937E+03 -0.41891497266E+03  0.48189924214E+03  0.92900195807E+02 0.  0.
          5    1    3    3  502    0 -0.26269026555E+02  0.17848738715E+03 -0.51785805524E+03  0.54840392459E+03  0.47000000000E+01 0.  1.
         -5    1    4    4    0  503 -0.50427845221E+00 -0.64617370555E+02 -0.50039611354E+02  0.81863982182E+02  0.47000000000E+01 0.  1.
          5    1    4    4  503    0 -0.30232580588E+01 -0.15468660881E+03 -0.36887536130E+03  0.40003525996E+03  0.47000000000E+01 0. -1.
         -5    1    3    3    0  502  0.29796563066E+02  0.40816592214E+02 -0.41200108005E+03  0.41511541688E+03  0.47000000000E+01 0.  1.
<mgrwt>
<rscale>  0 0.24880909E+03</rscale>
<asrwt>0</asrwt>
<pdfrwt beam="1">  1        1 0.21493787E+00 0.25245100E+03</pdfrwt>
<pdfrwt beam="2">  1       -1 0.74341915E-02 0.25245100E+03</pdfrwt>
<totfact> 0.81012215E+02</totfact>
</mgrwt>
</event>
<event>
 8    1  0.3407580E-004  0.1405262E+03  0.7546771E-02  0.1223278E+00
          1   -1    0    0  501    0  0.00000000000E+00  0.00000000000E+00  0.37200225226E+02  0.37200225226E+02  0.00000000000E+00 0. -1.
         -1   -1    0    0    0  501 -0.00000000000E+00 -0.00000000000E+00 -0.46332419943E+03  0.46332419943E+03  0.00000000000E+00 0.  1.
         25    2    1    2    0    0 -0.58274185523E+02 -0.26999855294E+02 -0.16787653539E+03  0.21892955640E+03  0.12499098627E+03 0.  0.
         23    2    1    2    0    0  0.58274185523E+02  0.26999855294E+02 -0.25824743881E+03  0.28159486825E+03  0.92081796725E+02 0.  0.
          5    1    4    4  502    0  0.23939227339E+02 -0.10200893796E+02 -0.10121917538E+02  0.28314096392E+02  0.47000000000E+01 0. -1.
         -5    1    3    3    0  503 -0.56710663030E+02 -0.66531145082E+02 -0.15324055535E+03  0.17648583618E+03  0.47000000000E+01 0.  1.
          5    1    3    3  503    0 -0.15635224931E+01  0.39531289788E+02 -0.14635980040E+02  0.42443720226E+02  0.47000000000E+01 0.  1.
         -5    1    4    4    0  502  0.34334958185E+02  0.37200749090E+02 -0.24812552127E+03  0.25328077186E+03  0.47000000000E+01 0.  1.
<mgrwt>
<rscale>  0 0.13285603E+03</rscale>
<asrwt>0</asrwt>
<pdfrwt beam="1">  1        1 0.57231113E-02 0.14052622E+03</pdfrwt>
<pdfrwt beam="2">  1       -1 0.71280649E-01 0.14052622E+03</pdfrwt>
<totfact> 0.27583259E+03</totfact>
</mgrwt>
</event>
<event>
 8    1  0.3407580E-004  0.1605874E+03  0.7546771E-02  0.1193979E+00
         -1   -1    0    0    0  501 -0.00000000000E+00  0.00000000000E+00  0.64300535814E+02  0.64300535814E+02  0.00000000000E+00 0.  1.
          1   -1    0    0  501    0  0.00000000000E+00 -0.00000000000E+00 -0.38942069746E+03  0.38942069746E+03  0.00000000000E+00 0. -1.
         25    2    1    2    0    0 -0.10079956619E+03  0.24424947699E+01 -0.10325030771E+03  0.19091604905E+03  0.12498717301E+03 0.  0.
         23    2    1    2    0    0  0.10079956619E+03 -0.24424947699E+01 -0.22186985394E+03  0.26280518422E+03  0.98355551165E+02 0.  0.
          5    1    3    3  502    0  0.23594386135E+02  0.56393503714E+01  0.58119378060E+01  0.25384364297E+02  0.47000000000E+01 0. -1.
         -5    1    4    4    0  503  0.54523467642E+02 -0.10569675025E+02 -0.26326868024E+02  0.61641873217E+02  0.47000000000E+01 0.  1.
          5    1    4    4  503    0  0.46276098546E+02  0.81271802550E+01 -0.19554298591E+03  0.20116331101E+03  0.47000000000E+01 0. -1.
         -5    1    3    3    0  502 -0.12439395232E+03 -0.31968556015E+01 -0.10906224551E+03  0.16553168475E+03  0.47000000000E+01 0. -1.
<mgrwt>
<rscale>  0 0.15540937E+03</rscale>
<asrwt>0</asrwt>
<pdfrwt beam="1">  1        1 0.59910878E-01 0.16058740E+03</pdfrwt>
<pdfrwt beam="2">  1       -1 0.98923899E-02 0.16058740E+03</pdfrwt>
<totfact> 0.37891396E+03</totfact>
</mgrwt>
</event>
<event>
 8    1  0.3407580E-004  0.1284040E+03  0.7546771E-02  0.1246662E+00
         -2   -1    0    0    0  501 -0.00000000000E+00  0.00000000000E+00  0.22138343360E+03  0.22138343360E+03  0.00000000000E+00 0.  1.
          2   -1    0    0  501    0  0.00000000000E+00 -0.00000000000E+00 -0.57659625544E+02  0.57659625544E+02  0.00000000000E+00 0. -1.
         25    2    1    2    0    0  0.15543269709E+02  0.24930782370E+02  0.62451228357E+02  0.14278563203E+03  0.12499777457E+03 0.  0.
         23    2    1    2    0    0 -0.15543269709E+02 -0.24930782370E+02  0.10127257970E+03  0.13625742712E+03  0.86294923963E+02 0.  0.
          5    1    4    4  502    0  0.24715367908E+02 -0.38031805683E+02  0.35033214313E+02  0.57503771697E+02  0.47000000000E+01 0. -1.
         -5    1    3    3    0  503  0.57358613302E+02 -0.20728603088E+02  0.11009614110E+02  0.62152933227E+02  0.47000000000E+01 0. -1.
          5    1    3    3  503    0 -0.41815343593E+02  0.45659385458E+02  0.51441614247E+02  0.80632698805E+02  0.47000000000E+01 0. -1.
         -5    1    4    4    0  502 -0.40258637617E+02  0.13101023313E+02  0.66239365389E+02  0.78753655418E+02  0.47000000000E+01 0.  1.
<mgrwt>
<rscale>  0 0.11786467E+03</rscale>
<asrwt>0</asrwt>
<pdfrwt beam="1">  1        2 0.88707117E-02 0.12840397E+03</pdfrwt>
<pdfrwt beam="2">  1       -2 0.34058989E-01 0.12840397E+03</pdfrwt>
<totfact> 0.56898086E+03</totfact>
</mgrwt>
</event>
<event>
 8    1  0.3407580E-004  0.1312507E+03  0.7546771E-02  0.1238927E+00
         -2   -1    0    0    0  501 -0.00000000000E+00  0.00000000000E+00  0.85243187733E+01  0.85243187733E+01  0.00000000000E+00 0.  1.
          2   -1    0    0  501    0  0.00000000000E+00 -0.00000000000E+00 -0.15934275734E+04  0.15934275734E+04  0.00000000000E+00 0. -1.
         25    2    1    2    0    0 -0.37465363650E+02  0.14083532745E+02 -0.10031906164E+04  0.10117401683E+04  0.12499902390E+03 0.  0.
         23    2    1    2    0    0  0.37465363650E+02 -0.14083532745E+02 -0.58171263831E+03  0.59021172394E+03  0.91423662924E+02 0.  0.
          5    1    4    4  502    0  0.67168081448E+02 -0.15974538173E+02 -0.37791190719E+03  0.38419557081E+03  0.47000000000E+01 0. -1.
         -5    1    3    3    0  503 -0.17316736286E+02  0.69130321136E+02 -0.61217902067E+03  0.61633117234E+03  0.47000000000E+01 0. -1.
          5    1    3    3  503    0 -0.20148627364E+02 -0.55046788391E+02 -0.39101159569E+03  0.39540899593E+03  0.47000000000E+01 0. -1.
         -5    1    4    4    0  502 -0.29702717798E+02  0.18910054276E+01 -0.20380073112E+03  0.20601615314E+03  0.47000000000E+01 0.  1.
<mgrwt>
<rscale>  0 0.12256325E+03</rscale>
<asrwt>0</asrwt>
<pdfrwt beam="1">  1        2 0.24514235E+00 0.13125073E+03</pdfrwt>
<pdfrwt beam="2">  1       -2 0.13114356E-02 0.13125073E+03</pdfrwt>
<totfact> 0.16886763E+04</totfact>
</mgrwt>
</event>
<event>
 8    1  0.3407580E-004  0.1489995E+03  0.7546771E-02  0.1211112E+00
         -2   -1    0    0    0  501 -0.00000000000E+00  0.00000000000E+00  0.29403197945E+02  0.29403197945E+02  0.00000000000E+00 0.  1.
          2   -1    0    0  501    0  0.00000000000E+00 -0.00000000000E+00 -0.62669215943E+03  0.62669215943E+03  0.00000000000E+00 0. -1.
         25    2    1    2    0    0  0.31225070692E+02 -0.74839733449E+02 -0.35275250368E+03  0.38292973740E+03  0.12499945678E+03 0.  0.
         23    2    1    2    0    0 -0.31225070692E+02  0.74839733449E+02 -0.24453645781E+03  0.27316561997E+03  0.90804107809E+02 0.  0.
          5    1    4    4  502    0 -0.43957727115E+02  0.94800484232E+01 -0.15515049266E+03  0.16160420311E+03  0.47000000000E+01 0. -1.
         -5    1    3    3    0  503 -0.22776710420E+02 -0.77004782090E+02 -0.12380192989E+03  0.14763984166E+03  0.47000000000E+01 0.  1.
          5    1    3    3  503    0  0.54001781112E+02  0.21650486412E+01 -0.22895057379E+03  0.23528989574E+03  0.47000000000E+01 0.  1.
         -5    1    4    4    0  502  0.12732656423E+02  0.65359685026E+02 -0.89385965152E+02  0.11156141686E+03  0.47000000000E+01 0.  1.
<mgrwt>
<rscale>  0 0.14166081E+03</rscale>
<asrwt>0</asrwt>
<pdfrwt beam="1">  1        2 0.96414167E-01 0.14899951E+03</pdfrwt>
<pdfrwt beam="2">  1       -2 0.45235694E-02 0.14899951E+03</pdfrwt>
<totfact> 0.10503760E+04</totfact>
</mgrwt>
</event>
<event>
 8    1  0.3407580E-004  0.1338594E+03  0.7546771E-02  0.1233610E+00
          2   -1    0    0  501    0  0.00000000000E+00  0.00000000000E+00  0.11528574198E+04  0.11528574198E+04  0.00000000000E+00 0. -1.
         -2   -1    0    0    0  501 -0.00000000000E+00 -0.00000000000E+00 -0.13096739870E+02  0.13096739870E+02  0.00000000000E+00 0.  1.
         25    2    1    2    0    0  0.45187612559E+02  0.15902666290E+02  0.77251024919E+03  0.78402194755E+03  0.12499405589E+03 0.  0.
         23    2    1    2    0    0 -0.45187612559E+02 -0.15902666290E+02  0.36725043076E+03  0.38193221214E+03  0.93298020636E+02 0.  0.
          5    1    3    3  502    0 -0.17325049522E+02 -0.41410928183E+02  0.18626710838E+03  0.19165737131E+03  0.47000000000E+01 0.  1.
         -5    1    4    4    0  503  0.53711726746E+01  0.23143786433E+02  0.29532499369E+02  0.38193492447E+02  0.47000000000E+01 0.  1.
          5    1    4    4  503    0 -0.50558785234E+02 -0.39046452722E+02  0.33771793139E+03  0.34373871969E+03  0.47000000000E+01 0. -1.
         -5    1    3    3    0  502  0.62512662081E+02  0.57313594472E+02  0.58624314081E+03  0.59236457624E+03  0.47000000000E+01 0.  1.
<mgrwt>
<rscale>  0 0.12593817E+03</rscale>
<asrwt>0</asrwt>
<pdfrwt beam="1">  1        2 0.17736260E+00 0.13385936E+03</pdfrwt>
<pdfrwt beam="2">  1       -2 0.20148840E-02 0.13385936E+03</pdfrwt>
<totfact> 0.15617669E+04</totfact>
</mgrwt>
</event>
<event>
 8    1  0.3407580E-004  0.1375386E+03  0.7546771E-02  0.1228197E+00
          1   -1    0    0  501    0  0.00000000000E+00  0.00000000000E+00  0.65166960435E+03  0.65166960435E+03  0.00000000000E+00 0. -1.
         -1   -1    0    0    0  501 -0.00000000000E+00 -0.00000000000E+00 -0.25567328105E+02  0.25567328105E+02  0.00000000000E+00 0.  1.
         25    2    1    2    0    0 -0.57343037073E+02 -0.12245735598E+01  0.45051122625E+03  0.47103845368E+03  0.12500854528E+03 0.  0.
         23    2    1    2    0    0  0.57343037073E+02  0.12245735598E+01  0.17559104999E+03  0.20619847877E+03  0.91628992832E+02 0.  0.
          5    1    3    3  502    0 -0.16600464115E+02 -0.61603609132E+02  0.23199191254E+03  0.24065102857E+03  0.47000000000E+01 0. -1.
         -5    1    3    3    0  502 -0.40742572958E+02  0.60379035572E+02  0.21851931371E+03  0.23038742512E+03  0.47000000000E+01 0. -1.
          5    1    4    4  503    0 -0.63897968416E+00 -0.37125995968E+02  0.75172919326E+02  0.83975030048E+02  0.47000000000E+01 0. -1.
         -5    1    4    4    0  503  0.57982016757E+02  0.38350569527E+02  0.10041813067E+03  0.12222344872E+03  0.47000000000E+01 0.  1.
<mgrwt>
<rscale>  0 0.12950149E+03</rscale>
<asrwt>0</asrwt>
<pdfrwt beam="1">  1        1 0.10025685E+00 0.13753858E+03</pdfrwt>
<pdfrwt beam="2">  1       -1 0.39334356E-02 0.13753858E+03</pdfrwt>
<totfact> 0.75880320E+03</totfact>
</mgrwt>
</event>
<event>
 8    1  0.3407580E-004  0.1727366E+03  0.7546771E-02  0.1181510E+00
          1   -1    0    0  501    0  0.00000000000E+00  0.00000000000E+00  0.65744385103E+03  0.65744385103E+03  0.00000000000E+00 0. -1.
         -1   -1    0    0    0  501 -0.00000000000E+00 -0.00000000000E+00 -0.47318145442E+02  0.47318145442E+02  0.00000000000E+00 0.  1.
         25    2    1    2    0    0  0.26840938057E+02 -0.11615488003E+03  0.17996805711E+03  0.24945225072E+03  0.12500212677E+03 0.  0.
         23    2    1    2    0    0 -0.26840938057E+02  0.11615488003E+03  0.43015764848E+03  0.45530974576E+03  0.89771765750E+02 0.  0.
          5    1    4    4  502    0 -0.54005151460E+02  0.77073439605E+02  0.34504788699E+03  0.35768282848E+03  0.47000000000E+01 0. -1.
         -5    1    3    3    0  503 -0.32104250014E+02 -0.10833390358E+03  0.11819355471E+03  0.16358093993E+03  0.47000000000E+01 0.  1.
          5    1    3    3  503    0  0.58945188071E+02 -0.78209764522E+01  0.61774502405E+02  0.85871310790E+02  0.47000000000E+01 0.  1.
         -5    1    4    4    0  502  0.27164213402E+02  0.39081440425E+02  0.85109761495E+02  0.97626917278E+02  0.47000000000E+01 0.  1.
<mgrwt>
<rscale>  0 0.16653540E+03</rscale>
<asrwt>0</asrwt>
<pdfrwt beam="1">  1        1 0.10114520E+00 0.17273657E+03</pdfrwt>
<pdfrwt beam="2">  1       -1 0.72797152E-02 0.17273657E+03</pdfrwt>
<totfact> 0.30284873E+03</totfact>
</mgrwt>
</event>
<event>
 8    1  0.3407580E-004  0.1382374E+03  0.7546771E-02  0.1227274E+00
         -4   -1    0    0    0  501 -0.00000000000E+00  0.00000000000E+00  0.11259602177E+03  0.11259602177E+03  0.00000000000E+00 0.  1.
          4   -1    0    0  501    0  0.00000000000E+00 -0.00000000000E+00 -0.16637438884E+03  0.16637438884E+03  0.00000000000E+00 0. -1.
         25    2    1    2    0    0  0.53088654582E+02  0.25812986462E+02 -0.89540571677E+02  0.16470306693E+03  0.12499948306E+03 0.  0.
         23    2    1    2    0    0 -0.53088654582E+02 -0.25812986462E+02  0.35762204604E+02  0.11426734367E+03  0.91067969320E+02 0.  0.
          5    1    3    3  502    0 -0.11468842526E+02  0.51966068787E+02 -0.77085628115E+02  0.93788542562E+02  0.47000000000E+01 0. -1.
         -5    1    3    3    0  502  0.64557497107E+02 -0.26153082325E+02 -0.12454943563E+02  0.70914524373E+02  0.47000000000E+01 0. -1.
          5    1    4    4  503    0 -0.64838735425E+02 -0.55209081684E+01 -0.66463226718E+01  0.65580527930E+02  0.47000000000E+01 0. -1.
         -5    1    4    4    0  503  0.11750080844E+02 -0.20292078293E+02  0.42408527275E+02  0.48686815741E+02  0.47000000000E+01 0.  1.
<mgrwt>
<rscale>  0 0.13012286E+03</rscale>
<asrwt>0</asrwt>
<pdfrwt beam="1">  1        4 0.25596060E-01 0.13823743E+03</pdfrwt>
<pdfrwt beam="2">  1       -4 0.17322465E-01 0.13823743E+03</pdfrwt>
<totfact> 0.69574040E+02</totfact>
</mgrwt>
</event>
<event>
 8    1  0.3407580E-004  0.1497266E+03  0.7546771E-02  0.1209735E+00
          2   -1    0    0  501    0  0.00000000000E+00  0.00000000000E+00  0.27368232229E+03  0.27368232229E+03  0.00000000000E+00 0. -1.
         -2   -1    0    0    0  501 -0.00000000000E+00 -0.00000000000E+00 -0.92485490201E+02  0.92485490201E+02  0.00000000000E+00 0.  1.
         25    2    1    2    0    0  0.11982347871E+02  0.81544246116E+02  0.35370317772E+01  0.14976838072E+03  0.12500006614E+03 0.  0.
         23    2    1    2    0    0 -0.11982347871E+02 -0.81544246116E+02  0.17765980031E+03  0.21639943177E+03  0.92047100381E+02 0.  0.
          5    1    4    4  502    0 -0.23659170356E+02 -0.39552467331E+02  0.16409753217E+03  0.17051171243E+03  0.47000000000E+01 0. -1.
         -5    1    4    4    0  502  0.11676822484E+02 -0.41991778786E+02  0.13562268149E+02  0.45887719340E+02  0.47000000000E+01 0.  1.
          5    1    3    3  503    0  0.25211751748E+02  0.11268517024E+03  0.25710680703E+01  0.11559533040E+03  0.47000000000E+01 0.  1.
         -5    1    3    3    0  503 -0.13229403877E+02 -0.31140924127E+02  0.96596370695E+00  0.34173050322E+02  0.47000000000E+01 0.  1.
<mgrwt>
<rscale>  0 0.14270489E+03</rscale>
<asrwt>0</asrwt>
<pdfrwt beam="1">  1        2 0.42104972E-01 0.14972661E+03</pdfrwt>
<pdfrwt beam="2">  1       -2 0.14228537E-01 0.14972661E+03</pdfrwt>
<totfact> 0.43620564E+03</totfact>
</mgrwt>
</event>
<event>
 8    1  0.3407580E-004  0.1340254E+03  0.7546771E-02  0.1234477E+00
         -1   -1    0    0    0  501 -0.00000000000E+00  0.00000000000E+00  0.30952058437E+02  0.30952058437E+02  0.00000000000E+00 0.  1.
          1   -1    0    0  501    0  0.00000000000E+00 -0.00000000000E+00 -0.71608411355E+03  0.71608411355E+03  0.00000000000E+00 0. -1.
         25    2    1    2    0    0 -0.30410875595E+02  0.37587326176E+02 -0.59664840873E+03  0.61151626290E+03  0.12500075081E+03 0.  0.
         23    2    1    2    0    0  0.30410875595E+02 -0.37587326176E+02 -0.88483646380E+02  0.13551990909E+03  0.90546461215E+02 0.  0.
          5    1    4    4  502    0 -0.19014986161E+02 -0.22229591442E+02 -0.76710370235E+02  0.82233176614E+02  0.47000000000E+01 0. -1.
         -5    1    3    3    0  503  0.45822351457E+01 -0.41136443902E+02 -0.11759366647E+03  0.12475401512E+03  0.47000000000E+01 0.  1.
          5    1    3    3  503    0 -0.34993110740E+02  0.78723770079E+02 -0.47905474226E+03  0.48676224778E+03  0.47000000000E+01 0.  1.
         -5    1    4    4    0  502  0.49425861755E+02 -0.15357734734E+02 -0.11773276145E+02  0.53286732473E+02  0.47000000000E+01 0.  1.
<mgrwt>
<rscale>  0 0.12537945E+03</rscale>
<asrwt>0</asrwt>
<pdfrwt beam="1">  1        1 0.11016679E+00 0.13402543E+03</pdfrwt>
<pdfrwt beam="2">  1       -1 0.47618551E-02 0.13402543E+03</pdfrwt>
<totfact> 0.50041245E+03</totfact>
</mgrwt>
</event>
<event>
 8    1  0.3407580E-004  0.1489231E+03  0.7546771E-02  0.1208678E+00
         -1   -1    0    0    0  501 -0.00000000000E+00  0.00000000000E+00  0.33239877893E+03  0.33239877893E+03  0.00000000000E+00 0.  1.
          1   -1    0    0  501    0  0.00000000000E+00 -0.00000000000E+00 -0.59940415603E+02  0.59940415603E+02  0.00000000000E+00 0. -1.
         25    2    1    2    0    0 -0.42099155793E+02 -0.69110376457E+02  0.18240938414E+03  0.23548093581E+03  0.12501801732E+03 0.  0.
         23    2    1    2    0    0  0.42099155793E+02  0.69110376457E+02  0.90048979185E+02  0.15685825872E+03  0.99735207549E+02 0.  0.
          5    1    3    3  502    0  0.43198758415E+02 -0.31416526726E+02  0.85374842180E+02  0.10081708465E+03  0.47000000000E+01 0.  1.
         -5    1    4    4    0  503 -0.24951158990E+02  0.32055318665E+02  0.32938485499E+01  0.41024909846E+02  0.47000000000E+01 0.  1.
          5    1    4    4  503    0  0.67050314783E+02  0.37055057792E+02  0.86755130635E+02  0.11583334888E+03  0.47000000000E+01 0. -1.
         -5    1    3    3    0  502 -0.85297914208E+02 -0.37693849731E+02  0.97034541963E+02  0.13466385116E+03  0.47000000000E+01 0.  1.
<mgrwt>
<rscale>  0 0.14351354E+03</rscale>
<asrwt>0</asrwt>
<pdfrwt beam="1">  1        1 0.92216026E-02 0.14892309E+03</pdfrwt>
<pdfrwt beam="2">  1       -1 0.51138272E-01 0.14892309E+03</pdfrwt>
<totfact> 0.27381721E+03</totfact>
</mgrwt>
</event>
<event>
 8    1  0.3407580E-004  0.2137289E+03  0.7546771E-02  0.1142219E+00
          1   -1    0    0  501    0  0.00000000000E+00  0.00000000000E+00  0.91516030816E+03  0.91516030816E+03  0.00000000000E+00 0. -1.
         -1   -1    0    0    0  501 -0.00000000000E+00 -0.00000000000E+00 -0.45899521105E+02  0.45899521105E+02  0.00000000000E+00 0.  1.
         25    2    1    2    0    0 -0.99489385054E+02 -0.14197429316E+03  0.46275703329E+03  0.50972943920E+03  0.12500076670E+03 0.  0.
         23    2    1    2    0    0  0.99489385054E+02  0.14197429316E+03  0.40650375377E+03  0.45133039006E+03  0.91645957404E+02 0.  0.
          5    1    3    3  502    0 -0.95889146187E+02 -0.11015928906E+03  0.45291725026E+03  0.47590537180E+03  0.47000000000E+01 0.  1.
         -5    1    3    3    0  502 -0.36002388667E+01 -0.31815004103E+02  0.98397830321E+01  0.33824067409E+02  0.47000000000E+01 0.  1.
          5    1    4    4  503    0  0.69880700980E+02  0.93071054101E+02  0.35713355249E+03  0.37564876919E+03  0.47000000000E+01 0. -1.
         -5    1    4    4    0  503  0.29608684074E+02  0.48903239063E+02  0.49370201279E+02  0.75681620872E+02  0.47000000000E+01 0.  1.
<mgrwt>
<rscale>  0 0.20917743E+03</rscale>
<asrwt>0</asrwt>
<pdfrwt beam="1">  1        1 0.14079388E+00 0.21372887E+03</pdfrwt>
<pdfrwt beam="2">  1       -1 0.70614655E-02 0.21372887E+03</pdfrwt>
<totfact> 0.19319314E+03</totfact>
</mgrwt>
</event>
<event>
 8    1  0.3407580E-004  0.1258466E+03  0.7546771E-02  0.1249641E+00
          2   -1    0    0  501    0  0.00000000000E+00  0.00000000000E+00  0.48074767212E+03  0.48074767212E+03  0.00000000000E+00 0. -1.
         -2   -1    0    0    0  501 -0.00000000000E+00 -0.00000000000E+00 -0.40254799747E+02  0.40254799747E+02  0.00000000000E+00 0.  1.
         25    2    1    2    0    0 -0.84128458386E+01 -0.11997631846E+02  0.40332527690E+03  0.42250283109E+03  0.12499057620E+03 0.  0.
         23    2    1    2    0    0  0.84128458386E+01  0.11997631846E+02  0.37167595469E+02  0.98499640782E+02  0.90033493413E+02 0.  0.
          5    1    4    4  502    0  0.13325705374E+02 -0.32112374760E+02  0.40694020314E+02  0.53729622424E+02  0.47000000000E+01 0. -1.
         -5    1    4    4    0  502 -0.49128595359E+01  0.44110006606E+02 -0.35264248445E+01  0.44770018358E+02  0.47000000000E+01 0.  1.
          5    1    3    3  503    0 -0.51613091168E+02 -0.39454790483E+02  0.30129829712E+03  0.30825856926E+03  0.47000000000E+01 0. -1.
         -5    1    3    3    0  503  0.43200245330E+02  0.27457158637E+02  0.10202697978E+03  0.11424426183E+03  0.47000000000E+01 0. -1.
<mgrwt>
<rscale>  0 0.11611849E+03</rscale>
<asrwt>0</asrwt>
<pdfrwt beam="1">  1        2 0.73961176E-01 0.12584659E+03</pdfrwt>
<pdfrwt beam="2">  1       -2 0.61930465E-02 0.12584659E+03</pdfrwt>
<totfact> 0.87043624E+03</totfact>
</mgrwt>
</event>
<event>
 8    1  0.3407580E-004  0.1265617E+03  0.7546771E-02  0.1247525E+00
          2   -1    0    0  501    0  0.00000000000E+00  0.00000000000E+00  0.57307791602E+02  0.57307791602E+02  0.00000000000E+00 0. -1.
         -2   -1    0    0    0  501 -0.00000000000E+00 -0.00000000000E+00 -0.22895411705E+03  0.22895411705E+03  0.00000000000E+00 0.  1.
         25    2    1    2    0    0 -0.13506863790E+02  0.14428497926E+02 -0.58457911731E+02  0.13941011924E+03  0.12500894761E+03 0.  0.
         23    2    1    2    0    0  0.13506863790E+02 -0.14428497926E+02 -0.11318841371E+03  0.14685178940E+03  0.91450610332E+02 0.  0.
          5    1    4    4  502    0 -0.23344861227E+02 -0.30091830331E+01  0.31356936095E+01  0.24206616918E+02  0.47000000000E+01 0. -1.
         -5    1    3    3    0  503 -0.25611721781E+02  0.49606908918E+02 -0.78848428808E+02  0.96726265464E+02  0.47000000000E+01 0. -1.
          5    1    3    3  503    0  0.12104857991E+02 -0.35178410993E+02  0.20390517078E+02  0.42683853781E+02  0.47000000000E+01 0. -1.
         -5    1    4    4    0  502  0.36851725017E+02 -0.11419314893E+02 -0.11632410732E+03  0.12264517249E+03  0.47000000000E+01 0.  1.
<mgrwt>
<rscale>  0 0.11735494E+03</rscale>
<asrwt>0</asrwt>
<pdfrwt beam="1">  1        2 0.88165832E-02 0.12656166E+03</pdfrwt>
<pdfrwt beam="2">  1       -2 0.35223711E-01 0.12656166E+03</pdfrwt>
<totfact> 0.53831513E+03</totfact>
</mgrwt>
</event>
<event>
 8    1  0.3407580E-004  0.1644876E+03  0.7546771E-02  0.1191006E+00
          2   -1    0    0  501    0  0.00000000000E+00  0.00000000000E+00  0.48440485564E+02  0.48440485564E+02  0.00000000000E+00 0. -1.
         -2   -1    0    0    0  501 -0.00000000000E+00 -0.00000000000E+00 -0.55603181686E+03  0.55603181686E+03  0.00000000000E+00 0.  1.
         25    2    1    2    0    0  0.94524178909E+02  0.49953464504E+02 -0.15869948385E+03  0.22856442603E+03  0.12500400655E+03 0.  0.
         23    2    1    2    0    0 -0.94524178909E+02 -0.49953464504E+02 -0.34889184744E+03  0.37590787640E+03  0.90283117536E+02 0.  0.
          5    1    4    4  502    0 -0.58975163935E+02 -0.10229910585E+02 -0.29076156225E+03  0.29689576810E+03  0.47000000000E+01 0.  1.
         -5    1    4    4    0  502 -0.35549014974E+02 -0.39723553919E+02 -0.58130285190E+02  0.79012108299E+02  0.47000000000E+01 0. -1.
          5    1    3    3  503    0 -0.30538576057E+02  0.15608122120E+02 -0.30338427311E+02  0.46029645615E+02  0.47000000000E+01 0.  1.
         -5    1    3    3    0  503  0.12506275497E+03  0.34345342384E+02 -0.12836105654E+03  0.18253478041E+03  0.47000000000E+01 0.  1.
<mgrwt>
<rscale>  0 0.15797189E+03</rscale>
<asrwt>0</asrwt>
<pdfrwt beam="1">  1        2 0.74523827E-02 0.16448760E+03</pdfrwt>
<pdfrwt beam="2">  1       -2 0.85543353E-01 0.16448760E+03</pdfrwt>
<totfact> 0.11199764E+03</totfact>
</mgrwt>
</event>
<event>
 8    1  0.3407580E-004  0.1541297E+03  0.7546771E-02  0.1203956E+00
          2   -1    0    0  501    0  0.00000000000E+00  0.00000000000E+00  0.40293898036E+03  0.40293898036E+03  0.00000000000E+00 0.  1.
         -2   -1    0    0    0  501 -0.00000000000E+00 -0.00000000000E+00 -0.49737542059E+02  0.49737542059E+02  0.00000000000E+00 0. -1.
         25    2    1    2    0    0  0.38288651690E+02 -0.81623176776E+02  0.20941853049E+03  0.26002323517E+03  0.12501039188E+03 0.  0.
         23    2    1    2    0    0 -0.38288651690E+02  0.81623176776E+02  0.14378290781E+03  0.19265328725E+03  0.91177851888E+02 0.  0.
          5    1    4    4  502    0 -0.50935176371E+02  0.81642608271E+01  0.43676762126E+02  0.67755419685E+02  0.47000000000E+01 0. -1.
         -5    1    3    3    0  503  0.58709524532E+01 -0.23398107076E+02 -0.12989257624E+02  0.27798386843E+02  0.47000000000E+01 0.  1.
          5    1    3    3  503    0  0.32417699237E+02 -0.58225069700E+02  0.22240778811E+03  0.23222484832E+03  0.47000000000E+01 0.  1.
         -5    1    4    4    0  502  0.12646524681E+02  0.73458915949E+02  0.10010614568E+03  0.12489786757E+03  0.47000000000E+01 0.  1.
<mgrwt>
<rscale>  0 0.14720016E+03</rscale>
<asrwt>0</asrwt>
<pdfrwt beam="1">  1        2 0.61990610E-01 0.15412969E+03</pdfrwt>
<pdfrwt beam="2">  1       -2 0.76519298E-02 0.15412969E+03</pdfrwt>
<totfact> 0.77221201E+03</totfact>
</mgrwt>
</event>
<event>
 8    1  0.3407580E-004  0.2596978E+03  0.7546771E-02  0.1109530E+00
         -1   -1    0    0    0  501 -0.00000000000E+00  0.00000000000E+00  0.64741888997E+02  0.64741888997E+02  0.00000000000E+00 0.  1.
          1   -1    0    0  501    0  0.00000000000E+00 -0.00000000000E+00 -0.12861808960E+04  0.12861808960E+04  0.00000000000E+00 0. -1.
         25    2    1    2    0    0  0.18906441891E+03  0.12677207519E+03 -0.29737669996E+03  0.39481112516E+03  0.12500563718E+03 0.  0.
         23    2    1    2    0    0 -0.18906441891E+03 -0.12677207519E+03 -0.92406230708E+03  0.95611165987E+03  0.91879514710E+02 0.  0.
          5    1    3    3  502    0  0.10723568508E+03  0.11117169222E+03 -0.26201532328E+03  0.30419197382E+03  0.47000000000E+01 0.  1.
         -5    1    3    3    0  502  0.81828733826E+02  0.15600382969E+02 -0.35361376681E+02  0.90619151338E+02  0.47000000000E+01 0.  1.
          5    1    4    4  503    0 -0.54598434918E+02 -0.27808708287E+02 -0.43490100105E+03  0.43922122452E+03  0.47000000000E+01 0. -1.
         -5    1    4    4    0  503 -0.13446598399E+03 -0.98963366905E+02 -0.48916130603E+03  0.51689043535E+03  0.47000000000E+01 0.  1.
<mgrwt>
<rscale>  0 0.25606682E+03</rscale>
<asrwt>0</asrwt>
<pdfrwt beam="1">  1        1 0.19787396E+00 0.25969775E+03</pdfrwt>
<pdfrwt beam="2">  1       -1 0.99602918E-02 0.25969775E+03</pdfrwt>
<totfact> 0.61402530E+02</totfact>
</mgrwt>
</event>
<event>
 8    1  0.3407580E-004  0.1629044E+03  0.7546771E-02  0.1192161E+00
          1   -1    0    0  501    0  0.00000000000E+00  0.00000000000E+00  0.30749999784E+03  0.30749999784E+03  0.00000000000E+00 0. -1.
         -1   -1    0    0    0  501 -0.00000000000E+00 -0.00000000000E+00 -0.79357268745E+02  0.79357268745E+02  0.00000000000E+00 0.  1.
         25    2    1    2    0    0 -0.29345237894E+02  0.10025977639E+03  0.16823798901E+03  0.23418338252E+03  0.12499867981E+03 0.  0.
         23    2    1    2    0    0  0.29345237894E+02 -0.10025977639E+03  0.59904740082E+02  0.15267388406E+03  0.93848661367E+02 0.  0.
          5    1    3    3  502    0 -0.26545593837E+02 -0.13554243453E+02  0.92665859888E+02  0.97454798017E+02  0.47000000000E+01 0.  1.
         -5    1    3    3    0  502 -0.27996440571E+01  0.11381401985E+03  0.75572129120E+02  0.13672858450E+03  0.47000000000E+01 0.  1.
          5    1    4    4  503    0 -0.28408054644E+02 -0.57185903968E+02  0.97536754271E+01  0.64764723158E+02  0.47000000000E+01 0. -1.
         -5    1    4    4    0  503  0.57753292538E+02 -0.43073872425E+02  0.50151064655E+02  0.87909160903E+02  0.47000000000E+01 0.  1.
<mgrwt>
<rscale>  0 0.15696938E+03</rscale>
<asrwt>0</asrwt>
<pdfrwt beam="1">  1        1 0.47307691E-01 0.16290438E+03</pdfrwt>
<pdfrwt beam="2">  1       -1 0.12208811E-01 0.16290438E+03</pdfrwt>
<totfact> 0.36864049E+03</totfact>
</mgrwt>
</event>
<event>
 8    1  0.3407580E-004  0.1267719E+03  0.7546771E-02  0.1246990E+00
         -1   -1    0    0    0  501 -0.00000000000E+00  0.00000000000E+00  0.16252293994E+03  0.16252293994E+03  0.00000000000E+00 0.  1.
          1   -1    0    0  501    0  0.00000000000E+00 -0.00000000000E+00 -0.76710499315E+02  0.76710499315E+02  0.00000000000E+00 0. -1.
         25    2    1    2    0    0 -0.15397424074E+02  0.14574782190E+02  0.66554543657E+02  0.14318039600E+03  0.12498645356E+03 0.  0.
         23    2    1    2    0    0  0.15397424074E+02 -0.14574782190E+02  0.19257896968E+02  0.96053043255E+02  0.91683234994E+02 0.  0.
          5    1    4    4  502    0 -0.53810355075E+01 -0.34260452113E+02 -0.25089728633E+02  0.43061799834E+02  0.47000000000E+01 0. -1.
         -5    1    4    4    0  502  0.20778459582E+02  0.19685669923E+02  0.44347625600E+02  0.52991243421E+02  0.47000000000E+01 0.  1.
          5    1    3    3  503    0 -0.29561538232E+02 -0.50183609700E+02  0.18932063836E+02  0.61423059727E+02  0.47000000000E+01 0.  1.
         -5    1    3    3    0  503  0.14164114158E+02  0.64758391890E+02  0.47622479820E+02  0.81757336272E+02  0.47000000000E+01 0.  1.
<mgrwt>
<rscale>  0 0.11767056E+03</rscale>
<asrwt>0</asrwt>
<pdfrwt beam="1">  1        1 0.11801615E-01 0.12677192E+03</pdfrwt>
<pdfrwt beam="2">  1       -1 0.25003529E-01 0.12677192E+03</pdfrwt>
<totfact> 0.67345483E+03</totfact>
</mgrwt>
</event>
<event>
 8    1  0.3407580E-004  0.3183482E+03  0.7546771E-02  0.1077797E+00
          1   -1    0    0  501    0  0.00000000000E+00  0.00000000000E+00  0.11098087023E+04  0.11098087023E+04  0.00000000000E+00 0. -1.
         -1   -1    0    0    0  501 -0.00000000000E+00 -0.00000000000E+00 -0.95484144051E+02  0.95484144051E+02  0.00000000000E+00 0.  1.
         25    2    1    2    0    0  0.16384674456E+03 -0.24264379061E+03  0.68476107459E+03  0.75514457039E+03  0.12499531226E+03 0.  0.
         23    2    1    2    0    0 -0.16384674456E+03  0.24264379061E+03  0.32956348368E+03  0.45014827598E+03  0.91102227064E+02 0.  0.
          5    1    4    4  502    0 -0.10593165499E+03  0.12452558168E+03  0.24186351398E+03  0.29197291897E+03  0.47000000000E+01 0. -1.
         -5    1    4    4    0  502 -0.57915089571E+02  0.11811820892E+03  0.87699969700E+02  0.15817535701E+03  0.47000000000E+01 0.  1.
          5    1    3    3  503    0  0.50748062912E+02 -0.13173165605E+03  0.45199803595E+03  0.47355349180E+03  0.47000000000E+01 0. -1.
         -5    1    3    3    0  503  0.11309868165E+03 -0.11091213455E+03  0.23276303865E+03  0.28159107859E+03  0.47000000000E+01 0. -1.
<mgrwt>
<rscale>  0 0.31537710E+03</rscale>
<asrwt>0</asrwt>
<pdfrwt beam="1">  1        1 0.17073979E+00 0.31834823E+03</pdfrwt>
<pdfrwt beam="2">  1       -1 0.14689869E-01 0.31834823E+03</pdfrwt>
<totfact> 0.44108070E+02</totfact>
</mgrwt>
</event>
<event>
 8    1  0.3407580E-004  0.1374781E+03  0.7546771E-02  0.1228223E+00
          1   -1    0    0  501    0  0.00000000000E+00  0.00000000000E+00  0.46155203925E+03  0.46155203925E+03  0.00000000000E+00 0. -1.
         -1   -1    0    0    0  501 -0.00000000000E+00 -0.00000000000E+00 -0.34341397852E+02  0.34341397852E+02  0.00000000000E+00 0.  1.
         25    2    1    2    0    0 -0.17338285859E+02  0.54528974328E+02  0.18383173111E+03  0.22955245099E+03  0.12500478869E+03 0.  0.
         23    2    1    2    0    0  0.17338285859E+02 -0.54528974328E+02  0.24337891029E+03  0.26634098611E+03  0.91816129904E+02 0.  0.
          5    1    4    4  502    0 -0.25208866776E+02 -0.41603258394E+02  0.58973126836E+02  0.76591368717E+02  0.47000000000E+01 0.  1.
         -5    1    3    3    0  503  0.10784253825E+02  0.66297404759E+02  0.18679939745E+03  0.19856422361E+03  0.47000000000E+01 0. -1.
          5    1    3    3  503    0 -0.28122539684E+02 -0.11768430431E+02 -0.29676663420E+01  0.30988227387E+02  0.47000000000E+01 0. -1.
         -5    1    4    4    0  502  0.42547152635E+02 -0.12925715934E+02  0.18440578345E+03  0.18974961739E+03  0.47000000000E+01 0. -1.
<mgrwt>
<rscale>  0 0.12948454E+03</rscale>
<asrwt>0</asrwt>
<pdfrwt beam="1">  1        1 0.71008002E-01 0.13747808E+03</pdfrwt>
<pdfrwt beam="2">  1       -1 0.52832923E-02 0.13747808E+03</pdfrwt>
<totfact> 0.77799670E+03</totfact>
</mgrwt>
</event>
<event>
 8    1  0.3407580E-004  0.1535753E+03  0.7546771E-02  0.1204703E+00
         -2   -1    0    0    0  501 -0.00000000000E+00  0.00000000000E+00  0.18995101640E+02  0.18995101640E+02  0.00000000000E+00 0.  1.
          2   -1    0    0  501    0  0.00000000000E+00 -0.00000000000E+00 -0.12110724008E+04  0.12110724008E+04  0.00000000000E+00 0. -1.
         25    2    1    2    0    0 -0.38011726494E+02 -0.80726448539E+02 -0.87363130171E+03  0.88702707318E+03  0.12499490543E+03 0.  0.
         23    2    1    2    0    0  0.38011726494E+02  0.80726448539E+02 -0.31844599750E+03  0.34304042931E+03  0.91144017751E+02 0.  0.
          5    1    4    4  502    0  0.40318201324E+02  0.16940277410E+02 -0.22822259563E+03  0.23242240321E+03  0.47000000000E+01 0. -1.
         -5    1    3    3    0  503 -0.60322511604E+02  0.82319388083E+01 -0.39048606473E+03  0.39523161181E+03  0.47000000000E+01 0.  1.
          5    1    3    3  503    0  0.22310785111E+02 -0.88958387347E+02 -0.48314523698E+03  0.49179546137E+03  0.47000000000E+01 0.  1.
         -5    1    4    4    0  502 -0.23064748301E+01  0.63786171128E+02 -0.90223401866E+02  0.11061802610E+03  0.47000000000E+01 0.  1.
<mgrwt>
<rscale>  0 0.14660905E+03</rscale>
<asrwt>0</asrwt>
<pdfrwt beam="1">  1        2 0.18631890E+00 0.15357531E+03</pdfrwt>
<pdfrwt beam="2">  1       -2 0.29223222E-02 0.15357531E+03</pdfrwt>
<totfact> 0.84764760E+03</totfact>
</mgrwt>
</event>
<event>
 8    1  0.3407580E-004  0.1311665E+03  0.7546771E-02  0.1238932E+00
          1   -1    0    0  501    0  0.00000000000E+00  0.00000000000E+00  0.12484560477E+03  0.12484560477E+03  0.00000000000E+00 0. -1.
         -1   -1    0    0    0  501 -0.00000000000E+00 -0.00000000000E+00 -0.13580695993E+03  0.13580695993E+03  0.00000000000E+00 0.  1.
         25    2    1    2    0    0  0.12372063568E+02 -0.37759901854E+02 -0.65662205441E+02  0.14668389161E+03  0.12500304272E+03 0.  0.
         23    2    1    2    0    0 -0.12372063568E+02  0.37759901854E+02  0.54700850281E+02  0.11396867308E+03  0.91748554636E+02 0.  0.
          5    1    4    4  502    0 -0.35945898852E+02  0.13195412148E+02  0.67126241908E+02  0.77422534824E+02  0.47000000000E+01 0. -1.
         -5    1    3    3    0  503  0.37438950840E+02 -0.31028399451E+02 -0.95249097430E+02  0.10704633190E+03  0.47000000000E+01 0. -1.
          5    1    3    3  503    0 -0.25066887272E+02 -0.67315024033E+01  0.29586891989E+02  0.39637559709E+02  0.47000000000E+01 0. -1.
         -5    1    4    4    0  502  0.23573835284E+02  0.24564489707E+02 -0.12425391626E+02  0.36546138258E+02  0.47000000000E+01 0.  1.
<mgrwt>
<rscale>  0 0.12256008E+03</rscale>
<asrwt>0</asrwt>
<pdfrwt beam="1">  1        1 0.19207016E-01 0.13116645E+03</pdfrwt>
<pdfrwt beam="2">  1       -1 0.20893379E-01 0.13116645E+03</pdfrwt>
<totfact> 0.48170270E+03</totfact>
</mgrwt>
</event>
<event>
 8    1  0.3407580E-004  0.1915312E+03  0.7546771E-02  0.1161826E+00
          1   -1    0    0  501    0  0.00000000000E+00  0.00000000000E+00  0.58654486443E+02  0.58654486443E+02  0.00000000000E+00 0. -1.
         -1   -1    0    0    0  501 -0.00000000000E+00 -0.00000000000E+00 -0.64453810696E+03  0.64453810696E+03  0.00000000000E+00 0.  1.
         25    2    1    2    0    0 -0.12472396195E+03  0.74189215823E+02 -0.43285923839E+03  0.47334061373E+03  0.12499643963E+03 0.  0.
         23    2    1    2    0    0  0.12472396195E+03 -0.74189215823E+02 -0.15302438212E+03  0.22985197967E+03  0.91407683496E+02 0.  0.
          5    1    4    4  502    0  0.38915182284E+02  0.16964476782E+02 -0.20128128183E+02  0.47216696505E+02  0.47000000000E+01 0. -1.
         -5    1    3    3    0  503 -0.66222093645E+02 -0.17489179225E+02 -0.87418533759E+02  0.11115451912E+03  0.47000000000E+01 0. -1.
          5    1    3    3  503    0 -0.58501868309E+02  0.91678395048E+02 -0.34544070463E+03  0.36218609461E+03  0.47000000000E+01 0. -1.
         -5    1    4    4    0  502  0.85808779671E+02 -0.91153692605E+02 -0.13289625394E+03  0.18263528316E+03  0.47000000000E+01 0.  1.
<mgrwt>
<rscale>  0 0.18631666E+03</rscale>
<asrwt>0</asrwt>
<pdfrwt beam="1">  1        1 0.90237668E-02 0.19153124E+03</pdfrwt>
<pdfrwt beam="2">  1       -1 0.99159713E-01 0.19153124E+03</pdfrwt>
<totfact> 0.75453539E+02</totfact>
</mgrwt>
</event>
<event>
 8    1  0.3407580E-004  0.1371967E+03  0.7546771E-02  0.1229169E+00
         -2   -1    0    0    0  501 -0.00000000000E+00  0.00000000000E+00  0.16779392202E+03  0.16779392202E+03  0.00000000000E+00 0.  1.
          2   -1    0    0  501    0  0.00000000000E+00 -0.00000000000E+00 -0.93800598314E+02  0.93800598314E+02  0.00000000000E+00 0. -1.
         25    2    1    2    0    0  0.44205553445E+02  0.35257759745E+02  0.71759286863E+02  0.15483004601E+03  0.12500282924E+03 0.  0.
         23    2    1    2    0    0 -0.44205553445E+02 -0.35257759745E+02  0.22340368432E+01  0.10676447432E+03  0.90534090151E+02 0.  0.
          5    1    3    3  502    0 -0.46279070958E+01  0.62836697041E+02 -0.56988373849E+00  0.63184513819E+02  0.47000000000E+01 0.  1.
         -5    1    3    3    0  502  0.48833460541E+02 -0.27578937295E+02  0.72329170602E+02  0.91645532191E+02  0.47000000000E+01 0.  1.
          5    1    4    4  503    0 -0.18707769766E+02 -0.61393894360E+02 -0.15057811933E+02  0.66090987393E+02  0.47000000000E+01 0. -1.
         -5    1    4    4    0  503 -0.25497783679E+02  0.26136134615E+02  0.17291848776E+02  0.40673486932E+02  0.47000000000E+01 0.  1.
<mgrwt>
<rscale>  0 0.12885189E+03</rscale>
<asrwt>0</asrwt>
<pdfrwt beam="1">  1        2 0.14430861E-01 0.13719675E+03</pdfrwt>
<pdfrwt beam="2">  1       -2 0.25814449E-01 0.13719675E+03</pdfrwt>
<totfact> 0.52194222E+03</totfact>
</mgrwt>
</event>
<event>
 8    1  0.3407580E-004  0.1693714E+03  0.7546771E-02  0.1185197E+00
          2   -1    0    0  501    0  0.00000000000E+00  0.00000000000E+00  0.75387983308E+02  0.75387983308E+02  0.00000000000E+00 0. -1.
         -2   -1    0    0    0  501 -0.00000000000E+00 -0.00000000000E+00 -0.40119083743E+03  0.40119083743E+03  0.00000000000E+00 0.  1.
         25    2    1    2    0    0  0.69666726025E+02  0.90591246824E+02 -0.72326672453E+02  0.18416794289E+03  0.12500582756E+03 0.  0.
         23    2    1    2    0    0 -0.69666726025E+02 -0.90591246824E+02 -0.25347618167E+03  0.29241087785E+03  0.90519169763E+02 0.  0.
          5    1    3    3  502    0 -0.17207821222E+02 -0.21139273970E+02 -0.94726941548E+01  0.29236962047E+02  0.47000000000E+01 0. -1.
         -5    1    4    4    0  503 -0.24160343951E+02 -0.82200119473E+02 -0.21685036790E+03  0.23320967801E+03  0.47000000000E+01 0.  1.
          5    1    4    4  503    0 -0.45506382074E+02 -0.83911273512E+01 -0.36625813770E+02  0.59201199836E+02  0.47000000000E+01 0. -1.
         -5    1    3    3    0  502  0.86874547247E+02  0.11173052079E+03 -0.62853978298E+02  0.15493098084E+03  0.47000000000E+01 0. -1.
<mgrwt>
<rscale>  0 0.16313986E+03</rscale>
<asrwt>0</asrwt>
<pdfrwt beam="1">  1        2 0.11598151E-01 0.16937144E+03</pdfrwt>
<pdfrwt beam="2">  1       -2 0.61721667E-01 0.16937144E+03</pdfrwt>
<totfact> 0.13050500E+03</totfact>
</mgrwt>
</event>
<event>
 8    1  0.3407580E-004  0.1442357E+03  0.7546771E-02  0.1217757E+00
          2   -1    0    0  501    0  0.00000000000E+00  0.00000000000E+00  0.12969683308E+04  0.12969683308E+04  0.00000000000E+00 0. -1.
         -2   -1    0    0    0  501 -0.00000000000E+00 -0.00000000000E+00 -0.14575585581E+02  0.14575585581E+02  0.00000000000E+00 0.  1.
         25    2    1    2    0    0 -0.63899704505E+02  0.33170094024E+02  0.90912836043E+03  0.92049894589E+03  0.12498202379E+03 0.  0.
         23    2    1    2    0    0  0.63899704505E+02 -0.33170094024E+02  0.37326438481E+03  0.39104497052E+03  0.91686643640E+02 0.  0.
          5    1    3    3  502    0 -0.97086194793E+02  0.89745435457E+00  0.57777163803E+03  0.58589136396E+03  0.47000000000E+01 0. -1.
         -5    1    4    4    0  503  0.71412091739E+02 -0.94492889272E+01  0.15127685338E+03  0.16761787577E+03  0.47000000000E+01 0.  1.
          5    1    4    4  503    0 -0.75123872338E+01 -0.23720805097E+02  0.22198753143E+03  0.22342709475E+03  0.47000000000E+01 0. -1.
         -5    1    3    3    0  502  0.33186490288E+02  0.32272639670E+02  0.33135672239E+03  0.33460758193E+03  0.47000000000E+01 0. -1.
<mgrwt>
<rscale>  0 0.13675917E+03</rscale>
<asrwt>0</asrwt>
<pdfrwt beam="1">  1        2 0.19953350E+00 0.14423569E+03</pdfrwt>
<pdfrwt beam="2">  1       -2 0.22423988E-02 0.14423569E+03</pdfrwt>
<totfact> 0.11181236E+04</totfact>
</mgrwt>
</event>
<event>
 8    1  0.3407580E-004  0.1308578E+03  0.7546771E-02  0.1240322E+00
         -1   -1    0    0    0  501 -0.00000000000E+00  0.00000000000E+00  0.29208250902E+02  0.29208250902E+02  0.00000000000E+00 0.  1.
          1   -1    0    0  501    0  0.00000000000E+00 -0.00000000000E+00 -0.10983899567E+04  0.10983899567E+04  0.00000000000E+00 0. -1.
         25    2    1    2    0    0 -0.33792879015E+02  0.18921738198E+02 -0.99805578881E+03  0.10065977941E+04  0.12499508287E+03 0.  0.
         23    2    1    2    0    0  0.33792879015E+02 -0.18921738198E+02 -0.71125917000E+02  0.12100041347E+03  0.89901129820E+02 0.  0.
          5    1    3    3  502    0  0.47597131331E+02  0.98130393880E+01 -0.37243448190E+03  0.37562124003E+03  0.47000000000E+01 0.  1.
         -5    1    3    3    0  502 -0.81390010346E+02  0.91086988095E+01 -0.62562130691E+03  0.63097655411E+03  0.47000000000E+01 0.  1.
          5    1    4    4  503    0 -0.26332081844E+02 -0.57272169008E+01 -0.47667686265E+02  0.54958874275E+02  0.47000000000E+01 0. -1.
         -5    1    4    4    0  503  0.60124960858E+02 -0.13194521297E+02 -0.23458230735E+02  0.66041539198E+02  0.47000000000E+01 0.  1.
<mgrwt>
<rscale>  0 0.12169784E+03</rscale>
<asrwt>0</asrwt>
<pdfrwt beam="1">  1        1 0.16898307E+00 0.13085779E+03</pdfrwt>
<pdfrwt beam="2">  1       -1 0.44935770E-02 0.13085779E+03</pdfrwt>
<totfact> 0.27591851E+03</totfact>
</mgrwt>
</event>
<event>
 8    1  0.3407580E-004  0.1820955E+03  0.7546771E-02  0.1170744E+00
         -1   -1    0    0    0  501 -0.00000000000E+00  0.00000000000E+00  0.19652439565E+03  0.19652439565E+03  0.00000000000E+00 0.  1.
          1   -1    0    0  501    0  0.00000000000E+00 -0.00000000000E+00 -0.17586963283E+03  0.17586963283E+03  0.00000000000E+00 0. -1.
         25    2    1    2    0    0  0.98023064575E+02 -0.89046988641E+02 -0.58968000070E+02  0.19140532478E+03  0.12498354270E+03 0.  0.
         23    2    1    2    0    0 -0.98023064575E+02  0.89046988641E+02  0.79622762887E+02  0.18098870370E+03  0.94229714646E+02 0.  0.
          5    1    3    3  502    0  0.93078491875E+02 -0.66948523532E+02 -0.94740923279E+02  0.14880740236E+03  0.47000000000E+01 0. -1.
         -5    1    3    3    0  502  0.49445726999E+01 -0.22098465109E+02  0.35772923209E+02  0.42597922418E+02  0.47000000000E+01 0. -1.
          5    1    4    4  503    0  0.17475857374E+02  0.18722897407E+02  0.51554438195E+01  0.26544699645E+02  0.47000000000E+01 0. -1.
         -5    1    4    4    0  503 -0.11549892195E+03  0.70324091234E+02  0.74467319067E+02  0.15444400405E+03  0.47000000000E+01 0.  1.
<mgrwt>
<rscale>  0 0.17699464E+03</rscale>
<asrwt>0</asrwt>
<pdfrwt beam="1">  1        1 0.27056866E-01 0.18209551E+03</pdfrwt>
<pdfrwt beam="2">  1       -1 0.30234523E-01 0.18209551E+03</pdfrwt>
<totfact> 0.17214817E+03</totfact>
</mgrwt>
</event>
<event>
 8    1  0.3407580E-004  0.1711148E+03  0.7546771E-02  0.1182711E+00
         -1   -1    0    0    0  501 -0.00000000000E+00  0.00000000000E+00  0.16793773675E+02  0.16793773675E+02  0.00000000000E+00 0.  1.
          1   -1    0    0  501    0  0.00000000000E+00 -0.00000000000E+00 -0.16491784106E+04  0.16491784106E+04  0.00000000000E+00 0. -1.
         25    2    1    2    0    0 -0.97942473759E+02  0.63743190357E+02 -0.10910793521E+04  0.11044158797E+04  0.12499744120E+03 0.  0.
         23    2    1    2    0    0  0.97942473759E+02 -0.63743190357E+02 -0.54130528487E+03  0.56155630460E+03  0.93156584996E+02 0.  0.
          5    1    4    4  502    0  0.29706008294E+02 -0.57541786228E+02 -0.39034077991E+03  0.39570382681E+03  0.47000000000E+01 0. -1.
         -5    1    3    3    0  503 -0.87283115743E+02  0.99191939382E+02 -0.90778512852E+03  0.91736214915E+03  0.47000000000E+01 0.  1.
          5    1    3    3  503    0 -0.10659358015E+02 -0.35448749025E+02 -0.18329422357E+03  0.18705373056E+03  0.47000000000E+01 0.  1.
         -5    1    4    4    0  502  0.68236465465E+02 -0.62014041291E+01 -0.15096450496E+03  0.16585247779E+03  0.47000000000E+01 0.  1.
<mgrwt>
<rscale>  0 0.16541950E+03</rscale>
<asrwt>0</asrwt>
<pdfrwt beam="1">  1        1 0.25371991E+00 0.17111482E+03</pdfrwt>
<pdfrwt beam="2">  1       -1 0.25836559E-02 0.17111482E+03</pdfrwt>
<totfact> 0.26781523E+03</totfact>
</mgrwt>
</event>
<event>
 8    1  0.3407580E-004  0.1385924E+03  0.7546771E-02  0.1226467E+00
          2   -1    0    0  501    0  0.00000000000E+00  0.00000000000E+00  0.21503281266E+03  0.21503281266E+03  0.00000000000E+00 0. -1.
         -2   -1    0    0    0  501 -0.00000000000E+00 -0.00000000000E+00 -0.98001956788E+02  0.98001956788E+02  0.00000000000E+00 0.  1.
         25    2    1    2    0    0 -0.49936998192E+00 -0.59846773035E+02  0.14440602038E+03  0.20015231088E+03  0.12500385279E+03 0.  0.
         23    2    1    2    0    0  0.49936998192E+00  0.59846773035E+02 -0.27375164511E+02  0.11288245857E+03  0.91712399421E+02 0.  0.
          5    1    3    3  502    0 -0.56268954634E+02 -0.10545402033E+02  0.33490172571E+02  0.66491220612E+02  0.47000000000E+01 0.  1.
         -5    1    4    4    0  503 -0.27381124489E+02  0.68956466101E+02 -0.35066413402E+02  0.82197710091E+02  0.47000000000E+01 0.  1.
          5    1    4    4  503    0  0.27880494471E+02 -0.91096930657E+01  0.76912488906E+01  0.30684748478E+02  0.47000000000E+01 0. -1.
         -5    1    3    3    0  502  0.55769584652E+02 -0.49301371002E+02  0.11091584781E+03  0.13366109026E+03  0.47000000000E+01 0.  1.
<mgrwt>
<rscale>  0 0.13066845E+03</rscale>
<asrwt>0</asrwt>
<pdfrwt beam="1">  1        2 0.33081971E-01 0.13859238E+03</pdfrwt>
<pdfrwt beam="2">  1       -2 0.15077224E-01 0.13859238E+03</pdfrwt>
<totfact> 0.51136705E+03</totfact>
</mgrwt>
</event>
<event>
 8    1  0.3407580E-004  0.1344349E+03  0.7546771E-02  0.1233145E+00
         -1   -1    0    0    0  501 -0.00000000000E+00  0.00000000000E+00  0.17064376104E+02  0.17064376104E+02  0.00000000000E+00 0.  1.
          1   -1    0    0  501    0  0.00000000000E+00 -0.00000000000E+00 -0.84543493647E+03  0.84543493647E+03  0.00000000000E+00 0. -1.
         25    2    1    2    0    0 -0.47295668014E+02 -0.14465159744E+02 -0.50921249090E+03  0.52665936907E+03  0.12500643614E+03 0.  0.
         23    2    1    2    0    0  0.47295668014E+02  0.14465159744E+02 -0.31915806947E+03  0.33583994351E+03  0.92089485235E+02 0.  0.
          5    1    4    4  502    0  0.36527458308E+02  0.50405968292E+02 -0.14933413954E+03  0.16185732014E+03  0.47000000000E+01 0.  1.
         -5    1    3    3    0  503 -0.46435184528E+02  0.22883493173E+02 -0.46783670695E+03  0.47071557759E+03  0.47000000000E+01 0.  1.
          5    1    3    3  503    0 -0.86048348567E+00 -0.37348652918E+02 -0.41375783956E+02  0.55943791475E+02  0.47000000000E+01 0.  1.
         -5    1    4    4    0  502  0.10768209706E+02 -0.35940808548E+02 -0.16982392992E+03  0.17398262337E+03  0.47000000000E+01 0. -1.
<mgrwt>
<rscale>  0 0.12623928E+03</rscale>
<asrwt>0</asrwt>
<pdfrwt beam="1">  1        1 0.13006693E+00 0.13443485E+03</pdfrwt>
<pdfrwt beam="2">  1       -1 0.26252883E-02 0.13443485E+03</pdfrwt>
<totfact> 0.93379283E+03</totfact>
</mgrwt>
</event>
<event>
 8    1  0.3407580E-004  0.1451634E+03  0.7546771E-02  0.1216150E+00
         -2   -1    0    0    0  501 -0.00000000000E+00  0.00000000000E+00  0.52646804877E+02  0.52646804877E+02  0.00000000000E+00 0.  1.
          2   -1    0    0  501    0  0.00000000000E+00 -0.00000000000E+00 -0.33210832913E+03  0.33210832913E+03  0.00000000000E+00 0. -1.
         25    2    1    2    0    0  0.52426752288E+02 -0.51947657357E+02 -0.17044625780E+03  0.22388463836E+03  0.12500112413E+03 0.  0.
         23    2    1    2    0    0 -0.52426752288E+02  0.51947657357E+02 -0.10901526645E+03  0.16087049565E+03  0.92454662354E+02 0.  0.
          5    1    3    3  502    0  0.32441495736E+02  0.29227162012E+02 -0.11593107490E+03  0.12397089082E+03  0.47000000000E+01 0. -1.
         -5    1    4    4    0  503 -0.43409385209E+02  0.72706069531E+02 -0.52333354842E+02  0.99656496526E+02  0.47000000000E+01 0.  1.
          5    1    4    4  503    0 -0.90173670788E+01 -0.20758412174E+02 -0.56681911611E+02  0.61213999125E+02  0.47000000000E+01 0. -1.
         -5    1    3    3    0  502  0.19985256551E+02 -0.81174819369E+02 -0.54515182903E+02  0.99913747533E+02  0.47000000000E+01 0. -1.
<mgrwt>
<rscale>  0 0.13792384E+03</rscale>
<asrwt>0</asrwt>
<pdfrwt beam="1">  1        2 0.51093588E-01 0.14516337E+03</pdfrwt>
<pdfrwt beam="2">  1       -2 0.80995087E-02 0.14516337E+03</pdfrwt>
<totfact> 0.86597657E+03</totfact>
</mgrwt>
</event>
<event>
 8    1  0.3407580E-004  0.1768152E+03  0.7546771E-02  0.1176834E+00
         -2   -1    0    0    0  501 -0.00000000000E+00  0.00000000000E+00  0.27476594943E+03  0.27476594943E+03  0.00000000000E+00 0.  1.
          2   -1    0    0  501    0  0.00000000000E+00 -0.00000000000E+00 -0.10048692980E+03  0.10048692980E+03  0.00000000000E+00 0. -1.
         25    2    1    2    0    0 -0.12334452073E+03 -0.20584329010E+02  0.78998301525E+02  0.19366040582E+03  0.12500414290E+03 0.  0.
         23    2    1    2    0    0  0.12334452073E+03  0.20584329010E+02  0.95280718102E+02  0.18159247341E+03  0.90883583575E+02 0.  0.
          5    1    4    4  502    0  0.23727292548E+02 -0.31936533863E+02  0.37751096594E+02  0.55046906370E+02  0.47000000000E+01 0.  1.
         -5    1    3    3    0  503 -0.13236328926E+03  0.20585734939E+02  0.65285216792E+02  0.14909078562E+03  0.47000000000E+01 0.  1.
          5    1    3    3  503    0  0.90187685281E+01 -0.41170063950E+02  0.13713084733E+02  0.44569620194E+02  0.47000000000E+01 0.  1.
         -5    1    4    4    0  502  0.99617228181E+02  0.52520862873E+02  0.57529621508E+02  0.12654556704E+03  0.47000000000E+01 0. -1.
<mgrwt>
<rscale>  0 0.17097538E+03</rscale>
<asrwt>0</asrwt>
<pdfrwt beam="1">  1        2 0.15459528E-01 0.17681522E+03</pdfrwt>
<pdfrwt beam="2">  1       -2 0.42271684E-01 0.17681522E+03</pdfrwt>
<totfact> 0.19742944E+03</totfact>
</mgrwt>
</event>
<event>
 8    1  0.3407580E-004  0.2563534E+03  0.7546771E-02  0.1111622E+00
          2   -1    0    0  501    0  0.00000000000E+00  0.00000000000E+00  0.14939304085E+04  0.14939304085E+04  0.00000000000E+00 0. -1.
         -2   -1    0    0    0  501 -0.00000000000E+00 -0.00000000000E+00 -0.41687860817E+02  0.41687860817E+02  0.00000000000E+00 0.  1.
         25    2    1    2    0    0 -0.15649120999E+02  0.22326590014E+03  0.79001725828E+03  0.83056867925E+03  0.12499802168E+03 0.  0.
         23    2    1    2    0    0  0.15649120999E+02 -0.22326590014E+03  0.66222528943E+03  0.70504959008E+03  0.91978439708E+02 0.  0.
          5    1    3    3  502    0  0.30914668038E+02  0.20234497066E+03  0.61399384297E+03  0.64723236404E+03  0.47000000000E+01 0. -1.
         -5    1    3    3    0  502 -0.46563789037E+02  0.20920929476E+02  0.17602341531E+03  0.18333631522E+03  0.47000000000E+01 0. -1.
          5    1    4    4  503    0  0.23759028111E+01 -0.79571314569E+02  0.12113856190E+03  0.14503061813E+03  0.47000000000E+01 0. -1.
         -5    1    4    4    0  503  0.13273218188E+02 -0.14369458557E+03  0.54108672753E+03  0.56001897195E+03  0.47000000000E+01 0.  1.
<mgrwt>
<rscale>  0 0.25268099E+03</rscale>
<asrwt>0</asrwt>
<pdfrwt beam="1">  1        2 0.22983541E+00 0.25635339E+03</pdfrwt>
<pdfrwt beam="2">  1       -2 0.64135182E-02 0.25635339E+03</pdfrwt>
<totfact> 0.18367996E+03</totfact>
</mgrwt>
</event>
<event>
 8    1  0.3407580E-004  0.1356468E+03  0.7546771E-02  0.1231562E+00
          2   -1    0    0  501    0  0.00000000000E+00  0.00000000000E+00  0.91468343522E+03  0.91468343522E+03  0.00000000000E+00 0. -1.
         -2   -1    0    0    0  501 -0.00000000000E+00 -0.00000000000E+00 -0.16383934942E+02  0.16383934942E+02  0.00000000000E+00 0.  1.
         25    2    1    2    0    0 -0.38853427499E+02  0.35572307097E+02  0.58806941413E+03  0.60351113878E+03  0.12500032373E+03 0.  0.
         23    2    1    2    0    0  0.38853427499E+02 -0.35572307097E+02  0.31023008614E+03  0.32755623138E+03  0.90969228351E+02 0.  0.
          5    1    4    4  502    0 -0.10898449744E+02 -0.22679634078E+02  0.23461536570E+03  0.23600763087E+03  0.47000000000E+01 0. -1.
         -5    1    4    4    0  502  0.49751877243E+02 -0.12892673019E+02  0.75614720446E+02  0.91548600508E+02  0.47000000000E+01 0.  1.
          5    1    3    3  503    0  0.11184965431E+02  0.51624269370E+02  0.10562188388E+03  0.11818731317E+03  0.47000000000E+01 0.  1.
         -5    1    3    3    0  503 -0.50038392930E+02 -0.16051962273E+02  0.48244753025E+03  0.48532382561E+03  0.47000000000E+01 0.  1.
<mgrwt>
<rscale>  0 0.12727097E+03</rscale>
<asrwt>0</asrwt>
<pdfrwt beam="1">  1        2 0.14072049E+00 0.13564682E+03</pdfrwt>
<pdfrwt beam="2">  1       -2 0.25206061E-02 0.13564682E+03</pdfrwt>
<totfact> 0.15588064E+04</totfact>
</mgrwt>
</event>
<event>
 8    1  0.3407580E-004  0.1288522E+03  0.7546771E-02  0.1242953E+00
          2   -1    0    0  501    0  0.00000000000E+00  0.00000000000E+00  0.30375550838E+03  0.30375550838E+03  0.00000000000E+00 0. -1.
         -2   -1    0    0    0  501 -0.00000000000E+00 -0.00000000000E+00 -0.43029289333E+02  0.43029289333E+02  0.00000000000E+00 0.  1.
         25    2    1    2    0    0  0.31216356605E+02 -0.15746872618E+01  0.17396559660E+03  0.21648770428E+03  0.12500382692E+03 0.  0.
         23    2    1    2    0    0 -0.31216356605E+02  0.15746872618E+01  0.86760622445E+02  0.13029709343E+03  0.92048826113E+02 0.  0.
          5    1    3    3  502    0  0.29378513675E+02 -0.60405674494E+02  0.71421812349E+02  0.98158585239E+02  0.47000000000E+01 0.  1.
         -5    1    4    4    0  503  0.99411016876E-01 -0.41701343189E+02  0.50025739455E+02  0.65296833877E+02  0.47000000000E+01 0.  1.
          5    1    4    4  503    0 -0.31315767622E+02  0.43276030451E+02  0.36734882990E+02  0.65000259550E+02  0.47000000000E+01 0. -1.
         -5    1    3    3    0  502  0.18378429300E+01  0.58830987232E+02  0.10254378425E+03  0.11832911904E+03  0.47000000000E+01 0.  1.
<mgrwt>
<rscale>  0 0.12008742E+03</rscale>
<asrwt>0</asrwt>
<pdfrwt beam="1">  1        2 0.46731615E-01 0.12885223E+03</pdfrwt>
<pdfrwt beam="2">  1       -2 0.66198909E-02 0.12885223E+03</pdfrwt>
<totfact> 0.12859688E+04</totfact>
</mgrwt>
</event>
<event>
 8    1  0.3407580E-004  0.1612512E+03  0.7546771E-02  0.1193760E+00
         -2   -1    0    0    0  501 -0.00000000000E+00  0.00000000000E+00  0.51539690011E+02  0.51539690011E+02  0.00000000000E+00 0.  1.
          2   -1    0    0  501    0  0.00000000000E+00 -0.00000000000E+00 -0.44569528094E+03  0.44569528094E+03  0.00000000000E+00 0. -1.
         25    2    1    2    0    0  0.73792293744E+02  0.70227140118E+02 -0.18194095409E+03  0.24311407922E+03  0.12499916365E+03 0.  0.
         23    2    1    2    0    0 -0.73792293744E+02 -0.70227140118E+02 -0.21221463684E+03  0.25412089173E+03  0.95735164391E+02 0.  0.
          5    1    3    3  502    0  0.83250412857E+02  0.16513509113E+02 -0.46190859479E+02  0.96741990488E+02  0.47000000000E+01 0.  1.
         -5    1    4    4    0  503 -0.50335796209E+02 -0.61630557944E+02 -0.59927516508E+02  0.99726702979E+02  0.47000000000E+01 0.  1.
          5    1    4    4  503    0 -0.23456497535E+02 -0.85965821743E+01 -0.15228712033E+03  0.15439418875E+03  0.47000000000E+01 0. -1.
         -5    1    3    3    0  502 -0.94581191135E+01  0.53713631005E+02 -0.13575009461E+03  0.14637208873E+03  0.47000000000E+01 0.  1.
<mgrwt>
<rscale>  0 0.15559633E+03</rscale>
<asrwt>0</asrwt>
<pdfrwt beam="1">  1        2 0.68568505E-01 0.16125119E+03</pdfrwt>
<pdfrwt beam="2">  1       -2 0.79291831E-02 0.16125119E+03</pdfrwt>
<totfact> 0.65716629E+03</totfact>
</mgrwt>
</event>
<event>
 8    1  0.3407580E-004  0.1473811E+03  0.7546771E-02  0.1213220E+00
          1   -1    0    0  501    0  0.00000000000E+00  0.00000000000E+00  0.63951881819E+03  0.63951881819E+03  0.00000000000E+00 0. -1.
         -1   -1    0    0    0  501 -0.00000000000E+00 -0.00000000000E+00 -0.29304389495E+02  0.29304389495E+02  0.00000000000E+00 0.  1.
         25    2    1    2    0    0  0.72211845017E+02 -0.29646423189E+02  0.40466588090E+03  0.43066885557E+03  0.12501090761E+03 0.  0.
         23    2    1    2    0    0 -0.72211845017E+02  0.29646423189E+02  0.20554854779E+03  0.23815435211E+03  0.91508627811E+02 0.  0.
          5    1    4    4  502    0 -0.59199631804E+02  0.49722162845E+02  0.19803368230E+03  0.21264129235E+03  0.47000000000E+01 0. -1.
         -5    1    3    3    0  503 -0.32289584822E+02 -0.27259751949E+02  0.12805986595E+03  0.13493380092E+03  0.47000000000E+01 0. -1.
          5    1    3    3  503    0  0.10450142984E+03 -0.23866712403E+01  0.27660601495E+03  0.29573505465E+03  0.47000000000E+01 0. -1.
         -5    1    4    4    0  502 -0.13012213213E+02 -0.20075739656E+02  0.75148654839E+01  0.25513059767E+02  0.47000000000E+01 0.  1.
<mgrwt>
<rscale>  0 0.14008116E+03</rscale>
<asrwt>0</asrwt>
<pdfrwt beam="1">  1        1 0.98387500E-01 0.14738110E+03</pdfrwt>
<pdfrwt beam="2">  1       -1 0.45083681E-02 0.14738110E+03</pdfrwt>
<totfact> 0.63964921E+03</totfact>
</mgrwt>
</event>
<event>
 8    1  0.3407580E-004  0.1304869E+03  0.7546771E-02  0.1242093E+00
          2   -1    0    0  501    0  0.00000000000E+00  0.00000000000E+00  0.52484143585E+03  0.52484143585E+03  0.00000000000E+00 0. -1.
         -2   -1    0    0    0  501 -0.00000000000E+00 -0.00000000000E+00 -0.26279621784E+02  0.26279621784E+02  0.00000000000E+00 0.  1.
         25    2    1    2    0    0 -0.34171124272E+02 -0.15158226162E+02  0.36053387183E+03  0.38342077663E+03  0.12501752541E+03 0.  0.
         23    2    1    2    0    0  0.34171124272E+02  0.15158226162E+02  0.13802794223E+03  0.16770028100E+03  0.87602704621E+02 0.  0.
          5    1    4    4  502    0  0.59561812398E+02  0.68500398579E+00  0.61965357411E+02  0.86080626425E+02  0.47000000000E+01 0. -1.
         -5    1    3    3    0  503 -0.12294784390E+02  0.54771301003E+02  0.13665654270E+03  0.14781122353E+03  0.47000000000E+01 0. -1.
          5    1    3    3  503    0 -0.21876339881E+02 -0.69929527166E+02  0.22387732913E+03  0.23560955311E+03  0.47000000000E+01 0. -1.
         -5    1    4    4    0  502 -0.25390688126E+02  0.14473222176E+02  0.76062584823E+02  0.81619654579E+02  0.47000000000E+01 0.  1.
<mgrwt>
<rscale>  0 0.12061074E+03</rscale>
<asrwt>0</asrwt>
<pdfrwt beam="1">  1        2 0.80744829E-01 0.13048685E+03</pdfrwt>
<pdfrwt beam="2">  1       -2 0.40430191E-02 0.13048685E+03</pdfrwt>
<totfact> 0.15026911E+04</totfact>
</mgrwt>
</event>
<event>
 8    1  0.3407580E-004  0.1369974E+03  0.7546771E-02  0.1231482E+00
          2   -1    0    0  501    0  0.00000000000E+00  0.00000000000E+00  0.79581483114E+03  0.79581483114E+03  0.00000000000E+00 0. -1.
         -2   -1    0    0    0  501 -0.00000000000E+00 -0.00000000000E+00 -0.30395657527E+02  0.30395657527E+02  0.00000000000E+00 0.  1.
         25    2    1    2    0    0 -0.49003632905E+02 -0.27256666460E+02  0.15321009309E+03  0.20552769082E+03  0.12499606860E+03 0.  0.
         23    2    1    2    0    0  0.49003632905E+02  0.27256666460E+02  0.61220908052E+03  0.62068279784E+03  0.85456979593E+02 0.  0.
          5    1    3    3  502    0  0.33673528863E+02 -0.12844525503E+02  0.99117481208E+02  0.10557108251E+03  0.47000000000E+01 0. -1.
         -5    1    4    4    0  503  0.58376999981E+02 -0.11659276786E+02  0.42576019000E+03  0.42992748487E+03  0.47000000000E+01 0.  1.
          5    1    4    4  503    0 -0.93733670754E+01  0.38915943246E+02  0.18644889052E+03  0.19075531297E+03  0.47000000000E+01 0. -1.
         -5    1    3    3    0  502 -0.82677161768E+02 -0.14412140957E+02  0.54092611885E+02  0.99956608314E+02  0.47000000000E+01 0. -1.
<mgrwt>
<rscale>  0 0.12732369E+03</rscale>
<asrwt>0</asrwt>
<pdfrwt beam="1">  1        2 0.12243304E+00 0.13699744E+03</pdfrwt>
<pdfrwt beam="2">  1       -2 0.46762556E-02 0.13699744E+03</pdfrwt>
<totfact> 0.74758787E+03</totfact>
</mgrwt>
</event>
<event>
 8    1  0.3407580E-004  0.1782960E+03  0.7546771E-02  0.1174814E+00
         -2   -1    0    0    0  501 -0.00000000000E+00  0.00000000000E+00  0.13295244994E+03  0.13295244994E+03  0.00000000000E+00 0.  1.
          2   -1    0    0  501    0  0.00000000000E+00 -0.00000000000E+00 -0.21459328704E+03  0.21459328704E+03  0.00000000000E+00 0. -1.
         25    2    1    2    0    0  0.12565378563E+03  0.19346451139E+02 -0.60650236297E+02  0.18832925797E+03  0.12500519681E+03 0.  0.
         23    2    1    2    0    0 -0.12565378563E+03 -0.19346451139E+02 -0.20990600801E+02  0.15921647901E+03  0.93520708150E+02 0.  0.
          5    1    3    3  502    0  0.10182361376E+03  0.26085565125E+02 -0.97657173865E+02  0.14355319096E+03  0.47000000000E+01 0. -1.
         -5    1    4    4    0  503 -0.11953388716E+03  0.30471660643E+01  0.10146454675E+02  0.12009444593E+03  0.47000000000E+01 0.  1.
          5    1    4    4  503    0 -0.61198984660E+01 -0.22393617203E+02 -0.31137055476E+02  0.39122033081E+02  0.47000000000E+01 0. -1.
         -5    1    3    3    0  502  0.23830171870E+02 -0.67391139858E+01  0.37006937569E+02  0.44776067010E+02  0.47000000000E+01 0. -1.
<mgrwt>
<rscale>  0 0.17294234E+03</rscale>
<asrwt>0</asrwt>
<pdfrwt beam="1">  1        2 0.33014351E-01 0.17829598E+03</pdfrwt>
<pdfrwt beam="2">  1       -2 0.20454223E-01 0.17829598E+03</pdfrwt>
<totfact> 0.31199389E+03</totfact>
</mgrwt>
</event>
<event>
 8    1  0.3407580E-004  0.1602298E+03  0.7546771E-02  0.1196968E+00
         -2   -1    0    0    0  501 -0.00000000000E+00  0.00000000000E+00  0.11092553576E+03  0.11092553576E+03  0.00000000000E+00 0.  1.
          2   -1    0    0  501    0  0.00000000000E+00 -0.00000000000E+00 -0.23203313309E+03  0.23203313309E+03  0.00000000000E+00 0. -1.
         25    2    1    2    0    0  0.40433498805E+02 -0.91721293955E+02 -0.13485532401E+03  0.20942669076E+03  0.12500366714E+03 0.  0.
         23    2    1    2    0    0 -0.40433498805E+02  0.91721293955E+02  0.13747726676E+02  0.13353197808E+03  0.87144280318E+02 0.  0.
          5    1    3    3  502    0 -0.12641181945E+02 -0.10451727522E+03 -0.86261793515E+02  0.13618681037E+03  0.47000000000E+01 0. -1.
         -5    1    3    3    0  502  0.53074680750E+02  0.12795981262E+02 -0.48593530497E+02  0.73239880388E+02  0.47000000000E+01 0. -1.
          5    1    4    4  503    0  0.79174841059E+01  0.79099257563E+02  0.22115834782E+02  0.82647318467E+02  0.47000000000E+01 0. -1.
         -5    1    4    4    0  503 -0.48350982911E+02  0.12622036391E+02 -0.83681081061E+01  0.50884659618E+02  0.47000000000E+01 0.  1.
<mgrwt>
<rscale>  0 0.15288865E+03</rscale>
<asrwt>0</asrwt>
<pdfrwt beam="1">  1        2 0.35697405E-01 0.16022977E+03</pdfrwt>
<pdfrwt beam="2">  1       -2 0.17065467E-01 0.16022977E+03</pdfrwt>
<totfact> 0.38721102E+03</totfact>
</mgrwt>
</event>
<event>
 8    1  0.3407580E-004  0.1555441E+03  0.7546771E-02  0.1201822E+00
         -2   -1    0    0    0  501 -0.00000000000E+00  0.00000000000E+00  0.36773289967E+02  0.36773289967E+02  0.00000000000E+00 0.  1.
          2   -1    0    0  501    0  0.00000000000E+00 -0.00000000000E+00 -0.69189071603E+03  0.69189071603E+03  0.00000000000E+00 0. -1.
         25    2    1    2    0    0  0.41916206583E+02 -0.82530590239E+02 -0.51096441474E+03  0.53411478126E+03  0.12500279889E+03 0.  0.
         23    2    1    2    0    0 -0.41916206583E+02  0.82530590239E+02 -0.14415301132E+03  0.19454922474E+03  0.92201103425E+02 0.  0.
          5    1    3    3  502    0  0.58696298380E+02 -0.49249232473E+02 -0.47803154475E+03  0.48415595640E+03  0.47000000000E+01 0. -1.
         -5    1    3    3    0  502 -0.16780091797E+02 -0.33281357766E+02 -0.32932869992E+02  0.49958824861E+02  0.47000000000E+01 0. -1.
          5    1    4    4  503    0  0.20686449305E+02  0.42386528084E+02 -0.92324288495E+02  0.10378059161E+03  0.47000000000E+01 0. -1.
         -5    1    4    4    0  503 -0.62602655888E+02  0.40144062155E+02 -0.51828722827E+02  0.90768633131E+02  0.47000000000E+01 0.  1.
<mgrwt>
<rscale>  0 0.14890770E+03</rscale>
<asrwt>0</asrwt>
<pdfrwt beam="1">  1        2 0.10644472E+00 0.15554410E+03</pdfrwt>
<pdfrwt beam="2">  1       -2 0.56574295E-02 0.15554410E+03</pdfrwt>
<totfact> 0.66942149E+03</totfact>
</mgrwt>
</event>
<event>
 8    1  0.3407580E-004  0.1404956E+03  0.7546771E-02  0.1223255E+00
         -1   -1    0    0    0  501 -0.00000000000E+00  0.00000000000E+00  0.36895546569E+03  0.36895546569E+03  0.00000000000E+00 0.  1.
          1   -1    0    0  501    0  0.00000000000E+00 -0.00000000000E+00 -0.43657816953E+02  0.43657816953E+02  0.00000000000E+00 0. -1.
         25    2    1    2    0    0 -0.22931021564E+02  0.59904454913E+02  0.16293749298E+03  0.21514561860E+03  0.12499854045E+03 0.  0.
         23    2    1    2    0    0  0.22931021564E+02 -0.59904454913E+02  0.16236015576E+03  0.19746766405E+03  0.92294543164E+02 0.  0.
          5    1    4    4  502    0  0.44969453273E+02 -0.36987171073E+02  0.39607682331E+02  0.70577340920E+02  0.47000000000E+01 0. -1.
         -5    1    4    4    0  502 -0.22038431709E+02 -0.22917283840E+02  0.12275247343E+03  0.12689032313E+03  0.47000000000E+01 0.  1.
          5    1    3    3  503    0 -0.30718900779E+02 -0.33511847783E+02  0.42096275025E+02  0.62135989393E+02  0.47000000000E+01 0.  1.
         -5    1    3    3    0  503  0.77878792143E+01  0.93416302697E+02  0.12084121796E+03  0.15300962920E+03  0.47000000000E+01 0.  1.
<mgrwt>
<rscale>  0 0.13287212E+03</rscale>
<asrwt>0</asrwt>
<pdfrwt beam="1">  1        1 0.67165875E-02 0.14049559E+03</pdfrwt>
<pdfrwt beam="2">  1       -1 0.56762377E-01 0.14049559E+03</pdfrwt>
<totfact> 0.34439167E+03</totfact>
</mgrwt>
</event>
<event>
 8    1  0.3407580E-004  0.1552720E+03  0.7546771E-02  0.1202607E+00
          2   -1    0    0  501    0  0.00000000000E+00  0.00000000000E+00  0.37510140884E+03  0.37510140884E+03  0.00000000000E+00 0. -1.
         -2   -1    0    0    0  501 -0.00000000000E+00 -0.00000000000E+00 -0.54160629651E+02  0.54160629651E+02  0.00000000000E+00 0.  1.
         25    2    1    2    0    0 -0.66196938885E+02 -0.64048688262E+02  0.18980667799E+03  0.24522638438E+03  0.12500054160E+03 0.  0.
         23    2    1    2    0    0  0.66196938885E+02  0.64048688262E+02  0.13113410119E+03  0.18403565410E+03  0.90491437716E+02 0.  0.
          5    1    3    3  502    0 -0.65785512060E+02 -0.89290276715E+02  0.18941296470E+03  0.21954463854E+03  0.47000000000E+01 0. -1.
         -5    1    3    3    0  502 -0.41142682502E+00  0.25241588453E+02  0.39371329298E+00  0.25681745848E+02  0.47000000000E+01 0. -1.
          5    1    4    4  503    0  0.37806159964E+02 -0.16237319341E+02  0.60393777156E+02  0.73228782523E+02  0.47000000000E+01 0. -1.
         -5    1    4    4    0  503  0.28390778921E+02  0.80286007604E+02  0.70740324034E+02  0.11080687158E+03  0.47000000000E+01 0.  1.
<mgrwt>
<rscale>  0 0.14827624E+03</rscale>
<asrwt>0</asrwt>
<pdfrwt beam="1">  1        2 0.57707908E-01 0.15527203E+03</pdfrwt>
<pdfrwt beam="2">  1       -2 0.83324048E-02 0.15527203E+03</pdfrwt>
<totfact> 0.73103201E+03</totfact>
</mgrwt>
</event>
<event>
 8    1  0.3407580E-004  0.1819928E+03  0.7546771E-02  0.1171342E+00
         -1   -1    0    0    0  501 -0.00000000000E+00  0.00000000000E+00  0.66433953379E+02  0.66433953379E+02  0.00000000000E+00 0.  1.
          1   -1    0    0  501    0  0.00000000000E+00 -0.00000000000E+00 -0.46716133987E+03  0.46716133987E+03  0.00000000000E+00 0. -1.
         25    2    1    2    0    0  0.13183364266E+03 -0.10795124543E+02 -0.14999719897E+03  0.23584009311E+03  0.12499898308E+03 0.  0.
         23    2    1    2    0    0 -0.13183364266E+03  0.10795124543E+02 -0.25073018753E+03  0.29775520014E+03  0.91081766692E+02 0.  0.
          5    1    4    4  502    0 -0.68967154249E+02  0.49009931331E+02 -0.15803020101E+03  0.17931557703E+03  0.47000000000E+01 0. -1.
         -5    1    3    3    0  503 -0.97574918153E+00 -0.32599568635E+02 -0.74476962529E+02  0.81440726355E+02  0.47000000000E+01 0. -1.
          5    1    3    3  503    0  0.13280939184E+03  0.21804444092E+02 -0.75520236436E+02  0.15439936675E+03  0.47000000000E+01 0. -1.
         -5    1    4    4    0  502 -0.62866488408E+02 -0.38214806788E+02 -0.92699986520E+02  0.11843962311E+03  0.47000000000E+01 0.  1.
<mgrwt>
<rscale>  0 0.17639142E+03</rscale>
<asrwt>0</asrwt>
<pdfrwt beam="1">  1        1 0.71870977E-01 0.18199283E+03</pdfrwt>
<pdfrwt beam="2">  1       -1 0.10220608E-01 0.18199283E+03</pdfrwt>
<totfact> 0.28679718E+03</totfact>
</mgrwt>
</event>
<event>
 8    1  0.3407580E-004  0.1356470E+03  0.7546771E-02  0.1231695E+00
         -2   -1    0    0    0  501 -0.00000000000E+00  0.00000000000E+00  0.13482053858E+02  0.13482053858E+02  0.00000000000E+00 0.  1.
          2   -1    0    0  501    0  0.00000000000E+00 -0.00000000000E+00 -0.11091915581E+04  0.11091915581E+04  0.00000000000E+00 0. -1.
         25    2    1    2    0    0  0.17411038014E+02 -0.49707398178E+02 -0.51425262326E+03  0.53184196647E+03  0.12500458825E+03 0.  0.
         23    2    1    2    0    0 -0.17411038014E+02  0.49707398178E+02 -0.58145688099E+03  0.59083164550E+03  0.90641928485E+02 0.  0.
          5    1    3    3  502    0  0.62393407538E+02  0.19133899199E+01 -0.31330339832E+03  0.31949602151E+03  0.47000000000E+01 0. -1.
         -5    1    3    3    0  502 -0.44982369524E+02 -0.51620788098E+02 -0.20094922494E+03  0.21234594495E+03  0.47000000000E+01 0. -1.
          5    1    4    4  503    0  0.10639392869E+02  0.68780160810E+02 -0.35349031487E+03  0.36030736866E+03  0.47000000000E+01 0. -1.
         -5    1    4    4    0  503 -0.28050430883E+02 -0.19072762632E+02 -0.22796656612E+03  0.23052427684E+03  0.47000000000E+01 0.  1.
<mgrwt>
<rscale>  0 0.12718388E+03</rscale>
<asrwt>0</asrwt>
<pdfrwt beam="1">  1        2 0.17064490E+00 0.13564703E+03</pdfrwt>
<pdfrwt beam="2">  1       -2 0.20741615E-02 0.13564703E+03</pdfrwt>
<totfact> 0.15863277E+04</totfact>
</mgrwt>
</event>
<event>
 8    1  0.3407580E-004  0.1329546E+03  0.7546771E-02  0.1236258E+00
         -2   -1    0    0    0  501 -0.00000000000E+00  0.00000000000E+00  0.21403664060E+02  0.21403664060E+02  0.00000000000E+00 0. -1.
          2   -1    0    0  501    0  0.00000000000E+00 -0.00000000000E+00 -0.69782412591E+03  0.69782412591E+03  0.00000000000E+00 0.  1.
         25    2    1    2    0    0  0.31110419078E+02 -0.32924230508E+02 -0.48148363067E+03  0.49950315632E+03  0.12500021374E+03 0.  0.
         23    2    1    2    0    0 -0.31110419078E+02  0.32924230508E+02 -0.19493683118E+03  0.21972463366E+03  0.90701065897E+02 0.  0.
          5    1    3    3  502    0  0.69048887079E+02  0.15384075328E+02 -0.27804359024E+03  0.28694031898E+03  0.47000000000E+01 0.  1.
         -5    1    4    4    0  503  0.30486810337E+01  0.55008975327E+02 -0.14475893908E+03  0.15495974402E+03  0.47000000000E+01 0.  1.
          5    1    4    4  503    0 -0.34159100112E+02 -0.22084744819E+02 -0.50177892100E+02  0.64764889638E+02  0.47000000000E+01 0. -1.
         -5    1    3    3    0  502 -0.37938468001E+02 -0.48308305836E+02 -0.20344004043E+03  0.21256283734E+03  0.47000000000E+01 0.  1.
<mgrwt>
<rscale>  0 0.12424213E+03</rscale>
<asrwt>0</asrwt>
<pdfrwt beam="1">  1        2 0.10735756E+00 0.13295457E+03</pdfrwt>
<pdfrwt beam="2">  1       -2 0.32928713E-02 0.13295457E+03</pdfrwt>
<totfact> 0.14729993E+04</totfact>
</mgrwt>
</event>
<event>
 8    1  0.3407580E-004  0.1293051E+03  0.7546771E-02  0.1243516E+00
          2   -1    0    0  501    0  0.00000000000E+00  0.00000000000E+00  0.71965359033E+03  0.71965359033E+03  0.00000000000E+00 0.  1.
         -2   -1    0    0    0  501 -0.00000000000E+00 -0.00000000000E+00 -0.17745287992E+02  0.17745287992E+02  0.00000000000E+00 0. -1.
         25    2    1    2    0    0 -0.27094782125E+02  0.18977342453E+02  0.36036548199E+03  0.38286172177E+03  0.12500220255E+03 0.  0.
         23    2    1    2    0    0  0.27094782125E+02 -0.18977342453E+02  0.34154282035E+03  0.35453715655E+03  0.89167429586E+02 0.  0.
          5    1    4    4  502    0 -0.22207121252E+02 -0.30829823417E+02  0.88579096066E+02  0.96498603649E+02  0.47000000000E+01 0. -1.
         -5    1    3    3    0  503 -0.49454041206E+02  0.42877096526E+02  0.33451786765E+03  0.34089359245E+03  0.47000000000E+01 0. -1.
          5    1    3    3  503    0  0.22359259081E+02 -0.23899754073E+02  0.25847614337E+02  0.41968129316E+02  0.47000000000E+01 0. -1.
         -5    1    4    4    0  502  0.49301903377E+02  0.11852480963E+02  0.25296372428E+03  0.25803855290E+03  0.47000000000E+01 0.  1.
<mgrwt>
<rscale>  0 0.11974668E+03</rscale>
<asrwt>0</asrwt>
<pdfrwt beam="1">  1        2 0.11071591E+00 0.12930513E+03</pdfrwt>
<pdfrwt beam="2">  1       -2 0.27300449E-02 0.12930513E+03</pdfrwt>
<totfact> 0.18658702E+04</totfact>
</mgrwt>
</event>
<event>
 8    1  0.3407580E-004  0.1458978E+03  0.7546771E-02  0.1215608E+00
         -1   -1    0    0    0  501 -0.00000000000E+00  0.00000000000E+00  0.11882045887E+02  0.11882045887E+02  0.00000000000E+00 0.  1.
          1   -1    0    0  501    0  0.00000000000E+00 -0.00000000000E+00 -0.14656788191E+04  0.14656788191E+04  0.00000000000E+00 0. -1.
         25    2    1    2    0    0  0.57955934025E+02 -0.47979271452E+02 -0.83031332497E+03  0.84303404338E+03  0.12500111956E+03 0.  0.
         23    2    1    2    0    0 -0.57955934025E+02  0.47979271452E+02 -0.62348344819E+03  0.63452682156E+03  0.90729137179E+02 0.  0.
          5    1    4    4  502    0  0.12527506763E+02  0.40640669591E+02 -0.31979402350E+03  0.32264362680E+03  0.47000000000E+01 0. -1.
         -5    1    3    3    0  503  0.17952942395E+02  0.25071196820E+02 -0.54867537004E+02  0.63114258829E+02  0.47000000000E+01 0.  1.
          5    1    3    3  503    0  0.40002991630E+02 -0.73050468272E+02 -0.77544578797E+03  0.77991978455E+03  0.47000000000E+01 0.  1.
         -5    1    4    4    0  502 -0.70483440787E+02  0.73386018608E+01 -0.30368942469E+03  0.31188319476E+03  0.47000000000E+01 0.  1.
<mgrwt>
<rscale>  0 0.13831997E+03</rscale>
<asrwt>0</asrwt>
<pdfrwt beam="1">  1        1 0.22548904E+00 0.14589784E+03</pdfrwt>
<pdfrwt beam="2">  1       -1 0.18280071E-02 0.14589784E+03</pdfrwt>
<totfact> 0.57993580E+03</totfact>
</mgrwt>
</event>
<event>
 8    1  0.3407580E-004  0.1714330E+03  0.7546771E-02  0.1181922E+00
          1   -1    0    0  501    0  0.00000000000E+00  0.00000000000E+00  0.10357158382E+04  0.10357158382E+04  0.00000000000E+00 0. -1.
         -1   -1    0    0    0  501 -0.00000000000E+00 -0.00000000000E+00 -0.25713141825E+02  0.25713141825E+02  0.00000000000E+00 0.  1.
         25    2    1    2    0    0  0.78099467717E+02  0.87549874783E+02  0.61525849535E+03  0.63869576891E+03  0.12499904674E+03 0.  0.
         23    2    1    2    0    0 -0.78099467717E+02 -0.87549874783E+02  0.39474420105E+03  0.42273321114E+03  0.95477097302E+02 0.  0.
          5    1    4    4  502    0 -0.18762940808E+02 -0.19976587817E+02  0.25484544965E+03  0.25635796305E+03  0.47000000000E+01 0. -1.
         -5    1    3    3    0  503  0.59259154849E+02  0.48135839285E+02  0.57181050540E+03  0.57690384861E+03  0.47000000000E+01 0.  1.
          5    1    3    3  503    0  0.18840312869E+02  0.39414035498E+02  0.43447989955E+02  0.61791920300E+02  0.47000000000E+01 0.  1.
         -5    1    4    4    0  502 -0.59336526909E+02 -0.67573286966E+02  0.13989875140E+03  0.16637524810E+03  0.47000000000E+01 0.  1.
<mgrwt>
<rscale>  0 0.16615129E+03</rscale>
<asrwt>0</asrwt>
<pdfrwt beam="1">  1        1 0.15934087E+00 0.17143299E+03</pdfrwt>
<pdfrwt beam="2">  1       -1 0.39558688E-02 0.17143299E+03</pdfrwt>
<totfact> 0.37166401E+03</totfact>
</mgrwt>
</event>
<event>
 8    1  0.3407580E-004  0.2012285E+03  0.7546771E-02  0.1152791E+00
          1   -1    0    0  501    0  0.00000000000E+00  0.00000000000E+00  0.79955058417E+02  0.79955058417E+02  0.00000000000E+00 0. -1.
         -1   -1    0    0    0  501 -0.00000000000E+00 -0.00000000000E+00 -0.61153504213E+03  0.61153504213E+03  0.00000000000E+00 0.  1.
         25    2    1    2    0    0  0.11641360395E+03  0.10637357531E+03 -0.44692791987E+03  0.49014024243E+03  0.12500170789E+03 0.  0.
         23    2    1    2    0    0 -0.11641360395E+03 -0.10637357531E+03 -0.84652063837E+02  0.20134985812E+03  0.92240602474E+02 0.  0.
          5    1    4    4  502    0 -0.44149259220E+02 -0.79622018863E+02 -0.63417591097E+01  0.91384522136E+02  0.47000000000E+01 0. -1.
         -5    1    3    3    0  503  0.54804615022E+02  0.74268421730E+02 -0.99487280634E+02  0.13579084396E+03  0.47000000000E+01 0.  1.
          5    1    3    3  503    0  0.61608988925E+02  0.32105153576E+02 -0.34744063924E+03  0.35434939847E+03  0.47000000000E+01 0.  1.
         -5    1    4    4    0  502 -0.72264344727E+02 -0.26751556444E+02 -0.78310304728E+02  0.10996533598E+03  0.47000000000E+01 0.  1.
<mgrwt>
<rscale>  0 0.19642465E+03</rscale>
<asrwt>0</asrwt>
<pdfrwt beam="1">  1        1 0.12300778E-01 0.20122846E+03</pdfrwt>
<pdfrwt beam="2">  1       -1 0.94082313E-01 0.20122846E+03</pdfrwt>
<totfact> 0.55999005E+02</totfact>
</mgrwt>
</event>
<event>
 8    1  0.3407580E-004  0.1459570E+03  0.7546771E-02  0.1213022E+00
         -2   -1    0    0    0  501 -0.00000000000E+00  0.00000000000E+00  0.56133748866E+02  0.56133748866E+02  0.00000000000E+00 0.  1.
          2   -1    0    0  501    0  0.00000000000E+00 -0.00000000000E+00 -0.41236227077E+03  0.41236227077E+03  0.00000000000E+00 0. -1.
         25    2    1    2    0    0  0.10744573693E+02  0.74583738470E+02 -0.29662988984E+03  0.33059453904E+03  0.12500111115E+03 0.  0.
         23    2    1    2    0    0 -0.10744573693E+02 -0.74583738470E+02 -0.59598632071E+02  0.13790148060E+03  0.98927455739E+02 0.  0.
          5    1    3    3  502    0 -0.36856634475E+02 -0.15940531441E+02 -0.11760351291E+03  0.12435911022E+03  0.47000000000E+01 0. -1.
         -5    1    3    3    0  502  0.47601208169E+02  0.90524269911E+02 -0.17902637693E+03  0.20623542882E+03  0.47000000000E+01 0. -1.
          5    1    4    4  503    0 -0.30139009809E+02 -0.87608775202E+02 -0.65242119880E+02  0.11341199941E+03  0.47000000000E+01 0. -1.
         -5    1    4    4    0  503  0.19394436116E+02  0.13025036732E+02  0.56434878090E+01  0.24489481186E+02  0.47000000000E+01 0.  1.
<mgrwt>
<rscale>  0 0.14022870E+03</rscale>
<asrwt>0</asrwt>
<pdfrwt beam="1">  1        2 0.63440352E-01 0.14595704E+03</pdfrwt>
<pdfrwt beam="2">  1       -2 0.86359611E-02 0.14595704E+03</pdfrwt>
<totfact> 0.62243307E+03</totfact>
</mgrwt>
</event>
<event>
 8    1  0.3407580E-004  0.1258875E+03  0.7546771E-02  0.1249307E+00
         -1   -1    0    0    0  501 -0.00000000000E+00  0.00000000000E+00  0.77736643064E+02  0.77736643064E+02  0.00000000000E+00 0.  1.
          1   -1    0    0  501    0  0.00000000000E+00 -0.00000000000E+00 -0.20558030327E+03  0.20558030327E+03  0.00000000000E+00 0. -1.
         25    2    1    2    0    0 -0.11159017468E+02 -0.98420887171E+01 -0.14279797712E+03  0.19036522138E+03  0.12500505934E+03 0.  0.
         23    2    1    2    0    0  0.11159017468E+02  0.98420887171E+01  0.14954316914E+02  0.92951724953E+02  0.90526245897E+02 0.  0.
          5    1    3    3  502    0  0.49212814486E+02  0.25129709788E+02 -0.71665970583E+02  0.90617353544E+02  0.47000000000E+01 0. -1.
         -5    1    3    3    0  502 -0.60371831954E+02 -0.34971798505E+02 -0.71132006539E+02  0.99747867839E+02  0.47000000000E+01 0. -1.
          5    1    4    4  503    0  0.64305437150E+01 -0.37013947355E+02 -0.10395343086E+02  0.39262416497E+02  0.47000000000E+01 0. -1.
         -5    1    4    4    0  503  0.47284737531E+01  0.46856036072E+02  0.25349660000E+02  0.53689308456E+02  0.47000000000E+01 0.  1.
<mgrwt>
<rscale>  0 0.11631283E+03</rscale>
<asrwt>0</asrwt>
<pdfrwt beam="1">  1        1 0.31627739E-01 0.12588747E+03</pdfrwt>
<pdfrwt beam="2">  1       -1 0.11959484E-01 0.12588747E+03</pdfrwt>
<totfact> 0.61784527E+03</totfact>
</mgrwt>
</event>
<event>
 8    1  0.3407580E-004  0.1285727E+03  0.7546771E-02  0.1243746E+00
          1   -1    0    0  501    0  0.00000000000E+00  0.00000000000E+00  0.45071262630E+03  0.45071262630E+03  0.00000000000E+00 0. -1.
         -1   -1    0    0    0  501 -0.00000000000E+00 -0.00000000000E+00 -0.28129673323E+02  0.28129673323E+02  0.00000000000E+00 0.  1.
         25    2    1    2    0    0  0.27622428708E+02 -0.12083355261E+02  0.22864457982E+03  0.26231521925E+03  0.12498769670E+03 0.  0.
         23    2    1    2    0    0 -0.27622428708E+02  0.12083355261E+02  0.19393837315E+03  0.21652708037E+03  0.91448772054E+02 0.  0.
          5    1    3    3  502    0  0.50940172244E+02 -0.25371071680E+02  0.35455829796E+02  0.67214569053E+02  0.47000000000E+01 0. -1.
         -5    1    4    4    0  503 -0.40794847672E+02  0.29768026285E+02  0.51379411075E+02  0.72196183194E+02  0.47000000000E+01 0.  1.
          5    1    4    4  503    0  0.13172418964E+02 -0.17684671024E+02  0.14255896208E+03  0.14433089718E+03  0.47000000000E+01 0. -1.
         -5    1    3    3    0  502 -0.23317743536E+02  0.13287716419E+02  0.19318875003E+03  0.19510065020E+03  0.47000000000E+01 0. -1.
<mgrwt>
<rscale>  0 0.11960724E+03</rscale>
<asrwt>0</asrwt>
<pdfrwt beam="1">  1        1 0.69340399E-01 0.12857267E+03</pdfrwt>
<pdfrwt beam="2">  1       -1 0.43276424E-02 0.12857267E+03</pdfrwt>
<totfact> 0.10718136E+04</totfact>
</mgrwt>
</event>
<event>
 8    1  0.3407580E-004  0.1392368E+03  0.7546771E-02  0.1225171E+00
         -2   -1    0    0    0  501 -0.00000000000E+00  0.00000000000E+00  0.95002831526E+02  0.95002831526E+02  0.00000000000E+00 0.  1.
          2   -1    0    0  501    0  0.00000000000E+00 -0.00000000000E+00 -0.17180245633E+03  0.17180245633E+03  0.00000000000E+00 0. -1.
         25    2    1    2    0    0  0.12816454265E+02 -0.59991217740E+02 -0.69495368734E+02  0.15561653339E+03  0.12499476583E+03 0.  0.
         23    2    1    2    0    0 -0.12816454265E+02  0.59991217740E+02 -0.73042560723E+01  0.11118875447E+03  0.92446629237E+02 0.  0.
          5    1    3    3  502    0 -0.53624785683E+02 -0.10421607216E+02 -0.17083770044E+02  0.57429719967E+02  0.47000000000E+01 0. -1.
         -5    1    3    3    0  502  0.66441239949E+02 -0.49569610524E+02 -0.52411598690E+02  0.98186813425E+02  0.47000000000E+01 0. -1.
          5    1    4    4  503    0  0.18467441364E+02  0.39186750032E+02 -0.41496342929E+02  0.60172121826E+02  0.47000000000E+01 0. -1.
         -5    1    4    4    0  503 -0.31283895629E+02  0.20804467708E+02  0.34192086857E+02  0.51016632640E+02  0.47000000000E+01 0.  1.
<mgrwt>
<rscale>  0 0.13155158E+03</rscale>
<asrwt>0</asrwt>
<pdfrwt beam="1">  1        2 0.26431147E-01 0.13923685E+03</pdfrwt>
<pdfrwt beam="2">  1       -2 0.14615820E-01 0.13923685E+03</pdfrwt>
<totfact> 0.68663046E+03</totfact>
</mgrwt>
</event>
<event>
 8    1  0.3407580E-004  0.1395285E+03  0.7546771E-02  0.1225124E+00
          2   -1    0    0  501    0  0.00000000000E+00  0.00000000000E+00  0.46368173475E+03  0.46368173475E+03  0.00000000000E+00 0. -1.
         -2   -1    0    0    0  501 -0.00000000000E+00 -0.00000000000E+00 -0.33957189278E+02  0.33957189278E+02  0.00000000000E+00 0.  1.
         25    2    1    2    0    0  0.58467152099E+02  0.20605996953E+02  0.21694275778E+03  0.25793869209E+03  0.12500077496E+03 0.  0.
         23    2    1    2    0    0 -0.58467152099E+02 -0.20605996953E+02  0.21278178769E+03  0.23970023194E+03  0.91307705218E+02 0.  0.
          5    1    3    3  502    0 -0.16751347632E+02  0.48598232883E+02  0.12815919928E+03  0.13816391079E+03  0.47000000000E+01 0.  1.
         -5    1    4    4    0  503 -0.40408978816E+02  0.14374993665E+02  0.29713518850E+02  0.52388063662E+02  0.47000000000E+01 0.  1.
          5    1    4    4  503    0 -0.18058173283E+02 -0.34980990618E+02  0.18306826884E+03  0.18731216828E+03  0.47000000000E+01 0. -1.
         -5    1    3    3    0  502  0.75218499731E+02 -0.27992235930E+02  0.88783558502E+02  0.11977478130E+03  0.47000000000E+01 0.  1.
<mgrwt>
<rscale>  0 0.13158417E+03</rscale>
<asrwt>0</asrwt>
<pdfrwt beam="1">  1        2 0.71335647E-01 0.13952852E+03</pdfrwt>
<pdfrwt beam="2">  1       -2 0.52241833E-02 0.13952852E+03</pdfrwt>
<totfact> 0.11792224E+04</totfact>
</mgrwt>
</event>
<event>
 8    1  0.3407580E-004  0.1794376E+03  0.7546771E-02  0.1173899E+00
          4   -1    0    0  501    0  0.00000000000E+00  0.00000000000E+00  0.26645113790E+03  0.26645113790E+03  0.00000000000E+00 0. -1.
         -4   -1    0    0    0  501 -0.00000000000E+00 -0.00000000000E+00 -0.12675865100E+03  0.12675865100E+03  0.00000000000E+00 0.  1.
         25    2    1    2    0    0  0.52995573776E+02 -0.11732125651E+03  0.15128791214E+03  0.23470380623E+03  0.12500014491E+03 0.  0.
         23    2    1    2    0    0 -0.52995573776E+02  0.11732125651E+03 -0.11595425243E+02  0.15850598267E+03  0.91743580630E+02 0.  0.
          5    1    3    3  502    0 -0.20427085112E+02 -0.41175229686E+02  0.11305117944E+03  0.12212831170E+03  0.47000000000E+01 0.  1.
         -5    1    4    4    0  503 -0.62619235817E+02  0.31471365474E+02  0.49816544759E+01  0.70416776555E+02  0.47000000000E+01 0.  1.
          5    1    4    4  503    0  0.96236620404E+01  0.85849891039E+02 -0.16577079719E+02  0.88089206118E+02  0.47000000000E+01 0. -1.
         -5    1    3    3    0  502  0.73422658888E+02 -0.76146026827E+02  0.38236732699E+02  0.11257549452E+03  0.47000000000E+01 0.  1.
<mgrwt>
<rscale>  0 0.17384218E+03</rscale>
<asrwt>0</asrwt>
<pdfrwt beam="1">  1        4 0.40992483E-01 0.17943758E+03</pdfrwt>
<pdfrwt beam="2">  1       -4 0.19501331E-01 0.17943758E+03</pdfrwt>
<totfact> 0.23919597E+02</totfact>
</mgrwt>
</event>
<event>
 8    1  0.3407580E-004  0.2738642E+03  0.7546771E-02  0.1100538E+00
         -1   -1    0    0    0  501 -0.00000000000E+00  0.00000000000E+00  0.16637822971E+03  0.16637822971E+03  0.00000000000E+00 0.  1.
          1   -1    0    0  501    0  0.00000000000E+00 -0.00000000000E+00 -0.43590183727E+03  0.43590183727E+03  0.00000000000E+00 0. -1.
         25    2    1    2    0    0 -0.23085395704E+03  0.77993951780E+02 -0.15556651508E+03  0.31496436492E+03  0.12500001824E+03 0.  0.
         23    2    1    2    0    0  0.23085395704E+03 -0.77993951780E+02 -0.11395709248E+03  0.28731570206E+03  0.10093308541E+03 0.  0.
          5    1    3    3  502    0  0.30724284275E+01  0.28909317126E+02 -0.39340525074E+02  0.49142195171E+02  0.47000000000E+01 0.  1.
         -5    1    3    3    0  502 -0.23392638547E+03  0.49084634654E+02 -0.11622599000E+03  0.26582216975E+03  0.47000000000E+01 0.  1.
          5    1    4    4  503    0  0.18521977766E+03 -0.16760830220E+02 -0.92995180057E+02  0.20798433830E+03  0.47000000000E+01 0. -1.
         -5    1    4    4    0  503  0.45634179384E+02 -0.61233121560E+02 -0.20961912421E+02  0.79331363762E+02  0.47000000000E+01 0.  1.
<mgrwt>
<rscale>  0 0.27129989E+03</rscale>
<asrwt>0</asrwt>
<pdfrwt beam="1">  1        1 0.67061820E-01 0.27386422E+03</pdfrwt>
<pdfrwt beam="2">  1       -1 0.25596651E-01 0.27386422E+03</pdfrwt>
<totfact> 0.72729790E+02</totfact>
</mgrwt>
</event>
<event>
 8    1  0.3407580E-004  0.1624339E+03  0.7546771E-02  0.1192828E+00
          4   -1    0    0  501    0  0.00000000000E+00  0.00000000000E+00  0.51259046761E+03  0.51259046761E+03  0.00000000000E+00 0. -1.
         -4   -1    0    0    0  501 -0.00000000000E+00 -0.00000000000E+00 -0.47181280713E+02  0.47181280713E+02  0.00000000000E+00 0.  1.
         25    2    1    2    0    0 -0.77436344495E+02  0.69010681191E+02  0.31597329375E+03  0.35528002980E+03  0.12500366253E+03 0.  0.
         23    2    1    2    0    0  0.77436344495E+02 -0.69010681191E+02  0.14943589315E+03  0.20449171852E+03  0.93417959816E+02 0.  0.
          5    1    4    4  502    0  0.97243260779E+02 -0.42951051806E+02  0.11044341351E+03  0.15336519229E+03  0.47000000000E+01 0. -1.
         -5    1    4    4    0  502 -0.19806916284E+02 -0.26059629385E+02  0.38992479636E+02  0.51126526232E+02  0.47000000000E+01 0.  1.
          5    1    3    3  503    0 -0.54214077630E+02  0.59908214364E+02  0.31955713430E+03  0.32964679953E+03  0.47000000000E+01 0.  1.
         -5    1    3    3    0  503 -0.23222266865E+02  0.91024668271E+01 -0.35838405528E+01  0.25633230265E+02  0.47000000000E+01 0.  1.
<mgrwt>
<rscale>  0 0.15639478E+03</rscale>
<asrwt>0</asrwt>
<pdfrwt beam="1">  1        4 0.78860068E-01 0.16243392E+03</pdfrwt>
<pdfrwt beam="2">  1       -4 0.72586590E-02 0.16243392E+03</pdfrwt>
<totfact> 0.32754523E+02</totfact>
</mgrwt>
</event>
<event>
 8    1  0.3407580E-004  0.1424894E+03  0.7546771E-02  0.1219389E+00
          2   -1    0    0  501    0  0.00000000000E+00  0.00000000000E+00  0.12935918080E+04  0.12935918080E+04  0.00000000000E+00 0. -1.
         -2   -1    0    0    0  501 -0.00000000000E+00 -0.00000000000E+00 -0.14654787587E+02  0.14654787587E+02  0.00000000000E+00 0.  1.
         25    2    1    2    0    0 -0.67684579131E+02  0.98582696107E+01  0.91467383205E+03  0.92570591911E+03  0.12499936760E+03 0.  0.
         23    2    1    2    0    0  0.67684579131E+02 -0.98582696107E+01  0.36426318833E+03  0.38254067644E+03  0.94717004980E+02 0.  0.
          5    1    3    3  502    0 -0.71700766984E+02 -0.45986928303E+02  0.49677938080E+03  0.50405122830E+03  0.47000000000E+01 0. -1.
         -5    1    4    4    0  503  0.18718190443E+02  0.40478415987E+02  0.11202193205E+03  0.12066431152E+03  0.47000000000E+01 0.  1.
          5    1    4    4  503    0  0.48966388689E+02 -0.50336685597E+02  0.25224125627E+03  0.26187636492E+03  0.47000000000E+01 0. -1.
         -5    1    3    3    0  502  0.40161878522E+01  0.55845197914E+02  0.41789445125E+03  0.42165469081E+03  0.47000000000E+01 0. -1.
<mgrwt>
<rscale>  0 0.13558989E+03</rscale>
<asrwt>0</asrwt>
<pdfrwt beam="1">  1        2 0.19901403E+00 0.14248940E+03</pdfrwt>
<pdfrwt beam="2">  1       -2 0.22545837E-02 0.14248940E+03</pdfrwt>
<totfact> 0.11133316E+04</totfact>
</mgrwt>
</event>
<event>
 8    1  0.3407580E-004  0.1274890E+03  0.7546771E-02  0.1248530E+00
          1   -1    0    0  501    0  0.00000000000E+00  0.00000000000E+00  0.61594011943E+03  0.61594011943E+03  0.00000000000E+00 0. -1.
         -1   -1    0    0    0  501 -0.00000000000E+00 -0.00000000000E+00 -0.20623360273E+02  0.20623360273E+02  0.00000000000E+00 0.  1.
         25    2    1    2    0    0  0.70249911324E+01 -0.23953277692E+02  0.42965246961E+03  0.44816814143E+03  0.12502131156E+03 0.  0.
         23    2    1    2    0    0 -0.70249911324E+01  0.23953277692E+02  0.16566428955E+03  0.18839533827E+03  0.86168652284E+02 0.  0.
          5    1    3    3  502    0  0.51371894299E+02  0.19605214659E+01  0.34645530141E+03  0.35028028926E+03  0.47000000000E+01 0. -1.
         -5    1    4    4    0  503  0.23284307964E+02 -0.21600320929E+01  0.72348436240E+01  0.24925041590E+02  0.47000000000E+01 0.  1.
          5    1    4    4  503    0 -0.30309299096E+02  0.26113309785E+02  0.15842944592E+03  0.16347029668E+03  0.47000000000E+01 0. -1.
         -5    1    3    3    0  502 -0.44346903167E+02 -0.25913799158E+02  0.83197168196E+02  0.97887852174E+02  0.47000000000E+01 0. -1.
<mgrwt>
<rscale>  0 0.11676601E+03</rscale>
<asrwt>0</asrwt>
<pdfrwt beam="1">  1        1 0.94760005E-01 0.12748897E+03</pdfrwt>
<pdfrwt beam="2">  1       -1 0.31728251E-02 0.12748897E+03</pdfrwt>
<totfact> 0.11175072E+04</totfact>
</mgrwt>
</event>
<event>
 8    1  0.3407580E-004  0.1378774E+03  0.7546771E-02  0.1229740E+00
          1   -1    0    0  501    0  0.00000000000E+00  0.00000000000E+00  0.98252069583E+03  0.98252069583E+03  0.00000000000E+00 0. -1.
         -1   -1    0    0    0  501 -0.00000000000E+00 -0.00000000000E+00 -0.28063761426E+02  0.28063761426E+02  0.00000000000E+00 0.  1.
         25    2    1    2    0    0 -0.58038232211E+02  0.44301632836E+01  0.16820518497E+03  0.21749287652E+03  0.12498841682E+03 0.  0.
         23    2    1    2    0    0  0.58038232211E+02 -0.44301632836E+01  0.78625174943E+03  0.79309158074E+03  0.86106789568E+02 0.  0.
          5    1    3    3  502    0 -0.52202252363E+02  0.39677657461E+02  0.16911891962E+03  0.18144610943E+03  0.47000000000E+01 0. -1.
         -5    1    4    4    0  503  0.42012133055E+02 -0.42655936459E+02  0.54029718821E+03  0.54362458538E+03  0.47000000000E+01 0.  1.
          5    1    4    4  503    0  0.16026099156E+02  0.38225773175E+02  0.24595456122E+03  0.24946699536E+03  0.47000000000E+01 0. -1.
         -5    1    3    3    0  502 -0.58359798475E+01 -0.35247494177E+02 -0.91373464701E+00  0.36046767089E+02  0.47000000000E+01 0. -1.
<mgrwt>
<rscale>  0 0.12847244E+03</rscale>
<asrwt>0</asrwt>
<pdfrwt beam="1">  1        1 0.15115700E+00 0.13787736E+03</pdfrwt>
<pdfrwt beam="2">  1       -1 0.43175025E-02 0.13787736E+03</pdfrwt>
<totfact> 0.35512324E+03</totfact>
</mgrwt>
</event>
<event>
 8    1  0.3407580E-004  0.1533715E+03  0.7546771E-02  0.1204616E+00
          2   -1    0    0  501    0  0.00000000000E+00  0.00000000000E+00  0.10633317519E+04  0.10633317519E+04  0.00000000000E+00 0. -1.
         -2   -1    0    0    0  501 -0.00000000000E+00 -0.00000000000E+00 -0.20597190847E+02  0.20597190847E+02  0.00000000000E+00 0.  1.
         25    2    1    2    0    0 -0.51428994467E+01  0.88729299891E+02  0.72929628880E+03  0.74524887708E+03  0.12499389529E+03 0.  0.
         23    2    1    2    0    0  0.51428994467E+01 -0.88729299891E+02  0.31343827222E+03  0.33868006564E+03  0.92527284039E+02 0.  0.
          5    1    4    4  502    0  0.25609115631E+02 -0.95245733150E+01  0.17976817221E+03  0.18189345793E+03  0.47000000000E+01 0. -1.
         -5    1    3    3    0  503  0.54407311567E+02  0.71368781473E+02  0.38224201252E+03  0.39266360241E+03  0.47000000000E+01 0.  1.
          5    1    3    3  503    0 -0.59550211014E+02  0.17360518419E+02  0.34705427628E+03  0.35258527467E+03  0.47000000000E+01 0.  1.
         -5    1    4    4    0  502 -0.20466216184E+02 -0.79204726576E+02  0.13367010002E+03  0.15678660770E+03  0.47000000000E+01 0.  1.
<mgrwt>
<rscale>  0 0.14667777E+03</rscale>
<asrwt>0</asrwt>
<pdfrwt beam="1">  1        2 0.16358946E+00 0.15337148E+03</pdfrwt>
<pdfrwt beam="2">  1       -2 0.31687994E-02 0.15337148E+03</pdfrwt>
<totfact> 0.91258794E+03</totfact>
</mgrwt>
</event>
<event>
 8    1  0.3407580E-004  0.1916362E+03  0.7546771E-02  0.1161450E+00
         -2   -1    0    0    0  501 -0.00000000000E+00  0.00000000000E+00  0.67053103179E+02  0.67053103179E+02  0.00000000000E+00 0.  1.
          2   -1    0    0  501    0  0.00000000000E+00 -0.00000000000E+00 -0.96750017150E+03  0.96750017150E+03  0.00000000000E+00 0. -1.
         25    2    1    2    0    0 -0.58553711371E+02  0.13292777934E+03 -0.10092913035E+03  0.21658976216E+03  0.12500441627E+03 0.  0.
         23    2    1    2    0    0  0.58553711371E+02 -0.13292777934E+03 -0.79951793797E+03  0.81796351251E+03  0.93472151078E+02 0.  0.
          5    1    4    4  502    0  0.70259166440E+02 -0.92018912964E+02 -0.70149700850E+03  0.71100209123E+03  0.47000000000E+01 0. -1.
         -5    1    4    4    0  502 -0.11705455069E+02 -0.40908866372E+02 -0.98020929479E+02  0.10696142128E+03  0.47000000000E+01 0.  1.
          5    1    3    3  503    0  0.15109504641E+02  0.69816420090E+02 -0.95460249231E+02  0.11932048788E+03  0.47000000000E+01 0.  1.
         -5    1    3    3    0  503 -0.73663216012E+02  0.63111359246E+02 -0.54688811150E+01  0.97269274284E+02  0.47000000000E+01 0.  1.
<mgrwt>
<rscale>  0 0.18672377E+03</rscale>
<asrwt>0</asrwt>
<pdfrwt beam="1">  1        2 0.14884618E+00 0.19163621E+03</pdfrwt>
<pdfrwt beam="2">  1       -2 0.10315862E-01 0.19163621E+03</pdfrwt>
<totfact> 0.17329961E+03</totfact>
</mgrwt>
</event>
<event>
 8    1  0.3407580E-004  0.1391192E+03  0.7546771E-02  0.1225397E+00
          1   -1    0    0  501    0  0.00000000000E+00  0.00000000000E+00  0.41434278658E+03  0.41434278658E+03  0.00000000000E+00 0. -1.
         -1   -1    0    0    0  501 -0.00000000000E+00 -0.00000000000E+00 -0.59471924864E+02  0.59471924864E+02  0.00000000000E+00 0.  1.
         25    2    1    2    0    0 -0.61002308385E+02 -0.25985961493E+01  0.47323267464E+02  0.14694779548E+03  0.12500451441E+03 0.  0.
         23    2    1    2    0    0  0.61002308385E+02  0.25985961493E+01  0.30754759425E+03  0.32686691597E+03  0.92349465043E+02 0.  0.
          5    1    3    3  502    0 -0.12435018273E+02  0.54729994642E+02  0.44211149814E+02  0.71601101674E+02  0.47000000000E+01 0. -1.
         -5    1    3    3    0  502 -0.48567290112E+02 -0.57328590791E+02  0.31121176498E+01  0.75346693804E+02  0.47000000000E+01 0. -1.
          5    1    4    4  503    0 -0.21964416452E+02 -0.95426167410E+01  0.44691174251E+02  0.50920410252E+02  0.47000000000E+01 0. -1.
         -5    1    4    4    0  503  0.82966724837E+02  0.12141212890E+02  0.26285642000E+03  0.27594650572E+03  0.47000000000E+01 0. -1.
<mgrwt>
<rscale>  0 0.13139717E+03</rscale>
<asrwt>0</asrwt>
<pdfrwt beam="1">  1        1 0.63745042E-01 0.13911924E+03</pdfrwt>
<pdfrwt beam="2">  1       -1 0.91495272E-02 0.13911924E+03</pdfrwt>
<totfact> 0.39200608E+03</totfact>
</mgrwt>
</event>
<event>
 8    1  0.3407580E-004  0.1447850E+03  0.7546771E-02  0.1216685E+00
         -1   -1    0    0    0  501 -0.00000000000E+00  0.00000000000E+00  0.21625874331E+03  0.21625874331E+03  0.00000000000E+00 0.  1.
          1   -1    0    0  501    0  0.00000000000E+00 -0.00000000000E+00 -0.85466112610E+02  0.85466112610E+02  0.00000000000E+00 0. -1.
         25    2    1    2    0    0  0.37335932255E+02  0.62799479111E+02  0.11042319175E+03  0.18208780177E+03  0.12499975945E+03 0.  0.
         23    2    1    2    0    0 -0.37335932255E+02 -0.62799479111E+02  0.20369438949E+02  0.11963705415E+03  0.92522236615E+02 0.  0.
          5    1    3    3  502    0 -0.77534676113E+01  0.90818074165E+02  0.74534754216E+02  0.11783699946E+03  0.47000000000E+01 0. -1.
         -5    1    4    4    0  503 -0.14998716953E+02 -0.69334580147E+02  0.46016499087E+02  0.84686797687E+02  0.47000000000E+01 0.  1.
          5    1    4    4  503    0 -0.22337215302E+02  0.65351010350E+01 -0.25647060138E+02  0.34950256461E+02  0.47000000000E+01 0. -1.
         -5    1    3    3    0  502  0.45089399866E+02 -0.28018595054E+02  0.35888437533E+02  0.64250802311E+02  0.47000000000E+01 0. -1.
<mgrwt>
<rscale>  0 0.13753463E+03</rscale>
<asrwt>0</asrwt>
<pdfrwt beam="1">  1        1 0.13148633E-01 0.14478497E+03</pdfrwt>
<pdfrwt beam="2">  1       -1 0.33270576E-01 0.14478497E+03</pdfrwt>
<totfact> 0.36574745E+03</totfact>
</mgrwt>
</event>
<event>
 8    1  0.3407580E-004  0.1417347E+03  0.7546771E-02  0.1221885E+00
         -1   -1    0    0    0  501 -0.00000000000E+00  0.00000000000E+00  0.20071589857E+02  0.20071589857E+02  0.00000000000E+00 0.  1.
          1   -1    0    0  501    0  0.00000000000E+00 -0.00000000000E+00 -0.96347857469E+03  0.96347857469E+03  0.00000000000E+00 0. -1.
         25    2    1    2    0    0 -0.17632255501E+02 -0.64442491700E+02 -0.31910678189E+03  0.34916739623E+03  0.12500000467E+03 0.  0.
         23    2    1    2    0    0  0.17632255501E+02  0.64442491700E+02 -0.62430020295E+03  0.63438276832E+03  0.90702933675E+02 0.  0.
          5    1    4    4  502    0  0.42441248847E+02  0.80323936978E+00 -0.29159647781E+03  0.29470748323E+03  0.47000000000E+01 0. -1.
         -5    1    4    4    0  502 -0.24808993346E+02  0.63639252331E+02 -0.33270372513E+03  0.33967528509E+03  0.47000000000E+01 0.  1.
          5    1    3    3  503    0 -0.48199912893E+02  0.67381467756E+01 -0.53604212992E+02  0.72554364964E+02  0.47000000000E+01 0. -1.
         -5    1    3    3    0  503  0.30567657392E+02 -0.71180638476E+02 -0.26550256890E+03  0.27661303126E+03  0.47000000000E+01 0. -1.
<mgrwt>
<rscale>  0 0.13382681E+03</rscale>
<asrwt>0</asrwt>
<pdfrwt beam="1">  1        1 0.14822746E+00 0.14173473E+03</pdfrwt>
<pdfrwt beam="2">  1       -1 0.30879371E-02 0.14173473E+03</pdfrwt>
<totfact> 0.60014647E+03</totfact>
</mgrwt>
</event>
<event>
 8    1  0.3407580E-004  0.1972014E+03  0.7546771E-02  0.1156548E+00
          2   -1    0    0  501    0  0.00000000000E+00  0.00000000000E+00  0.19219871428E+04  0.19219871428E+04  0.00000000000E+00 0. -1.
         -2   -1    0    0    0  501 -0.00000000000E+00 -0.00000000000E+00 -0.18282901827E+02  0.18282901827E+02  0.00000000000E+00 0.  1.
         25    2    1    2    0    0  0.92044734863E+02 -0.12161769793E+03  0.99971559445E+03  0.10189797193E+04  0.12500120391E+03 0.  0.
         23    2    1    2    0    0 -0.92044734863E+02  0.12161769793E+03  0.90398864650E+03  0.92129032526E+03  0.91199192729E+02 0.  0.
          5    1    4    4  502    0 -0.64993178474E+02  0.10713345378E+03  0.84843834873E+03  0.85765459934E+03  0.47000000000E+01 0. -1.
         -5    1    3    3    0  503  0.74754381368E+02 -0.14588133937E+03  0.76823537348E+03  0.78554265433E+03  0.47000000000E+01 0.  1.
          5    1    3    3  503    0  0.17290353495E+02  0.24263641443E+02  0.23148022097E+03  0.23343706501E+03  0.47000000000E+01 0.  1.
         -5    1    4    4    0  502 -0.27051556389E+02  0.14484244148E+02  0.55550297764E+02  0.63635725919E+02  0.47000000000E+01 0.  1.
<mgrwt>
<rscale>  0 0.19213643E+03</rscale>
<asrwt>0</asrwt>
<pdfrwt beam="1">  1        2 0.29569017E+00 0.19720142E+03</pdfrwt>
<pdfrwt beam="2">  1       -2 0.28127556E-02 0.19720142E+03</pdfrwt>
<totfact> 0.38038410E+03</totfact>
</mgrwt>
</event>
<event>
 8    1  0.3407580E-004  0.1513796E+03  0.7546771E-02  0.1207695E+00
         -1   -1    0    0    0  501 -0.00000000000E+00  0.00000000000E+00  0.65952596995E+02  0.65952596995E+02  0.00000000000E+00 0.  1.
          1   -1    0    0  501    0  0.00000000000E+00 -0.00000000000E+00 -0.30201845533E+03  0.30201845533E+03  0.00000000000E+00 0. -1.
         25    2    1    2    0    0 -0.67531682064E+02 -0.52228027071E+02 -0.16644977366E+03  0.22499182494E+03  0.12500999658E+03 0.  0.
         23    2    1    2    0    0  0.67531682064E+02  0.52228027071E+02 -0.69616084673E+02  0.14297922738E+03  0.91150234907E+02 0.  0.
          5    1    3    3  502    0 -0.15838414119E+02 -0.39551876672E+02  0.70600259652E+01  0.43441227845E+02  0.47000000000E+01 0.  1.
         -5    1    4    4    0  503 -0.10531660638E+02  0.33433278929E+02  0.18076180945E+01  0.35412674270E+02  0.47000000000E+01 0.  1.
          5    1    4    4  503    0  0.78063342702E+02  0.18794748142E+02 -0.71423702767E+02  0.10756655311E+03  0.47000000000E+01 0. -1.
         -5    1    3    3    0  502 -0.51693267945E+02 -0.12676150400E+02 -0.17350979962E+03  0.18155059709E+03  0.47000000000E+01 0.  1.
<mgrwt>
<rscale>  0 0.14427117E+03</rscale>
<asrwt>0</asrwt>
<pdfrwt beam="1">  1        1 0.46464377E-01 0.15137964E+03</pdfrwt>
<pdfrwt beam="2">  1       -1 0.10146554E-01 0.15137964E+03</pdfrwt>
<totfact> 0.49954071E+03</totfact>
</mgrwt>
</event>
<event>
 8    1  0.3407580E-004  0.1689563E+03  0.7546771E-02  0.1184784E+00
         -1   -1    0    0    0  501 -0.00000000000E+00  0.00000000000E+00  0.13866657997E+03  0.13866657997E+03  0.00000000000E+00 0.  1.
          1   -1    0    0  501    0  0.00000000000E+00 -0.00000000000E+00 -0.18154344894E+03  0.18154344894E+03  0.00000000000E+00 0. -1.
         25    2    1    2    0    0  0.61184633309E+02  0.95804203750E+02 -0.27697654354E+02  0.17121155399E+03  0.12499692538E+03 0.  0.
         23    2    1    2    0    0 -0.61184633309E+02 -0.95804203750E+02 -0.15179214610E+02  0.14899847492E+03  0.95121670311E+02 0.  0.
          5    1    4    4  502    0 -0.63133724962E+02 -0.35148259631E+02 -0.40620705335E+02  0.83026496280E+02  0.47000000000E+01 0. -1.
         -5    1    3    3    0  503  0.91463437279E+02  0.56882511477E+02 -0.47568302876E+02  0.11783893206E+03  0.47000000000E+01 0.  1.
          5    1    3    3  503    0 -0.30278803970E+02  0.38921692273E+02  0.19870648522E+02  0.53372621932E+02  0.47000000000E+01 0.  1.
         -5    1    4    4    0  502  0.19490916531E+01 -0.60655944119E+02  0.25441490725E+02  0.65971978639E+02  0.47000000000E+01 0.  1.
<mgrwt>
<rscale>  0 0.16351587E+03</rscale>
<asrwt>0</asrwt>
<pdfrwt beam="1">  1        1 0.27929762E-01 0.16895631E+03</pdfrwt>
<pdfrwt beam="2">  1       -1 0.21333320E-01 0.16895631E+03</pdfrwt>
<totfact> 0.29401320E+03</totfact>
</mgrwt>
</event>
<event>
 8    1  0.3407580E-004  0.1792264E+03  0.7546771E-02  0.1174509E+00
          1   -1    0    0  501    0  0.00000000000E+00  0.00000000000E+00  0.39748276897E+03  0.39748276897E+03  0.00000000000E+00 0. -1.
         -1   -1    0    0    0  501 -0.00000000000E+00 -0.00000000000E+00 -0.80841064595E+02  0.80841064595E+02  0.00000000000E+00 0.  1.
         25    2    1    2    0    0  0.12844022928E+03  0.10932726765E+01  0.25154235184E+03  0.30886189325E+03  0.12499610628E+03 0.  0.
         23    2    1    2    0    0 -0.12844022928E+03 -0.10932726765E+01  0.65099352535E+02  0.16946194032E+03  0.89338321976E+02 0.  0.
          5    1    4    4  502    0 -0.81003674141E+02  0.22637937074E+02  0.77854735056E+02  0.11470623867E+03  0.47000000000E+01 0. -1.
         -5    1    3    3    0  503  0.97570458449E+02 -0.51816799724E+02  0.11715706679E+03  0.16109886218E+03  0.47000000000E+01 0.  1.
          5    1    3    3  503    0  0.30869770834E+02  0.52910072401E+02  0.13438528505E+03  0.14776303107E+03  0.47000000000E+01 0.  1.
         -5    1    4    4    0  502 -0.47436555142E+02 -0.23731209751E+02 -0.12755382521E+02  0.54755701650E+02  0.47000000000E+01 0.  1.
<mgrwt>
<rscale>  0 0.17324140E+03</rscale>
<asrwt>0</asrwt>
<pdfrwt beam="1">  1        1 0.61151194E-01 0.17922643E+03</pdfrwt>
<pdfrwt beam="2">  1       -1 0.12437087E-01 0.17922643E+03</pdfrwt>
<totfact> 0.26035116E+03</totfact>
</mgrwt>
</event>
<event>
 8    1  0.3407580E-004  0.1264890E+03  0.7546771E-02  0.1243831E+00
          2   -1    0    0  501    0  0.00000000000E+00  0.00000000000E+00  0.33984581321E+03  0.33984581321E+03  0.00000000000E+00 0. -1.
         -2   -1    0    0    0  501 -0.00000000000E+00 -0.00000000000E+00 -0.43483577358E+02  0.43483577358E+02  0.00000000000E+00 0.  1.
         25    2    1    2    0    0  0.18308844549E+02 -0.64768612041E+01  0.95390143687E+02  0.15842584620E+03  0.12498922238E+03 0.  0.
         23    2    1    2    0    0 -0.18308844549E+02  0.64768612041E+01  0.20097209216E+03  0.22490354437E+03  0.99068960423E+02 0.  0.
          5    1    3    3  502    0 -0.19729181688E+02 -0.53423879845E+02  0.75402531339E+02  0.94609636297E+02  0.47000000000E+01 0.  1.
         -5    1    4    4    0  503  0.11337385832E+02 -0.24185721782E+02  0.95851053255E+01  0.28765425422E+02  0.47000000000E+01 0.  1.
          5    1    4    4  503    0 -0.29646230381E+02  0.30662582986E+02  0.19138698684E+03  0.19613811894E+03  0.47000000000E+01 0. -1.
         -5    1    3    3    0  502  0.38038026237E+02  0.46947018641E+02  0.19987612348E+02  0.63816209905E+02  0.47000000000E+01 0.  1.
<mgrwt>
<rscale>  0 0.11955592E+03</rscale>
<asrwt>0</asrwt>
<pdfrwt beam="1">  1        2 0.52283969E-01 0.12648901E+03</pdfrwt>
<pdfrwt beam="2">  1       -2 0.66897814E-02 0.12648901E+03</pdfrwt>
<totfact> 0.11221484E+04</totfact>
</mgrwt>
</event>
<event>
 8    1  0.3407580E-004  0.2508176E+03  0.7546771E-02  0.1114708E+00
         -1   -1    0    0    0  501 -0.00000000000E+00  0.00000000000E+00  0.47831901240E+02  0.47831901240E+02  0.00000000000E+00 0.  1.
          1   -1    0    0  501    0  0.00000000000E+00 -0.00000000000E+00 -0.13223039825E+04  0.13223039825E+04  0.00000000000E+00 0. -1.
         25    2    1    2    0    0 -0.66710387690E+02  0.20696450221E+03 -0.49582838929E+03  0.55565749683E+03  0.12499952464E+03 0.  0.
         23    2    1    2    0    0  0.66710387690E+02 -0.20696450221E+03 -0.77864369199E+03  0.81447838692E+03  0.99017486800E+02 0.  0.
          5    1    3    3  502    0 -0.12292482570E+02  0.74023819271E+02 -0.31923693488E+03  0.32797094618E+03  0.47000000000E+01 0. -1.
         -5    1    3    3    0  502 -0.54417905120E+02  0.13294068294E+03 -0.17659145441E+03  0.22768655066E+03  0.47000000000E+01 0. -1.
          5    1    4    4  503    0  0.34606558155E+02 -0.12148907981E+03 -0.27577781686E+03  0.30336892499E+03  0.47000000000E+01 0. -1.
         -5    1    4    4    0  503  0.32103829535E+02 -0.85475422402E+02 -0.50286587513E+03  0.51110946193E+03  0.47000000000E+01 0.  1.
<mgrwt>
<rscale>  0 0.24779217E+03</rscale>
<asrwt>0</asrwt>
<pdfrwt beam="1">  1        1 0.20343135E+00 0.25081759E+03</pdfrwt>
<pdfrwt beam="2">  1       -1 0.73587551E-02 0.25081759E+03</pdfrwt>
<totfact> 0.92450346E+02</totfact>
</mgrwt>
</event>
<event>
 8    1  0.3407580E-004  0.2022921E+03  0.7546771E-02  0.1151510E+00
          1   -1    0    0  501    0  0.00000000000E+00  0.00000000000E+00  0.14265639144E+04  0.14265639144E+04  0.00000000000E+00 0. -1.
         -1   -1    0    0    0  501 -0.00000000000E+00 -0.00000000000E+00 -0.29089071719E+02  0.29089071719E+02  0.00000000000E+00 0.  1.
         25    2    1    2    0    0  0.15156578015E+03 -0.48221663442E+02  0.95024152359E+03  0.97153541006E+03  0.12499834118E+03 0.  0.
         23    2    1    2    0    0 -0.15156578015E+03  0.48221663442E+02  0.44723331906E+03  0.48411757604E+03  0.95156036119E+02 0.  0.
          5    1    3    3  502    0  0.14194871226E+03 -0.29323710095E+02  0.93187452280E+03  0.94309147655E+03  0.47000000000E+01 0. -1.
         -5    1    4    4    0  503 -0.11561064857E+03 -0.88052480634E+01  0.31333130925E+03  0.33412864860E+03  0.47000000000E+01 0.  1.
          5    1    4    4  503    0 -0.35955131580E+02  0.57026911506E+02  0.13390200981E+03  0.14998892744E+03  0.47000000000E+01 0. -1.
         -5    1    3    3    0  502  0.96170678896E+01 -0.18897953347E+02  0.18367000790E+02  0.28443933510E+02  0.47000000000E+01 0. -1.
<mgrwt>
<rscale>  0 0.19791491E+03</rscale>
<asrwt>0</asrwt>
<pdfrwt beam="1">  1        1 0.21947132E+00 0.20229212E+03</pdfrwt>
<pdfrwt beam="2">  1       -1 0.44752429E-02 0.20229212E+03</pdfrwt>
<totfact> 0.16674441E+03</totfact>
</mgrwt>
</event>
<event>
 8    1  0.3407580E-004  0.1554856E+03  0.7546771E-02  0.1205005E+00
          2   -1    0    0  501    0  0.00000000000E+00  0.00000000000E+00  0.90300381826E+03  0.90300381826E+03  0.00000000000E+00 0. -1.
         -2   -1    0    0    0  501 -0.00000000000E+00 -0.00000000000E+00 -0.25907833477E+02  0.25907833477E+02  0.00000000000E+00 0.  1.
         25    2    1    2    0    0  0.85184614366E+02 -0.35951810536E+02  0.67596147399E+03  0.69361349704E+03  0.12500727078E+03 0.  0.
         23    2    1    2    0    0 -0.85184614366E+02  0.35951810536E+02  0.20113451079E+03  0.23529815470E+03  0.79756999490E+02 0.  0.
          5    1    4    4  502    0 -0.80533652967E+02  0.57744886457E+02  0.15930459206E+03  0.18767041382E+03  0.47000000000E+01 0. -1.
         -5    1    4    4    0  502 -0.46509613987E+01 -0.21793075921E+02  0.41829918731E+02  0.47627740877E+02  0.47000000000E+01 0.  1.
          5    1    3    3  503    0  0.50452962180E+01  0.34136813908E+02  0.68177265207E+02  0.76557211083E+02  0.47000000000E+01 0.  1.
         -5    1    3    3    0  503  0.80139318148E+02 -0.70088624444E+02  0.60778420878E+03  0.61705628595E+03  0.47000000000E+01 0.  1.
<mgrwt>
<rscale>  0 0.14637024E+03</rscale>
<asrwt>0</asrwt>
<pdfrwt beam="1">  1        2 0.13892364E+00 0.15548559E+03</pdfrwt>
<pdfrwt beam="2">  1       -2 0.39858212E-02 0.15548559E+03</pdfrwt>
<totfact> 0.81284471E+03</totfact>
</mgrwt>
</event>
<event>
 8    1  0.3407580E-004  0.2431666E+03  0.7546771E-02  0.1120424E+00
          1   -1    0    0  501    0  0.00000000000E+00  0.00000000000E+00  0.60999663168E+03  0.60999663168E+03  0.00000000000E+00 0. -1.
         -1   -1    0    0    0  501 -0.00000000000E+00 -0.00000000000E+00 -0.91837116354E+02  0.91837116354E+02  0.00000000000E+00 0.  1.
         25    2    1    2    0    0 -0.20506658677E+03 -0.38124583791E+02  0.30770749964E+03  0.39219116758E+03  0.12499687073E+03 0.  0.
         23    2    1    2    0    0  0.20506658677E+03  0.38124583791E+02  0.21045201568E+03  0.30964258046E+03  0.89903769825E+02 0.  0.
          5    1    4    4  502    0  0.94334874004E+02 -0.39733272574E+01  0.41499944866E+02  0.10324335914E+03  0.47000000000E+01 0. -1.
         -5    1    3    3    0  503 -0.64673888769E+02 -0.19819448899E+01  0.20350333560E+03  0.21359386132E+03  0.47000000000E+01 0. -1.
          5    1    3    3  503    0 -0.14039269800E+03 -0.36142638901E+02  0.10420416404E+03  0.17859730626E+03  0.47000000000E+01 0. -1.
         -5    1    4    4    0  502  0.11073171276E+03  0.42097911048E+02  0.16895207082E+03  0.20639922132E+03  0.47000000000E+01 0.  1.
<mgrwt>
<rscale>  0 0.23905458E+03</rscale>
<asrwt>0</asrwt>
<pdfrwt beam="1">  1        1 0.93845633E-01 0.24316662E+03</pdfrwt>
<pdfrwt beam="2">  1       -1 0.14128788E-01 0.24316662E+03</pdfrwt>
<totfact> 0.12156335E+03</totfact>
</mgrwt>
</event>
<event>
 8    1  0.3407580E-004  0.1669509E+03  0.7546771E-02  0.1188434E+00
         -1   -1    0    0    0  501 -0.00000000000E+00  0.00000000000E+00  0.13355830921E+03  0.13355830921E+03  0.00000000000E+00 0.  1.
          1   -1    0    0  501    0  0.00000000000E+00 -0.00000000000E+00 -0.21709047473E+03  0.21709047473E+03  0.00000000000E+00 0. -1.
         25    2    1    2    0    0 -0.10570377510E+03 -0.32772253318E+02 -0.11850971933E+03  0.20473682966E+03  0.12500122873E+03 0.  0.
         23    2    1    2    0    0  0.10570377510E+03  0.32772253318E+02  0.34977553810E+02  0.14591195428E+03  0.88428278701E+02 0.  0.
          5    1    3    3  502    0 -0.11902451943E+03 -0.58881428332E+02 -0.76584027966E+02  0.15336577900E+03  0.47000000000E+01 0.  1.
         -5    1    4    4    0  503  0.10175875925E+03 -0.28046265844E+01  0.39974091903E+02  0.10946565232E+03  0.47000000000E+01 0.  1.
          5    1    4    4  503    0  0.39450158470E+01  0.35576879903E+02 -0.49965380930E+01  0.36446301960E+02  0.47000000000E+01 0. -1.
         -5    1    3    3    0  502  0.13320744329E+02  0.26109175014E+02 -0.41925691368E+02  0.51371050662E+02  0.47000000000E+01 0.  1.
<mgrwt>
<rscale>  0 0.16023287E+03</rscale>
<asrwt>0</asrwt>
<pdfrwt beam="1">  1        1 0.33398534E-01 0.16695094E+03</pdfrwt>
<pdfrwt beam="2">  1       -1 0.20547433E-01 0.16695094E+03</pdfrwt>
<totfact> 0.24970830E+03</totfact>
</mgrwt>
</event>
<event>
 8    1  0.3407580E-004  0.1510632E+03  0.7546771E-02  0.1206594E+00
          1   -1    0    0  501    0  0.00000000000E+00  0.00000000000E+00  0.86467693945E+03  0.86467693945E+03  0.00000000000E+00 0. -1.
         -1   -1    0    0    0  501 -0.00000000000E+00 -0.00000000000E+00 -0.22893703214E+02  0.22893703214E+02  0.00000000000E+00 0.  1.
         25    2    1    2    0    0  0.82254968268E+02  0.20715082120E+02  0.40626046337E+03  0.43343702903E+03  0.12500039841E+03 0.  0.
         23    2    1    2    0    0 -0.82254968268E+02 -0.20715082120E+02  0.43552277286E+03  0.45413361363E+03  0.96758766611E+02 0.  0.
          5    1    3    3  502    0 -0.21795002267E+01  0.52024865410E+02  0.85281778009E+02  0.10003203738E+03  0.47000000000E+01 0.  1.
         -5    1    3    3    0  502  0.84434468494E+02 -0.31309783290E+02  0.32097868536E+03  0.33340499165E+03  0.47000000000E+01 0.  1.
          5    1    4    4  503    0 -0.85397525703E+02  0.15961019254E+02  0.24396548555E+03  0.25901494102E+03  0.47000000000E+01 0. -1.
         -5    1    4    4    0  503  0.31425574349E+01 -0.36676101374E+02  0.19155728731E+03  0.19511867261E+03  0.47000000000E+01 0.  1.
<mgrwt>
<rscale>  0 0.14512511E+03</rscale>
<asrwt>0</asrwt>
<pdfrwt beam="1">  1        1 0.13302720E+00 0.15106321E+03</pdfrwt>
<pdfrwt beam="2">  1       -1 0.35221089E-02 0.15106321E+03</pdfrwt>
<totfact> 0.59091799E+03</totfact>
</mgrwt>
</event>
<event>
 8    1  0.3407580E-004  0.1473294E+03  0.7546771E-02  0.1215075E+00
          1   -1    0    0  501    0  0.00000000000E+00  0.00000000000E+00  0.37335908736E+03  0.37335908736E+03  0.00000000000E+00 0. -1.
         -1   -1    0    0    0  501 -0.00000000000E+00 -0.00000000000E+00 -0.49026070681E+02  0.49026070681E+02  0.00000000000E+00 0.  1.
         25    2    1    2    0    0 -0.51525490139E+02 -0.58543822378E+02  0.22959074468E+03  0.27279637489E+03  0.12499478725E+03 0.  0.
         23    2    1    2    0    0  0.51525490139E+02  0.58543822378E+02  0.94742272001E+02  0.14958878315E+03  0.85547943675E+02 0.  0.
          5    1    3    3  502    0 -0.21801381052E+02 -0.87046969008E+02  0.89990079669E+02  0.12717224331E+03  0.47000000000E+01 0.  1.
         -5    1    4    4    0  503  0.59220710974E+02  0.13082285809E+02  0.24815939065E+02  0.65697485811E+02  0.47000000000E+01 0.  1.
          5    1    4    4  503    0 -0.76952208351E+01  0.45461536569E+02  0.69926332936E+02  0.83891297336E+02  0.47000000000E+01 0. -1.
         -5    1    3    3    0  502 -0.29724109087E+02  0.28503146630E+02  0.13960066501E+03  0.14562413159E+03  0.47000000000E+01 0.  1.
<mgrwt>
<rscale>  0 0.13871008E+03</rscale>
<asrwt>0</asrwt>
<pdfrwt beam="1">  1        1 0.57439858E-01 0.14732940E+03</pdfrwt>
<pdfrwt beam="2">  1       -1 0.75424726E-02 0.14732940E+03</pdfrwt>
<totfact> 0.60060826E+03</totfact>
</mgrwt>
</event>
<event>
 8    1  0.3407580E-004  0.1728178E+03  0.7546771E-02  0.1181159E+00
         -1   -1    0    0    0  501 -0.00000000000E+00  0.00000000000E+00  0.88405626271E+02  0.88405626271E+02  0.00000000000E+00 0.  1.
          1   -1    0    0  501    0  0.00000000000E+00 -0.00000000000E+00 -0.34528977107E+03  0.34528977107E+03  0.00000000000E+00 0. -1.
         25    2    1    2    0    0  0.11591811211E+03  0.28326048981E+02 -0.53596802669E+02  0.18093812422E+03  0.12500645493E+03 0.  0.
         23    2    1    2    0    0 -0.11591811211E+03 -0.28326048981E+02 -0.20328734213E+03  0.25275727312E+03  0.91220183503E+02 0.  0.
          5    1    4    4  502    0 -0.95784908942E+02 -0.49093678787E+01 -0.19935068896E+03  0.22127276801E+03  0.47000000000E+01 0. -1.
         -5    1    4    4    0  502 -0.20133203168E+02 -0.23416681103E+02 -0.39366531674E+01  0.31484505107E+02  0.47000000000E+01 0.  1.
          5    1    3    3  503    0  0.12052103612E+03  0.63331353721E+02 -0.34525844802E+02  0.14053577648E+03  0.47000000000E+01 0.  1.
         -5    1    3    3    0  503 -0.46029240066E+01 -0.35005304740E+02 -0.19070957867E+02  0.40402347745E+02  0.47000000000E+01 0.  1.
<mgrwt>
<rscale>  0 0.16686295E+03</rscale>
<asrwt>0</asrwt>
<pdfrwt beam="1">  1        1 0.53121504E-01 0.17281779E+03</pdfrwt>
<pdfrwt beam="2">  1       -1 0.13600865E-01 0.17281779E+03</pdfrwt>
<totfact> 0.27014035E+03</totfact>
</mgrwt>
</event>
<event>
 8    1  0.3407580E-004  0.1301468E+03  0.7546771E-02  0.1241199E+00
         -1   -1    0    0    0  501 -0.00000000000E+00  0.00000000000E+00  0.12836648677E+03  0.12836648677E+03  0.00000000000E+00 0.  1.
          1   -1    0    0  501    0  0.00000000000E+00 -0.00000000000E+00 -0.10114944554E+03  0.10114944554E+03  0.00000000000E+00 0. -1.
         25    2    1    2    0    0  0.62418101038E+01  0.35669813970E+02  0.15001702553E+02  0.13100850870E+03  0.12500752958E+03 0.  0.
         23    2    1    2    0    0 -0.62418101038E+01 -0.35669813970E+02  0.12215338677E+02  0.98507423601E+02  0.90792082163E+02 0.  0.
          5    1    4    4  502    0 -0.43786746801E+02 -0.22855410375E+02  0.26291080117E+02  0.56151223251E+02  0.47000000000E+01 0. -1.
         -5    1    3    3    0  503  0.14705324988E+02  0.65199833477E+02 -0.32323609836E+02  0.74392006434E+02  0.47000000000E+01 0. -1.
          5    1    3    3  503    0 -0.84635148841E+01 -0.29530019507E+02  0.47325312389E+02  0.56616502267E+02  0.47000000000E+01 0. -1.
         -5    1    4    4    0  502  0.37544936697E+02 -0.12814403595E+02 -0.14075741440E+02  0.42356200351E+02  0.47000000000E+01 0.  1.
<mgrwt>
<rscale>  0 0.12115769E+03</rscale>
<asrwt>0</asrwt>
<pdfrwt beam="1">  1        1 0.15561453E-01 0.13014676E+03</pdfrwt>
<pdfrwt beam="2">  1       -1 0.19748690E-01 0.13014676E+03</pdfrwt>
<totfact> 0.69023265E+03</totfact>
</mgrwt>
</event>
<event>
 8    1  0.3407580E-004  0.1559861E+03  0.7546771E-02  0.1201380E+00
          2   -1    0    0  501    0  0.00000000000E+00  0.00000000000E+00  0.79350292040E+03  0.79350292040E+03  0.00000000000E+00 0. -1.
         -2   -1    0    0    0  501 -0.00000000000E+00 -0.00000000000E+00 -0.44868610847E+02  0.44868610847E+02  0.00000000000E+00 0.  1.
         25    2    1    2    0    0 -0.32527781897E+02  0.87459982371E+02  0.12143670535E+03  0.19768295773E+03  0.12499749300E+03 0.  0.
         23    2    1    2    0    0  0.32527781897E+02 -0.87459982371E+02  0.62719760420E+03  0.64068857352E+03  0.91639011427E+02 0.  0.
          5    1    4    4  502    0 -0.18023174972E+02 -0.53569908912E+02  0.44356935347E+03  0.44718053549E+03  0.47000000000E+01 0. -1.
         -5    1    4    4    0  502  0.50550956869E+02 -0.33890073458E+02  0.18362825073E+03  0.19350803804E+03  0.47000000000E+01 0.  1.
          5    1    3    3  503    0 -0.24985450201E+02  0.10858103000E+03  0.49181272612E+02  0.12188109112E+03  0.47000000000E+01 0.  1.
         -5    1    3    3    0  503 -0.75423316956E+01 -0.21121047627E+02  0.72255432741E+02  0.75801866606E+02  0.47000000000E+01 0.  1.
<mgrwt>
<rscale>  0 0.14926396E+03</rscale>
<asrwt>0</asrwt>
<pdfrwt beam="1">  1        2 0.12207736E+00 0.15598615E+03</pdfrwt>
<pdfrwt beam="2">  1       -2 0.69028638E-02 0.15598615E+03</pdfrwt>
<totfact> 0.41834812E+03</totfact>
</mgrwt>
</event>
<event>
 8    1  0.3407580E-004  0.1254484E+03  0.7546771E-02  0.1249771E+00
          2   -1    0    0  501    0  0.00000000000E+00  0.00000000000E+00  0.43139953483E+02  0.43139953483E+02  0.00000000000E+00 0. -1.
         -2   -1    0    0    0  501 -0.00000000000E+00 -0.00000000000E+00 -0.55285611003E+03  0.55285611003E+03  0.00000000000E+00 0.  1.
         25    2    1    2    0    0  0.48574548656E+00  0.10648708479E+02 -0.63840913083E+02  0.14075854788E+03  0.12499470259E+03 0.  0.
         23    2    1    2    0    0 -0.48574548656E+00 -0.10648708479E+02 -0.44587524347E+03  0.45523751564E+03  0.91229556435E+02 0.  0.
          5    1    4    4  502    0 -0.45380446611E+02 -0.90588079860E+01 -0.21242495228E+03  0.21745780576E+03  0.47000000000E+01 0. -1.
         -5    1    3    3    0  503 -0.46782122340E+02 -0.15937806237E+01 -0.76762872709E+02  0.90031859548E+02  0.47000000000E+01 0. -1.
          5    1    3    3  503    0  0.47267867826E+02  0.12242489103E+02  0.12921959625E+02  0.50726688329E+02  0.47000000000E+01 0. -1.
         -5    1    4    4    0  502  0.44894701125E+02 -0.15899004934E+01 -0.23345029119E+03  0.23777970988E+03  0.47000000000E+01 0.  1.
<mgrwt>
<rscale>  0 0.11604300E+03</rscale>
<asrwt>0</asrwt>
<pdfrwt beam="1">  1        2 0.66369158E-02 0.12544842E+03</pdfrwt>
<pdfrwt beam="2">  1       -2 0.85054788E-01 0.12544842E+03</pdfrwt>
<totfact> 0.12980494E+03</totfact>
</mgrwt>
</event>
<event>
 8    1  0.3407580E-004  0.1506232E+03  0.7546771E-02  0.1209391E+00
          2   -1    0    0  501    0  0.00000000000E+00  0.00000000000E+00  0.18600105779E+03  0.18600105779E+03  0.00000000000E+00 0.  1.
         -2   -1    0    0    0  501 -0.00000000000E+00 -0.00000000000E+00 -0.10287362093E+03  0.10287362093E+03  0.00000000000E+00 0. -1.
         25    2    1    2    0    0 -0.42641843395E+02  0.72409663901E+02  0.22108121157E+02  0.15223699998E+03  0.12500339558E+03 0.  0.
         23    2    1    2    0    0  0.42641843395E+02 -0.72409663901E+02  0.61019315698E+02  0.13663767874E+03  0.88797590790E+02 0.  0.
          5    1    4    4  502    0  0.50234857037E+02 -0.50014926736E+02  0.16210537290E-01  0.71043113817E+02  0.47000000000E+01 0. -1.
         -5    1    3    3    0  503 -0.35182429180E+01  0.58150795706E+02 -0.44557975197E+02  0.73494191798E+02  0.47000000000E+01 0. -1.
          5    1    3    3  503    0 -0.39123600477E+02  0.14258868195E+02  0.66666096355E+02  0.78742808177E+02  0.47000000000E+01 0. -1.
         -5    1    4    4    0  502 -0.75930136425E+01 -0.22394737165E+02  0.61003105161E+02  0.65594564928E+02  0.47000000000E+01 0.  1.
<mgrwt>
<rscale>  0 0.14296714E+03</rscale>
<asrwt>0</asrwt>
<pdfrwt beam="1">  1        2 0.28615547E-01 0.15062316E+03</pdfrwt>
<pdfrwt beam="2">  1       -2 0.15826711E-01 0.15062316E+03</pdfrwt>
<totfact> 0.55534641E+03</totfact>
</mgrwt>
</event>
<event>
 8    1  0.3407580E-004  0.1265838E+03  0.7546771E-02  0.1247092E+00
         -1   -1    0    0    0  501 -0.00000000000E+00  0.00000000000E+00  0.44304006985E+02  0.44304006985E+02  0.00000000000E+00 0.  1.
          1   -1    0    0  501    0  0.00000000000E+00 -0.00000000000E+00 -0.27717636193E+03  0.27717636193E+03  0.00000000000E+00 0. -1.
         25    2    1    2    0    0 -0.10258161267E+02 -0.17145825714E+02 -0.12054567751E+03  0.17479905878E+03  0.12499696545E+03 0.  0.
         23    2    1    2    0    0  0.10258161267E+02  0.17145825714E+02 -0.11232667744E+03  0.14668131014E+03  0.92189560513E+02 0.  0.
          5    1    3    3  502    0  0.34453331216E+02  0.33989657122E+02 -0.85160040516E+02  0.98064526328E+02  0.47000000000E+01 0. -1.
         -5    1    4    4    0  503  0.44638056751E+02  0.15124698004E+02 -0.26937607491E+02  0.54488873153E+02  0.47000000000E+01 0.  1.
          5    1    4    4  503    0 -0.34379895484E+02  0.20211277097E+01 -0.85389069950E+02  0.92192436987E+02  0.47000000000E+01 0. -1.
         -5    1    3    3    0  502 -0.44711492483E+02 -0.51135482836E+02 -0.35385636990E+02  0.76734532448E+02  0.47000000000E+01 0. -1.
<mgrwt>
<rscale>  0 0.11761043E+03</rscale>
<asrwt>0</asrwt>
<pdfrwt beam="1">  1        1 0.42642517E-01 0.12658377E+03</pdfrwt>
<pdfrwt beam="2">  1       -1 0.68160011E-02 0.12658377E+03</pdfrwt>
<totfact> 0.10020791E+04</totfact>
</mgrwt>
</event>
<event>
 8    1  0.3407580E-004  0.1336641E+03  0.7546771E-02  0.1235199E+00
          1   -1    0    0  501    0  0.00000000000E+00  0.00000000000E+00  0.16384795741E+03  0.16384795741E+03  0.00000000000E+00 0. -1.
         -1   -1    0    0    0  501 -0.00000000000E+00 -0.00000000000E+00 -0.12241684395E+03  0.12241684395E+03  0.00000000000E+00 0.  1.
         25    2    1    2    0    0 -0.43002952168E+02 -0.19780337271E+02  0.10158073650E+03  0.16788312497E+03  0.12500232792E+03 0.  0.
         23    2    1    2    0    0  0.43002952168E+02  0.19780337271E+02 -0.60149623036E+02  0.11838167639E+03  0.90309072165E+02 0.  0.
          5    1    4    4  502    0  0.66986834046E+02 -0.14737061450E+01 -0.52105338031E+02  0.85008611309E+02  0.47000000000E+01 0. -1.
         -5    1    3    3    0  503 -0.23387257813E+01 -0.65903526673E+02  0.27788441598E+02  0.71714935353E+02  0.47000000000E+01 0.  1.
          5    1    3    3  503    0 -0.40664226387E+02  0.46123189402E+02  0.73792294900E+02  0.96168189620E+02  0.47000000000E+01 0.  1.
         -5    1    4    4    0  502 -0.23983881878E+02  0.21254043416E+02 -0.80442850053E+01  0.33373065079E+02  0.47000000000E+01 0.  1.
<mgrwt>
<rscale>  0 0.12491676E+03</rscale>
<asrwt>0</asrwt>
<pdfrwt beam="1">  1        1 0.25207378E-01 0.13366412E+03</pdfrwt>
<pdfrwt beam="2">  1       -1 0.18833361E-01 0.13366412E+03</pdfrwt>
<totfact> 0.40403360E+03</totfact>
</mgrwt>
</event>
<event>
 8    1  0.3407580E-004  0.2506240E+03  0.7546771E-02  0.1115318E+00
          2   -1    0    0  501    0  0.00000000000E+00  0.00000000000E+00  0.24226991618E+03  0.24226991618E+03  0.00000000000E+00 0. -1.
         -2   -1    0    0    0  501 -0.00000000000E+00 -0.00000000000E+00 -0.25721962239E+03  0.25721962239E+03  0.00000000000E+00 0.  1.
         25    2    1    2    0    0  0.19346963236E+03 -0.98774427112E+02 -0.63883357570E+02  0.25863771968E+03  0.12500200225E+03 0.  0.
         23    2    1    2    0    0 -0.19346963236E+03  0.98774427112E+02  0.48933651360E+02  0.24085181890E+03  0.91805284881E+02 0.  0.
          5    1    4    4  502    0 -0.59419731314E+02  0.75491978259E+02  0.40767312895E+02  0.10446916795E+03  0.47000000000E+01 0. -1.
         -5    1    4    4    0  502 -0.13404990105E+03  0.23282448853E+02  0.81663384645E+01  0.13638265095E+03  0.47000000000E+01 0.  1.
          5    1    3    3  503    0  0.11367074589E+03  0.39307500329E+01 -0.40823569055E+00  0.11383648767E+03  0.47000000000E+01 0. -1.
         -5    1    3    3    0  503  0.79798886468E+02 -0.10270517714E+03 -0.63475121880E+02  0.14480123201E+03  0.47000000000E+01 0. -1.
<mgrwt>
<rscale>  0 0.24684030E+03</rscale>
<asrwt>0</asrwt>
<pdfrwt beam="1">  1        2 0.37272295E-01 0.25062399E+03</pdfrwt>
<pdfrwt beam="2">  1       -2 0.39572250E-01 0.25062399E+03</pdfrwt>
<totfact> 0.84039457E+02</totfact>
</mgrwt>
</event>
<event>
 8    1  0.3407580E-004  0.2031800E+03  0.7546771E-02  0.1151073E+00
         -2   -1    0    0    0  501 -0.00000000000E+00  0.00000000000E+00  0.10904968636E+03  0.10904968636E+03  0.00000000000E+00 0.  1.
          2   -1    0    0  501    0  0.00000000000E+00 -0.00000000000E+00 -0.36715278542E+03  0.36715278542E+03  0.00000000000E+00 0. -1.
         25    2    1    2    0    0 -0.15872912149E+03  0.21516306573E+02 -0.19303681808E+03  0.28025941514E+03  0.12499696471E+03 0.  0.
         23    2    1    2    0    0  0.15872912149E+03 -0.21516306573E+02 -0.65066280983E+02  0.19594305663E+03  0.92207239768E+02 0.  0.
          5    1    4    4  502    0  0.12542326690E+03  0.67613765009E+01 -0.80622372249E+02  0.14932772348E+03  0.47000000000E+01 0. -1.
         -5    1    4    4    0  502  0.33305854586E+02 -0.28277683073E+02  0.15556091266E+02  0.46615333155E+02  0.47000000000E+01 0.  1.
          5    1    3    3  503    0 -0.13992785300E+03  0.84232702199E+01 -0.73297424332E+02  0.15825725241E+03  0.47000000000E+01 0.  1.
         -5    1    3    3    0  503 -0.18801268487E+02  0.13093036353E+02 -0.11973939374E+03  0.12200216273E+03  0.47000000000E+01 0.  1.
<mgrwt>
<rscale>  0 0.19842692E+03</rscale>
<asrwt>0</asrwt>
<pdfrwt beam="1">  1        2 0.56485044E-01 0.20318004E+03</pdfrwt>
<pdfrwt beam="2">  1       -2 0.16776875E-01 0.20318004E+03</pdfrwt>
<totfact> 0.24593936E+03</totfact>
</mgrwt>
</event>
<event>
 8    1  0.3407580E-004  0.2467651E+03  0.7546771E-02  0.1117658E+00
         -1   -1    0    0    0  501 -0.00000000000E+00  0.00000000000E+00  0.27681118980E+02  0.27681118980E+02  0.00000000000E+00 0.  1.
          1   -1    0    0  501    0  0.00000000000E+00 -0.00000000000E+00 -0.22354734272E+04  0.22354734272E+04  0.00000000000E+00 0. -1.
         25    2    1    2    0    0  0.12741365139E+03  0.17037608245E+03 -0.83349402136E+03  0.86925559920E+03  0.12502305818E+03 0.  0.
         23    2    1    2    0    0 -0.12741365139E+03 -0.17037608245E+03 -0.13742982868E+04  0.13938989470E+04  0.94848537569E+02 0.  0.
          5    1    3    3  502    0 -0.21166074089E+02  0.21277471870E+02 -0.18393474262E+03  0.18642642796E+03  0.47000000000E+01 0.  1.
         -5    1    4    4    0  503 -0.58049817446E+02 -0.55773103244E+02 -0.27869961375E+03  0.29013097914E+03  0.47000000000E+01 0.  1.
          5    1    4    4  503    0 -0.69363833940E+02 -0.11460297920E+03 -0.10955986731E+04  0.11037679678E+04  0.47000000000E+01 0. -1.
         -5    1    3    3    0  502  0.14857972547E+03  0.14909861058E+03 -0.64955927874E+03  0.68282917124E+03  0.47000000000E+01 0.  1.
<mgrwt>
<rscale>  0 0.24323231E+03</rscale>
<asrwt>0</asrwt>
<pdfrwt beam="1">  1        1 0.34391918E+00 0.24676510E+03</pdfrwt>
<pdfrwt beam="2">  1       -1 0.42586314E-02 0.24676510E+03</pdfrwt>
<totfact> 0.53246065E+02</totfact>
</mgrwt>
</event>
<event>
 8    1  0.3407580E-004  0.1295778E+03  0.7546771E-02  0.1241963E+00
          1   -1    0    0  501    0  0.00000000000E+00  0.00000000000E+00  0.94451735128E+03  0.94451735128E+03  0.00000000000E+00 0. -1.
         -1   -1    0    0    0  501 -0.00000000000E+00 -0.00000000000E+00 -0.18695580799E+02  0.18695580799E+02  0.00000000000E+00 0.  1.
         25    2    1    2    0    0 -0.77596136879E+01 -0.33201295273E+02  0.75897114651E+03  0.76995299623E+03  0.12501150971E+03 0.  0.
         23    2    1    2    0    0  0.77596136879E+01  0.33201295273E+02  0.16685062397E+03  0.19325993584E+03  0.91365937153E+02 0.  0.
          5    1    4    4  502    0 -0.40500075934E+02  0.14695954875E+02  0.96974637976E+02  0.10621863137E+03  0.47000000000E+01 0. -1.
         -5    1    4    4    0  502  0.48259689622E+02  0.18505340398E+02  0.69875985990E+02  0.87041304469E+02  0.47000000000E+01 0.  1.
          5    1    3    3  503    0 -0.82182600898E+01 -0.77859483691E+02  0.58693198136E+03  0.59214937283E+03  0.47000000000E+01 0.  1.
         -5    1    3    3    0  503  0.45864640184E+00  0.44658188418E+02  0.17203916515E+03  0.17780362340E+03  0.47000000000E+01 0.  1.
<mgrwt>
<rscale>  0 0.12069024E+03</rscale>
<asrwt>0</asrwt>
<pdfrwt beam="1">  1        1 0.14531032E+00 0.12957783E+03</pdfrwt>
<pdfrwt beam="2">  1       -1 0.28762439E-02 0.12957783E+03</pdfrwt>
<totfact> 0.68469654E+03</totfact>
</mgrwt>
</event>
<event>
 8    1  0.3407580E-004  0.1276783E+03  0.7546771E-02  0.1248162E+00
          2   -1    0    0  501    0  0.00000000000E+00  0.00000000000E+00  0.11316215189E+03  0.11316215189E+03  0.00000000000E+00 0. -1.
         -2   -1    0    0    0  501 -0.00000000000E+00 -0.00000000000E+00 -0.11585554498E+03  0.11585554498E+03  0.00000000000E+00 0.  1.
         25    2    1    2    0    0 -0.21279113583E+02 -0.15079162326E+02  0.33561376678E+02  0.13201556290E+03  0.12498624337E+03 0.  0.
         23    2    1    2    0    0  0.21279113583E+02  0.15079162326E+02 -0.36254769767E+02  0.97002133970E+02  0.86109371456E+02 0.  0.
          5    1    3    3  502    0 -0.60033760868E+02 -0.45711301868E+02  0.32740153612E+02  0.82386790330E+02  0.47000000000E+01 0.  1.
         -5    1    4    4    0  503  0.49897797701E+02  0.27018313379E+02 -0.32105741373E+02  0.65365496267E+02  0.47000000000E+01 0.  1.
          5    1    4    4  503    0 -0.28618684118E+02 -0.11939151052E+02 -0.41490283942E+01  0.31636637702E+02  0.47000000000E+01 0. -1.
         -5    1    3    3    0  502  0.38754647285E+02  0.30632139541E+02  0.82122306643E+00  0.49628772566E+02  0.47000000000E+01 0.  1.
<mgrwt>
<rscale>  0 0.11698089E+03</rscale>
<asrwt>0</asrwt>
<pdfrwt beam="1">  1        2 0.17409562E-01 0.12767828E+03</pdfrwt>
<pdfrwt beam="2">  1       -2 0.17823930E-01 0.12767828E+03</pdfrwt>
<totfact> 0.78599691E+03</totfact>
</mgrwt>
</event>
<event>
 8    1  0.3407580E-004  0.1590521E+03  0.7546771E-02  0.1198020E+00
          1   -1    0    0  501    0  0.00000000000E+00  0.00000000000E+00  0.27563205687E+03  0.27563205687E+03  0.00000000000E+00 0. -1.
         -1   -1    0    0    0  501 -0.00000000000E+00 -0.00000000000E+00 -0.84939594598E+02  0.84939594598E+02  0.00000000000E+00 0.  1.
         25    2    1    2    0    0  0.19456165900E+02 -0.96409782777E+02  0.15735042893E+03  0.22373362329E+03  0.12499675235E+03 0.  0.
         23    2    1    2    0    0 -0.19456165900E+02  0.96409782777E+02  0.33342033338E+02  0.13683802818E+03  0.89104243234E+02 0.  0.
          5    1    4    4  502    0  0.30943304729E+02  0.34000241275E+02 -0.73048679404E+01  0.46786275872E+02  0.47000000000E+01 0.  1.
         -5    1    4    4    0  502 -0.50399470629E+02  0.62409541502E+02  0.40646901278E+02  0.90051752308E+02  0.47000000000E+01 0.  1.
          5    1    3    3  503    0  0.39460065213E+02  0.16456730802E+02  0.56328459073E+02  0.70872463178E+02  0.47000000000E+01 0. -1.
         -5    1    3    3    0  503 -0.20003899313E+02 -0.11286651358E+03  0.10102196986E+03  0.15286116011E+03  0.47000000000E+01 0. -1.
<mgrwt>
<rscale>  0 0.15201401E+03</rscale>
<asrwt>0</asrwt>
<pdfrwt beam="1">  1        1 0.42404931E-01 0.15905212E+03</pdfrwt>
<pdfrwt beam="2">  1       -1 0.13067630E-01 0.15905212E+03</pdfrwt>
<totfact> 0.37959331E+03</totfact>
</mgrwt>
</event>
<event>
 8    1  0.3407580E-004  0.1303753E+03  0.7546771E-02  0.1239377E+00
         -1   -1    0    0    0  501 -0.00000000000E+00  0.00000000000E+00  0.17352961781E+02  0.17352961781E+02  0.00000000000E+00 0.  1.
          1   -1    0    0  501    0  0.00000000000E+00 -0.00000000000E+00 -0.84006860263E+03  0.84006860263E+03  0.00000000000E+00 0. -1.
         25    2    1    2    0    0 -0.21119392945E+02  0.30462947873E+02 -0.33707419934E+03  0.36140937406E+03  0.12499479927E+03 0.  0.
         23    2    1    2    0    0  0.21119392945E+02 -0.30462947873E+02 -0.48564144152E+03  0.49601219036E+03  0.93842758461E+02 0.  0.
          5    1    4    4  502    0  0.45272087486E+02 -0.22252201329E+02 -0.44448667164E+03  0.44736474339E+03  0.47000000000E+01 0. -1.
         -5    1    3    3    0  503 -0.58407629370E+02 -0.24096500400E+02 -0.18437854456E+03  0.19496058626E+03  0.47000000000E+01 0.  1.
          5    1    3    3  503    0  0.37288236425E+02  0.54559448274E+02 -0.15269565477E+03  0.16644878779E+03  0.47000000000E+01 0.  1.
         -5    1    4    4    0  502 -0.24152694540E+02 -0.82107465440E+01 -0.41154769878E+02  0.48647446963E+02  0.47000000000E+01 0.  1.
<mgrwt>
<rscale>  0 0.12228341E+03</rscale>
<asrwt>0</asrwt>
<pdfrwt beam="1">  1        1 0.12924130E+00 0.13037530E+03</pdfrwt>
<pdfrwt beam="2">  1       -1 0.26696870E-02 0.13037530E+03</pdfrwt>
<totfact> 0.91864592E+03</totfact>
</mgrwt>
</event>
<event>
 8    1  0.3407580E-004  0.1492173E+03  0.7546771E-02  0.1209633E+00
          2   -1    0    0  501    0  0.00000000000E+00  0.00000000000E+00  0.29341006394E+03  0.29341006394E+03  0.00000000000E+00 0. -1.
         -2   -1    0    0    0  501 -0.00000000000E+00 -0.00000000000E+00 -0.71826608014E+02  0.71826608014E+02  0.00000000000E+00 0.  1.
         25    2    1    2    0    0  0.81056595267E+02  0.84052343072E+01  0.17911856625E+03  0.23312926134E+03  0.12499988846E+03 0.  0.
         23    2    1    2    0    0 -0.81056595267E+02 -0.84052343072E+01  0.42464889675E+02  0.13210741062E+03  0.94911967030E+02 0.  0.
          5    1    3    3  502    0  0.10686373110E+03 -0.15989965943E+02  0.15822885985E+03  0.19166115445E+03  0.47000000000E+01 0.  1.
         -5    1    4    4    0  503  0.12625252796E+02  0.19119119723E+02 -0.42378305101E+01  0.23769454234E+02  0.47000000000E+01 0.  1.
          5    1    4    4  503    0 -0.93681848063E+02 -0.27524354030E+02  0.46702720185E+02  0.10833795639E+03  0.47000000000E+01 0. -1.
         -5    1    3    3    0  502 -0.25807135833E+02  0.24395200250E+02  0.20889706400E+02  0.41468106885E+02  0.47000000000E+01 0.  1.
<mgrwt>
<rscale>  0 0.14278266E+03</rscale>
<asrwt>0</asrwt>
<pdfrwt beam="1">  1        2 0.45140009E-01 0.14921726E+03</pdfrwt>
<pdfrwt beam="2">  1       -2 0.11050248E-01 0.14921726E+03</pdfrwt>
<totfact> 0.60808545E+03</totfact>
</mgrwt>
</event>
<event>
 8    1  0.3407580E-004  0.1478716E+03  0.7546771E-02  0.1211769E+00
         -1   -1    0    0    0  501 -0.00000000000E+00  0.00000000000E+00  0.89438451898E+02  0.89438451898E+02  0.00000000000E+00 0.  1.
          1   -1    0    0  501    0  0.00000000000E+00 -0.00000000000E+00 -0.20791881024E+03  0.20791881024E+03  0.00000000000E+00 0. -1.
         25    2    1    2    0    0  0.66077703865E+02  0.43329893251E+02 -0.46547735696E+02  0.15502479530E+03  0.12498901096E+03 0.  0.
         23    2    1    2    0    0 -0.66077703865E+02 -0.43329893251E+02 -0.71932622647E+02  0.14233246684E+03  0.94023860371E+02 0.  0.
          5    1    4    4  502    0 -0.83781383713E+02 -0.11320724514E+02 -0.59203265127E+02  0.10331793485E+03  0.47000000000E+01 0. -1.
         -5    1    3    3    0  503 -0.19893451209E+02  0.56358569555E+02 -0.10914274159E+02  0.60936435272E+02  0.47000000000E+01 0. -1.
          5    1    3    3  503    0  0.85971155074E+02 -0.13028676303E+02 -0.35633461537E+02  0.94088360024E+02  0.47000000000E+01 0. -1.
         -5    1    4    4    0  502  0.17703679849E+02 -0.32009168738E+02 -0.12729357521E+02  0.39014531990E+02  0.47000000000E+01 0.  1.
<mgrwt>
<rscale>  0 0.14116559E+03</rscale>
<asrwt>0</asrwt>
<pdfrwt beam="1">  1        1 0.31987509E-01 0.14787155E+03</pdfrwt>
<pdfrwt beam="2">  1       -1 0.13759762E-01 0.14787155E+03</pdfrwt>
<totfact> 0.49517512E+03</totfact>
</mgrwt>
</event>
<event>
 8    1  0.3407580E-004  0.1274325E+03  0.7546771E-02  0.1245894E+00
          2   -1    0    0  501    0  0.00000000000E+00  0.00000000000E+00  0.62908397899E+03  0.62908397899E+03  0.00000000000E+00 0. -1.
         -2   -1    0    0    0  501 -0.00000000000E+00 -0.00000000000E+00 -0.20784918038E+02  0.20784918038E+02  0.00000000000E+00 0.  1.
         25    2    1    2    0    0 -0.99371728063E+01 -0.22681961750E+02  0.26998985231E+03  0.29855243823E+03  0.12500327688E+03 0.  0.
         23    2    1    2    0    0  0.99371728063E+01  0.22681961750E+02  0.33830920864E+03  0.35131645880E+03  0.91416162564E+02 0.  0.
          5    1    4    4  502    0  0.20563926032E+02 -0.31450888834E+02  0.10804356021E+03  0.11448814071E+03  0.47000000000E+01 0. -1.
         -5    1    3    3    0  503 -0.42310376109E+02 -0.30605692034E+02  0.25728971777E+03  0.26257754127E+03  0.47000000000E+01 0. -1.
          5    1    3    3  503    0  0.32373203302E+02  0.79237302835E+01  0.12700134540E+02  0.35974896956E+02  0.47000000000E+01 0. -1.
         -5    1    4    4    0  502 -0.10626753225E+02  0.54132850584E+02  0.23026564844E+03  0.23682831808E+03  0.47000000000E+01 0.  1.
<mgrwt>
<rscale>  0 0.11832049E+03</rscale>
<asrwt>0</asrwt>
<pdfrwt beam="1">  1        2 0.96782136E-01 0.12743248E+03</pdfrwt>
<pdfrwt beam="2">  1       -2 0.31976802E-02 0.12743248E+03</pdfrwt>
<totfact> 0.17299736E+04</totfact>
</mgrwt>
</event>
<event>
 8    1  0.3407580E-004  0.1286851E+03  0.7546771E-02  0.1244231E+00
          3   -1    0    0  501    0  0.00000000000E+00  0.00000000000E+00  0.51640272304E+02  0.51640272304E+02  0.00000000000E+00 0. -1.
         -3   -1    0    0    0  501 -0.00000000000E+00 -0.00000000000E+00 -0.28848285304E+03  0.28848285304E+03  0.00000000000E+00 0.  1.
         25    2    1    2    0    0 -0.29946567567E+02  0.61805176815E+01 -0.20064030924E+03  0.23836189248E+03  0.12499944955E+03 0.  0.
         23    2    1    2    0    0  0.29946567567E+02 -0.61805176815E+01 -0.36202271497E+02  0.10176123287E+03  0.90054141187E+02 0.  0.
          5    1    4    4  502    0  0.88132587122E+00 -0.37810424575E+02  0.90700178887E+01  0.39176015192E+02  0.47000000000E+01 0. -1.
         -5    1    4    4    0  502  0.29065241696E+02  0.31629906894E+02 -0.45272289386E+02  0.62585217673E+02  0.47000000000E+01 0.  1.
          5    1    3    3  503    0 -0.28742704183E+02  0.46828620700E+02 -0.18738726188E+03  0.19533340389E+03  0.47000000000E+01 0.  1.
         -5    1    3    3    0  503 -0.12038633844E+01 -0.40648103019E+02 -0.13253047361E+02  0.43028488591E+02  0.47000000000E+01 0.  1.
<mgrwt>
<rscale>  0 0.11931520E+03</rscale>
<asrwt>0</asrwt>
<pdfrwt beam="1">  1        3 0.79446572E-02 0.12868511E+03</pdfrwt>
<pdfrwt beam="2">  1       -3 0.44381978E-01 0.12868511E+03</pdfrwt>
<totfact> 0.12473581E+03</totfact>
</mgrwt>
</event>
<event>
 8    1  0.3407580E-004  0.1651141E+03  0.7546771E-02  0.1188874E+00
          1   -1    0    0  501    0  0.00000000000E+00  0.00000000000E+00  0.39499016204E+03  0.39499016204E+03  0.00000000000E+00 0. -1.
         -1   -1    0    0    0  501 -0.00000000000E+00 -0.00000000000E+00 -0.65771688298E+02  0.65771688298E+02  0.00000000000E+00 0.  1.
         25    2    1    2    0    0  0.95414151063E+02 -0.50322684780E+02  0.23720882825E+03  0.28901674644E+03  0.12500567465E+03 0.  0.
         23    2    1    2    0    0 -0.95414151063E+02  0.50322684780E+02  0.92009645491E+02  0.17174510390E+03  0.96924573888E+02 0.  0.
          5    1    4    4  502    0 -0.78249881583E+01  0.55546655733E+02  0.45144747083E+02  0.72158156794E+02  0.47000000000E+01 0. -1.
         -5    1    4    4    0  502 -0.87589162905E+02 -0.52239709526E+01  0.46864898408E+02  0.99586947105E+02  0.47000000000E+01 0.  1.
          5    1    3    3  503    0 -0.34206458414E+01 -0.55490398516E+02  0.41095210079E+02  0.69294959679E+02  0.47000000000E+01 0. -1.
         -5    1    3    3    0  503  0.98834796905E+02  0.51677137362E+01  0.19611361817E+03  0.21972178676E+03  0.47000000000E+01 0. -1.
<mgrwt>
<rscale>  0 0.15984333E+03</rscale>
<asrwt>0</asrwt>
<pdfrwt beam="1">  1        1 0.60767716E-01 0.16511406E+03</pdfrwt>
<pdfrwt beam="2">  1       -1 0.10118722E-01 0.16511406E+03</pdfrwt>
<totfact> 0.35989907E+03</totfact>
</mgrwt>
</event>
<event>
 8    1  0.3407580E-004  0.1701657E+03  0.7546771E-02  0.1183487E+00
         -2   -1    0    0    0  501 -0.00000000000E+00  0.00000000000E+00  0.21899634497E+02  0.21899634497E+02  0.00000000000E+00 0. -1.
          2   -1    0    0  501    0  0.00000000000E+00 -0.00000000000E+00 -0.14197703150E+04  0.14197703150E+04  0.00000000000E+00 0.  1.
         25    2    1    2    0    0 -0.11249674062E+03  0.26015681624E+02 -0.10408930701E+04  0.10547107420E+04  0.12499613419E+03 0.  0.
         23    2    1    2    0    0  0.11249674062E+03 -0.26015681624E+02 -0.35697761043E+03  0.38695920753E+03  0.94721072634E+02 0.  0.
          5    1    3    3  502    0 -0.10787949679E+03 -0.24018463401E+02 -0.85359032898E+03  0.86072841950E+03  0.47000000000E+01 0.  1.
         -5    1    4    4    0  503  0.24772264025E+02 -0.39508436981E+02 -0.21025479968E+03  0.21541530226E+03  0.47000000000E+01 0.  1.
          5    1    4    4  503    0  0.87724476597E+02  0.13492755356E+02 -0.14672281075E+03  0.17154390527E+03  0.47000000000E+01 0. -1.
         -5    1    3    3    0  502 -0.46172438289E+01  0.50034145025E+02 -0.18730274110E+03  0.19398232247E+03  0.47000000000E+01 0.  1.
<mgrwt>
<rscale>  0 0.16470352E+03</rscale>
<asrwt>0</asrwt>
<pdfrwt beam="1">  1        2 0.21842620E+00 0.17016570E+03</pdfrwt>
<pdfrwt beam="2">  1       -2 0.33691745E-02 0.17016570E+03</pdfrwt>
<totfact> 0.53112011E+03</totfact>
</mgrwt>
</event>
<event>
 8    1  0.3407580E-004  0.1298679E+03  0.7546771E-02  0.1241108E+00
         -1   -1    0    0    0  501 -0.00000000000E+00  0.00000000000E+00  0.37349515475E+02  0.37349515475E+02  0.00000000000E+00 0.  1.
          1   -1    0    0  501    0  0.00000000000E+00 -0.00000000000E+00 -0.35172803094E+03  0.35172803094E+03  0.00000000000E+00 0. -1.
         25    2    1    2    0    0 -0.31162489948E+02  0.16417704264E+02 -0.16246474077E+03  0.20799148293E+03  0.12500009274E+03 0.  0.
         23    2    1    2    0    0  0.31162489948E+02 -0.16417704264E+02 -0.15191377470E+03  0.18108606349E+03  0.92052841642E+02 0.  0.
          5    1    3    3  502    0  0.42438812033E+01  0.59889739500E+02 -0.12941043252E+03  0.14273731632E+03  0.47000000000E+01 0. -1.
         -5    1    4    4    0  503  0.12181197487E+02  0.16881299508E+02  0.28922453177E+01  0.21536362930E+02  0.47000000000E+01 0.  1.
          5    1    4    4  503    0  0.18981292460E+02 -0.33299003772E+02 -0.15480602001E+03  0.15954970056E+03  0.47000000000E+01 0. -1.
         -5    1    3    3    0  502 -0.35406371151E+02 -0.43472035236E+02 -0.33054308245E+02  0.65254166604E+02  0.47000000000E+01 0. -1.
<mgrwt>
<rscale>  0 0.12121409E+03</rscale>
<asrwt>0</asrwt>
<pdfrwt beam="1">  1        1 0.54112006E-01 0.12986788E+03</pdfrwt>
<pdfrwt beam="2">  1       -1 0.57460792E-02 0.12986788E+03</pdfrwt>
<totfact> 0.96423258E+03</totfact>
</mgrwt>
</event>
<event>
 8    1  0.3407580E-004  0.1496897E+03  0.7546771E-02  0.1211767E+00
          2   -1    0    0  501    0  0.00000000000E+00  0.00000000000E+00  0.87423959709E+03  0.87423959709E+03  0.00000000000E+00 0. -1.
         -2   -1    0    0    0  501 -0.00000000000E+00 -0.00000000000E+00 -0.26250078814E+02  0.26250078814E+02  0.00000000000E+00 0.  1.
         25    2    1    2    0    0 -0.82087327957E+02 -0.65878259019E+01  0.25410755328E+03  0.29491973220E+03  0.12500108377E+03 0.  0.
         23    2    1    2    0    0  0.82087327957E+02  0.65878259019E+01  0.59388196500E+03  0.60556994371E+03  0.85073142134E+02 0.  0.
          5    1    4    4  502    0  0.39979046794E+02  0.30174733227E+02  0.46758091458E+03  0.47027953431E+03  0.47000000000E+01 0. -1.
         -5    1    4    4    0  502  0.42108281163E+02 -0.23586907325E+02  0.12630105042E+03  0.13529040940E+03  0.47000000000E+01 0.  1.
          5    1    3    3  503    0 -0.64293315650E+02  0.78685694618E+01  0.33500406440E+02  0.73074701876E+02  0.47000000000E+01 0.  1.
         -5    1    3    3    0  503 -0.17794012307E+02 -0.14456395364E+02  0.22060714684E+03  0.22184503032E+03  0.47000000000E+01 0.  1.
<mgrwt>
<rscale>  0 0.14116732E+03</rscale>
<asrwt>0</asrwt>
<pdfrwt beam="1">  1        2 0.13449838E+00 0.14968968E+03</pdfrwt>
<pdfrwt beam="2">  1       -2 0.40384743E-02 0.14968968E+03</pdfrwt>
<totfact> 0.82990721E+03</totfact>
</mgrwt>
</event>
<event>
 8    1  0.3407580E-004  0.1578534E+03  0.7546771E-02  0.1198594E+00
         -2   -1    0    0    0  501 -0.00000000000E+00  0.00000000000E+00  0.21853895424E+02  0.21853895424E+02  0.00000000000E+00 0.  1.
          2   -1    0    0  501    0  0.00000000000E+00 -0.00000000000E+00 -0.98069781554E+03  0.98069781554E+03  0.00000000000E+00 0. -1.
         25    2    1    2    0    0  0.21322408727E+02 -0.93968797935E+02 -0.55667043727E+03  0.57861877104E+03  0.12503170148E+03 0.  0.
         23    2    1    2    0    0 -0.21322408727E+02  0.93968797935E+02 -0.40217348285E+03  0.42393293993E+03  0.93224713175E+02 0.  0.
          5    1    3    3  502    0  0.69758872716E+02 -0.32596663087E+02 -0.22616487450E+03  0.23895916644E+03  0.47000000000E+01 0.  1.
         -5    1    3    3    0  502 -0.48436463988E+02 -0.61372134848E+02 -0.33050556276E+03  0.33965960460E+03  0.47000000000E+01 0.  1.
          5    1    4    4  503    0  0.31974850526E+02  0.10123694340E+02 -0.12270343736E+03  0.12729141288E+03  0.47000000000E+01 0. -1.
         -5    1    4    4    0  503 -0.53297259254E+02  0.83845103596E+02 -0.27947004549E+03  0.29664152705E+03  0.47000000000E+01 0.  1.
<mgrwt>
<rscale>  0 0.15153956E+03</rscale>
<asrwt>0</asrwt>
<pdfrwt beam="1">  1        2 0.15087656E+00 0.15785343E+03</pdfrwt>
<pdfrwt beam="2">  1       -2 0.33621384E-02 0.15785343E+03</pdfrwt>
<totfact> 0.93760676E+03</totfact>
</mgrwt>
</event>
<event>
 8    1  0.3407580E-004  0.1270321E+03  0.7546771E-02  0.1245007E+00
         -2   -1    0    0    0  501 -0.00000000000E+00  0.00000000000E+00  0.21643732747E+02  0.21643732747E+02  0.00000000000E+00 0.  1.
          2   -1    0    0  501    0  0.00000000000E+00 -0.00000000000E+00 -0.64066819594E+03  0.64066819594E+03  0.00000000000E+00 0. -1.
         25    2    1    2    0    0  0.27634129000E+01 -0.22467049377E+02 -0.44657797994E+03  0.46429413605E+03  0.12499899139E+03 0.  0.
         23    2    1    2    0    0 -0.27634129000E+01  0.22467049377E+02 -0.17244648325E+03  0.19801779263E+03  0.94661776096E+02 0.  0.
          5    1    3    3  502    0 -0.29509455810E+01 -0.74275374527E+02 -0.27546932622E+03  0.28536113791E+03  0.47000000000E+01 0. -1.
         -5    1    4    4    0  503  0.38186958768E+02 -0.19352430993E+01 -0.33520476737E+02  0.51065657211E+02  0.47000000000E+01 0.  1.
          5    1    4    4  503    0 -0.40950371668E+02  0.24402292477E+02 -0.13892600652E+03  0.14695213542E+03  0.47000000000E+01 0. -1.
         -5    1    3    3    0  502  0.57143584810E+01  0.51808325149E+02 -0.17110865372E+03  0.17893299815E+03  0.47000000000E+01 0. -1.
<mgrwt>
<rscale>  0 0.11884954E+03</rscale>
<asrwt>0</asrwt>
<pdfrwt beam="1">  1        2 0.98564340E-01 0.12703209E+03</pdfrwt>
<pdfrwt beam="2">  1       -2 0.33298050E-02 0.12703209E+03</pdfrwt>
<totfact> 0.15956147E+04</totfact>
</mgrwt>
</event>
<event>
 8    1  0.3407580E-004  0.1465225E+03  0.7546771E-02  0.1214499E+00
         -4   -1    0    0    0  501 -0.00000000000E+00  0.00000000000E+00  0.32085699287E+02  0.32085699287E+02  0.00000000000E+00 0.  1.
          4   -1    0    0  501    0  0.00000000000E+00 -0.00000000000E+00 -0.54992200750E+03  0.54992200750E+03  0.00000000000E+00 0. -1.
         25    2    1    2    0    0 -0.60755211350E+02 -0.46405957935E+02 -0.28270248116E+03  0.31841723692E+03  0.12499654104E+03 0.  0.
         23    2    1    2    0    0  0.60755211350E+02  0.46405957935E+02 -0.23513382705E+03  0.26359046986E+03  0.91363617176E+02 0.  0.
          5    1    3    3  502    0  0.49947194475E+01  0.38455171592E+02 -0.76609792264E+02  0.85993591129E+02  0.47000000000E+01 0. -1.
         -5    1    4    4    0  503  0.26977538679E+02  0.33536725855E+02 -0.24341641199E+02  0.49669961451E+02  0.47000000000E+01 0.  1.
          5    1    4    4  503    0  0.33777672672E+02  0.12869232080E+02 -0.21079218585E+03  0.21392050841E+03  0.47000000000E+01 0. -1.
         -5    1    3    3    0  502 -0.65749930798E+02 -0.84861129527E+02 -0.20609268890E+03  0.23242364579E+03  0.47000000000E+01 0. -1.
<mgrwt>
<rscale>  0 0.13913416E+03</rscale>
<asrwt>0</asrwt>
<pdfrwt beam="1">  1        4 0.84603389E-01 0.14652250E+03</pdfrwt>
<pdfrwt beam="2">  1       -4 0.49362613E-02 0.14652250E+03</pdfrwt>
<totfact> 0.51533797E+02</totfact>
</mgrwt>
</event>
<event>
 8    1  0.3407580E-004  0.1516699E+03  0.7546771E-02  0.1207163E+00
          2   -1    0    0  501    0  0.00000000000E+00  0.00000000000E+00  0.77699621690E+03  0.77699621690E+03  0.00000000000E+00 0. -1.
         -2   -1    0    0    0  501 -0.00000000000E+00 -0.00000000000E+00 -0.29739795273E+02  0.29739795273E+02  0.00000000000E+00 0.  1.
         25    2    1    2    0    0  0.83211887070E+02 -0.21283464551E+02  0.23798804587E+03  0.28220924901E+03  0.12500618479E+03 0.  0.
         23    2    1    2    0    0 -0.83211887070E+02  0.21283464551E+02  0.50926837575E+03  0.52452676316E+03  0.91634287886E+02 0.  0.
          5    1    3    3  502    0  0.10772726942E+02 -0.21771070229E+02 -0.77870479757E+01  0.25937603221E+02  0.47000000000E+01 0.  1.
         -5    1    4    4    0  503 -0.92297988393E+02 -0.74272493601E+01  0.33407833203E+03  0.34670521287E+03  0.47000000000E+01 0.  1.
          5    1    4    4  503    0  0.90861013229E+01  0.28710713911E+02  0.17519004372E+03  0.17782155029E+03  0.47000000000E+01 0. -1.
         -5    1    3    3    0  502  0.72439160128E+02  0.48760567822E+00  0.24577509385E+03  0.25627164579E+03  0.47000000000E+01 0.  1.
<mgrwt>
<rscale>  0 0.14468296E+03</rscale>
<asrwt>0</asrwt>
<pdfrwt beam="1">  1        2 0.11953786E+00 0.15166987E+03</pdfrwt>
<pdfrwt beam="2">  1       -2 0.45753537E-02 0.15166987E+03</pdfrwt>
<totfact> 0.79995174E+03</totfact>
</mgrwt>
</event>
<event>
 8    1  0.3407580E-004  0.1265844E+03  0.7546771E-02  0.1247342E+00
         -4   -1    0    0    0  501 -0.00000000000E+00  0.00000000000E+00  0.35916209042E+03  0.35916209042E+03  0.00000000000E+00 0.  1.
          4   -1    0    0  501    0  0.00000000000E+00 -0.00000000000E+00 -0.33833866361E+02  0.33833866361E+02  0.00000000000E+00 0. -1.
         25    2    1    2    0    0  0.64935622638E+00 -0.19808467948E+02  0.19001732508E+03  0.22832039645E+03  0.12502328799E+03 0.  0.
         23    2    1    2    0    0 -0.64935622638E+00  0.19808467948E+02  0.13531089898E+03  0.16467556033E+03  0.91739869855E+02 0.  0.
          5    1    4    4  502    0 -0.85358744146E+01  0.55728843223E+02  0.87024992928E+02  0.10379790226E+03  0.47000000000E+01 0. -1.
         -5    1    3    3    0  503  0.55817416745E+02 -0.37233597195E+02  0.85714522111E+02  0.10895409158E+03  0.47000000000E+01 0.  1.
          5    1    3    3  503    0 -0.55168060519E+02  0.17425129247E+02  0.10430280297E+03  0.11936630487E+03  0.47000000000E+01 0.  1.
         -5    1    4    4    0  502  0.78865181882E+01 -0.35920375275E+02  0.48285906056E+02  0.60877658075E+02  0.47000000000E+01 0.  1.
<mgrwt>
<rscale>  0 0.11746299E+03</rscale>
<asrwt>0</asrwt>
<pdfrwt beam="1">  1        4 0.52052105E-02 0.12658444E+03</pdfrwt>
<pdfrwt beam="2">  1       -4 0.55255704E-01 0.12658444E+03</pdfrwt>
<totfact> 0.11478565E+03</totfact>
</mgrwt>
</event>
<event>
 8    1  0.3407580E-004  0.1262625E+03  0.7546771E-02  0.1249721E+00
         -2   -1    0    0    0  501 -0.00000000000E+00  0.00000000000E+00  0.93514309193E+01  0.93514309193E+01  0.00000000000E+00 0.  1.
          2   -1    0    0  501    0  0.00000000000E+00 -0.00000000000E+00 -0.12977282073E+04  0.12977282073E+04  0.00000000000E+00 0. -1.
         25    2    1    2    0    0 -0.84128181076E+00  0.17964056041E+02 -0.86838077147E+03  0.87751204838E+03  0.12497526051E+03 0.  0.
         23    2    1    2    0    0  0.84128181076E+00 -0.17964056041E+02 -0.41999600496E+03  0.42956758988E+03  0.88364331208E+02 0.  0.
          5    1    4    4  502    0 -0.20864828414E+02 -0.44724446217E+02 -0.16732487025E+03  0.17451452478E+03  0.47000000000E+01 0. -1.
         -5    1    4    4    0  502  0.21706110225E+02  0.26760390175E+02 -0.25267113470E+03  0.25505306510E+03  0.47000000000E+01 0.  1.
          5    1    3    3  503    0 -0.21870993609E+02  0.67312230474E+02 -0.42582521498E+03  0.43169257631E+03  0.47000000000E+01 0.  1.
         -5    1    3    3    0  503  0.21029711798E+02 -0.49348174432E+02 -0.44255555649E+03  0.44581947207E+03  0.47000000000E+01 0.  1.
<mgrwt>
<rscale>  0 0.11607224E+03</rscale>
<asrwt>0</asrwt>
<pdfrwt beam="1">  1        2 0.19965057E+00 0.12626255E+03</pdfrwt>
<pdfrwt beam="2">  1       -2 0.14386811E-02 0.12626255E+03</pdfrwt>
<totfact> 0.21074825E+04</totfact>
</mgrwt>
</event>
<event>
 8    1  0.3407580E-004  0.1454976E+03  0.7546771E-02  0.1216203E+00
         -1   -1    0    0    0  501 -0.00000000000E+00  0.00000000000E+00  0.11623323826E+03  0.11623323826E+03  0.00000000000E+00 0.  1.
          1   -1    0    0  501    0  0.00000000000E+00 -0.00000000000E+00 -0.30925054563E+03  0.30925054563E+03  0.00000000000E+00 0. -1.
         25    2    1    2    0    0 -0.35638580175E+01 -0.74385857170E+02 -0.25438136801E+03  0.29305195162E+03  0.12499443639E+03 0.  0.
         23    2    1    2    0    0  0.35638580175E+01  0.74385857170E+02  0.61364060642E+02  0.13243183227E+03  0.90701077336E+02 0.  0.
          5    1    3    3  502    0 -0.47169612152E+02  0.11749295259E+02 -0.86082406172E+02  0.98971151868E+02  0.47000000000E+01 0. -1.
         -5    1    4    4    0  503 -0.28092758276E+02  0.78939674748E+02  0.35884113819E+02  0.91271216391E+02  0.47000000000E+01 0.  1.
          5    1    4    4  503    0  0.31656616294E+02 -0.45538175784E+01  0.25479946822E+02  0.41160615882E+02  0.47000000000E+01 0. -1.
         -5    1    3    3    0  502  0.43605754134E+02 -0.86135152428E+02 -0.16829896184E+03  0.19408079976E+03  0.47000000000E+01 0. -1.
<mgrwt>
<rscale>  0 0.13788567E+03</rscale>
<asrwt>0</asrwt>
<pdfrwt beam="1">  1        1 0.47577007E-01 0.14549765E+03</pdfrwt>
<pdfrwt beam="2">  1       -1 0.17882037E-01 0.14549765E+03</pdfrwt>
<totfact> 0.20010119E+03</totfact>
</mgrwt>
</event>
<event>
 8    1  0.3407580E-004  0.1503560E+03  0.7546771E-02  0.1209149E+00
          2   -1    0    0  501    0  0.00000000000E+00  0.00000000000E+00  0.78307218901E+02  0.78307218901E+02  0.00000000000E+00 0. -1.
         -2   -1    0    0    0  501 -0.00000000000E+00 -0.00000000000E+00 -0.25184023204E+03  0.25184023204E+03  0.00000000000E+00 0.  1.
         25    2    1    2    0    0  0.53516799495E+02 -0.64178598467E+02 -0.13119449146E+03  0.19954681677E+03  0.12499598860E+03 0.  0.
         23    2    1    2    0    0 -0.53516799495E+02  0.64178598467E+02 -0.42338521682E+02  0.13060063417E+03  0.91000191743E+02 0.  0.
          5    1    3    3  502    0  0.31879787358E+02 -0.63448142535E+02 -0.15282719492E+03  0.16858300371E+03  0.47000000000E+01 0. -1.
         -5    1    3    3    0  502  0.21637012136E+02 -0.73045593217E+00  0.21632703465E+02  0.30963813061E+02  0.47000000000E+01 0. -1.
          5    1    4    4  503    0 -0.72825864752E+02  0.58439460570E+02 -0.12544987217E+02  0.94330503194E+02  0.47000000000E+01 0. -1.
         -5    1    4    4    0  503  0.19309065257E+02  0.57391378969E+01 -0.29793534465E+02  0.36270130973E+02  0.47000000000E+01 0.  1.
<mgrwt>
<rscale>  0 0.14315256E+03</rscale>
<asrwt>0</asrwt>
<pdfrwt beam="1">  1        2 0.12047264E-01 0.15035604E+03</pdfrwt>
<pdfrwt beam="2">  1       -2 0.38744651E-01 0.15035604E+03</pdfrwt>
<totfact> 0.31110641E+03</totfact>
</mgrwt>
</event>
<event>
 8    1  0.3407580E-004  0.1543045E+03  0.7546771E-02  0.1203579E+00
          1   -1    0    0  501    0  0.00000000000E+00  0.00000000000E+00  0.17217238525E+04  0.17217238525E+04  0.00000000000E+00 0. -1.
         -1   -1    0    0    0  501 -0.00000000000E+00 -0.00000000000E+00 -0.12706457203E+02  0.12706457203E+02  0.00000000000E+00 0.  1.
         25    2    1    2    0    0 -0.62057546704E+02 -0.65830968699E+02  0.11751676992E+04  0.11852548227E+04  0.12500007217E+03 0.  0.
         23    2    1    2    0    0  0.62057546704E+02  0.65830968699E+02  0.53384969611E+03  0.54917548697E+03  0.91724380159E+02 0.  0.
          5    1    4    4  502    0  0.33443941700E+01  0.51967768794E+02  0.38441087492E+03  0.38795056995E+03  0.47000000000E+01 0. -1.
         -5    1    3    3    0  503 -0.91008633934E+02 -0.80411379655E+02  0.91872396718E+03  0.92672778058E+03  0.47000000000E+01 0. -1.
          5    1    3    3  503    0  0.28951087229E+02  0.14580410956E+02  0.25644373200E+03  0.25852704214E+03  0.47000000000E+01 0. -1.
         -5    1    4    4    0  502  0.58713152535E+02  0.13863199906E+02  0.14943882119E+03  0.16122491703E+03  0.47000000000E+01 0.  1.
<mgrwt>
<rscale>  0 0.14749985E+03</rscale>
<asrwt>0</asrwt>
<pdfrwt beam="1">  1        1 0.26488041E+00 0.15430448E+03</pdfrwt>
<pdfrwt beam="2">  1       -1 0.19548409E-02 0.15430448E+03</pdfrwt>
<totfact> 0.36027108E+03</totfact>
</mgrwt>
</event>
<event>
 8    1  0.3407580E-004  0.1728434E+03  0.7546771E-02  0.1180977E+00
         -2   -1    0    0    0  501 -0.00000000000E+00  0.00000000000E+00  0.14749541648E+02  0.14749541648E+02  0.00000000000E+00 0.  1.
          2   -1    0    0  501    0  0.00000000000E+00 -0.00000000000E+00 -0.18811464833E+04  0.18811464833E+04  0.00000000000E+00 0. -1.
         25    2    1    2    0    0  0.55141695896E+02  0.10587060984E+03 -0.12181762630E+04  0.12303772832E+04  0.12500263358E+03 0.  0.
         23    2    1    2    0    0 -0.55141695896E+02 -0.10587060984E+03 -0.64822067865E+03  0.66551874184E+03  0.92064949093E+02 0.  0.
          5    1    3    3  502    0 -0.29894384085E+02 -0.68627968929E+01 -0.18478917548E+03  0.18737636339E+03  0.47000000000E+01 0.  1.
         -5    1    4    4    0  503  0.24028559814E+02 -0.39953195897E+02 -0.17271766445E+03  0.17896120015E+03  0.47000000000E+01 0.  1.
          5    1    4    4  503    0 -0.79170255710E+02 -0.65917413942E+02 -0.47550301420E+03  0.48655754168E+03  0.47000000000E+01 0. -1.
         -5    1    3    3    0  502  0.85036079981E+02  0.11273340673E+03 -0.10333870876E+04  0.10430009198E+04  0.47000000000E+01 0.  1.
<mgrwt>
<rscale>  0 0.16703327E+03</rscale>
<asrwt>0</asrwt>
<pdfrwt beam="1">  1        2 0.28940713E+00 0.17284343E+03</pdfrwt>
<pdfrwt beam="2">  1       -2 0.22691604E-02 0.17284343E+03</pdfrwt>
<totfact> 0.54729533E+03</totfact>
</mgrwt>
</event>
<event>
 8    1  0.3407580E-004  0.1582395E+03  0.7546771E-02  0.1198745E+00
          2   -1    0    0  501    0  0.00000000000E+00  0.00000000000E+00  0.10112427985E+04  0.10112427985E+04  0.00000000000E+00 0.  1.
         -2   -1    0    0    0  501 -0.00000000000E+00 -0.00000000000E+00 -0.30927250076E+02  0.30927250076E+02  0.00000000000E+00 0. -1.
         25    2    1    2    0    0  0.73682995829E+02 -0.63134158952E+02  0.81494854786E+03  0.83016917927E+03  0.12499849861E+03 0.  0.
         23    2    1    2    0    0 -0.73682995829E+02  0.63134158952E+02  0.16536700053E+03  0.21200086927E+03  0.90460034303E+02 0.  0.
          5    1    4    4  502    0 -0.20574454487E+02  0.15028583793E+02 -0.56511966094E+01  0.26517777648E+02  0.47000000000E+01 0. -1.
         -5    1    3    3    0  503  0.80959681174E+02 -0.50689210631E+00  0.28031734928E+03  0.29181266803E+03  0.47000000000E+01 0.  1.
          5    1    3    3  503    0 -0.72766853447E+01 -0.62627266846E+02  0.53463119858E+03  0.53835651124E+03  0.47000000000E+01 0.  1.
         -5    1    4    4    0  502 -0.53108541342E+02  0.48105575159E+02  0.17101819714E+03  0.18548309162E+03  0.47000000000E+01 0.  1.
<mgrwt>
<rscale>  0 0.15141518E+03</rscale>
<asrwt>0</asrwt>
<pdfrwt beam="1">  1        2 0.15557579E+00 0.15823947E+03</pdfrwt>
<pdfrwt beam="2">  1       -2 0.47580393E-02 0.15823947E+03</pdfrwt>
<totfact> 0.53537155E+03</totfact>
</mgrwt>
</event>
<event>
 8    1  0.3407580E-004  0.2343134E+03  0.7546771E-02  0.1126156E+00
         -2   -1    0    0    0  501 -0.00000000000E+00  0.00000000000E+00  0.15926604941E+03  0.15926604941E+03  0.00000000000E+00 0. -1.
          2   -1    0    0  501    0  0.00000000000E+00 -0.00000000000E+00 -0.10080515058E+04  0.10080515058E+04  0.00000000000E+00 0.  1.
         25    2    1    2    0    0  0.19486412893E+03  0.36109426995E+02  0.52005994453E+02  0.24001544978E+03  0.12500749263E+03 0.  0.
         23    2    1    2    0    0 -0.19486412893E+03 -0.36109426995E+02 -0.90079145088E+03  0.92730210546E+03  0.95854250499E+02 0.  0.
          5    1    4    4  502    0 -0.14037539006E+03  0.40195421857E+01 -0.44975556019E+03  0.47119376139E+03  0.47000000000E+01 0. -1.
         -5    1    3    3    0  503  0.68252359473E+02  0.41817692061E+02 -0.33666325235E+02  0.86963299143E+02  0.47000000000E+01 0. -1.
          5    1    3    3  503    0  0.12661176946E+03 -0.57082650661E+01  0.85672319688E+02  0.15305215064E+03  0.47000000000E+01 0. -1.
         -5    1    4    4    0  502 -0.54488738870E+02 -0.40128969180E+02 -0.45103589069E+03  0.45610834407E+03  0.47000000000E+01 0.  1.
<mgrwt>
<rscale>  0 0.23068814E+03</rscale>
<asrwt>0</asrwt>
<pdfrwt beam="1">  1        2 0.15508485E+00 0.23431345E+03</pdfrwt>
<pdfrwt beam="2">  1       -2 0.24502469E-01 0.23431345E+03</pdfrwt>
<totfact> 0.38655434E+02</totfact>
</mgrwt>
</event>
<event>
 8    1  0.3407580E-004  0.2496836E+03  0.7546771E-02  0.1116295E+00
          3   -1    0    0  501    0  0.00000000000E+00  0.00000000000E+00  0.56848119158E+03  0.56848119158E+03  0.00000000000E+00 0. -1.
         -3   -1    0    0    0  501 -0.00000000000E+00 -0.00000000000E+00 -0.12024246338E+03  0.12024246338E+03  0.00000000000E+00 0.  1.
         25    2    1    2    0    0  0.17627035970E+03  0.12508074054E+03  0.36366361490E+03  0.44112711180E+03  0.12500189037E+03 0.  0.
         23    2    1    2    0    0 -0.17627035970E+03 -0.12508074054E+03  0.84575113304E+02  0.24759654316E+03  0.86224515252E+02 0.  0.
          5    1    3    3  502    0  0.17946799689E+03  0.78546164602E+02  0.24628407365E+03  0.31473194438E+03  0.47000000000E+01 0. -1.
         -5    1    3    3    0  502 -0.31976371864E+01  0.46534575942E+02  0.11737954126E+03  0.12639516742E+03  0.47000000000E+01 0. -1.
          5    1    4    4  503    0 -0.61324361660E+02 -0.86662082869E+02  0.65459244061E+02  0.12481184468E+03  0.47000000000E+01 0. -1.
         -5    1    4    4    0  503 -0.11494599804E+03 -0.38418657675E+02  0.19115869243E+02  0.12278469848E+03  0.47000000000E+01 0.  1.
<mgrwt>
<rscale>  0 0.24532592E+03</rscale>
<asrwt>0</asrwt>
<pdfrwt beam="1">  1        3 0.87458644E-01 0.24968361E+03</pdfrwt>
<pdfrwt beam="2">  1       -3 0.18498841E-01 0.24968361E+03</pdfrwt>
<totfact> 0.78539314E+01</totfact>
</mgrwt>
</event>
<event>
 8    1  0.3407580E-004  0.2530688E+03  0.7546771E-02  0.1113843E+00
          1   -1    0    0  501    0  0.00000000000E+00  0.00000000000E+00  0.36168824212E+03  0.36168824212E+03  0.00000000000E+00 0. -1.
         -1   -1    0    0    0  501 -0.00000000000E+00 -0.00000000000E+00 -0.16884987240E+03  0.16884987240E+03  0.00000000000E+00 0.  1.
         25    2    1    2    0    0  0.99580885480E+02  0.19622081338E+03  0.68208934287E+02  0.26209971228E+03  0.12499936042E+03 0.  0.
         23    2    1    2    0    0 -0.99580885480E+02 -0.19622081338E+03  0.12462943543E+03  0.26843840224E+03  0.90042874583E+02 0.  0.
          5    1    3    3  502    0  0.20411774782E+02 -0.15951599323E+02  0.10568842788E+02  0.28370486577E+02  0.47000000000E+01 0.  1.
         -5    1    4    4    0  503 -0.98680363617E+02 -0.97200196829E+02  0.70732882557E+02  0.15559859608E+03  0.47000000000E+01 0.  1.
          5    1    4    4  503    0 -0.90052186285E+00 -0.99020616554E+02  0.53896552871E+02  0.11283980616E+03  0.47000000000E+01 0. -1.
         -5    1    3    3    0  502  0.79169110698E+02  0.21217241271E+03  0.57640091499E+02  0.23372922571E+03  0.47000000000E+01 0.  1.
<mgrwt>
<rscale>  0 0.24914983E+03</rscale>
<asrwt>0</asrwt>
<pdfrwt beam="1">  1        1 0.55644345E-01 0.25306877E+03</pdfrwt>
<pdfrwt beam="2">  1       -1 0.25976904E-01 0.25306877E+03</pdfrwt>
<totfact> 0.90229263E+02</totfact>
</mgrwt>
</event>
<event>
 8    1  0.3407580E-004  0.1680471E+03  0.7546771E-02  0.1186676E+00
          2   -1    0    0  501    0  0.00000000000E+00  0.00000000000E+00  0.10571303543E+04  0.10571303543E+04  0.00000000000E+00 0.  1.
         -2   -1    0    0    0  501 -0.00000000000E+00 -0.00000000000E+00 -0.30452077058E+02  0.30452077058E+02  0.00000000000E+00 0. -1.
         25    2    1    2    0    0 -0.52221863158E+02  0.99436005288E+02  0.27598485186E+03  0.32312143776E+03  0.12500073177E+03 0.  0.
         23    2    1    2    0    0  0.52221863158E+02 -0.99436005288E+02  0.75069342536E+03  0.76446099358E+03  0.90803907858E+02 0.  0.
          5    1    4    4  502    0 -0.18431936653E+02 -0.43316410134E+02  0.15833863634E+03  0.16525514042E+03  0.47000000000E+01 0. -1.
         -5    1    3    3    0  503 -0.43440354045E+02  0.27040428168E+01  0.18445045108E+03  0.18957435246E+03  0.47000000000E+01 0. -1.
          5    1    3    3  503    0 -0.87815091133E+01  0.96731962471E+02  0.91534400781E+02  0.13354708530E+03  0.47000000000E+01 0. -1.
         -5    1    4    4    0  502  0.70653799811E+02 -0.56119595154E+02  0.59235478902E+03  0.59920585317E+03  0.47000000000E+01 0.  1.
<mgrwt>
<rscale>  0 0.16180335E+03</rscale>
<asrwt>0</asrwt>
<pdfrwt beam="1">  1        2 0.16263541E+00 0.16804709E+03</pdfrwt>
<pdfrwt beam="2">  1       -2 0.46849357E-02 0.16804709E+03</pdfrwt>
<totfact> 0.51576689E+03</totfact>
</mgrwt>
</event>
<event>
 8    1  0.3407580E-004  0.1427778E+03  0.7546771E-02  0.1219811E+00
         -1   -1    0    0    0  501 -0.00000000000E+00  0.00000000000E+00  0.16885968392E+03  0.16885968392E+03  0.00000000000E+00 0.  1.
          1   -1    0    0  501    0  0.00000000000E+00 -0.00000000000E+00 -0.10276657090E+03  0.10276657090E+03  0.00000000000E+00 0. -1.
         25    2    1    2    0    0  0.64405541954E+02 -0.24865126976E+02  0.87880276525E+01  0.14304803939E+03  0.12497665290E+03 0.  0.
         23    2    1    2    0    0 -0.64405541954E+02  0.24865126976E+02  0.57305085371E+02  0.12857821543E+03  0.92098514107E+02 0.  0.
          5    1    3    3  502    0  0.66441387191E+02  0.39943454733E+02  0.21033916489E+01  0.77694605761E+02  0.47000000000E+01 0.  1.
         -5    1    4    4    0  503 -0.42282712715E+02  0.17359292177E+02  0.82166132393E+02  0.94141043822E+02  0.47000000000E+01 0.  1.
          5    1    4    4  503    0 -0.22122829239E+02  0.75058347989E+01 -0.24861047022E+02  0.34437171611E+02  0.47000000000E+01 0. -1.
         -5    1    3    3    0  502 -0.20358452372E+01 -0.64808581709E+02  0.66846360036E+01  0.65353433632E+02  0.47000000000E+01 0.  1.
<mgrwt>
<rscale>  0 0.13529021E+03</rscale>
<asrwt>0</asrwt>
<pdfrwt beam="1">  1        1 0.15810242E-01 0.14277784E+03</pdfrwt>
<pdfrwt beam="2">  1       -1 0.25978413E-01 0.14277784E+03</pdfrwt>
<totfact> 0.43562907E+03</totfact>
</mgrwt>
</event>
<event>
 8    1  0.3407580E-004  0.1671029E+03  0.7546771E-02  0.1187488E+00
         -2   -1    0    0    0  501 -0.00000000000E+00  0.00000000000E+00  0.16813538410E+03  0.16813538410E+03  0.00000000000E+00 0.  1.
          2   -1    0    0  501    0  0.00000000000E+00 -0.00000000000E+00 -0.15333769309E+03  0.15333769309E+03  0.00000000000E+00 0. -1.
         25    2    1    2    0    0 -0.10330629440E+03 -0.40335727860E+02 -0.31327267104E+02  0.17001400690E+03  0.12499681385E+03 0.  0.
         23    2    1    2    0    0  0.10330629440E+03  0.40335727860E+02  0.46124958111E+02  0.15145907029E+03  0.92266878166E+02 0.  0.
          5    1    3    3  502    0  0.22967290542E+02  0.34532252743E+01 -0.27397009609E+02  0.36223022170E+02  0.47000000000E+01 0. -1.
         -5    1    3    3    0  502 -0.12627358494E+03 -0.43788953134E+02 -0.39302574952E+01  0.13379098473E+03  0.47000000000E+01 0. -1.
          5    1    4    4  503    0  0.17026377466E+02  0.40766779696E+02  0.47499301681E+02  0.65039230597E+02  0.47000000000E+01 0. -1.
         -5    1    4    4    0  503  0.86279916933E+02 -0.43105183617E+00 -0.13743435697E+01  0.86419839689E+02  0.47000000000E+01 0.  1.
<mgrwt>
<rscale>  0 0.16107495E+03</rscale>
<asrwt>0</asrwt>
<pdfrwt beam="1">  1        2 0.23590414E-01 0.16710286E+03</pdfrwt>
<pdfrwt beam="2">  1       -2 0.25866982E-01 0.16710286E+03</pdfrwt>
<totfact> 0.29951470E+03</totfact>
</mgrwt>
</event>
<event>
 8    1  0.3407580E-004  0.1270533E+03  0.7546771E-02  0.1247682E+00
          1   -1    0    0  501    0  0.00000000000E+00  0.00000000000E+00  0.27739277096E+02  0.27739277096E+02  0.00000000000E+00 0. -1.
         -1   -1    0    0    0  501 -0.00000000000E+00 -0.00000000000E+00 -0.44897096146E+03  0.44897096146E+03  0.00000000000E+00 0.  1.
         25    2    1    2    0    0 -0.22218487391E+02 -0.48562326987E+01 -0.19881915132E+03  0.23594829902E+03  0.12500120279E+03 0.  0.
         23    2    1    2    0    0  0.22218487391E+02  0.48562326987E+01 -0.22241253304E+03  0.24076193954E+03  0.89340542293E+02 0.  0.
          5    1    3    3  502    0 -0.37023517917E+02 -0.29482678946E+02 -0.20119063094E+03  0.20673589242E+03  0.47000000000E+01 0. -1.
         -5    1    4    4    0  503  0.47119962230E+02 -0.11432322313E+02 -0.19149871927E+03  0.19759766779E+03  0.47000000000E+01 0.  1.
          5    1    4    4  503    0 -0.24901474840E+02  0.16288555012E+02 -0.30913813778E+02  0.43164271752E+02  0.47000000000E+01 0. -1.
         -5    1    3    3    0  502  0.14805030526E+02  0.24626446247E+02  0.23714796201E+01  0.29212406598E+02  0.47000000000E+01 0. -1.
<mgrwt>
<rscale>  0 0.11726282E+03</rscale>
<asrwt>0</asrwt>
<pdfrwt beam="1">  1        1 0.42675808E-02 0.12705332E+03</pdfrwt>
<pdfrwt beam="2">  1       -1 0.69072460E-01 0.12705332E+03</pdfrwt>
<totfact> 0.43565688E+03</totfact>
</mgrwt>
</event>
<event>
 8    1  0.3407580E-004  0.1516568E+03  0.7546771E-02  0.1207148E+00
         -2   -1    0    0    0  501 -0.00000000000E+00  0.00000000000E+00  0.34443914472E+02  0.34443914472E+02  0.00000000000E+00 0.  1.
          2   -1    0    0  501    0  0.00000000000E+00 -0.00000000000E+00 -0.62095958858E+03  0.62095958858E+03  0.00000000000E+00 0. -1.
         25    2    1    2    0    0 -0.76193366332E+02  0.39599087005E+02 -0.42171289909E+03  0.44815347766E+03  0.12500501395E+03 0.  0.
         23    2    1    2    0    0  0.76193366332E+02 -0.39599087005E+02 -0.16480277502E+03  0.20725002540E+03  0.91755662542E+02 0.  0.
          5    1    4    4  502    0  0.91417451867E+01  0.28153207562E+02 -0.45247743633E+02  0.54273593072E+02  0.47000000000E+01 0. -1.
         -5    1    4    4    0  502  0.67051621146E+02 -0.67752294567E+02 -0.11955503139E+03  0.15297643233E+03  0.47000000000E+01 0.  1.
          5    1    3    3  503    0  0.20691543363E+02  0.23250190085E+02 -0.27322952787E+02  0.41681471361E+02  0.47000000000E+01 0. -1.
         -5    1    3    3    0  503 -0.96884909696E+02  0.16348896920E+02 -0.39438994630E+03  0.40647200629E+03  0.47000000000E+01 0. -1.
<mgrwt>
<rscale>  0 0.14469485E+03</rscale>
<asrwt>0</asrwt>
<pdfrwt beam="1">  1        2 0.95532232E-01 0.15165675E+03</pdfrwt>
<pdfrwt beam="2">  1       -2 0.52990644E-02 0.15165675E+03</pdfrwt>
<totfact> 0.83768807E+03</totfact>
</mgrwt>
</event>
<event>
 8    1  0.3407580E-004  0.1252978E+03  0.7546771E-02  0.1250172E+00
         -4   -1    0    0    0  501 -0.00000000000E+00  0.00000000000E+00  0.40595833792E+03  0.40595833792E+03  0.00000000000E+00 0.  1.
          4   -1    0    0  501    0  0.00000000000E+00 -0.00000000000E+00 -0.44639710029E+02  0.44639710029E+02  0.00000000000E+00 0. -1.
         25    2    1    2    0    0  0.79397975969E+01  0.35920313416E+01  0.66353889509E+02  0.14178287534E+03  0.12499440792E+03 0.  0.
         23    2    1    2    0    0 -0.79397975969E+01 -0.35920313416E+01  0.29496473838E+03  0.30881517261E+03  0.91031153303E+02 0.  0.
          5    1    3    3  502    0 -0.54057557577E+02  0.24421825768E+02  0.35787242108E+02  0.69436746775E+02  0.47000000000E+01 0.  1.
         -5    1    4    4    0  503 -0.37503530441E+02 -0.38684938993E+01  0.26010528557E+03  0.26286561134E+03  0.47000000000E+01 0.  1.
          5    1    4    4  503    0  0.29563732844E+02  0.27646255778E+00  0.34859452807E+02  0.45949561273E+02  0.47000000000E+01 0. -1.
         -5    1    3    3    0  502  0.61997355174E+02 -0.20829794427E+02  0.30566647401E+02  0.72346128561E+02  0.47000000000E+01 0.  1.
<mgrwt>
<rscale>  0 0.11581116E+03</rscale>
<asrwt>0</asrwt>
<pdfrwt beam="1">  1        4 0.68676480E-02 0.12529783E+03</pdfrwt>
<pdfrwt beam="2">  1       -4 0.62455126E-01 0.12529783E+03</pdfrwt>
<totfact> 0.56562300E+02</totfact>
</mgrwt>
</event>
<event>
 8    1  0.3407580E-004  0.1550941E+03  0.7546771E-02  0.1202055E+00
         -2   -1    0    0    0  501 -0.00000000000E+00  0.00000000000E+00  0.14710707726E+03  0.14710707726E+03  0.00000000000E+00 0.  1.
          2   -1    0    0  501    0  0.00000000000E+00 -0.00000000000E+00 -0.13924069023E+03  0.13924069023E+03  0.00000000000E+00 0. -1.
         25    2    1    2    0    0 -0.18701093366E+02  0.89885493764E+02  0.25409870423E+01  0.15511487523E+03  0.12500014007E+03 0.  0.
         23    2    1    2    0    0  0.18701093366E+02 -0.89885493764E+02  0.53253999809E+01  0.13123289227E+03  0.93619331581E+02 0.  0.
          5    1    4    4  502    0  0.75135271400E+01 -0.33489318695E+02 -0.43533882630E+02  0.55635209118E+02  0.47000000000E+01 0. -1.
         -5    1    3    3    0  503  0.26617065092E+02  0.10233562360E+03  0.13288666839E+02  0.10667580174E+03  0.47000000000E+01 0.  1.
          5    1    3    3  503    0 -0.45318158458E+02 -0.12450129833E+02 -0.10747679797E+02  0.48439073483E+02  0.47000000000E+01 0.  1.
         -5    1    4    4    0  502  0.11187566226E+02 -0.56396175068E+02  0.48859282611E+02  0.75597683150E+02  0.47000000000E+01 0.  1.
<mgrwt>
<rscale>  0 0.14871939E+03</rscale>
<asrwt>0</asrwt>
<pdfrwt beam="1">  1        2 0.21421645E-01 0.15509406E+03</pdfrwt>
<pdfrwt beam="2">  1       -2 0.22631858E-01 0.15509406E+03</pdfrwt>
<totfact> 0.41968297E+03</totfact>
</mgrwt>
</event>
<event>
 8    1  0.4556371E-004  0.1604595E+03  0.7546771E-02  0.1195835E+00
         -2   -1    0    0    0  501 -0.00000000000E+00  0.00000000000E+00  0.28181552997E+02  0.28181552997E+02  0.00000000000E+00 0. -1.
          2   -1    0    0  501    0  0.00000000000E+00 -0.00000000000E+00 -0.79038908225E+03  0.79038908225E+03  0.00000000000E+00 0.  1.
         25    2    1    2    0    0 -0.96874475367E+02 -0.27144953198E+02 -0.46493900214E+03  0.49184909730E+03  0.12500298536E+03 0.  0.
         23    2    1    2    0    0  0.96874475367E+02  0.27144953198E+02 -0.29726852712E+03  0.32672153794E+03  0.90867341114E+02 0.  0.
          5    1    3    3  502    0 -0.61118556794E+02 -0.50847997987E+02 -0.11877594245E+03  0.14300633339E+03  0.47000000000E+01 0.  1.
         -5    1    4    4    0  503  0.61027895795E+02 -0.11535799626E+02 -0.24318951693E+03  0.25103925964E+03  0.47000000000E+01 0.  1.
          5    1    4    4  503    0  0.35846579572E+02  0.38680752824E+02 -0.54079010188E+02  0.75682278301E+02  0.47000000000E+01 0. -1.
         -5    1    3    3    0  502 -0.35755918572E+02  0.23703044789E+02 -0.34616305969E+03  0.34884276392E+03  0.47000000000E+01 0.  1.
<mgrwt>
<rscale>  0 0.15383762E+03</rscale>
<asrwt>0</asrwt>
<pdfrwt beam="1">  1        2 0.12159831E+00 0.16045952E+03</pdfrwt>
<pdfrwt beam="2">  1       -2 0.43356240E-02 0.16045952E+03</pdfrwt>
<totfact> 0.85150061E+03</totfact>
</mgrwt>
</event>
<event>
 8    1  0.3407580E-004  0.1396115E+03  0.7546771E-02  0.1227325E+00
         -3   -1    0    0    0  501 -0.00000000000E+00  0.00000000000E+00  0.96087135483E+02  0.96087135483E+02  0.00000000000E+00 0.  1.
          3   -1    0    0  501    0  0.00000000000E+00 -0.00000000000E+00 -0.15959576892E+03  0.15959576892E+03  0.00000000000E+00 0. -1.
         25    2    1    2    0    0  0.24983164994E+02  0.56916820467E+02 -0.55151538819E+02  0.15011021470E+03  0.12501080488E+03 0.  0.
         23    2    1    2    0    0 -0.24983164994E+02 -0.56916820467E+02 -0.83570946126E+01  0.10557268970E+03  0.84923900022E+02 0.  0.
          5    1    4    4  502    0 -0.29617856039E+02 -0.16831279157E+02 -0.40960502172E+02  0.53482353095E+02  0.47000000000E+01 0. -1.
         -5    1    4    4    0  502  0.46346910442E+01 -0.40085541309E+02  0.32603407559E+02  0.52090336605E+02  0.47000000000E+01 0.  1.
          5    1    3    3  503    0  0.72567470483E+02  0.20170433556E+02 -0.47870594030E+02  0.89367600029E+02  0.47000000000E+01 0. -1.
         -5    1    3    3    0  503 -0.47584305489E+02  0.36746386910E+02 -0.72809447890E+01  0.60742614669E+02  0.47000000000E+01 0. -1.
<mgrwt>
<rscale>  0 0.13008813E+03</rscale>
<asrwt>0</asrwt>
<pdfrwt beam="1">  1        3 0.24553195E-01 0.13961155E+03</pdfrwt>
<pdfrwt beam="2">  1       -3 0.14782637E-01 0.13961155E+03</pdfrwt>
<totfact> 0.13654394E+03</totfact>
</mgrwt>
</event>
<event>
 8    1  0.3407580E-004  0.1320507E+03  0.7546771E-02  0.1241370E+00
          2   -1    0    0  501    0  0.00000000000E+00  0.00000000000E+00  0.41311732966E+02  0.41311732966E+02  0.00000000000E+00 0. -1.
         -2   -1    0    0    0  501 -0.00000000000E+00 -0.00000000000E+00 -0.30761531627E+03  0.30761531627E+03  0.00000000000E+00 0.  1.
         25    2    1    2    0    0  0.75075382814E+01  0.41916673586E+02 -0.14971096582E+03  0.19962653420E+03  0.12499603680E+03 0.  0.
         23    2    1    2    0    0 -0.75075382814E+01 -0.41916673586E+02 -0.11659261748E+03  0.14930051503E+03  0.82966467205E+02 0.  0.
          5    1    4    4  502    0 -0.29558067141E+02 -0.57685690982E+02 -0.90217067719E+02  0.11118690384E+03  0.47000000000E+01 0. -1.
         -5    1    3    3    0  503 -0.25358357111E+02 -0.20842717721E+02  0.84363971386E+00  0.33170271108E+02  0.47000000000E+01 0.  1.
          5    1    3    3  503    0  0.32865895393E+02  0.62759391308E+02 -0.15055460553E+03  0.16645626310E+03  0.47000000000E+01 0.  1.
         -5    1    4    4    0  502  0.22050528860E+02  0.15769017395E+02 -0.26375549765E+02  0.38113611191E+02  0.47000000000E+01 0.  1.
<mgrwt>
<rscale>  0 0.12105296E+03</rscale>
<asrwt>0</asrwt>
<pdfrwt beam="1">  1        2 0.63556515E-02 0.13205067E+03</pdfrwt>
<pdfrwt beam="2">  1       -2 0.47325431E-01 0.13205067E+03</pdfrwt>
<totfact> 0.46577929E+03</totfact>
</mgrwt>
</event>
<event>
 8    1  0.3407580E-004  0.1300187E+03  0.7546771E-02  0.1246971E+00
          1   -1    0    0  501    0  0.00000000000E+00  0.00000000000E+00  0.35085209246E+03  0.35085209246E+03  0.00000000000E+00 0. -1.
         -1   -1    0    0    0  501 -0.00000000000E+00 -0.00000000000E+00 -0.36117926705E+02  0.36117926705E+02  0.00000000000E+00 0.  1.
         25    2    1    2    0    0 -0.44633631988E+00  0.35799170766E+02  0.23596545456E+03  0.26941523489E+03  0.12499237256E+03 0.  0.
         23    2    1    2    0    0  0.44633631988E+00 -0.35799170766E+02  0.78768711188E+02  0.11755478427E+03  0.79579127917E+02 0.  0.
          5    1    4    4  502    0  0.38355173476E+02 -0.29342010264E+02  0.43509671889E+02  0.65170963217E+02  0.47000000000E+01 0. -1.
         -5    1    3    3    0  503 -0.30304626937E+02  0.50674147168E+02  0.42159435548E+02  0.72703147185E+02  0.47000000000E+01 0. -1.
          5    1    3    3  503    0  0.29858290617E+02 -0.14874976401E+02  0.19380601902E+03  0.19671208770E+03  0.47000000000E+01 0. -1.
         -5    1    4    4    0  502 -0.37908837157E+02 -0.64571605021E+01  0.35259039300E+02  0.52383821058E+02  0.47000000000E+01 0.  1.
<mgrwt>
<rscale>  0 0.11768212E+03</rscale>
<asrwt>0</asrwt>
<pdfrwt beam="1">  1        1 0.53977243E-01 0.13001874E+03</pdfrwt>
<pdfrwt beam="2">  1       -1 0.55566044E-02 0.13001874E+03</pdfrwt>
<totfact> 0.10166794E+04</totfact>
</mgrwt>
</event>
<event>
 8    1  0.3407580E-004  0.1410037E+03  0.7546771E-02  0.1222329E+00
         -1   -1    0    0    0  501 -0.00000000000E+00  0.00000000000E+00  0.10237568639E+03  0.10237568639E+03  0.00000000000E+00 0.  1.
          1   -1    0    0  501    0  0.00000000000E+00 -0.00000000000E+00 -0.17828260616E+03  0.17828260616E+03  0.00000000000E+00 0. -1.
         25    2    1    2    0    0  0.62546400633E+02 -0.18594079344E+02 -0.88699086151E+02  0.16658202527E+03  0.12499700493E+03 0.  0.
         23    2    1    2    0    0 -0.62546400633E+02  0.18594079344E+02  0.12792166383E+02  0.11407626728E+03  0.92692843395E+02 0.  0.
          5    1    4    4  502    0  0.15324377683E+02  0.27392915285E+02 -0.82605844221E+01  0.32795359644E+02  0.47000000000E+01 0. -1.
         -5    1    4    4    0  502 -0.77870778316E+02 -0.87988359416E+01  0.21052750805E+02  0.81280907634E+02  0.47000000000E+01 0.  1.
          5    1    3    3  503    0 -0.17385752413E+02  0.16708340223E+02  0.16614188578E+02  0.29657280423E+02  0.47000000000E+01 0. -1.
         -5    1    3    3    0  503  0.79932153046E+02 -0.35302419567E+02 -0.10531327473E+03  0.13692474485E+03  0.47000000000E+01 0. -1.
<mgrwt>
<rscale>  0 0.13351644E+03</rscale>
<asrwt>0</asrwt>
<pdfrwt beam="1">  1        1 0.27428093E-01 0.14100370E+03</pdfrwt>
<pdfrwt beam="2">  1       -1 0.15750106E-01 0.14100370E+03</pdfrwt>
<totfact> 0.48401702E+03</totfact>
</mgrwt>
</event>
<event>
 8    1  0.3407580E-004  0.1396776E+03  0.7546771E-02  0.1224471E+00
          2   -1    0    0  501    0  0.00000000000E+00  0.00000000000E+00  0.13329498436E+04  0.13329498436E+04  0.00000000000E+00 0. -1.
         -2   -1    0    0    0  501 -0.00000000000E+00 -0.00000000000E+00 -0.12012251771E+02  0.12012251771E+02  0.00000000000E+00 0.  1.
         25    2    1    2    0    0  0.43710704402E+02  0.44427946024E+02  0.81471626681E+03  0.82660294501E+03  0.12500146094E+03 0.  0.
         23    2    1    2    0    0 -0.43710704402E+02 -0.44427946024E+02  0.50622132504E+03  0.51835915037E+03  0.92475460459E+02 0.  0.
          5    1    3    3  502    0 -0.30565360580E+02  0.37962074678E+02  0.15205588977E+03  0.15974493418E+03  0.47000000000E+01 0. -1.
         -5    1    3    3    0  502  0.74276064982E+02  0.64658713460E+01  0.66266037704E+03  0.66685801084E+03  0.47000000000E+01 0. -1.
          5    1    4    4  503    0  0.14140854082E+02 -0.49974024431E+02  0.20362635103E+03  0.21019787750E+03  0.47000000000E+01 0. -1.
         -5    1    4    4    0  503 -0.57851558484E+02  0.55460784062E+01  0.30259497401E+03  0.30816127288E+03  0.47000000000E+01 0.  1.
<mgrwt>
<rscale>  0 0.13203253E+03</rscale>
<asrwt>0</asrwt>
<pdfrwt beam="1">  1        2 0.20506909E+00 0.13967760E+03</pdfrwt>
<pdfrwt beam="2">  1       -2 0.18480398E-02 0.13967760E+03</pdfrwt>
<totfact> 0.14143255E+04</totfact>
</mgrwt>
</event>
<event>
 8    1  0.3407580E-004  0.2424666E+03  0.7546771E-02  0.1120944E+00
         -3   -1    0    0    0  501 -0.00000000000E+00  0.00000000000E+00  0.79654067059E+02  0.79654067059E+02  0.00000000000E+00 0.  1.
          3   -1    0    0  501    0  0.00000000000E+00 -0.00000000000E+00 -0.68981644270E+03  0.68981644270E+03  0.00000000000E+00 0. -1.
         25    2    1    2    0    0  0.15109419369E+02  0.20721443725E+03 -0.32687484073E+03  0.40698549504E+03  0.12499565635E+03 0.  0.
         23    2    1    2    0    0 -0.15109419369E+02 -0.20721443725E+03 -0.28328753491E+03  0.36248501473E+03  0.89316520896E+02 0.  0.
          5    1    4    4  502    0 -0.48203754541E+02 -0.83009295186E+02 -0.10133850992E+03  0.13966291072E+03  0.47000000000E+01 0. -1.
         -5    1    3    3    0  503  0.63262433946E+02  0.59316083178E+02 -0.11555743041E+03  0.14455498260E+03  0.47000000000E+01 0. -1.
          5    1    3    3  503    0 -0.48153014576E+02  0.14789835408E+03 -0.21131741032E+03  0.26243051243E+03  0.47000000000E+01 0. -1.
         -5    1    4    4    0  502  0.33094335172E+02 -0.12420514207E+03 -0.18194902500E+03  0.22282210400E+03  0.47000000000E+01 0.  1.
<mgrwt>
<rscale>  0 0.23828009E+03</rscale>
<asrwt>0</asrwt>
<pdfrwt beam="1">  1        3 0.10612561E+00 0.24246656E+03</pdfrwt>
<pdfrwt beam="2">  1       -3 0.12254472E-01 0.24246656E+03</pdfrwt>
<totfact> 0.10293115E+02</totfact>
</mgrwt>
</event>
<event>
 8    1  0.3407580E-004  0.1361797E+03  0.7546771E-02  0.1230360E+00
         -2   -1    0    0    0  501 -0.00000000000E+00  0.00000000000E+00  0.99433026873E+02  0.99433026873E+02  0.00000000000E+00 0.  1.
          2   -1    0    0  501    0  0.00000000000E+00 -0.00000000000E+00 -0.18662514023E+03  0.18662514023E+03  0.00000000000E+00 0. -1.
         25    2    1    2    0    0 -0.98412266639E+01  0.53130013497E+02  0.16795183366E+02  0.13721152108E+03  0.12500110102E+03 0.  0.
         23    2    1    2    0    0  0.98412266639E+01 -0.53130013497E+02 -0.10398729672E+03  0.14884664603E+03  0.91773188228E+02 0.  0.
          5    1    4    4  502    0 -0.35260926838E+02 -0.61991543870E+01 -0.16498466975E+02  0.39699520011E+02  0.47000000000E+01 0. -1.
         -5    1    4    4    0  502  0.45102153501E+02 -0.46930859110E+02 -0.87488829744E+02  0.10914712601E+03  0.47000000000E+01 0.  1.
          5    1    3    3  503    0 -0.27534856052E+01  0.89444752515E+02  0.34376701867E+02  0.95978086388E+02  0.47000000000E+01 0.  1.
         -5    1    3    3    0  503 -0.70877410586E+01 -0.36314739018E+02 -0.17581518501E+02  0.41233434687E+02  0.47000000000E+01 0.  1.
<mgrwt>
<rscale>  0 0.12806205E+03</rscale>
<asrwt>0</asrwt>
<pdfrwt beam="1">  1        2 0.28711560E-01 0.13617975E+03</pdfrwt>
<pdfrwt beam="2">  1       -2 0.15297389E-01 0.13617975E+03</pdfrwt>
<totfact> 0.58142043E+03</totfact>
</mgrwt>
</event>
<event>
 8    1  0.3407580E-004  0.1383624E+03  0.7546771E-02  0.1227102E+00
          2   -1    0    0  501    0  0.00000000000E+00  0.00000000000E+00  0.79900862139E+03  0.79900862139E+03  0.00000000000E+00 0. -1.
         -2   -1    0    0    0  501 -0.00000000000E+00 -0.00000000000E+00 -0.23513194941E+02  0.23513194941E+02  0.00000000000E+00 0.  1.
         25    2    1    2    0    0 -0.53269926203E+01  0.59077043375E+02  0.24825307228E+03  0.28420719352E+03  0.12500266818E+03 0.  0.
         23    2    1    2    0    0  0.53269926203E+01 -0.59077043375E+02  0.52724235418E+03  0.53831462281E+03  0.90992632614E+02 0.  0.
          5    1    4    4  502    0  0.37069238277E+02 -0.54010239305E+02  0.44613793678E+03  0.45094609767E+03  0.47000000000E+01 0. -1.
         -5    1    3    3    0  503  0.28179966286E+02  0.59445725307E+02  0.24065287235E+03  0.24952715228E+03  0.47000000000E+01 0. -1.
          5    1    3    3  503    0 -0.33506958906E+02 -0.36868193218E+00  0.76001999287E+01  0.34680041241E+02  0.47000000000E+01 0. -1.
         -5    1    4    4    0  502 -0.31742245656E+02 -0.50668040702E+01  0.81104417402E+02  0.87368525138E+02  0.47000000000E+01 0.  1.
<mgrwt>
<rscale>  0 0.13023872E+03</rscale>
<asrwt>0</asrwt>
<pdfrwt beam="1">  1        2 0.12292438E+00 0.13836235E+03</pdfrwt>
<pdfrwt beam="2">  1       -2 0.36174152E-02 0.13836235E+03</pdfrwt>
<totfact> 0.10907173E+04</totfact>
</mgrwt>
</event>
<event>
 8    1  0.3407580E-004  0.1277467E+03  0.7546771E-02  0.1246212E+00
          2   -1    0    0  501    0  0.00000000000E+00  0.00000000000E+00  0.11975562329E+04  0.11975562329E+04  0.00000000000E+00 0. -1.
         -2   -1    0    0    0  501 -0.00000000000E+00 -0.00000000000E+00 -0.10286288158E+02  0.10286288158E+02  0.00000000000E+00 0.  1.
         25    2    1    2    0    0 -0.26002023545E+02  0.40150915737E+01  0.63400962997E+03  0.64675143976E+03  0.12500795074E+03 0.  0.
         23    2    1    2    0    0  0.26002023545E+02 -0.40150915737E+01  0.55326031481E+03  0.56109108133E+03  0.89632580137E+02 0.  0.
          5    1    3    3  502    0 -0.20134884891E+02  0.57628752073E+02  0.47156377844E+03  0.47552179108E+03  0.47000000000E+01 0.  1.
         -5    1    4    4    0  503  0.57237294924E+01 -0.44051821461E+02  0.35267222182E+03  0.35548995780E+03  0.47000000000E+01 0.  1.
          5    1    4    4  503    0  0.20278294053E+02  0.40036729887E+02  0.20058809299E+03  0.20560112353E+03  0.47000000000E+01 0. -1.
         -5    1    3    3    0  502 -0.58671386539E+01 -0.53613660499E+02  0.16244585154E+03  0.17122964869E+03  0.47000000000E+01 0.  1.
<mgrwt>
<rscale>  0 0.11813145E+03</rscale>
<asrwt>0</asrwt>
<pdfrwt beam="1">  1        2 0.18423931E+00 0.12774668E+03</pdfrwt>
<pdfrwt beam="2">  1       -2 0.15825068E-02 0.12774668E+03</pdfrwt>
<totfact> 0.20849577E+04</totfact>
</mgrwt>
</event>
<event>
 8    1  0.3407580E-004  0.1520915E+03  0.7546771E-02  0.1206323E+00
          2   -1    0    0  501    0  0.00000000000E+00  0.00000000000E+00  0.29967108425E+03  0.29967108425E+03  0.00000000000E+00 0. -1.
         -2   -1    0    0    0  501 -0.00000000000E+00 -0.00000000000E+00 -0.70086113322E+02  0.70086113322E+02  0.00000000000E+00 0.  1.
         25    2    1    2    0    0  0.84508396903E+02  0.19031702305E+02  0.17453812351E+03  0.23150674959E+03  0.12501177428E+03 0.  0.
         23    2    1    2    0    0 -0.84508396903E+02 -0.19031702305E+02  0.55046847414E+02  0.13825044798E+03  0.92623734085E+02 0.  0.
          5    1    3    3  502    0  0.29440619851E+02  0.57185370511E+02  0.27988828547E+02  0.70302071244E+02  0.47000000000E+01 0. -1.
         -5    1    4    4    0  503  0.69385636380E+01 -0.24106969742E+02 -0.82465142031E+01  0.26821346946E+02  0.47000000000E+01 0.  1.
          5    1    4    4  503    0 -0.91446960541E+02  0.50752674377E+01  0.63293361617E+02  0.11142910103E+03  0.47000000000E+01 0. -1.
         -5    1    3    3    0  502  0.55067777052E+02 -0.38153668207E+02  0.14654929496E+03  0.16120467835E+03  0.47000000000E+01 0. -1.
<mgrwt>
<rscale>  0 0.14533649E+03</rscale>
<asrwt>0</asrwt>
<pdfrwt beam="1">  1        2 0.46103243E-01 0.15209148E+03</pdfrwt>
<pdfrwt beam="2">  1       -2 0.10782479E-01 0.15209148E+03</pdfrwt>
<totfact> 0.61890985E+03</totfact>
</mgrwt>
</event>
<event>
 8    1  0.3407580E-004  0.1363955E+03  0.7546771E-02  0.1228086E+00
         -3   -1    0    0    0  501 -0.00000000000E+00  0.00000000000E+00  0.27700071109E+03  0.27700071109E+03  0.00000000000E+00 0.  1.
          3   -1    0    0  501    0  0.00000000000E+00 -0.00000000000E+00 -0.73271136395E+02  0.73271136395E+02  0.00000000000E+00 0. -1.
         25    2    1    2    0    0 -0.29147926145E+02  0.46133349466E+02  0.19615665265E+03  0.23891666713E+03  0.12500341564E+03 0.  0.
         23    2    1    2    0    0  0.29147926145E+02 -0.46133349466E+02  0.75729220459E+01  0.11135518036E+03  0.96771584222E+02 0.  0.
          5    1    4    4  502    0  0.40540225436E+02  0.17899360781E+02  0.11515747690E+02  0.46028246106E+02  0.47000000000E+01 0. -1.
         -5    1    3    3    0  503  0.26616395687E+02  0.44964638539E+02  0.23633291087E+02  0.57540191917E+02  0.47000000000E+01 0.  1.
          5    1    3    3  503    0 -0.55764321831E+02  0.11687109274E+01  0.17252336156E+03  0.18137647521E+03  0.47000000000E+01 0.  1.
         -5    1    4    4    0  502 -0.11392299291E+02 -0.64032710247E+02 -0.39428256443E+01  0.65326934252E+02  0.47000000000E+01 0.  1.
<mgrwt>
<rscale>  0 0.12957645E+03</rscale>
<asrwt>0</asrwt>
<pdfrwt beam="1">  1        3 0.11272483E-01 0.13639553E+03</pdfrwt>
<pdfrwt beam="2">  1       -3 0.42615494E-01 0.13639553E+03</pdfrwt>
<totfact> 0.76635508E+02</totfact>
</mgrwt>
</event>
<event>
 8    1  0.3407580E-004  0.1433788E+03  0.7546771E-02  0.1219462E+00
         -2   -1    0    0    0  501 -0.00000000000E+00  0.00000000000E+00  0.16576862620E+03  0.16576862620E+03  0.00000000000E+00 0.  1.
          2   -1    0    0  501    0  0.00000000000E+00 -0.00000000000E+00 -0.10638199916E+03  0.10638199916E+03  0.00000000000E+00 0. -1.
         25    2    1    2    0    0 -0.30334050984E+02  0.63329232660E+02  0.45997588173E+00  0.14337952156E+03  0.12500691688E+03 0.  0.
         23    2    1    2    0    0  0.30334050984E+02 -0.63329232660E+02  0.58926651158E+02  0.12877110380E+03  0.90437274389E+02 0.  0.
          5    1    4    4  502    0  0.55032383964E+01 -0.19771317003E+02 -0.23891281263E+02  0.31844527462E+02  0.47000000000E+01 0. -1.
         -5    1    4    4    0  502  0.24830812587E+02 -0.43557915657E+02  0.82817932421E+02  0.96926576338E+02  0.47000000000E+01 0.  1.
          5    1    3    3  503    0  0.31341797379E+02  0.22019830178E+02 -0.42562411220E+02  0.57452850520E+02  0.47000000000E+01 0. -1.
         -5    1    3    3    0  503 -0.61675848362E+02  0.41309402482E+02  0.43022387102E+02  0.85926671043E+02  0.47000000000E+01 0. -1.
<mgrwt>
<rscale>  0 0.13553846E+03</rscale>
<asrwt>0</asrwt>
<pdfrwt beam="1">  1        2 0.16366462E-01 0.14337878E+03</pdfrwt>
<pdfrwt beam="2">  1       -2 0.25502865E-01 0.14337878E+03</pdfrwt>
<totfact> 0.46157369E+03</totfact>
</mgrwt>
</event>
<event>
 8    1  0.3407580E-004  0.2845426E+03  0.7546771E-02  0.1094991E+00
         -2   -1    0    0    0  501 -0.00000000000E+00  0.00000000000E+00  0.49358393087E+03  0.49358393087E+03  0.00000000000E+00 0.  1.
          2   -1    0    0  501    0  0.00000000000E+00 -0.00000000000E+00 -0.15739917131E+03  0.15739917131E+03  0.00000000000E+00 0. -1.
         25    2    1    2    0    0 -0.14975686294E+03  0.20716097319E+03  0.19323762940E+03  0.34395529529E+03  0.12498670700E+03 0.  0.
         23    2    1    2    0    0  0.14975686294E+03 -0.20716097319E+03  0.14294713016E+03  0.30702780690E+03  0.92137969235E+02 0.  0.
          5    1    4    4  502    0  0.54251337548E+02 -0.13236689229E+03  0.11201257926E+03  0.18175012988E+03  0.47000000000E+01 0. -1.
         -5    1    4    4    0  502  0.95505525389E+02 -0.74794080906E+02  0.30934550900E+02  0.12527767701E+03  0.47000000000E+01 0.  1.
          5    1    3    3  503    0 -0.15460906669E+03  0.17253470141E+03  0.20222039465E+03  0.30755058886E+03  0.47000000000E+01 0. -1.
         -5    1    3    3    0  503  0.48522037528E+01  0.34626271779E+02 -0.89827652492E+01  0.36404706428E+02  0.47000000000E+01 0. -1.
<mgrwt>
<rscale>  0 0.28128148E+03</rscale>
<asrwt>0</asrwt>
<pdfrwt beam="1">  1        2 0.24215257E-01 0.28454255E+03</pdfrwt>
<pdfrwt beam="2">  1       -2 0.75935989E-01 0.28454255E+03</pdfrwt>
<totfact> 0.35770138E+02</totfact>
</mgrwt>
</event>
<event>
 8    1  0.3407580E-004  0.1559366E+03  0.7546771E-02  0.1201445E+00
          1   -1    0    0  501    0  0.00000000000E+00  0.00000000000E+00  0.75294732996E+02  0.75294732996E+02  0.00000000000E+00 0. -1.
         -1   -1    0    0    0  501 -0.00000000000E+00 -0.00000000000E+00 -0.27854533210E+03  0.27854533210E+03  0.00000000000E+00 0.  1.
         25    2    1    2    0    0 -0.76105164798E+02  0.53841619008E+02 -0.13558277109E+03  0.20663711873E+03  0.12500117989E+03 0.  0.
         23    2    1    2    0    0  0.76105164798E+02 -0.53841619008E+02 -0.67667828011E+02  0.14720294637E+03  0.91645274974E+02 0.  0.
          5    1    4    4  502    0  0.38504837963E+02 -0.59406572615E+02 -0.17556941395E+01  0.70971373654E+02  0.47000000000E+01 0. -1.
         -5    1    3    3    0  503 -0.90865717852E+02  0.14720328527E+02 -0.36761327609E+02  0.99230801469E+02  0.47000000000E+01 0.  1.
          5    1    3    3  503    0  0.14760553054E+02  0.39121290480E+02 -0.98821443484E+02  0.10740631726E+03  0.47000000000E+01 0.  1.
         -5    1    4    4    0  502  0.37600326835E+02  0.55649536076E+01 -0.65912133871E+02  0.76231572713E+02  0.47000000000E+01 0.  1.
<mgrwt>
<rscale>  0 0.14921174E+03</rscale>
<asrwt>0</asrwt>
<pdfrwt beam="1">  1        1 0.11583805E-01 0.15593656E+03</pdfrwt>
<pdfrwt beam="2">  1       -1 0.42853127E-01 0.15593656E+03</pdfrwt>
<totfact> 0.27907848E+03</totfact>
</mgrwt>
</event>
<event>
 8    1  0.3407580E-004  0.1531278E+03  0.7546771E-02  0.1205594E+00
          2   -1    0    0  501    0  0.00000000000E+00  0.00000000000E+00  0.12399403519E+04  0.12399403519E+04  0.00000000000E+00 0. -1.
         -2   -1    0    0    0  501 -0.00000000000E+00 -0.00000000000E+00 -0.16610403714E+02  0.16610403714E+02  0.00000000000E+00 0.  1.
         25    2    1    2    0    0 -0.79804447292E+02  0.38129562320E+02  0.52381142556E+03  0.54573485480E+03  0.12500203544E+03 0.  0.
         23    2    1    2    0    0  0.79804447292E+02 -0.38129562320E+02  0.69951852268E+03  0.71081590087E+03  0.90058136922E+02 0.  0.
          5    1    4    4  502    0  0.37376617877E+02  0.28372791875E+02  0.27035730588E+03  0.27443977431E+03  0.47000000000E+01 0. -1.
         -5    1    3    3    0  503 -0.37837121564E+02 -0.28224507532E+02  0.36952180288E+03  0.37255432275E+03  0.47000000000E+01 0. -1.
          5    1    3    3  503    0 -0.41967325728E+02  0.66354069852E+02  0.15428962268E+03  0.17318053205E+03  0.47000000000E+01 0. -1.
         -5    1    4    4    0  502  0.42427829415E+02 -0.66502354195E+02  0.42916121680E+03  0.43637612656E+03  0.47000000000E+01 0.  1.
<mgrwt>
<rscale>  0 0.14590763E+03</rscale>
<asrwt>0</asrwt>
<pdfrwt beam="1">  1        2 0.19075998E+00 0.15312780E+03</pdfrwt>
<pdfrwt beam="2">  1       -2 0.25554477E-02 0.15312780E+03</pdfrwt>
<totfact> 0.99501734E+03</totfact>
</mgrwt>
</event>
<event>
 8    1  0.3407580E-004  0.1479846E+03  0.7546771E-02  0.1211259E+00
          2   -1    0    0  501    0  0.00000000000E+00  0.00000000000E+00  0.54131611823E+03  0.54131611823E+03  0.00000000000E+00 0. -1.
         -2   -1    0    0    0  501 -0.00000000000E+00 -0.00000000000E+00 -0.34140950504E+02  0.34140950504E+02  0.00000000000E+00 0.  1.
         25    2    1    2    0    0 -0.30162651034E+01 -0.79156322879E+02  0.27187780376E+03  0.30954317495E+03  0.12499846269E+03 0.  0.
         23    2    1    2    0    0  0.30162651034E+01  0.79156322879E+02  0.23529736397E+03  0.26591389378E+03  0.95239320198E+02 0.  0.
          5    1    4    4  502    0 -0.31247871674E+02  0.87398929641E+01  0.24315491770E+02  0.40818480535E+02  0.47000000000E+01 0.  1.
         -5    1    3    3    0  503  0.26340180300E+02 -0.42291716098E+02  0.21063677094E+02  0.54296987407E+02  0.47000000000E+01 0.  1.
          5    1    3    3  503    0 -0.29356445403E+02 -0.36864606781E+02  0.25081412667E+03  0.25524618755E+03  0.47000000000E+01 0.  1.
         -5    1    4    4    0  502  0.34264136777E+02  0.70416429915E+02  0.21098187219E+03  0.22509541325E+03  0.47000000000E+01 0. -1.
<mgrwt>
<rscale>  0 0.14154986E+03</rscale>
<asrwt>0</asrwt>
<pdfrwt beam="1">  1        2 0.83279396E-01 0.14798458E+03</pdfrwt>
<pdfrwt beam="2">  1       -2 0.52524543E-02 0.14798458E+03</pdfrwt>
<totfact> 0.99035667E+03</totfact>
</mgrwt>
</event>
<event>
 8    1  0.3407580E-004  0.1693464E+03  0.7546771E-02  0.1185678E+00
          2   -1    0    0  501    0  0.00000000000E+00  0.00000000000E+00  0.60620668899E+03  0.60620668899E+03  0.00000000000E+00 0. -1.
         -2   -1    0    0    0  501 -0.00000000000E+00 -0.00000000000E+00 -0.46102530389E+02  0.46102530389E+02  0.00000000000E+00 0.  1.
         25    2    1    2    0    0  0.11082204582E+03 -0.27816552912E+02  0.18705228650E+03  0.25232272559E+03  0.12499165376E+03 0.  0.
         23    2    1    2    0    0 -0.11082204582E+03  0.27816552912E+02  0.37305187210E+03  0.39998649379E+03  0.88126099873E+02 0.  0.
          5    1    3    3  502    0  0.71294321598E+02 -0.67973931178E+02  0.16377726129E+03  0.19117640265E+03  0.47000000000E+01 0. -1.
         -5    1    3    3    0  502  0.39527724225E+02  0.40157378266E+02  0.23275025212E+02  0.61146322949E+02  0.47000000000E+01 0. -1.
          5    1    4    4  503    0 -0.37412995960E+02  0.35301034162E+02  0.25874543678E+03  0.26385068947E+03  0.47000000000E+01 0. -1.
         -5    1    4    4    0  503 -0.73409049863E+02 -0.74844812500E+01  0.11430643532E+03  0.13613580432E+03  0.47000000000E+01 0.  1.
<mgrwt>
<rscale>  0 0.16270315E+03</rscale>
<asrwt>0</asrwt>
<pdfrwt beam="1">  1        2 0.93262562E-01 0.16934639E+03</pdfrwt>
<pdfrwt beam="2">  1       -2 0.70926974E-02 0.16934639E+03</pdfrwt>
<totfact> 0.55536730E+03</totfact>
</mgrwt>
</event>
<event>
 8    1  0.3407580E-004  0.2052373E+03  0.7546771E-02  0.1149458E+00
         -2   -1    0    0    0  501 -0.00000000000E+00  0.00000000000E+00  0.32942139856E+02  0.32942139856E+02  0.00000000000E+00 0.  1.
          2   -1    0    0  501    0  0.00000000000E+00 -0.00000000000E+00 -0.11937094130E+04  0.11937094130E+04  0.00000000000E+00 0. -1.
         25    2    1    2    0    0  0.16092269811E+03 -0.24509215012E+02 -0.70520119190E+03  0.73445971065E+03  0.12500211646E+03 0.  0.
         23    2    1    2    0    0 -0.16092269811E+03  0.24509215012E+02 -0.45556608129E+03  0.49219184225E+03  0.90639609290E+02 0.  0.
          5    1    3    3  502    0  0.11905442734E+03 -0.32087049859E+02 -0.66286977118E+03  0.67425659729E+03  0.47000000000E+01 0.  1.
         -5    1    3    3    0  502  0.41868270771E+02  0.75778348470E+01 -0.42331420718E+02  0.60203113361E+02  0.47000000000E+01 0.  1.
          5    1    4    4  503    0 -0.10106905394E+03  0.58591938393E+02 -0.30090493886E+03  0.32282168629E+03  0.47000000000E+01 0. -1.
         -5    1    4    4    0  503 -0.59853644165E+02 -0.34082723381E+02 -0.15466114243E+03  0.16937015596E+03  0.47000000000E+01 0.  1.
<mgrwt>
<rscale>  0 0.20033310E+03</rscale>
<asrwt>0</asrwt>
<pdfrwt beam="1">  1        2 0.18364756E+00 0.20523729E+03</pdfrwt>
<pdfrwt beam="2">  1       -2 0.50680226E-02 0.20523729E+03</pdfrwt>
<totfact> 0.38416974E+03</totfact>
</mgrwt>
</event>
<event>
 8    1  0.3407580E-004  0.1348860E+03  0.7546771E-02  0.1234179E+00
          2   -1    0    0  501    0  0.00000000000E+00  0.00000000000E+00  0.11403735518E+04  0.11403735518E+04  0.00000000000E+00 0. -1.
         -2   -1    0    0    0  501 -0.00000000000E+00 -0.00000000000E+00 -0.12529655539E+02  0.12529655539E+02  0.00000000000E+00 0.  1.
         25    2    1    2    0    0 -0.50167424070E+02 -0.73488349733E+01  0.55397252164E+03  0.57015769323E+03  0.12499385829E+03 0.  0.
         23    2    1    2    0    0  0.50167424070E+02  0.73488349733E+01  0.57387137463E+03  0.58274551411E+03  0.87710910291E+02 0.  0.
          5    1    3    3  502    0  0.25685218701E+02  0.31230959219E+02  0.95249213194E+02  0.10358381093E+03  0.47000000000E+01 0.  1.
         -5    1    3    3    0  502 -0.75852642771E+02 -0.38579794192E+02  0.45872330844E+03  0.46657388230E+03  0.47000000000E+01 0.  1.
          5    1    4    4  503    0  0.14165502503E+02  0.41282464615E+02  0.16040369249E+03  0.16630194800E+03  0.47000000000E+01 0. -1.
         -5    1    4    4    0  503  0.36001921567E+02 -0.33933629642E+02  0.41346768214E+03  0.41644356611E+03  0.47000000000E+01 0.  1.
<mgrwt>
<rscale>  0 0.12557110E+03</rscale>
<asrwt>0</asrwt>
<pdfrwt beam="1">  1        2 0.17544200E+00 0.13488603E+03</pdfrwt>
<pdfrwt beam="2">  1       -2 0.19276402E-02 0.13488603E+03</pdfrwt>
<totfact> 0.16933267E+04</totfact>
</mgrwt>
</event>
<event>
 8    1  0.3407580E-004  0.1621593E+03  0.7546771E-02  0.1194089E+00
          3   -1    0    0  501    0  0.00000000000E+00  0.00000000000E+00  0.43932347738E+02  0.43932347738E+02  0.00000000000E+00 0. -1.
         -3   -1    0    0    0  501 -0.00000000000E+00 -0.00000000000E+00 -0.77061707699E+03  0.77061707699E+03  0.00000000000E+00 0.  1.
         25    2    1    2    0    0  0.99829055736E+02 -0.26527684923E+02 -0.14651643275E+03  0.21854683025E+03  0.12500437397E+03 0.  0.
         23    2    1    2    0    0 -0.99829055736E+02  0.26527684923E+02 -0.58016829650E+03  0.59600259447E+03  0.89186781067E+02 0.  0.
          5    1    4    4  502    0 -0.31454414468E+02 -0.95693941270E+00 -0.41485116121E+02  0.52281935524E+02  0.47000000000E+01 0. -1.
         -5    1    4    4    0  502 -0.68374641268E+02  0.27484624336E+02 -0.53868318038E+03  0.54372065895E+03  0.47000000000E+01 0.  1.
          5    1    3    3  503    0  0.78367129093E+02 -0.51977845311E+01 -0.10798604729E+02  0.79417402063E+02  0.47000000000E+01 0. -1.
         -5    1    3    3    0  503  0.21461926643E+02 -0.21329900392E+02 -0.13571782802E+03  0.13912942819E+03  0.47000000000E+01 0. -1.
<mgrwt>
<rscale>  0 0.15531562E+03</rscale>
<asrwt>0</asrwt>
<pdfrwt beam="1">  1        3 0.67588222E-02 0.16215934E+03</pdfrwt>
<pdfrwt beam="2">  1       -3 0.11855648E+00 0.16215934E+03</pdfrwt>
<totfact> 0.20410299E+02</totfact>
</mgrwt>
</event>
<event>
 8    1  0.3407580E-004  0.1323359E+03  0.7546771E-02  0.1237264E+00
         -3   -1    0    0    0  501 -0.00000000000E+00  0.00000000000E+00  0.87221586983E+02  0.87221586983E+02  0.00000000000E+00 0.  1.
          3   -1    0    0  501    0  0.00000000000E+00 -0.00000000000E+00 -0.15714645852E+03  0.15714645852E+03  0.00000000000E+00 0. -1.
         25    2    1    2    0    0 -0.20034035842E+02 -0.38555496771E+02 -0.51343875363E+02  0.14194710985E+03  0.12499959814E+03 0.  0.
         23    2    1    2    0    0  0.20034035842E+02  0.38555496771E+02 -0.18580996172E+02  0.10242093564E+03  0.90867517388E+02 0.  0.
          5    1    4    4  502    0  0.47201009863E+02  0.36499114896E+02 -0.35904263380E+02  0.69794891283E+02  0.47000000000E+01 0. -1.
         -5    1    3    3    0  503 -0.72567281099E+02 -0.14771617907E+02 -0.24308193471E+02  0.78084500713E+02  0.47000000000E+01 0. -1.
          5    1    3    3  503    0  0.52533245257E+02 -0.23783878864E+02 -0.27035681892E+02  0.63862609142E+02  0.47000000000E+01 0. -1.
         -5    1    4    4    0  502 -0.27166974022E+02  0.20563818744E+01  0.17323267209E+02  0.32626044362E+02  0.47000000000E+01 0.  1.
<mgrwt>
<rscale>  0 0.12360574E+03</rscale>
<asrwt>0</asrwt>
<pdfrwt beam="1">  1        3 0.24176378E-01 0.13233589E+03</pdfrwt>
<pdfrwt beam="2">  1       -3 0.13418706E-01 0.13233589E+03</pdfrwt>
<totfact> 0.16407775E+03</totfact>
</mgrwt>
</event>
<event>
 8    1  0.3407580E-004  0.1613939E+03  0.7546771E-02  0.1194306E+00
         -1   -1    0    0    0  501 -0.00000000000E+00  0.00000000000E+00  0.80428655151E+02  0.80428655151E+02  0.00000000000E+00 0.  1.
          1   -1    0    0  501    0  0.00000000000E+00 -0.00000000000E+00 -0.49139378383E+03  0.49139378383E+03  0.00000000000E+00 0. -1.
         25    2    1    2    0    0  0.92945001538E+02 -0.42198637734E+02 -0.40266859912E+03  0.43380871498E+03  0.12501400776E+03 0.  0.
         23    2    1    2    0    0 -0.92945001538E+02  0.42198637734E+02 -0.82965295617E+01  0.13801372401E+03  0.92517334990E+02 0.  0.
          5    1    4    4  502    0 -0.47199492181E+02  0.58389800100E+02 -0.34390844457E+02  0.82716268052E+02  0.47000000000E+01 0. -1.
         -5    1    3    3    0  503  0.59890811667E+02 -0.51041200013E+01 -0.52034327777E+02  0.79640584066E+02  0.47000000000E+01 0.  1.
          5    1    3    3  503    0  0.33054189871E+02 -0.37094517733E+02 -0.35063427134E+03  0.35416813091E+03  0.47000000000E+01 0.  1.
         -5    1    4    4    0  502 -0.45745509357E+02 -0.16191162366E+02  0.26094314896E+02  0.55297455954E+02  0.47000000000E+01 0.  1.
<mgrwt>
<rscale>  0 0.15513130E+03</rscale>
<asrwt>0</asrwt>
<pdfrwt beam="1">  1        1 0.75599045E-01 0.16139393E+03</pdfrwt>
<pdfrwt beam="2">  1       -1 0.12373639E-01 0.16139393E+03</pdfrwt>
<totfact> 0.19910310E+03</totfact>
</mgrwt>
</event>
<event>
 8    1  0.3407580E-004  0.4257761E+03  0.7546771E-02  0.1035900E+00
         -1   -1    0    0    0  501 -0.00000000000E+00  0.00000000000E+00  0.76715297000E+02  0.76715297000E+02  0.00000000000E+00 0.  1.
          1   -1    0    0  501    0  0.00000000000E+00 -0.00000000000E+00 -0.23155371133E+04  0.23155371133E+04  0.00000000000E+00 0. -1.
         25    2    1    2    0    0 -0.31144608430E+03 -0.26203293980E+03 -0.11228887896E+04  0.12009015317E+04  0.12500132071E+03 0.  0.
         23    2    1    2    0    0  0.31144608430E+03  0.26203293980E+03 -0.11159330268E+04  0.11913508786E+04  0.91380910369E+02 0.  0.
          5    1    4    4  502    0  0.16606109517E+03  0.88830421822E+02 -0.57357972750E+03  0.60372421267E+03  0.47000000000E+01 0. -1.
         -5    1    3    3    0  503 -0.56211089909E+02 -0.74450596206E+02 -0.41469396080E+03  0.42508322600E+03  0.47000000000E+01 0. -1.
          5    1    3    3  503    0 -0.25523499439E+03 -0.18758234360E+03 -0.70819482876E+03  0.77581830571E+03  0.47000000000E+01 0. -1.
         -5    1    4    4    0  502  0.14538498913E+03  0.17320251798E+03 -0.54235329928E+03  0.58762666596E+03  0.47000000000E+01 0.  1.
<mgrwt>
<rscale>  0 0.42360183E+03</rscale>
<asrwt>0</asrwt>
<pdfrwt beam="1">  1        1 0.35623646E+00 0.42577606E+03</pdfrwt>
<pdfrwt beam="2">  1       -1 0.11802354E-01 0.42577606E+03</pdfrwt>
<totfact> 0.95536202E+01</totfact>
</mgrwt>
</event>
<event>
 8    1  0.3407580E-004  0.1402994E+03  0.7546771E-02  0.1222140E+00
          2   -1    0    0  501    0  0.00000000000E+00  0.00000000000E+00  0.44742556604E+03  0.44742556604E+03  0.00000000000E+00 0. -1.
         -2   -1    0    0    0  501 -0.00000000000E+00 -0.00000000000E+00 -0.41921179734E+02  0.41921179734E+02  0.00000000000E+00 0.  1.
         25    2    1    2    0    0  0.47204953007E+02  0.42808575434E+02  0.13281419685E+03  0.19319296125E+03  0.12499211044E+03 0.  0.
         23    2    1    2    0    0 -0.47204953007E+02 -0.42808575434E+02  0.27269018946E+03  0.29615378453E+03  0.96365154210E+02 0.  0.
          5    1    4    4  502    0 -0.11607438910E+02 -0.48812757465E+02  0.24575285048E+03  0.25086644145E+03  0.47000000000E+01 0. -1.
         -5    1    4    4    0  502 -0.35597514097E+02  0.60041820313E+01  0.26937338983E+02  0.45287343079E+02  0.47000000000E+01 0.  1.
          5    1    3    3  503    0 -0.27959114834E+02  0.47942450692E+02  0.91558026351E+02  0.10716880549E+03  0.47000000000E+01 0. -1.
         -5    1    3    3    0  503  0.75164067841E+02 -0.51338752576E+01  0.41256170498E+02  0.86024155757E+02  0.47000000000E+01 0. -1.
<mgrwt>
<rscale>  0 0.13364885E+03</rscale>
<asrwt>0</asrwt>
<pdfrwt beam="1">  1        2 0.68834699E-01 0.14029936E+03</pdfrwt>
<pdfrwt beam="2">  1       -2 0.64494126E-02 0.14029936E+03</pdfrwt>
<totfact> 0.89121391E+03</totfact>
</mgrwt>
</event>
<event>
 8    1  0.3407580E-004  0.2234675E+03  0.7546771E-02  0.1134434E+00
          1   -1    0    0  501    0  0.00000000000E+00  0.00000000000E+00  0.24122326772E+03  0.24122326772E+03  0.00000000000E+00 0. -1.
         -1   -1    0    0    0  501 -0.00000000000E+00 -0.00000000000E+00 -0.19232882960E+03  0.19232882960E+03  0.00000000000E+00 0.  1.
         25    2    1    2    0    0 -0.17699842596E+03  0.54622319673E+02  0.31987617978E+02  0.22574531381E+03  0.12500279359E+03 0.  0.
         23    2    1    2    0    0  0.17699842596E+03 -0.54622319673E+02  0.16906820147E+02  0.20780678350E+03  0.92659473899E+02 0.  0.
          5    1    3    3  502    0 -0.91488760318E+02  0.91955667530E+02  0.23804333894E+02  0.13196504980E+03  0.47000000000E+01 0.  1.
         -5    1    3    3    0  502 -0.85509665644E+02 -0.37333347856E+02  0.81832840842E+01  0.93780264017E+02  0.47000000000E+01 0.  1.
          5    1    4    4  503    0  0.13619733861E+03 -0.70183151871E+01  0.37724200945E+02  0.14157745982E+03  0.47000000000E+01 0.  1.
         -5    1    4    4    0  503  0.40801087353E+02 -0.47604004486E+02 -0.20817380798E+02  0.66229323684E+02  0.47000000000E+01 0. -1.
<mgrwt>
<rscale>  0 0.21926294E+03</rscale>
<asrwt>0</asrwt>
<pdfrwt beam="1">  1        1 0.37111272E-01 0.22346753E+03</pdfrwt>
<pdfrwt beam="2">  1       -1 0.29589051E-01 0.22346753E+03</pdfrwt>
<totfact> 0.12059045E+03</totfact>
</mgrwt>
</event>
<event>
 8    1  0.3407580E-004  0.2046752E+03  0.7546771E-02  0.1149823E+00
         -2   -1    0    0    0  501 -0.00000000000E+00  0.00000000000E+00  0.66553379996E+02  0.66553379996E+02  0.00000000000E+00 0.  1.
          2   -1    0    0  501    0  0.00000000000E+00 -0.00000000000E+00 -0.14889992611E+04  0.14889992611E+04  0.00000000000E+00 0. -1.
         25    2    1    2    0    0  0.29536597074E+02 -0.15935478925E+03 -0.11472105372E+03  0.23463342802E+03  0.12500226380E+03 0.  0.
         23    2    1    2    0    0 -0.29536597074E+02  0.15935478925E+03 -0.13077248274E+04  0.13209192131E+04  0.91744121802E+02 0.  0.
          5    1    4    4  502    0 -0.29848115192E+02  0.38067135484E+01 -0.19449167051E+03  0.19686162893E+03  0.47000000000E+01 0. -1.
         -5    1    4    4    0  502  0.31151811859E+00  0.15554807570E+03 -0.11132331569E+04  0.11240575842E+04  0.47000000000E+01 0.  1.
          5    1    3    3  503    0 -0.14811303781E+02 -0.55140327981E+02 -0.10656148495E+03  0.12098458813E+03  0.47000000000E+01 0.  1.
         -5    1    3    3    0  503  0.44347900854E+02 -0.10421446126E+03 -0.81595687688E+01  0.11364883989E+03  0.47000000000E+01 0.  1.
<mgrwt>
<rscale>  0 0.19990055E+03</rscale>
<asrwt>0</asrwt>
<pdfrwt beam="1">  1        2 0.22907679E+00 0.20467517E+03</pdfrwt>
<pdfrwt beam="2">  1       -2 0.10238982E-01 0.20467517E+03</pdfrwt>
<totfact> 0.89131589E+02</totfact>
</mgrwt>
</event>
<event>
 8    1  0.3407580E-004  0.1996416E+03  0.7546771E-02  0.1154779E+00
          1   -1    0    0  501    0  0.00000000000E+00  0.00000000000E+00  0.79542033890E+03  0.79542033890E+03  0.00000000000E+00 0. -1.
         -1   -1    0    0    0  501 -0.00000000000E+00 -0.00000000000E+00 -0.54883578172E+02  0.54883578172E+02  0.00000000000E+00 0.  1.
         25    2    1    2    0    0  0.84806711879E+02  0.13052921944E+03  0.20654360215E+03  0.28725776011E+03  0.12500682240E+03 0.  0.
         23    2    1    2    0    0 -0.84806711879E+02 -0.13052921944E+03  0.53399315858E+03  0.56304615697E+03  0.87419825907E+02 0.  0.
          5    1    4    4  502    0 -0.21626230112E+01 -0.80778813870E+02  0.21401623378E+03  0.22881200150E+03  0.47000000000E+01 0. -1.
         -5    1    4    4    0  502 -0.82644088868E+02 -0.49750405565E+02  0.31997692479E+03  0.33423415547E+03  0.47000000000E+01 0.  1.
          5    1    3    3  503    0  0.46076490010E+02  0.14528859853E+03  0.13132147991E+03  0.20124423192E+03  0.47000000000E+01 0.  1.
         -5    1    3    3    0  503  0.38730221869E+02 -0.14759379094E+02  0.75222122236E+02  0.86013528186E+02  0.47000000000E+01 0.  1.
<mgrwt>
<rscale>  0 0.19413994E+03</rscale>
<asrwt>0</asrwt>
<pdfrwt beam="1">  1        1 0.12237235E+00 0.19964158E+03</pdfrwt>
<pdfrwt beam="2">  1       -1 0.84436280E-02 0.19964158E+03</pdfrwt>
<totfact> 0.18346451E+03</totfact>
</mgrwt>
</event>
<event>
 8    1  0.3407580E-004  0.1354530E+03  0.7546771E-02  0.1230368E+00
          2   -1    0    0  501    0  0.00000000000E+00  0.00000000000E+00  0.17426542586E+04  0.17426542586E+04  0.00000000000E+00 0. -1.
         -2   -1    0    0    0  501 -0.00000000000E+00 -0.00000000000E+00 -0.10625886290E+02  0.10625886290E+02  0.00000000000E+00 0.  1.
         25    2    1    2    0    0  0.22337951293E+02  0.47152155828E+02  0.13322098037E+04  0.13390782226E+04  0.12500086052E+03 0.  0.
         23    2    1    2    0    0 -0.22337951293E+02 -0.47152155828E+02  0.39981856860E+03  0.41420192235E+03  0.94794698211E+02 0.  0.
          5    1    3    3  502    0  0.73224780434E+02  0.14458588952E+02  0.73484047503E+03  0.73863626570E+03  0.47000000000E+01 0. -1.
         -5    1    4    4    0  503 -0.43241652645E+02 -0.55551884392E+00  0.87674796046E+02  0.97872922642E+02  0.47000000000E+01 0.  1.
          5    1    4    4  503    0  0.20903701352E+02 -0.46596636984E+02  0.31214377256E+03  0.31632899971E+03  0.47000000000E+01 0. -1.
         -5    1    3    3    0  502 -0.50886829140E+02  0.32693566877E+02  0.59736932868E+03  0.60044195685E+03  0.47000000000E+01 0. -1.
<mgrwt>
<rscale>  0 0.12805705E+03</rscale>
<asrwt>0</asrwt>
<pdfrwt beam="1">  1        2 0.26810043E+00 0.13545304E+03</pdfrwt>
<pdfrwt beam="2">  1       -2 0.16347531E-02 0.13545304E+03</pdfrwt>
<totfact> 0.10322313E+04</totfact>
</mgrwt>
</event>
<event>
 8    1  0.3407580E-004  0.1720074E+03  0.7546771E-02  0.1182158E+00
         -2   -1    0    0    0  501 -0.00000000000E+00  0.00000000000E+00  0.94146172818E+02  0.94146172818E+02  0.00000000000E+00 0.  1.
          2   -1    0    0  501    0  0.00000000000E+00 -0.00000000000E+00 -0.27472203349E+03  0.27472203349E+03  0.00000000000E+00 0. -1.
         25    2    1    2    0    0 -0.57644893038E+02 -0.10314598253E+03 -0.10867054268E+03  0.20345966907E+03  0.12499809073E+03 0.  0.
         23    2    1    2    0    0  0.57644893038E+02  0.10314598253E+03 -0.71905317996E+02  0.16540853724E+03  0.90706019815E+02 0.  0.
          5    1    4    4  502    0 -0.28558408862E+01  0.84310731719E+02 -0.31827835840E+02  0.90285970363E+02  0.47000000000E+01 0. -1.
         -5    1    3    3    0  503  0.41556653815E+01 -0.84933303570E+02 -0.10315461015E+02  0.85787145576E+02  0.47000000000E+01 0.  1.
          5    1    3    3  503    0 -0.61800558419E+02 -0.18212678962E+02 -0.98355081666E+02  0.11767252349E+03  0.47000000000E+01 0.  1.
         -5    1    4    4    0  502  0.60500733924E+02  0.18835250813E+02 -0.40077482156E+02  0.75122566879E+02  0.47000000000E+01 0.  1.
<mgrwt>
<rscale>  0 0.16593159E+03</rscale>
<asrwt>0</asrwt>
<pdfrwt beam="1">  1        2 0.42264928E-01 0.17200741E+03</pdfrwt>
<pdfrwt beam="2">  1       -2 0.14484027E-01 0.17200741E+03</pdfrwt>
<totfact> 0.42501403E+03</totfact>
</mgrwt>
</event>
<event>
 8    1  0.3407580E-004  0.2069687E+03  0.7546771E-02  0.1147922E+00
          1   -1    0    0  501    0  0.00000000000E+00  0.00000000000E+00  0.11354841204E+04  0.11354841204E+04  0.00000000000E+00 0. -1.
         -1   -1    0    0    0  501 -0.00000000000E+00 -0.00000000000E+00 -0.67679716420E+02  0.67679716420E+02  0.00000000000E+00 0.  1.
         25    2    1    2    0    0  0.16430029425E+03  0.14735981581E+02  0.12515687098E+03  0.24186832822E+03  0.12499723996E+03 0.  0.
         23    2    1    2    0    0 -0.16430029425E+03 -0.14735981581E+02  0.94264753300E+03  0.96129550860E+03  0.91065622164E+02 0.  0.
          5    1    4    4  502    0 -0.17782717520E+02 -0.31113824061E+02  0.28659172089E+03  0.28886190398E+03  0.47000000000E+01 0. -1.
         -5    1    4    4    0  502 -0.14651757673E+03  0.16377842480E+02  0.65605581211E+03  0.67243360462E+03  0.47000000000E+01 0.  1.
          5    1    3    3  503    0  0.17568895118E+03  0.31927724892E+02  0.12904294679E+03  0.22036369778E+03  0.47000000000E+01 0.  1.
         -5    1    3    3    0  503 -0.11388656937E+02 -0.17191743311E+02 -0.38860758099E+01  0.21504630434E+02  0.47000000000E+01 0.  1.
<mgrwt>
<rscale>  0 0.20216884E+03</rscale>
<asrwt>0</asrwt>
<pdfrwt beam="1">  1        1 0.17468985E+00 0.20696871E+03</pdfrwt>
<pdfrwt beam="2">  1       -1 0.10412265E-01 0.20696871E+03</pdfrwt>
<totfact> 0.73338748E+02</totfact>
</mgrwt>
</event>
<event>
 8    1  0.3407580E-004  0.1323094E+03  0.7546771E-02  0.1232469E+00
         -2   -1    0    0    0  501 -0.00000000000E+00  0.00000000000E+00  0.12448887750E+02  0.12448887750E+02  0.00000000000E+00 0. -1.
          2   -1    0    0  501    0  0.00000000000E+00 -0.00000000000E+00 -0.12901289717E+04  0.12901289717E+04  0.00000000000E+00 0.  1.
         25    2    1    2    0    0 -0.41279255711E+02  0.13517617241E+02 -0.87022498514E+03  0.88022571222E+03  0.12497630479E+03 0.  0.
         23    2    1    2    0    0  0.41279255711E+02 -0.13517617241E+02 -0.40745509877E+03  0.42235214719E+03  0.10234732921E+03 0.  0.
          5    1    3    3  502    0  0.23830316966E+02  0.46761711054E+02 -0.50390548357E+03  0.50665310421E+03  0.47000000000E+01 0. -1.
         -5    1    4    4    0  503  0.61058309217E+02  0.26088811084E+02 -0.25283041750E+03  0.26144608087E+03  0.47000000000E+01 0.  1.
          5    1    4    4  503    0 -0.19779053506E+02 -0.39606428325E+02 -0.15462468126E+03  0.16090606632E+03  0.47000000000E+01 0. -1.
         -5    1    3    3    0  502 -0.65109572677E+02 -0.33244093813E+02 -0.36631950157E+03  0.37357260801E+03  0.47000000000E+01 0. -1.
<mgrwt>
<rscale>  0 0.12667845E+03</rscale>
<asrwt>0</asrwt>
<pdfrwt beam="1">  1        2 0.19848124E+00 0.13230941E+03</pdfrwt>
<pdfrwt beam="2">  1       -2 0.19152148E-02 0.13230941E+03</pdfrwt>
<totfact> 0.14118538E+04</totfact>
</mgrwt>
</event>
<event>
 8    1  0.3407580E-004  0.1530026E+03  0.7546771E-02  0.1206528E+00
         -1   -1    0    0    0  501 -0.00000000000E+00  0.00000000000E+00  0.79885124268E+02  0.79885124268E+02  0.00000000000E+00 0.  1.
          1   -1    0    0  501    0  0.00000000000E+00 -0.00000000000E+00 -0.24505892808E+03  0.24505892808E+03  0.00000000000E+00 0. -1.
         25    2    1    2    0    0  0.79928944324E+02  0.37380245495E+02 -0.11389479210E+03  0.19074021342E+03  0.12499554574E+03 0.  0.
         23    2    1    2    0    0 -0.79928944324E+02 -0.37380245495E+02 -0.51279011710E+02  0.13420383893E+03  0.87150527516E+02 0.  0.
          5    1    3    3  502    0  0.46950182925E+01  0.61808900347E+02 -0.14878533024E+02  0.63920607818E+02  0.47000000000E+01 0. -1.
         -5    1    4    4    0  503 -0.54731644076E+02 -0.57492767624E+02 -0.78386818073E+01  0.79903104600E+02  0.47000000000E+01 0.  1.
          5    1    4    4  503    0 -0.25197300249E+02  0.20112522129E+02 -0.43440329902E+02  0.54300734325E+02  0.47000000000E+01 0. -1.
         -5    1    3    3    0  502  0.75233926032E+02 -0.24428654853E+02 -0.99016259078E+02  0.12681960561E+03  0.47000000000E+01 0. -1.
<mgrwt>
<rscale>  0 0.14517697E+03</rscale>
<asrwt>0</asrwt>
<pdfrwt beam="1">  1        1 0.37701373E-01 0.15300263E+03</pdfrwt>
<pdfrwt beam="2">  1       -1 0.12290019E-01 0.15300263E+03</pdfrwt>
<totfact> 0.48217902E+03</totfact>
</mgrwt>
</event>
<event>
 8    1  0.3407580E-004  0.1438887E+03  0.7546771E-02  0.1218466E+00
          2   -1    0    0  501    0  0.00000000000E+00  0.00000000000E+00  0.45641656544E+03  0.45641656544E+03  0.00000000000E+00 0. -1.
         -2   -1    0    0    0  501 -0.00000000000E+00 -0.00000000000E+00 -0.38000730689E+02  0.38000730689E+02  0.00000000000E+00 0.  1.
         25    2    1    2    0    0 -0.19230590071E+02 -0.68617983632E+02  0.27301951691E+03  0.30861564853E+03  0.12500287449E+03 0.  0.
         23    2    1    2    0    0  0.19230590071E+02  0.68617983632E+02  0.14539631784E+03  0.18580164760E+03  0.91125845600E+02 0.  0.
          5    1    4    4  502    0 -0.21635357932E+02  0.11812643295E+01  0.22228356916E+01  0.22282618714E+02  0.47000000000E+01 0.  1.
         -5    1    4    4    0  502  0.40865948003E+02  0.67436719303E+02  0.14317348215E+03  0.16351902889E+03  0.47000000000E+01 0. -1.
          5    1    3    3  503    0 -0.53345599969E+02 -0.72775204576E+01  0.20020283724E+03  0.20736919100E+03  0.47000000000E+01 0.  1.
         -5    1    3    3    0  503  0.34115009897E+02 -0.61340463175E+02  0.72816679670E+02  0.10124645752E+03  0.47000000000E+01 0.  1.
<mgrwt>
<rscale>  0 0.13624979E+03</rscale>
<asrwt>0</asrwt>
<pdfrwt beam="1">  1        2 0.70217929E-01 0.14388871E+03</pdfrwt>
<pdfrwt beam="2">  1       -2 0.58462666E-02 0.14388871E+03</pdfrwt>
<totfact> 0.10143070E+04</totfact>
</mgrwt>
</event>
<event>
 8    1  0.3407580E-004  0.1492539E+03  0.7546771E-02  0.1210568E+00
          4   -1    0    0  501    0  0.00000000000E+00  0.00000000000E+00  0.17790468882E+02  0.17790468882E+02  0.00000000000E+00 0.  1.
         -4   -1    0    0    0  501 -0.00000000000E+00 -0.00000000000E+00 -0.10448006862E+04  0.10448006862E+04  0.00000000000E+00 0. -1.
         25    2    1    2    0    0 -0.53264026163E+02 -0.61760387790E+02 -0.52112330749E+03  0.54207586400E+03  0.12500135498E+03 0.  0.
         23    2    1    2    0    0  0.53264026163E+02  0.61760387790E+02 -0.50588690983E+03  0.52051529108E+03  0.91450537033E+02 0.  0.
          5    1    3    3  502    0 -0.60096336885E+02  0.89610889168E+01 -0.37038940440E+03  0.37536951357E+03  0.47000000000E+01 0. -1.
         -5    1    3    3    0  502  0.68323107226E+01 -0.70721476706E+02 -0.15073390308E+03  0.16670635044E+03  0.47000000000E+01 0. -1.
          5    1    4    4  503    0  0.25187962172E+02 -0.16057114554E+02 -0.24312147566E+03  0.24499470667E+03  0.47000000000E+01 0. -1.
         -5    1    4    4    0  503  0.28076063991E+02  0.77817502344E+02 -0.26276543417E+03  0.27552058441E+03  0.47000000000E+01 0.  1.
<mgrwt>
<rscale>  0 0.14207203E+03</rscale>
<asrwt>0</asrwt>
<pdfrwt beam="1">  1        4 0.27369955E-02 0.14925395E+03</pdfrwt>
<pdfrwt beam="2">  1       -4 0.16073855E+00 0.14925395E+03</pdfrwt>
<totfact> 0.28158530E+02</totfact>
</mgrwt>
</event>
<event>
 8    1  0.3407580E-004  0.2286898E+03  0.7546771E-02  0.1131124E+00
         -1   -1    0    0    0  501 -0.00000000000E+00  0.00000000000E+00  0.13144360413E+03  0.13144360413E+03  0.00000000000E+00 0.  1.
          1   -1    0    0  501    0  0.00000000000E+00 -0.00000000000E+00 -0.36637868878E+03  0.36637868878E+03  0.00000000000E+00 0. -1.
         25    2    1    2    0    0  0.19132240594E+03  0.83566536308E+01 -0.10873547436E+03  0.25322407774E+03  0.12499973394E+03 0.  0.
         23    2    1    2    0    0 -0.19132240594E+03 -0.83566536308E+01 -0.12619961028E+03  0.24459821517E+03  0.85016754547E+02 0.  0.
          5    1    3    3  502    0  0.18195786723E+03 -0.22525405772E+02 -0.56985632778E+02  0.19205601187E+03  0.47000000000E+01 0. -1.
         -5    1    3    3    0  502  0.93645387170E+01  0.30882059403E+02 -0.51749841584E+02  0.61168065870E+02  0.47000000000E+01 0. -1.
          5    1    4    4  503    0 -0.17182090653E+03 -0.14787572869E+02 -0.13757436985E+03  0.22065786520E+03  0.47000000000E+01 0. -1.
         -5    1    4    4    0  503 -0.19501499411E+02  0.64309192382E+01  0.11374759572E+02  0.23940349974E+02  0.47000000000E+01 0.  1.
<mgrwt>
<rscale>  0 0.22374100E+03</rscale>
<asrwt>0</asrwt>
<pdfrwt beam="1">  1        1 0.56365952E-01 0.22868981E+03</pdfrwt>
<pdfrwt beam="2">  1       -1 0.20222093E-01 0.22868981E+03</pdfrwt>
<totfact> 0.13406943E+03</totfact>
</mgrwt>
</event>
<event>
 8    1  0.3407580E-004  0.1353620E+03  0.7546771E-02  0.1231961E+00
         -3   -1    0    0    0  501 -0.00000000000E+00  0.00000000000E+00  0.29438315338E+03  0.29438315338E+03  0.00000000000E+00 0.  1.
          3   -1    0    0  501    0  0.00000000000E+00 -0.00000000000E+00 -0.51213916573E+02  0.51213916573E+02  0.00000000000E+00 0. -1.
         25    2    1    2    0    0  0.87164649365E+01  0.51220312290E+02  0.10093518398E+03  0.16885134039E+03  0.12499346637E+03 0.  0.
         23    2    1    2    0    0 -0.87164649365E+01 -0.51220312290E+02  0.14223405283E+03  0.17674572956E+03  0.91153880777E+02 0.  0.
          5    1    4    4  502    0 -0.20979474898E+02  0.47784380379E+01 -0.13541663200E+01  0.22065711036E+02  0.47000000000E+01 0. -1.
         -5    1    3    3    0  503 -0.30485567925E+02 -0.22650228605E+01 -0.15635540629E+02  0.34656317044E+02  0.47000000000E+01 0. -1.
          5    1    3    3  503    0  0.39202032862E+02  0.53485335150E+02  0.11657072461E+03  0.13419502335E+03  0.47000000000E+01 0. -1.
         -5    1    4    4    0  502  0.12263009962E+02 -0.55998750328E+02  0.14358821915E+03  0.15468001852E+03  0.47000000000E+01 0.  1.
<mgrwt>
<rscale>  0 0.12701022E+03</rscale>
<asrwt>0</asrwt>
<pdfrwt beam="1">  1        3 0.78790642E-02 0.13536197E+03</pdfrwt>
<pdfrwt beam="2">  1       -3 0.45289715E-01 0.13536197E+03</pdfrwt>
<totfact> 0.12252904E+03</totfact>
</mgrwt>
</event>
<event>
 8    1  0.3407580E-004  0.1493238E+03  0.7546771E-02  0.1210948E+00
         -2   -1    0    0    0  501 -0.00000000000E+00  0.00000000000E+00  0.42357819745E+02  0.42357819745E+02  0.00000000000E+00 0.  1.
          2   -1    0    0  501    0  0.00000000000E+00 -0.00000000000E+00 -0.53923935449E+03  0.53923935449E+03  0.00000000000E+00 0. -1.
         25    2    1    2    0    0 -0.44813664315E+02 -0.68300641506E+02 -0.14018456694E+03  0.20481529181E+03  0.12499739522E+03 0.  0.
         23    2    1    2    0    0  0.44813664315E+02  0.68300641506E+02 -0.35669696780E+03  0.37678188242E+03  0.89769805291E+02 0.  0.
          5    1    4    4  502    0  0.63832485580E+02  0.57343258081E+02 -0.33392846915E+03  0.34480885716E+03  0.47000000000E+01 0. -1.
         -5    1    3    3    0  503 -0.46897373196E+02 -0.91694420263E+02 -0.56074497365E+02  0.11736127800E+03  0.47000000000E+01 0.  1.
          5    1    3    3  503    0  0.20837088809E+01  0.23393778757E+02 -0.84110069575E+02  0.87454013808E+02  0.47000000000E+01 0.  1.
         -5    1    4    4    0  502 -0.19018821265E+02  0.10957383424E+02 -0.22768498651E+02  0.31973025266E+02  0.47000000000E+01 0.  1.
<mgrwt>
<rscale>  0 0.14178456E+03</rscale>
<asrwt>0</asrwt>
<pdfrwt beam="1">  1        2 0.82959900E-01 0.14932378E+03</pdfrwt>
<pdfrwt beam="2">  1       -2 0.65165877E-02 0.14932378E+03</pdfrwt>
<totfact> 0.71740066E+03</totfact>
</mgrwt>
</event>
<event>
 8    1  0.3407580E-004  0.1297745E+03  0.7546771E-02  0.1241343E+00
          2   -1    0    0  501    0  0.00000000000E+00  0.00000000000E+00  0.44734827075E+02  0.44734827075E+02  0.00000000000E+00 0. -1.
         -2   -1    0    0    0  501 -0.00000000000E+00 -0.00000000000E+00 -0.31272024971E+03  0.31272024971E+03  0.00000000000E+00 0.  1.
         25    2    1    2    0    0 -0.34808225116E+02 -0.21546788854E+01 -0.19817062575E+03  0.23688188238E+03  0.12500069645E+03 0.  0.
         23    2    1    2    0    0  0.34808225116E+02  0.21546788854E+01 -0.69814796884E+02  0.12057319440E+03  0.91910468214E+02 0.  0.
          5    1    4    4  502    0  0.23049920881E+02 -0.40726713685E+02 -0.14028571425E+02  0.49080086353E+02  0.47000000000E+01 0. -1.
         -5    1    4    4    0  502  0.11758304235E+02  0.42881392571E+02 -0.55786225460E+02  0.71493108048E+02  0.47000000000E+01 0.  1.
          5    1    3    3  503    0 -0.43483760012E+02 -0.42274859968E+02 -0.38583056095E+02  0.72032932661E+02  0.47000000000E+01 0. -1.
         -5    1    3    3    0  503  0.86755348959E+01  0.40120181083E+02 -0.15958756966E+03  0.16484894972E+03  0.47000000000E+01 0. -1.
<mgrwt>
<rscale>  0 0.12106972E+03</rscale>
<asrwt>0</asrwt>
<pdfrwt beam="1">  1        2 0.68822809E-02 0.12977453E+03</pdfrwt>
<pdfrwt beam="2">  1       -2 0.48110809E-01 0.12977453E+03</pdfrwt>
<totfact> 0.40692446E+03</totfact>
</mgrwt>
</event>
<event>
 8    1  0.3407580E-004  0.1895883E+03  0.7546771E-02  0.1163794E+00
         -2   -1    0    0    0  501 -0.00000000000E+00  0.00000000000E+00  0.23369581278E+03  0.23369581278E+03  0.00000000000E+00 0.  1.
          2   -1    0    0  501    0  0.00000000000E+00 -0.00000000000E+00 -0.13811329231E+03  0.13811329231E+03  0.00000000000E+00 0. -1.
         25    2    1    2    0    0 -0.71558576709E+02 -0.12330725429E+03  0.62662855329E+02  0.19967564490E+03  0.12497368070E+03 0.  0.
         23    2    1    2    0    0  0.71558576709E+02  0.12330725429E+03  0.32919665146E+02  0.17213346019E+03  0.90669261073E+02 0.  0.
          5    1    3    3  502    0 -0.25900541196E+02 -0.39701853189E+02 -0.38051111943E+02  0.60967633224E+02  0.47000000000E+01 0.  1.
         -5    1    3    3    0  502 -0.45658035513E+02 -0.83605401098E+02  0.10071396727E+03  0.13870801168E+03  0.47000000000E+01 0.  1.
          5    1    4    4  503    0  0.39799269866E+02  0.10082836855E+03 -0.15757809733E+02  0.10963913696E+03  0.47000000000E+01 0. -1.
         -5    1    4    4    0  503  0.31759306843E+02  0.22478885736E+02  0.48677474879E+02  0.62494323228E+02  0.47000000000E+01 0.  1.
<mgrwt>
<rscale>  0 0.18420536E+03</rscale>
<asrwt>0</asrwt>
<pdfrwt beam="1">  1        2 0.21248199E-01 0.18958832E+03</pdfrwt>
<pdfrwt beam="2">  1       -2 0.35953202E-01 0.18958832E+03</pdfrwt>
<totfact> 0.18638394E+03</totfact>
</mgrwt>
</event>
<event>
 8    1  0.3407580E-004  0.1368907E+03  0.7546771E-02  0.1229539E+00
          2   -1    0    0  501    0  0.00000000000E+00  0.00000000000E+00  0.10550621082E+03  0.10550621082E+03  0.00000000000E+00 0. -1.
         -2   -1    0    0    0  501 -0.00000000000E+00 -0.00000000000E+00 -0.14557844071E+03  0.14557844071E+03  0.00000000000E+00 0.  1.
         25    2    1    2    0    0  0.36388624077E+02  0.42304263850E+02  0.76286783969E+00  0.13689286112E+03  0.12500116302E+03 0.  0.
         23    2    1    2    0    0 -0.36388624077E+02 -0.42304263850E+02 -0.40835097726E+02  0.11419179042E+03  0.90876163485E+02 0.  0.
          5    1    4    4  502    0 -0.28674108992E+02 -0.62151539414E+02 -0.81144557309E+00  0.68613167992E+02  0.47000000000E+01 0. -1.
         -5    1    4    4    0  502 -0.77145150846E+01  0.19847275564E+02 -0.40023652153E+02  0.45578622423E+02  0.47000000000E+01 0.  1.
          5    1    3    3  503    0  0.88812733318E+01 -0.28928451490E+02 -0.39865494382E+02  0.50270070260E+02  0.47000000000E+01 0. -1.
         -5    1    3    3    0  503  0.27507350745E+02  0.71232715340E+02  0.40628362221E+02  0.86622790860E+02  0.47000000000E+01 0. -1.
<mgrwt>
<rscale>  0 0.12860605E+03</rscale>
<asrwt>0</asrwt>
<pdfrwt beam="1">  1        2 0.16231725E-01 0.13689074E+03</pdfrwt>
<pdfrwt beam="2">  1       -2 0.22396683E-01 0.13689074E+03</pdfrwt>
<totfact> 0.58212180E+03</totfact>
</mgrwt>
</event>
<event>
 8    1  0.3407580E-004  0.1546451E+03  0.7546771E-02  0.1205085E+00
          1   -1    0    0  501    0  0.00000000000E+00  0.00000000000E+00  0.43797087839E+02  0.43797087839E+02  0.00000000000E+00 0. -1.
         -1   -1    0    0    0  501 -0.00000000000E+00 -0.00000000000E+00 -0.52392495195E+03  0.52392495195E+03  0.00000000000E+00 0.  1.
         25    2    1    2    0    0  0.83008494055E+02 -0.37414877218E+02 -0.15138873871E+03  0.21641083356E+03  0.12499926220E+03 0.  0.
         23    2    1    2    0    0 -0.83008494055E+02  0.37414877218E+02 -0.32873912540E+03  0.35131120623E+03  0.84023020259E+02 0.  0.
          5    1    4    4  502    0 -0.36171601028E+02  0.25882726165E+02 -0.44938908979E+02  0.63402648012E+02  0.47000000000E+01 0. -1.
         -5    1    4    4    0  502 -0.46836893027E+02  0.11532151053E+02 -0.28380021642E+03  0.28790855822E+03  0.47000000000E+01 0.  1.
          5    1    3    3  503    0  0.24365194997E+02 -0.68446435989E+02 -0.31543314095E+02  0.79345119515E+02  0.47000000000E+01 0.  1.
         -5    1    3    3    0  503  0.58643299058E+02  0.31031558771E+02 -0.11984542462E+03  0.13706571404E+03  0.47000000000E+01 0.  1.
<mgrwt>
<rscale>  0 0.14630735E+03</rscale>
<asrwt>0</asrwt>
<pdfrwt beam="1">  1        1 0.67380140E-02 0.15464507E+03</pdfrwt>
<pdfrwt beam="2">  1       -1 0.80603833E-01 0.15464507E+03</pdfrwt>
<totfact> 0.17312456E+03</totfact>
</mgrwt>
</event>
<event>
 8    1  0.3407580E-004  0.1611946E+03  0.7546771E-02  0.1195810E+00
         -1   -1    0    0    0  501 -0.00000000000E+00  0.00000000000E+00  0.47444447731E+02  0.47444447731E+02  0.00000000000E+00 0.  1.
          1   -1    0    0  501    0  0.00000000000E+00 -0.00000000000E+00 -0.68433923867E+03  0.68433923867E+03  0.00000000000E+00 0. -1.
         25    2    1    2    0    0 -0.89785485955E+02 -0.47889620018E+02 -0.12869632481E+03  0.20626787564E+03  0.12501537228E+03 0.  0.
         23    2    1    2    0    0  0.89785485955E+02  0.47889620018E+02 -0.50819846613E+03  0.52551581077E+03  0.86869656366E+02 0.  0.
          5    1    4    4  502    0  0.48898944859E+02  0.13681561378E+02 -0.41438927897E+03  0.41751509728E+03  0.47000000000E+01 0. -1.
         -5    1    3    3    0  503 -0.18440489323E+02 -0.49067288461E+02 -0.12388100068E+03  0.13459659273E+03  0.47000000000E+01 0.  1.
          5    1    3    3  503    0 -0.71344996632E+02  0.11776684425E+01 -0.48153241293E+01  0.71671282909E+02  0.47000000000E+01 0.  1.
         -5    1    4    4    0  502  0.40886541096E+02  0.34208058640E+02 -0.93809187157E+02  0.10800071349E+03  0.47000000000E+01 0.  1.
<mgrwt>
<rscale>  0 0.15385905E+03</rscale>
<asrwt>0</asrwt>
<pdfrwt beam="1">  1        1 0.10528295E+00 0.16119458E+03</pdfrwt>
<pdfrwt beam="2">  1       -1 0.72991463E-02 0.16119458E+03</pdfrwt>
<totfact> 0.28436168E+03</totfact>
</mgrwt>
</event>
<event>
 8    1  0.3407580E-004  0.2135917E+03  0.7546771E-02  0.1142428E+00
          1   -1    0    0  501    0  0.00000000000E+00  0.00000000000E+00  0.74321229507E+03  0.74321229507E+03  0.00000000000E+00 0. -1.
         -1   -1    0    0    0  501 -0.00000000000E+00 -0.00000000000E+00 -0.56307762450E+02  0.56307762450E+02  0.00000000000E+00 0.  1.
         25    2    1    2    0    0  0.17107984574E+03  0.26989869014E+02  0.36515608333E+03  0.42303707481E+03  0.12499853929E+03 0.  0.
         23    2    1    2    0    0 -0.17107984574E+03 -0.26989869014E+02  0.32174844929E+03  0.37648298271E+03  0.90667552096E+02 0.  0.
          5    1    3    3  502    0  0.57753046221E+02 -0.85143549257E+01  0.26786211988E+02  0.64401084931E+02  0.47000000000E+01 0. -1.
         -5    1    4    4    0  503 -0.12455927373E+03 -0.84282137679E+01  0.13880360469E+03  0.18674736446E+03  0.47000000000E+01 0.  1.
          5    1    4    4  503    0 -0.46520572007E+02 -0.18561655246E+02  0.18294484460E+03  0.18973561825E+03  0.47000000000E+01 0. -1.
         -5    1    3    3    0  502  0.11332679951E+03  0.35504223940E+02  0.33836987134E+03  0.35863598988E+03  0.47000000000E+01 0. -1.
<mgrwt>
<rscale>  0 0.20891558E+03</rscale>
<asrwt>0</asrwt>
<pdfrwt beam="1">  1        1 0.11434035E+00 0.21359167E+03</pdfrwt>
<pdfrwt beam="2">  1       -1 0.86627332E-02 0.21359167E+03</pdfrwt>
<totfact> 0.19557099E+03</totfact>
</mgrwt>
</event>
<event>
 8    1  0.3407580E-004  0.1710088E+03  0.7546771E-02  0.1184764E+00
          1   -1    0    0  501    0  0.00000000000E+00  0.00000000000E+00  0.92546684955E+03  0.92546684955E+03  0.00000000000E+00 0. -1.
         -1   -1    0    0    0  501 -0.00000000000E+00 -0.00000000000E+00 -0.28997070096E+02  0.28997070096E+02  0.00000000000E+00 0.  1.
         25    2    1    2    0    0  0.11617153203E+03  0.11148904596E+02  0.62057227149E+03  0.64370331106E+03  0.12499554232E+03 0.  0.
         23    2    1    2    0    0 -0.11617153203E+03 -0.11148904596E+02  0.27589750796E+03  0.31076060858E+03  0.82659530722E+02 0.  0.
          5    1    3    3  502    0 -0.34649510263E+01  0.42753631171E+02  0.10611379074E+03  0.11455175882E+03  0.47000000000E+01 0.  1.
         -5    1    4    4    0  503 -0.81893129645E+02 -0.12580757558E+02  0.93123319190E+02  0.12473492983E+03  0.47000000000E+01 0.  1.
          5    1    4    4  503    0 -0.34278402386E+02  0.14318529623E+01  0.18277418876E+03  0.18602567874E+03  0.47000000000E+01 0. -1.
         -5    1    3    3    0  502  0.11963648306E+03 -0.31604726575E+02  0.51445848076E+03  0.52915155224E+03  0.47000000000E+01 0.  1.
<mgrwt>
<rscale>  0 0.16353387E+03</rscale>
<asrwt>0</asrwt>
<pdfrwt beam="1">  1        1 0.14237949E+00 0.17100880E+03</pdfrwt>
<pdfrwt beam="2">  1       -1 0.44610884E-02 0.17100880E+03</pdfrwt>
<totfact> 0.37589429E+03</totfact>
</mgrwt>
</event>
<event>
 8    1  0.3407580E-004  0.1275583E+03  0.7546771E-02  0.1242552E+00
          2   -1    0    0  501    0  0.00000000000E+00  0.00000000000E+00  0.12793084088E+04  0.12793084088E+04  0.00000000000E+00 0. -1.
         -2   -1    0    0    0  501 -0.00000000000E+00 -0.00000000000E+00 -0.13578803882E+02  0.13578803882E+02  0.00000000000E+00 0.  1.
         25    2    1    2    0    0 -0.78442367138E+01 -0.24178656549E+02  0.10084824197E+04  0.10165175403E+04  0.12499991820E+03 0.  0.
         23    2    1    2    0    0  0.78442367138E+01  0.24178656549E+02  0.25724718521E+03  0.27636967231E+03  0.97764727739E+02 0.  0.
          5    1    3    3  502    0 -0.35380445236E+02 -0.67273324280E+02  0.58870378815E+03  0.59360906011E+03  0.47000000000E+01 0.  1.
         -5    1    4    4    0  503  0.28141325455E+02 -0.24874061571E+02  0.16975638036E+03  0.17392519027E+03  0.47000000000E+01 0.  1.
          5    1    4    4  503    0 -0.20297088741E+02  0.49052718120E+02  0.87490804848E+02  0.10244448203E+03  0.47000000000E+01 0. -1.
         -5    1    3    3    0  502  0.27536208522E+02  0.43094667730E+02  0.41977863152E+03  0.42290848023E+03  0.47000000000E+01 0.  1.
<mgrwt>
<rscale>  0 0.12033121E+03</rscale>
<asrwt>0</asrwt>
<pdfrwt beam="1">  1        2 0.19681658E+00 0.12755830E+03</pdfrwt>
<pdfrwt beam="2">  1       -2 0.20890478E-02 0.12755830E+03</pdfrwt>
<totfact> 0.12589772E+04</totfact>
</mgrwt>
</event>
<event>
 8    1  0.3407580E-004  0.2337576E+03  0.7546771E-02  0.1126926E+00
         -2   -1    0    0    0  501 -0.00000000000E+00  0.00000000000E+00  0.10774934897E+03  0.10774934897E+03  0.00000000000E+00 0.  1.
          2   -1    0    0  501    0  0.00000000000E+00 -0.00000000000E+00 -0.47509583789E+03  0.47509583789E+03  0.00000000000E+00 0. -1.
         25    2    1    2    0    0  0.11073258293E+03  0.16358283024E+03 -0.16894106559E+03  0.28841583670E+03  0.12498625501E+03 0.  0.
         23    2    1    2    0    0 -0.11073258293E+03 -0.16358283024E+03 -0.19840542333E+03  0.29442935016E+03  0.91120156696E+02 0.  0.
          5    1    3    3  502    0  0.10977533854E+03  0.10708986964E+03 -0.58374028826E+02  0.16415992926E+03  0.47000000000E+01 0.  1.
         -5    1    4    4    0  503 -0.63919367653E+02 -0.26842566061E+02 -0.89984516961E+02  0.11369042267E+03  0.47000000000E+01 0.  1.
          5    1    4    4  503    0 -0.46813215280E+02 -0.13674026418E+03 -0.10842090637E+03  0.18073892749E+03  0.47000000000E+01 0. -1.
         -5    1    3    3    0  502  0.95724438953E+00  0.56492960597E+02 -0.11056703677E+03  0.12425590744E+03  0.47000000000E+01 0.  1.
<mgrwt>
<rscale>  0 0.22959340E+03</rscale>
<asrwt>0</asrwt>
<pdfrwt beam="1">  1        2 0.73091667E-01 0.23375759E+03</pdfrwt>
<pdfrwt beam="2">  1       -2 0.16576823E-01 0.23375759E+03</pdfrwt>
<totfact> 0.19006839E+03</totfact>
</mgrwt>
</event>
<event>
 8    1  0.3407580E-004  0.3035499E+03  0.7546771E-02  0.1084974E+00
         -1   -1    0    0    0  501 -0.00000000000E+00  0.00000000000E+00  0.33481766113E+03  0.33481766113E+03  0.00000000000E+00 0.  1.
          1   -1    0    0  501    0  0.00000000000E+00 -0.00000000000E+00 -0.27365659899E+03  0.27365659899E+03  0.00000000000E+00 0. -1.
         25    2    1    2    0    0 -0.12124139845E+03 -0.24863421447E+03  0.86720232610E+02  0.31569436247E+03  0.12499632974E+03 0.  0.
         23    2    1    2    0    0  0.12124139845E+03  0.24863421447E+03 -0.25559170470E+02  0.29277989765E+03  0.92457276454E+02 0.  0.
          5    1    4    4  502    0 -0.12076588430E+02  0.54276180561E+02 -0.82813491209E+01  0.56412928551E+02  0.47000000000E+01 0. -1.
         -5    1    4    4    0  502  0.13331798688E+03  0.19435803391E+03 -0.17277821350E+02  0.23636696910E+03  0.47000000000E+01 0.  1.
          5    1    3    3  503    0 -0.14152762436E+03 -0.19728538916E+03  0.92755247011E+02  0.25995618685E+03  0.47000000000E+01 0.  1.
         -5    1    3    3    0  503  0.20286225915E+02 -0.51348825310E+02 -0.60350144014E+01  0.55738175619E+02  0.47000000000E+01 0.  1.
<mgrwt>
<rscale>  0 0.30053327E+03</rscale>
<asrwt>0</asrwt>
<pdfrwt beam="1">  1        1 0.42101015E-01 0.30354988E+03</pdfrwt>
<pdfrwt beam="2">  1       -1 0.51510410E-01 0.30354988E+03</pdfrwt>
<totfact> 0.38420923E+02</totfact>
</mgrwt>
</event>
<event>
 8    1  0.3407580E-004  0.1336669E+03  0.7546771E-02  0.1234839E+00
         -1   -1    0    0    0  501 -0.00000000000E+00  0.00000000000E+00  0.34056536032E+03  0.34056536032E+03  0.00000000000E+00 0.  1.
          1   -1    0    0  501    0  0.00000000000E+00 -0.00000000000E+00 -0.47752541034E+02  0.47752541034E+02  0.00000000000E+00 0. -1.
         25    2    1    2    0    0  0.16805954782E+02  0.44222252011E+02  0.23526227275E+03  0.27058301313E+03  0.12501512839E+03 0.  0.
         23    2    1    2    0    0 -0.16805954782E+02 -0.44222252011E+02  0.57550546532E+02  0.11773488822E+03  0.91166829541E+02 0.  0.
          5    1    3    3  502    0  0.57068483601E+02  0.16404731148E+02  0.20353394851E+03  0.21207094384E+03  0.47000000000E+01 0.  1.
         -5    1    3    3    0  502 -0.40262528819E+02  0.27817520863E+02  0.31728324238E+02  0.58512069292E+02  0.47000000000E+01 0.  1.
          5    1    4    4  503    0 -0.50893945459E+02 -0.43970801052E+02  0.30674835812E+02  0.74071995934E+02  0.47000000000E+01 0. -1.
         -5    1    4    4    0  503  0.34087990677E+02 -0.25145095879E+00  0.26875710720E+02  0.43662892285E+02  0.47000000000E+01 0.  1.
<mgrwt>
<rscale>  0 0.12514730E+03</rscale>
<asrwt>0</asrwt>
<pdfrwt beam="1">  1        1 0.73465450E-02 0.13366686E+03</pdfrwt>
<pdfrwt beam="2">  1       -1 0.52394669E-01 0.13366686E+03</pdfrwt>
<totfact> 0.35311124E+03</totfact>
</mgrwt>
</event>
<event>
 8    1  0.3407580E-004  0.1284195E+03  0.7546771E-02  0.1244862E+00
          2   -1    0    0  501    0  0.00000000000E+00  0.00000000000E+00  0.21718424744E+03  0.21718424744E+03  0.00000000000E+00 0. -1.
         -2   -1    0    0    0  501 -0.00000000000E+00 -0.00000000000E+00 -0.57330779210E+02  0.57330779210E+02  0.00000000000E+00 0.  1.
         25    2    1    2    0    0 -0.74541242294E+01 -0.28435069261E+02  0.98695397752E+02  0.16196404359E+03  0.12500981060E+03 0.  0.
         23    2    1    2    0    0  0.74541242294E+01  0.28435069261E+02  0.61158070475E+02  0.11255098306E+03  0.89795863327E+02 0.  0.
          5    1    4    4  502    0  0.40594977374E+02  0.37921987099E+02  0.52767012758E+02  0.76762470837E+02  0.47000000000E+01 0. -1.
         -5    1    4    4    0  502 -0.33140853145E+02 -0.94869178376E+01  0.83910577171E+01  0.35788512219E+02  0.47000000000E+01 0.  1.
          5    1    3    3  503    0  0.54727608972E+01  0.23724162469E+02 -0.19823668571E+02  0.31746729475E+02  0.47000000000E+01 0.  1.
         -5    1    3    3    0  503 -0.12926885127E+02 -0.52159231730E+02  0.11851906632E+03  0.13021731412E+03  0.47000000000E+01 0.  1.
<mgrwt>
<rscale>  0 0.11893617E+03</rscale>
<asrwt>0</asrwt>
<pdfrwt beam="1">  1        2 0.33412961E-01 0.12841951E+03</pdfrwt>
<pdfrwt beam="2">  1       -2 0.88201200E-02 0.12841951E+03</pdfrwt>
<totfact> 0.11812524E+04</totfact>
</mgrwt>
</event>
<event>
 8    1  0.3407580E-004  0.1327190E+03  0.7546771E-02  0.1236403E+00
          3   -1    0    0  501    0  0.00000000000E+00  0.00000000000E+00  0.69176281221E+03  0.69176281221E+03  0.00000000000E+00 0. -1.
         -3   -1    0    0    0  501 -0.00000000000E+00 -0.00000000000E+00 -0.19865243008E+02  0.19865243008E+02  0.00000000000E+00 0.  1.
         25    2    1    2    0    0 -0.29575453827E+02  0.33379528956E+02  0.36966290685E+03  0.39276581483E+03  0.12500168071E+03 0.  0.
         23    2    1    2    0    0  0.29575453827E+02 -0.33379528956E+02  0.30223466236E+03  0.31886224039E+03  0.91315041431E+02 0.  0.
          5    1    4    4  502    0 -0.83210188703E+01 -0.29383044944E+02  0.25981806590E+03  0.26164884875E+03  0.47000000000E+01 0. -1.
         -5    1    4    4    0  502  0.37896472697E+02 -0.39964840114E+01  0.42416596459E+02  0.57213391636E+02  0.47000000000E+01 0.  1.
          5    1    3    3  503    0 -0.59865236269E+02  0.31429159999E+02  0.96740052629E+02  0.11812013543E+03  0.47000000000E+01 0. -1.
         -5    1    3    3    0  503  0.30289782443E+02  0.19503689568E+01  0.27292285422E+03  0.27464567940E+03  0.47000000000E+01 0. -1.
<mgrwt>
<rscale>  0 0.12415044E+03</rscale>
<asrwt>0</asrwt>
<pdfrwt beam="1">  1        3 0.10642503E+00 0.13271895E+03</pdfrwt>
<pdfrwt beam="2">  1       -3 0.30561918E-02 0.13271895E+03</pdfrwt>
<totfact> 0.89564217E+02</totfact>
</mgrwt>
</event>
<event>
 8    1  0.3407580E-004  0.2239840E+03  0.7546771E-02  0.1134077E+00
          4   -1    0    0  501    0  0.00000000000E+00  0.00000000000E+00  0.52265127432E+02  0.52265127432E+02  0.00000000000E+00 0. -1.
         -4   -1    0    0    0  501 -0.00000000000E+00 -0.00000000000E+00 -0.90448761951E+03  0.90448761951E+03  0.00000000000E+00 0.  1.
         25    2    1    2    0    0  0.17573996628E+03 -0.60482617072E+02 -0.50163886213E+03  0.54937273448E+03  0.12500468259E+03 0.  0.
         23    2    1    2    0    0 -0.17573996628E+03  0.60482617072E+02 -0.35058362995E+03  0.40738001247E+03  0.92232913065E+02 0.  0.
          5    1    3    3  502    0  0.37392796698E+02 -0.11790628063E+02 -0.16976330794E+02  0.42982856609E+02  0.47000000000E+01 0.  1.
         -5    1    3    3    0  502  0.13834716958E+03 -0.48691989008E+02 -0.48466253134E+03  0.50638987787E+03  0.47000000000E+01 0.  1.
          5    1    4    4  503    0 -0.91706666457E+02 -0.15482714910E+02 -0.13854672173E+03  0.16693445192E+03  0.47000000000E+01 0. -1.
         -5    1    4    4    0  503 -0.84033299825E+02  0.75965331982E+02 -0.21203690821E+03  0.24044556055E+03  0.47000000000E+01 0.  1.
<mgrwt>
<rscale>  0 0.21973991E+03</rscale>
<asrwt>0</asrwt>
<pdfrwt beam="1">  1        4 0.80407892E-02 0.22398405E+03</pdfrwt>
<pdfrwt beam="2">  1       -4 0.13915193E+00 0.22398405E+03</pdfrwt>
<totfact> 0.75869966E+01</totfact>
</mgrwt>
</event>
<event>
 8    1  0.3407580E-004  0.1459427E+03  0.7546771E-02  0.1215397E+00
          1   -1    0    0  501    0  0.00000000000E+00  0.00000000000E+00  0.45868159850E+02  0.45868159850E+02  0.00000000000E+00 0. -1.
         -1   -1    0    0    0  501 -0.00000000000E+00 -0.00000000000E+00 -0.50704901392E+03  0.50704901392E+03  0.00000000000E+00 0.  1.
         25    2    1    2    0    0  0.74875273950E+02 -0.80993893411E+01 -0.11117339229E+03  0.18346333845E+03  0.12500946623E+03 0.  0.
         23    2    1    2    0    0 -0.74875273950E+02  0.80993893411E+01 -0.35000746178E+03  0.36945383531E+03  0.91208587162E+02 0.  0.
          5    1    4    4  502    0 -0.52766756339E+01 -0.29282797263E+02 -0.17239143840E+03  0.17500349584E+03  0.47000000000E+01 0. -1.
         -5    1    4    4    0  502 -0.69598598316E+02  0.37382186604E+02 -0.17761602337E+03  0.19445033947E+03  0.47000000000E+01 0.  1.
          5    1    3    3  503    0  0.10561662209E+02 -0.47169390405E+02  0.68094355557E+00  0.48570091455E+02  0.47000000000E+01 0.  1.
         -5    1    3    3    0  503  0.64313611740E+02  0.39070001064E+02 -0.11185433585E+03  0.13489324700E+03  0.47000000000E+01 0.  1.
<mgrwt>
<rscale>  0 0.13847378E+03</rscale>
<asrwt>0</asrwt>
<pdfrwt beam="1">  1        1 0.70566400E-02 0.14594271E+03</pdfrwt>
<pdfrwt beam="2">  1       -1 0.78007540E-01 0.14594271E+03</pdfrwt>
<totfact> 0.17349709E+03</totfact>
</mgrwt>
</event>
<event>
 8    1  0.3407580E-004  0.1483264E+03  0.7546771E-02  0.1211570E+00
         -1   -1    0    0    0  501 -0.00000000000E+00  0.00000000000E+00  0.47139852814E+02  0.47139852814E+02  0.00000000000E+00 0.  1.
          1   -1    0    0  501    0  0.00000000000E+00 -0.00000000000E+00 -0.53319889821E+03  0.53319889821E+03  0.00000000000E+00 0. -1.
         25    2    1    2    0    0 -0.70292844295E+02  0.37874057694E+02 -0.41094138356E+03  0.43689076434E+03  0.12500076413E+03 0.  0.
         23    2    1    2    0    0  0.70292844295E+02 -0.37874057694E+02 -0.75117661829E+02  0.14344798668E+03  0.92515585494E+02 0.  0.
          5    1    3    3  502    0 -0.19357892328E+02 -0.29848966987E+02 -0.30494216110E+02  0.47092207867E+02  0.47000000000E+01 0.  1.
         -5    1    4    4    0  503  0.50446581525E+02 -0.44264049951E+02 -0.20392795831E+01  0.67308338019E+02  0.47000000000E+01 0.  1.
          5    1    4    4  503    0  0.19846262769E+02  0.63899922570E+01 -0.73078382246E+02  0.76139648663E+02  0.47000000000E+01 0. -1.
         -5    1    3    3    0  502 -0.50934951966E+02  0.67723024681E+02 -0.38044716745E+03  0.38979855647E+03  0.47000000000E+01 0.  1.
<mgrwt>
<rscale>  0 0.14131500E+03</rscale>
<asrwt>0</asrwt>
<pdfrwt beam="1">  1        1 0.82030602E-01 0.14832639E+03</pdfrwt>
<pdfrwt beam="2">  1       -1 0.72522849E-02 0.14832639E+03</pdfrwt>
<totfact> 0.40317924E+03</totfact>
</mgrwt>
</event>
<event>
 8    1  0.3407580E-004  0.2041531E+03  0.7546771E-02  0.1150389E+00
          2   -1    0    0  501    0  0.00000000000E+00  0.00000000000E+00  0.14932504383E+03  0.14932504383E+03  0.00000000000E+00 0. -1.
         -2   -1    0    0    0  501 -0.00000000000E+00 -0.00000000000E+00 -0.27071760437E+03  0.27071760437E+03  0.00000000000E+00 0.  1.
         25    2    1    2    0    0  0.27603842620E+02 -0.15903408993E+03 -0.11597941842E+03  0.23479714341E+03  0.12499863667E+03 0.  0.
         23    2    1    2    0    0 -0.27603842620E+02  0.15903408993E+03 -0.54131421201E+01  0.18524550478E+03  0.90734673894E+02 0.  0.
          5    1    4    4  502    0  0.30929078901E+02  0.83126345966E+02  0.33120593323E+01  0.88880014921E+02  0.47000000000E+01 0. -1.
         -5    1    3    3    0  503 -0.92682951665E+01 -0.10451604222E+03 -0.43462393868E+01  0.10512128316E+03  0.47000000000E+01 0. -1.
          5    1    3    3  503    0  0.36872137787E+02 -0.54518047711E+02 -0.11163317903E+03  0.12967586025E+03  0.47000000000E+01 0. -1.
         -5    1    4    4    0  502 -0.58532921521E+02  0.75907743963E+02 -0.87252014524E+01  0.96365489859E+02  0.47000000000E+01 0.  1.
<mgrwt>
<rscale>  0 0.19923125E+03</rscale>
<asrwt>0</asrwt>
<pdfrwt beam="1">  1        2 0.22973084E-01 0.20415306E+03</pdfrwt>
<pdfrwt beam="2">  1       -2 0.41648862E-01 0.20415306E+03</pdfrwt>
<totfact> 0.12945512E+03</totfact>
</mgrwt>
</event>
<event>
 8    1  0.3407580E-004  0.1426433E+03  0.7546771E-02  0.1220234E+00
         -1   -1    0    0    0  501 -0.00000000000E+00  0.00000000000E+00  0.10983068670E+03  0.10983068670E+03  0.00000000000E+00 0. -1.
          1   -1    0    0  501    0  0.00000000000E+00 -0.00000000000E+00 -0.15397617644E+03  0.15397617644E+03  0.00000000000E+00 0.  1.
         25    2    1    2    0    0 -0.64590524002E+02  0.23453084464E+02 -0.44421601781E+02  0.14940007280E+03  0.12500048034E+03 0.  0.
         23    2    1    2    0    0  0.64590524002E+02 -0.23453084464E+02  0.27611203582E+00  0.11440679034E+03  0.91470511517E+02 0.  0.
          5    1    4    4  502    0  0.45369582269E+02 -0.53368613369E+02  0.20621670731E+02  0.73170698999E+02  0.47000000000E+01 0. -1.
         -5    1    3    3    0  503 -0.91274259799E+02  0.26263203905E+02  0.25202142723E+01  0.95127219349E+02  0.47000000000E+01 0. -1.
          5    1    3    3  503    0  0.26683735796E+02 -0.28101194415E+01 -0.46941816053E+02  0.54272853451E+02  0.47000000000E+01 0. -1.
         -5    1    4    4    0  502  0.19220941733E+02  0.29915528906E+02 -0.20345558695E+02  0.41236091345E+02  0.47000000000E+01 0.  1.
<mgrwt>
<rscale>  0 0.13498985E+03</rscale>
<asrwt>0</asrwt>
<pdfrwt beam="1">  1        1 0.23688642E-01 0.14264327E+03</pdfrwt>
<pdfrwt beam="2">  1       -1 0.16897029E-01 0.14264327E+03</pdfrwt>
<totfact> 0.52105278E+03</totfact>
</mgrwt>
</event>
<event>
 8    1  0.3407580E-004  0.1946717E+03  0.7546771E-02  0.1158876E+00
         -1   -1    0    0    0  501 -0.00000000000E+00  0.00000000000E+00  0.13345773228E+03  0.13345773228E+03  0.00000000000E+00 0.  1.
          1   -1    0    0  501    0  0.00000000000E+00 -0.00000000000E+00 -0.27187317040E+03  0.27187317040E+03  0.00000000000E+00 0. -1.
         25    2    1    2    0    0  0.46317352789E+02 -0.14186772600E+03 -0.23653565901E+02  0.19610346755E+03  0.12500131982E+03 0.  0.
         23    2    1    2    0    0 -0.46317352789E+02  0.14186772600E+03 -0.11476187222E+03  0.20922743512E+03  0.91291201338E+02 0.  0.
          5    1    4    4  502    0 -0.62047853626E+02  0.58433806565E+02 -0.81189563441E+02  0.11780611657E+03  0.47000000000E+01 0. -1.
         -5    1    3    3    0  503 -0.36982281771E+02 -0.76566344563E+02 -0.29153735571E+02  0.90011802461E+02  0.47000000000E+01 0. -1.
          5    1    3    3  503    0  0.83299634559E+02 -0.65301381441E+02  0.55001696691E+01  0.10609166509E+03  0.47000000000E+01 0. -1.
         -5    1    4    4    0  502  0.15730500837E+02  0.83433919438E+02 -0.33572308779E+02  0.91421318554E+02  0.47000000000E+01 0.  1.
<mgrwt>
<rscale>  0 0.18954078E+03</rscale>
<asrwt>0</asrwt>
<pdfrwt beam="1">  1        1 0.41826642E-01 0.19467172E+03</pdfrwt>
<pdfrwt beam="2">  1       -1 0.20531959E-01 0.19467172E+03</pdfrwt>
<totfact> 0.18976261E+03</totfact>
</mgrwt>
</event>
<event>
 8    1  0.3407580E-004  0.1392580E+03  0.7546771E-02  0.1224691E+00
          2   -1    0    0  501    0  0.00000000000E+00  0.00000000000E+00  0.61097072084E+02  0.61097072084E+02  0.00000000000E+00 0. -1.
         -2   -1    0    0    0  501 -0.00000000000E+00 -0.00000000000E+00 -0.32801035705E+03  0.32801035705E+03  0.00000000000E+00 0.  1.
         25    2    1    2    0    0  0.55615400238E+02 -0.25989591922E+02 -0.23409535315E+03  0.27238471226E+03  0.12499706187E+03 0.  0.
         23    2    1    2    0    0 -0.55615400238E+02  0.25989591922E+02 -0.32817931817E+02  0.11672271687E+03  0.93694420077E+02 0.  0.
          5    1    3    3  502    0 -0.23629771551E+02 -0.56323815939E+01 -0.16000082876E+03  0.16190257883E+03  0.47000000000E+01 0.  1.
         -5    1    3    3    0  502  0.79245171789E+02 -0.20357210328E+02 -0.74094524387E+02  0.11048213344E+03  0.47000000000E+01 0.  1.
          5    1    4    4  503    0 -0.73012388798E+02  0.11954615331E+02  0.30533023368E+01  0.74196592919E+02  0.47000000000E+01 0. -1.
         -5    1    4    4    0  503  0.17396988560E+02  0.14034976591E+02 -0.35871234154E+02  0.42526123954E+02  0.47000000000E+01 0.  1.
<mgrwt>
<rscale>  0 0.13188136E+03</rscale>
<asrwt>0</asrwt>
<pdfrwt beam="1">  1        2 0.93995496E-02 0.13925802E+03</pdfrwt>
<pdfrwt beam="2">  1       -2 0.50463131E-01 0.13925802E+03</pdfrwt>
<totfact> 0.25167238E+03</totfact>
</mgrwt>
</event>
<event>
 8    1  0.3407580E-004  0.2048758E+03  0.7546771E-02  0.1149737E+00
          1   -1    0    0  501    0  0.00000000000E+00  0.00000000000E+00  0.97763440199E+03  0.97763440199E+03  0.00000000000E+00 0. -1.
         -1   -1    0    0    0  501 -0.00000000000E+00 -0.00000000000E+00 -0.42475500526E+02  0.42475500526E+02  0.00000000000E+00 0.  1.
         25    2    1    2    0    0 -0.11945182312E+03 -0.10990907251E+03  0.34428355156E+03  0.40063105837E+03  0.12500135517E+03 0.  0.
         23    2    1    2    0    0  0.11945182312E+03  0.10990907251E+03  0.59087534990E+03  0.61947884414E+03  0.90948430139E+02 0.  0.
          5    1    4    4  502    0  0.76041150010E+02  0.11138655127E+03  0.51005806950E+03  0.52760832496E+03  0.47000000000E+01 0. -1.
         -5    1    3    3    0  503 -0.12228838656E+03 -0.35225712129E+02  0.18464835132E+03  0.22430426641E+03  0.47000000000E+01 0.  1.
          5    1    3    3  503    0  0.28365634423E+01 -0.74683360384E+02  0.15963520024E+03  0.17632679197E+03  0.47000000000E+01 0.  1.
         -5    1    4    4    0  502  0.43410673112E+02 -0.14774787560E+01  0.80817280397E+02  0.91870519179E+02  0.47000000000E+01 0.  1.
<mgrwt>
<rscale>  0 0.20000203E+03</rscale>
<asrwt>0</asrwt>
<pdfrwt beam="1">  1        1 0.15040528E+00 0.20487577E+03</pdfrwt>
<pdfrwt beam="2">  1       -1 0.65346931E-02 0.20487577E+03</pdfrwt>
<totfact> 0.19459237E+03</totfact>
</mgrwt>
</event>
<event>
 8    1  0.3407580E-004  0.2663472E+03  0.7546771E-02  0.1105482E+00
         -2   -1    0    0    0  501 -0.00000000000E+00  0.00000000000E+00  0.24724312808E+02  0.24724312808E+02  0.00000000000E+00 0.  1.
          2   -1    0    0  501    0  0.00000000000E+00 -0.00000000000E+00 -0.27613282849E+04  0.27613282849E+04  0.00000000000E+00 0. -1.
         25    2    1    2    0    0 -0.11316397960E+03 -0.20617843166E+03 -0.12358603087E+04  0.12642355480E+04  0.12500074497E+03 0.  0.
         23    2    1    2    0    0  0.11316397960E+03  0.20617843166E+03 -0.15007436634E+04  0.15218170497E+04  0.91542108419E+02 0.  0.
          5    1    4    4  502    0  0.11101960426E+03  0.11434189163E+03 -0.10139691016E+04  0.10264282000E+04  0.47000000000E+01 0. -1.
         -5    1    3    3    0  503 -0.58931863766E+01 -0.13942318054E+03 -0.61920104652E+03  0.63474843752E+03  0.47000000000E+01 0. -1.
          5    1    3    3  503    0 -0.10727079322E+03 -0.66755251116E+02 -0.61665926216E+03  0.62948711046E+03  0.47000000000E+01 0. -1.
         -5    1    4    4    0  502  0.21443753451E+01  0.91836540031E+02 -0.48677456184E+03  0.49538884978E+03  0.47000000000E+01 0.  1.
<mgrwt>
<rscale>  0 0.26278450E+03</rscale>
<asrwt>0</asrwt>
<pdfrwt beam="1">  1        2 0.42482000E+00 0.26634718E+03</pdfrwt>
<pdfrwt beam="2">  1       -2 0.38037381E-02 0.26634718E+03</pdfrwt>
<totfact> 0.85062760E+02</totfact>
</mgrwt>
</event>
<event>
 8    1  0.3407580E-004  0.3991440E+03  0.7546771E-02  0.1044868E+00
          1   -1    0    0  501    0  0.00000000000E+00  0.00000000000E+00  0.48022883280E+03  0.48022883280E+03  0.00000000000E+00 0. -1.
         -1   -1    0    0    0  501 -0.00000000000E+00 -0.00000000000E+00 -0.32676065248E+03  0.32676065248E+03  0.00000000000E+00 0.  1.
         25    2    1    2    0    0 -0.23463666927E+03 -0.29771814181E+03  0.42610699381E+02  0.40141201883E+03  0.12500191451E+03 0.  0.
         23    2    1    2    0    0  0.23463666927E+03  0.29771814181E+03  0.11085748094E+03  0.40557746645E+03  0.92267229759E+02 0.  0.
          5    1    3    3  502    0 -0.14898146723E+03 -0.89292391450E+02  0.18795854982E+02  0.17476836932E+03  0.47000000000E+01 0. -1.
         -5    1    4    4    0  503  0.45496144392E+02  0.11247273860E+03  0.61963211873E+02  0.13631414346E+03  0.47000000000E+01 0.  1.
          5    1    4    4  503    0  0.18914052487E+03  0.18524540322E+03  0.48894269065E+02  0.26926332299E+03  0.47000000000E+01 0. -1.
         -5    1    3    3    0  502 -0.85655202032E+02 -0.20842575036E+03  0.23814844399E+02  0.22664364951E+03  0.47000000000E+01 0. -1.
<mgrwt>
<rscale>  0 0.39687191E+03</rscale>
<asrwt>0</asrwt>
<pdfrwt beam="1">  1        1 0.73881359E-01 0.39914401E+03</pdfrwt>
<pdfrwt beam="2">  1       -1 0.50270870E-01 0.39914401E+03</pdfrwt>
<totfact> 0.19314502E+02</totfact>
</mgrwt>
</event>
<event>
 8    1  0.3407580E-004  0.2027920E+03  0.7546771E-02  0.1151481E+00
          2   -1    0    0  501    0  0.00000000000E+00  0.00000000000E+00  0.42788582331E+03  0.42788582331E+03  0.00000000000E+00 0.  1.
         -2   -1    0    0    0  501 -0.00000000000E+00 -0.00000000000E+00 -0.11902097775E+03  0.11902097775E+03  0.00000000000E+00 0. -1.
         25    2    1    2    0    0 -0.15960274542E+03  0.52601950700E+01  0.30061085698E+03  0.36261753172E+03  0.12499552383E+03 0.  0.
         23    2    1    2    0    0  0.15960274542E+03 -0.52601950700E+01  0.82539885721E+01  0.18428926934E+03  0.91617140685E+02 0.  0.
          5    1    3    3  502    0 -0.15904355020E+03 -0.20551821410E+02  0.18875797684E+03  0.24772745517E+03  0.47000000000E+01 0.  1.
         -5    1    3    3    0  502 -0.55919521998E+00  0.25812016480E+02  0.11185288014E+03  0.11489007655E+03  0.47000000000E+01 0.  1.
          5    1    4    4  503    0  0.63283408960E+02 -0.28350168058E+02 -0.32940017208E+02  0.76913305820E+02  0.47000000000E+01 0. -1.
         -5    1    4    4    0  503  0.96319336461E+02  0.23089972988E+02  0.41194005781E+02  0.10737596352E+03  0.47000000000E+01 0.  1.
<mgrwt>
<rscale>  0 0.19794935E+03</rscale>
<asrwt>0</asrwt>
<pdfrwt beam="1">  1        2 0.65828587E-01 0.20279198E+03</pdfrwt>
<pdfrwt beam="2">  1       -2 0.18310920E-01 0.20279198E+03</pdfrwt>
<totfact> 0.17988584E+03</totfact>
</mgrwt>
</event>
<event>
 8    1  0.3407580E-004  0.2204333E+03  0.7546771E-02  0.1136846E+00
          2   -1    0    0  501    0  0.00000000000E+00  0.00000000000E+00  0.15543574086E+04  0.15543574086E+04  0.00000000000E+00 0. -1.
         -2   -1    0    0    0  501 -0.00000000000E+00 -0.00000000000E+00 -0.50730513257E+02  0.50730513257E+02  0.00000000000E+00 0.  1.
         25    2    1    2    0    0 -0.17282179315E+03  0.55662557167E+02  0.24276998947E+03  0.32791481198E+03  0.12500065468E+03 0.  0.
         23    2    1    2    0    0  0.17282179315E+03 -0.55662557167E+02  0.12608569059E+04  0.12771731099E+04  0.91898438753E+02 0.  0.
          5    1    4    4  502    0  0.60025696702E+02 -0.57925648808E+02  0.70725734897E+03  0.71217519806E+03  0.47000000000E+01 0. -1.
         -5    1    4    4    0  502  0.11279609645E+03  0.22630916413E+01  0.55359955692E+03  0.56499791184E+03  0.47000000000E+01 0.  1.
          5    1    3    3  503    0 -0.37097520487E+02 -0.31622891090E+02  0.10430996310E+03  0.11523407338E+03  0.47000000000E+01 0. -1.
         -5    1    3    3    0  503 -0.13572427266E+03  0.87285448257E+02  0.13846002637E+03  0.21268073860E+03  0.47000000000E+01 0. -1.
<mgrwt>
<rscale>  0 0.21607148E+03</rscale>
<asrwt>0</asrwt>
<pdfrwt beam="1">  1        2 0.23913187E+00 0.22043334E+03</pdfrwt>
<pdfrwt beam="2">  1       -2 0.78046956E-02 0.22043334E+03</pdfrwt>
<totfact> 0.12599905E+03</totfact>
</mgrwt>
</event>
<event>
 8    1  0.3407580E-004  0.2050865E+03  0.7546771E-02  0.1149653E+00
          1   -1    0    0  501    0  0.00000000000E+00  0.00000000000E+00  0.68669252818E+03  0.68669252818E+03  0.00000000000E+00 0. -1.
         -1   -1    0    0    0  501 -0.00000000000E+00 -0.00000000000E+00 -0.55970823658E+02  0.55970823658E+02  0.00000000000E+00 0.  1.
         25    2    1    2    0    0 -0.14665652390E+03 -0.70223702349E+02  0.30246645272E+03  0.36544003718E+03  0.12498384446E+03 0.  0.
         23    2    1    2    0    0  0.14665652390E+03  0.70223702349E+02  0.32825525180E+03  0.37722331466E+03  0.90035628597E+02 0.  0.
          5    1    3    3  502    0 -0.61670353291E+02  0.32150847164E+02  0.13060298762E+03  0.14804100724E+03  0.47000000000E+01 0.  1.
         -5    1    3    3    0  502 -0.84986170605E+02 -0.10237454951E+03  0.17186346510E+03  0.21739902993E+03  0.47000000000E+01 0.  1.
          5    1    4    4  503    0  0.11971265581E+03  0.62476140035E+02  0.32040936639E+03  0.34773357633E+03  0.47000000000E+01 0. -1.
         -5    1    4    4    0  503  0.26943868084E+02  0.77475623140E+01  0.78458854113E+01  0.29489738335E+02  0.47000000000E+01 0.  1.
<mgrwt>
<rscale>  0 0.20010243E+03</rscale>
<asrwt>0</asrwt>
<pdfrwt beam="1">  1        1 0.10564500E+00 0.20508648E+03</pdfrwt>
<pdfrwt beam="2">  1       -1 0.86108964E-02 0.20508648E+03</pdfrwt>
<totfact> 0.22143702E+03</totfact>
</mgrwt>
</event>
<event>
 8    1  0.3407580E-004  0.1335650E+03  0.7546771E-02  0.1235161E+00
         -4   -1    0    0    0  501 -0.00000000000E+00  0.00000000000E+00  0.26054485773E+02  0.26054485773E+02  0.00000000000E+00 0.  1.
          4   -1    0    0  501    0  0.00000000000E+00 -0.00000000000E+00 -0.58351968795E+03  0.58351968795E+03  0.00000000000E+00 0. -1.
         25    2    1    2    0    0 -0.54401976648E+01  0.46741705520E+02 -0.22419955507E+03  0.26096941808E+03  0.12500085557E+03 0.  0.
         23    2    1    2    0    0  0.54401976648E+01 -0.46741705520E+02 -0.33326564711E+03  0.34860475564E+03  0.90801439020E+02 0.  0.
          5    1    3    3  502    0 -0.53475930774E+02  0.61573836718E+02 -0.15622349888E+03  0.17629204220E+03  0.47000000000E+01 0.  1.
         -5    1    3    3    0  502  0.48035733109E+02 -0.14832131197E+02 -0.67976056190E+02  0.84677375883E+02  0.47000000000E+01 0.  1.
          5    1    4    4  503    0  0.35098351166E+02 -0.43527329612E+02 -0.29271110433E+03  0.29804094229E+03  0.47000000000E+01 0. -1.
         -5    1    4    4    0  503 -0.29658153501E+02 -0.32143759084E+01 -0.40554542774E+02  0.50563813357E+02  0.47000000000E+01 0.  1.
<mgrwt>
<rscale>  0 0.12494162E+03</rscale>
<asrwt>0</asrwt>
<pdfrwt beam="1">  1        4 0.89772268E-01 0.13356495E+03</pdfrwt>
<pdfrwt beam="2">  1       -4 0.40083820E-02 0.13356495E+03</pdfrwt>
<totfact> 0.61807220E+02</totfact>
</mgrwt>
</event>
<event>
 8    1  0.3407580E-004  0.1312332E+03  0.7546771E-02  0.1236723E+00
         -1   -1    0    0    0  501 -0.00000000000E+00  0.00000000000E+00  0.31418126475E+03  0.31418126475E+03  0.00000000000E+00 0.  1.
          1   -1    0    0  501    0  0.00000000000E+00 -0.00000000000E+00 -0.44192183122E+02  0.44192183122E+02  0.00000000000E+00 0. -1.
         25    2    1    2    0    0 -0.34221273740E+02  0.20628440028E+02  0.15063631502E+03  0.19978352521E+03  0.12500211769E+03 0.  0.
         23    2    1    2    0    0  0.34221273740E+02 -0.20628440028E+02  0.11935276660E+03  0.15858992266E+03  0.96483431529E+02 0.  0.
          5    1    4    4  502    0  0.24179058711E+02 -0.52659315278E+02  0.35430756812E+02  0.68081266836E+02  0.47000000000E+01 0. -1.
         -5    1    3    3    0  503 -0.73536880721E+02 -0.41422828238E+01  0.12829763815E+03  0.14801082828E+03  0.47000000000E+01 0. -1.
          5    1    3    3  503    0  0.39315606981E+02  0.24770722852E+02  0.22338676874E+02  0.51772696930E+02  0.47000000000E+01 0. -1.
         -5    1    4    4    0  502  0.10042215029E+02  0.32030875250E+02  0.83922009791E+02  0.90508655826E+02  0.47000000000E+01 0.  1.
<mgrwt>
<rscale>  0 0.12394797E+03</rscale>
<asrwt>0</asrwt>
<pdfrwt beam="1">  1        1 0.67987976E-02 0.13123322E+03</pdfrwt>
<pdfrwt beam="2">  1       -1 0.48335578E-01 0.13123322E+03</pdfrwt>
<totfact> 0.45366353E+03</totfact>
</mgrwt>
</event>
<event>
 8    1  0.3407580E-004  0.1577132E+03  0.7546771E-02  0.1199898E+00
         -4   -1    0    0    0  501 -0.00000000000E+00  0.00000000000E+00  0.28629928422E+03  0.28629928422E+03  0.00000000000E+00 0.  1.
          4   -1    0    0  501    0  0.00000000000E+00 -0.00000000000E+00 -0.88046553599E+02  0.88046553599E+02  0.00000000000E+00 0. -1.
         25    2    1    2    0    0 -0.88792381359E+02 -0.36936137369E+02  0.18485221045E+03  0.24298929855E+03  0.12500037708E+03 0.  0.
         23    2    1    2    0    0  0.88792381359E+02  0.36936137369E+02  0.13400520161E+02  0.13135653926E+03  0.88468080320E+02 0.  0.
          5    1    4    4  502    0  0.53990447633E+02  0.46594118365E+02 -0.27509916632E+02  0.76582411917E+02  0.47000000000E+01 0. -1.
         -5    1    4    4    0  502  0.34801933726E+02 -0.96579809963E+01  0.40910436793E+02  0.54774127347E+02  0.47000000000E+01 0.  1.
          5    1    3    3  503    0 -0.67147853003E+02 -0.77918133319E+02  0.15978743274E+03  0.19008993484E+03  0.47000000000E+01 0. -1.
         -5    1    3    3    0  503 -0.21644528357E+02  0.40981995950E+02  0.25064777711E+02  0.52899363716E+02  0.47000000000E+01 0. -1.
<mgrwt>
<rscale>  0 0.15046866E+03</rscale>
<asrwt>0</asrwt>
<pdfrwt beam="1">  1        4 0.13545624E-01 0.15771322E+03</pdfrwt>
<pdfrwt beam="2">  1       -4 0.44046043E-01 0.15771322E+03</pdfrwt>
<totfact> 0.38635013E+02</totfact>
</mgrwt>
</event>
<event>
 8    1  0.3407580E-004  0.1492377E+03  0.7546771E-02  0.1208540E+00
         -1   -1    0    0    0  501 -0.00000000000E+00  0.00000000000E+00  0.18887494363E+03  0.18887494363E+03  0.00000000000E+00 0.  1.
          1   -1    0    0  501    0  0.00000000000E+00 -0.00000000000E+00 -0.10271975404E+03  0.10271975404E+03  0.00000000000E+00 0. -1.
         25    2    1    2    0    0 -0.58833442019E+02 -0.56439105422E+02  0.32122140542E+02  0.15265552599E+03  0.12500052473E+03 0.  0.
         23    2    1    2    0    0  0.58833442019E+02  0.56439105422E+02  0.54033049047E+02  0.13893917167E+03  0.98680172854E+02 0.  0.
          5    1    4    4  502    0 -0.16198135630E+02 -0.16152807387E+02  0.73682963018E+01  0.24488253812E+02  0.47000000000E+01 0. -1.
         -5    1    3    3    0  503  0.13987882600E+02 -0.59775012746E+02  0.47795877132E+02  0.77943882885E+02  0.47000000000E+01 0. -1.
          5    1    3    3  503    0 -0.72821324619E+02  0.33359073244E+01 -0.15673736589E+02  0.74711643106E+02  0.47000000000E+01 0. -1.
         -5    1    4    4    0  502  0.75031577649E+02  0.72591912809E+02  0.46664752745E+02  0.11445091786E+03  0.47000000000E+01 0.  1.
<mgrwt>
<rscale>  0 0.14361938E+03</rscale>
<asrwt>0</asrwt>
<pdfrwt beam="1">  1        1 0.15803039E-01 0.14923766E+03</pdfrwt>
<pdfrwt beam="2">  1       -1 0.29057684E-01 0.14923766E+03</pdfrwt>
<totfact> 0.36264881E+03</totfact>
</mgrwt>
</event>
<event>
 8    1  0.3407580E-004  0.1752057E+03  0.7546771E-02  0.1178411E+00
          2   -1    0    0  501    0  0.00000000000E+00  0.00000000000E+00  0.50838449245E+03  0.50838449245E+03  0.00000000000E+00 0. -1.
         -2   -1    0    0    0  501 -0.00000000000E+00 -0.00000000000E+00 -0.78157504010E+02  0.78157504010E+02  0.00000000000E+00 0.  1.
         25    2    1    2    0    0  0.63676872934E+02  0.10495690979E+03  0.58963268814E+02  0.18486131047E+03  0.12500535981E+03 0.  0.
         23    2    1    2    0    0 -0.63676872934E+02 -0.10495690979E+03  0.37126371963E+03  0.40168068599E+03  0.91869074915E+02 0.  0.
          5    1    3    3  502    0 -0.11380442547E+02  0.34103706637E+02 -0.31119634405E+02  0.47781784441E+02  0.47000000000E+01 0. -1.
         -5    1    4    4    0  503 -0.84631667471E+02 -0.61092399995E+02  0.25103512766E+03  0.27191087840E+03  0.47000000000E+01 0.  1.
          5    1    4    4  503    0  0.20954794538E+02 -0.43864509797E+02  0.12022859197E+03  0.12976980759E+03  0.47000000000E+01 0. -1.
         -5    1    3    3    0  502  0.75057315481E+02  0.70853203156E+02  0.90082903219E+02  0.13707952603E+03  0.47000000000E+01 0. -1.
<mgrwt>
<rscale>  0 0.16946078E+03</rscale>
<asrwt>0</asrwt>
<pdfrwt beam="1">  1        2 0.78212997E-01 0.17520570E+03</pdfrwt>
<pdfrwt beam="2">  1       -2 0.12024232E-01 0.17520570E+03</pdfrwt>
<totfact> 0.29602467E+03</totfact>
</mgrwt>
</event>
<event>
 8    1  0.3407580E-004  0.1286744E+03  0.7546771E-02  0.1244341E+00
          2   -1    0    0  501    0  0.00000000000E+00  0.00000000000E+00  0.61445625924E+03  0.61445625924E+03  0.00000000000E+00 0. -1.
         -2   -1    0    0    0  501 -0.00000000000E+00 -0.00000000000E+00 -0.20544833643E+02  0.20544833643E+02  0.00000000000E+00 0.  1.
         25    2    1    2    0    0 -0.77745755139E+01 -0.29526431204E+02  0.31001828623E+03  0.33566119516E+03  0.12499938391E+03 0.  0.
         23    2    1    2    0    0  0.77745755139E+01  0.29526431204E+02  0.28389313937E+03  0.29933989772E+03  0.89871049972E+02 0.  0.
          5    1    4    4  502    0  0.19513933405E+02  0.56732508802E+02  0.14055863246E+03  0.15289928159E+03  0.47000000000E+01 0. -1.
         -5    1    3    3    0  503  0.29893030544E+02 -0.64479474786E+02  0.12814823695E+03  0.14661260715E+03  0.47000000000E+01 0.  1.
          5    1    3    3  503    0 -0.37667606058E+02  0.34953043582E+02  0.18187004928E+03  0.18904858801E+03  0.47000000000E+01 0.  1.
         -5    1    4    4    0  502 -0.11739357891E+02 -0.27206077598E+02  0.14333450691E+03  0.14644061613E+03  0.47000000000E+01 0.  1.
<mgrwt>
<rscale>  0 0.11924881E+03</rscale>
<asrwt>0</asrwt>
<pdfrwt beam="1">  1        2 0.94531718E-01 0.12867440E+03</pdfrwt>
<pdfrwt beam="2">  1       -2 0.31607441E-02 0.12867440E+03</pdfrwt>
<totfact> 0.18092933E+04</totfact>
</mgrwt>
</event>
<event>
 8    1  0.3407580E-004  0.1823871E+03  0.7546771E-02  0.1170950E+00
          2   -1    0    0  501    0  0.00000000000E+00  0.00000000000E+00  0.45071797316E+03  0.45071797316E+03  0.00000000000E+00 0. -1.
         -2   -1    0    0    0  501 -0.00000000000E+00 -0.00000000000E+00 -0.65402368857E+02  0.65402368857E+02  0.00000000000E+00 0.  1.
         25    2    1    2    0    0  0.90134019459E+02  0.97554908715E+02  0.20456927971E+03  0.27406871124E+03  0.12499586634E+03 0.  0.
         23    2    1    2    0    0 -0.90134019459E+02 -0.97554908715E+02  0.18074632459E+03  0.24205163078E+03  0.90987122331E+02 0.  0.
          5    1    4    4  502    0 -0.48956283907E+02 -0.10046024899E+03  0.94927297932E+02  0.14670467359E+03  0.47000000000E+01 0.  1.
         -5    1    4    4    0  502 -0.41177735552E+02  0.29053402766E+01  0.85819026661E+02  0.95346957184E+02  0.47000000000E+01 0. -1.
          5    1    3    3  503    0  0.11117150240E+03  0.69628643821E+02  0.10392572954E+03  0.16742131956E+03  0.47000000000E+01 0.  1.
         -5    1    3    3    0  503 -0.21037482937E+02  0.27926264894E+02  0.10064355018E+03  0.10664739168E+03  0.47000000000E+01 0.  1.
<mgrwt>
<rscale>  0 0.17678667E+03</rscale>
<asrwt>0</asrwt>
<pdfrwt beam="1">  1        2 0.69341225E-01 0.18238714E+03</pdfrwt>
<pdfrwt beam="2">  1       -2 0.10061903E-01 0.18238714E+03</pdfrwt>
<totfact> 0.44980057E+03</totfact>
</mgrwt>
</event>
<event>
 8    1  0.3407580E-004  0.1283937E+03  0.7546771E-02  0.1244364E+00
          4   -1    0    0  501    0  0.00000000000E+00  0.00000000000E+00  0.69184390788E+03  0.69184390788E+03  0.00000000000E+00 0.  1.
         -4   -1    0    0    0  501 -0.00000000000E+00 -0.00000000000E+00 -0.18226172485E+02  0.18226172485E+02  0.00000000000E+00 0. -1.
         25    2    1    2    0    0  0.41069815982E+01  0.29040877782E+02  0.35839360206E+03  0.38069792962E+03  0.12499879895E+03 0.  0.
         23    2    1    2    0    0 -0.41069815982E+01 -0.29040877782E+02  0.31522413334E+03  0.32937215075E+03  0.90881899025E+02 0.  0.
          5    1    4    4  502    0 -0.11945978601E+02  0.27177371636E+02  0.52047429847E+02  0.60102752744E+02  0.47000000000E+01 0. -1.
         -5    1    3    3    0  503  0.33672015085E+02  0.54482779334E+02  0.31773255654E+03  0.32415774760E+03  0.47000000000E+01 0.  1.
          5    1    3    3  503    0 -0.29565033486E+02 -0.25441901553E+02  0.40661045513E+02  0.56540182011E+02  0.47000000000E+01 0.  1.
         -5    1    4    4    0  502  0.78389970026E+01 -0.56218249418E+02  0.26317670349E+03  0.26926939801E+03  0.47000000000E+01 0.  1.
<mgrwt>
<rscale>  0 0.11923553E+03</rscale>
<asrwt>0</asrwt>
<pdfrwt beam="1">  1        4 0.10643750E+00 0.12839369E+03</pdfrwt>
<pdfrwt beam="2">  1       -4 0.28040271E-02 0.12839369E+03</pdfrwt>
<totfact> 0.72727694E+02</totfact>
</mgrwt>
</event>
<event>
 8    1  0.3407580E-004  0.1392175E+03  0.7546771E-02  0.1225813E+00
         -1   -1    0    0    0  501 -0.00000000000E+00  0.00000000000E+00  0.21633733318E+02  0.21633733318E+02  0.00000000000E+00 0.  1.
          1   -1    0    0  501    0  0.00000000000E+00 -0.00000000000E+00 -0.77826074363E+03  0.77826074363E+03  0.00000000000E+00 0. -1.
         25    2    1    2    0    0  0.54601849665E+02 -0.27853715444E+02 -0.30652164988E+03  0.33665566670E+03  0.12499729847E+03 0.  0.
         23    2    1    2    0    0 -0.54601849665E+02  0.27853715444E+02 -0.45010536044E+03  0.46323881025E+03  0.90764356338E+02 0.  0.
          5    1    4    4  502    0 -0.73586214464E+02  0.42447627946E+02 -0.34450557251E+03  0.35485618434E+03  0.47000000000E+01 0. -1.
         -5    1    3    3    0  503  0.43118856258E+02  0.26584390994E+02 -0.41031151870E+02  0.65357562939E+02  0.47000000000E+01 0. -1.
          5    1    3    3  503    0  0.11482993407E+02 -0.54438106438E+02 -0.26549049801E+03  0.27129810376E+03  0.47000000000E+01 0. -1.
         -5    1    4    4    0  502  0.18984364799E+02 -0.14593912502E+02 -0.10559978793E+03  0.10838262591E+03  0.47000000000E+01 0.  1.
<mgrwt>
<rscale>  0 0.13111340E+03</rscale>
<asrwt>0</asrwt>
<pdfrwt beam="1">  1        1 0.11973242E+00 0.13921751E+03</pdfrwt>
<pdfrwt beam="2">  1       -1 0.33282668E-02 0.13921751E+03</pdfrwt>
<totfact> 0.75097807E+03</totfact>
</mgrwt>
</event>
<event>
 8    1  0.3407580E-004  0.1365720E+03  0.7546771E-02  0.1229266E+00
         -1   -1    0    0    0  501 -0.00000000000E+00  0.00000000000E+00  0.12782064558E+03  0.12782064558E+03  0.00000000000E+00 0.  1.
          1   -1    0    0  501    0  0.00000000000E+00 -0.00000000000E+00 -0.16116420672E+03  0.16116420672E+03  0.00000000000E+00 0. -1.
         25    2    1    2    0    0 -0.52211572372E+02  0.17366653308E+02 -0.93359303973E+02  0.16543234252E+03  0.12499700547E+03 0.  0.
         23    2    1    2    0    0  0.52211572372E+02 -0.17366653308E+02  0.60015742828E+02  0.12355250978E+03  0.92928382908E+02 0.  0.
          5    1    4    4  502    0  0.34898906481E+02 -0.49440590279E+02  0.10047394680E+02  0.61525163800E+02  0.47000000000E+01 0. -1.
         -5    1    4    4    0  502  0.17312665892E+02  0.32073936972E+02  0.49968348148E+02  0.62027345983E+02  0.47000000000E+01 0.  1.
          5    1    3    3  503    0 -0.51556226467E+02 -0.48944339341E+01  0.15466109139E+02  0.54252101369E+02  0.47000000000E+01 0. -1.
         -5    1    3    3    0  503 -0.65534590579E+00  0.22261087242E+02 -0.10882541311E+03  0.11118024115E+03  0.47000000000E+01 0. -1.
<mgrwt>
<rscale>  0 0.12878758E+03</rscale>
<asrwt>0</asrwt>
<pdfrwt beam="1">  1        1 0.24794493E-01 0.13657196E+03</pdfrwt>
<pdfrwt beam="2">  1       -1 0.19664715E-01 0.13657196E+03</pdfrwt>
<totfact> 0.38540017E+03</totfact>
</mgrwt>
</event>
<event>
 8    1  0.3407580E-004  0.1543388E+03  0.7546771E-02  0.1203879E+00
          3   -1    0    0  501    0  0.00000000000E+00  0.00000000000E+00  0.24486867225E+02  0.24486867225E+02  0.00000000000E+00 0. -1.
         -3   -1    0    0    0  501 -0.00000000000E+00 -0.00000000000E+00 -0.90637401287E+03  0.90637401287E+03  0.00000000000E+00 0.  1.
         25    2    1    2    0    0  0.87811243048E+02  0.22023671973E+02 -0.32949108620E+03  0.36384727558E+03  0.12499843010E+03 0.  0.
         23    2    1    2    0    0 -0.87811243048E+02 -0.22023671973E+02 -0.55239605945E+03  0.56701360452E+03  0.90372366826E+02 0.  0.
          5    1    4    4  502    0 -0.76828822410E+02 -0.51058459062E+02 -0.34056829009E+03  0.35287176766E+03  0.47000000000E+01 0. -1.
         -5    1    4    4    0  502 -0.10982420638E+02  0.29034787089E+02 -0.21182776936E+03  0.21414183686E+03  0.47000000000E+01 0.  1.
          5    1    3    3  503    0 -0.13719925865E+02  0.45242940086E+02 -0.74435181836E+02  0.88305414830E+02  0.47000000000E+01 0. -1.
         -5    1    3    3    0  503  0.10153116891E+03 -0.23219268113E+02 -0.25505590437E+03  0.27554186075E+03  0.47000000000E+01 0. -1.
<mgrwt>
<rscale>  0 0.14726152E+03</rscale>
<asrwt>0</asrwt>
<pdfrwt beam="1">  1        3 0.37672108E-02 0.15433880E+03</pdfrwt>
<pdfrwt beam="2">  1       -3 0.13944214E+00 0.15433880E+03</pdfrwt>
<totfact> 0.34750137E+02</totfact>
</mgrwt>
</event>
<event>
 8    1  0.3407580E-004  0.1517041E+03  0.7546771E-02  0.1207427E+00
         -2   -1    0    0    0  501 -0.00000000000E+00  0.00000000000E+00  0.19867728425E+03  0.19867728425E+03  0.00000000000E+00 0.  1.
          2   -1    0    0  501    0  0.00000000000E+00 -0.00000000000E+00 -0.96809340220E+02  0.96809340220E+02  0.00000000000E+00 0. -1.
         25    2    1    2    0    0  0.53302640724E+00 -0.85958601914E+02  0.67476639439E+02  0.16603385468E+03  0.12499991468E+03 0.  0.
         23    2    1    2    0    0 -0.53302640724E+00  0.85958601914E+02  0.34391304588E+02  0.12945276979E+03  0.90477026998E+02 0.  0.
          5    1    3    3  502    0 -0.20498288113E+02 -0.47296245782E+02  0.98985246307E+02  0.11170176215E+03  0.47000000000E+01 0. -1.
         -5    1    4    4    0  503  0.37264236394E+02  0.62349182771E+02  0.41944132472E+02  0.84008595722E+02  0.47000000000E+01 0.  1.
          5    1    4    4  503    0 -0.37797262801E+02  0.23609419142E+02 -0.75528278833E+01  0.45444174066E+02  0.47000000000E+01 0. -1.
         -5    1    3    3    0  502  0.21031314520E+02 -0.38662356132E+02 -0.31508606868E+02  0.54332092532E+02  0.47000000000E+01 0. -1.
<mgrwt>
<rscale>  0 0.14447825E+03</rscale>
<asrwt>0</asrwt>
<pdfrwt beam="1">  1        2 0.14893745E-01 0.15170413E+03</pdfrwt>
<pdfrwt beam="2">  1       -2 0.30565736E-01 0.15170413E+03</pdfrwt>
<totfact> 0.37456711E+03</totfact>
</mgrwt>
</event>
<event>
 8    1  0.3407580E-004  0.1674320E+03  0.7546771E-02  0.1186846E+00
          3   -1    0    0  501    0  0.00000000000E+00  0.00000000000E+00  0.30424165733E+03  0.30424165733E+03  0.00000000000E+00 0. -1.
         -3   -1    0    0    0  501 -0.00000000000E+00 -0.00000000000E+00 -0.92861389390E+02  0.92861389390E+02  0.00000000000E+00 0.  1.
         25    2    1    2    0    0  0.74638211731E+02  0.82686529556E+02  0.18453429304E+03  0.24917136938E+03  0.12500216474E+03 0.  0.
         23    2    1    2    0    0 -0.74638211731E+02 -0.82686529556E+02  0.26845974899E+02  0.14793167734E+03  0.93568958381E+02 0.  0.
          5    1    4    4  502    0 -0.20189057667E+02 -0.31211273940E+02  0.56012441436E+02  0.67388613772E+02  0.47000000000E+01 0. -1.
         -5    1    4    4    0  502 -0.54449154064E+02 -0.51475255616E+02 -0.29166466537E+02  0.80543063571E+02  0.47000000000E+01 0.  1.
          5    1    3    3  503    0  0.88759296402E+02  0.66997685739E+02  0.19546980496E+03  0.22493874109E+03  0.47000000000E+01 0. -1.
         -5    1    3    3    0  503 -0.14121084671E+02  0.15688843817E+02 -0.10935511922E+02  0.24232628285E+02  0.47000000000E+01 0. -1.
<mgrwt>
<rscale>  0 0.16165016E+03</rscale>
<asrwt>0</asrwt>
<pdfrwt beam="1">  1        3 0.46806408E-01 0.16743197E+03</pdfrwt>
<pdfrwt beam="2">  1       -3 0.14286368E-01 0.16743197E+03</pdfrwt>
<totfact> 0.43981404E+02</totfact>
</mgrwt>
</event>
<event>
 8    1  0.3407580E-004  0.1262946E+03  0.7546771E-02  0.1250330E+00
         -2   -1    0    0    0  501 -0.00000000000E+00  0.00000000000E+00  0.20746735428E+02  0.20746735428E+02  0.00000000000E+00 0.  1.
          2   -1    0    0  501    0  0.00000000000E+00 -0.00000000000E+00 -0.68061622038E+03  0.68061622038E+03  0.00000000000E+00 0. -1.
         25    2    1    2    0    0 -0.43846783223E+01  0.17655928302E+02 -0.52344019703E+03  0.53846074144E+03  0.12497748999E+03 0.  0.
         23    2    1    2    0    0  0.43846783223E+01 -0.17655928302E+02 -0.13642928792E+03  0.16290221436E+03  0.87139105074E+02 0.  0.
          5    1    3    3  502    0  0.51893103499E+02 -0.20006018777E+02 -0.29133444936E+03  0.29663274661E+03  0.47000000000E+01 0.  1.
         -5    1    4    4    0  503 -0.59176196932E+01  0.28927191288E+02 -0.94825214799E+02  0.99426917785E+02  0.47000000000E+01 0.  1.
          5    1    4    4  503    0  0.10302298015E+02 -0.46583119590E+02 -0.41604073122E+02  0.63475296576E+02  0.47000000000E+01 0. -1.
         -5    1    3    3    0  502 -0.56277781821E+02  0.37661947079E+02 -0.23210574766E+03  0.24182799483E+03  0.47000000000E+01 0.  1.
<mgrwt>
<rscale>  0 0.11571987E+03</rscale>
<asrwt>0</asrwt>
<pdfrwt beam="1">  1        2 0.10471018E+00 0.12629462E+03</pdfrwt>
<pdfrwt beam="2">  1       -2 0.31918055E-02 0.12629462E+03</pdfrwt>
<totfact> 0.15820256E+04</totfact>
</mgrwt>
</event>
<event>
 8    1  0.3407580E-004  0.1531987E+03  0.7546771E-02  0.1205105E+00
          2   -1    0    0  501    0  0.00000000000E+00  0.00000000000E+00  0.34252557014E+02  0.34252557014E+02  0.00000000000E+00 0. -1.
         -2   -1    0    0    0  501 -0.00000000000E+00 -0.00000000000E+00 -0.87685827555E+03  0.87685827555E+03  0.00000000000E+00 0.  1.
         25    2    1    2    0    0  0.60181688895E+02 -0.64993998947E+02 -0.17998353004E+03  0.23635550632E+03  0.12499519473E+03 0.  0.
         23    2    1    2    0    0 -0.60181688895E+02  0.64993998947E+02 -0.66262218850E+03  0.67475532624E+03  0.91545234846E+02 0.  0.
          5    1    3    3  502    0 -0.21669593532E+02 -0.57962869524E+02 -0.11803975379E+03  0.13335943537E+03  0.47000000000E+01 0. -1.
         -5    1    4    4    0  503  0.20341387809E+02  0.31191339525E+02 -0.26379171532E+03  0.26644855187E+03  0.47000000000E+01 0.  1.
          5    1    4    4  503    0 -0.80523076704E+02  0.33802659422E+02 -0.39883047318E+03  0.40830677438E+03  0.47000000000E+01 0. -1.
         -5    1    3    3    0  502  0.81851282427E+02 -0.70311294231E+01 -0.61943776247E+02  0.10299607095E+03  0.47000000000E+01 0. -1.
<mgrwt>
<rscale>  0 0.14629173E+03</rscale>
<asrwt>0</asrwt>
<pdfrwt beam="1">  1        2 0.52696243E-02 0.15319874E+03</pdfrwt>
<pdfrwt beam="2">  1       -2 0.13490127E+00 0.15319874E+03</pdfrwt>
<totfact> 0.59869088E+02</totfact>
</mgrwt>
</event>
<event>
 8    1  0.3407580E-004  0.2593180E+03  0.7546771E-02  0.1109896E+00
          2   -1    0    0  501    0  0.00000000000E+00  0.00000000000E+00  0.10024412219E+04  0.10024412219E+04  0.00000000000E+00 0. -1.
         -2   -1    0    0    0  501 -0.00000000000E+00 -0.00000000000E+00 -0.64609684618E+02  0.64609684618E+02  0.00000000000E+00 0.  1.
         25    2    1    2    0    0 -0.21051885128E+03 -0.85416244905E+02  0.56018292297E+03  0.61729308784E+03  0.12502690700E+03 0.  0.
         23    2    1    2    0    0  0.21051885128E+03  0.85416244905E+02  0.37764861429E+03  0.44975781866E+03  0.89718994252E+02 0.  0.
          5    1    4    4  502    0  0.15451806279E+03  0.79290258350E+02  0.34005940764E+03  0.38187074714E+03  0.47000000000E+01 0. -1.
         -5    1    3    3    0  503 -0.72656231627E+02  0.28816482059E+02  0.20650339926E+03  0.22085076758E+03  0.47000000000E+01 0.  1.
          5    1    3    3  503    0 -0.13786261965E+03 -0.11423272696E+03  0.35367952370E+03  0.39644232026E+03  0.47000000000E+01 0.  1.
         -5    1    4    4    0  502  0.56000788486E+02  0.61259865544E+01  0.37589206654E+02  0.67887071517E+02  0.47000000000E+01 0.  1.
<mgrwt>
<rscale>  0 0.25546903E+03</rscale>
<asrwt>0</asrwt>
<pdfrwt beam="1">  1        2 0.15422172E+00 0.25931805E+03</pdfrwt>
<pdfrwt beam="2">  1       -2 0.99399522E-02 0.25931805E+03</pdfrwt>
<totfact> 0.17522998E+03</totfact>
</mgrwt>
</event>
<event>
 8    1  0.3407580E-004  0.1404485E+03  0.7546771E-02  0.1223672E+00
         -1   -1    0    0    0  501 -0.00000000000E+00  0.00000000000E+00  0.22583823620E+02  0.22583823620E+02  0.00000000000E+00 0.  1.
          1   -1    0    0  501    0  0.00000000000E+00 -0.00000000000E+00 -0.71839881844E+03  0.71839881844E+03  0.00000000000E+00 0. -1.
         25    2    1    2    0    0  0.34877532064E+02 -0.53712427495E+02 -0.44107700812E+03  0.46289815663E+03  0.12499723680E+03 0.  0.
         23    2    1    2    0    0 -0.34877532064E+02  0.53712427495E+02 -0.25473798670E+03  0.27808448543E+03  0.91313044301E+02 0.  0.
          5    1    4    4  502    0 -0.24529019212E+02 -0.13282443070E+02 -0.15396177946E+03  0.15653886294E+03  0.47000000000E+01 0. -1.
         -5    1    3    3    0  503  0.58140510030E+02 -0.77301163199E+02 -0.23578433838E+03  0.25489631807E+03  0.47000000000E+01 0. -1.
          5    1    3    3  503    0 -0.23262977966E+02  0.23588735704E+02 -0.20529266974E+03  0.20800183856E+03  0.47000000000E+01 0. -1.
         -5    1    4    4    0  502 -0.10348512852E+02  0.66994870565E+02 -0.10077620724E+03  0.12154562249E+03  0.47000000000E+01 0.  1.
<mgrwt>
<rscale>  0 0.13258315E+03</rscale>
<asrwt>0</asrwt>
<pdfrwt beam="1">  1        1 0.11052291E+00 0.14044848E+03</pdfrwt>
<pdfrwt beam="2">  1       -1 0.34744340E-02 0.14044848E+03</pdfrwt>
<totfact> 0.79345563E+03</totfact>
</mgrwt>
</event>
<event>
 8    1  0.3407580E-004  0.2043664E+03  0.7546771E-02  0.1150325E+00
          1   -1    0    0  501    0  0.00000000000E+00  0.00000000000E+00  0.62797346809E+02  0.62797346809E+02  0.00000000000E+00 0. -1.
         -1   -1    0    0    0  501 -0.00000000000E+00 -0.00000000000E+00 -0.10662324657E+04  0.10662324657E+04  0.00000000000E+00 0.  1.
         25    2    1    2    0    0  0.84318993779E+02  0.13795321692E+03 -0.14416529493E+03  0.25009850758E+03  0.12499939384E+03 0.  0.
         23    2    1    2    0    0 -0.84318993779E+02 -0.13795321692E+03 -0.85926982394E+03  0.87893130492E+03  0.89637188989E+02 0.  0.
          5    1    4    4  502    0 -0.85730789876E+02 -0.64594994787E+02 -0.59507165370E+03  0.60469384379E+03  0.47000000000E+01 0. -1.
         -5    1    3    3    0  503  0.41555678001E+02 -0.61518614788E+00  0.48603411471E+01  0.42106599770E+02  0.47000000000E+01 0.  1.
          5    1    3    3  503    0  0.42763315779E+02  0.13856840307E+03 -0.14902563608E+03  0.20799190781E+03  0.47000000000E+01 0.  1.
         -5    1    4    4    0  502  0.14117960963E+01 -0.73358222134E+02 -0.26419817025E+03  0.27423746113E+03  0.47000000000E+01 0.  1.
<mgrwt>
<rscale>  0 0.19930660E+03</rscale>
<asrwt>0</asrwt>
<pdfrwt beam="1">  1        1 0.96611306E-02 0.20436641E+03</pdfrwt>
<pdfrwt beam="2">  1       -1 0.16403576E+00 0.20436641E+03</pdfrwt>
<totfact> 0.20115224E+02</totfact>
</mgrwt>
</event>
<event>
 8    1  0.3407580E-004  0.1477440E+03  0.7546771E-02  0.1212170E+00
          1   -1    0    0  501    0  0.00000000000E+00  0.00000000000E+00  0.78326264292E+03  0.78326264292E+03  0.00000000000E+00 0. -1.
         -1   -1    0    0    0  501 -0.00000000000E+00 -0.00000000000E+00 -0.23300332808E+02  0.23300332808E+02  0.00000000000E+00 0.  1.
         25    2    1    2    0    0 -0.58687756433E+02 -0.52534251058E+02  0.39547703411E+03  0.42217337959E+03  0.12499671049E+03 0.  0.
         23    2    1    2    0    0  0.58687756433E+02  0.52534251058E+02  0.36448527599E+03  0.38438959613E+03  0.93283143762E+02 0.  0.
          5    1    4    4  502    0  0.71438945006E+01  0.39298090573E+02  0.28972440933E+03  0.29250247608E+03  0.47000000000E+01 0. -1.
         -5    1    4    4    0  502  0.51543861933E+02  0.13236160485E+02  0.74760866660E+02  0.91887120050E+02  0.47000000000E+01 0.  1.
          5    1    3    3  503    0  0.24750737889E+02  0.22527988417E+02  0.12014807916E+03  0.12481089781E+03  0.47000000000E+01 0. -1.
         -5    1    3    3    0  503 -0.83438494322E+02 -0.75062239475E+02  0.27532895496E+03  0.29736248178E+03  0.47000000000E+01 0. -1.
<mgrwt>
<rscale>  0 0.14086460E+03</rscale>
<asrwt>0</asrwt>
<pdfrwt beam="1">  1        1 0.12050193E+00 0.14774396E+03</pdfrwt>
<pdfrwt beam="2">  1       -1 0.35846672E-02 0.14774396E+03</pdfrwt>
<totfact> 0.66933039E+03</totfact>
</mgrwt>
</event>
<event>
 8    1  0.3407580E-004  0.1885354E+03  0.7546771E-02  0.1164631E+00
         -2   -1    0    0    0  501 -0.00000000000E+00  0.00000000000E+00  0.23779247693E+03  0.23779247693E+03  0.00000000000E+00 0.  1.
          2   -1    0    0  501    0  0.00000000000E+00 -0.00000000000E+00 -0.14897564875E+03  0.14897564875E+03  0.00000000000E+00 0. -1.
         25    2    1    2    0    0 -0.14114587643E+03  0.70582219730E+00  0.10781800948E+03  0.21718730591E+03  0.12499178397E+03 0.  0.
         23    2    1    2    0    0  0.14114587643E+03 -0.70582219730E+00 -0.19001181301E+02  0.16958081977E+03  0.92054076090E+02 0.  0.
          5    1    4    4  502    0  0.59651009201E+02 -0.19746423346E+02 -0.49765164709E+02  0.80292127585E+02  0.47000000000E+01 0. -1.
         -5    1    4    4    0  502  0.81494867231E+02  0.19040601149E+02  0.30763983408E+02  0.89288692186E+02  0.47000000000E+01 0.  1.
          5    1    3    3  503    0 -0.60116815746E+02 -0.31214633210E+02 -0.12035795873E+02  0.68958938827E+02  0.47000000000E+01 0. -1.
         -5    1    3    3    0  503 -0.81029060686E+02  0.31920455407E+02  0.11985380535E+03  0.14822836708E+03  0.47000000000E+01 0. -1.
<mgrwt>
<rscale>  0 0.18331712E+03</rscale>
<asrwt>0</asrwt>
<pdfrwt beam="1">  1        2 0.22919331E-01 0.18853541E+03</pdfrwt>
<pdfrwt beam="2">  1       -2 0.36583458E-01 0.18853541E+03</pdfrwt>
<totfact> 0.16561336E+03</totfact>
</mgrwt>
</event>
<event>
 8    1  0.3407580E-004  0.1263241E+03  0.7546771E-02  0.1247917E+00
          2   -1    0    0  501    0  0.00000000000E+00  0.00000000000E+00  0.42987604865E+03  0.42987604865E+03  0.00000000000E+00 0.  1.
         -2   -1    0    0    0  501 -0.00000000000E+00 -0.00000000000E+00 -0.33043426443E+02  0.33043426443E+02  0.00000000000E+00 0. -1.
         25    2    1    2    0    0 -0.15096519797E+02  0.10201373272E+02  0.13473371115E+03  0.18469149859E+03  0.12500321518E+03 0.  0.
         23    2    1    2    0    0  0.15096519797E+02 -0.10201373272E+02  0.26209891106E+03  0.27822797650E+03  0.91558695937E+02 0.  0.
          5    1    4    4  502    0  0.21425112347E+02  0.21237773600E+02  0.26553701949E+02  0.40463162923E+02  0.47000000000E+01 0. -1.
         -5    1    4    4    0  502 -0.63285925501E+01 -0.31439146872E+02  0.23554520911E+03  0.23776481358E+03  0.47000000000E+01 0.  1.
          5    1    3    3  503    0 -0.42743428824E+02 -0.79619967717E+01 -0.21541878880E+01  0.43784981737E+02  0.47000000000E+01 0. -1.
         -5    1    3    3    0  503  0.27646909027E+02  0.18163370044E+02  0.13688789904E+03  0.14090651686E+03  0.47000000000E+01 0. -1.
<mgrwt>
<rscale>  0 0.11712453E+03</rscale>
<asrwt>0</asrwt>
<pdfrwt beam="1">  1        2 0.66134773E-01 0.12632409E+03</pdfrwt>
<pdfrwt beam="2">  1       -2 0.50836044E-02 0.12632409E+03</pdfrwt>
<totfact> 0.13231178E+04</totfact>
</mgrwt>
</event>
<event>
 8    1  0.3407580E-004  0.2149012E+03  0.7546771E-02  0.1141408E+00
          2   -1    0    0  501    0  0.00000000000E+00  0.00000000000E+00  0.46348551089E+03  0.46348551089E+03  0.00000000000E+00 0. -1.
         -2   -1    0    0    0  501 -0.00000000000E+00 -0.00000000000E+00 -0.91764143816E+02  0.91764143816E+02  0.00000000000E+00 0.  1.
         25    2    1    2    0    0  0.31940969076E+02 -0.17186506037E+03  0.21193502081E+03  0.30182610416E+03  0.12499887849E+03 0.  0.
         23    2    1    2    0    0 -0.31940969076E+02  0.17186506037E+03  0.15978634626E+03  0.25342355055E+03  0.90188663585E+02 0.  0.
          5    1    3    3  502    0  0.48598673632E+02 -0.67868283473E+02  0.16791490541E+03  0.18757782502E+03  0.47000000000E+01 0. -1.
         -5    1    4    4    0  503 -0.14315391184E+02  0.25427957588E+02 -0.73567525088E+01  0.30458549856E+02  0.47000000000E+01 0.  1.
          5    1    4    4  503    0 -0.17625577892E+02  0.14643710278E+03  0.16714309877E+03  0.22296500069E+03  0.47000000000E+01 0. -1.
         -5    1    3    3    0  502 -0.16657704556E+02 -0.10399677689E+03  0.44020115398E+02  0.11424827913E+03  0.47000000000E+01 0. -1.
<mgrwt>
<rscale>  0 0.21019946E+03</rscale>
<asrwt>0</asrwt>
<pdfrwt beam="1">  1        2 0.71305462E-01 0.21490124E+03</pdfrwt>
<pdfrwt beam="2">  1       -2 0.14117561E-01 0.21490124E+03</pdfrwt>
<totfact> 0.25433304E+03</totfact>
</mgrwt>
</event>
<event>
 8    1  0.3407580E-004  0.1310079E+03  0.7546771E-02  0.1239354E+00
         -3   -1    0    0    0  501 -0.00000000000E+00  0.00000000000E+00  0.57737625788E+03  0.57737625788E+03  0.00000000000E+00 0.  1.
          3   -1    0    0  501    0  0.00000000000E+00 -0.00000000000E+00 -0.23099787675E+02  0.23099787675E+02  0.00000000000E+00 0. -1.
         25    2    1    2    0    0  0.20642264857E+02 -0.33391346247E+02  0.29581039918E+03  0.32352257321E+03  0.12498791146E+03 0.  0.
         23    2    1    2    0    0 -0.20642264857E+02  0.33391346247E+02  0.25846607102E+03  0.27695347235E+03  0.91418985288E+02 0.  0.
          5    1    3    3  502    0  0.63172609000E+02 -0.38778568952E+02  0.24914462022E+03  0.25998016794E+03  0.47000000000E+01 0.  1.
         -5    1    3    3    0  502 -0.42530344143E+02  0.53872227055E+01  0.46665778963E+02  0.63542405272E+02  0.47000000000E+01 0.  1.
          5    1    4    4  503    0 -0.56416541526E+02  0.18831452505E+02  0.17432373711E+03  0.18425065829E+03  0.47000000000E+01 0.  1.
         -5    1    4    4    0  503  0.35774276668E+02  0.14559893742E+02  0.84142333915E+02  0.92702814054E+02  0.47000000000E+01 0. -1.
<mgrwt>
<rscale>  0 0.12229799E+03</rscale>
<asrwt>0</asrwt>
<pdfrwt beam="1">  1        3 0.35538139E-02 0.13100787E+03</pdfrwt>
<pdfrwt beam="2">  1       -3 0.88827106E-01 0.13100787E+03</pdfrwt>
<totfact> 0.10610934E+03</totfact>
</mgrwt>
</event>
<event>
 8    1  0.3407580E-004  0.1304595E+03  0.7546771E-02  0.1240328E+00
         -4   -1    0    0    0  501 -0.00000000000E+00  0.00000000000E+00  0.50686505591E+02  0.50686505591E+02  0.00000000000E+00 0.  1.
          4   -1    0    0  501    0  0.00000000000E+00 -0.00000000000E+00 -0.27513015323E+03  0.27513015323E+03  0.00000000000E+00 0. -1.
         25    2    1    2    0    0 -0.38871470368E+01 -0.37102628826E+02 -0.87973872473E+02  0.15735016703E+03  0.12501183083E+03 0.  0.
         23    2    1    2    0    0  0.38871470368E+01  0.37102628826E+02 -0.13646977516E+03  0.16846649179E+03  0.91461709722E+02 0.  0.
          5    1    3    3  502    0  0.46211355106E+02 -0.36278210821E+02 -0.35250338561E+01  0.59043321255E+02  0.47000000000E+01 0. -1.
         -5    1    4    4    0  503 -0.31963615454E+02  0.14735373656E+02 -0.12888013757E+02  0.37775585347E+02  0.47000000000E+01 0.  1.
          5    1    4    4  503    0  0.35850762491E+02  0.22367255170E+02 -0.12358176140E+03  0.13069090644E+03  0.47000000000E+01 0. -1.
         -5    1    3    3    0  502 -0.50098502143E+02 -0.82441800532E+00 -0.84448838617E+02  0.98306845772E+02  0.47000000000E+01 0. -1.
<mgrwt>
<rscale>  0 0.12169452E+03</rscale>
<asrwt>0</asrwt>
<pdfrwt beam="1">  1        4 0.42327717E-01 0.13045947E+03</pdfrwt>
<pdfrwt beam="2">  1       -4 0.77979238E-02 0.13045947E+03</pdfrwt>
<totfact> 0.10255654E+03</totfact>
</mgrwt>
</event>
<event>
 8    1  0.3407580E-004  0.1978159E+03  0.7546771E-02  0.1156747E+00
         -1   -1    0    0    0  501 -0.00000000000E+00  0.00000000000E+00  0.48976802276E+02  0.48976802276E+02  0.00000000000E+00 0.  1.
          1   -1    0    0  501    0  0.00000000000E+00 -0.00000000000E+00 -0.72171785556E+03  0.72171785556E+03  0.00000000000E+00 0. -1.
         25    2    1    2    0    0  0.14788787369E+03  0.40442688337E+02 -0.40459849680E+03  0.45036769127E+03  0.12499871801E+03 0.  0.
         23    2    1    2    0    0 -0.14788787369E+03 -0.40442688337E+02 -0.26814255649E+03  0.32032696657E+03  0.84867547912E+02 0.  0.
          5    1    3    3  502    0  0.14262616331E+03  0.75149395000E+02 -0.31184814936E+03  0.35108547719E+03  0.47000000000E+01 0.  1.
         -5    1    4    4    0  503 -0.12080618803E+03 -0.13509632580E+02 -0.13495279211E+03  0.18168927139E+03  0.47000000000E+01 0.  1.
          5    1    4    4  503    0 -0.27081685654E+02 -0.26933055756E+02 -0.13318976438E+03  0.13863769518E+03  0.47000000000E+01 0. -1.
         -5    1    3    3    0  502  0.52617103705E+01 -0.34706706664E+02 -0.92750347435E+02  0.99282214081E+02  0.47000000000E+01 0.  1.
<mgrwt>
<rscale>  0 0.19191279E+03</rscale>
<asrwt>0</asrwt>
<pdfrwt beam="1">  1        1 0.11103351E+00 0.19781586E+03</pdfrwt>
<pdfrwt beam="2">  1       -1 0.75348928E-02 0.19781586E+03</pdfrwt>
<totfact> 0.25227463E+03</totfact>
</mgrwt>
</event>
<event>
 8    1  0.3407580E-004  0.1433876E+03  0.7546771E-02  0.1219521E+00
          3   -1    0    0  501    0  0.00000000000E+00  0.00000000000E+00  0.26791381108E+03  0.26791381108E+03  0.00000000000E+00 0. -1.
         -3   -1    0    0    0  501 -0.00000000000E+00 -0.00000000000E+00 -0.88117193657E+02  0.88117193657E+02  0.00000000000E+00 0.  1.
         25    2    1    2    0    0 -0.69278679411E+02  0.11518917633E+02  0.19354626237E+03  0.24087375913E+03  0.12501116461E+03 0.  0.
         23    2    1    2    0    0  0.69278679411E+02 -0.11518917633E+02 -0.13749644939E+02  0.11515724561E+03  0.90221491875E+02 0.  0.
          5    1    3    3  502    0 -0.95628890948E+02  0.21223697720E+02  0.88702436982E+02  0.13223290988E+03  0.47000000000E+01 0. -1.
         -5    1    3    3    0  502  0.26350211538E+02 -0.97047800875E+01  0.10484382539E+03  0.10864084925E+03  0.47000000000E+01 0. -1.
          5    1    4    4  503    0  0.27655116268E+02  0.26251650129E+02  0.25792960705E+02  0.46274414230E+02  0.47000000000E+01 0. -1.
         -5    1    4    4    0  503  0.41623563142E+02 -0.37770567762E+02 -0.39542605645E+02  0.68882831380E+02  0.47000000000E+01 0.  1.
<mgrwt>
<rscale>  0 0.13549619E+03</rscale>
<asrwt>0</asrwt>
<pdfrwt beam="1">  1        3 0.41217509E-01 0.14338763E+03</pdfrwt>
<pdfrwt beam="2">  1       -3 0.13556491E-01 0.14338763E+03</pdfrwt>
<totfact> 0.60408240E+02</totfact>
</mgrwt>
</event>
<event>
 8    1  0.3407580E-004  0.1268186E+03  0.7546771E-02  0.1246610E+00
         -1   -1    0    0    0  501 -0.00000000000E+00  0.00000000000E+00  0.95676854907E+02  0.95676854907E+02  0.00000000000E+00 0.  1.
          1   -1    0    0  501    0  0.00000000000E+00 -0.00000000000E+00 -0.12853002194E+03  0.12853002194E+03  0.00000000000E+00 0. -1.
         25    2    1    2    0    0 -0.94044558575E+01  0.19218483744E+02 -0.24048693023E+02  0.12907865307E+03  0.12500066053E+03 0.  0.
         23    2    1    2    0    0  0.94044558575E+01 -0.19218483744E+02 -0.88044740140E+01  0.95128223785E+02  0.92271698209E+02 0.  0.
          5    1    3    3  502    0  0.52433732842E+02  0.11996871710E+02  0.14237322548E+02  0.55839167471E+02  0.47000000000E+01 0.  1.
         -5    1    4    4    0  503  0.13249897079E+02  0.36105042211E+02 -0.74533799376E+01  0.39456009912E+02  0.47000000000E+01 0.  1.
          5    1    4    4  503    0 -0.38454412219E+01 -0.55323525955E+02 -0.13510940764E+01  0.55672213873E+02  0.47000000000E+01 0. -1.
         -5    1    3    3    0  502 -0.61838188699E+02  0.72216120341E+01 -0.38286015572E+02  0.73239485596E+02  0.47000000000E+01 0.  1.
<mgrwt>
<rscale>  0 0.11789559E+03</rscale>
<asrwt>0</asrwt>
<pdfrwt beam="1">  1        1 0.19773850E-01 0.12681861E+03</pdfrwt>
<pdfrwt beam="2">  1       -1 0.14719516E-01 0.12681861E+03</pdfrwt>
<totfact> 0.80689863E+03</totfact>
</mgrwt>
</event>
<event>
 8    1  0.3407580E-004  0.1486874E+03  0.7546771E-02  0.1209495E+00
         -2   -1    0    0    0  501 -0.00000000000E+00  0.00000000000E+00  0.23369325051E+02  0.23369325051E+02  0.00000000000E+00 0.  1.
          2   -1    0    0  501    0  0.00000000000E+00 -0.00000000000E+00 -0.12290670567E+04  0.12290670567E+04  0.00000000000E+00 0. -1.
         25    2    1    2    0    0  0.80187819895E+02 -0.72442112731E+01 -0.27042576035E+03  0.30860660801E+03  0.12500152636E+03 0.  0.
         23    2    1    2    0    0 -0.80187819895E+02  0.72442112731E+01 -0.93527197131E+03  0.94382977375E+03  0.97971508313E+02 0.  0.
          5    1    3    3  502    0  0.65881068617E+02 -0.62503510343E+02 -0.17777098503E+03  0.19967878487E+03  0.47000000000E+01 0. -1.
         -5    1    4    4    0  503 -0.50527699542E+02 -0.44105603907E+02 -0.47841453609E+03  0.48311583607E+03  0.47000000000E+01 0.  1.
          5    1    4    4  503    0 -0.29660120352E+02  0.51349815181E+02 -0.45685743522E+03  0.46071393768E+03  0.47000000000E+01 0. -1.
         -5    1    3    3    0  502  0.14306751278E+02  0.55259299070E+02 -0.92654775318E+02  0.10892782314E+03  0.47000000000E+01 0. -1.
<mgrwt>
<rscale>  0 0.14288766E+03</rscale>
<asrwt>0</asrwt>
<pdfrwt beam="1">  1        2 0.18908724E+00 0.14868741E+03</pdfrwt>
<pdfrwt beam="2">  1       -2 0.35952809E-02 0.14868741E+03</pdfrwt>
<totfact> 0.60911977E+03</totfact>
</mgrwt>
</event>
<event>
 8    1  0.3407580E-004  0.1377894E+03  0.7546771E-02  0.1228507E+00
         -1   -1    0    0    0  501 -0.00000000000E+00  0.00000000000E+00  0.10564131048E+03  0.10564131048E+03  0.00000000000E+00 0.  1.
          1   -1    0    0  501    0  0.00000000000E+00 -0.00000000000E+00 -0.14351741479E+03  0.14351741479E+03  0.00000000000E+00 0. -1.
         25    2    1    2    0    0  0.17915351159E+02 -0.55128900187E+02 -0.70156673849E+01  0.13796791969E+03  0.12500308729E+03 0.  0.
         23    2    1    2    0    0 -0.17915351159E+02  0.55128900187E+02 -0.30860436930E+02  0.11119080558E+03  0.89726658442E+02 0.  0.
          5    1    3    3  502    0  0.14863712827E+02 -0.88957889145E+02 -0.31702142943E+02  0.95715995881E+02  0.47000000000E+01 0.  1.
         -5    1    4    4    0  503 -0.41779193840E+02  0.66548516472E+02 -0.15459266897E+02  0.80220228220E+02  0.47000000000E+01 0.  1.
          5    1    4    4  503    0  0.23863842681E+02 -0.11419616286E+02 -0.15401170033E+02  0.30970577360E+02  0.47000000000E+01 0. -1.
         -5    1    3    3    0  502  0.30516383314E+01  0.33828988959E+02  0.24686475558E+02  0.42251923814E+02  0.47000000000E+01 0.  1.
<mgrwt>
<rscale>  0 0.12929375E+03</rscale>
<asrwt>0</asrwt>
<pdfrwt beam="1">  1        1 0.22079602E-01 0.13778943E+03</pdfrwt>
<pdfrwt beam="2">  1       -1 0.16252509E-01 0.13778943E+03</pdfrwt>
<totfact> 0.60421216E+03</totfact>
</mgrwt>
</event>
<event>
 8    1  0.3407580E-004  0.1267007E+03  0.7546771E-02  0.1249097E+00
          2   -1    0    0  501    0  0.00000000000E+00  0.00000000000E+00  0.99512112500E+02  0.99512112500E+02  0.00000000000E+00 0. -1.
         -2   -1    0    0    0  501 -0.00000000000E+00 -0.00000000000E+00 -0.12419410713E+03  0.12419410713E+03  0.00000000000E+00 0.  1.
         25    2    1    2    0    0  0.18668710798E+01  0.20578361401E+02  0.95866523350E+01  0.12706290663E+03  0.12500449661E+03 0.  0.
         23    2    1    2    0    0 -0.18668710798E+01 -0.20578361401E+02 -0.34268646964E+02  0.96643313000E+02  0.87969515273E+02 0.  0.
          5    1    4    4  502    0  0.26552705865E+02  0.20897655031E+02  0.24560847566E+01  0.34203516294E+02  0.47000000000E+01 0. -1.
         -5    1    4    4    0  502 -0.28419576945E+02 -0.41476016432E+02 -0.36724731720E+02  0.62439796706E+02  0.47000000000E+01 0.  1.
          5    1    3    3  503    0 -0.10303617349E+00  0.73043276913E+02  0.12573534881E+02  0.74266511282E+02  0.47000000000E+01 0. -1.
         -5    1    3    3    0  503  0.19699072533E+01 -0.52464915512E+02 -0.29868825458E+01  0.52796395346E+02  0.47000000000E+01 0. -1.
<mgrwt>
<rscale>  0 0.11643480E+03</rscale>
<asrwt>0</asrwt>
<pdfrwt beam="1">  1        2 0.15309556E-01 0.12670074E+03</pdfrwt>
<pdfrwt beam="2">  1       -2 0.19106786E-01 0.12670074E+03</pdfrwt>
<totfact> 0.81145896E+03</totfact>
</mgrwt>
</event>
<event>
 8    1  0.3407580E-004  0.1679011E+03  0.7546771E-02  0.1186795E+00
         -1   -1    0    0    0  501 -0.00000000000E+00  0.00000000000E+00  0.18259533018E+03  0.18259533018E+03  0.00000000000E+00 0.  1.
          1   -1    0    0  501    0  0.00000000000E+00 -0.00000000000E+00 -0.19675336444E+03  0.19675336444E+03  0.00000000000E+00 0. -1.
         25    2    1    2    0    0 -0.51803279716E+02  0.99409770497E+02  0.99849703509E+02  0.19534774481E+03  0.12499958341E+03 0.  0.
         23    2    1    2    0    0  0.51803279716E+02 -0.99409770497E+02 -0.11400773777E+03  0.18400094981E+03  0.91064279486E+02 0.  0.
          5    1    4    4  502    0  0.30106936832E+02 -0.54724103329E+01 -0.72683360916E+02  0.79002125758E+02  0.47000000000E+01 0. -1.
         -5    1    4    4    0  502  0.21696342884E+02 -0.93937360164E+02 -0.41324376857E+02  0.10499882405E+03  0.47000000000E+01 0.  1.
          5    1    3    3  503    0 -0.53204088994E+02  0.12694587552E+03  0.94077006295E+02  0.16678879911E+03  0.47000000000E+01 0.  1.
         -5    1    3    3    0  503  0.14008092776E+01 -0.27536105019E+02  0.57726972141E+01  0.28558945698E+02  0.47000000000E+01 0.  1.
<mgrwt>
<rscale>  0 0.16169655E+03</rscale>
<asrwt>0</asrwt>
<pdfrwt beam="1">  1        1 0.30269748E-01 0.16790110E+03</pdfrwt>
<pdfrwt beam="2">  1       -1 0.28091590E-01 0.16790110E+03</pdfrwt>
<totfact> 0.16884092E+03</totfact>
</mgrwt>
</event>
<event>
 8    1  0.3407580E-004  0.1591139E+03  0.7546771E-02  0.1197465E+00
          1   -1    0    0  501    0  0.00000000000E+00  0.00000000000E+00  0.84205519258E+02  0.84205519258E+02  0.00000000000E+00 0. -1.
         -1   -1    0    0    0  501 -0.00000000000E+00 -0.00000000000E+00 -0.35770195474E+03  0.35770195474E+03  0.00000000000E+00 0.  1.
         25    2    1    2    0    0  0.82994661798E+02 -0.52949274353E+02 -0.26292128113E+03  0.30731876127E+03  0.12500192566E+03 0.  0.
         23    2    1    2    0    0 -0.82994661798E+02  0.52949274353E+02 -0.10575154353E+02  0.13458871272E+03  0.91162207968E+02 0.  0.
          5    1    3    3  502    0  0.32812423366E+02  0.35842438271E+01  0.37798457666E+00  0.33342687404E+02  0.47000000000E+01 0. -1.
         -5    1    3    3    0  502  0.50182238432E+02 -0.56533518180E+02 -0.26329926570E+03  0.27397607387E+03  0.47000000000E+01 0. -1.
          5    1    4    4  503    0 -0.49513633069E+02  0.22697186245E+02  0.39176094928E+02  0.67257851117E+02  0.47000000000E+01 0. -1.
         -5    1    4    4    0  503 -0.33481028730E+02  0.30252088108E+02 -0.49751249281E+02  0.67330861607E+02  0.47000000000E+01 0.  1.
<mgrwt>
<rscale>  0 0.15247441E+03</rscale>
<asrwt>0</asrwt>
<pdfrwt beam="1">  1        1 0.12954695E-01 0.15911386E+03</pdfrwt>
<pdfrwt beam="2">  1       -1 0.55031072E-01 0.15911386E+03</pdfrwt>
<totfact> 0.15281566E+03</totfact>
</mgrwt>
</event>
<event>
 8    1  0.3407580E-004  0.1882260E+03  0.7546771E-02  0.1164897E+00
          1   -1    0    0  501    0  0.00000000000E+00  0.00000000000E+00  0.22411314076E+03  0.22411314076E+03  0.00000000000E+00 0. -1.
         -1   -1    0    0    0  501 -0.00000000000E+00 -0.00000000000E+00 -0.15658322554E+03  0.15658322554E+03  0.00000000000E+00 0.  1.
         25    2    1    2    0    0  0.13203347982E+03 -0.48676611553E+02 -0.22934627043E+02  0.18961814506E+03  0.12500716584E+03 0.  0.
         23    2    1    2    0    0 -0.13203347982E+03  0.48676611553E+02  0.90464542263E+02  0.19107822124E+03  0.92329848476E+02 0.  0.
          5    1    4    4  502    0 -0.29906023922E+02  0.54994561398E+02  0.52508682927E+02  0.81841455467E+02  0.47000000000E+01 0. -1.
         -5    1    3    3    0  503  0.42277608484E+02 -0.70608556332E+02 -0.45823853579E+02  0.94312671276E+02  0.47000000000E+01 0. -1.
          5    1    3    3  503    0  0.89755871337E+02  0.21931944779E+02  0.22889226536E+02  0.95305473781E+02  0.47000000000E+01 0. -1.
         -5    1    4    4    0  502 -0.10212745590E+03 -0.63179498457E+01  0.37955859336E+02  0.10923676577E+03  0.47000000000E+01 0.  1.
<mgrwt>
<rscale>  0 0.18303534E+03</rscale>
<asrwt>0</asrwt>
<pdfrwt beam="1">  1        1 0.34478945E-01 0.18822604E+03</pdfrwt>
<pdfrwt beam="2">  1       -1 0.24089727E-01 0.18822604E+03</pdfrwt>
<totfact> 0.18581423E+03</totfact>
</mgrwt>
</event>
<event>
 8    1  0.3407580E-004  0.1442028E+03  0.7546771E-02  0.1219467E+00
          2   -1    0    0  501    0  0.00000000000E+00  0.00000000000E+00  0.87975567381E+02  0.87975567381E+02  0.00000000000E+00 0. -1.
         -2   -1    0    0    0  501 -0.00000000000E+00 -0.00000000000E+00 -0.23600553722E+03  0.23600553722E+03  0.00000000000E+00 0.  1.
         25    2    1    2    0    0  0.71029953788E+02  0.11146916604E+02 -0.81212525509E+01  0.14443134084E+03  0.12499979755E+03 0.  0.
         23    2    1    2    0    0 -0.71029953788E+02 -0.11146916604E+02 -0.13990871728E+03  0.17954976376E+03  0.86568818917E+02 0.  0.
          5    1    4    4  502    0 -0.31999072717E+02  0.34104691160E+02 -0.34556277173E+02  0.58337782833E+02  0.47000000000E+01 0. -1.
         -5    1    4    4    0  502 -0.39030881071E+02 -0.45251607764E+02 -0.10535244011E+03  0.12121198092E+03  0.47000000000E+01 0.  1.
          5    1    3    3  503    0  0.38493186740E+02 -0.52805074453E+02  0.17974391265E+02  0.67935778900E+02  0.47000000000E+01 0. -1.
         -5    1    3    3    0  503  0.32536767048E+02  0.63951991057E+02 -0.26095643816E+02  0.76495561939E+02  0.47000000000E+01 0. -1.
<mgrwt>
<rscale>  0 0.13553463E+03</rscale>
<asrwt>0</asrwt>
<pdfrwt beam="1">  1        2 0.13534703E-01 0.14420283E+03</pdfrwt>
<pdfrwt beam="2">  1       -2 0.36308544E-01 0.14420283E+03</pdfrwt>
<totfact> 0.30495072E+03</totfact>
</mgrwt>
</event>
<event>
 8    1  0.3407580E-004  0.1290278E+03  0.7546771E-02  0.1243654E+00
          1   -1    0    0  501    0  0.00000000000E+00  0.00000000000E+00  0.31669720710E+02  0.31669720710E+02  0.00000000000E+00 0. -1.
         -1   -1    0    0    0  501 -0.00000000000E+00 -0.00000000000E+00 -0.42943555236E+03  0.42943555236E+03  0.00000000000E+00 0.  1.
         25    2    1    2    0    0  0.31337270200E+02  0.63847957750E+01 -0.16450249615E+03  0.20906757628E+03  0.12500156036E+03 0.  0.
         23    2    1    2    0    0 -0.31337270200E+02 -0.63847957750E+01 -0.23326333550E+03  0.25203769679E+03  0.89935681422E+02 0.  0.
          5    1    3    3  502    0 -0.33472413221E+02  0.67202901354E+01 -0.13197487039E+03  0.13640022419E+03  0.47000000000E+01 0.  1.
         -5    1    4    4    0  503 -0.58942587822E+02 -0.13311872792E+02 -0.19446035824E+03  0.20368690568E+03  0.47000000000E+01 0.  1.
          5    1    4    4  503    0  0.27605317622E+02  0.69270770171E+01 -0.38802977261E+02  0.48350791114E+02  0.47000000000E+01 0. -1.
         -5    1    3    3    0  502  0.64809683421E+02 -0.33549436033E+00 -0.32527625759E+02  0.72667352086E+02  0.47000000000E+01 0.  1.
<mgrwt>
<rscale>  0 0.11966292E+03</rscale>
<asrwt>0</asrwt>
<pdfrwt beam="1">  1        1 0.48722649E-02 0.12902783E+03</pdfrwt>
<pdfrwt beam="2">  1       -1 0.66067006E-01 0.12902783E+03</pdfrwt>
<totfact> 0.39678370E+03</totfact>
</mgrwt>
</event>
<event>
 8    1  0.3407580E-004  0.2584640E+03  0.7546771E-02  0.1110453E+00
          1   -1    0    0  501    0  0.00000000000E+00  0.00000000000E+00  0.17902874236E+03  0.17902874236E+03  0.00000000000E+00 0. -1.
         -1   -1    0    0    0  501 -0.00000000000E+00 -0.00000000000E+00 -0.41351932588E+03  0.41351932588E+03  0.00000000000E+00 0.  1.
         25    2    1    2    0    0  0.11225190527E+03  0.19640980002E+03 -0.23500206008E+03  0.34932735731E+03  0.12500533807E+03 0.  0.
         23    2    1    2    0    0 -0.11225190527E+03 -0.19640980002E+03  0.51147655076E+00  0.24322071093E+03  0.89323864865E+02 0.  0.
          5    1    3    3  502    0  0.22607318828E+02  0.96411729355E+02 -0.28860369959E+02  0.10325368456E+03  0.47000000000E+01 0.  1.
         -5    1    3    3    0  502  0.89644586438E+02  0.99998070666E+02 -0.20614169012E+03  0.24607367275E+03  0.47000000000E+01 0.  1.
          5    1    4    4  503    0 -0.14826270910E+02 -0.60455187997E+02  0.36160184829E+02  0.72140813911E+02  0.47000000000E+01 0. -1.
         -5    1    4    4    0  503 -0.97425634357E+02 -0.13595461202E+03 -0.35648708279E+02  0.17107989701E+03  0.47000000000E+01 0.  1.
<mgrwt>
<rscale>  0 0.25456573E+03</rscale>
<asrwt>0</asrwt>
<pdfrwt beam="1">  1        1 0.27542884E-01 0.25846399E+03</pdfrwt>
<pdfrwt beam="2">  1       -1 0.63618358E-01 0.25846399E+03</pdfrwt>
<totfact> 0.43990852E+02</totfact>
</mgrwt>
</event>
<event>
 8    1  0.3407580E-004  0.1457255E+03  0.7546771E-02  0.1215852E+00
          3   -1    0    0  501    0  0.00000000000E+00  0.00000000000E+00  0.46307384495E+03  0.46307384495E+03  0.00000000000E+00 0. -1.
         -3   -1    0    0    0  501 -0.00000000000E+00 -0.00000000000E+00 -0.37879727788E+02  0.37879727788E+02  0.00000000000E+00 0.  1.
         25    2    1    2    0    0  0.52119133721E+02 -0.53805044158E+02  0.26130702698E+03  0.29919440958E+03  0.12499818198E+03 0.  0.
         23    2    1    2    0    0 -0.52119133721E+02  0.53805044158E+02  0.16388709018E+03  0.20175916315E+03  0.90754585075E+02 0.  0.
          5    1    4    4  502    0  0.58015509663E+00  0.45745282914E+02  0.13124936031E+03  0.13907354914E+03  0.47000000000E+01 0. -1.
         -5    1    3    3    0  503  0.86334662436E+02 -0.65159397734E+02  0.17865058516E+03  0.20889600913E+03  0.47000000000E+01 0. -1.
          5    1    3    3  503    0 -0.34215528715E+02  0.11354353576E+02  0.82656441824E+02  0.90298400458E+02  0.47000000000E+01 0. -1.
         -5    1    4    4    0  502 -0.52699288818E+02  0.80597612442E+01  0.32637729871E+02  0.62685614014E+02  0.47000000000E+01 0.  1.
<mgrwt>
<rscale>  0 0.13814153E+03</rscale>
<asrwt>0</asrwt>
<pdfrwt beam="1">  1        3 0.71242126E-01 0.14572554E+03</pdfrwt>
<pdfrwt beam="2">  1       -3 0.58276508E-02 0.14572554E+03</pdfrwt>
<totfact> 0.79951304E+02</totfact>
</mgrwt>
</event>
<event>
 8    1  0.3407580E-004  0.2005494E+03  0.7546771E-02  0.1154334E+00
         -1   -1    0    0    0  501 -0.00000000000E+00  0.00000000000E+00  0.39002339972E+02  0.39002339972E+02  0.00000000000E+00 0.  1.
          1   -1    0    0  501    0  0.00000000000E+00 -0.00000000000E+00 -0.92608648133E+03  0.92608648133E+03  0.00000000000E+00 0. -1.
         25    2    1    2    0    0 -0.95072579511E+01 -0.15654136536E+03 -0.51371362473E+03  0.55147234638E+03  0.12499789428E+03 0.  0.
         23    2    1    2    0    0  0.95072579511E+01  0.15654136536E+03 -0.37337051663E+03  0.41361647492E+03  0.84127632867E+02 0.  0.
          5    1    4    4  502    0 -0.28844874539E+02  0.33144184291E+02 -0.59172145818E+02  0.73851178597E+02  0.47000000000E+01 0. -1.
         -5    1    3    3    0  503 -0.51897371139E+02 -0.14780370533E+03 -0.38930786728E+03  0.41966889088E+03  0.47000000000E+01 0. -1.
          5    1    3    3  503    0  0.42390113188E+02 -0.87376600285E+01 -0.12440575744E+03  0.13180345551E+03  0.47000000000E+01 0. -1.
         -5    1    4    4    0  502  0.38352132490E+02  0.12339718107E+03 -0.31419837081E+03  0.33976529632E+03  0.47000000000E+01 0.  1.
<mgrwt>
<rscale>  0 0.19464903E+03</rscale>
<asrwt>0</asrwt>
<pdfrwt beam="1">  1        1 0.14247485E+00 0.20054940E+03</pdfrwt>
<pdfrwt beam="2">  1       -1 0.60003598E-02 0.20054940E+03</pdfrwt>
<totfact> 0.24210339E+03</totfact>
</mgrwt>
</event>
<event>
 8    1  0.3407580E-004  0.1384532E+03  0.7546771E-02  0.1226562E+00
          1   -1    0    0  501    0  0.00000000000E+00  0.00000000000E+00  0.33979565740E+03  0.33979565740E+03  0.00000000000E+00 0. -1.
         -1   -1    0    0    0  501 -0.00000000000E+00 -0.00000000000E+00 -0.45973947193E+02  0.45973947193E+02  0.00000000000E+00 0.  1.
         25    2    1    2    0    0  0.54855076370E+02  0.23159570545E+02  0.18726502603E+03  0.23288940050E+03  0.12499535104E+03 0.  0.
         23    2    1    2    0    0 -0.54855076370E+02 -0.23159570545E+02  0.10655668418E+03  0.15288020409E+03  0.92046644418E+02 0.  0.
          5    1    4    4  502    0 -0.70769220203E+02 -0.43501145088E+02  0.84576827588E+02  0.11864215910E+03  0.47000000000E+01 0. -1.
         -5    1    3    3    0  503  0.64938235339E+02 -0.33162366137E+02  0.14231293379E+03  0.15997430437E+03  0.47000000000E+01 0.  1.
          5    1    3    3  503    0 -0.10083158969E+02  0.56321936682E+02  0.44952092242E+02  0.72915096128E+02  0.47000000000E+01 0.  1.
         -5    1    4    4    0  502  0.15914143833E+02  0.20341574542E+02  0.21979856590E+02  0.34238044987E+02  0.47000000000E+01 0.  1.
<mgrwt>
<rscale>  0 0.13060396E+03</rscale>
<asrwt>0</asrwt>
<pdfrwt beam="1">  1        1 0.52276253E-01 0.13845318E+03</pdfrwt>
<pdfrwt beam="2">  1       -1 0.70729152E-02 0.13845318E+03</pdfrwt>
<totfact> 0.74147282E+03</totfact>
</mgrwt>
</event>
<event>
 8    1  0.3407580E-004  0.1402026E+03  0.7546771E-02  0.1222290E+00
         -2   -1    0    0    0  501 -0.00000000000E+00  0.00000000000E+00  0.10628878768E+04  0.10628878768E+04  0.00000000000E+00 0. -1.
          2   -1    0    0  501    0  0.00000000000E+00 -0.00000000000E+00 -0.16406539095E+02  0.16406539095E+02  0.00000000000E+00 0.  1.
         25    2    1    2    0    0 -0.59395100437E+02  0.22432840842E+02  0.70598903649E+03  0.71977586756E+03  0.12500307826E+03 0.  0.
         23    2    1    2    0    0  0.59395100437E+02 -0.22432840842E+02  0.34049230120E+03  0.35951854832E+03  0.96372034869E+02 0.  0.
          5    1    4    4  502    0  0.24347882955E+02 -0.25731267352E+02  0.31185699728E+03  0.31389774494E+03  0.47000000000E+01 0. -1.
         -5    1    4    4    0  502  0.35047217482E+02  0.32984265099E+01  0.28635303922E+02  0.45620803384E+02  0.47000000000E+01 0.  1.
          5    1    3    3  503    0  0.16568079296E+02 -0.33364972659E+02  0.10696398259E+03  0.11336271972E+03  0.47000000000E+01 0.  1.
         -5    1    3    3    0  503 -0.75963179733E+02  0.55797813501E+02  0.59902505391E+03  0.60641314784E+03  0.47000000000E+01 0.  1.
<mgrwt>
<rscale>  0 0.13354400E+03</rscale>
<asrwt>0</asrwt>
<pdfrwt beam="1">  1        2 0.25240838E-02 0.14020264E+03</pdfrwt>
<pdfrwt beam="2">  1       -2 0.16352116E+00 0.14020264E+03</pdfrwt>
<totfact> 0.97293432E+02</totfact>
</mgrwt>
</event>
<event>
 8    1  0.3407580E-004  0.1277564E+03  0.7546771E-02  0.1245759E+00
         -1   -1    0    0    0  501 -0.00000000000E+00  0.00000000000E+00  0.15825530276E+03  0.15825530276E+03  0.00000000000E+00 0.  1.
          1   -1    0    0  501    0  0.00000000000E+00 -0.00000000000E+00 -0.93968540321E+02  0.93968540321E+02  0.00000000000E+00 0. -1.
         25    2    1    2    0    0  0.24759273305E+02  0.90767171490E+01 -0.15560706037E+02  0.12870059762E+03  0.12500519928E+03 0.  0.
         23    2    1    2    0    0 -0.24759273305E+02 -0.90767171490E+01  0.79847468481E+02  0.12352324547E+03  0.90481851987E+02 0.  0.
          5    1    4    4  502    0 -0.42272901729E+02 -0.37616978700E+02  0.32764806038E+02  0.65556523870E+02  0.47000000000E+01 0. -1.
         -5    1    3    3    0  503 -0.26216734970E+02  0.25920711841E+02 -0.51802546610E+02  0.63755739586E+02  0.47000000000E+01 0. -1.
          5    1    3    3  503    0  0.50976008275E+02 -0.16843994692E+02  0.36241840572E+02  0.64944858033E+02  0.47000000000E+01 0. -1.
         -5    1    4    4    0  502  0.17513628424E+02  0.28540261551E+02  0.47082662443E+02  0.57966721597E+02  0.47000000000E+01 0.  1.
<mgrwt>
<rscale>  0 0.11840042E+03</rscale>
<asrwt>0</asrwt>
<pdfrwt beam="1">  1        1 0.14456699E-01 0.12775644E+03</pdfrwt>
<pdfrwt beam="2">  1       -1 0.24346970E-01 0.12775644E+03</pdfrwt>
<totfact> 0.54031869E+03</totfact>
</mgrwt>
</event>
<event>
 8    1  0.3407580E-004  0.1619648E+03  0.7546771E-02  0.1192771E+00
         -1   -1    0    0    0  501 -0.00000000000E+00  0.00000000000E+00  0.10224619202E+03  0.10224619202E+03  0.00000000000E+00 0.  1.
          1   -1    0    0  501    0  0.00000000000E+00 -0.00000000000E+00 -0.24189366084E+03  0.24189366084E+03  0.00000000000E+00 0. -1.
         25    2    1    2    0    0 -0.87056517524E+02  0.55030424584E+02 -0.28146809970E+02  0.16439231632E+03  0.12500162351E+03 0.  0.
         23    2    1    2    0    0  0.87056517524E+02 -0.55030424584E+02 -0.11150065885E+03  0.17974753654E+03  0.96278736461E+02 0.  0.
          5    1    4    4  502    0  0.24649457902E+02  0.33624141168E+01 -0.87155001458E+02  0.90757841990E+02  0.47000000000E+01 0. -1.
         -5    1    4    4    0  502  0.62407059623E+02 -0.58392838700E+02 -0.24345657395E+02  0.88989694551E+02  0.47000000000E+01 0.  1.
          5    1    3    3  503    0 -0.36398900713E+02  0.76390828777E+02 -0.56991617489E+02  0.10213017751E+03  0.47000000000E+01 0.  1.
         -5    1    3    3    0  503 -0.50657616811E+02 -0.21360404194E+02  0.28844807519E+02  0.62262138809E+02  0.47000000000E+01 0.  1.
<mgrwt>
<rscale>  0 0.15644392E+03</rscale>
<asrwt>0</asrwt>
<pdfrwt beam="1">  1        1 0.37214409E-01 0.16196478E+03</pdfrwt>
<pdfrwt beam="2">  1       -1 0.15730184E-01 0.16196478E+03</pdfrwt>
<totfact> 0.33404405E+03</totfact>
</mgrwt>
</event>
<event>
 8    1  0.3407580E-004  0.1326097E+03  0.7546771E-02  0.1234972E+00
          2   -1    0    0  501    0  0.00000000000E+00  0.00000000000E+00  0.58099724519E+03  0.58099724519E+03  0.00000000000E+00 0. -1.
         -2   -1    0    0    0  501 -0.00000000000E+00 -0.00000000000E+00 -0.24680989156E+02  0.24680989156E+02  0.00000000000E+00 0.  1.
         25    2    1    2    0    0  0.24682098334E+02 -0.36752581724E+02  0.27142513632E+03  0.30208761519E+03  0.12500145751E+03 0.  0.
         23    2    1    2    0    0 -0.24682098334E+02  0.36752581724E+02  0.28489111971E+03  0.30359061916E+03  0.95101817591E+02 0.  0.
          5    1    3    3  502    0  0.72922769747E+02 -0.41171570732E+02  0.17628637327E+03  0.19522244744E+03  0.47000000000E+01 0. -1.
         -5    1    4    4    0  503 -0.41745755132E+02  0.50164941352E+02  0.11546882095E+03  0.13271913210E+03  0.47000000000E+01 0.  1.
          5    1    4    4  503    0  0.17063656798E+02 -0.13412359628E+02  0.16942229875E+03  0.17087148706E+03  0.47000000000E+01 0. -1.
         -5    1    3    3    0  502 -0.48240671413E+02  0.44189890080E+01  0.95138763058E+02  0.10686516775E+03  0.47000000000E+01 0. -1.
<mgrwt>
<rscale>  0 0.12506240E+03</rscale>
<asrwt>0</asrwt>
<pdfrwt beam="1">  1        2 0.89384181E-01 0.13260966E+03</pdfrwt>
<pdfrwt beam="2">  1       -2 0.37970757E-02 0.13260966E+03</pdfrwt>
<totfact> 0.14742994E+04</totfact>
</mgrwt>
</event>
<event>
 8    1  0.3407580E-004  0.1270190E+03  0.7546771E-02  0.1248498E+00
          1   -1    0    0  501    0  0.00000000000E+00  0.00000000000E+00  0.73176768319E+03  0.73176768319E+03  0.00000000000E+00 0. -1.
         -1   -1    0    0    0  501 -0.00000000000E+00 -0.00000000000E+00 -0.16432739744E+02  0.16432739744E+02  0.00000000000E+00 0.  1.
         25    2    1    2    0    0 -0.21068196392E+02 -0.77628087991E+01  0.45986234063E+03  0.47708196117E+03  0.12501877958E+03 0.  0.
         23    2    1    2    0    0  0.21068196392E+02  0.77628087991E+01  0.25547260282E+03  0.27111846176E+03  0.87947935842E+02 0.  0.
          5    1    3    3  502    0 -0.31619853879E+02 -0.59068539604E+02  0.17581185282E+03  0.18820415809E+03  0.47000000000E+01 0. -1.
         -5    1    4    4    0  503  0.48169986911E+02  0.16821681111E+02  0.21698421900E+03  0.22295191834E+03  0.47000000000E+01 0. -1.
          5    1    4    4  503    0 -0.27101790519E+02 -0.90588723120E+01  0.38488383817E+02  0.48166543427E+02  0.47000000000E+01 0.  1.
         -5    1    3    3    0  502  0.10551657487E+02  0.51305730805E+02  0.28405048781E+03  0.28887780308E+03  0.47000000000E+01 0. -1.
<mgrwt>
<rscale>  0 0.11678461E+03</rscale>
<asrwt>0</asrwt>
<pdfrwt beam="1">  1        1 0.11257962E+00 0.12701900E+03</pdfrwt>
<pdfrwt beam="2">  1       -1 0.25281144E-02 0.12701900E+03</pdfrwt>
<totfact> 0.12192175E+04</totfact>
</mgrwt>
</event>
<event>
 8    1  0.3407580E-004  0.2283915E+03  0.7546771E-02  0.1130839E+00
         -1   -1    0    0    0  501 -0.00000000000E+00  0.00000000000E+00  0.75472021570E+03  0.75472021570E+03  0.00000000000E+00 0.  1.
          1   -1    0    0  501    0  0.00000000000E+00 -0.00000000000E+00 -0.66470901001E+02  0.66470901001E+02  0.00000000000E+00 0. -1.
         25    2    1    2    0    0  0.77907291417E+02  0.17455233346E+03  0.28067125980E+03  0.36185497519E+03  0.12499841526E+03 0.  0.
         23    2    1    2    0    0 -0.77907291417E+02 -0.17455233346E+03  0.40757805490E+03  0.45933614151E+03  0.91278457987E+02 0.  0.
          5    1    3    3  502    0 -0.17073988119E+02  0.58727987022E+02  0.15351470094E+03  0.16531591252E+03  0.47000000000E+01 0.  1.
         -5    1    4    4    0  503 -0.27548490671E+02 -0.13010965369E+03  0.33434581577E+03  0.35985643783E+03  0.47000000000E+01 0.  1.
          5    1    4    4  503    0 -0.50358800746E+02 -0.44442679771E+02  0.73232239124E+02  0.99479703684E+02  0.47000000000E+01 0. -1.
         -5    1    3    3    0  502  0.94981279535E+02  0.11582434644E+03  0.12715655887E+03  0.19653906267E+03  0.47000000000E+01 0.  1.
<mgrwt>
<rscale>  0 0.22413218E+03</rscale>
<asrwt>0</asrwt>
<pdfrwt beam="1">  1        1 0.10226293E-01 0.22839148E+03</pdfrwt>
<pdfrwt beam="2">  1       -1 0.11611080E+00 0.22839148E+03</pdfrwt>
<totfact> 0.44568871E+02</totfact>
</mgrwt>
</event>
<event>
 8    1  0.3407580E-004  0.1385492E+03  0.7546771E-02  0.1227955E+00
          1   -1    0    0  501    0  0.00000000000E+00  0.00000000000E+00  0.35272276687E+03  0.35272276687E+03  0.00000000000E+00 0. -1.
         -1   -1    0    0    0  501 -0.00000000000E+00 -0.00000000000E+00 -0.43303223441E+02  0.43303223441E+02  0.00000000000E+00 0.  1.
         25    2    1    2    0    0 -0.17061357526E+02 -0.57264475309E+02  0.20168469082E+03  0.24468877191E+03  0.12500228212E+03 0.  0.
         23    2    1    2    0    0  0.17061357526E+02  0.57264475309E+02  0.10773485261E+03  0.15133721840E+03  0.87896786932E+02 0.  0.
          5    1    4    4  502    0  0.44106603959E+02  0.25391054540E+01  0.53530526849E+02  0.69566133097E+02  0.47000000000E+01 0. -1.
         -5    1    3    3    0  503  0.48426791080E+02 -0.33532071159E+02  0.48865764267E+02  0.76677942121E+02  0.47000000000E+01 0. -1.
          5    1    3    3  503    0 -0.65488148606E+02 -0.23732404149E+02  0.15281892655E+03  0.16801082979E+03  0.47000000000E+01 0. -1.
         -5    1    4    4    0  502 -0.27045246433E+02  0.54725369855E+02  0.54204325762E+02  0.81771085303E+02  0.47000000000E+01 0.  1.
<mgrwt>
<rscale>  0 0.12966398E+03</rscale>
<asrwt>0</asrwt>
<pdfrwt beam="1">  1        1 0.54265039E-01 0.13854920E+03</pdfrwt>
<pdfrwt beam="2">  1       -1 0.66620346E-02 0.13854920E+03</pdfrwt>
<totfact> 0.77418627E+03</totfact>
</mgrwt>
</event>
<event>
 8    1  0.3407580E-004  0.1600033E+03  0.7546771E-02  0.1196375E+00
         -2   -1    0    0    0  501 -0.00000000000E+00  0.00000000000E+00  0.40701690882E+02  0.40701690882E+02  0.00000000000E+00 0.  1.
          2   -1    0    0  501    0  0.00000000000E+00 -0.00000000000E+00 -0.71812206815E+03  0.71812206815E+03  0.00000000000E+00 0. -1.
         25    2    1    2    0    0 -0.42719632515E+02  0.90285246833E+02 -0.55106614544E+03  0.57382483518E+03  0.12499860806E+03 0.  0.
         23    2    1    2    0    0  0.42719632515E+02 -0.90285246833E+02 -0.12635423182E+03  0.18499892385E+03  0.91009983674E+02 0.  0.
          5    1    3    3  502    0 -0.50833852282E+02  0.70406403304E+02 -0.54374834431E+03  0.55065914512E+03  0.47000000000E+01 0. -1.
         -5    1    3    3    0  502  0.81142197667E+01  0.19878843530E+02 -0.73178011323E+01  0.23165690059E+02  0.47000000000E+01 0. -1.
          5    1    4    4  503    0  0.27696600012E+02  0.11471938764E+02 -0.16938589753E+02  0.34752163300E+02  0.47000000000E+01 0. -1.
         -5    1    4    4    0  503  0.15023032503E+02 -0.10175718560E+03 -0.10941564207E+03  0.15024676055E+03  0.47000000000E+01 0.  1.
<mgrwt>
<rscale>  0 0.15338464E+03</rscale>
<asrwt>0</asrwt>
<pdfrwt beam="1">  1        2 0.11048031E+00 0.16000327E+03</pdfrwt>
<pdfrwt beam="2">  1       -2 0.62617988E-02 0.16000327E+03</pdfrwt>
<totfact> 0.54940443E+03</totfact>
</mgrwt>
</event>
<event>
 8    1  0.3407580E-004  0.1529311E+03  0.7546771E-02  0.1205396E+00
         -1   -1    0    0    0  501 -0.00000000000E+00  0.00000000000E+00  0.57325219969E+02  0.57325219969E+02  0.00000000000E+00 0.  1.
          1   -1    0    0  501    0  0.00000000000E+00 -0.00000000000E+00 -0.44726865012E+03  0.44726865012E+03  0.00000000000E+00 0. -1.
         25    2    1    2    0    0  0.29751330577E+02 -0.82935295184E+02 -0.86853140183E+02  0.17587320951E+03  0.12499805201E+03 0.  0.
         23    2    1    2    0    0 -0.29751330577E+02  0.82935295184E+02 -0.30309028997E+03  0.32872066058E+03  0.91815815408E+02 0.  0.
          5    1    3    3  502    0 -0.17655449256E+02  0.14843954757E+02 -0.59108075197E+02  0.63623206731E+02  0.47000000000E+01 0.  1.
         -5    1    3    3    0  502  0.47406779833E+02 -0.97779249941E+02 -0.27745064986E+02  0.11225000278E+03  0.47000000000E+01 0.  1.
          5    1    4    4  503    0  0.35738293026E+01  0.87328384597E+02 -0.25689996420E+03  0.27140136443E+03  0.47000000000E+01 0. -1.
         -5    1    4    4    0  503 -0.33325159879E+02 -0.43930894133E+01 -0.46190325776E+02  0.57319296148E+02  0.47000000000E+01 0.  1.
<mgrwt>
<rscale>  0 0.14606279E+03</rscale>
<asrwt>0</asrwt>
<pdfrwt beam="1">  1        1 0.68810563E-01 0.15293109E+03</pdfrwt>
<pdfrwt beam="2">  1       -1 0.88192645E-02 0.15293109E+03</pdfrwt>
<totfact> 0.37764493E+03</totfact>
</mgrwt>
</event>
<event>
 8    1  0.3407580E-004  0.1856243E+03  0.7546771E-02  0.1167329E+00
          1   -1    0    0  501    0  0.00000000000E+00  0.00000000000E+00  0.55672651872E+03  0.55672651872E+03  0.00000000000E+00 0. -1.
         -1   -1    0    0    0  501 -0.00000000000E+00 -0.00000000000E+00 -0.56640206419E+02  0.56640206419E+02  0.00000000000E+00 0.  1.
         25    2    1    2    0    0 -0.11263060220E+03  0.78403960706E+02  0.22026940386E+03  0.28805382381E+03  0.12499424598E+03 0.  0.
         23    2    1    2    0    0  0.11263060220E+03 -0.78403960706E+02  0.27981690844E+03  0.32531290132E+03  0.93263861770E+02 0.  0.
          5    1    4    4  502    0  0.48714962738E+02 -0.79949761059E+02  0.21300588716E+03  0.23272023946E+03  0.47000000000E+01 0. -1.
         -5    1    3    3    0  503 -0.80291689981E+02  0.10574927142E+03  0.20180799979E+03  0.24161585764E+03  0.47000000000E+01 0.  1.
          5    1    3    3  503    0 -0.32338912223E+02 -0.27345310715E+02  0.18461404076E+02  0.46437966173E+02  0.47000000000E+01 0.  1.
         -5    1    4    4    0  502  0.63915639466E+02  0.15458003524E+01  0.66811021271E+02  0.92592661860E+02  0.47000000000E+01 0.  1.
<mgrwt>
<rscale>  0 0.18049031E+03</rscale>
<asrwt>0</asrwt>
<pdfrwt beam="1">  1        1 0.85650230E-01 0.18562434E+03</pdfrwt>
<pdfrwt beam="2">  1       -1 0.87138783E-02 0.18562434E+03</pdfrwt>
<totfact> 0.29052361E+03</totfact>
</mgrwt>
</event>
<event>
 8    1  0.3407580E-004  0.1866467E+03  0.7546771E-02  0.1166263E+00
          3   -1    0    0  501    0  0.00000000000E+00  0.00000000000E+00  0.10577602308E+03  0.10577602308E+03  0.00000000000E+00 0. -1.
         -3   -1    0    0    0  501 -0.00000000000E+00 -0.00000000000E+00 -0.29643876500E+03  0.29643876500E+03  0.00000000000E+00 0.  1.
         25    2    1    2    0    0 -0.11641603853E+01 -0.13860442628E+03 -0.93124068782E+02  0.20858826507E+03  0.12499771952E+03 0.  0.
         23    2    1    2    0    0  0.11641603853E+01  0.13860442628E+03 -0.97538673135E+02  0.19362652300E+03  0.93621020072E+02 0.  0.
          5    1    4    4  502    0  0.94141116593E+01  0.11303411101E+03 -0.25158112280E+02  0.11627706723E+03  0.47000000000E+01 0. -1.
         -5    1    3    3    0  503  0.23830050369E+01 -0.86220928947E+02  0.15581634264E+02  0.87775877255E+02  0.47000000000E+01 0. -1.
          5    1    3    3  503    0 -0.35471654222E+01 -0.52383497335E+02 -0.10870570305E+03  0.12081238782E+03  0.47000000000E+01 0. -1.
         -5    1    4    4    0  502 -0.82499512740E+01  0.25570315276E+02 -0.72380560855E+02  0.77349455778E+02  0.47000000000E+01 0.  1.
<mgrwt>
<rscale>  0 0.18160012E+03</rscale>
<asrwt>0</asrwt>
<pdfrwt beam="1">  1        3 0.16273234E-01 0.18664665E+03</pdfrwt>
<pdfrwt beam="2">  1       -3 0.45605964E-01 0.18664665E+03</pdfrwt>
<totfact> 0.37484676E+02</totfact>
</mgrwt>
</event>
<event>
 8    1  0.3407580E-004  0.2180122E+03  0.7546771E-02  0.1138501E+00
          3   -1    0    0  501    0  0.00000000000E+00  0.00000000000E+00  0.81766997504E+02  0.81766997504E+02  0.00000000000E+00 0. -1.
         -3   -1    0    0    0  501 -0.00000000000E+00 -0.00000000000E+00 -0.56568116766E+03  0.56568116766E+03  0.00000000000E+00 0.  1.
         25    2    1    2    0    0  0.25661292033E+02 -0.17676525543E+03 -0.32018195549E+03  0.38735743855E+03  0.12499937258E+03 0.  0.
         23    2    1    2    0    0 -0.25661292033E+02  0.17676525543E+03 -0.16373221467E+03  0.26009072661E+03  0.94522433919E+02 0.  0.
          5    1    4    4  502    0  0.41961654994E+01  0.14525039146E+03 -0.80714754065E+02  0.16628964354E+03  0.47000000000E+01 0. -1.
         -5    1    3    3    0  503 -0.18686468867E+02 -0.27396918634E+02 -0.26175154308E+01  0.33596378620E+02  0.47000000000E+01 0. -1.
          5    1    3    3  503    0  0.44347760901E+02 -0.14936833680E+03 -0.31756444006E+03  0.35376105993E+03  0.47000000000E+01 0. -1.
         -5    1    4    4    0  502 -0.29857457532E+02  0.31514863974E+02 -0.83017460605E+02  0.93801083080E+02  0.47000000000E+01 0.  1.
<mgrwt>
<rscale>  0 0.21391678E+03</rscale>
<asrwt>0</asrwt>
<pdfrwt beam="1">  1        3 0.12579538E-01 0.21801216E+03</pdfrwt>
<pdfrwt beam="2">  1       -3 0.87027870E-01 0.21801216E+03</pdfrwt>
<totfact> 0.15291689E+02</totfact>
</mgrwt>
</event>
<event>
 8    1  0.3407580E-004  0.1298091E+03  0.7546771E-02  0.1238917E+00
         -2   -1    0    0    0  501 -0.00000000000E+00  0.00000000000E+00  0.37781751138E+02  0.37781751138E+02  0.00000000000E+00 0.  1.
          2   -1    0    0  501    0  0.00000000000E+00 -0.00000000000E+00 -0.41354352571E+03  0.41354352571E+03  0.00000000000E+00 0. -1.
         25    2    1    2    0    0  0.72199053278E+01 -0.34238087135E+02 -0.12519758955E+03  0.18034644162E+03  0.12500411567E+03 0.  0.
         23    2    1    2    0    0 -0.72199053278E+01  0.34238087135E+02 -0.25056418502E+03  0.27097883523E+03  0.97070823011E+02 0.  0.
          5    1    4    4  502    0 -0.40067625156E+02 -0.64674192693E+01 -0.16976430945E+03  0.17461172028E+03  0.47000000000E+01 0. -1.
         -5    1    4    4    0  502  0.32847719828E+02  0.40705506404E+02 -0.80799875578E+02  0.96367114945E+02  0.47000000000E+01 0.  1.
          5    1    3    3  503    0  0.10180031266E+02 -0.66483526590E+02 -0.20222087462E+02  0.70389737645E+02  0.47000000000E+01 0.  1.
         -5    1    3    3    0  503 -0.29601259383E+01  0.32245439455E+02 -0.10497550208E+03  0.10995670398E+03  0.47000000000E+01 0.  1.
<mgrwt>
<rscale>  0 0.12256963E+03</rscale>
<asrwt>0</asrwt>
<pdfrwt beam="1">  1        2 0.63622081E-01 0.12980910E+03</pdfrwt>
<pdfrwt beam="2">  1       -2 0.58125771E-02 0.12980910E+03</pdfrwt>
<totfact> 0.11296096E+04</totfact>
</mgrwt>
</event>
<event>
 8    1  0.3407580E-004  0.2269844E+03  0.7546771E-02  0.1131488E+00
         -1   -1    0    0    0  501 -0.00000000000E+00  0.00000000000E+00  0.35467974583E+03  0.35467974583E+03  0.00000000000E+00 0.  1.
          1   -1    0    0  501    0  0.00000000000E+00 -0.00000000000E+00 -0.27258229261E+03  0.27258229261E+03  0.00000000000E+00 0. -1.
         25    2    1    2    0    0 -0.13196095550E+03 -0.13596006649E+03 -0.18016016763E+03  0.28979238224E+03  0.12499242116E+03 0.  0.
         23    2    1    2    0    0  0.13196095550E+03  0.13596006649E+03  0.26225762085E+03  0.33746965621E+03  0.95957676674E+02 0.  0.
          5    1    4    4  502    0  0.50230541122E+02  0.10166060633E+03  0.94522917079E+02  0.14769786049E+03  0.47000000000E+01 0. -1.
         -5    1    3    3    0  503 -0.10807444144E+03 -0.80232902116E+02 -0.18494883510E+03  0.22879153193E+03  0.47000000000E+01 0.  1.
          5    1    3    3  503    0 -0.23886514056E+02 -0.55727164371E+02  0.47886674718E+01  0.61000850311E+02  0.47000000000E+01 0.  1.
         -5    1    4    4    0  502  0.81730414375E+02  0.34299460160E+02  0.16773470377E+03  0.18977179572E+03  0.47000000000E+01 0.  1.
<mgrwt>
<rscale>  0 0.22324267E+03</rscale>
<asrwt>0</asrwt>
<pdfrwt beam="1">  1        1 0.41935737E-01 0.22698445E+03</pdfrwt>
<pdfrwt beam="2">  1       -1 0.54566115E-01 0.22698445E+03</pdfrwt>
<totfact> 0.34799818E+02</totfact>
</mgrwt>
</event>
<event>
 8    1  0.3407580E-004  0.1415167E+03  0.7546771E-02  0.1222513E+00
         -2   -1    0    0    0  501 -0.00000000000E+00  0.00000000000E+00  0.71966566583E+02  0.71966566583E+02  0.00000000000E+00 0.  1.
          2   -1    0    0  501    0  0.00000000000E+00 -0.00000000000E+00 -0.23296403024E+03  0.23296403024E+03  0.00000000000E+00 0. -1.
         25    2    1    2    0    0  0.45355100015E+02 -0.48426652183E+02 -0.57827150098E+02  0.15287562571E+03  0.12499900763E+03 0.  0.
         23    2    1    2    0    0 -0.45355100015E+02  0.48426652183E+02 -0.10317031356E+03  0.15205497111E+03  0.89857525563E+02 0.  0.
          5    1    3    3  502    0  0.19711148882E+02 -0.45682981289E+02  0.31972419499E+02  0.59327816228E+02  0.47000000000E+01 0.  1.
         -5    1    3    3    0  502  0.25643951132E+02 -0.27436708942E+01 -0.89799569597E+02  0.93547809485E+02  0.47000000000E+01 0.  1.
          5    1    4    4  503    0  0.15832890568E+02  0.21557212654E+02 -0.74297887582E+02  0.79105372386E+02  0.47000000000E+01 0. -1.
         -5    1    4    4    0  503 -0.61187990582E+02  0.26869439530E+02 -0.28872425976E+02  0.72949598723E+02  0.47000000000E+01 0.  1.
<mgrwt>
<rscale>  0 0.13338832E+03</rscale>
<asrwt>0</asrwt>
<pdfrwt beam="1">  1        2 0.35840620E-01 0.14151670E+03</pdfrwt>
<pdfrwt beam="2">  1       -2 0.11071779E-01 0.14151670E+03</pdfrwt>
<totfact> 0.77250093E+03</totfact>
</mgrwt>
</event>
<event>
 8    1  0.3407580E-004  0.1464752E+03  0.7546771E-02  0.1214516E+00
         -3   -1    0    0    0  501 -0.00000000000E+00  0.00000000000E+00  0.10379909131E+03  0.10379909131E+03  0.00000000000E+00 0.  1.
          3   -1    0    0  501    0  0.00000000000E+00 -0.00000000000E+00 -0.28220835413E+03  0.28220835413E+03  0.00000000000E+00 0. -1.
         25    2    1    2    0    0  0.28714116622E+02  0.70745697616E+02 -0.21603255881E+03  0.26100776412E+03  0.12500212894E+03 0.  0.
         23    2    1    2    0    0 -0.28714116622E+02 -0.70745697616E+02  0.37623295991E+02  0.12499968133E+03  0.91542087076E+02 0.  0.
          5    1    3    3  502    0  0.50485847767E+02  0.36247436714E+01 -0.16799009836E+03  0.17551274238E+03  0.47000000000E+01 0. -1.
         -5    1    3    3    0  502 -0.21771731145E+02  0.67120953945E+02 -0.48042460444E+02  0.85495021732E+02  0.47000000000E+01 0. -1.
          5    1    4    4  503    0  0.21613023143E+02 -0.47488573161E+02 -0.80663789455E+01  0.53004186812E+02  0.47000000000E+01 0. -1.
         -5    1    4    4    0  503 -0.50327139765E+02 -0.23257124455E+02  0.45689674937E+02  0.71995494516E+02  0.47000000000E+01 0.  1.
<mgrwt>
<rscale>  0 0.13912177E+03</rscale>
<asrwt>0</asrwt>
<pdfrwt beam="1">  1        3 0.43416669E-01 0.14647521E+03</pdfrwt>
<pdfrwt beam="2">  1       -3 0.15969091E-01 0.14647521E+03</pdfrwt>
<totfact> 0.41385618E+02</totfact>
</mgrwt>
</event>
<event>
 8    1  0.3407580E-004  0.1266820E+03  0.7546771E-02  0.1248093E+00
          2   -1    0    0  501    0  0.00000000000E+00  0.00000000000E+00  0.46797795449E+03  0.46797795449E+03  0.00000000000E+00 0. -1.
         -2   -1    0    0    0  501 -0.00000000000E+00 -0.00000000000E+00 -0.28956419143E+02  0.28956419143E+02  0.00000000000E+00 0.  1.
         25    2    1    2    0    0 -0.13256319618E+02  0.15716398039E+02  0.16642430156E+03  0.20915396033E+03  0.12500238315E+03 0.  0.
         23    2    1    2    0    0  0.13256319618E+02 -0.15716398039E+02  0.27259723378E+03  0.28778041330E+03  0.89919848973E+02 0.  0.
          5    1    3    3  502    0  0.51307748036E+02  0.24845404489E+01  0.11288498359E+03  0.12411191510E+03  0.47000000000E+01 0.  1.
         -5    1    3    3    0  502 -0.64564067654E+02  0.13231857590E+02  0.53539317977E+02  0.85042045229E+02  0.47000000000E+01 0.  1.
          5    1    4    4  503    0  0.21630393038E+02 -0.37288575468E+02  0.25413109560E+03  0.25780421935E+03  0.47000000000E+01 0. -1.
         -5    1    4    4    0  503 -0.83740734197E+01  0.21572177429E+02  0.18466138179E+02  0.29976193953E+02  0.47000000000E+01 0.  1.
<mgrwt>
<rscale>  0 0.11702176E+03</rscale>
<asrwt>0</asrwt>
<pdfrwt beam="1">  1        2 0.71996603E-01 0.12668201E+03</pdfrwt>
<pdfrwt beam="2">  1       -2 0.44548340E-02 0.12668201E+03</pdfrwt>
<totfact> 0.14711411E+04</totfact>
</mgrwt>
</event>
<event>
 8    1  0.3407580E-004  0.1455668E+03  0.7546771E-02  0.1215787E+00
          2   -1    0    0  501    0  0.00000000000E+00  0.00000000000E+00  0.35586485742E+03  0.35586485742E+03  0.00000000000E+00 0. -1.
         -2   -1    0    0    0  501 -0.00000000000E+00 -0.00000000000E+00 -0.50486047173E+02  0.50486047173E+02  0.00000000000E+00 0.  1.
         25    2    1    2    0    0 -0.10776055614E+02  0.73820264289E+02  0.13201920116E+03  0.19651659558E+03  0.12499659222E+03 0.  0.
         23    2    1    2    0    0  0.10776055614E+02 -0.73820264289E+02  0.17335960909E+03  0.20983430902E+03  0.91713294481E+02 0.  0.
          5    1    3    3  502    0  0.54097183534E+01 -0.33218205699E+02  0.15344093794E+02  0.37285995452E+02  0.47000000000E+01 0.  1.
         -5    1    4    4    0  503  0.73340786623E+01 -0.19669973828E+02 -0.60445391132E+01  0.22345537212E+02  0.47000000000E+01 0.  1.
          5    1    4    4  503    0  0.34419769520E+01 -0.54150290461E+02  0.17940414820E+03  0.18748877181E+03  0.47000000000E+01 0. -1.
         -5    1    3    3    0  502 -0.16185773968E+02  0.10703846999E+03  0.11667510737E+03  0.15923060012E+03  0.47000000000E+01 0.  1.
<mgrwt>
<rscale>  0 0.13818889E+03</rscale>
<asrwt>0</asrwt>
<pdfrwt beam="1">  1        2 0.54748438E-01 0.14556683E+03</pdfrwt>
<pdfrwt beam="2">  1       -2 0.77670844E-02 0.14556683E+03</pdfrwt>
<totfact> 0.85859975E+03</totfact>
</mgrwt>
</event>
<event>
 8    1  0.3407580E-004  0.1418283E+03  0.7546771E-02  0.1222074E+00
          1   -1    0    0  501    0  0.00000000000E+00  0.00000000000E+00  0.38499225063E+03  0.38499225063E+03  0.00000000000E+00 0. -1.
         -1   -1    0    0    0  501 -0.00000000000E+00 -0.00000000000E+00 -0.53501344923E+02  0.53501344923E+02  0.00000000000E+00 0.  1.
         25    2    1    2    0    0  0.23422404312E+02 -0.62780532583E+02  0.79149603058E+02  0.16241900756E+03  0.12500108022E+03 0.  0.
         23    2    1    2    0    0 -0.23422404312E+02  0.62780532583E+02  0.25234130265E+03  0.27607458799E+03  0.89727592299E+02 0.  0.
          5    1    4    4  502    0 -0.27484233384E+02  0.25618946578E+02  0.22821447207E+03  0.23133449542E+03  0.47000000000E+01 0. -1.
         -5    1    3    3    0  503  0.63411627404E+02  0.41424195518E+01  0.36308321302E+02  0.73338791410E+02  0.47000000000E+01 0. -1.
          5    1    3    3  503    0 -0.39989223092E+02 -0.66922952135E+02  0.42841281757E+02  0.89080216146E+02  0.47000000000E+01 0. -1.
         -5    1    4    4    0  502  0.40618290719E+01  0.37161586005E+02  0.24126830571E+02  0.44740092571E+02  0.47000000000E+01 0.  1.
<mgrwt>
<rscale>  0 0.13369463E+03</rscale>
<asrwt>0</asrwt>
<pdfrwt beam="1">  1        1 0.59229575E-01 0.14182833E+03</pdfrwt>
<pdfrwt beam="2">  1       -1 0.82309764E-02 0.14182833E+03</pdfrwt>
<totfact> 0.50540356E+03</totfact>
</mgrwt>
</event>
<event>
 8    1  0.3407580E-004  0.1961132E+03  0.7546771E-02  0.1157597E+00
         -1   -1    0    0    0  501 -0.00000000000E+00  0.00000000000E+00  0.22862940185E+02  0.22862940185E+02  0.00000000000E+00 0.  1.
          1   -1    0    0  501    0  0.00000000000E+00 -0.00000000000E+00 -0.15189429684E+04  0.15189429684E+04  0.00000000000E+00 0. -1.
         25    2    1    2    0    0 -0.30282630816E+02  0.14804838088E+03 -0.81806117459E+03  0.84123985141E+03  0.12500016569E+03 0.  0.
         23    2    1    2    0    0  0.30282630816E+02 -0.14804838088E+03 -0.67801885360E+03  0.70056605715E+03  0.90817805428E+02 0.  0.
          5    1    4    4  502    0 -0.15907426437E+02 -0.10398160216E+03 -0.32026157634E+03  0.33712725652E+03  0.47000000000E+01 0. -1.
         -5    1    4    4    0  502  0.46190057253E+02 -0.44066778713E+02 -0.35775727725E+03  0.36343880063E+03  0.47000000000E+01 0.  1.
          5    1    3    3  503    0  0.40918299476E+02  0.13168863174E+02 -0.19995271178E+03  0.20457493282E+03  0.47000000000E+01 0. -1.
         -5    1    3    3    0  503 -0.71200930292E+02  0.13487951770E+03 -0.61810846280E+03  0.63666491858E+03  0.47000000000E+01 0. -1.
<mgrwt>
<rscale>  0 0.19096156E+03</rscale>
<asrwt>0</asrwt>
<pdfrwt beam="1">  1        1 0.23368351E+00 0.19611324E+03</pdfrwt>
<pdfrwt beam="2">  1       -1 0.35173757E-02 0.19611324E+03</pdfrwt>
<totfact> 0.20708996E+03</totfact>
</mgrwt>
</event>
<event>
 8    1  0.3407580E-004  0.1774038E+03  0.7546771E-02  0.1175394E+00
          1   -1    0    0  501    0  0.00000000000E+00  0.00000000000E+00  0.16748200978E+04  0.16748200978E+04  0.00000000000E+00 0. -1.
         -1   -1    0    0    0  501 -0.00000000000E+00 -0.00000000000E+00 -0.16906229411E+02  0.16906229411E+02  0.00000000000E+00 0.  1.
         25    2    1    2    0    0  0.34738233992E+02  0.12099643679E+03  0.94174184863E+03  0.95830570248E+03  0.12500090928E+03 0.  0.
         23    2    1    2    0    0 -0.34738233992E+02 -0.12099643679E+03  0.71617201979E+03  0.73342062476E+03  0.95689959173E+02 0.  0.
          5    1    4    4  502    0 -0.21535989917E+01 -0.12039057950E+03  0.62437310428E+03  0.63589495435E+03  0.47000000000E+01 0. -1.
         -5    1    4    4    0  502 -0.32584635001E+02 -0.60585729009E+00  0.91798915502E+02  0.97525670408E+02  0.47000000000E+01 0.  1.
          5    1    3    3  503    0 -0.41272570733E+02  0.14473604784E+02  0.31271702854E+03  0.31579572554E+03  0.47000000000E+01 0.  1.
         -5    1    3    3    0  503  0.76010804725E+02  0.10652283200E+03  0.62902482010E+03  0.64250997694E+03  0.47000000000E+01 0.  1.
<mgrwt>
<rscale>  0 0.17237417E+03</rscale>
<asrwt>0</asrwt>
<pdfrwt beam="1">  1        1 0.25766450E+00 0.17740380E+03</pdfrwt>
<pdfrwt beam="2">  1       -1 0.26009597E-02 0.17740380E+03</pdfrwt>
<totfact> 0.25536977E+03</totfact>
</mgrwt>
</event>
<event>
 8    1  0.3407580E-004  0.3699592E+03  0.7546771E-02  0.1055645E+00
         -2   -1    0    0    0  501 -0.00000000000E+00  0.00000000000E+00  0.45060775017E+03  0.45060775017E+03  0.00000000000E+00 0.  1.
          2   -1    0    0  501    0  0.00000000000E+00 -0.00000000000E+00 -0.11547205399E+04  0.11547205399E+04  0.00000000000E+00 0. -1.
         25    2    1    2    0    0  0.45897152539E+02 -0.34516198510E+03  0.33897289159E+03  0.50176926762E+03  0.12500572837E+03 0.  0.
         23    2    1    2    0    0 -0.45897152539E+02  0.34516198510E+03 -0.10430856813E+04  0.11035590224E+04  0.92582033120E+02 0.  0.
          5    1    4    4  502    0 -0.31629597020E+02  0.27353608757E+02 -0.12814856885E+03  0.13488067696E+03  0.47000000000E+01 0. -1.
         -5    1    4    4    0  502 -0.14267555519E+02  0.31780837634E+03 -0.91493711247E+03  0.96867834547E+03  0.47000000000E+01 0.  1.
          5    1    3    3  503    0 -0.16807773354E+02 -0.20854315753E+03  0.13769312462E+03  0.25050795670E+03  0.47000000000E+01 0.  1.
         -5    1    3    3    0  503  0.62704925893E+02 -0.13661882757E+03  0.20127976697E+03  0.25126131093E+03  0.47000000000E+01 0.  1.
<mgrwt>
<rscale>  0 0.36751989E+03</rscale>
<asrwt>0</asrwt>
<pdfrwt beam="1">  1        2 0.17764931E+00 0.36995916E+03</pdfrwt>
<pdfrwt beam="2">  1       -2 0.69324270E-01 0.36995916E+03</pdfrwt>
<totfact> 0.41042829E+01</totfact>
</mgrwt>
</event>
<event>
 8    1  0.3407580E-004  0.2263138E+03  0.7546771E-02  0.1132404E+00
          2   -1    0    0  501    0  0.00000000000E+00  0.00000000000E+00  0.15896332689E+04  0.15896332689E+04  0.00000000000E+00 0. -1.
         -2   -1    0    0    0  501 -0.00000000000E+00 -0.00000000000E+00 -0.29897963664E+02  0.29897963664E+02  0.00000000000E+00 0.  1.
         25    2    1    2    0    0  0.90670315653E+02  0.16544197658E+03  0.78730503266E+03  0.81918689231E+03  0.12500318528E+03 0.  0.
         23    2    1    2    0    0 -0.90670315653E+02 -0.16544197658E+03  0.77243027254E+03  0.80034434022E+03  0.91161303324E+02 0.  0.
          5    1    4    4  502    0 -0.56897879594E+02 -0.16559744281E+03  0.63092835858E+03  0.65479200165E+03  0.47000000000E+01 0. -1.
         -5    1    4    4    0  502 -0.33772436059E+02  0.15546622697E+00  0.14150191396E+03  0.14555233857E+03  0.47000000000E+01 0.  1.
          5    1    3    3  503    0  0.49969659619E+02 -0.46514570318E+01  0.20921902705E+03  0.21520523743E+03  0.47000000000E+01 0. -1.
         -5    1    3    3    0  503  0.40700656034E+02  0.17009343361E+03  0.57808600560E+03  0.60398165488E+03  0.47000000000E+01 0. -1.
<mgrwt>
<rscale>  0 0.22199568E+03</rscale>
<asrwt>0</asrwt>
<pdfrwt beam="1">  1        2 0.24455890E+00 0.22631383E+03</pdfrwt>
<pdfrwt beam="2">  1       -2 0.45996880E-02 0.22631383E+03</pdfrwt>
<totfact> 0.27173901E+03</totfact>
</mgrwt>
</event>
<event>
 8    1  0.3407580E-004  0.1653902E+03  0.7546771E-02  0.1189774E+00
          2   -1    0    0  501    0  0.00000000000E+00  0.00000000000E+00  0.10086805261E+04  0.10086805261E+04  0.00000000000E+00 0. -1.
         -2   -1    0    0    0  501 -0.00000000000E+00 -0.00000000000E+00 -0.31785982788E+02  0.31785982788E+02  0.00000000000E+00 0.  1.
         25    2    1    2    0    0  0.57110451352E+02 -0.92012302760E+02  0.24877809695E+03  0.29873809116E+03  0.12500415223E+03 0.  0.
         23    2    1    2    0    0 -0.57110451352E+02  0.92012302760E+02  0.72811644636E+03  0.74172841772E+03  0.90992410064E+02 0.  0.
          5    1    3    3  502    0  0.21405386441E+02 -0.74018180455E+02  0.24662329109E+03  0.25842217264E+03  0.47000000000E+01 0. -1.
         -5    1    3    3    0  502  0.35705064910E+02 -0.17994122305E+02  0.21548058656E+01  0.40315918520E+02  0.47000000000E+01 0. -1.
          5    1    4    4  503    0 -0.72877150773E+02  0.50407140137E+02  0.58757017755E+03  0.59423291934E+03  0.47000000000E+01 0. -1.
         -5    1    4    4    0  503  0.15766699421E+02  0.41605162623E+02  0.14054626881E+03  0.14749549838E+03  0.47000000000E+01 0.  1.
<mgrwt>
<rscale>  0 0.15904914E+03</rscale>
<asrwt>0</asrwt>
<pdfrwt beam="1">  1        2 0.15518159E+00 0.16539016E+03</pdfrwt>
<pdfrwt beam="2">  1       -2 0.48901520E-02 0.16539016E+03</pdfrwt>
<totfact> 0.51635934E+03</totfact>
</mgrwt>
</event>
<event>
 8    1  0.3407580E-004  0.1372897E+03  0.7546771E-02  0.1229101E+00
         -2   -1    0    0    0  501 -0.00000000000E+00  0.00000000000E+00  0.13235457262E+03  0.13235457262E+03  0.00000000000E+00 0.  1.
          2   -1    0    0  501    0  0.00000000000E+00 -0.00000000000E+00 -0.13214389342E+03  0.13214389342E+03  0.00000000000E+00 0. -1.
         25    2    1    2    0    0 -0.41829426622E+02  0.38408951088E+02 -0.50628539543E+02  0.14632742424E+03  0.12499407031E+03 0.  0.
         23    2    1    2    0    0  0.41829426622E+02 -0.38408951088E+02  0.50839218746E+02  0.11817104180E+03  0.90304044778E+02 0.  0.
          5    1    3    3  502    0  0.79819201070E+01 -0.24146146356E+02 -0.60330115593E+02  0.65639624312E+02  0.47000000000E+01 0.  1.
         -5    1    3    3    0  502 -0.49811346729E+02  0.62555097444E+02  0.97015760492E+01  0.80687799926E+02  0.47000000000E+01 0.  1.
          5    1    4    4  503    0  0.30324523615E+02 -0.67557825832E+02  0.28901694557E+02  0.79630612907E+02  0.47000000000E+01 0. -1.
         -5    1    4    4    0  503  0.11504903007E+02  0.29148874744E+02  0.21937524189E+02  0.38540428898E+02  0.47000000000E+01 0.  1.
<mgrwt>
<rscale>  0 0.12889771E+03</rscale>
<asrwt>0</asrwt>
<pdfrwt beam="1">  1        2 0.20329830E-01 0.13728972E+03</pdfrwt>
<pdfrwt beam="2">  1       -2 0.20362242E-01 0.13728972E+03</pdfrwt>
<totfact> 0.52947689E+03</totfact>
</mgrwt>
</event>
<event>
 8    1  0.3407580E-004  0.1452824E+03  0.7546771E-02  0.1219609E+00
          1   -1    0    0  501    0  0.00000000000E+00  0.00000000000E+00  0.92985642798E+02  0.92985642798E+02  0.00000000000E+00 0. -1.
         -1   -1    0    0    0  501 -0.00000000000E+00 -0.00000000000E+00 -0.18072450486E+03  0.18072450486E+03  0.00000000000E+00 0.  1.
         25    2    1    2    0    0 -0.17876733408E+02 -0.71849128447E+02 -0.25287185791E+02  0.14746664221E+03  0.12500037577E+03 0.  0.
         23    2    1    2    0    0  0.17876733408E+02  0.71849128447E+02 -0.62451676271E+02  0.12624350545E+03  0.80965029135E+02 0.  0.
          5    1    3    3  502    0 -0.58955132409E+02 -0.80079380608E+02 -0.32446056050E+02  0.10470554612E+03  0.47000000000E+01 0.  1.
         -5    1    4    4    0  503 -0.30542074017E+02  0.37710405848E+02 -0.17775075933E+02  0.51893509410E+02  0.47000000000E+01 0.  1.
          5    1    4    4  503    0  0.48418807425E+02  0.34138722599E+02 -0.44676600338E+02  0.74349996038E+02  0.47000000000E+01 0. -1.
         -5    1    3    3    0  502  0.41078399000E+02  0.82302521615E+01  0.71588702590E+01  0.42761096086E+02  0.47000000000E+01 0.  1.
<mgrwt>
<rscale>  0 0.13543329E+03</rscale>
<asrwt>0</asrwt>
<pdfrwt beam="1">  1        1 0.14305483E-01 0.14528238E+03</pdfrwt>
<pdfrwt beam="2">  1       -1 0.27803770E-01 0.14528238E+03</pdfrwt>
<totfact> 0.44354830E+03</totfact>
</mgrwt>
</event>
<event>
 8    1  0.3407580E-004  0.1322039E+03  0.7546771E-02  0.1237188E+00
         -3   -1    0    0    0  501 -0.00000000000E+00  0.00000000000E+00  0.76627551022E+02  0.76627551022E+02  0.00000000000E+00 0.  1.
          3   -1    0    0  501    0  0.00000000000E+00 -0.00000000000E+00 -0.31604714880E+03  0.31604714880E+03  0.00000000000E+00 0. -1.
         25    2    1    2    0    0 -0.43000020584E+02  0.21324896677E+01  0.59425678488E+00  0.13220526224E+03  0.12499731573E+03 0.  0.
         23    2    1    2    0    0  0.43000020584E+02 -0.21324896677E+01 -0.24001385457E+03  0.26046943758E+03  0.91564885457E+02 0.  0.
          5    1    4    4  502    0  0.16010130541E+02  0.32100457356E+02 -0.19228291495E+03  0.19565677352E+03  0.47000000000E+01 0. -1.
         -5    1    3    3    0  503 -0.10513356950E+02 -0.42920228747E+02  0.43252951419E+02  0.62012777042E+02  0.47000000000E+01 0.  1.
          5    1    3    3  503    0 -0.32486663634E+02  0.45052718414E+02 -0.42658694634E+02  0.70192485199E+02  0.47000000000E+01 0.  1.
         -5    1    4    4    0  502  0.26989890043E+02 -0.34232947024E+02 -0.47730939620E+02  0.64812664068E+02  0.47000000000E+01 0.  1.
<mgrwt>
<rscale>  0 0.12365408E+03</rscale>
<asrwt>0</asrwt>
<pdfrwt beam="1">  1        3 0.48622638E-01 0.13220393E+03</pdfrwt>
<pdfrwt beam="2">  1       -3 0.11788854E-01 0.13220393E+03</pdfrwt>
<totfact> 0.54653721E+02</totfact>
</mgrwt>
</event>
<event>
 8    1  0.3407580E-004  0.1489679E+03  0.7546771E-02  0.1210417E+00
          2   -1    0    0  501    0  0.00000000000E+00  0.00000000000E+00  0.35888818309E+03  0.35888818309E+03  0.00000000000E+00 0. -1.
         -2   -1    0    0    0  501 -0.00000000000E+00 -0.00000000000E+00 -0.51924202543E+02  0.51924202543E+02  0.00000000000E+00 0.  1.
         25    2    1    2    0    0  0.46831530894E+02 -0.66124878846E+02  0.15642966604E+03  0.21601314793E+03  0.12500299105E+03 0.  0.
         23    2    1    2    0    0 -0.46831530894E+02  0.66124878846E+02  0.15053431451E+03  0.19479923771E+03  0.93383463624E+02 0.  0.
          5    1    4    4  502    0 -0.31369375901E+02 -0.12989450361E+02  0.15849000970E+02  0.37763003016E+02  0.47000000000E+01 0. -1.
         -5    1    4    4    0  502 -0.15462154994E+02  0.79114329206E+02  0.13468531354E+03  0.15703623469E+03  0.47000000000E+01 0.  1.
          5    1    3    3  503    0  0.78758817513E+02 -0.67201081540E+02  0.73604900480E+02  0.12711690710E+03  0.47000000000E+01 0.  1.
         -5    1    3    3    0  503 -0.31927286619E+02  0.10762026945E+01  0.82824765563E+02  0.88896240830E+02  0.47000000000E+01 0.  1.
<mgrwt>
<rscale>  0 0.14218601E+03</rscale>
<asrwt>0</asrwt>
<pdfrwt beam="1">  1        2 0.55213565E-01 0.14896791E+03</pdfrwt>
<pdfrwt beam="2">  1       -2 0.79883391E-02 0.14896791E+03</pdfrwt>
<totfact> 0.81599228E+03</totfact>
</mgrwt>
</event>
<event>
 8    1  0.3407580E-004  0.1546237E+03  0.7546771E-02  0.1203071E+00
         -1   -1    0    0    0  501 -0.00000000000E+00  0.00000000000E+00  0.11260759154E+03  0.11260759154E+03  0.00000000000E+00 0.  1.
          1   -1    0    0  501    0  0.00000000000E+00 -0.00000000000E+00 -0.17961574089E+03  0.17961574089E+03  0.00000000000E+00 0. -1.
         25    2    1    2    0    0  0.20944948503E+02 -0.88569842256E+02 -0.29127534590E+02  0.15734325518E+03  0.12500071541E+03 0.  0.
         23    2    1    2    0    0 -0.20944948503E+02  0.88569842256E+02 -0.37880614761E+02  0.13488007725E+03  0.92056430734E+02 0.  0.
          5    1    4    4  502    0  0.14598711225E+02  0.85246250572E+02 -0.45850123458E+02  0.98001884814E+02  0.47000000000E+01 0. -1.
         -5    1    3    3    0  503 -0.50290351632E+02 -0.48479411182E+02  0.12261074010E+01  0.70021183332E+02  0.47000000000E+01 0. -1.
          5    1    3    3  503    0  0.71235300135E+02 -0.40090431074E+02 -0.30353641991E+02  0.87322071844E+02  0.47000000000E+01 0. -1.
         -5    1    4    4    0  502 -0.35543659728E+02  0.33235916842E+01  0.79695086975E+01  0.36878192437E+02  0.47000000000E+01 0.  1.
<mgrwt>
<rscale>  0 0.14790533E+03</rscale>
<asrwt>0</asrwt>
<pdfrwt beam="1">  1        1 0.27633191E-01 0.15462369E+03</pdfrwt>
<pdfrwt beam="2">  1       -1 0.17324245E-01 0.15462369E+03</pdfrwt>
<totfact> 0.41458462E+03</totfact>
</mgrwt>
</event>
<event>
 8    1  0.3407580E-004  0.1836407E+03  0.7546771E-02  0.1169941E+00
          1   -1    0    0  501    0  0.00000000000E+00  0.00000000000E+00  0.84230004115E+03  0.84230004115E+03  0.00000000000E+00 0. -1.
         -1   -1    0    0    0  501 -0.00000000000E+00 -0.00000000000E+00 -0.35624842911E+02  0.35624842911E+02  0.00000000000E+00 0.  1.
         25    2    1    2    0    0  0.95381529293E+02  0.94864495727E+02  0.46858592136E+03  0.50328588059E+03  0.12500801263E+03 0.  0.
         23    2    1    2    0    0 -0.95381529293E+02 -0.94864495727E+02  0.33808927687E+03  0.37463900347E+03  0.89180239423E+02 0.  0.
          5    1    4    4  502    0 -0.57712309312E+02 -0.43958254929E+02  0.27751553111E+03  0.28687976371E+03  0.47000000000E+01 0. -1.
         -5    1    3    3    0  503  0.94612821929E+02  0.11752774450E+03  0.44633550208E+03  0.47117069860E+03  0.47000000000E+01 0. -1.
          5    1    3    3  503    0  0.76870736376E+00 -0.22663248774E+02  0.22250419281E+02  0.32115181989E+02  0.47000000000E+01 0. -1.
         -5    1    4    4    0  502 -0.37669219981E+02 -0.50906240798E+02  0.60573745763E+02  0.87759239752E+02  0.47000000000E+01 0.  1.
<mgrwt>
<rscale>  0 0.17780859E+03</rscale>
<asrwt>0</asrwt>
<pdfrwt beam="1">  1        1 0.12958461E+00 0.18364071E+03</pdfrwt>
<pdfrwt beam="2">  1       -1 0.54807457E-02 0.18364071E+03</pdfrwt>
<totfact> 0.32211869E+03</totfact>
</mgrwt>
</event>
<event>
 8    1  0.3407580E-004  0.3952266E+03  0.7546771E-02  0.1046328E+00
          2   -1    0    0  501    0  0.00000000000E+00  0.00000000000E+00  0.65017811869E+03  0.65017811869E+03  0.00000000000E+00 0. -1.
         -2   -1    0    0    0  501 -0.00000000000E+00 -0.00000000000E+00 -0.23548246810E+03  0.23548246810E+03  0.00000000000E+00 0.  1.
         25    2    1    2    0    0 -0.17393193339E+03  0.33215437128E+03  0.24182740744E+03  0.46334064838E+03  0.12500087057E+03 0.  0.
         23    2    1    2    0    0  0.17393193339E+03 -0.33215437128E+03  0.17286824315E+03  0.42231993841E+03  0.88836124850E+02 0.  0.
          5    1    4    4  502    0  0.13073642390E+03 -0.15861936325E+03  0.78677974875E+02  0.22014638008E+03  0.47000000000E+01 0. -1.
         -5    1    4    4    0  502  0.43195509495E+02 -0.17353500802E+03  0.94190268279E+02  0.20217355833E+03  0.47000000000E+01 0.  1.
          5    1    3    3  503    0 -0.16449894073E+03  0.31205479039E+03  0.17709276815E+03  0.39474299517E+03  0.47000000000E+01 0. -1.
         -5    1    3    3    0  503 -0.94329926644E+01  0.20099580888E+02  0.64734639285E+02  0.68597653210E+02  0.47000000000E+01 0. -1.
<mgrwt>
<rscale>  0 0.39272606E+03</rscale>
<asrwt>0</asrwt>
<pdfrwt beam="1">  1        2 0.10002740E+00 0.39522660E+03</pdfrwt>
<pdfrwt beam="2">  1       -2 0.36228072E-01 0.39522660E+03</pdfrwt>
<totfact> 0.32985957E+02</totfact>
</mgrwt>
</event>
<event>
 8    1  0.3407580E-004  0.1417534E+03  0.7546771E-02  0.1221427E+00
          2   -1    0    0  501    0  0.00000000000E+00  0.00000000000E+00  0.68264601199E+03  0.68264601199E+03  0.00000000000E+00 0. -1.
         -2   -1    0    0    0  501 -0.00000000000E+00 -0.00000000000E+00 -0.33027507344E+02  0.33027507344E+02  0.00000000000E+00 0.  1.
         25    2    1    2    0    0 -0.46660599516E+02  0.47871197805E+02  0.53794527532E+03  0.55630849552E+03  0.12500063929E+03 0.  0.
         23    2    1    2    0    0  0.46660599516E+02 -0.47871197805E+02  0.11167322932E+03  0.15936502381E+03  0.91964327539E+02 0.  0.
          5    1    3    3  502    0 -0.52089661352E+02 -0.11848990792E+02  0.93304308739E+02  0.10761744948E+03  0.47000000000E+01 0. -1.
         -5    1    4    4    0  503  0.61731528180E+02 -0.97224205903E+01  0.33747490098E+02  0.71177876630E+02  0.47000000000E+01 0.  1.
          5    1    4    4  503    0 -0.15070928665E+02 -0.38148777215E+02  0.77925739226E+02  0.88187147180E+02  0.47000000000E+01 0. -1.
         -5    1    3    3    0  502  0.54290618365E+01  0.59720188597E+02  0.44464096658E+03  0.44869104604E+03  0.47000000000E+01 0. -1.
<mgrwt>
<rscale>  0 0.13414805E+03</rscale>
<asrwt>0</asrwt>
<pdfrwt beam="1">  1        2 0.10502245E+00 0.14175339E+03</pdfrwt>
<pdfrwt beam="2">  1       -2 0.50811555E-02 0.14175339E+03</pdfrwt>
<totfact> 0.79600177E+03</totfact>
</mgrwt>
</event>
<event>
 8    1  0.3407580E-004  0.2755541E+03  0.7546771E-02  0.1100176E+00
         -1   -1    0    0    0  501 -0.00000000000E+00  0.00000000000E+00  0.11269417311E+03  0.11269417311E+03  0.00000000000E+00 0.  1.
          1   -1    0    0  501    0  0.00000000000E+00 -0.00000000000E+00 -0.70915685855E+03  0.70915685855E+03  0.00000000000E+00 0. -1.
         25    2    1    2    0    0  0.92653375927E+02 -0.22740627953E+03 -0.43406063321E+03  0.51413881149E+03  0.12502727760E+03 0.  0.
         23    2    1    2    0    0 -0.92653375927E+02  0.22740627953E+03 -0.16240205223E+03  0.30771222016E+03  0.89521616539E+02 0.  0.
          5    1    3    3  502    0 -0.27038128604E+02 -0.28834698453E+02 -0.37163867684E+02  0.54458638383E+02  0.47000000000E+01 0.  1.
         -5    1    3    3    0  502  0.11969150453E+03 -0.19857158108E+03 -0.39689676552E+03  0.45968017311E+03  0.47000000000E+01 0.  1.
          5    1    4    4  503    0  0.11695296140E+02  0.75680289021E+02 -0.39743427077E+02  0.86405532774E+02  0.47000000000E+01 0. -1.
         -5    1    4    4    0  503 -0.10434867207E+03  0.15172599051E+03 -0.12265862515E+03  0.22130668739E+03  0.47000000000E+01 0.  1.
<mgrwt>
<rscale>  0 0.27193658E+03</rscale>
<asrwt>0</asrwt>
<pdfrwt beam="1">  1        1 0.10910106E+00 0.27555414E+03</pdfrwt>
<pdfrwt beam="2">  1       -1 0.17337565E-01 0.27555414E+03</pdfrwt>
<totfact> 0.70628032E+02</totfact>
</mgrwt>
</event>
<event>
 8    1  0.3407580E-004  0.1396402E+03  0.7546771E-02  0.1224395E+00
          1   -1    0    0  501    0  0.00000000000E+00  0.00000000000E+00  0.17050740923E+03  0.17050740923E+03  0.00000000000E+00 0. -1.
         -1   -1    0    0    0  501 -0.00000000000E+00 -0.00000000000E+00 -0.14614173655E+03  0.14614173655E+03  0.00000000000E+00 0.  1.
         25    2    1    2    0    0  0.46681848003E+02  0.41220586060E+02 -0.82342575581E+02  0.16211012268E+03  0.12498424090E+03 0.  0.
         23    2    1    2    0    0 -0.46681848003E+02 -0.41220586060E+02  0.10670824826E+03  0.15453902311E+03  0.92829563016E+02 0.  0.
          5    1    4    4  502    0 -0.45360497598E+02  0.15791084782E+02  0.74817395580E+02  0.89031824548E+02  0.47000000000E+01 0. -1.
         -5    1    4    4    0  502 -0.13213504051E+01 -0.57011670842E+02  0.31890852677E+02  0.65507198563E+02  0.47000000000E+01 0.  1.
          5    1    3    3  503    0  0.40898722462E+02 -0.37363025912E+02 -0.13122025003E+02  0.57122488956E+02  0.47000000000E+01 0. -1.
         -5    1    3    3    0  503  0.57831255415E+01  0.78583611973E+02 -0.69220550578E+02  0.10498763372E+03  0.47000000000E+01 0. -1.
<mgrwt>
<rscale>  0 0.13208479E+03</rscale>
<asrwt>0</asrwt>
<pdfrwt beam="1">  1        1 0.26231909E-01 0.13964022E+03</pdfrwt>
<pdfrwt beam="2">  1       -1 0.22483344E-01 0.13964022E+03</pdfrwt>
<totfact> 0.28959218E+03</totfact>
</mgrwt>
</event>
<event>
 8    1  0.3407580E-004  0.1774489E+03  0.7546771E-02  0.1176203E+00
         -1   -1    0    0    0  501 -0.00000000000E+00  0.00000000000E+00  0.12421965400E+03  0.12421965400E+03  0.00000000000E+00 0.  1.
          1   -1    0    0  501    0  0.00000000000E+00 -0.00000000000E+00 -0.25913296289E+03  0.25913296289E+03  0.00000000000E+00 0. -1.
         25    2    1    2    0    0  0.12202246943E+03 -0.31223668408E+02 -0.14315984742E+03  0.22799748512E+03  0.12499484308E+03 0.  0.
         23    2    1    2    0    0 -0.12202246943E+03  0.31223668408E+02  0.82465385225E+01  0.15535513177E+03  0.90569371506E+02 0.  0.
          5    1    3    3  502    0  0.89340990354E+02 -0.45618447376E+02 -0.23640903558E+02  0.10316897605E+03  0.47000000000E+01 0.  1.
         -5    1    3    3    0  502  0.32681479073E+02  0.14394778968E+02 -0.11951894386E+03  0.12482850907E+03  0.47000000000E+01 0.  1.
          5    1    4    4  503    0 -0.25707507294E+02  0.13397087856E+02 -0.37098358961E+02  0.47315284337E+02  0.47000000000E+01 0. -1.
         -5    1    4    4    0  503 -0.96314962134E+02  0.17826580552E+02  0.45344897484E+02  0.10803984743E+03  0.47000000000E+01 0.  1.
<mgrwt>
<rscale>  0 0.17158653E+03</rscale>
<asrwt>0</asrwt>
<pdfrwt beam="1">  1        1 0.39866609E-01 0.17744890E+03</pdfrwt>
<pdfrwt beam="2">  1       -1 0.19110716E-01 0.17744890E+03</pdfrwt>
<totfact> 0.22559750E+03</totfact>
</mgrwt>
</event>
<event>
 8    1  0.3407580E-004  0.1287379E+03  0.7546771E-02  0.1243422E+00
         -1   -1    0    0    0  501 -0.00000000000E+00  0.00000000000E+00  0.84649834961E+03  0.84649834961E+03  0.00000000000E+00 0.  1.
          1   -1    0    0  501    0  0.00000000000E+00 -0.00000000000E+00 -0.15716761396E+02  0.15716761396E+02  0.00000000000E+00 0. -1.
         25    2    1    2    0    0 -0.89347601044E+01 -0.29499407427E+02  0.56381600091E+03  0.57832683690E+03  0.12499360952E+03 0.  0.
         23    2    1    2    0    0  0.89347601044E+01  0.29499407427E+02  0.26696558731E+03  0.28388827411E+03  0.91497991203E+02 0.  0.
          5    1    4    4  502    0  0.36517435913E+02  0.12958376418E+02  0.45060408882E+02  0.59615208577E+02  0.47000000000E+01 0. -1.
         -5    1    4    4    0  502 -0.27582675809E+02  0.16541031009E+02  0.22190517843E+03  0.22427306553E+03  0.47000000000E+01 0.  1.
          5    1    3    3  503    0  0.32009979481E+02  0.35603799479E+02  0.15431972208E+03  0.16164447392E+03  0.47000000000E+01 0.  1.
         -5    1    3    3    0  503 -0.40944739585E+02 -0.65103206906E+02  0.40949627882E+03  0.41668236298E+03  0.47000000000E+01 0.  1.
<mgrwt>
<rscale>  0 0.11980309E+03</rscale>
<asrwt>0</asrwt>
<pdfrwt beam="1">  1        1 0.24179639E-02 0.12873790E+03</pdfrwt>
<pdfrwt beam="2">  1       -1 0.13023048E+00 0.12873790E+03</pdfrwt>
<totfact> 0.24150459E+03</totfact>
</mgrwt>
</event>
<event>
 8    1  0.3407580E-004  0.1253734E+03  0.7546771E-02  0.1250077E+00
         -3   -1    0    0    0  501 -0.00000000000E+00  0.00000000000E+00  0.10735577709E+03  0.10735577709E+03  0.00000000000E+00 0.  1.
          3   -1    0    0  501    0  0.00000000000E+00 -0.00000000000E+00 -0.11327603887E+03  0.11327603887E+03  0.00000000000E+00 0. -1.
         25    2    1    2    0    0  0.95881183189E+01 -0.59875323958E+00  0.16538837141E+02  0.12645954235E+03  0.12500476871E+03 0.  0.
         23    2    1    2    0    0 -0.95881183189E+01  0.59875323958E+00 -0.22459098927E+02  0.94172273609E+02  0.90948971812E+02 0.  0.
          5    1    3    3  502    0  0.49119055931E+02 -0.44261870314E+02  0.88463744416E+01  0.66874084368E+02  0.47000000000E+01 0. -1.
         -5    1    4    4    0  503 -0.57215379375E+01 -0.44920081227E+02 -0.11662396157E+02  0.46996288980E+02  0.47000000000E+01 0.  1.
          5    1    4    4  503    0 -0.38665803814E+01  0.45518834466E+02 -0.10796702770E+02  0.47175984629E+02  0.47000000000E+01 0. -1.
         -5    1    3    3    0  502 -0.39530937612E+02  0.43663117074E+02  0.76924626990E+01  0.59585457987E+02  0.47000000000E+01 0. -1.
<mgrwt>
<rscale>  0 0.11586594E+03</rscale>
<asrwt>0</asrwt>
<pdfrwt beam="1">  1        3 0.17427083E-01 0.12537337E+03</pdfrwt>
<pdfrwt beam="2">  1       -3 0.16516274E-01 0.12537337E+03</pdfrwt>
<totfact> 0.20308808E+03</totfact>
</mgrwt>
</event>
<event>
 8    1  0.3407580E-004  0.1329882E+03  0.7546771E-02  0.1235781E+00
         -2   -1    0    0    0  501 -0.00000000000E+00  0.00000000000E+00  0.45676965035E+02  0.45676965035E+02  0.00000000000E+00 0.  1.
          2   -1    0    0  501    0  0.00000000000E+00 -0.00000000000E+00 -0.39767242763E+03  0.39767242763E+03  0.00000000000E+00 0. -1.
         25    2    1    2    0    0  0.34673305474E+02 -0.29287516624E+02 -0.86032439797E+02  0.15839013337E+03  0.12500342758E+03 0.  0.
         23    2    1    2    0    0 -0.34673305474E+02  0.29287516624E+02 -0.26596302280E+03  0.28495925930E+03  0.91681258835E+02 0.  0.
          5    1    4    4  502    0  0.27399167437E+02  0.27545236477E+02 -0.84883795190E+02  0.93470867732E+02  0.47000000000E+01 0. -1.
         -5    1    4    4    0  502 -0.62072472911E+02  0.17422801470E+01 -0.18107922761E+03  0.19148839157E+03  0.47000000000E+01 0.  1.
          5    1    3    3  503    0 -0.61117547976E+01 -0.28983093549E+02 -0.10781836568E+03  0.11191185477E+03  0.47000000000E+01 0.  1.
         -5    1    3    3    0  503  0.40785060271E+02 -0.30442307484E+00  0.21785925888E+02  0.46478278599E+02  0.47000000000E+01 0.  1.
<mgrwt>
<rscale>  0 0.12454592E+03</rscale>
<asrwt>0</asrwt>
<pdfrwt beam="1">  1        2 0.61180376E-01 0.13298817E+03</pdfrwt>
<pdfrwt beam="2">  1       -2 0.70272251E-02 0.13298817E+03</pdfrwt>
<totfact> 0.88415966E+03</totfact>
</mgrwt>
</event>
<event>
 8    1  0.3407580E-004  0.1392496E+03  0.7546771E-02  0.1224982E+00
         -2   -1    0    0    0  501 -0.00000000000E+00  0.00000000000E+00  0.25778114017E+03  0.25778114017E+03  0.00000000000E+00 0.  1.
          2   -1    0    0  501    0  0.00000000000E+00 -0.00000000000E+00 -0.72740013671E+02  0.72740013671E+02  0.00000000000E+00 0. -1.
         25    2    1    2    0    0  0.44235750333E+02 -0.42522739783E+02  0.34838156000E+02  0.14354140845E+03  0.12500181527E+03 0.  0.
         23    2    1    2    0    0 -0.44235750333E+02  0.42522739783E+02  0.15020297050E+03  0.18697974539E+03  0.92927433159E+02 0.  0.
          5    1    3    3  502    0 -0.67120276409E+01  0.39183962130E+02  0.23636249471E+02  0.46488670580E+02  0.47000000000E+01 0. -1.
         -5    1    3    3    0  502  0.50947777974E+02 -0.81706701913E+02  0.11201906529E+02  0.97052737869E+02  0.47000000000E+01 0. -1.
          5    1    4    4  503    0 -0.37145760816E+02  0.15135172628E+01  0.74450232391E+01  0.38204929683E+02  0.47000000000E+01 0. -1.
         -5    1    4    4    0  503 -0.70899895176E+01  0.41009222521E+02  0.14275794726E+03  0.14877481571E+03  0.47000000000E+01 0.  1.
<mgrwt>
<rscale>  0 0.13168164E+03</rscale>
<asrwt>0</asrwt>
<pdfrwt beam="1">  1        2 0.11190771E-01 0.13924956E+03</pdfrwt>
<pdfrwt beam="2">  1       -2 0.39658636E-01 0.13924956E+03</pdfrwt>
<totfact> 0.32403475E+03</totfact>
</mgrwt>
</event>
<event>
 8    1  0.3407580E-004  0.1658321E+03  0.7546771E-02  0.1189235E+00
         -1   -1    0    0    0  501 -0.00000000000E+00  0.00000000000E+00  0.51899325475E+03  0.51899325475E+03  0.00000000000E+00 0.  1.
          1   -1    0    0  501    0  0.00000000000E+00 -0.00000000000E+00 -0.51231193149E+02  0.51231193149E+02  0.00000000000E+00 0. -1.
         25    2    1    2    0    0 -0.10862120213E+03 -0.86256384211E+01  0.34388535929E+03  0.38178189594E+03  0.12500923384E+03 0.  0.
         23    2    1    2    0    0  0.10862120213E+03  0.86256384211E+01  0.12387670232E+03  0.18844255196E+03  0.91061467274E+02 0.  0.
          5    1    3    3  502    0 -0.22035700360E+02  0.23068162713E+02  0.24259797509E+03  0.24473164842E+03  0.47000000000E+01 0. -1.
         -5    1    3    3    0  502 -0.86585501772E+02 -0.31693801134E+02  0.10128738419E+03  0.13705024752E+03  0.47000000000E+01 0. -1.
          5    1    4    4  503    0  0.54799408630E+02  0.29960074444E+00  0.21940500991E+01  0.55045152399E+02  0.47000000000E+01 0. -1.
         -5    1    4    4    0  503  0.53821793501E+02  0.83260376766E+01  0.12168265222E+03  0.13339739956E+03  0.47000000000E+01 0.  1.
<mgrwt>
<rscale>  0 0.15952421E+03</rscale>
<asrwt>0</asrwt>
<pdfrwt beam="1">  1        1 0.78817224E-02 0.16583207E+03</pdfrwt>
<pdfrwt beam="2">  1       -1 0.79845112E-01 0.16583207E+03</pdfrwt>
<totfact> 0.14313389E+03</totfact>
</mgrwt>
</event>
<event>
 8    1  0.3407580E-004  0.1265485E+03  0.7546771E-02  0.1247172E+00
         -2   -1    0    0    0  501 -0.00000000000E+00  0.00000000000E+00  0.12147159019E+03  0.12147159019E+03  0.00000000000E+00 0.  1.
          2   -1    0    0  501    0  0.00000000000E+00 -0.00000000000E+00 -0.10035007695E+03  0.10035007695E+03  0.00000000000E+00 0. -1.
         25    2    1    2    0    0  0.10205611916E+01  0.19708426107E+02  0.11162491723E+02  0.12703983738E+03  0.12500022182E+03 0.  0.
         23    2    1    2    0    0 -0.10205611916E+01 -0.19708426107E+02  0.99590215212E+01  0.94781829759E+02  0.92168050527E+02 0.  0.
          5    1    4    4  502    0 -0.43359373621E+02 -0.40204962708E+01  0.20220655228E+02  0.48240694117E+02  0.47000000000E+01 0. -1.
         -5    1    3    3    0  503 -0.97937338761E+01 -0.24537579433E+02  0.56533102371E+02  0.62578684001E+02  0.47000000000E+01 0.  1.
          5    1    3    3  503    0  0.10814295068E+02  0.44246005540E+02 -0.45370610648E+02  0.64461153376E+02  0.47000000000E+01 0.  1.
         -5    1    4    4    0  502  0.42338812429E+02 -0.15687929836E+02 -0.10261633707E+02  0.46541135642E+02  0.47000000000E+01 0.  1.
<mgrwt>
<rscale>  0 0.11756317E+03</rscale>
<asrwt>0</asrwt>
<pdfrwt beam="1">  1        2 0.15438473E-01 0.12654849E+03</pdfrwt>
<pdfrwt beam="2">  1       -2 0.18687937E-01 0.12654849E+03</pdfrwt>
<totfact> 0.83392325E+03</totfact>
</mgrwt>
</event>
<event>
 8    1  0.3407580E-004  0.1454578E+03  0.7546771E-02  0.1216423E+00
         -1   -1    0    0    0  501 -0.00000000000E+00  0.00000000000E+00  0.67850996896E+02  0.67850996896E+02  0.00000000000E+00 0.  1.
          1   -1    0    0  501    0  0.00000000000E+00 -0.00000000000E+00 -0.25374869945E+03  0.25374869945E+03  0.00000000000E+00 0. -1.
         25    2    1    2    0    0  0.41854115094E+02  0.61481877572E+02 -0.10652437636E+03  0.18029256378E+03  0.12500471022E+03 0.  0.
         23    2    1    2    0    0 -0.41854115094E+02 -0.61481877572E+02 -0.79373326203E+02  0.14130713257E+03  0.90198628493E+02 0.  0.
          5    1    3    3  502    0 -0.32576859147E+02 -0.99890082555E+01 -0.54972480552E+02  0.64846708905E+02  0.47000000000E+01 0. -1.
         -5    1    3    3    0  502  0.74430974242E+02  0.71470885827E+02 -0.51551895803E+02  0.11544585488E+03  0.47000000000E+01 0. -1.
          5    1    4    4  503    0  0.20818729838E+02 -0.16370592691E+02 -0.53241027401E+02  0.59649918825E+02  0.47000000000E+01 0. -1.
         -5    1    4    4    0  503 -0.62672844933E+02 -0.45111284880E+02 -0.26132298802E+02  0.81657213743E+02  0.47000000000E+01 0.  1.
<mgrwt>
<rscale>  0 0.13772544E+03</rscale>
<asrwt>0</asrwt>
<pdfrwt beam="1">  1        1 0.39038261E-01 0.14545778E+03</pdfrwt>
<pdfrwt beam="2">  1       -1 0.10438615E-01 0.14545778E+03</pdfrwt>
<totfact> 0.59213675E+03</totfact>
</mgrwt>
</event>
<event>
 8    1  0.3407580E-004  0.1386640E+03  0.7546771E-02  0.1227145E+00
         -2   -1    0    0    0  501 -0.00000000000E+00  0.00000000000E+00  0.11885239036E+03  0.11885239036E+03  0.00000000000E+00 0.  1.
          2   -1    0    0  501    0  0.00000000000E+00 -0.00000000000E+00 -0.12845239285E+03  0.12845239285E+03  0.00000000000E+00 0. -1.
         25    2    1    2    0    0 -0.53926894938E+02 -0.26335522255E+02  0.34187528569E+01  0.13870613801E+03  0.12500414042E+03 0.  0.
         23    2    1    2    0    0  0.53926894938E+02  0.26335522255E+02 -0.13018755343E+02  0.10859864520E+03  0.89568454371E+02 0.  0.
          5    1    4    4  502    0 -0.67067263526E+01  0.42024371244E+02  0.53825002817E+01  0.43151932356E+02  0.47000000000E+01 0. -1.
         -5    1    3    3    0  503 -0.66588593622E+01 -0.44248500882E+02 -0.48455942011E+02  0.66123661079E+02  0.47000000000E+01 0. -1.
          5    1    3    3  503    0 -0.47268035576E+02  0.17912978628E+02  0.51874694867E+02  0.72582476935E+02  0.47000000000E+01 0. -1.
         -5    1    4    4    0  502  0.60633621291E+02 -0.15688848989E+02 -0.18401255624E+02  0.65446712843E+02  0.47000000000E+01 0.  1.
<mgrwt>
<rscale>  0 0.13020962E+03</rscale>
<asrwt>0</asrwt>
<pdfrwt beam="1">  1        2 0.19761907E-01 0.13866400E+03</pdfrwt>
<pdfrwt beam="2">  1       -2 0.18284983E-01 0.13866400E+03</pdfrwt>
<totfact> 0.65582047E+03</totfact>
</mgrwt>
</event>
<event>
 8    1  0.3407580E-004  0.1301676E+03  0.7546771E-02  0.1241020E+00
          1   -1    0    0  501    0  0.00000000000E+00  0.00000000000E+00  0.13452707349E+04  0.13452707349E+04  0.00000000000E+00 0. -1.
         -1   -1    0    0    0  501 -0.00000000000E+00 -0.00000000000E+00 -0.14681316527E+02  0.14681316527E+02  0.00000000000E+00 0.  1.
         25    2    1    2    0    0 -0.35841902889E+02 -0.54890114292E+01  0.11213084222E+04  0.11288384257E+04  0.12501536895E+03 0.  0.
         23    2    1    2    0    0  0.35841902889E+02  0.54890114292E+01  0.20928099621E+03  0.23111362573E+03  0.91105440966E+02 0.  0.
          5    1    4    4  502    0  0.48346428800E+01  0.43342707209E+02  0.13578029609E+03  0.14268967323E+03  0.47000000000E+01 0. -1.
         -5    1    4    4    0  502  0.31007260009E+02 -0.37853695780E+02  0.73500700120E+02  0.88423952499E+02  0.47000000000E+01 0.  1.
          5    1    3    3  503    0 -0.37799425311E+02  0.55988370710E+02  0.52551935837E+03  0.52986430360E+03  0.47000000000E+01 0. -1.
         -5    1    3    3    0  503  0.19575224227E+01 -0.61477382139E+02  0.59578906384E+03  0.59897412215E+03  0.47000000000E+01 0. -1.
<mgrwt>
<rscale>  0 0.12126788E+03</rscale>
<asrwt>0</asrwt>
<pdfrwt beam="1">  1        1 0.20696463E+00 0.13016764E+03</pdfrwt>
<pdfrwt beam="2">  1       -1 0.22586651E-02 0.13016764E+03</pdfrwt>
<totfact> 0.51069961E+03</totfact>
</mgrwt>
</event>
<event>
 8    1  0.3407580E-004  0.1309684E+03  0.7546771E-02  0.1237785E+00
          2   -1    0    0  501    0  0.00000000000E+00  0.00000000000E+00  0.12027762260E+03  0.12027762260E+03  0.00000000000E+00 0.  1.
         -2   -1    0    0    0  501 -0.00000000000E+00 -0.00000000000E+00 -0.19813119784E+03  0.19813119784E+03  0.00000000000E+00 0. -1.
         25    2    1    2    0    0  0.15874917956E+02  0.35718493021E+02  0.61941527098E+02  0.14487748673E+03  0.12499963847E+03 0.  0.
         23    2    1    2    0    0 -0.15874917956E+02 -0.35718493021E+02 -0.13979510234E+03  0.17353133371E+03  0.95092740933E+02 0.  0.
          5    1    3    3  502    0  0.23158338048E+02 -0.43283133643E+02  0.11151373896E+02  0.50558692812E+02  0.47000000000E+01 0. -1.
         -5    1    4    4    0  503 -0.35408177616E+02  0.14665843995E+01 -0.10136920354E+02  0.37158270494E+02  0.47000000000E+01 0.  1.
          5    1    4    4  503    0  0.19533259660E+02 -0.37185077421E+02 -0.12965818199E+03  0.13637306322E+03  0.47000000000E+01 0. -1.
         -5    1    3    3    0  502 -0.72834200920E+01  0.79001626664E+02  0.50790153203E+02  0.94318793918E+02  0.47000000000E+01 0. -1.
<mgrwt>
<rscale>  0 0.12327832E+03</rscale>
<asrwt>0</asrwt>
<pdfrwt beam="1">  1        2 0.18504250E-01 0.13096844E+03</pdfrwt>
<pdfrwt beam="2">  1       -2 0.30481723E-01 0.13096844E+03</pdfrwt>
<totfact> 0.29040317E+03</totfact>
</mgrwt>
</event>
<event>
 8    1  0.3407580E-004  0.1415665E+03  0.7546771E-02  0.1222048E+00
         -3   -1    0    0    0  501 -0.00000000000E+00  0.00000000000E+00  0.11166672954E+03  0.11166672954E+03  0.00000000000E+00 0.  1.
          3   -1    0    0  501    0  0.00000000000E+00 -0.00000000000E+00 -0.15998797215E+03  0.15998797215E+03  0.00000000000E+00 0. -1.
         25    2    1    2    0    0 -0.65278006151E+02  0.12505001283E+02 -0.68373225320E+02  0.15721316274E+03  0.12499394967E+03 0.  0.
         23    2    1    2    0    0  0.65278006151E+02 -0.12505001283E+02  0.20051982711E+02  0.11444153895E+03  0.90979067278E+02 0.  0.
          5    1    3    3  502    0 -0.38292485885E+02  0.63199152372E+02 -0.66560814360E+02  0.99563443813E+02  0.47000000000E+01 0.  1.
         -5    1    3    3    0  502 -0.26985520266E+02 -0.50694151089E+02 -0.18124109602E+01  0.57649718925E+02  0.47000000000E+01 0.  1.
          5    1    4    4  503    0  0.59862480735E+02  0.28562865203E+02  0.27742021813E+02  0.72049036375E+02  0.47000000000E+01 0.  1.
         -5    1    4    4    0  503  0.54155254157E+01 -0.41067866486E+02 -0.76900391014E+01  0.42392502576E+02  0.47000000000E+01 0. -1.
<mgrwt>
<rscale>  0 0.13371299E+03</rscale>
<asrwt>0</asrwt>
<pdfrwt beam="1">  1        3 0.24613534E-01 0.14156652E+03</pdfrwt>
<pdfrwt beam="2">  1       -3 0.17179497E-01 0.14156652E+03</pdfrwt>
<totfact> 0.10518737E+03</totfact>
</mgrwt>
</event>
<event>
 8    1  0.3407580E-004  0.1284902E+03  0.7546771E-02  0.1242100E+00
          2   -1    0    0  501    0  0.00000000000E+00  0.00000000000E+00  0.93422847548E+03  0.93422847548E+03  0.00000000000E+00 0. -1.
         -2   -1    0    0    0  501 -0.00000000000E+00 -0.00000000000E+00 -0.14102508772E+02  0.14102508772E+02  0.00000000000E+00 0.  1.
         25    2    1    2    0    0  0.98253479564E+00 -0.29722068525E+02  0.46669440363E+03  0.48405930238E+03  0.12500150041E+03 0.  0.
         23    2    1    2    0    0 -0.98253479564E+00  0.29722068525E+02  0.45343156308E+03  0.46427168188E+03  0.95203179913E+02 0.  0.
          5    1    4    4  502    0 -0.41101912168E+02  0.29231258605E+02  0.34225755304E+03  0.34598577467E+03  0.47000000000E+01 0. -1.
         -5    1    3    3    0  503 -0.37308691600E+01 -0.78737552181E+02  0.29403371001E+03  0.30445267962E+03  0.47000000000E+01 0. -1.
          5    1    3    3  503    0  0.47134039556E+01  0.49015483655E+02  0.17266069362E+03  0.17960662275E+03  0.47000000000E+01 0. -1.
         -5    1    4    4    0  502  0.40119377372E+02  0.49080992075E+00  0.11117401005E+03  0.11828590721E+03  0.47000000000E+01 0.  1.
<mgrwt>
<rscale>  0 0.12060620E+03</rscale>
<asrwt>0</asrwt>
<pdfrwt beam="1">  1        2 0.14372741E+00 0.12849024E+03</pdfrwt>
<pdfrwt beam="2">  1       -2 0.21696175E-02 0.12849024E+03</pdfrwt>
<totfact> 0.18787182E+04</totfact>
</mgrwt>
</event>
<event>
 8    1  0.3407580E-004  0.1332462E+03  0.7546771E-02  0.1234954E+00
          4   -1    0    0  501    0  0.00000000000E+00  0.00000000000E+00  0.15349408983E+03  0.15349408983E+03  0.00000000000E+00 0. -1.
         -4   -1    0    0    0  501 -0.00000000000E+00 -0.00000000000E+00 -0.13600786077E+03  0.13600786077E+03  0.00000000000E+00 0.  1.
         25    2    1    2    0    0  0.46002929558E+02 -0.34986485973E+01  0.92081752484E+02  0.16196789167E+03  0.12500415481E+03 0.  0.
         23    2    1    2    0    0 -0.46002929558E+02  0.34986485973E+01 -0.74595523422E+02  0.12753405894E+03  0.92584739590E+02 0.  0.
          5    1    4    4  502    0  0.26909266038E+02 -0.98813974152E+01 -0.18298985364E+02  0.34332105658E+02  0.47000000000E+01 0. -1.
         -5    1    4    4    0  502 -0.72912195597E+02  0.13380046013E+02 -0.56296538058E+02  0.93201953281E+02  0.47000000000E+01 0.  1.
          5    1    3    3  503    0 -0.41412261116E+02  0.11312244294E+02  0.40935629706E+02  0.59504268932E+02  0.47000000000E+01 0.  1.
         -5    1    3    3    0  503  0.87415190674E+02 -0.14810892891E+02  0.51146122778E+02  0.10246362274E+03  0.47000000000E+01 0.  1.
<mgrwt>
<rscale>  0 0.12507380E+03</rscale>
<asrwt>0</asrwt>
<pdfrwt beam="1">  1        4 0.23614475E-01 0.13324620E+03</pdfrwt>
<pdfrwt beam="2">  1       -4 0.20924286E-01 0.13324620E+03</pdfrwt>
<totfact> 0.57147645E+02</totfact>
</mgrwt>
</event>
<event>
 8    1  0.3407580E-004  0.1360605E+03  0.7546771E-02  0.1230823E+00
          2   -1    0    0  501    0  0.00000000000E+00  0.00000000000E+00  0.17644337421E+03  0.17644337421E+03  0.00000000000E+00 0. -1.
         -2   -1    0    0    0  501 -0.00000000000E+00 -0.00000000000E+00 -0.83108391078E+02  0.83108391078E+02  0.00000000000E+00 0.  1.
         25    2    1    2    0    0 -0.40774935686E+02 -0.34992920165E+02  0.45439177614E+02  0.14344743512E+03  0.12500139175E+03 0.  0.
         23    2    1    2    0    0  0.40774935686E+02  0.34992920165E+02  0.47895805513E+02  0.11610433016E+03  0.91099437184E+02 0.  0.
          5    1    3    3  502    0 -0.82433999002E+02 -0.40172953797E+02  0.42276030192E+02  0.10108700776E+03  0.47000000000E+01 0. -1.
         -5    1    3    3    0  502  0.41659063316E+02  0.51800336322E+01  0.31631474219E+01  0.42360427364E+02  0.47000000000E+01 0. -1.
          5    1    4    4  503    0 -0.20898813526E+01 -0.20562916422E+02  0.40085464672E+02  0.45344631587E+02  0.47000000000E+01 0. -1.
         -5    1    4    4    0  503  0.42864817039E+02  0.55555836586E+02  0.78103408413E+01  0.70759698576E+02  0.47000000000E+01 0.  1.
<mgrwt>
<rscale>  0 0.12775688E+03</rscale>
<asrwt>0</asrwt>
<pdfrwt beam="1">  1        2 0.27145134E-01 0.13606046E+03</pdfrwt>
<pdfrwt beam="2">  1       -2 0.12785906E-01 0.13606046E+03</pdfrwt>
<totfact> 0.82670665E+03</totfact>
</mgrwt>
</event>
<event>
 8    1  0.3407580E-004  0.2232635E+03  0.7546771E-02  0.1134801E+00
         -1   -1    0    0    0  501 -0.00000000000E+00  0.00000000000E+00  0.20497564189E+03  0.20497564189E+03  0.00000000000E+00 0.  1.
          1   -1    0    0  501    0  0.00000000000E+00 -0.00000000000E+00 -0.22765071530E+03  0.22765071530E+03  0.00000000000E+00 0. -1.
         25    2    1    2    0    0  0.12310679586E+03  0.13807815140E+03  0.13335949394E+02  0.22366141441E+03  0.12500288664E+03 0.  0.
         23    2    1    2    0    0 -0.12310679586E+03 -0.13807815140E+03 -0.36011022809E+02  0.20896494278E+03  0.90270119476E+02 0.  0.
          5    1    3    3  502    0  0.85523543647E+02  0.10318570265E+03  0.66464353565E+02  0.14967019090E+03  0.47000000000E+01 0.  1.
         -5    1    4    4    0  503 -0.12656973971E+03 -0.91171829248E+02 -0.13591480008E+02  0.15664935297E+03  0.47000000000E+01 0.  1.
          5    1    4    4  503    0  0.34629438546E+01 -0.46906322150E+02 -0.22419542801E+02  0.52315589810E+02  0.47000000000E+01 0. -1.
         -5    1    3    3    0  502  0.37583252209E+02  0.34892448747E+02 -0.53128404171E+02  0.73991223505E+02  0.47000000000E+01 0.  1.
<mgrwt>
<rscale>  0 0.21877364E+03</rscale>
<asrwt>0</asrwt>
<pdfrwt beam="1">  1        1 0.35023187E-01 0.22326348E+03</pdfrwt>
<pdfrwt beam="2">  1       -1 0.31534714E-01 0.22326348E+03</pdfrwt>
<totfact> 0.11634797E+03</totfact>
</mgrwt>
</event>
<event>
 8    1  0.3407580E-004  0.1315088E+03  0.7546771E-02  0.1239236E+00
          1   -1    0    0  501    0  0.00000000000E+00  0.00000000000E+00  0.18794706496E+03  0.18794706496E+03  0.00000000000E+00 0. -1.
         -1   -1    0    0    0  501 -0.00000000000E+00 -0.00000000000E+00 -0.70930380709E+02  0.70930380709E+02  0.00000000000E+00 0.  1.
         25    2    1    2    0    0  0.38185727969E+02 -0.14699900006E+02  0.56046689652E+02  0.14295380519E+03  0.12498128707E+03 0.  0.
         23    2    1    2    0    0 -0.38185727969E+02  0.14699900006E+02  0.60969994595E+02  0.11592364048E+03  0.89703474290E+02 0.  0.
          5    1    4    4  502    0  0.11086226595E+02  0.31811586337E+02  0.52963242855E+02  0.62945027914E+02  0.47000000000E+01 0. -1.
         -5    1    3    3    0  503  0.46210382064E+02  0.39460931319E+02  0.62888187876E+02  0.87576130797E+02  0.47000000000E+01 0.  1.
          5    1    3    3  503    0 -0.80246540947E+01 -0.54160831325E+02 -0.68414982238E+01  0.55377674393E+02  0.47000000000E+01 0.  1.
         -5    1    4    4    0  502 -0.49271954564E+02 -0.17111686331E+02  0.80067517398E+01  0.52978612562E+02  0.47000000000E+01 0.  1.
<mgrwt>
<rscale>  0 0.12237132E+03</rscale>
<asrwt>0</asrwt>
<pdfrwt beam="1">  1        1 0.28914933E-01 0.13150878E+03</pdfrwt>
<pdfrwt beam="2">  1       -1 0.10912366E-01 0.13150878E+03</pdfrwt>
<totfact> 0.79746678E+03</totfact>
</mgrwt>
</event>
<event>
 8    1  0.3407580E-004  0.1303058E+03  0.7546771E-02  0.1242213E+00
         -1   -1    0    0    0  501 -0.00000000000E+00  0.00000000000E+00  0.36733211936E+03  0.36733211936E+03  0.00000000000E+00 0.  1.
          1   -1    0    0  501    0  0.00000000000E+00 -0.00000000000E+00 -0.39744701231E+02  0.39744701231E+02  0.00000000000E+00 0. -1.
         25    2    1    2    0    0 -0.32052916707E+02  0.17981933325E+02  0.25782428115E+03  0.28888228186E+03  0.12501549273E+03 0.  0.
         23    2    1    2    0    0  0.32052916707E+02 -0.17981933325E+02  0.69763136977E+02  0.11819453874E+03  0.88047227732E+02 0.  0.
          5    1    4    4  502    0  0.25440928701E+02  0.27179219043E+02  0.36249027188E+01  0.37698550644E+02  0.47000000000E+01 0. -1.
         -5    1    4    4    0  502  0.66119880068E+01 -0.45161152368E+02  0.66138234259E+02  0.80495988095E+02  0.47000000000E+01 0.  1.
          5    1    3    3  503    0 -0.61946403692E+02  0.53995031117E+02  0.18037211203E+03  0.19826499720E+03  0.47000000000E+01 0. -1.
         -5    1    3    3    0  503  0.29893486985E+02 -0.36013097791E+02  0.77452169125E+02  0.90617284658E+02  0.47000000000E+01 0. -1.
<mgrwt>
<rscale>  0 0.12053726E+03</rscale>
<asrwt>0</asrwt>
<pdfrwt beam="1">  1        1 0.61145697E-02 0.13030584E+03</pdfrwt>
<pdfrwt beam="2">  1       -1 0.56512631E-01 0.13030584E+03</pdfrwt>
<totfact> 0.39256648E+03</totfact>
</mgrwt>
</event>
<event>
 8    1  0.3407580E-004  0.1793036E+03  0.7546771E-02  0.1174062E+00
          1   -1    0    0  501    0  0.00000000000E+00  0.00000000000E+00  0.22146109724E+03  0.22146109724E+03  0.00000000000E+00 0. -1.
         -1   -1    0    0    0  501 -0.00000000000E+00 -0.00000000000E+00 -0.13538078219E+03  0.13538078219E+03  0.00000000000E+00 0.  1.
         25    2    1    2    0    0 -0.12853042886E+03  0.22367573264E+01  0.86300493857E+02  0.19899133163E+03  0.12499880238E+03 0.  0.
         23    2    1    2    0    0  0.12853042886E+03 -0.22367573264E+01 -0.22017880570E+00  0.15785054780E+03  0.91606073683E+02 0.  0.
          5    1    3    3  502    0 -0.64211320788E+02 -0.37380490879E+02  0.97294215076E+02  0.12250979187E+03  0.47000000000E+01 0. -1.
         -5    1    4    4    0  503  0.66262824065E+02 -0.19216590165E+02 -0.41919911886E+02  0.80866607467E+02  0.47000000000E+01 0.  1.
          5    1    4    4  503    0  0.62267604793E+02  0.16979832839E+02  0.41699733081E+02  0.76983940331E+02  0.47000000000E+01 0. -1.
         -5    1    3    3    0  502 -0.64319108070E+02  0.39617248206E+02 -0.10993721219E+02  0.76481539763E+02  0.47000000000E+01 0. -1.
<mgrwt>
<rscale>  0 0.17368133E+03</rscale>
<asrwt>0</asrwt>
<pdfrwt beam="1">  1        1 0.34070938E-01 0.17930358E+03</pdfrwt>
<pdfrwt beam="2">  1       -1 0.20827813E-01 0.17930358E+03</pdfrwt>
<totfact> 0.23890160E+03</totfact>
</mgrwt>
</event>
<event>
 8    1  0.3407580E-004  0.1256678E+03  0.7546771E-02  0.1247065E+00
          2   -1    0    0  501    0  0.00000000000E+00  0.00000000000E+00  0.24116803371E+03  0.24116803371E+03  0.00000000000E+00 0. -1.
         -2   -1    0    0    0  501 -0.00000000000E+00 -0.00000000000E+00 -0.51500075833E+02  0.51500075833E+02  0.00000000000E+00 0.  1.
         25    2    1    2    0    0 -0.11127546608E+02 -0.66040833222E+01  0.95212745509E+02  0.15766375319E+03  0.12499982381E+03 0.  0.
         23    2    1    2    0    0  0.11127546608E+02  0.66040833222E+01  0.94455212364E+02  0.13500435635E+03  0.95587409630E+02 0.  0.
          5    1    4    4  502    0  0.44926852486E+02  0.30282106102E+02  0.60561766618E+02  0.81395611676E+02  0.47000000000E+01 0. -1.
         -5    1    3    3    0  503 -0.15098775826E+02 -0.39073456729E+02  0.11266438042E+03  0.12029156524E+03  0.47000000000E+01 0.  1.
          5    1    3    3  503    0  0.39712292180E+01  0.32469373407E+02 -0.17451634915E+02  0.37372187950E+02  0.47000000000E+01 0.  1.
         -5    1    4    4    0  502 -0.33799305877E+02 -0.23678022780E+02  0.33893445747E+02  0.53608744670E+02  0.47000000000E+01 0.  1.
<mgrwt>
<rscale>  0 0.11762617E+03</rscale>
<asrwt>0</asrwt>
<pdfrwt beam="1">  1        2 0.37102774E-01 0.12566778E+03</pdfrwt>
<pdfrwt beam="2">  1       -2 0.79230887E-02 0.12566778E+03</pdfrwt>
<totfact> 0.12444478E+04</totfact>
</mgrwt>
</event>
<event>
 8    1  0.3407580E-004  0.1619661E+03  0.7546771E-02  0.1193417E+00
          1   -1    0    0  501    0  0.00000000000E+00  0.00000000000E+00  0.45229178587E+03  0.45229178587E+03  0.00000000000E+00 0. -1.
         -1   -1    0    0    0  501 -0.00000000000E+00 -0.00000000000E+00 -0.63662573751E+02  0.63662573751E+02  0.00000000000E+00 0.  1.
         25    2    1    2    0    0  0.60155552360E+02 -0.83606578801E+02  0.87029639441E+02  0.18386731142E+03  0.12499711825E+03 0.  0.
         23    2    1    2    0    0 -0.60155552360E+02  0.83606578801E+02  0.30159957268E+03  0.33208704820E+03  0.93331424730E+02 0.  0.
          5    1    3    3  502    0 -0.20226879978E+02  0.11554067786E+02  0.47468935647E+02  0.53084960276E+02  0.47000000000E+01 0.  1.
         -5    1    4    4    0  503 -0.69828199644E+02  0.41975769725E+02  0.25902882947E+03  0.27158049858E+03  0.47000000000E+01 0. -1.
          5    1    4    4  503    0  0.96726472843E+01  0.41630809076E+02  0.42570743204E+02  0.60506549618E+02  0.47000000000E+01 0.  1.
         -5    1    3    3    0  502  0.80382432338E+02 -0.95160646587E+02  0.39560703795E+02  0.13078235115E+03  0.47000000000E+01 0.  1.
<mgrwt>
<rscale>  0 0.15588979E+03</rscale>
<asrwt>0</asrwt>
<pdfrwt beam="1">  1        1 0.69583350E-01 0.16196614E+03</pdfrwt>
<pdfrwt beam="2">  1       -1 0.97942424E-02 0.16196614E+03</pdfrwt>
<totfact> 0.31797304E+03</totfact>
</mgrwt>
</event>
<event>
 8    1  0.3407580E-004  0.1402880E+03  0.7546771E-02  0.1223431E+00
         -2   -1    0    0    0  501 -0.00000000000E+00  0.00000000000E+00  0.29656160590E+02  0.29656160590E+02  0.00000000000E+00 0.  1.
          2   -1    0    0  501    0  0.00000000000E+00 -0.00000000000E+00 -0.67909583473E+03  0.67909583473E+03  0.00000000000E+00 0. -1.
         25    2    1    2    0    0 -0.51550545984E+02 -0.37398355090E+02 -0.19264640616E+03  0.23831359770E+03  0.12499854914E+03 0.  0.
         23    2    1    2    0    0  0.51550545984E+02  0.37398355090E+02 -0.45679326798E+03  0.47043839762E+03  0.92715158026E+02 0.  0.
          5    1    3    3  502    0 -0.59151112856E+02 -0.68856438482E+02 -0.18281448812E+03  0.20416486068E+03  0.47000000000E+01 0. -1.
         -5    1    4    4    0  503  0.20928852149E+02  0.56998420628E+02 -0.15677013020E+03  0.16818382957E+03  0.47000000000E+01 0.  1.
          5    1    4    4  503    0  0.30621693835E+02 -0.19600065538E+02 -0.30002313778E+03  0.30225456805E+03  0.47000000000E+01 0. -1.
         -5    1    3    3    0  502  0.76005668719E+01  0.31458083392E+02 -0.98319180433E+01  0.34148737017E+02  0.47000000000E+01 0. -1.
<mgrwt>
<rscale>  0 0.13275052E+03</rscale>
<asrwt>0</asrwt>
<pdfrwt beam="1">  1        2 0.10447628E+00 0.14028804E+03</pdfrwt>
<pdfrwt beam="2">  1       -2 0.45624862E-02 0.14028804E+03</pdfrwt>
<totfact> 0.94073883E+03</totfact>
</mgrwt>
</event>
<event>
 8    1  0.3407580E-004  0.1402727E+03  0.7546771E-02  0.1224272E+00
         -1   -1    0    0    0  501 -0.00000000000E+00  0.00000000000E+00  0.46271330943E+02  0.46271330943E+02  0.00000000000E+00 0.  1.
          1   -1    0    0  501    0  0.00000000000E+00 -0.00000000000E+00 -0.35758874190E+03  0.35758874190E+03  0.00000000000E+00 0. -1.
         25    2    1    2    0    0  0.15377988853E+02 -0.61767638468E+02 -0.12862592574E+03  0.19031830996E+03  0.12499882652E+03 0.  0.
         23    2    1    2    0    0 -0.15377988853E+02  0.61767638468E+02 -0.18269148522E+03  0.21354176288E+03  0.90400121786E+02 0.  0.
          5    1    3    3  502    0 -0.29567310523E+02 -0.36651025125E+02  0.44682233671E+01  0.47535024080E+02  0.47000000000E+01 0. -1.
         -5    1    3    3    0  502  0.44945299375E+02 -0.25116613343E+02 -0.13309414910E+03  0.14278328588E+03  0.47000000000E+01 0. -1.
          5    1    4    4  503    0 -0.20908516741E+02  0.39771913875E+02 -0.18483908929E+03  0.19028018850E+03  0.47000000000E+01 0. -1.
         -5    1    4    4    0  503  0.55305278887E+01  0.21995724593E+02  0.21476040773E+01  0.23261574374E+02  0.47000000000E+01 0.  1.
<mgrwt>
<rscale>  0 0.13216946E+03</rscale>
<asrwt>0</asrwt>
<pdfrwt beam="1">  1        1 0.55013655E-01 0.14027270E+03</pdfrwt>
<pdfrwt beam="2">  1       -1 0.71186660E-02 0.14027270E+03</pdfrwt>
<totfact> 0.68958325E+03</totfact>
</mgrwt>
</event>
<event>
 8    1  0.3407580E-004  0.1407844E+03  0.7546771E-02  0.1223097E+00
          1   -1    0    0  501    0  0.00000000000E+00  0.00000000000E+00  0.88910222909E+03  0.88910222909E+03  0.00000000000E+00 0. -1.
         -1   -1    0    0    0  501 -0.00000000000E+00 -0.00000000000E+00 -0.18782311264E+02  0.18782311264E+02  0.00000000000E+00 0.  1.
         25    2    1    2    0    0 -0.62929079890E+02 -0.15385068719E+02  0.57580226036E+03  0.59276344103E+03  0.12499393804E+03 0.  0.
         23    2    1    2    0    0  0.62929079890E+02  0.15385068719E+02  0.29451765746E+03  0.31512109932E+03  0.91454290473E+02 0.  0.
          5    1    3    3  502    0 -0.16077317626E+02 -0.65893869026E+02  0.35366056094E+03  0.36013659142E+03  0.47000000000E+01 0. -1.
         -5    1    3    3    0  502 -0.46851762264E+02  0.50508800307E+02  0.22214169943E+03  0.23262684961E+03  0.47000000000E+01 0. -1.
          5    1    4    4  503    0  0.53133004466E+02 -0.65101537458E+01  0.28307889404E+03  0.28813408079E+03  0.47000000000E+01 0. -1.
         -5    1    4    4    0  503  0.97960754238E+01  0.21895222465E+02  0.11438763429E+02  0.26987018533E+02  0.47000000000E+01 0.  1.
<mgrwt>
<rscale>  0 0.13298189E+03</rscale>
<asrwt>0</asrwt>
<pdfrwt beam="1">  1        1 0.13678493E+00 0.14078442E+03</pdfrwt>
<pdfrwt beam="2">  1       -1 0.28895870E-02 0.14078442E+03</pdfrwt>
<totfact> 0.75267827E+03</totfact>
</mgrwt>
</event>
<event>
 8    1  0.3407580E-004  0.1647209E+03  0.7546771E-02  0.1189873E+00
         -2   -1    0    0    0  501 -0.00000000000E+00  0.00000000000E+00  0.28071360935E+02  0.28071360935E+02  0.00000000000E+00 0.  1.
          2   -1    0    0  501    0  0.00000000000E+00 -0.00000000000E+00 -0.94776374069E+03  0.94776374069E+03  0.00000000000E+00 0. -1.
         25    2    1    2    0    0  0.76446964810E+02 -0.75257184062E+02 -0.65105556333E+03  0.67157004926E+03  0.12500080935E+03 0.  0.
         23    2    1    2    0    0 -0.76446964810E+02  0.75257184062E+02 -0.26863681642E+03  0.30426505236E+03  0.94359423329E+02 0.  0.
          5    1    3    3  502    0  0.68370305735E+02 -0.10901286908E+03 -0.53904402131E+03  0.55421011470E+03  0.47000000000E+01 0.  1.
         -5    1    4    4    0  503 -0.13138996293E+02  0.54187057095E+02 -0.48032127875E+02  0.73743106040E+02  0.47000000000E+01 0.  1.
          5    1    4    4  503    0 -0.63307968517E+02  0.21070126967E+02 -0.22060468855E+03  0.23052194632E+03  0.47000000000E+01 0. -1.
         -5    1    3    3    0  502  0.80766590752E+01  0.33755685019E+02 -0.11201154202E+03  0.11735993456E+03  0.47000000000E+01 0.  1.
<mgrwt>
<rscale>  0 0.15896295E+03</rscale>
<asrwt>0</asrwt>
<pdfrwt beam="1">  1        2 0.14580982E+00 0.16472093E+03</pdfrwt>
<pdfrwt beam="2">  1       -2 0.43186704E-02 0.16472093E+03</pdfrwt>
<totfact> 0.67779088E+03</totfact>
</mgrwt>
</event>
<event>
 8    1  0.3407580E-004  0.1541879E+03  0.7546771E-02  0.1204069E+00
         -3   -1    0    0    0  501 -0.00000000000E+00  0.00000000000E+00  0.66631692912E+02  0.66631692912E+02  0.00000000000E+00 0. -1.
          3   -1    0    0  501    0  0.00000000000E+00 -0.00000000000E+00 -0.32333740833E+03  0.32333740833E+03  0.00000000000E+00 0.  1.
         25    2    1    2    0    0 -0.62900681597E+02 -0.64756454420E+02 -0.85387925566E+02  0.17625263847E+03  0.12499600233E+03 0.  0.
         23    2    1    2    0    0  0.62900681597E+02  0.64756454420E+02 -0.17131778985E+03  0.21371646278E+03  0.90415967660E+02 0.  0.
          5    1    4    4  502    0 -0.14918351166E+02  0.26155952691E+02 -0.13125954200E+02  0.33182401003E+02  0.47000000000E+01 0. -1.
         -5    1    3    3    0  503  0.99227659521E+01 -0.39125104549E+02 -0.90021683365E+02  0.98768560615E+02  0.47000000000E+01 0.  1.
          5    1    3    3  503    0 -0.72823447549E+02 -0.25631349871E+02  0.46337577988E+01  0.77484077851E+02  0.47000000000E+01 0.  1.
         -5    1    4    4    0  502  0.77819032762E+02  0.38600501729E+02 -0.15819183565E+03  0.18053406177E+03  0.47000000000E+01 0.  1.
<mgrwt>
<rscale>  0 0.14711064E+03</rscale>
<asrwt>0</asrwt>
<pdfrwt beam="1">  1        3 0.49744218E-01 0.15418786E+03</pdfrwt>
<pdfrwt beam="2">  1       -3 0.10251029E-01 0.15418786E+03</pdfrwt>
<totfact> 0.67398391E+02</totfact>
</mgrwt>
</event>
<event>
 8    1  0.3407580E-004  0.1270373E+03  0.7546771E-02  0.1244491E+00
          1   -1    0    0  501    0  0.00000000000E+00  0.00000000000E+00  0.80821623538E+03  0.80821623538E+03  0.00000000000E+00 0. -1.
         -1   -1    0    0    0  501 -0.00000000000E+00 -0.00000000000E+00 -0.16864632358E+02  0.16864632358E+02  0.00000000000E+00 0.  1.
         25    2    1    2    0    0 -0.22756686258E+02  0.11506955228E+01  0.33555936355E+03  0.35880155022E+03  0.12497709834E+03 0.  0.
         23    2    1    2    0    0  0.22756686258E+02 -0.11506955228E+01  0.45579223948E+03  0.46627931752E+03  0.95659006404E+02 0.  0.
          5    1    4    4  502    0 -0.26245979489E+01  0.43760688774E+02  0.15897644615E+03  0.16497723124E+03  0.47000000000E+01 0. -1.
         -5    1    4    4    0  502  0.25381284207E+02 -0.44911384297E+02  0.29681579333E+03  0.30130208628E+03  0.47000000000E+01 0.  1.
          5    1    3    3  503    0  0.33310689976E+02 -0.41005931364E+02  0.18818109150E+03  0.19551291945E+03  0.47000000000E+01 0.  1.
         -5    1    3    3    0  503 -0.56067376234E+02  0.42156626887E+02  0.14737827204E+03  0.16328863077E+03  0.47000000000E+01 0.  1.
<mgrwt>
<rscale>  0 0.11915869E+03</rscale>
<asrwt>0</asrwt>
<pdfrwt beam="1">  1        1 0.12434093E+00 0.12703726E+03</pdfrwt>
<pdfrwt beam="2">  1       -1 0.25945594E-02 0.12703726E+03</pdfrwt>
<totfact> 0.10138705E+04</totfact>
</mgrwt>
</event>
<event>
 8    1  0.3407580E-004  0.1494181E+03  0.7546771E-02  0.1210600E+00
          1   -1    0    0  501    0  0.00000000000E+00  0.00000000000E+00  0.11654171876E+04  0.11654171876E+04  0.00000000000E+00 0. -1.
         -1   -1    0    0    0  501 -0.00000000000E+00 -0.00000000000E+00 -0.16015769143E+02  0.16015769143E+02  0.00000000000E+00 0.  1.
         25    2    1    2    0    0  0.65897167263E+02 -0.48583003087E+02  0.69881033495E+03  0.71460595154E+03  0.12499214739E+03 0.  0.
         23    2    1    2    0    0 -0.65897167263E+02  0.48583003087E+02  0.45059108354E+03  0.46682700523E+03  0.90511786001E+02 0.  0.
          5    1    4    4  502    0 -0.52731254372E+02  0.17853273233E+02  0.41107066823E+03  0.41484998352E+03  0.47000000000E+01 0. -1.
         -5    1    4    4    0  502 -0.13165912891E+02  0.30729729855E+02  0.39520415317E+02  0.51977021712E+02  0.47000000000E+01 0.  1.
          5    1    3    3  503    0 -0.33336241202E+02 -0.24673714971E+00  0.95431166050E+02  0.10119566844E+03  0.47000000000E+01 0. -1.
         -5    1    3    3    0  503  0.99233408465E+02 -0.48336265937E+02  0.60337916890E+03  0.61341028311E+03  0.47000000000E+01 0. -1.
<mgrwt>
<rscale>  0 0.14204732E+03</rscale>
<asrwt>0</asrwt>
<pdfrwt beam="1">  1        1 0.17929489E+00 0.14941814E+03</pdfrwt>
<pdfrwt beam="2">  1       -1 0.24639654E-02 0.14941814E+03</pdfrwt>
<totfact> 0.59869797E+03</totfact>
</mgrwt>
</event>
<event>
 8    1  0.3407580E-004  0.1259175E+03  0.7546771E-02  0.1249167E+00
          2   -1    0    0  501    0  0.00000000000E+00  0.00000000000E+00  0.60904471869E+02  0.60904471869E+02  0.00000000000E+00 0. -1.
         -2   -1    0    0    0  501 -0.00000000000E+00 -0.00000000000E+00 -0.31002757398E+03  0.31002757398E+03  0.00000000000E+00 0.  1.
         25    2    1    2    0    0  0.11791599648E+02  0.96007922148E+01 -0.24896948697E+03  0.27900004418E+03  0.12499600864E+03 0.  0.
         23    2    1    2    0    0 -0.11791599648E+02 -0.96007922148E+01 -0.15361513984E+00  0.91932001670E+02  0.90665607041E+02 0.  0.
          5    1    4    4  502    0 -0.37327339719E+02  0.84839416070E+01  0.29508503377E+02  0.48560779722E+02  0.47000000000E+01 0. -1.
         -5    1    3    3    0  503 -0.50928369002E+02  0.30060696104E+02 -0.10596965463E+03  0.12144546892E+03  0.47000000000E+01 0. -1.
          5    1    3    3  503    0  0.62719968650E+02 -0.20459903889E+02 -0.14299983234E+03  0.15755457526E+03  0.47000000000E+01 0. -1.
         -5    1    4    4    0  502  0.25535740071E+02 -0.18084733822E+02 -0.29662118516E+02  0.43371221948E+02  0.47000000000E+01 0.  1.
<mgrwt>
<rscale>  0 0.11639414E+03</rscale>
<asrwt>0</asrwt>
<pdfrwt beam="1">  1        2 0.93699188E-02 0.12591751E+03</pdfrwt>
<pdfrwt beam="2">  1       -2 0.47696550E-01 0.12591751E+03</pdfrwt>
<totfact> 0.28065109E+03</totfact>
</mgrwt>
</event>
<event>
 8    1  0.3407580E-004  0.2992485E+03  0.7546771E-02  0.1087199E+00
         -3   -1    0    0    0  501 -0.00000000000E+00  0.00000000000E+00  0.14617596972E+03  0.14617596972E+03  0.00000000000E+00 0.  1.
          3   -1    0    0  501    0  0.00000000000E+00 -0.00000000000E+00 -0.60072786844E+03  0.60072786844E+03  0.00000000000E+00 0. -1.
         25    2    1    2    0    0 -0.21833862241E+03  0.16201679428E+03 -0.28710194321E+03  0.41470129708E+03  0.12501377660E+03 0.  0.
         23    2    1    2    0    0  0.21833862241E+03 -0.16201679428E+03 -0.16744995551E+03  0.33220254108E+03  0.91639756848E+02 0.  0.
          5    1    3    3  502    0 -0.30475558481E+02  0.19454819693E+02 -0.12056484045E+03  0.12595721665E+03  0.47000000000E+01 0. -1.
         -5    1    4    4    0  503  0.63761649286E+02 -0.52270319474E+02 -0.10277912624E+03  0.13184602007E+03  0.47000000000E+01 0.  1.
          5    1    4    4  503    0  0.15457697312E+03 -0.10974647481E+03 -0.64670829267E+02  0.20035652101E+03  0.47000000000E+01 0. -1.
         -5    1    3    3    0  502 -0.18786306393E+03  0.14256197459E+03 -0.16653710276E+03  0.28874408043E+03  0.47000000000E+01 0. -1.
<mgrwt>
<rscale>  0 0.29611573E+03</rscale>
<asrwt>0</asrwt>
<pdfrwt beam="1">  1        3 0.92419670E-01 0.29924846E+03</pdfrwt>
<pdfrwt beam="2">  1       -3 0.22488611E-01 0.29924846E+03</pdfrwt>
<totfact> 0.49498761E+01</totfact>
</mgrwt>
</event>
<event>
 8    1  0.3407580E-004  0.1320130E+03  0.7546771E-02  0.1239209E+00
          2   -1    0    0  501    0  0.00000000000E+00  0.00000000000E+00  0.65152367105E+03  0.65152367105E+03  0.00000000000E+00 0.  1.
         -2   -1    0    0    0  501 -0.00000000000E+00 -0.00000000000E+00 -0.48565492953E+02  0.48565492953E+02  0.00000000000E+00 0. -1.
         25    2    1    2    0    0  0.23892724986E+02 -0.35090024867E+02  0.58651695358E+03  0.60119011959E+03  0.12500100361E+03 0.  0.
         23    2    1    2    0    0 -0.23892724986E+02  0.35090024867E+02  0.16441224515E+02  0.98899044412E+02  0.87798262907E+02 0.  0.
          5    1    3    3  502    0  0.70579987024E+02 -0.21743677512E+02  0.45373094133E+03  0.45972620026E+03  0.47000000000E+01 0. -1.
         -5    1    3    3    0  502 -0.46687262038E+02 -0.13346347355E+02  0.13278601225E+03  0.14146391933E+03  0.47000000000E+01 0. -1.
          5    1    4    4  503    0  0.13450437822E+02  0.21323850573E+02 -0.28730693936E+02  0.38511863821E+02  0.47000000000E+01 0. -1.
         -5    1    4    4    0  503 -0.37343162807E+02  0.13766174294E+02  0.45171918452E+02  0.60387180591E+02  0.47000000000E+01 0.  1.
<mgrwt>
<rscale>  0 0.12238806E+03</rscale>
<asrwt>0</asrwt>
<pdfrwt beam="1">  1        2 0.10023440E+00 0.13201297E+03</pdfrwt>
<pdfrwt beam="2">  1       -2 0.74716147E-02 0.13201297E+03</pdfrwt>
<totfact> 0.46629129E+03</totfact>
</mgrwt>
</event>
<event>
 8    1  0.3407580E-004  0.1417479E+03  0.7546771E-02  0.1219675E+00
          1   -1    0    0  501    0  0.00000000000E+00  0.00000000000E+00  0.99845844096E+03  0.99845844096E+03  0.00000000000E+00 0. -1.
         -1   -1    0    0    0  501 -0.00000000000E+00 -0.00000000000E+00 -0.20655470962E+02  0.20655470962E+02  0.00000000000E+00 0.  1.
         25    2    1    2    0    0 -0.64906152449E+02  0.15946830586E+02  0.30865472432E+03  0.33964715938E+03  0.12500137598E+03 0.  0.
         23    2    1    2    0    0  0.64906152449E+02 -0.15946830586E+02  0.66914824567E+03  0.67946675254E+03  0.97203822395E+02 0.  0.
          5    1    4    4  502    0  0.68180693809E+02 -0.49042606439E+02  0.49789640359E+03  0.50495217888E+03  0.47000000000E+01 0. -1.
         -5    1    3    3    0  503 -0.59755625331E+02 -0.20872726884E+02  0.29168369673E+03  0.29850942100E+03  0.47000000000E+01 0.  1.
          5    1    3    3  503    0 -0.51505271180E+01  0.36819557470E+02  0.16971027597E+02  0.41137738386E+02  0.47000000000E+01 0.  1.
         -5    1    4    4    0  502 -0.32745413600E+01  0.33095775854E+02  0.17125184209E+03  0.17451457366E+03  0.47000000000E+01 0.  1.
<mgrwt>
<rscale>  0 0.13538654E+03</rscale>
<asrwt>0</asrwt>
<pdfrwt beam="1">  1        1 0.15360895E+00 0.14174785E+03</pdfrwt>
<pdfrwt beam="2">  1       -1 0.31777655E-02 0.14174785E+03</pdfrwt>
<totfact> 0.54227965E+03</totfact>
</mgrwt>
</event>
<event>
 8    1  0.3407580E-004  0.1287374E+03  0.7546771E-02  0.1242803E+00
         -2   -1    0    0    0  501 -0.00000000000E+00  0.00000000000E+00  0.10776943373E+03  0.10776943373E+03  0.00000000000E+00 0.  1.
          2   -1    0    0  501    0  0.00000000000E+00 -0.00000000000E+00 -0.45240956120E+03  0.45240956120E+03  0.00000000000E+00 0. -1.
         25    2    1    2    0    0  0.43696179823E+01  0.30590779612E+02 -0.41836893834E+03  0.43772811023E+03  0.12497375948E+03 0.  0.
         23    2    1    2    0    0 -0.43696179823E+01 -0.30590779612E+02  0.73728810866E+02  0.12245088470E+03  0.92754472960E+02 0.  0.
          5    1    4    4  502    0 -0.30080598192E+02 -0.47078566701E+02  0.18276680414E+02  0.58969151912E+02  0.47000000000E+01 0. -1.
         -5    1    3    3    0  503 -0.36457714124E+02 -0.35373704136E+02 -0.16725929451E+03  0.17486630740E+03  0.47000000000E+01 0. -1.
          5    1    3    3  503    0  0.40827332106E+02  0.65964483748E+02 -0.25110964382E+03  0.26286180282E+03  0.47000000000E+01 0. -1.
         -5    1    4    4    0  502  0.25710980210E+02  0.16487787089E+02  0.55452130452E+02  0.63481732790E+02  0.47000000000E+01 0.  1.
<mgrwt>
<rscale>  0 0.12017832E+03</rscale>
<asrwt>0</asrwt>
<pdfrwt beam="1">  1        2 0.69601472E-01 0.12873745E+03</pdfrwt>
<pdfrwt beam="2">  1       -2 0.16579913E-01 0.12873745E+03</pdfrwt>
<totfact> 0.19741483E+03</totfact>
</mgrwt>
</event>
<event>
 8    1  0.3407580E-004  0.1638474E+03  0.7546771E-02  0.1191002E+00
          1   -1    0    0  501    0  0.00000000000E+00  0.00000000000E+00  0.35040671534E+03  0.35040671534E+03  0.00000000000E+00 0. -1.
         -1   -1    0    0    0  501 -0.00000000000E+00 -0.00000000000E+00 -0.13708358319E+03  0.13708358319E+03  0.00000000000E+00 0.  1.
         25    2    1    2    0    0  0.10191876801E+03 -0.28872364770E+02  0.28503826377E+03  0.32877468544E+03  0.12499973303E+03 0.  0.
         23    2    1    2    0    0 -0.10191876801E+03  0.28872364770E+02 -0.71715131616E+02  0.15871561309E+03  0.93949651491E+02 0.  0.
          5    1    4    4  502    0 -0.58019404264E+02  0.34816438012E+01  0.13115600807E+02  0.59770244262E+02  0.47000000000E+01 0. -1.
         -5    1    3    3    0  503  0.23326626572E+02  0.39458770418E+02  0.34967348759E+02  0.57844027776E+02  0.47000000000E+01 0.  1.
          5    1    3    3  503    0  0.78592141433E+02 -0.68331135188E+02  0.25007091501E+03  0.27093065767E+03  0.47000000000E+01 0.  1.
         -5    1    4    4    0  502 -0.43899363742E+02  0.25390720969E+02 -0.84830732422E+02  0.98945368823E+02  0.47000000000E+01 0.  1.
<mgrwt>
<rscale>  0 0.15797468E+03</rscale>
<asrwt>0</asrwt>
<pdfrwt beam="1">  1        1 0.53908725E-01 0.16384744E+03</pdfrwt>
<pdfrwt beam="2">  1       -1 0.21089782E-01 0.16384744E+03</pdfrwt>
<totfact> 0.13174899E+03</totfact>
</mgrwt>
</event>
<event>
 8    1  0.3407580E-004  0.1433758E+03  0.7546771E-02  0.1219307E+00
          1   -1    0    0  501    0  0.00000000000E+00  0.00000000000E+00  0.36100351882E+02  0.36100351882E+02  0.00000000000E+00 0. -1.
         -1   -1    0    0    0  501 -0.00000000000E+00 -0.00000000000E+00 -0.46563879294E+03  0.46563879294E+03  0.00000000000E+00 0.  1.
         25    2    1    2    0    0  0.42274222072E+02  0.56084659642E+02 -0.26071615696E+03  0.29753911071E+03  0.12499603594E+03 0.  0.
         23    2    1    2    0    0 -0.42274222072E+02 -0.56084659642E+02 -0.16882228410E+03  0.20420003412E+03  0.90907048273E+02 0.  0.
          5    1    4    4  502    0 -0.20055222737E+02  0.11716743014E+02 -0.33422051954E+01  0.23932287008E+02  0.47000000000E+01 0. -1.
         -5    1    4    4    0  502 -0.22218999335E+02 -0.67801402656E+02 -0.16548007890E+03  0.18026774711E+03  0.47000000000E+01 0.  1.
          5    1    3    3  503    0 -0.36820130050E+02  0.21712201303E+02 -0.15590685170E+03  0.16172871752E+03  0.47000000000E+01 0.  1.
         -5    1    3    3    0  503  0.79094352122E+02  0.34372458339E+02 -0.10480930526E+03  0.13581039319E+03  0.47000000000E+01 0.  1.
<mgrwt>
<rscale>  0 0.13564848E+03</rscale>
<asrwt>0</asrwt>
<pdfrwt beam="1">  1        1 0.55539002E-02 0.14337576E+03</pdfrwt>
<pdfrwt beam="2">  1       -1 0.71636738E-01 0.14337576E+03</pdfrwt>
<totfact> 0.28481928E+03</totfact>
</mgrwt>
</event>
<event>
 8    1  0.3407580E-004  0.1341466E+03  0.7546771E-02  0.1236207E+00
         -2   -1    0    0    0  501 -0.00000000000E+00  0.00000000000E+00  0.60279831771E+02  0.60279831771E+02  0.00000000000E+00 0.  1.
          2   -1    0    0  501    0  0.00000000000E+00 -0.00000000000E+00 -0.22647765685E+03  0.22647765685E+03  0.00000000000E+00 0. -1.
         25    2    1    2    0    0  0.47748440155E+02  0.95444314443E+01 -0.84437544627E+02  0.15850873962E+03  0.12499724751E+03 0.  0.
         23    2    1    2    0    0 -0.47748440155E+02 -0.95444314443E+01 -0.81760280452E+02  0.12824874900E+03  0.85976673876E+02 0.  0.
          5    1    3    3  502    0  0.73785458240E+02 -0.19750474936E+02 -0.14048025463E+02  0.77806247354E+02  0.47000000000E+01 0. -1.
         -5    1    4    4    0  503 -0.55245581983E+02  0.15786692068E+02 -0.20183657155E+02  0.61079980282E+02  0.47000000000E+01 0.  1.
          5    1    4    4  503    0  0.74971418280E+01 -0.25331123512E+02 -0.61576623297E+02  0.67168768714E+02  0.47000000000E+01 0. -1.
         -5    1    3    3    0  502 -0.26037018085E+02  0.29294906380E+02 -0.70389519163E+02  0.80702492270E+02  0.47000000000E+01 0. -1.
<mgrwt>
<rscale>  0 0.12427471E+03</rscale>
<asrwt>0</asrwt>
<pdfrwt beam="1">  1        2 0.34842716E-01 0.13414664E+03</pdfrwt>
<pdfrwt beam="2">  1       -2 0.92738203E-02 0.13414664E+03</pdfrwt>
<totfact> 0.10482265E+04</totfact>
</mgrwt>
</event>
<event>
 8    1  0.3407580E-004  0.1623219E+03  0.7546771E-02  0.1193481E+00
         -3   -1    0    0    0  501 -0.00000000000E+00  0.00000000000E+00  0.44168205589E+02  0.44168205589E+02  0.00000000000E+00 0.  1.
          3   -1    0    0  501    0  0.00000000000E+00 -0.00000000000E+00 -0.59411492152E+03  0.59411492152E+03  0.00000000000E+00 0. -1.
         25    2    1    2    0    0 -0.97700897787E+02 -0.34316218831E+02 -0.17453908878E+03  0.23835330594E+03  0.12500134654E+03 0.  0.
         23    2    1    2    0    0  0.97700897787E+02  0.34316218831E+02 -0.37540762716E+03  0.39992982118E+03  0.91048926605E+02 0.  0.
          5    1    3    3  502    0 -0.27315223318E+02  0.41682694878E+02 -0.96028417064E+02  0.10829180653E+03  0.47000000000E+01 0. -1.
         -5    1    4    4    0  503  0.20716119169E+02  0.39551103481E+02 -0.58566113133E+02  0.73793814019E+02  0.47000000000E+01 0.  1.
          5    1    4    4  503    0  0.76984778618E+02 -0.52348846499E+01 -0.31684151402E+03  0.32613600716E+03  0.47000000000E+01 0. -1.
         -5    1    3    3    0  502 -0.70385674469E+02 -0.75998913708E+02 -0.78510671715E+02  0.13006149941E+03  0.47000000000E+01 0. -1.
<mgrwt>
<rscale>  0 0.15583469E+03</rscale>
<asrwt>0</asrwt>
<pdfrwt beam="1">  1        3 0.91402295E-01 0.16232192E+03</pdfrwt>
<pdfrwt beam="2">  1       -3 0.67951086E-02 0.16232192E+03</pdfrwt>
<totfact> 0.36854216E+02</totfact>
</mgrwt>
</event>
<event>
 8    1  0.3407580E-004  0.1281301E+03  0.7546771E-02  0.1244663E+00
          1   -1    0    0  501    0  0.00000000000E+00  0.00000000000E+00  0.47440215063E+02  0.47440215063E+02  0.00000000000E+00 0. -1.
         -1   -1    0    0    0  501 -0.00000000000E+00 -0.00000000000E+00 -0.28544961871E+03  0.28544961871E+03  0.00000000000E+00 0.  1.
         25    2    1    2    0    0  0.28121246182E+02  0.11567375874E+01 -0.89402811521E+02  0.15623758659E+03  0.12500071291E+03 0.  0.
         23    2    1    2    0    0 -0.28121246182E+02 -0.11567375874E+01 -0.14860659213E+03  0.17665224718E+03  0.91268585407E+02 0.  0.
          5    1    4    4  502    0 -0.54182213697E+02  0.20765034283E+02 -0.71304921432E+02  0.92050968220E+02  0.47000000000E+01 0. -1.
         -5    1    3    3    0  503 -0.30450791075E+02 -0.32137231873E+02 -0.74942932732E+02  0.87169865871E+02  0.47000000000E+01 0.  1.
          5    1    3    3  503    0  0.58572037257E+02  0.33293969460E+02 -0.14459878790E+02  0.69067720720E+02  0.47000000000E+01 0.  1.
         -5    1    4    4    0  502  0.26060967515E+02 -0.21921771871E+02 -0.77301670693E+02  0.84601278960E+02  0.47000000000E+01 0.  1.
<mgrwt>
<rscale>  0 0.11905570E+03</rscale>
<asrwt>0</asrwt>
<pdfrwt beam="1">  1        1 0.72984948E-02 0.12813009E+03</pdfrwt>
<pdfrwt beam="2">  1       -1 0.43915325E-01 0.12813009E+03</pdfrwt>
<totfact> 0.48898704E+03</totfact>
</mgrwt>
</event>
<event>
 8    1  0.3407580E-004  0.1501275E+03  0.7546771E-02  0.1209208E+00
         -2   -1    0    0    0  501 -0.00000000000E+00  0.00000000000E+00  0.39113342812E+03  0.39113342812E+03  0.00000000000E+00 0.  1.
          2   -1    0    0  501    0  0.00000000000E+00 -0.00000000000E+00 -0.49230333712E+02  0.49230333712E+02  0.00000000000E+00 0. -1.
         25    2    1    2    0    0 -0.71855284843E+02 -0.41837117359E+02  0.15243103708E+03  0.21394739109E+03  0.12499895496E+03 0.  0.
         23    2    1    2    0    0  0.71855284843E+02  0.41837117359E+02  0.18947205733E+03  0.22641637074E+03  0.91930332762E+02 0.  0.
          5    1    4    4  502    0  0.56868551204E+02 -0.15102979017E+02  0.60309182974E+02  0.84388504206E+02  0.47000000000E+01 0. -1.
         -5    1    4    4    0  502  0.14986733640E+02  0.56940096376E+02  0.12916287435E+03  0.14202786653E+03  0.47000000000E+01 0.  1.
          5    1    3    3  503    0 -0.14105099600E+02  0.39762305218E+02  0.79467718876E+02  0.90095522055E+02  0.47000000000E+01 0. -1.
         -5    1    3    3    0  503 -0.57750185243E+02 -0.81599422577E+02  0.72963318202E+02  0.12385186904E+03  0.47000000000E+01 0. -1.
<mgrwt>
<rscale>  0 0.14310695E+03</rscale>
<asrwt>0</asrwt>
<pdfrwt beam="1">  1        2 0.75738978E-02 0.15012750E+03</pdfrwt>
<pdfrwt beam="2">  1       -2 0.60174371E-01 0.15012750E+03</pdfrwt>
<totfact> 0.23203958E+03</totfact>
</mgrwt>
</event>
<event>
 8    1  0.3407580E-004  0.1645813E+03  0.7546771E-02  0.1189982E+00
          1   -1    0    0  501    0  0.00000000000E+00  0.00000000000E+00  0.13585116870E+03  0.13585116870E+03  0.00000000000E+00 0. -1.
         -1   -1    0    0    0  501 -0.00000000000E+00 -0.00000000000E+00 -0.26490628794E+03  0.26490628794E+03  0.00000000000E+00 0.  1.
         25    2    1    2    0    0 -0.96140860916E+02 -0.47123006710E+02  0.49691391587E+02  0.17191924057E+03  0.12499339175E+03 0.  0.
         23    2    1    2    0    0  0.96140860916E+02  0.47123006710E+02 -0.17874651083E+03  0.22883821607E+03  0.94620141091E+02 0.  0.
          5    1    4    4  502    0  0.33238075331E+02 -0.22201694740E+02 -0.21121073164E+02  0.45451893609E+02  0.47000000000E+01 0. -1.
         -5    1    4    4    0  502  0.62902785585E+02  0.69324701450E+02 -0.15762543767E+03  0.18338632246E+03  0.47000000000E+01 0.  1.
          5    1    3    3  503    0 -0.47698979054E+02  0.27369855224E+02 -0.20195647222E+02  0.58772916760E+02  0.47000000000E+01 0.  1.
         -5    1    3    3    0  503 -0.48441881863E+02 -0.74492861934E+02  0.69887038809E+02  0.11314632381E+03  0.47000000000E+01 0.  1.
<mgrwt>
<rscale>  0 0.15886684E+03</rscale>
<asrwt>0</asrwt>
<pdfrwt beam="1">  1        1 0.20900180E-01 0.16458126E+03</pdfrwt>
<pdfrwt beam="2">  1       -1 0.40754813E-01 0.16458126E+03</pdfrwt>
<totfact> 0.14214046E+03</totfact>
</mgrwt>
</event>
<event>
 8    1  0.3407580E-004  0.1424572E+03  0.7546771E-02  0.1218400E+00
         -1   -1    0    0    0  501 -0.00000000000E+00  0.00000000000E+00  0.96182174383E+02  0.96182174383E+02  0.00000000000E+00 0. -1.
          1   -1    0    0  501    0  0.00000000000E+00 -0.00000000000E+00 -0.20036187436E+03  0.20036187436E+03  0.00000000000E+00 0.  1.
         25    2    1    2    0    0 -0.50130395057E+02  0.46445481967E+02 -0.10533084338E+03  0.17716837558E+03  0.12499522965E+03 0.  0.
         23    2    1    2    0    0  0.50130395057E+02 -0.46445481967E+02  0.11511434026E+01  0.11937567316E+03  0.97872298979E+02 0.  0.
          5    1    3    3  502    0 -0.42274968508E+02  0.82037969279E+02 -0.10572140435E+03  0.14041547886E+03  0.47000000000E+01 0. -1.
         -5    1    3    3    0  502 -0.78554265483E+01 -0.35592487311E+02  0.39056097671E+00  0.36752896718E+02  0.47000000000E+01 0. -1.
          5    1    4    4  503    0 -0.17250218809E+02 -0.32314127812E+02  0.26934765455E+02  0.45709348008E+02  0.47000000000E+01 0. -1.
         -5    1    4    4    0  503  0.67380613866E+02 -0.14131354155E+02 -0.25783622052E+02  0.73666325152E+02  0.47000000000E+01 0.  1.
<mgrwt>
<rscale>  0 0.13629727E+03</rscale>
<asrwt>0</asrwt>
<pdfrwt beam="1">  1        1 0.30824904E-01 0.14245718E+03</pdfrwt>
<pdfrwt beam="2">  1       -1 0.14797257E-01 0.14245718E+03</pdfrwt>
<totfact> 0.46180809E+03</totfact>
</mgrwt>
</event>
<event>
 8    1  0.3407580E-004  0.1606241E+03  0.7546771E-02  0.1194810E+00
         -4   -1    0    0    0  501 -0.00000000000E+00  0.00000000000E+00  0.15027531569E+04  0.15027531569E+04  0.00000000000E+00 0.  1.
          4   -1    0    0  501    0  0.00000000000E+00 -0.00000000000E+00 -0.15859000397E+02  0.15859000397E+02  0.00000000000E+00 0. -1.
         25    2    1    2    0    0  0.97617673385E+02 -0.25482362475E+02  0.98600201602E+03  0.99899953832E+03  0.12498616325E+03 0.  0.
         23    2    1    2    0    0 -0.97617673385E+02  0.25482362475E+02  0.50089214052E+03  0.51961261902E+03  0.94476327480E+02 0.  0.
          5    1    4    4  502    0 -0.45413067390E+02 -0.22159802023E+02  0.96170457559E+02  0.10873936924E+03  0.47000000000E+01 0. -1.
         -5    1    4    4    0  502 -0.52204605995E+02  0.47642164498E+02  0.40472168297E+03  0.41087324978E+03  0.47000000000E+01 0.  1.
          5    1    3    3  503    0  0.94949559791E+02  0.24333349613E+02  0.81257049132E+03  0.81847444931E+03  0.47000000000E+01 0. -1.
         -5    1    3    3    0  503  0.26681135933E+01 -0.49815712088E+02  0.17343152470E+03  0.18052508901E+03  0.47000000000E+01 0. -1.
<mgrwt>
<rscale>  0 0.15470328E+03</rscale>
<asrwt>0</asrwt>
<pdfrwt beam="1">  1        4 0.24398474E-02 0.16062410E+03</pdfrwt>
<pdfrwt beam="2">  1       -4 0.23119268E+00 0.16062410E+03</pdfrwt>
<totfact> 0.12129194E+02</totfact>
</mgrwt>
</event>
<event>
 8    1  0.3407580E-004  0.1444214E+03  0.7546771E-02  0.1217606E+00
          1   -1    0    0  501    0  0.00000000000E+00  0.00000000000E+00  0.35506504426E+03  0.35506504426E+03  0.00000000000E+00 0. -1.
         -1   -1    0    0    0  501 -0.00000000000E+00 -0.00000000000E+00 -0.66072144588E+02  0.66072144588E+02  0.00000000000E+00 0.  1.
         25    2    1    2    0    0 -0.22364897612E+02  0.68788797082E+02  0.26558416735E+03  0.30231189846E+03  0.12500178700E+03 0.  0.
         23    2    1    2    0    0  0.22364897612E+02 -0.68788797082E+02  0.23408732320E+02  0.11882529039E+03  0.91320280540E+02 0.  0.
          5    1    3    3  502    0  0.30595125944E+02  0.75422336371E+02  0.20922556616E+03  0.22454847603E+03  0.47000000000E+01 0.  1.
         -5    1    3    3    0  502 -0.52960023556E+02 -0.66335392895E+01  0.56358601191E+02  0.77763422422E+02  0.47000000000E+01 0.  1.
          5    1    4    4  503    0 -0.35384981322E+02 -0.30944876045E+02  0.77844981280E+01  0.47878707874E+02  0.47000000000E+01 0. -1.
         -5    1    4    4    0  503  0.57749878934E+02 -0.37843921037E+02  0.15624234192E+02  0.70946582515E+02  0.47000000000E+01 0.  1.
<mgrwt>
<rscale>  0 0.13686803E+03</rscale>
<asrwt>0</asrwt>
<pdfrwt beam="1">  1        1 0.54625390E-01 0.14442138E+03</pdfrwt>
<pdfrwt beam="2">  1       -1 0.10164946E-01 0.14442138E+03</pdfrwt>
<totfact> 0.40618573E+03</totfact>
</mgrwt>
</event>
<event>
 8    1  0.3407580E-004  0.1282273E+03  0.7546771E-02  0.1241899E+00
          1   -1    0    0  501    0  0.00000000000E+00  0.00000000000E+00  0.48420583863E+02  0.48420583863E+02  0.00000000000E+00 0. -1.
         -1   -1    0    0    0  501 -0.00000000000E+00 -0.00000000000E+00 -0.34346316424E+03  0.34346316424E+03  0.00000000000E+00 0.  1.
         25    2    1    2    0    0 -0.40795086848E+01  0.28230812885E+02 -0.71816624211E+02  0.14696890786E+03  0.12501444387E+03 0.  0.
         23    2    1    2    0    0  0.40795086848E+01 -0.28230812885E+02 -0.22322595617E+03  0.24491484025E+03  0.96642797342E+02 0.  0.
          5    1    4    4  502    0  0.31523881790E+02 -0.47279527969E+02 -0.83073116058E+02  0.10075882840E+03  0.47000000000E+01 0. -1.
         -5    1    4    4    0  502 -0.27444373105E+02  0.19048715084E+02 -0.14015284011E+03  0.14415601185E+03  0.47000000000E+01 0.  1.
          5    1    3    3  503    0  0.49096409400E+02  0.17013922860E+02  0.53741597166E+01  0.52449047463E+02  0.47000000000E+01 0.  1.
         -5    1    3    3    0  503 -0.53175918085E+02  0.11216890025E+02 -0.77190783927E+02  0.94519860396E+02  0.47000000000E+01 0.  1.
<mgrwt>
<rscale>  0 0.12072911E+03</rscale>
<asrwt>0</asrwt>
<pdfrwt beam="1">  1        1 0.74493208E-02 0.12822727E+03</pdfrwt>
<pdfrwt beam="2">  1       -1 0.52840485E-01 0.12822727E+03</pdfrwt>
<totfact> 0.34036338E+03</totfact>
</mgrwt>
</event>
<event>
 8    1  0.3407580E-004  0.1518987E+03  0.7546771E-02  0.1207414E+00
          1   -1    0    0  501    0  0.00000000000E+00  0.00000000000E+00  0.91711143606E+03  0.91711143606E+03  0.00000000000E+00 0. -1.
         -1   -1    0    0    0  501 -0.00000000000E+00 -0.00000000000E+00 -0.21690628791E+02  0.21690628791E+02  0.00000000000E+00 0.  1.
         25    2    1    2    0    0  0.60782746170E+02 -0.61233842518E+02  0.39605813130E+03  0.42418777928E+03  0.12501641099E+03 0.  0.
         23    2    1    2    0    0 -0.60782746170E+02  0.61233842518E+02  0.49936267596E+03  0.51461428557E+03  0.89558109992E+02 0.  0.
          5    1    3    3  502    0 -0.14905760835E+02  0.29603342052E+02  0.93589369811E+02  0.99396175522E+02  0.47000000000E+01 0.  1.
         -5    1    3    3    0  502  0.75688507004E+02 -0.90837184570E+02  0.30246876149E+03  0.32479160376E+03  0.47000000000E+01 0.  1.
          5    1    4    4  503    0 -0.81274509052E+02  0.30641538814E+02  0.36458615864E+03  0.37481943225E+03  0.47000000000E+01 0. -1.
         -5    1    4    4    0  503  0.20491762883E+02  0.30592303704E+02  0.13477651733E+03  0.13979485332E+03  0.47000000000E+01 0.  1.
<mgrwt>
<rscale>  0 0.14448861E+03</rscale>
<asrwt>0</asrwt>
<pdfrwt beam="1">  1        1 0.14109404E+00 0.15189874E+03</pdfrwt>
<pdfrwt beam="2">  1       -1 0.33370205E-02 0.15189874E+03</pdfrwt>
<totfact> 0.58253279E+03</totfact>
</mgrwt>
</event>
<event>
 8    1  0.3407580E-004  0.1334994E+03  0.7546771E-02  0.1235190E+00
          1   -1    0    0  501    0  0.00000000000E+00  0.00000000000E+00  0.44022443535E+03  0.44022443535E+03  0.00000000000E+00 0. -1.
         -1   -1    0    0    0  501 -0.00000000000E+00 -0.00000000000E+00 -0.32741173101E+02  0.32741173101E+02  0.00000000000E+00 0.  1.
         25    2    1    2    0    0 -0.72474486149E+01 -0.46312897559E+02  0.18575965432E+03  0.22875476567E+03  0.12499873461E+03 0.  0.
         23    2    1    2    0    0  0.72474486149E+01  0.46312897559E+02  0.22172360793E+03  0.24421084278E+03  0.90995425292E+02 0.  0.
          5    1    3    3  502    0  0.41306461366E+02 -0.23959429539E+02  0.15786766432E+02  0.50513265672E+02  0.47000000000E+01 0.  1.
         -5    1    4    4    0  503 -0.20354798432E+02  0.28380709620E+02  0.21576917230E+02  0.41321130852E+02  0.47000000000E+01 0.  1.
          5    1    4    4  503    0  0.27602247047E+02  0.17932187939E+02  0.20014669070E+03  0.20288971193E+03  0.47000000000E+01 0. -1.
         -5    1    3    3    0  502 -0.48553909981E+02 -0.22353468020E+02  0.16997288788E+03  0.17824150000E+03  0.47000000000E+01 0.  1.
<mgrwt>
<rscale>  0 0.12492292E+03</rscale>
<asrwt>0</asrwt>
<pdfrwt beam="1">  1        1 0.67726832E-01 0.13349941E+03</pdfrwt>
<pdfrwt beam="2">  1       -1 0.50371039E-02 0.13349941E+03</pdfrwt>
<totfact> 0.88541596E+03</totfact>
</mgrwt>
</event>
<event>
 8    1  0.3407580E-004  0.1323419E+03  0.7546771E-02  0.1235893E+00
          1   -1    0    0  501    0  0.00000000000E+00  0.00000000000E+00  0.26076783314E+03  0.26076783314E+03  0.00000000000E+00 0. -1.
         -1   -1    0    0    0  501 -0.00000000000E+00 -0.00000000000E+00 -0.73413923716E+02  0.73413923716E+02  0.00000000000E+00 0.  1.
         25    2    1    2    0    0  0.25087637031E+02 -0.35450683709E+02  0.15115102231E+02  0.13320226409E+03  0.12501294468E+03 0.  0.
         23    2    1    2    0    0 -0.25087637031E+02  0.35450683709E+02  0.17223880720E+03  0.20097949276E+03  0.94023450802E+02 0.  0.
          5    1    4    4  502    0 -0.60613714272E+02  0.16619686027E+02  0.10150008993E+03  0.11947633480E+03  0.47000000000E+01 0. -1.
         -5    1    3    3    0  503 -0.18776211626E+02  0.27184025473E+02  0.40516578239E+02  0.52490003583E+02  0.47000000000E+01 0.  1.
          5    1    3    3  503    0  0.43863848657E+02 -0.62634709182E+02 -0.25401476008E+02  0.80712260510E+02  0.47000000000E+01 0.  1.
         -5    1    4    4    0  502  0.35526077241E+02  0.18830997681E+02  0.70738717270E+02  0.81503157968E+02  0.47000000000E+01 0.  1.
<mgrwt>
<rscale>  0 0.12447454E+03</rscale>
<asrwt>0</asrwt>
<pdfrwt beam="1">  1        1 0.40118128E-01 0.13234189E+03</pdfrwt>
<pdfrwt beam="2">  1       -1 0.11294450E-01 0.13234189E+03</pdfrwt>
<totfact> 0.50445045E+03</totfact>
</mgrwt>
</event>
<event>
 8    1  0.3407580E-004  0.1508000E+03  0.7546771E-02  0.1208661E+00
         -2   -1    0    0    0  501 -0.00000000000E+00  0.00000000000E+00  0.31242963005E+02  0.31242963005E+02  0.00000000000E+00 0.  1.
          2   -1    0    0  501    0  0.00000000000E+00 -0.00000000000E+00 -0.71857175612E+03  0.71857175612E+03  0.00000000000E+00 0. -1.
         25    2    1    2    0    0 -0.23085056947E+00  0.84350538404E+02 -0.52174991936E+03  0.54310553591E+03  0.12500231261E+03 0.  0.
         23    2    1    2    0    0  0.23085056947E+00 -0.84350538404E+02 -0.16557887376E+03  0.20670918322E+03  0.90538700964E+02 0.  0.
          5    1    3    3  502    0  0.57271607899E+02  0.14025912900E+02 -0.18079589624E+03  0.19022620587E+03  0.47000000000E+01 0.  1.
         -5    1    3    3    0  502 -0.57502458468E+02  0.70324625504E+02 -0.34095402312E+03  0.35287933004E+03  0.47000000000E+01 0.  1.
          5    1    4    4  503    0 -0.41753063891E+01 -0.39243916739E+02 -0.15489001865E+03  0.15990786742E+03  0.47000000000E+01 0. -1.
         -5    1    4    4    0  503  0.44061569585E+01 -0.45106621665E+02 -0.10688855102E+02  0.46801315800E+02  0.47000000000E+01 0.  1.
<mgrwt>
<rscale>  0 0.14352620E+03</rscale>
<asrwt>0</asrwt>
<pdfrwt beam="1">  1        2 0.11054949E+00 0.15080002E+03</pdfrwt>
<pdfrwt beam="2">  1       -2 0.48066102E-02 0.15080002E+03</pdfrwt>
<totfact> 0.81687844E+03</totfact>
</mgrwt>
</event>
<event>
 8    1  0.3407580E-004  0.2793794E+03  0.7546771E-02  0.1098273E+00
         -2   -1    0    0    0  501 -0.00000000000E+00  0.00000000000E+00  0.25976290115E+03  0.25976290115E+03  0.00000000000E+00 0.  1.
          2   -1    0    0  501    0  0.00000000000E+00 -0.00000000000E+00 -0.10091574358E+04  0.10091574358E+04  0.00000000000E+00 0. -1.
         25    2    1    2    0    0 -0.81064636630E+01 -0.24972299390E+03 -0.91567760349E+03  0.95734964808E+03  0.12500234680E+03 0.  0.
         23    2    1    2    0    0  0.81064636630E+01  0.24972299390E+03  0.16628306888E+03  0.31157068883E+03  0.83659707780E+02 0.  0.
          5    1    4    4  502    0 -0.20970523088E+02  0.22146734885E+03  0.14442913839E+03  0.26527234206E+03  0.47000000000E+01 0. -1.
         -5    1    3    3    0  503 -0.58548680515E+02 -0.64077750880E+02 -0.27955450654E+03  0.29275709774E+03  0.47000000000E+01 0. -1.
          5    1    3    3  503    0  0.50442216852E+02 -0.18564524302E+03 -0.63612309695E+03  0.66459255034E+03  0.47000000000E+01 0. -1.
         -5    1    4    4    0  502  0.29076986751E+02  0.28255645046E+02  0.21853930491E+02  0.46298346768E+02  0.47000000000E+01 0.  1.
<mgrwt>
<rscale>  0 0.27531907E+03</rscale>
<asrwt>0</asrwt>
<pdfrwt beam="1">  1        2 0.15525499E+00 0.27937945E+03</pdfrwt>
<pdfrwt beam="2">  1       -2 0.39963523E-01 0.27937945E+03</pdfrwt>
<totfact> 0.15618375E+02</totfact>
</mgrwt>
</event>
<event>
 8    1  0.3407580E-004  0.1373558E+03  0.7546771E-02  0.1229172E+00
          2   -1    0    0  501    0  0.00000000000E+00  0.00000000000E+00  0.78162685036E+03  0.78162685036E+03  0.00000000000E+00 0. -1.
         -2   -1    0    0    0  501 -0.00000000000E+00 -0.00000000000E+00 -0.20491090200E+02  0.20491090200E+02  0.00000000000E+00 0.  1.
         25    2    1    2    0    0  0.42857782397E+02  0.37528008469E+02  0.31801553584E+03  0.34641087017E+03  0.12498587523E+03 0.  0.
         23    2    1    2    0    0 -0.42857782397E+02 -0.37528008469E+02  0.44312022432E+03  0.45570707039E+03  0.89823492844E+02 0.  0.
          5    1    3    3  502    0  0.70658191164E+02 -0.18991726580E+02  0.15120025222E+03  0.16803830495E+03  0.47000000000E+01 0.  1.
         -5    1    4    4    0  503  0.11048448411E+02 -0.19313593630E+02  0.25359046912E+02  0.34062506829E+02  0.47000000000E+01 0.  1.
          5    1    4    4  503    0 -0.53906230808E+02 -0.18214414839E+02  0.41776117741E+03  0.42164456356E+03  0.47000000000E+01 0. -1.
         -5    1    3    3    0  502 -0.27800408766E+02  0.56519735049E+02  0.16681528361E+03  0.17837256522E+03  0.47000000000E+01 0.  1.
<mgrwt>
<rscale>  0 0.12884998E+03</rscale>
<asrwt>0</asrwt>
<pdfrwt beam="1">  1        2 0.12025026E+00 0.13735578E+03</pdfrwt>
<pdfrwt beam="2">  1       -2 0.31524760E-02 0.13735578E+03</pdfrwt>
<totfact> 0.13726631E+04</totfact>
</mgrwt>
</event>
<event>
 8    1  0.3407580E-004  0.1424170E+03  0.7546771E-02  0.1219660E+00
          3   -1    0    0  501    0  0.00000000000E+00  0.00000000000E+00  0.42367277802E+02  0.42367277802E+02  0.00000000000E+00 0. -1.
         -3   -1    0    0    0  501 -0.00000000000E+00 -0.00000000000E+00 -0.43729591517E+03  0.43729591517E+03  0.00000000000E+00 0.  1.
         25    2    1    2    0    0 -0.67873237257E+02  0.73267256274E+01 -0.14129116398E+03  0.20061352014E+03  0.12498853628E+03 0.  0.
         23    2    1    2    0    0  0.67873237257E+02 -0.73267256274E+01 -0.25363747339E+03  0.27904967283E+03  0.94214089999E+02 0.  0.
          5    1    3    3  502    0  0.32023526359E+02 -0.18527984466E+02 -0.52518282192E+02  0.64413138514E+02  0.47000000000E+01 0.  1.
         -5    1    3    3    0  502 -0.99896763617E+02  0.25854710093E+02 -0.88772881785E+02  0.13620038163E+03  0.47000000000E+01 0.  1.
          5    1    4    4  503    0  0.81179468123E+02  0.15432642527E+02 -0.14307315574E+03  0.16528850654E+03  0.47000000000E+01 0. -1.
         -5    1    4    4    0  503 -0.13306230866E+02 -0.22759368154E+02 -0.11056431764E+03  0.11376116629E+03  0.47000000000E+01 0.  1.
<mgrwt>
<rscale>  0 0.13539749E+03</rscale>
<asrwt>0</asrwt>
<pdfrwt beam="1">  1        3 0.65180428E-02 0.14241696E+03</pdfrwt>
<pdfrwt beam="2">  1       -3 0.67276294E-01 0.14241696E+03</pdfrwt>
<totfact> 0.75088805E+02</totfact>
</mgrwt>
</event>
<event>
 8    1  0.3407580E-004  0.1318265E+03  0.7546771E-02  0.1237556E+00
         -4   -1    0    0    0  501 -0.00000000000E+00  0.00000000000E+00  0.53953071273E+02  0.53953071273E+02  0.00000000000E+00 0.  1.
          4   -1    0    0  501    0  0.00000000000E+00 -0.00000000000E+00 -0.40437193354E+03  0.40437193354E+03  0.00000000000E+00 0. -1.
         25    2    1    2    0    0 -0.11430024745E+02 -0.40379168265E+02 -0.49495481584E+02  0.14081207843E+03  0.12496846018E+03 0.  0.
         23    2    1    2    0    0  0.11430024745E+02  0.40379168265E+02 -0.30092338068E+03  0.31751292638E+03  0.92187063532E+02 0.  0.
          5    1    3    3  502    0  0.38207590411E+02 -0.20300251916E+02 -0.70707255360E+02  0.83027261507E+02  0.47000000000E+01 0.  1.
         -5    1    3    3    0  502 -0.49637615157E+02 -0.20078916349E+02  0.21211773776E+02  0.57784816923E+02  0.47000000000E+01 0.  1.
          5    1    4    4  503    0  0.33009079401E+01  0.58937169514E+02 -0.28561269085E+03  0.29168679284E+03  0.47000000000E+01 0. -1.
         -5    1    4    4    0  503  0.81291168052E+01 -0.18558001249E+02 -0.15310689827E+02  0.25826133535E+02  0.47000000000E+01 0.  1.
<mgrwt>
<rscale>  0 0.12342222E+03</rscale>
<asrwt>0</asrwt>
<pdfrwt beam="1">  1        4 0.62211066E-01 0.13182655E+03</pdfrwt>
<pdfrwt beam="2">  1       -4 0.83004725E-02 0.13182655E+03</pdfrwt>
<totfact> 0.42164112E+02</totfact>
</mgrwt>
</event>
<event>
 8    1  0.3407580E-004  0.2707923E+03  0.7546771E-02  0.1103331E+00
          1   -1    0    0  501    0  0.00000000000E+00  0.00000000000E+00  0.54361802623E+03  0.54361802623E+03  0.00000000000E+00 0. -1.
         -1   -1    0    0    0  501 -0.00000000000E+00 -0.00000000000E+00 -0.16649279911E+03  0.16649279911E+03  0.00000000000E+00 0.  1.
         25    2    1    2    0    0 -0.20965903943E+03 -0.11724160589E+03  0.19401119755E+02  0.27148646353E+03  0.12500395781E+03 0.  0.
         23    2    1    2    0    0  0.20965903943E+03  0.11724160589E+03  0.35772410736E+03  0.43862436181E+03  0.81989553101E+02 0.  0.
          5    1    4    4  502    0  0.98848840669E+02  0.79370322266E+02  0.24561196564E+03  0.27643818301E+03  0.47000000000E+01 0. -1.
         -5    1    3    3    0  503  0.58132384039E+01 -0.25862985714E+02 -0.20728042181E+02  0.33976896613E+02  0.47000000000E+01 0. -1.
          5    1    3    3  503    0 -0.21547227784E+03 -0.91378620175E+02  0.40129161936E+02  0.23750956692E+03  0.47000000000E+01 0. -1.
         -5    1    4    4    0  502  0.11081019876E+03  0.37871283622E+02  0.11211214172E+03  0.16218617880E+03  0.47000000000E+01 0.  1.
<mgrwt>
<rscale>  0 0.26644583E+03</rscale>
<asrwt>0</asrwt>
<pdfrwt beam="1">  1        1 0.83633542E-01 0.27079235E+03</pdfrwt>
<pdfrwt beam="2">  1       -1 0.25614277E-01 0.27079235E+03</pdfrwt>
<totfact> 0.54170881E+02</totfact>
</mgrwt>
</event>
<event>
 8    1  0.3407580E-004  0.1300365E+03  0.7546771E-02  0.1247164E+00
         -2   -1    0    0    0  501 -0.00000000000E+00  0.00000000000E+00  0.33837105757E+02  0.33837105757E+02  0.00000000000E+00 0.  1.
          2   -1    0    0  501    0  0.00000000000E+00 -0.00000000000E+00 -0.52273879554E+03  0.52273879554E+03  0.00000000000E+00 0. -1.
         25    2    1    2    0    0  0.34545046805E+02 -0.96125709137E+01 -0.43570482407E+03  0.45469569906E+03  0.12499489288E+03 0.  0.
         23    2    1    2    0    0 -0.34545046805E+02  0.96125709137E+01 -0.53196865712E+02  0.10188020224E+03  0.79144850168E+02 0.  0.
          5    1    3    3  502    0 -0.24025227325E+02  0.16760899130E+02 -0.24498379512E+02  0.38475965048E+02  0.47000000000E+01 0.  1.
         -5    1    3    3    0  502  0.58570274130E+02 -0.26373470044E+02 -0.41120644456E+03  0.41621973401E+03  0.47000000000E+01 0.  1.
          5    1    4    4  503    0 -0.27858589848E+02  0.33646567593E+02 -0.61132976306E+02  0.75282955117E+02  0.47000000000E+01 0. -1.
         -5    1    4    4    0  503 -0.66864569571E+01 -0.24033996680E+02  0.79361105944E+01  0.26597247121E+02  0.47000000000E+01 0.  1.
<mgrwt>
<rscale>  0 0.11756820E+03</rscale>
<asrwt>0</asrwt>
<pdfrwt beam="1">  1        2 0.80421349E-01 0.13003648E+03</pdfrwt>
<pdfrwt beam="2">  1       -2 0.52057089E-02 0.13003648E+03</pdfrwt>
<totfact> 0.10344288E+04</totfact>
</mgrwt>
</event>
<event>
 8    1  0.3407580E-004  0.1562520E+03  0.7546771E-02  0.1200742E+00
         -2   -1    0    0    0  501 -0.00000000000E+00  0.00000000000E+00  0.28829502565E+02  0.28829502565E+02  0.00000000000E+00 0.  1.
          2   -1    0    0  501    0  0.00000000000E+00 -0.00000000000E+00 -0.73326986459E+03  0.73326986459E+03  0.00000000000E+00 0. -1.
         25    2    1    2    0    0 -0.65551851783E+02  0.67015523409E+02 -0.43212157207E+03  0.45950379851E+03  0.12500624842E+03 0.  0.
         23    2    1    2    0    0  0.65551851783E+02 -0.67015523409E+02 -0.27231878996E+03  0.30259556865E+03  0.92835495112E+02 0.  0.
          5    1    3    3  502    0 -0.79412849777E+02  0.88284958043E+02 -0.40492559287E+03  0.42200409985E+03  0.47000000000E+01 0.  1.
         -5    1    4    4    0  503  0.26406455553E+02  0.28507377245E+01 -0.10809536471E+02  0.29057936596E+02  0.47000000000E+01 0.  1.
          5    1    4    4  503    0  0.39145396230E+02 -0.69866261133E+02 -0.26150925349E+03  0.27353763206E+03  0.47000000000E+01 0. -1.
         -5    1    3    3    0  502  0.13860997994E+02 -0.21269434634E+02 -0.27195979199E+02  0.37499698661E+02  0.47000000000E+01 0.  1.
<mgrwt>
<rscale>  0 0.14978154E+03</rscale>
<asrwt>0</asrwt>
<pdfrwt beam="1">  1        2 0.11281076E+00 0.15625200E+03</pdfrwt>
<pdfrwt beam="2">  1       -2 0.44353078E-02 0.15625200E+03</pdfrwt>
<totfact> 0.90115017E+03</totfact>
</mgrwt>
</event>
<event>
 8    1  0.3407580E-004  0.1589785E+03  0.7546771E-02  0.1197181E+00
         -1   -1    0    0    0  501 -0.00000000000E+00  0.00000000000E+00  0.66641361342E+03  0.66641361342E+03  0.00000000000E+00 0.  1.
          1   -1    0    0  501    0  0.00000000000E+00 -0.00000000000E+00 -0.35518244133E+02  0.35518244133E+02  0.00000000000E+00 0. -1.
         25    2    1    2    0    0 -0.97947224531E+02 -0.74610052898E+01  0.44065117735E+03  0.46845238296E+03  0.12499939843E+03 0.  0.
         23    2    1    2    0    0  0.97947224531E+02  0.74610052898E+01  0.19024419194E+03  0.23347947460E+03  0.93115450370E+02 0.  0.
          5    1    3    3  502    0 -0.44913296152E+02  0.58623332850E+02  0.21416840194E+03  0.22659235141E+03  0.47000000000E+01 0. -1.
         -5    1    4    4    0  503  0.37625235073E+02 -0.36211556158E+02  0.12019051690E+03  0.13112888875E+03  0.47000000000E+01 0.  1.
          5    1    4    4  503    0  0.60321989458E+02  0.43672561448E+02  0.70053675047E+02  0.10235058585E+03  0.47000000000E+01 0. -1.
         -5    1    3    3    0  502 -0.53033928379E+02 -0.66084338140E+02  0.22648277541E+03  0.24186003155E+03  0.47000000000E+01 0. -1.
<mgrwt>
<rscale>  0 0.15271053E+03</rscale>
<asrwt>0</asrwt>
<pdfrwt beam="1">  1        1 0.54643457E-02 0.15897854E+03</pdfrwt>
<pdfrwt beam="2">  1       -1 0.10252516E+00 0.15897854E+03</pdfrwt>
<totfact> 0.13785884E+03</totfact>
</mgrwt>
</event>
<event>
 8    1  0.3407580E-004  0.1522643E+03  0.7546771E-02  0.1206326E+00
          2   -1    0    0  501    0  0.00000000000E+00  0.00000000000E+00  0.34262663356E+03  0.34262663356E+03  0.00000000000E+00 0. -1.
         -2   -1    0    0    0  501 -0.00000000000E+00 -0.00000000000E+00 -0.57171564966E+02  0.57171564966E+02  0.00000000000E+00 0.  1.
         25    2    1    2    0    0 -0.28947683601E+02  0.81982606653E+02  0.17482331057E+03  0.23183528796E+03  0.12500117858E+03 0.  0.
         23    2    1    2    0    0  0.28947683601E+02 -0.81982606653E+02  0.11063175802E+03  0.16796291056E+03  0.91722610420E+02 0.  0.
          5    1    3    3  502    0  0.22551898081E+02  0.16282545425E+02 -0.92294575160E+01  0.29681345633E+02  0.47000000000E+01 0. -1.
         -5    1    4    4    0  503  0.12570610381E+02 -0.60008853570E+02  0.84543325809E+01  0.62069706713E+02  0.47000000000E+01 0.  1.
          5    1    4    4  503    0  0.16377073220E+02 -0.21973753083E+02  0.10217742544E+03  0.10589320385E+03  0.47000000000E+01 0. -1.
         -5    1    3    3    0  502 -0.51499581681E+02  0.65700061228E+02  0.18405276808E+03  0.20215394233E+03  0.47000000000E+01 0. -1.
<mgrwt>
<rscale>  0 0.14533458E+03</rscale>
<asrwt>0</asrwt>
<pdfrwt beam="1">  1        2 0.52711789E-01 0.15226428E+03</pdfrwt>
<pdfrwt beam="2">  1       -2 0.87956256E-02 0.15226428E+03</pdfrwt>
<totfact> 0.73931395E+03</totfact>
</mgrwt>
</event>
<event>
 8    1  0.3407580E-004  0.1338584E+03  0.7546771E-02  0.1233223E+00
          2   -1    0    0  501    0  0.00000000000E+00  0.00000000000E+00  0.35878550928E+02  0.35878550928E+02  0.00000000000E+00 0. -1.
         -2   -1    0    0    0  501 -0.00000000000E+00 -0.00000000000E+00 -0.40448568603E+03  0.40448568603E+03  0.00000000000E+00 0.  1.
         25    2    1    2    0    0 -0.16882391826E+02  0.44804020333E+02 -0.22890123457E+03  0.26516758186E+03  0.12500262354E+03 0.  0.
         23    2    1    2    0    0  0.16882391826E+02 -0.44804020333E+02 -0.13970590053E+03  0.17519665509E+03  0.94253455754E+02 0.  0.
          5    1    4    4  502    0  0.13791227977E+02 -0.72623967579E+02 -0.79634478840E+02  0.10875743127E+03  0.47000000000E+01 0. -1.
         -5    1    3    3    0  503  0.26702160217E+02  0.46510618701E+02 -0.30297068642E+02  0.61775766936E+02  0.47000000000E+01 0. -1.
          5    1    3    3  503    0 -0.43584552043E+02 -0.17065983688E+01 -0.19860416593E+03  0.20339181493E+03  0.47000000000E+01 0. -1.
         -5    1    4    4    0  502  0.30911638486E+01  0.27819947246E+02 -0.60071421689E+02  0.66439223825E+02  0.47000000000E+01 0.  1.
<mgrwt>
<rscale>  0 0.12618875E+03</rscale>
<asrwt>0</asrwt>
<pdfrwt beam="1">  1        2 0.55197768E-02 0.13385840E+03</pdfrwt>
<pdfrwt beam="2">  1       -2 0.62228570E-01 0.13385840E+03</pdfrwt>
<totfact> 0.32239952E+03</totfact>
</mgrwt>
</event>
<event>
 8    1  0.3407580E-004  0.1324179E+03  0.7546771E-02  0.1236987E+00
          3   -1    0    0  501    0  0.00000000000E+00  0.00000000000E+00  0.14378328289E+03  0.14378328289E+03  0.00000000000E+00 0. -1.
         -3   -1    0    0    0  501 -0.00000000000E+00 -0.00000000000E+00 -0.97267054866E+02  0.97267054866E+02  0.00000000000E+00 0.  1.
         25    2    1    2    0    0  0.43592592621E+02  0.32571124304E+01  0.45250975846E+02  0.13993624222E+03  0.12499431251E+03 0.  0.
         23    2    1    2    0    0 -0.43592592621E+02 -0.32571124304E+01  0.12652521746E+01  0.10111409553E+03  0.91167628787E+02 0.  0.
          5    1    3    3  502    0 -0.29464633260E+02  0.36973744966E+02  0.16789473150E-01  0.47511185124E+02  0.47000000000E+01 0.  1.
         -5    1    3    3    0  502  0.73057225881E+02 -0.33716632536E+02  0.45234186373E+02  0.92425057100E+02  0.47000000000E+01 0.  1.
          5    1    4    4  503    0 -0.44085979590E+02  0.22919476812E+02  0.32903597118E+02  0.59779701547E+02  0.47000000000E+01 0. -1.
         -5    1    4    4    0  503  0.49338696894E+00 -0.26176589243E+02 -0.31638344943E+02  0.41334393982E+02  0.47000000000E+01 0.  1.
<mgrwt>
<rscale>  0 0.12378113E+03</rscale>
<asrwt>0</asrwt>
<pdfrwt beam="1">  1        3 0.22120505E-01 0.13241790E+03</pdfrwt>
<pdfrwt beam="2">  1       -3 0.14964162E-01 0.13241790E+03</pdfrwt>
<totfact> 0.15982075E+03</totfact>
</mgrwt>
</event>
<event>
 8    1  0.3407580E-004  0.1605804E+03  0.7546771E-02  0.1195711E+00
         -1   -1    0    0    0  501 -0.00000000000E+00  0.00000000000E+00  0.99322804363E+01  0.99322804363E+01  0.00000000000E+00 0.  1.
          1   -1    0    0  501    0  0.00000000000E+00 -0.00000000000E+00 -0.22506989814E+04  0.22506989814E+04  0.00000000000E+00 0. -1.
         25    2    1    2    0    0  0.89749428126E+02 -0.45892234047E+02 -0.13673157073E+04  0.13767128628E+04  0.12500002479E+03 0.  0.
         23    2    1    2    0    0 -0.89749428126E+02  0.45892234047E+02 -0.87345099360E+03  0.88391839897E+03  0.90741615661E+02 0.  0.
          5    1    4    4  502    0 -0.36836844292E+02 -0.26495429572E+02 -0.31865614076E+03  0.32190493462E+03  0.47000000000E+01 0. -1.
         -5    1    3    3    0  503  0.16167119936E+02 -0.77286473356E+02 -0.76813321803E+03  0.77219512131E+03  0.47000000000E+01 0. -1.
          5    1    3    3  503    0  0.73582308190E+02  0.31394239309E+02 -0.59918248929E+03  0.60451774152E+03  0.47000000000E+01 0. -1.
         -5    1    4    4    0  502 -0.52912583834E+02  0.72387663620E+02 -0.55479485284E+03  0.56201346435E+03  0.47000000000E+01 0.  1.
<mgrwt>
<rscale>  0 0.15394201E+03</rscale>
<asrwt>0</asrwt>
<pdfrwt beam="1">  1        1 0.34626110E+00 0.16058039E+03</pdfrwt>
<pdfrwt beam="2">  1       -1 0.15280444E-02 0.16058039E+03</pdfrwt>
<totfact> 0.23584570E+03</totfact>
</mgrwt>
</event>
<event>
 8    1  0.3407580E-004  0.1358970E+03  0.7546771E-02  0.1231890E+00
         -1   -1    0    0    0  501 -0.00000000000E+00  0.00000000000E+00  0.15068645471E+02  0.15068645471E+02  0.00000000000E+00 0.  1.
          1   -1    0    0  501    0  0.00000000000E+00 -0.00000000000E+00 -0.96358184798E+03  0.96358184798E+03  0.00000000000E+00 0. -1.
         25    2    1    2    0    0 -0.50483222608E+02 -0.17139084774E+02 -0.58658579042E+03  0.60212197836E+03  0.12500273319E+03 0.  0.
         23    2    1    2    0    0  0.50483222608E+02  0.17139084774E+02 -0.36192741208E+03  0.37652851509E+03  0.89106492841E+02 0.  0.
          5    1    3    3  502    0 -0.70329763804E+02  0.35443779784E+02 -0.36952061359E+03  0.37784932323E+03  0.47000000000E+01 0. -1.
         -5    1    3    3    0  502  0.19846541196E+02 -0.52582864558E+02 -0.21706517683E+03  0.22427265512E+03  0.47000000000E+01 0. -1.
          5    1    4    4  503    0  0.35743885465E+02 -0.24853930666E+02 -0.27788229362E+03  0.28131121969E+03  0.47000000000E+01 0. -1.
         -5    1    4    4    0  503  0.14739337143E+02  0.41993015440E+02 -0.84045118466E+02  0.95217295399E+02  0.47000000000E+01 0.  1.
<mgrwt>
<rscale>  0 0.12705627E+03</rscale>
<asrwt>0</asrwt>
<pdfrwt beam="1">  1        1 0.14824341E+00 0.13589697E+03</pdfrwt>
<pdfrwt beam="2">  1       -1 0.23182524E-02 0.13589697E+03</pdfrwt>
<totfact> 0.90814586E+03</totfact>
</mgrwt>
</event>
<event>
 8    1  0.3407580E-004  0.1847531E+03  0.7546771E-02  0.1168434E+00
         -1   -1    0    0    0  501 -0.00000000000E+00  0.00000000000E+00  0.10513209625E+04  0.10513209625E+04  0.00000000000E+00 0.  1.
          1   -1    0    0  501    0  0.00000000000E+00 -0.00000000000E+00 -0.33441049369E+02  0.33441049369E+02  0.00000000000E+00 0. -1.
         25    2    1    2    0    0  0.41284822528E+02 -0.12963799009E+03  0.73386522010E+03  0.75676408645E+03  0.12499310471E+03 0.  0.
         23    2    1    2    0    0 -0.41284822528E+02  0.12963799009E+03  0.28401469307E+03  0.32799792546E+03  0.91694319216E+02 0.  0.
          5    1    4    4  502    0  0.27592281535E+02  0.43499595707E+02  0.68284728048E+02  0.85664712173E+02  0.47000000000E+01 0. -1.
         -5    1    4    4    0  502 -0.68877104063E+02  0.86138394388E+02  0.21572996502E+03  0.24233321328E+03  0.47000000000E+01 0.  1.
          5    1    3    3  503    0  0.22707086326E+02  0.16195276200E+02  0.23413384590E+03  0.23583605860E+03  0.47000000000E+01 0.  1.
         -5    1    3    3    0  503  0.18577736202E+02 -0.14583326630E+03  0.49973137420E+03  0.52092802785E+03  0.47000000000E+01 0.  1.
<mgrwt>
<rscale>  0 0.17934935E+03</rscale>
<asrwt>0</asrwt>
<pdfrwt beam="1">  1        1 0.51447776E-02 0.18475314E+03</pdfrwt>
<pdfrwt beam="2">  1       -1 0.16174166E+00 0.18475314E+03</pdfrwt>
<totfact> 0.49316118E+02</totfact>
</mgrwt>
</event>
<event>
 8    1  0.3407580E-004  0.3057847E+03  0.7546771E-02  0.1083920E+00
          1   -1    0    0  501    0  0.00000000000E+00  0.00000000000E+00  0.15717056551E+03  0.15717056551E+03  0.00000000000E+00 0. -1.
         -1   -1    0    0    0  501 -0.00000000000E+00 -0.00000000000E+00 -0.59812474653E+03  0.59812474653E+03  0.00000000000E+00 0.  1.
         25    2    1    2    0    0  0.37570911037E+02 -0.27652648398E+03 -0.30492160062E+03  0.43183499064E+03  0.12500322765E+03 0.  0.
         23    2    1    2    0    0 -0.37570911037E+02  0.27652648398E+03 -0.13603258040E+03  0.32346032140E+03  0.90792328362E+02 0.  0.
          5    1    4    4  502    0 -0.38684939419E+02  0.12609788889E+03 -0.20151733789E+02  0.13351173917E+03  0.47000000000E+01 0. -1.
         -5    1    4    4    0  502  0.11140283826E+01  0.15042859509E+03 -0.11588084661E+03  0.18994858223E+03  0.47000000000E+01 0.  1.
          5    1    3    3  503    0 -0.87633619364E+01 -0.97424204504E+02 -0.33845119229E+02  0.10361396736E+03  0.47000000000E+01 0. -1.
         -5    1    3    3    0  503  0.46334272973E+02 -0.17910227947E+03 -0.27107648139E+03  0.32822102329E+03  0.47000000000E+01 0. -1.
<mgrwt>
<rscale>  0 0.30265711E+03</rscale>
<asrwt>0</asrwt>
<pdfrwt beam="1">  1        1 0.24180087E-01 0.30578469E+03</pdfrwt>
<pdfrwt beam="2">  1       -1 0.92019191E-01 0.30578469E+03</pdfrwt>
<totfact> 0.24246369E+02</totfact>
</mgrwt>
</event>
<event>
 8    1  0.3407580E-004  0.2111098E+03  0.7546771E-02  0.1144071E+00
          1   -1    0    0  501    0  0.00000000000E+00  0.00000000000E+00  0.17232607041E+04  0.17232607041E+04  0.00000000000E+00 0. -1.
         -1   -1    0    0    0  501 -0.00000000000E+00 -0.00000000000E+00 -0.27804095387E+02  0.27804095387E+02  0.00000000000E+00 0.  1.
         25    2    1    2    0    0 -0.11652764862E+03  0.12394940737E+03  0.12057772744E+04  0.12241185304E+04  0.12500076998E+03 0.  0.
         23    2    1    2    0    0  0.11652764862E+03 -0.12394940737E+03  0.48967933430E+03  0.52694626909E+03  0.94574687852E+02 0.  0.
          5    1    3    3  502    0 -0.11012376407E+03  0.48108941581E+02  0.93855378855E+03  0.94622778319E+03  0.47000000000E+01 0.  1.
         -5    1    4    4    0  503  0.51392660709E+02 -0.82281342123E+02  0.15114291641E+03  0.17965994550E+03  0.47000000000E+01 0.  1.
          5    1    4    4  503    0  0.65134987911E+02 -0.41668065252E+02  0.33853641789E+03  0.34728632359E+03  0.47000000000E+01 0. -1.
         -5    1    3    3    0  502 -0.64038845498E+01  0.75840465794E+02  0.26722348582E+03  0.27789074717E+03  0.47000000000E+01 0.  1.
<mgrwt>
<rscale>  0 0.20686731E+03</rscale>
<asrwt>0</asrwt>
<pdfrwt beam="1">  1        1 0.26511695E+00 0.21110978E+03</pdfrwt>
<pdfrwt beam="2">  1       -1 0.42775545E-02 0.21110978E+03</pdfrwt>
<totfact> 0.11404163E+03</totfact>
</mgrwt>
</event>
<event>
 8    1  0.3407580E-004  0.1607842E+03  0.7546771E-02  0.1194546E+00
         -3   -1    0    0    0  501 -0.00000000000E+00  0.00000000000E+00  0.97019484261E+02  0.97019484261E+02  0.00000000000E+00 0.  1.
          3   -1    0    0  501    0  0.00000000000E+00 -0.00000000000E+00 -0.24102711987E+03  0.24102711987E+03  0.00000000000E+00 0. -1.
         25    2    1    2    0    0  0.39624631341E+02  0.93037962131E+02 -0.11154854728E+03  0.19569019615E+03  0.12500160264E+03 0.  0.
         23    2    1    2    0    0 -0.39624631341E+02 -0.93037962131E+02 -0.32459088329E+02  0.14235640798E+03  0.94792302807E+02 0.  0.
          5    1    4    4  502    0  0.15841245526E+02 -0.60983998693E+02 -0.44133080400E+02  0.77070175438E+02  0.47000000000E+01 0. -1.
         -5    1    3    3    0  503  0.38318178645E+02 -0.91434617055E+01 -0.78892847393E+02  0.88306608340E+02  0.47000000000E+01 0. -1.
          5    1    3    3  503    0  0.13064526958E+01  0.10218142384E+03 -0.32655699886E+02  0.10738358781E+03  0.47000000000E+01 0. -1.
         -5    1    4    4    0  502 -0.55465876867E+02 -0.32053963438E+02  0.11673992071E+02  0.65286232542E+02  0.47000000000E+01 0.  1.
<mgrwt>
<rscale>  0 0.15492750E+03</rscale>
<asrwt>0</asrwt>
<pdfrwt beam="1">  1        3 0.37081095E-01 0.16078425E+03</pdfrwt>
<pdfrwt beam="2">  1       -3 0.14926075E-01 0.16078425E+03</pdfrwt>
<totfact> 0.63857216E+02</totfact>
</mgrwt>
</event>
<event>
 8    1  0.3407580E-004  0.1357148E+03  0.7546771E-02  0.1231244E+00
         -1   -1    0    0    0  501 -0.00000000000E+00  0.00000000000E+00  0.13460374463E+02  0.13460374463E+02  0.00000000000E+00 0.  1.
          1   -1    0    0  501    0  0.00000000000E+00 -0.00000000000E+00 -0.10822643549E+04  0.10822643549E+04  0.00000000000E+00 0. -1.
         25    2    1    2    0    0  0.42828417061E+02 -0.30963091393E+02 -0.60896736445E+03  0.62390686035E+03  0.12500213237E+03 0.  0.
         23    2    1    2    0    0 -0.42828417061E+02  0.30963091393E+02 -0.45983661598E+03  0.47181786900E+03  0.91484434606E+02 0.  0.
          5    1    3    3  502    0 -0.26832413879E+02  0.61828352364E+01 -0.36296835875E+02  0.45801268330E+02  0.47000000000E+01 0.  1.
         -5    1    4    4    0  503 -0.17963594356E+02 -0.22934694317E+02 -0.53121534106E+02  0.60767411590E+02  0.47000000000E+01 0.  1.
          5    1    4    4  503    0 -0.24864822704E+02  0.53897785711E+02 -0.40671508188E+03  0.41105045741E+03  0.47000000000E+01 0. -1.
         -5    1    3    3    0  502  0.69660830939E+02 -0.37145926630E+02 -0.57267052857E+03  0.57810559202E+03  0.47000000000E+01 0.  1.
<mgrwt>
<rscale>  0 0.12747944E+03</rscale>
<asrwt>0</asrwt>
<pdfrwt beam="1">  1        1 0.16650226E+00 0.13571485E+03</pdfrwt>
<pdfrwt beam="2">  1       -1 0.20708262E-02 0.13571485E+03</pdfrwt>
<totfact> 0.87674887E+03</totfact>
</mgrwt>
</event>
<event>
 8    1  0.3407580E-004  0.2238726E+03  0.7546771E-02  0.1134777E+00
          1   -1    0    0  501    0  0.00000000000E+00  0.00000000000E+00  0.97002546477E+03  0.97002546477E+03  0.00000000000E+00 0. -1.
         -1   -1    0    0    0  501 -0.00000000000E+00 -0.00000000000E+00 -0.51637026587E+02  0.51637026587E+02  0.00000000000E+00 0.  1.
         25    2    1    2    0    0  0.51931882953E+02 -0.17831541836E+03  0.62725085129E+03  0.66600494210E+03  0.12500257421E+03 0.  0.
         23    2    1    2    0    0 -0.51931882953E+02  0.17831541836E+03  0.29113758689E+03  0.35565754926E+03  0.85075783570E+02 0.  0.
          5    1    4    4  502    0 -0.37178789656E+02  0.52150749262E+02  0.44307841236E+02  0.78020752649E+02  0.47000000000E+01 0. -1.
         -5    1    4    4    0  502 -0.14753093297E+02  0.12616466910E+03  0.24682974565E+03  0.27763679661E+03  0.47000000000E+01 0.  1.
          5    1    3    3  503    0  0.57575285737E+02 -0.13812788911E+03  0.29076657693E+03  0.32704972028E+03  0.47000000000E+01 0.  1.
         -5    1    3    3    0  503 -0.56434027837E+01 -0.40187529253E+02  0.33648427437E+03  0.33895522182E+03  0.47000000000E+01 0.  1.
<mgrwt>
<rscale>  0 0.21880556E+03</rscale>
<asrwt>0</asrwt>
<pdfrwt beam="1">  1        1 0.14923467E+00 0.22387263E+03</pdfrwt>
<pdfrwt beam="2">  1       -1 0.79441587E-02 0.22387263E+03</pdfrwt>
<totfact> 0.14665626E+03</totfact>
</mgrwt>
</event>
<event>
 8    1  0.3407580E-004  0.1676634E+03  0.7546771E-02  0.1187325E+00
         -2   -1    0    0    0  501 -0.00000000000E+00  0.00000000000E+00  0.13683123625E+03  0.13683123625E+03  0.00000000000E+00 0.  1.
          2   -1    0    0  501    0  0.00000000000E+00 -0.00000000000E+00 -0.21112440590E+03  0.21112440590E+03  0.00000000000E+00 0. -1.
         25    2    1    2    0    0  0.41227224679E+02  0.10386137035E+03  0.30471396415E+02  0.17040991284E+03  0.12499665632E+03 0.  0.
         23    2    1    2    0    0 -0.41227224679E+02 -0.10386137035E+03 -0.10476456606E+03  0.17754572931E+03  0.89777521615E+02 0.  0.
          5    1    3    3  502    0  0.62546382364E+02  0.12912703568E+01  0.13610938801E+02  0.64195521503E+02  0.47000000000E+01 0.  1.
         -5    1    4    4    0  503 -0.17232030699E+02 -0.25996473889E+02  0.13124527578E+02  0.34162885722E+02  0.47000000000E+01 0.  1.
          5    1    4    4  503    0 -0.23995193980E+02 -0.77864896459E+02 -0.11788909364E+03  0.14338284359E+03  0.47000000000E+01 0. -1.
         -5    1    3    3    0  502 -0.21319157685E+02  0.10257009999E+03  0.16860457614E+02  0.10621439134E+03  0.47000000000E+01 0.  1.
<mgrwt>
<rscale>  0 0.16122115E+03</rscale>
<asrwt>0</asrwt>
<pdfrwt beam="1">  1        2 0.32480678E-01 0.16766345E+03</pdfrwt>
<pdfrwt beam="2">  1       -2 0.21050960E-01 0.16766345E+03</pdfrwt>
<totfact> 0.30149922E+03</totfact>
</mgrwt>
</event>
<event>
 8    1  0.3407580E-004  0.1479604E+03  0.7546771E-02  0.1212088E+00
         -1   -1    0    0    0  501 -0.00000000000E+00  0.00000000000E+00  0.70005061351E+02  0.70005061351E+02  0.00000000000E+00 0.  1.
          1   -1    0    0  501    0  0.00000000000E+00 -0.00000000000E+00 -0.28012312592E+03  0.28012312592E+03  0.00000000000E+00 0. -1.
         25    2    1    2    0    0  0.66380224595E+01  0.78881899270E+02 -0.67589174472E+02  0.16266711280E+03  0.12500350278E+03 0.  0.
         23    2    1    2    0    0 -0.66380224595E+01 -0.78881899270E+02 -0.14252889010E+03  0.18746107447E+03  0.92524334926E+02 0.  0.
          5    1    4    4  502    0  0.12552404326E+02  0.16686225971E+02 -0.12171683070E+02  0.24621796447E+02  0.47000000000E+01 0. -1.
         -5    1    4    4    0  502 -0.19190426786E+02 -0.95568125241E+02 -0.13035720703E+03  0.16283927802E+03  0.47000000000E+01 0.  1.
          5    1    3    3  503    0  0.56202932047E+02  0.23246126984E+02  0.13924070913E+01  0.61017872693E+02  0.47000000000E+01 0.  1.
         -5    1    3    3    0  503 -0.49564909587E+02  0.55635772286E+02 -0.68981581564E+02  0.10164924011E+03  0.47000000000E+01 0.  1.
<mgrwt>
<rscale>  0 0.14092612E+03</rscale>
<asrwt>0</asrwt>
<pdfrwt beam="1">  1        1 0.43095867E-01 0.14796044E+03</pdfrwt>
<pdfrwt beam="2">  1       -1 0.10770009E-01 0.14796044E+03</pdfrwt>
<totfact> 0.49985535E+03</totfact>
</mgrwt>
</event>
<event>
 8    1  0.3407580E-004  0.1358905E+03  0.7546771E-02  0.1230584E+00
         -1   -1    0    0    0  501 -0.00000000000E+00  0.00000000000E+00  0.18635696420E+02  0.18635696420E+02  0.00000000000E+00 0.  1.
          1   -1    0    0  501    0  0.00000000000E+00 -0.00000000000E+00 -0.87012458802E+03  0.87012458802E+03  0.00000000000E+00 0. -1.
         25    2    1    2    0    0  0.45411666108E+02  0.27907509478E+02 -0.60671726072E+03  0.62174920015E+03  0.12500073967E+03 0.  0.
         23    2    1    2    0    0 -0.45411666108E+02 -0.27907509478E+02 -0.24477163088E+03  0.26701108430E+03  0.92416012414E+02 0.  0.
          5    1    3    3  502    0 -0.66196826564E-01 -0.21445069484E+02 -0.15883115224E+02  0.27097209015E+02  0.47000000000E+01 0.  1.
         -5    1    3    3    0  502  0.45477862934E+02  0.49352578962E+02 -0.59083414550E+03  0.59465199113E+03  0.47000000000E+01 0.  1.
          5    1    4    4  503    0 -0.26500645926E+02  0.28379836105E+01 -0.22291681577E+03  0.22455363533E+03  0.47000000000E+01 0. -1.
         -5    1    4    4    0  503 -0.18911020182E+02 -0.30745493089E+02 -0.21854815108E+02  0.42457448969E+02  0.47000000000E+01 0.  1.
<mgrwt>
<rscale>  0 0.12791400E+03</rscale>
<asrwt>0</asrwt>
<pdfrwt beam="1">  1        1 0.13386531E+00 0.13589052E+03</pdfrwt>
<pdfrwt beam="2">  1       -1 0.28670305E-02 0.13589052E+03</pdfrwt>
<totfact> 0.78615762E+03</totfact>
</mgrwt>
</event>
<event>
 8    1  0.3407580E-004  0.1474560E+03  0.7546771E-02  0.1213358E+00
          2   -1    0    0  501    0  0.00000000000E+00  0.00000000000E+00  0.55300406442E+03  0.55300406442E+03  0.00000000000E+00 0. -1.
         -2   -1    0    0    0  501 -0.00000000000E+00 -0.00000000000E+00 -0.52504266620E+02  0.52504266620E+02  0.00000000000E+00 0.  1.
         25    2    1    2    0    0  0.41572029824E+02 -0.66249125428E+02  0.45349853750E+03  0.47686915551E+03  0.12500435067E+03 0.  0.
         23    2    1    2    0    0 -0.41572029824E+02  0.66249125428E+02  0.47001260307E+02  0.12863917553E+03  0.90673803970E+02 0.  0.
          5    1    3    3  502    0  0.39145745399E+02 -0.15607060675E+02  0.34162348326E+02  0.54452968412E+02  0.47000000000E+01 0.  1.
         -5    1    4    4    0  503  0.25959958507E+02  0.15751075603E+02 -0.23597344514E+01  0.30816783983E+02  0.47000000000E+01 0.  1.
          5    1    4    4  503    0 -0.67531988331E+02  0.50498049826E+02  0.49360994758E+02  0.97822391545E+02  0.47000000000E+01 0. -1.
         -5    1    3    3    0  502  0.24262844249E+01 -0.50642064753E+02  0.41933618917E+03  0.42241618710E+03  0.47000000000E+01 0.  1.
<mgrwt>
<rscale>  0 0.13997851E+03</rscale>
<asrwt>0</asrwt>
<pdfrwt beam="1">  1        2 0.85077544E-01 0.14745599E+03</pdfrwt>
<pdfrwt beam="2">  1       -2 0.80775799E-02 0.14745599E+03</pdfrwt>
<totfact> 0.50098828E+03</totfact>
</mgrwt>
</event>
<event>
 8    1  0.3407580E-004  0.2081464E+03  0.7546771E-02  0.1146384E+00
         -2   -1    0    0    0  501 -0.00000000000E+00  0.00000000000E+00  0.47296383048E+03  0.47296383048E+03  0.00000000000E+00 0.  1.
          2   -1    0    0  501    0  0.00000000000E+00 -0.00000000000E+00 -0.14009280842E+03  0.14009280842E+03  0.00000000000E+00 0. -1.
         25    2    1    2    0    0  0.13430611347E+03 -0.98297850049E+02  0.36310502074E+03  0.41853335837E+03  0.12499726613E+03 0.  0.
         23    2    1    2    0    0 -0.13430611347E+03  0.98297850049E+02 -0.30233998681E+02  0.19452328052E+03  0.96044846550E+02 0.  0.
          5    1    3    3  502    0  0.11521151625E+01 -0.60361389551E+02  0.59880418414E+02  0.85162076227E+02  0.47000000000E+01 0. -1.
         -5    1    3    3    0  502  0.13315399831E+03 -0.37936460499E+02  0.30322460233E+03  0.33337128214E+03  0.47000000000E+01 0. -1.
          5    1    4    4  503    0 -0.12526882918E+03  0.47216174005E+02 -0.43378686100E+02  0.14080286595E+03  0.47000000000E+01 0. -1.
         -5    1    4    4    0  503 -0.90372842963E+01  0.51081676045E+02  0.13144687419E+02  0.53720414577E+02  0.47000000000E+01 0.  1.
<mgrwt>
<rscale>  0 0.20402906E+03</rscale>
<asrwt>0</asrwt>
<pdfrwt beam="1">  1        2 0.21552740E-01 0.20814638E+03</pdfrwt>
<pdfrwt beam="2">  1       -2 0.72763665E-01 0.20814638E+03</pdfrwt>
<totfact> 0.44718527E+02</totfact>
</mgrwt>
</event>
<event>
 8    1  0.3407580E-004  0.1559830E+03  0.7546771E-02  0.1201281E+00
          1   -1    0    0  501    0  0.00000000000E+00  0.00000000000E+00  0.78792807314E+02  0.78792807314E+02  0.00000000000E+00 0. -1.
         -1   -1    0    0    0  501 -0.00000000000E+00 -0.00000000000E+00 -0.26155812209E+03  0.26155812209E+03  0.00000000000E+00 0.  1.
         25    2    1    2    0    0 -0.88785588173E+02  0.28693466307E+02 -0.10269173917E+03  0.18675196304E+03  0.12499802690E+03 0.  0.
         23    2    1    2    0    0  0.88785588173E+02 -0.28693466307E+02 -0.80073575611E+02  0.15359896637E+03  0.92057966967E+02 0.  0.
          5    1    4    4  502    0  0.19305199140E+02 -0.39164207249E+02  0.38018912198E+01  0.44080270191E+02  0.47000000000E+01 0. -1.
         -5    1    4    4    0  502  0.69480389033E+02  0.10470740942E+02 -0.83875466831E+02  0.10951869618E+03  0.47000000000E+01 0.  1.
          5    1    3    3  503    0 -0.73132724097E+02 -0.99282796093E+01 -0.12034426179E+03  0.14125083155E+03  0.47000000000E+01 0. -1.
         -5    1    3    3    0  503 -0.15652864076E+02  0.38621745916E+02  0.17652522621E+02  0.45501131484E+02  0.47000000000E+01 0. -1.
<mgrwt>
<rscale>  0 0.14934429E+03</rscale>
<asrwt>0</asrwt>
<pdfrwt beam="1">  1        1 0.12121970E-01 0.15598302E+03</pdfrwt>
<pdfrwt beam="2">  1       -1 0.40239712E-01 0.15598302E+03</pdfrwt>
<totfact> 0.29384156E+03</totfact>
</mgrwt>
</event>
<event>
 8    1  0.3407580E-004  0.1294975E+03  0.7546771E-02  0.1242224E+00
          1   -1    0    0  501    0  0.00000000000E+00  0.00000000000E+00  0.11740119409E+03  0.11740119409E+03  0.00000000000E+00 0. -1.
         -1   -1    0    0    0  501 -0.00000000000E+00 -0.00000000000E+00 -0.12324853096E+03  0.12324853096E+03  0.00000000000E+00 0.  1.
         25    2    1    2    0    0  0.33823544615E+02  0.75133938475E+00  0.36639253021E+02  0.13458096494E+03  0.12500001832E+03 0.  0.
         23    2    1    2    0    0 -0.33823544615E+02 -0.75133938475E+00 -0.42486589893E+02  0.10606876011E+03  0.91109137138E+02 0.  0.
          5    1    3    3  502    0  0.59185675866E+01 -0.50813257714E+02  0.52712654922E+02  0.73605234805E+02  0.47000000000E+01 0.  1.
         -5    1    4    4    0  503  0.22286294782E+02 -0.16773670351E+02 -0.37976965247E+02  0.47353720462E+02  0.47000000000E+01 0.  1.
          5    1    4    4  503    0 -0.56109839397E+02  0.16022330966E+02 -0.45096246458E+01  0.58715039651E+02  0.47000000000E+01 0. -1.
         -5    1    3    3    0  502  0.27904977028E+02  0.51564597099E+02 -0.16073401901E+02  0.60975730135E+02  0.47000000000E+01 0.  1.
<mgrwt>
<rscale>  0 0.12053106E+03</rscale>
<asrwt>0</asrwt>
<pdfrwt beam="1">  1        1 0.18061722E-01 0.12949750E+03</pdfrwt>
<pdfrwt beam="2">  1       -1 0.18961312E-01 0.12949750E+03</pdfrwt>
<totfact> 0.60816129E+03</totfact>
</mgrwt>
</event>
<event>
 8    1  0.3407580E-004  0.1409643E+03  0.7546771E-02  0.1222843E+00
         -1   -1    0    0    0  501 -0.00000000000E+00  0.00000000000E+00  0.29696098047E+02  0.29696098047E+02  0.00000000000E+00 0.  1.
          1   -1    0    0  501    0  0.00000000000E+00 -0.00000000000E+00 -0.54369816297E+03  0.54369816297E+03  0.00000000000E+00 0. -1.
         25    2    1    2    0    0 -0.30997315223E+02 -0.57264440739E+02 -0.31024716495E+03  0.34077005941E+03  0.12502351899E+03 0.  0.
         23    2    1    2    0    0  0.30997315223E+02  0.57264440739E+02 -0.20375489997E+03  0.23262420161E+03  0.91421606801E+02 0.  0.
          5    1    3    3  502    0 -0.22508515097E+02 -0.90862214282E+02 -0.15096285146E+03  0.17769200252E+03  0.47000000000E+01 0.  1.
         -5    1    4    4    0  503  0.29775853865E+02  0.77407376274E+02 -0.11739221854E+03  0.14381073099E+03  0.47000000000E+01 0.  1.
          5    1    4    4  503    0  0.12214613587E+01 -0.20142935535E+02 -0.86362681430E+02  0.88813470620E+02  0.47000000000E+01 0. -1.
         -5    1    3    3    0  502 -0.84888001260E+01  0.33597773543E+02 -0.15928431349E+03  0.16307805689E+03  0.47000000000E+01 0.  1.
<mgrwt>
<rscale>  0 0.13315864E+03</rscale>
<asrwt>0</asrwt>
<pdfrwt beam="1">  1        1 0.83645866E-01 0.14096429E+03</pdfrwt>
<pdfrwt beam="2">  1       -1 0.45686308E-02 0.14096429E+03</pdfrwt>
<totfact> 0.78000896E+03</totfact>
</mgrwt>
</event>
<event>
 8    1  0.3407580E-004  0.1373194E+03  0.7546771E-02  0.1228737E+00
         -1   -1    0    0    0  501 -0.00000000000E+00  0.00000000000E+00  0.51633460841E+03  0.51633460841E+03  0.00000000000E+00 0.  1.
          1   -1    0    0  501    0  0.00000000000E+00 -0.00000000000E+00 -0.30519610194E+02  0.30519610194E+02  0.00000000000E+00 0. -1.
         25    2    1    2    0    0 -0.53543840716E+02 -0.19118177509E+02  0.21052456655E+03  0.25135079093E+03  0.12499671752E+03 0.  0.
         23    2    1    2    0    0  0.53543840716E+02  0.19118177509E+02  0.27529043167E+03  0.29550342767E+03  0.91131807887E+02 0.  0.
          5    1    3    3  502    0 -0.83827818440E+02  0.20358224282E+02  0.11874711547E+03  0.14684865636E+03  0.47000000000E+01 0. -1.
         -5    1    4    4    0  503  0.63961704318E+02 -0.19555602347E+02  0.16817128572E+03  0.18104472526E+03  0.47000000000E+01 0.  1.
          5    1    4    4  503    0 -0.10417863601E+02  0.38673779856E+02  0.10711914594E+03  0.11445870241E+03  0.47000000000E+01 0. -1.
         -5    1    3    3    0  502  0.30283977724E+02 -0.39476401791E+02  0.91777451079E+02  0.10450213458E+03  0.47000000000E+01 0. -1.
<mgrwt>
<rscale>  0 0.12914059E+03</rscale>
<asrwt>0</asrwt>
<pdfrwt beam="1">  1        1 0.46953250E-02 0.13731943E+03</pdfrwt>
<pdfrwt beam="2">  1       -1 0.79436087E-01 0.13731943E+03</pdfrwt>
<totfact> 0.29029487E+03</totfact>
</mgrwt>
</event>
<event>
 8    1  0.3407580E-004  0.2626359E+03  0.7546771E-02  0.1107803E+00
          2   -1    0    0  501    0  0.00000000000E+00  0.00000000000E+00  0.10880857447E+04  0.10880857447E+04  0.00000000000E+00 0.  1.
         -2   -1    0    0    0  501 -0.00000000000E+00 -0.00000000000E+00 -0.80262759935E+02  0.80262759935E+02  0.00000000000E+00 0. -1.
         25    2    1    2    0    0 -0.13205544692E+03  0.18950645015E+03  0.80870276684E+03  0.85028101398E+03  0.12500520759E+03 0.  0.
         23    2    1    2    0    0  0.13205544692E+03 -0.18950645015E+03  0.19912021790E+03  0.31806749064E+03  0.90369971296E+02 0.  0.
          5    1    4    4  502    0  0.10397070984E+03 -0.79384898677E+02  0.80217890951E+02  0.15352156419E+03  0.47000000000E+01 0. -1.
         -5    1    3    3    0  503 -0.50560807157E+02  0.11144234700E+03  0.22912733698E+03  0.25980226803E+03  0.47000000000E+01 0.  1.
          5    1    3    3  503    0 -0.81494639763E+02  0.78064103153E+02  0.57957542986E+03  0.59047874594E+03  0.47000000000E+01 0.  1.
         -5    1    4    4    0  502  0.28084737081E+02 -0.11012155147E+03  0.11890232695E+03  0.16454592645E+03  0.47000000000E+01 0.  1.
<mgrwt>
<rscale>  0 0.25890531E+03</rscale>
<asrwt>0</asrwt>
<pdfrwt beam="1">  1        2 0.16739780E+00 0.26263594E+03</pdfrwt>
<pdfrwt beam="2">  1       -2 0.12348118E-01 0.26263594E+03</pdfrwt>
<totfact> 0.10975999E+03</totfact>
</mgrwt>
</event>
<event>
 8    1  0.3407580E-004  0.1345162E+03  0.7546771E-02  0.1233491E+00
          2   -1    0    0  501    0  0.00000000000E+00  0.00000000000E+00  0.39436499798E+03  0.39436499798E+03  0.00000000000E+00 0.  1.
         -2   -1    0    0    0  501 -0.00000000000E+00 -0.00000000000E+00 -0.12184638102E+03  0.12184638102E+03  0.00000000000E+00 0. -1.
         25    2    1    2    0    0 -0.48113548940E+02 -0.12386320378E+02  0.35765539902E+03  0.38211515847E+03  0.12500510133E+03 0.  0.
         23    2    1    2    0    0  0.48113548940E+02  0.12386320378E+02 -0.85136782066E+02  0.13409622053E+03  0.90913091332E+02 0.  0.
          5    1    4    4  502    0 -0.20517771497E+02  0.15762375060E+02 -0.50650146696E+02  0.57069771115E+02  0.47000000000E+01 0. -1.
         -5    1    4    4    0  502  0.68631320437E+02 -0.33760546823E+01 -0.34486635369E+02  0.77026449414E+02  0.47000000000E+01 0.  1.
          5    1    3    3  503    0  0.18611352141E+02 -0.41027926176E+02  0.57140242040E+02  0.72916187607E+02  0.47000000000E+01 0. -1.
         -5    1    3    3    0  503 -0.66724901081E+02  0.28641605798E+02  0.30051515699E+03  0.30919897087E+03  0.47000000000E+01 0. -1.
<mgrwt>
<rscale>  0 0.12601544E+03</rscale>
<asrwt>0</asrwt>
<pdfrwt beam="1">  1        2 0.60671538E-01 0.13451621E+03</pdfrwt>
<pdfrwt beam="2">  1       -2 0.18745597E-01 0.13451621E+03</pdfrwt>
<totfact> 0.18676348E+03</totfact>
</mgrwt>
</event>
<event>
 8    1  0.3407580E-004  0.1362645E+03  0.7546771E-02  0.1228631E+00
         -2   -1    0    0    0  501 -0.00000000000E+00  0.00000000000E+00  0.14930477604E+03  0.14930477604E+03  0.00000000000E+00 0.  1.
          2   -1    0    0  501    0  0.00000000000E+00 -0.00000000000E+00 -0.10714368768E+03  0.10714368768E+03  0.00000000000E+00 0. -1.
         25    2    1    2    0    0  0.50756968772E+02  0.19092202552E+02  0.51986465380E+02  0.14584449949E+03  0.12500897317E+03 0.  0.
         23    2    1    2    0    0 -0.50756968772E+02 -0.19092202552E+02 -0.98253770205E+01  0.11060396423E+03  0.95895342916E+02 0.  0.
          5    1    4    4  502    0 -0.31370669738E+01  0.20364540092E+02 -0.37220695974E+02  0.42802171571E+02  0.47000000000E+01 0. -1.
         -5    1    4    4    0  502 -0.47619901799E+02 -0.39456742645E+02  0.27395318954E+02  0.67801792661E+02  0.47000000000E+01 0.  1.
          5    1    3    3  503    0  0.44815327687E+02 -0.43882983333E+02  0.53235607142E+02  0.82402971365E+02  0.47000000000E+01 0. -1.
         -5    1    3    3    0  503  0.59416410849E+01  0.62975185886E+02 -0.12491417622E+01  0.63441528128E+02  0.47000000000E+01 0. -1.
<mgrwt>
<rscale>  0 0.12921107E+03</rscale>
<asrwt>0</asrwt>
<pdfrwt beam="1">  1        2 0.16483644E-01 0.13626454E+03</pdfrwt>
<pdfrwt beam="2">  1       -2 0.22969966E-01 0.13626454E+03</pdfrwt>
<totfact> 0.54730486E+03</totfact>
</mgrwt>
</event>
<event>
 8    1  0.3407580E-004  0.1807962E+03  0.7546771E-02  0.1172888E+00
          4   -1    0    0  501    0  0.00000000000E+00  0.00000000000E+00  0.63159334774E+03  0.63159334774E+03  0.00000000000E+00 0. -1.
         -4   -1    0    0    0  501 -0.00000000000E+00 -0.00000000000E+00 -0.52663628155E+02  0.52663628155E+02  0.00000000000E+00 0.  1.
         25    2    1    2    0    0  0.58195578914E+02  0.11693379708E+03  0.17998120809E+03  0.25510883388E+03  0.12500817395E+03 0.  0.
         23    2    1    2    0    0 -0.58195578914E+02 -0.11693379708E+03  0.39894851150E+03  0.42914814202E+03  0.89151414252E+02 0.  0.
          5    1    3    3  502    0  0.23995914829E+02  0.13266969151E+03  0.10455136583E+03  0.17067550812E+03  0.47000000000E+01 0.  1.
         -5    1    3    3    0  502  0.34199664085E+02 -0.15735894426E+02  0.75429842255E+02  0.84433325764E+02  0.47000000000E+01 0.  1.
          5    1    4    4  503    0  0.10940656217E+02 -0.48831239454E+02  0.21848880520E+03  0.22419553052E+03  0.47000000000E+01 0. -1.
         -5    1    4    4    0  503 -0.69136235131E+02 -0.68102557628E+02  0.18045970630E+03  0.20495261150E+03  0.47000000000E+01 0.  1.
<mgrwt>
<rscale>  0 0.17484467E+03</rscale>
<asrwt>0</asrwt>
<pdfrwt beam="1">  1        4 0.97168202E-01 0.18079624E+03</pdfrwt>
<pdfrwt beam="2">  1       -4 0.81020971E-02 0.18079624E+03</pdfrwt>
<totfact> 0.17318815E+02</totfact>
</mgrwt>
</event>
<event>
 8    1  0.3407580E-004  0.1253288E+03  0.7546771E-02  0.1249881E+00
         -2   -1    0    0    0  501 -0.00000000000E+00  0.00000000000E+00  0.76292995817E+02  0.76292995817E+02  0.00000000000E+00 0.  1.
          2   -1    0    0  501    0  0.00000000000E+00 -0.00000000000E+00 -0.17109807360E+03  0.17109807360E+03  0.00000000000E+00 0. -1.
         25    2    1    2    0    0  0.75858419222E+01  0.49787712057E+01 -0.16049000467E+02  0.12635217273E+03  0.12499987191E+03 0.  0.
         23    2    1    2    0    0 -0.75858419222E+01 -0.49787712057E+01 -0.78756077312E+02  0.12103889668E+03  0.91463444256E+02 0.  0.
          5    1    3    3  502    0 -0.53888070486E+02  0.11103707689E+02 -0.30000828879E+02  0.62843903432E+02  0.47000000000E+01 0. -1.
         -5    1    3    3    0  502  0.61473912408E+02 -0.61249364835E+01  0.13951828412E+02  0.63508269302E+02  0.47000000000E+01 0. -1.
          5    1    4    4  503    0 -0.34434544871E+02  0.29831390849E+02 -0.52283039392E+02  0.69507236807E+02  0.47000000000E+01 0. -1.
         -5    1    4    4    0  503  0.26848702949E+02 -0.34810162055E+02 -0.26473037920E+02  0.51531659871E+02  0.47000000000E+01 0.  1.
<mgrwt>
<rscale>  0 0.11597961E+03</rscale>
<asrwt>0</asrwt>
<pdfrwt beam="1">  1        2 0.26322780E-01 0.12532877E+03</pdfrwt>
<pdfrwt beam="2">  1       -2 0.11737384E-01 0.12532877E+03</pdfrwt>
<totfact> 0.97409601E+03</totfact>
</mgrwt>
</event>
<event>
 8    1  0.3407580E-004  0.1426324E+03  0.7546771E-02  0.1220529E+00
         -2   -1    0    0    0  501 -0.00000000000E+00  0.00000000000E+00  0.56404670396E+03  0.56404670396E+03  0.00000000000E+00 0.  1.
          2   -1    0    0  501    0  0.00000000000E+00 -0.00000000000E+00 -0.29175239092E+02  0.29175239092E+02  0.00000000000E+00 0. -1.
         25    2    1    2    0    0 -0.34043609324E+02  0.59664478227E+02  0.28576269576E+03  0.31938112990E+03  0.12500068221E+03 0.  0.
         23    2    1    2    0    0  0.34043609324E+02 -0.59664478227E+02  0.24910876911E+03  0.27384081315E+03  0.90635505196E+02 0.  0.
          5    1    3    3  502    0  0.37094327927E+02  0.60259212345E+02  0.13026315982E+03  0.14831636000E+03  0.47000000000E+01 0.  1.
         -5    1    3    3    0  502 -0.71137937251E+02 -0.59473411834E+00  0.15549953594E+03  0.17106476990E+03  0.47000000000E+01 0.  1.
          5    1    4    4  503    0 -0.23174558767E+02  0.67701148906E+01  0.38807551278E+02  0.45945736101E+02  0.47000000000E+01 0. -1.
         -5    1    4    4    0  503  0.57218168091E+02 -0.66434593117E+02  0.21030121783E+03  0.22789507705E+03  0.47000000000E+01 0.  1.
<mgrwt>
<rscale>  0 0.13478095E+03</rscale>
<asrwt>0</asrwt>
<pdfrwt beam="1">  1        2 0.44884987E-02 0.14263235E+03</pdfrwt>
<pdfrwt beam="2">  1       -2 0.86776408E-01 0.14263235E+03</pdfrwt>
<totfact> 0.20764890E+03</totfact>
</mgrwt>
</event>
<event>
 8    1  0.3407580E-004  0.1276806E+03  0.7546771E-02  0.1246169E+00
         -2   -1    0    0    0  501 -0.00000000000E+00  0.00000000000E+00  0.60556689809E+02  0.60556689809E+02  0.00000000000E+00 0.  1.
          2   -1    0    0  501    0  0.00000000000E+00 -0.00000000000E+00 -0.21338788115E+03  0.21338788115E+03  0.00000000000E+00 0. -1.
         25    2    1    2    0    0 -0.13202441115E+02 -0.22425034445E+02 -0.56569472444E+02  0.13965109732E+03  0.12500054859E+03 0.  0.
         23    2    1    2    0    0  0.13202441115E+02  0.22425034445E+02 -0.96261718898E+02  0.13429347364E+03  0.89951275239E+02 0.  0.
          5    1    4    4  502    0 -0.94718347878E+01  0.36740151788E+02 -0.99770266955E+02  0.10684451589E+03  0.47000000000E+01 0. -1.
         -5    1    4    4    0  502  0.22674275903E+02 -0.14315117344E+02  0.35085480569E+01  0.27448957754E+02  0.47000000000E+01 0.  1.
          5    1    3    3  503    0  0.22894584343E+02  0.15512740460E+02 -0.77987275253E+02  0.82878900874E+02  0.47000000000E+01 0.  1.
         -5    1    3    3    0  503 -0.36097025459E+02 -0.37937774905E+02  0.21417802808E+02  0.56772196442E+02  0.47000000000E+01 0.  1.
<mgrwt>
<rscale>  0 0.11815680E+03</rscale>
<asrwt>0</asrwt>
<pdfrwt beam="1">  1        2 0.32828904E-01 0.12768055E+03</pdfrwt>
<pdfrwt beam="2">  1       -2 0.93164139E-02 0.12768055E+03</pdfrwt>
<totfact> 0.11049504E+04</totfact>
</mgrwt>
</event>
<event>
 8    1  0.3407580E-004  0.1415565E+03  0.7546771E-02  0.1220686E+00
         -1   -1    0    0    0  501 -0.00000000000E+00  0.00000000000E+00  0.41636916558E+02  0.41636916558E+02  0.00000000000E+00 0.  1.
          1   -1    0    0  501    0  0.00000000000E+00 -0.00000000000E+00 -0.43564478357E+03  0.43564478357E+03  0.00000000000E+00 0. -1.
         25    2    1    2    0    0 -0.66408183132E+02  0.16802871328E+01 -0.28458218163E+03  0.31784470218E+03  0.12500146581E+03 0.  0.
         23    2    1    2    0    0  0.66408183132E+02 -0.16802871328E+01 -0.10942568538E+03  0.15943699794E+03  0.95043703314E+02 0.  0.
          5    1    3    3  502    0 -0.17946201534E+02  0.60866183918E+02 -0.15061885735E+03  0.16350806917E+03  0.47000000000E+01 0. -1.
         -5    1    3    3    0  502 -0.48461981598E+02 -0.59185896785E+02 -0.13396332428E+03  0.15433663301E+03  0.47000000000E+01 0. -1.
          5    1    4    4  503    0  0.58446398477E+02 -0.42308608226E+02 -0.83087231195E+02  0.11014344199E+03  0.47000000000E+01 0. -1.
         -5    1    4    4    0  503  0.79617846546E+01  0.40628321093E+02 -0.26338454186E+02  0.49293555955E+02  0.47000000000E+01 0.  1.
<mgrwt>
<rscale>  0 0.13467040E+03</rscale>
<asrwt>0</asrwt>
<pdfrwt beam="1">  1        1 0.67022279E-01 0.14155648E+03</pdfrwt>
<pdfrwt beam="2">  1       -1 0.64056791E-02 0.14155648E+03</pdfrwt>
<totfact> 0.62998635E+03</totfact>
</mgrwt>
</event>
<event>
 8    1  0.3407580E-004  0.1672255E+03  0.7546771E-02  0.1187528E+00
          1   -1    0    0  501    0  0.00000000000E+00  0.00000000000E+00  0.60102538452E+03  0.60102538452E+03  0.00000000000E+00 0. -1.
         -1   -1    0    0    0  501 -0.00000000000E+00 -0.00000000000E+00 -0.41989685636E+02  0.41989685636E+02  0.00000000000E+00 0.  1.
         25    2    1    2    0    0 -0.37395661409E+02  0.10459238928E+03  0.36505701753E+03  0.40153581151E+03  0.12500551384E+03 0.  0.
         23    2    1    2    0    0  0.37395661409E+02 -0.10459238928E+03  0.19397868136E+03  0.24147925865E+03  0.91359182064E+02 0.  0.
          5    1    3    3  502    0 -0.18404829844E+02  0.13065170371E+03  0.31780219147E+03  0.34413504376E+03  0.47000000000E+01 0.  1.
         -5    1    3    3    0  502 -0.18990831565E+02 -0.26059314428E+02  0.47254826062E+02  0.57400767749E+02  0.47000000000E+01 0.  1.
          5    1    4    4  503    0  0.19744326549E+02 -0.21628047295E+02  0.13460939074E+03  0.13783827094E+03  0.47000000000E+01 0. -1.
         -5    1    4    4    0  503  0.17651334860E+02 -0.82964341989E+02  0.59369290613E+02  0.10364098770E+03  0.47000000000E+01 0.  1.
<mgrwt>
<rscale>  0 0.16103957E+03</rscale>
<asrwt>0</asrwt>
<pdfrwt beam="1">  1        1 0.92465438E-01 0.16722554E+03</pdfrwt>
<pdfrwt beam="2">  1       -1 0.64599521E-02 0.16722554E+03</pdfrwt>
<totfact> 0.41031581E+03</totfact>
</mgrwt>
</event>
<event>
 8    1  0.3407580E-004  0.1383399E+03  0.7546771E-02  0.1226998E+00
          1   -1    0    0  501    0  0.00000000000E+00  0.00000000000E+00  0.20784144119E+03  0.20784144119E+03  0.00000000000E+00 0. -1.
         -1   -1    0    0    0  501 -0.00000000000E+00 -0.00000000000E+00 -0.73618065538E+02  0.73618065538E+02  0.00000000000E+00 0.  1.
         25    2    1    2    0    0 -0.58565133237E+02  0.92127908213E+01  0.79913338159E+02  0.15976258289E+03  0.12499276352E+03 0.  0.
         23    2    1    2    0    0  0.58565133237E+02 -0.92127908213E+01  0.54310037496E+02  0.12169692384E+03  0.91355408997E+02 0.  0.
          5    1    3    3  502    0 -0.90849076042E+02  0.59649817863E+01  0.87224371377E+02  0.12617177413E+03  0.47000000000E+01 0.  1.
         -5    1    3    3    0  502  0.32283942805E+02  0.32478090351E+01 -0.73110332174E+01  0.33590808762E+02  0.47000000000E+01 0.  1.
          5    1    4    4  503    0  0.27276700465E+02  0.79173244244E+01  0.74900463518E+02  0.80242581274E+02  0.47000000000E+01 0. -1.
         -5    1    4    4    0  503  0.31288432772E+02 -0.17130115246E+02 -0.20590426022E+02  0.41454342564E+02  0.47000000000E+01 0.  1.
<mgrwt>
<rscale>  0 0.13030883E+03</rscale>
<asrwt>0</asrwt>
<pdfrwt beam="1">  1        1 0.31975606E-01 0.13833995E+03</pdfrwt>
<pdfrwt beam="2">  1       -1 0.11325856E-01 0.13833995E+03</pdfrwt>
<totfact> 0.66699400E+03</totfact>
</mgrwt>
</event>
<event>
 8    1  0.3407580E-004  0.1538043E+03  0.7546771E-02  0.1204958E+00
         -1   -1    0    0    0  501 -0.00000000000E+00  0.00000000000E+00  0.33297373226E+03  0.33297373226E+03  0.00000000000E+00 0.  1.
          1   -1    0    0  501    0  0.00000000000E+00 -0.00000000000E+00 -0.14511575089E+03  0.14511575089E+03  0.00000000000E+00 0. -1.
         25    2    1    2    0    0 -0.76140912231E+02  0.47266603750E+02  0.28156626517E+03  0.32083536342E+03  0.12499679354E+03 0.  0.
         23    2    1    2    0    0  0.76140912231E+02 -0.47266603750E+02 -0.93708283794E+02  0.15725411974E+03  0.88972160686E+02 0.  0.
          5    1    4    4  502    0  0.49111543963E+02 -0.38484693221E+02 -0.10821419958E+03  0.12500167341E+03  0.47000000000E+01 0. -1.
         -5    1    4    4    0  502  0.27029368268E+02 -0.87819105284E+01  0.14505915789E+02  0.32252446331E+02  0.47000000000E+01 0.  1.
          5    1    3    3  503    0 -0.47379329204E+02  0.58512461527E+02  0.58153372723E+02  0.95249219150E+02  0.47000000000E+01 0. -1.
         -5    1    3    3    0  503 -0.28761583027E+02 -0.11245857777E+02  0.22341289244E+03  0.22558614427E+03  0.47000000000E+01 0. -1.
<mgrwt>
<rscale>  0 0.14640752E+03</rscale>
<asrwt>0</asrwt>
<pdfrwt beam="1">  1        1 0.22325500E-01 0.15380432E+03</pdfrwt>
<pdfrwt beam="2">  1       -1 0.51226728E-01 0.15380432E+03</pdfrwt>
<totfact> 0.86435035E+02</totfact>
</mgrwt>
</event>
<event>
 8    1  0.3407580E-004  0.1603616E+03  0.7546771E-02  0.1196967E+00
          2   -1    0    0  501    0  0.00000000000E+00  0.00000000000E+00  0.84039034378E+03  0.84039034378E+03  0.00000000000E+00 0. -1.
         -2   -1    0    0    0  501 -0.00000000000E+00 -0.00000000000E+00 -0.25876248887E+02  0.25876248887E+02  0.00000000000E+00 0.  1.
         25    2    1    2    0    0  0.10045190555E+03  0.82761922432E+00  0.39443465191E+03  0.42578694448E+03  0.12499822873E+03 0.  0.
         23    2    1    2    0    0 -0.10045190555E+03 -0.82761922432E+00  0.42007944299E+03  0.44047964818E+03  0.86396248543E+02 0.  0.
          5    1    3    3  502    0 -0.18828387841E+02  0.22001627301E+02  0.31075392277E+02  0.42735813994E+02  0.47000000000E+01 0. -1.
         -5    1    4    4    0  503 -0.71020814405E+02 -0.98061753607E+01  0.12832756108E+03  0.14707198947E+03  0.47000000000E+01 0.  1.
          5    1    4    4  503    0 -0.29431091146E+02  0.89785561364E+01  0.29175188190E+03  0.29340765871E+03  0.47000000000E+01 0. -1.
         -5    1    3    3    0  502  0.11928029339E+03 -0.21174008077E+02  0.36335925963E+03  0.38305113049E+03  0.47000000000E+01 0. -1.
<mgrwt>
<rscale>  0 0.15288930E+03</rscale>
<asrwt>0</asrwt>
<pdfrwt beam="1">  1        2 0.12929080E+00 0.16036155E+03</pdfrwt>
<pdfrwt beam="2">  1       -2 0.39809620E-02 0.16036155E+03</pdfrwt>
<totfact> 0.89526861E+03</totfact>
</mgrwt>
</event>
<event>
 8    1  0.3407580E-004  0.2234658E+03  0.7546771E-02  0.1134410E+00
         -1   -1    0    0    0  501 -0.00000000000E+00  0.00000000000E+00  0.35221098639E+03  0.35221098639E+03  0.00000000000E+00 0.  1.
          1   -1    0    0  501    0  0.00000000000E+00 -0.00000000000E+00 -0.14399716151E+03  0.14399716151E+03  0.00000000000E+00 0. -1.
         25    2    1    2    0    0  0.25429126550E+01 -0.18521385843E+03  0.35166295957E+02  0.22621587430E+03  0.12500525451E+03 0.  0.
         23    2    1    2    0    0 -0.25429126550E+01  0.18521385843E+03  0.17304752892E+03  0.26999227359E+03  0.92950205883E+02 0.  0.
          5    1    4    4  502    0 -0.19578457864E+02  0.15110317202E+03  0.86426466807E+02  0.17523443946E+03  0.47000000000E+01 0. -1.
         -5    1    3    3    0  503 -0.10759473283E+02 -0.36732468664E+02 -0.43053773502E+02  0.57799290067E+02  0.47000000000E+01 0.  1.
          5    1    3    3  503    0  0.13302385938E+02 -0.14848138977E+03  0.78220069459E+02  0.16841658423E+03  0.47000000000E+01 0.  1.
         -5    1    4    4    0  502  0.17035545209E+02  0.34110686410E+02  0.86621062116E+02  0.94757834135E+02  0.47000000000E+01 0.  1.
<mgrwt>
<rscale>  0 0.21929521E+03</rscale>
<asrwt>0</asrwt>
<pdfrwt beam="1">  1        1 0.22153410E-01 0.22346578E+03</pdfrwt>
<pdfrwt beam="2">  1       -1 0.54186305E-01 0.22346578E+03</pdfrwt>
<totfact> 0.78988568E+02</totfact>
</mgrwt>
</event>
<event>
 8    1  0.3407580E-004  0.1701167E+03  0.7546771E-02  0.1184140E+00
         -1   -1    0    0    0  501 -0.00000000000E+00  0.00000000000E+00  0.36298344114E+02  0.36298344114E+02  0.00000000000E+00 0.  1.
          1   -1    0    0  501    0  0.00000000000E+00 -0.00000000000E+00 -0.73858586381E+03  0.73858586381E+03  0.00000000000E+00 0. -1.
         25    2    1    2    0    0 -0.95985594353E+02  0.64045100126E+02 -0.46983912342E+03  0.49968838803E+03  0.12499869625E+03 0.  0.
         23    2    1    2    0    0  0.95985594353E+02 -0.64045100126E+02 -0.23244839628E+03  0.27519581989E+03  0.91572229311E+02 0.  0.
          5    1    3    3  502    0  0.27988322347E+02  0.23187323165E+02 -0.14529699444E+03  0.14984760504E+03  0.47000000000E+01 0.  1.
         -5    1    4    4    0  503  0.45305669613E+01 -0.52137529528E+02 -0.61424699636E+02  0.80832739330E+02  0.47000000000E+01 0.  1.
          5    1    4    4  503    0  0.91455027392E+02 -0.11907570598E+02 -0.17102369664E+03  0.19436308056E+03  0.47000000000E+01 0. -1.
         -5    1    3    3    0  502 -0.12397391670E+03  0.40857776961E+02 -0.32454212898E+03  0.34984078299E+03  0.47000000000E+01 0.  1.
<mgrwt>
<rscale>  0 0.16410388E+03</rscale>
<asrwt>0</asrwt>
<pdfrwt beam="1">  1        1 0.11362860E+00 0.17011668E+03</pdfrwt>
<pdfrwt beam="2">  1       -1 0.55843604E-02 0.17011668E+03</pdfrwt>
<totfact> 0.38124039E+03</totfact>
</mgrwt>
</event>
<event>
 8    1  0.3407580E-004  0.1286439E+03  0.7546771E-02  0.1244833E+00
         -2   -1    0    0    0  501 -0.00000000000E+00  0.00000000000E+00  0.52913314279E+03  0.52913314279E+03  0.00000000000E+00 0.  1.
          2   -1    0    0  501    0  0.00000000000E+00 -0.00000000000E+00 -0.25284080023E+02  0.25284080023E+02  0.00000000000E+00 0. -1.
         25    2    1    2    0    0  0.29142132030E+02 -0.86449584610E+01  0.21398065715E+03  0.24967373710E+03  0.12500101679E+03 0.  0.
         23    2    1    2    0    0 -0.29142132030E+02  0.86449584610E+01  0.28986840562E+03  0.30474348571E+03  0.88999440110E+02 0.  0.
          5    1    3    3  502    0  0.53056815902E+02  0.40829482995E+02  0.15509975871E+03  0.16899733000E+03  0.47000000000E+01 0. -1.
         -5    1    4    4    0  503 -0.57582196671E+02 -0.12137712255E+01  0.13405187415E+03  0.14597663367E+03  0.47000000000E+01 0.  1.
          5    1    4    4  503    0  0.28440064641E+02  0.98587296865E+01  0.15581653147E+03  0.15876685204E+03  0.47000000000E+01 0. -1.
         -5    1    3    3    0  502 -0.23914683872E+02 -0.49474441456E+02  0.58880898434E+02  0.80676407100E+02  0.47000000000E+01 0. -1.
<mgrwt>
<rscale>  0 0.11895385E+03</rscale>
<asrwt>0</asrwt>
<pdfrwt beam="1">  1        2 0.38898589E-02 0.12864390E+03</pdfrwt>
<pdfrwt beam="2">  1       -2 0.81405091E-01 0.12864390E+03</pdfrwt>
<totfact> 0.28690600E+03</totfact>
</mgrwt>
</event>
<event>
 8    1  0.3407580E-004  0.1368288E+03  0.7546771E-02  0.1229074E+00
          1   -1    0    0  501    0  0.00000000000E+00  0.00000000000E+00  0.25984352689E+03  0.25984352689E+03  0.00000000000E+00 0. -1.
         -1   -1    0    0    0  501 -0.00000000000E+00 -0.00000000000E+00 -0.59137740504E+02  0.59137740504E+02  0.00000000000E+00 0.  1.
         25    2    1    2    0    0  0.21457360254E+02  0.51351043874E+02  0.86269992348E+02  0.16175487007E+03  0.12499911358E+03 0.  0.
         23    2    1    2    0    0 -0.21457360254E+02 -0.51351043874E+02  0.11443579404E+03  0.15722639733E+03  0.92343061694E+02 0.  0.
          5    1    4    4  502    0 -0.44919304764E+02 -0.58988001182E+02  0.10836414422E+03  0.13138571451E+03  0.47000000000E+01 0. -1.
         -5    1    4    4    0  502  0.23461944509E+02  0.76369573076E+01  0.60716498180E+01  0.25840682820E+02  0.47000000000E+01 0.  1.
          5    1    3    3  503    0 -0.24418579746E+02  0.46584495782E+02 -0.11055663868E+02  0.53950903492E+02  0.47000000000E+01 0. -1.
         -5    1    3    3    0  503  0.45875940001E+02  0.47665480924E+01  0.97325656216E+02  0.10780396658E+03  0.47000000000E+01 0. -1.
<mgrwt>
<rscale>  0 0.12891558E+03</rscale>
<asrwt>0</asrwt>
<pdfrwt beam="1">  1        1 0.39975927E-01 0.13682882E+03</pdfrwt>
<pdfrwt beam="2">  1       -1 0.90981140E-02 0.13682882E+03</pdfrwt>
<totfact> 0.70638430E+03</totfact>
</mgrwt>
</event>
<event>
 8    1  0.3407580E-004  0.1422012E+03  0.7546771E-02  0.1220776E+00
         -3   -1    0    0    0  501 -0.00000000000E+00  0.00000000000E+00  0.40707089407E+03  0.40707089407E+03  0.00000000000E+00 0.  1.
          3   -1    0    0  501    0  0.00000000000E+00 -0.00000000000E+00 -0.45481675354E+02  0.45481675354E+02  0.00000000000E+00 0. -1.
         25    2    1    2    0    0 -0.67284676233E+02  0.83177571897E+01  0.27382581010E+03  0.30854779833E+03  0.12499902733E+03 0.  0.
         23    2    1    2    0    0  0.67284676233E+02 -0.83177571897E+01  0.87763408616E+02  0.14400477110E+03  0.91861555983E+02 0.  0.
          5    1    4    4  502    0  0.12258871839E+02  0.39030022584E+02  0.36328217499E+02  0.54913131292E+02  0.47000000000E+01 0. -1.
         -5    1    3    3    0  503 -0.36376626473E+02 -0.53022392505E+02  0.18660332723E+03  0.19742726457E+03  0.47000000000E+01 0. -1.
          5    1    3    3  503    0 -0.30908049760E+02  0.61340149695E+02  0.87222482871E+02  0.11112053376E+03  0.47000000000E+01 0. -1.
         -5    1    4    4    0  502  0.55025804395E+02 -0.47347779773E+02  0.51435191117E+02  0.89091639810E+02  0.47000000000E+01 0.  1.
<mgrwt>
<rscale>  0 0.13460651E+03</rscale>
<asrwt>0</asrwt>
<pdfrwt beam="1">  1        3 0.69971811E-02 0.14220116E+03</pdfrwt>
<pdfrwt beam="2">  1       -3 0.62626289E-01 0.14220116E+03</pdfrwt>
<totfact> 0.77781915E+02</totfact>
</mgrwt>
</event>
<event>
 8    1  0.3407580E-004  0.1261193E+03  0.7546771E-02  0.1248354E+00
         -3   -1    0    0    0  501 -0.00000000000E+00  0.00000000000E+00  0.31288209806E+02  0.31288209806E+02  0.00000000000E+00 0.  1.
          3   -1    0    0  501    0  0.00000000000E+00 -0.00000000000E+00 -0.44720300648E+03  0.44720300648E+03  0.00000000000E+00 0. -1.
         25    2    1    2    0    0  0.15836206060E+02  0.55674114265E+01 -0.32425485583E+03  0.34791849182E+03  0.12499713569E+03 0.  0.
         23    2    1    2    0    0 -0.15836206060E+02 -0.55674114265E+01 -0.91659940842E+02  0.13057272446E+03  0.91465349320E+02 0.  0.
          5    1    3    3  502    0  0.46283850424E+02 -0.10167669791E+01 -0.38395951460E+02  0.60328829872E+02  0.47000000000E+01 0. -1.
         -5    1    4    4    0  503  0.41593374922E+01  0.38896797524E+02 -0.61543840539E+02  0.73075271154E+02  0.47000000000E+01 0.  1.
          5    1    4    4  503    0 -0.19995543552E+02 -0.44464208951E+02 -0.30116100303E+02  0.57497453309E+02  0.47000000000E+01 0. -1.
         -5    1    3    3    0  502 -0.30447644365E+02  0.65841784056E+01 -0.28585890437E+03  0.28758966195E+03  0.47000000000E+01 0. -1.
<mgrwt>
<rscale>  0 0.11686879E+03</rscale>
<asrwt>0</asrwt>
<pdfrwt beam="1">  1        3 0.68800465E-01 0.12611925E+03</pdfrwt>
<pdfrwt beam="2">  1       -3 0.48135706E-02 0.12611925E+03</pdfrwt>
<totfact> 0.11394862E+03</totfact>
</mgrwt>
</event>
<event>
 8    1  0.3407580E-004  0.1622230E+03  0.7546771E-02  0.1194379E+00
         -1   -1    0    0    0  501 -0.00000000000E+00  0.00000000000E+00  0.69816070190E+02  0.69816070190E+02  0.00000000000E+00 0.  1.
          1   -1    0    0  501    0  0.00000000000E+00 -0.00000000000E+00 -0.49446147016E+03  0.49446147016E+03  0.00000000000E+00 0. -1.
         25    2    1    2    0    0 -0.69917021533E+02  0.76221800236E+02 -0.56128917871E+02  0.17165885593E+03  0.12497261566E+03 0.  0.
         23    2    1    2    0    0  0.69917021533E+02 -0.76221800236E+02 -0.36851648210E+03  0.39261868443E+03  0.87446446753E+02 0.  0.
          5    1    3    3  502    0 -0.44179580294E+02 -0.23461949680E+02 -0.45968726305E+02  0.68099281904E+02  0.47000000000E+01 0.  1.
         -5    1    3    3    0  502 -0.25737441239E+02  0.99683749915E+02 -0.10160191566E+02  0.10355957402E+03  0.47000000000E+01 0.  1.
          5    1    4    4  503    0 -0.17003660871E+02 -0.34802388182E+02 -0.10970468292E+03  0.11643684194E+03  0.47000000000E+01 0. -1.
         -5    1    4    4    0  503  0.86920682405E+02 -0.41419412054E+02 -0.25881179918E+03  0.27618184249E+03  0.47000000000E+01 0.  1.
<mgrwt>
<rscale>  0 0.15506871E+03</rscale>
<asrwt>0</asrwt>
<pdfrwt beam="1">  1        1 0.76070999E-01 0.16222302E+03</pdfrwt>
<pdfrwt beam="2">  1       -1 0.10740933E-01 0.16222302E+03</pdfrwt>
<totfact> 0.24581237E+03</totfact>
</mgrwt>
</event>
<event>
 8    1  0.3407580E-004  0.1677972E+03  0.7546771E-02  0.1188209E+00
         -2   -1    0    0    0  501 -0.00000000000E+00  0.00000000000E+00  0.38931732765E+02  0.38931732765E+02  0.00000000000E+00 0.  1.
          2   -1    0    0  501    0  0.00000000000E+00 -0.00000000000E+00 -0.61565781781E+03  0.61565781781E+03  0.00000000000E+00 0. -1.
         25    2    1    2    0    0  0.42226769553E+02  0.10369368956E+03 -0.34715990388E+03  0.38558515027E+03  0.12498171037E+03 0.  0.
         23    2    1    2    0    0 -0.42226769553E+02 -0.10369368956E+03 -0.22956618116E+03  0.26900440030E+03  0.84423068692E+02 0.  0.
          5    1    4    4  502    0 -0.42604277776E+01 -0.61270851408E+02 -0.18941870406E+03  0.19918284044E+03  0.47000000000E+01 0. -1.
         -5    1    3    3    0  503 -0.44006561191E+02  0.42892518711E+02 -0.11319898809E+03  0.12888927998E+03  0.47000000000E+01 0. -1.
          5    1    3    3  503    0  0.86233330743E+02  0.60801170845E+02 -0.23396091579E+03  0.25669587029E+03  0.47000000000E+01 0. -1.
         -5    1    4    4    0  502 -0.37966341775E+02 -0.42422838147E+02 -0.40147477106E+02  0.69821559867E+02  0.47000000000E+01 0.  1.
<mgrwt>
<rscale>  0 0.16043314E+03</rscale>
<asrwt>0</asrwt>
<pdfrwt beam="1">  1        2 0.94716585E-01 0.16779723E+03</pdfrwt>
<pdfrwt beam="2">  1       -2 0.59894975E-02 0.16779723E+03</pdfrwt>
<totfact> 0.70651236E+03</totfact>
</mgrwt>
</event>
<event>
 8    1  0.3407580E-004  0.1280501E+03  0.7546771E-02  0.1244308E+00
         -1   -1    0    0    0  501 -0.00000000000E+00  0.00000000000E+00  0.60307202744E+03  0.60307202744E+03  0.00000000000E+00 0.  1.
          1   -1    0    0  501    0  0.00000000000E+00 -0.00000000000E+00 -0.22429081571E+02  0.22429081571E+02  0.00000000000E+00 0. -1.
         25    2    1    2    0    0  0.27698828845E+02 -0.16157464913E+01  0.24702565753E+03  0.27824178936E+03  0.12500792819E+03 0.  0.
         23    2    1    2    0    0 -0.27698828845E+02  0.16157464913E+01  0.33361728833E+03  0.34725931965E+03  0.92296826881E+02 0.  0.
          5    1    3    3  502    0  0.44644846459E+01 -0.33543296303E+02  0.69101355980E+01  0.34855764573E+02  0.47000000000E+01 0.  1.
         -5    1    3    3    0  502  0.23234344200E+02  0.31927549811E+02  0.24011552194E+03  0.24338602479E+03  0.47000000000E+01 0.  1.
          5    1    4    4  503    0 -0.41816573043E+01 -0.22010799912E+02  0.16158584268E+02  0.28020553458E+02  0.47000000000E+01 0. -1.
         -5    1    4    4    0  503 -0.23517171541E+02  0.23626546403E+02  0.31745870406E+03  0.31923876619E+03  0.47000000000E+01 0.  1.
<mgrwt>
<rscale>  0 0.11926919E+03</rscale>
<asrwt>0</asrwt>
<pdfrwt beam="1">  1        1 0.34506284E-02 0.12805006E+03</pdfrwt>
<pdfrwt beam="2">  1       -1 0.92780300E-01 0.12805006E+03</pdfrwt>
<totfact> 0.31916909E+03</totfact>
</mgrwt>
</event>
<event>
 8    1  0.3407580E-004  0.1518538E+03  0.7546771E-02  0.1207088E+00
          3   -1    0    0  501    0  0.00000000000E+00  0.00000000000E+00  0.23483581845E+03  0.23483581845E+03  0.00000000000E+00 0. -1.
         -3   -1    0    0    0  501 -0.00000000000E+00 -0.00000000000E+00 -0.81949996140E+02  0.81949996140E+02  0.00000000000E+00 0.  1.
         25    2    1    2    0    0 -0.30829243344E+02  0.80524684171E+02  0.76970740879E+02  0.17024708897E+03  0.12499963738E+03 0.  0.
         23    2    1    2    0    0  0.30829243344E+02 -0.80524684171E+02  0.75915081431E+02  0.14653872562E+03  0.90971597282E+02 0.  0.
          5    1    3    3  502    0 -0.62542126006E+02  0.16506126302E+01  0.52089530873E+02  0.81545393947E+02  0.47000000000E+01 0.  1.
         -5    1    4    4    0  503 -0.23188171901E+02 -0.26251777419E+02 -0.42316014933E+01  0.35592746240E+02  0.47000000000E+01 0.  1.
          5    1    4    4  503    0  0.54017415245E+02 -0.54272906752E+02  0.80146682924E+02  0.11094597938E+03  0.47000000000E+01 0. -1.
         -5    1    3    3    0  502  0.31712882663E+02  0.78874071541E+02  0.24881210006E+02  0.88701695021E+02  0.47000000000E+01 0.  1.
<mgrwt>
<rscale>  0 0.14474147E+03</rscale>
<asrwt>0</asrwt>
<pdfrwt beam="1">  1        3 0.36128587E-01 0.15185380E+03</pdfrwt>
<pdfrwt beam="2">  1       -3 0.12607692E-01 0.15185380E+03</pdfrwt>
<totfact> 0.88692894E+02</totfact>
</mgrwt>
</event>
<event>
 8    1  0.3407580E-004  0.1311021E+03  0.7546771E-02  0.1239991E+00
          2   -1    0    0  501    0  0.00000000000E+00  0.00000000000E+00  0.24706952634E+03  0.24706952634E+03  0.00000000000E+00 0. -1.
         -2   -1    0    0    0  501 -0.00000000000E+00 -0.00000000000E+00 -0.77586539323E+02  0.77586539323E+02  0.00000000000E+00 0.  1.
         25    2    1    2    0    0  0.22300692152E+02 -0.32637904827E+02  0.26022451952E+01  0.13112793085E+03  0.12500083547E+03 0.  0.
         23    2    1    2    0    0 -0.22300692152E+02  0.32637904827E+02  0.16688074183E+03  0.19352813481E+03  0.89673871724E+02 0.  0.
          5    1    4    4  502    0 -0.45192161147E+02  0.13724763702E+02  0.15340995370E+03  0.16058457106E+03  0.47000000000E+01 0. -1.
         -5    1    3    3    0  503  0.62678174557E+02 -0.27357304389E+02  0.36747350493E+02  0.77778103843E+02  0.47000000000E+01 0.  1.
          5    1    3    3  503    0 -0.40377482405E+02 -0.52806004385E+01 -0.34145105298E+02  0.53349827012E+02  0.47000000000E+01 0.  1.
         -5    1    4    4    0  502  0.22891468995E+02  0.18913141125E+02  0.13470788121E+02  0.32943563750E+02  0.47000000000E+01 0.  1.
<mgrwt>
<rscale>  0 0.12190276E+03</rscale>
<asrwt>0</asrwt>
<pdfrwt beam="1">  1        2 0.38010696E-01 0.13110211E+03</pdfrwt>
<pdfrwt beam="2">  1       -2 0.11936391E-01 0.13110211E+03</pdfrwt>
<totfact> 0.64042961E+03</totfact>
</mgrwt>
</event>
<event>
 8    1  0.3407580E-004  0.1424371E+03  0.7546771E-02  0.1220367E+00
          1   -1    0    0  501    0  0.00000000000E+00  0.00000000000E+00  0.26887499943E+03  0.26887499943E+03  0.00000000000E+00 0. -1.
         -1   -1    0    0    0  501 -0.00000000000E+00 -0.00000000000E+00 -0.71049403071E+02  0.71049403071E+02  0.00000000000E+00 0.  1.
         25    2    1    2    0    0 -0.29678567217E+02 -0.61533539344E+02  0.45935954979E+02  0.14966109703E+03  0.12498455180E+03 0.  0.
         23    2    1    2    0    0  0.29678567217E+02  0.61533539344E+02  0.15188964138E+03  0.19026330547E+03  0.91991675888E+02 0.  0.
          5    1    4    4  502    0  0.36392204339E+01  0.49373950547E+02  0.17445599758E+02  0.52701706508E+02  0.47000000000E+01 0. -1.
         -5    1    4    4    0  502  0.26039346784E+02  0.12159588797E+02  0.13444404162E+03  0.13756159896E+03  0.47000000000E+01 0.  1.
          5    1    3    3  503    0  0.18426669821E+02  0.31658900788E+02  0.17672933180E+02  0.40942041070E+02  0.47000000000E+01 0. -1.
         -5    1    3    3    0  503 -0.48105237039E+02 -0.93192440131E+02  0.28263021799E+02  0.10871905596E+03  0.47000000000E+01 0. -1.
<mgrwt>
<rscale>  0 0.13489600E+03</rscale>
<asrwt>0</asrwt>
<pdfrwt beam="1">  1        1 0.41365384E-01 0.14243712E+03</pdfrwt>
<pdfrwt beam="2">  1       -1 0.10930678E-01 0.14243712E+03</pdfrwt>
<totfact> 0.51293780E+03</totfact>
</mgrwt>
</event>
<event>
 8    1  0.3407580E-004  0.1602624E+03  0.7546771E-02  0.1195674E+00
         -1   -1    0    0    0  501 -0.00000000000E+00  0.00000000000E+00  0.92087417466E+02  0.92087417466E+02  0.00000000000E+00 0.  1.
          1   -1    0    0  501    0  0.00000000000E+00 -0.00000000000E+00 -0.30364377386E+03  0.30364377386E+03  0.00000000000E+00 0. -1.
         25    2    1    2    0    0 -0.73298677131E+02  0.68454868547E+02 -0.21484313720E+02  0.16169602108E+03  0.12500104959E+03 0.  0.
         23    2    1    2    0    0  0.73298677131E+02 -0.68454868547E+02 -0.19007204268E+03  0.23403517025E+03  0.92662367820E+02 0.  0.
          5    1    3    3  502    0 -0.64749110752E+02  0.34295205626E+02 -0.70080872118E+02  0.10149890201E+03  0.47000000000E+01 0.  1.
         -5    1    4    4    0  503  0.46582471177E+02 -0.38727989495E+02 -0.27747932179E+02  0.66796867677E+02  0.47000000000E+01 0.  1.
          5    1    4    4  503    0  0.26716205954E+02 -0.29726879052E+02 -0.16232411050E+03  0.16723830257E+03  0.47000000000E+01 0. -1.
         -5    1    3    3    0  502 -0.85495663789E+01  0.34159662921E+02  0.48596558399E+02  0.60197119070E+02  0.47000000000E+01 0.  1.
<mgrwt>
<rscale>  0 0.15397287E+03</rscale>
<asrwt>0</asrwt>
<pdfrwt beam="1">  1        1 0.46714427E-01 0.16026237E+03</pdfrwt>
<pdfrwt beam="2">  1       -1 0.14167295E-01 0.16026237E+03</pdfrwt>
<totfact> 0.29674621E+03</totfact>
</mgrwt>
</event>
<event>
 8    1  0.3407580E-004  0.1331566E+03  0.7546771E-02  0.1235432E+00
         -2   -1    0    0    0  501 -0.00000000000E+00  0.00000000000E+00  0.15078465285E+02  0.15078465285E+02  0.00000000000E+00 0.  1.
          2   -1    0    0  501    0  0.00000000000E+00 -0.00000000000E+00 -0.10558476279E+04  0.10558476279E+04  0.00000000000E+00 0. -1.
         25    2    1    2    0    0 -0.16280599118E+02  0.42912971009E+02 -0.76852773004E+03  0.77997792483E+03  0.12499644153E+03 0.  0.
         23    2    1    2    0    0  0.16280599118E+02 -0.42912971009E+02 -0.27224143258E+03  0.29094816836E+03  0.91808812593E+02 0.  0.
          5    1    3    3  502    0  0.45118349602E+02 -0.15744893050E+02 -0.29158044373E+03  0.29550771952E+03  0.47000000000E+01 0. -1.
         -5    1    4    4    0  503  0.28202481365E+02 -0.64817804693E+01 -0.19354724986E+02  0.35129600232E+02  0.47000000000E+01 0.  1.
          5    1    4    4  503    0 -0.11921882247E+02 -0.36431190540E+02 -0.25288670760E+03  0.25581856813E+03  0.47000000000E+01 0. -1.
         -5    1    3    3    0  502 -0.61398948720E+02  0.58657864060E+02 -0.47694728631E+03  0.48447020531E+03  0.47000000000E+01 0. -1.
<mgrwt>
<rscale>  0 0.12476814E+03</rscale>
<asrwt>0</asrwt>
<pdfrwt beam="1">  1        2 0.16243809E+00 0.13315664E+03</pdfrwt>
<pdfrwt beam="2">  1       -2 0.23197640E-02 0.13315664E+03</pdfrwt>
<totfact> 0.14450781E+04</totfact>
</mgrwt>
</event>
<event>
 8    1  0.3407580E-004  0.2117034E+03  0.7546771E-02  0.1143253E+00
          1   -1    0    0  501    0  0.00000000000E+00  0.00000000000E+00  0.41642613541E+03  0.41642613541E+03  0.00000000000E+00 0. -1.
         -1   -1    0    0    0  501 -0.00000000000E+00 -0.00000000000E+00 -0.10032301076E+03  0.10032301076E+03  0.00000000000E+00 0.  1.
         25    2    1    2    0    0 -0.16474643857E+03 -0.45293149138E+02  0.15474595807E+03  0.26223016530E+03  0.12500195867E+03 0.  0.
         23    2    1    2    0    0  0.16474643857E+03  0.45293149138E+02  0.16135716658E+03  0.25451898088E+03  0.97728798416E+02 0.  0.
          5    1    3    3  502    0 -0.14043762722E+03 -0.21194274226E+02  0.47939104815E+02  0.14997390496E+03  0.47000000000E+01 0.  1.
         -5    1    4    4    0  503  0.56102102991E+02 -0.12030686496E+02  0.82333014592E+01  0.58155486676E+02  0.47000000000E+01 0.  1.
          5    1    4    4  503    0  0.10864433558E+03  0.57323835634E+02  0.15312386512E+03  0.19636349420E+03  0.47000000000E+01 0. -1.
         -5    1    3    3    0  502 -0.24308811344E+02 -0.24098874912E+02  0.10680685326E+03  0.11225626033E+03  0.47000000000E+01 0.  1.
<mgrwt>
<rscale>  0 0.20788406E+03</rscale>
<asrwt>0</asrwt>
<pdfrwt beam="1">  1        1 0.64065558E-01 0.21170344E+03</pdfrwt>
<pdfrwt beam="2">  1       -1 0.15434310E-01 0.21170344E+03</pdfrwt>
<totfact> 0.17547503E+03</totfact>
</mgrwt>
</event>
<event>
 8    1  0.3407580E-004  0.1292585E+03  0.7546771E-02  0.1242509E+00
          1   -1    0    0  501    0  0.00000000000E+00  0.00000000000E+00  0.38564299742E+03  0.38564299742E+03  0.00000000000E+00 0. -1.
         -1   -1    0    0    0  501 -0.00000000000E+00 -0.00000000000E+00 -0.37681619137E+02  0.37681619137E+02  0.00000000000E+00 0.  1.
         25    2    1    2    0    0  0.12721026281E+02  0.30370123832E+02  0.12366914611E+03  0.17889051665E+03  0.12499436114E+03 0.  0.
         23    2    1    2    0    0 -0.12721026281E+02 -0.30370123832E+02  0.22429223217E+03  0.24443409991E+03  0.91415834808E+02 0.  0.
          5    1    3    3  502    0  0.68461150203E+02  0.23208740711E+02  0.76662200628E+02  0.10547396711E+03  0.47000000000E+01 0. -1.
         -5    1    3    3    0  502 -0.55740123922E+02  0.71613831210E+01  0.47006945486E+02  0.73416549544E+02  0.47000000000E+01 0. -1.
          5    1    4    4  503    0  0.22941773902E+02  0.13982820327E+02  0.13991505011E+03  0.14254878288E+03  0.47000000000E+01 0. -1.
         -5    1    4    4    0  503 -0.35662800183E+02 -0.44352944159E+02  0.84377182061E+02  0.10188531702E+03  0.47000000000E+01 0.  1.
<mgrwt>
<rscale>  0 0.12035710E+03</rscale>
<asrwt>0</asrwt>
<pdfrwt beam="1">  1        1 0.59329689E-01 0.12925850E+03</pdfrwt>
<pdfrwt beam="2">  1       -1 0.57971724E-02 0.12925850E+03</pdfrwt>
<totfact> 0.84792068E+03</totfact>
</mgrwt>
</event>
<event>
 8    1  0.3407580E-004  0.1726939E+03  0.7546771E-02  0.1181419E+00
         -1   -1    0    0    0  501 -0.00000000000E+00  0.00000000000E+00  0.68898022884E+03  0.68898022884E+03  0.00000000000E+00 0.  1.
          1   -1    0    0  501    0  0.00000000000E+00 -0.00000000000E+00 -0.50320263498E+02  0.50320263498E+02  0.00000000000E+00 0. -1.
         25    2    1    2    0    0 -0.10025775018E+02  0.11872975386E+03  0.15169059417E+03  0.22985479066E+03  0.12500367119E+03 0.  0.
         23    2    1    2    0    0  0.10025775018E+02 -0.11872975386E+03  0.48696937117E+03  0.50944570168E+03  0.90545479670E+02 0.  0.
          5    1    3    3  502    0  0.25504095572E+02  0.10790324121E+02 -0.11988657106E+02  0.30540266612E+02  0.47000000000E+01 0. -1.
         -5    1    4    4    0  503  0.45065803285E+02 -0.85032480911E+02  0.37701357590E+03  0.38913079529E+03  0.47000000000E+01 0.  1.
          5    1    4    4  503    0 -0.35040028267E+02 -0.33697272945E+02  0.10995579527E+03  0.12031490639E+03  0.47000000000E+01 0. -1.
         -5    1    3    3    0  502 -0.35529870590E+02  0.10793942974E+03  0.16367925128E+03  0.19931452404E+03  0.47000000000E+01 0. -1.
<mgrwt>
<rscale>  0 0.16662052E+03</rscale>
<asrwt>0</asrwt>
<pdfrwt beam="1">  1        1 0.77415795E-02 0.17269392E+03</pdfrwt>
<pdfrwt beam="2">  1       -1 0.10599695E+00 0.17269392E+03</pdfrwt>
<totfact> 0.79800662E+02</totfact>
</mgrwt>
</event>
<event>
 8    1  0.3407580E-004  0.1708035E+03  0.7546771E-02  0.1183153E+00
         -2   -1    0    0    0  501 -0.00000000000E+00  0.00000000000E+00  0.34222647402E+02  0.34222647402E+02  0.00000000000E+00 0.  1.
          2   -1    0    0  501    0  0.00000000000E+00 -0.00000000000E+00 -0.91472012442E+03  0.91472012442E+03  0.00000000000E+00 0. -1.
         25    2    1    2    0    0 -0.51685976438E+02 -0.10429183925E+03 -0.66830279366E+03  0.68978435847E+03  0.12500243709E+03 0.  0.
         23    2    1    2    0    0  0.51685976438E+02  0.10429183925E+03 -0.21219468335E+03  0.25915841335E+03  0.92672928475E+02 0.  0.
          5    1    4    4  502    0 -0.26818637498E+02  0.29269666288E+02 -0.52551329063E+02  0.66027909767E+02  0.47000000000E+01 0. -1.
         -5    1    3    3    0  503  0.27899295949E+02 -0.33599017114E+02 -0.74396714132E+02  0.86395750701E+02  0.47000000000E+01 0. -1.
          5    1    3    3  503    0 -0.79585272387E+02 -0.70692822136E+02 -0.59390607953E+03  0.60338860777E+03  0.47000000000E+01 0. -1.
         -5    1    4    4    0  502  0.78504613936E+02  0.75022172961E+02 -0.15964335429E+03  0.19313050358E+03  0.47000000000E+01 0.  1.
<mgrwt>
<rscale>  0 0.16501036E+03</rscale>
<asrwt>0</asrwt>
<pdfrwt beam="1">  1        2 0.14072616E+00 0.17080350E+03</pdfrwt>
<pdfrwt beam="2">  1       -2 0.52650233E-02 0.17080350E+03</pdfrwt>
<totfact> 0.52816343E+03</totfact>
</mgrwt>
</event>
<event>
 8    1  0.3407580E-004  0.1343218E+03  0.7546771E-02  0.1234363E+00
         -1   -1    0    0    0  501 -0.00000000000E+00  0.00000000000E+00  0.48061573718E+02  0.48061573718E+02  0.00000000000E+00 0.  1.
          1   -1    0    0  501    0  0.00000000000E+00 -0.00000000000E+00 -0.45968067712E+03  0.45968067712E+03  0.00000000000E+00 0. -1.
         25    2    1    2    0    0  0.49167111543E+02  0.17615026022E+00 -0.37637972804E+03  0.39962986928E+03  0.12499958742E+03 0.  0.
         23    2    1    2    0    0 -0.49167111543E+02 -0.17615026022E+00 -0.35239375357E+02  0.10811238155E+03  0.89604897093E+02 0.  0.
          5    1    3    3  502    0 -0.59118170343E+01 -0.51298120779E+02 -0.94333853374E+02  0.10764484506E+03  0.47000000000E+01 0.  1.
         -5    1    4    4    0  503 -0.81231371816E+01 -0.37397192211E+02  0.58145039503E+01  0.38992740339E+02  0.47000000000E+01 0.  1.
          5    1    4    4  503    0 -0.41043974361E+02  0.37221041951E+02 -0.41053879307E+02  0.69119641214E+02  0.47000000000E+01 0. -1.
         -5    1    3    3    0  502  0.55078928577E+02  0.51474271039E+02 -0.28204587467E+03  0.29198502422E+03  0.47000000000E+01 0.  1.
<mgrwt>
<rscale>  0 0.12545298E+03</rscale>
<asrwt>0</asrwt>
<pdfrwt beam="1">  1        1 0.70720103E-01 0.13432175E+03</pdfrwt>
<pdfrwt beam="2">  1       -1 0.73940884E-02 0.13432175E+03</pdfrwt>
<totfact> 0.47296316E+03</totfact>
</mgrwt>
</event>
<event>
 8    1  0.3407580E-004  0.1406574E+03  0.7546771E-02  0.1223487E+00
          2   -1    0    0  501    0  0.00000000000E+00  0.00000000000E+00  0.12576243487E+04  0.12576243487E+04  0.00000000000E+00 0. -1.
         -2   -1    0    0    0  501 -0.00000000000E+00 -0.00000000000E+00 -0.14037451967E+02  0.14037451967E+02  0.00000000000E+00 0.  1.
         25    2    1    2    0    0  0.55891461351E+02 -0.32207304699E+02  0.88626687996E+03  0.89735916799E+03  0.12499331154E+03 0.  0.
         23    2    1    2    0    0 -0.55891461351E+02  0.32207304699E+02  0.35732001672E+03  0.37430263263E+03  0.90904898192E+02 0.  0.
          5    1    3    3  502    0  0.13811812254E+02 -0.69675384019E+02  0.67194031719E+03  0.67570060319E+03  0.47000000000E+01 0. -1.
         -5    1    3    3    0  502  0.42079649096E+02  0.37468079321E+02  0.21432656278E+03  0.22165856480E+03  0.47000000000E+01 0. -1.
          5    1    4    4  503    0 -0.67011970188E+02  0.84494489597E+00  0.30354365474E+03  0.31088930251E+03  0.47000000000E+01 0. -1.
         -5    1    4    4    0  503  0.11120508837E+02  0.31362359803E+02  0.53776361980E+02  0.63413330121E+02  0.47000000000E+01 0.  1.
<mgrwt>
<rscale>  0 0.13271143E+03</rscale>
<asrwt>0</asrwt>
<pdfrwt beam="1">  1        2 0.19348058E+00 0.14065736E+03</pdfrwt>
<pdfrwt beam="2">  1       -2 0.21596090E-02 0.14065736E+03</pdfrwt>
<totfact> 0.12391295E+04</totfact>
</mgrwt>
</event>
<event>
 8    1  0.3407580E-004  0.1886995E+03  0.7546771E-02  0.1164525E+00
         -2   -1    0    0    0  501 -0.00000000000E+00  0.00000000000E+00  0.14840996036E+03  0.14840996036E+03  0.00000000000E+00 0.  1.
          2   -1    0    0  501    0  0.00000000000E+00 -0.00000000000E+00 -0.21493348420E+03  0.21493348420E+03  0.00000000000E+00 0. -1.
         25    2    1    2    0    0  0.13980650551E+03  0.20841516082E+02 -0.33414983227E+02  0.19163518532E+03  0.12500902118E+03 0.  0.
         23    2    1    2    0    0 -0.13980650551E+03 -0.20841516082E+02 -0.33108540620E+02  0.17170825923E+03  0.91691455724E+02 0.  0.
          5    1    3    3  502    0  0.13272988599E+03 -0.30405743298E+02 -0.30411211687E+02  0.13960180391E+03  0.47000000000E+01 0.  1.
         -5    1    4    4    0  503 -0.73271426927E+01  0.23014106358E+02  0.84666162576E+01  0.26021331679E+02  0.47000000000E+01 0.  1.
          5    1    4    4  503    0 -0.13247936281E+03 -0.43855622440E+02 -0.41575156877E+02  0.14568692756E+03  0.47000000000E+01 0. -1.
         -5    1    3    3    0  502  0.70766195211E+01  0.51247259380E+02 -0.30037715397E+01  0.52033381413E+02  0.47000000000E+01 0.  1.
<mgrwt>
<rscale>  0 0.18342941E+03</rscale>
<asrwt>0</asrwt>
<pdfrwt beam="1">  1        2 0.33066690E-01 0.18869945E+03</pdfrwt>
<pdfrwt beam="2">  1       -2 0.22832302E-01 0.18869945E+03</pdfrwt>
<totfact> 0.25835029E+03</totfact>
</mgrwt>
</event>
<event>
 8    1  0.3407580E-004  0.1517004E+03  0.7546771E-02  0.1206502E+00
          1   -1    0    0  501    0  0.00000000000E+00  0.00000000000E+00  0.20910830564E+03  0.20910830564E+03  0.00000000000E+00 0. -1.
         -1   -1    0    0    0  501 -0.00000000000E+00 -0.00000000000E+00 -0.11063072878E+03  0.11063072878E+03  0.00000000000E+00 0.  1.
         25    2    1    2    0    0  0.69884554417E+02 -0.50058630096E+02 -0.10626340238E+02  0.15207216775E+03  0.12499323064E+03 0.  0.
         23    2    1    2    0    0 -0.69884554417E+02  0.50058630096E+02  0.10910391710E+03  0.16766686668E+03  0.93908445103E+02 0.  0.
          5    1    4    4  502    0  0.21107765499E+02  0.24345449929E+02  0.25400393294E+02  0.41297804737E+02  0.47000000000E+01 0. -1.
         -5    1    3    3    0  503  0.82118992523E+02 -0.20431900859E+02  0.38610387414E+02  0.93133471544E+02  0.47000000000E+01 0. -1.
          5    1    3    3  503    0 -0.12234438106E+02 -0.29626729237E+02 -0.49236727652E+02  0.58938696210E+02  0.47000000000E+01 0. -1.
         -5    1    4    4    0  502 -0.90992319916E+02  0.25713180167E+02  0.83703523803E+02  0.12636906194E+03  0.47000000000E+01 0.  1.
<mgrwt>
<rscale>  0 0.14519713E+03</rscale>
<asrwt>0</asrwt>
<pdfrwt beam="1">  1        1 0.32170508E-01 0.15170045E+03</pdfrwt>
<pdfrwt beam="2">  1       -1 0.17020112E-01 0.15170045E+03</pdfrwt>
<totfact> 0.35233508E+03</totfact>
</mgrwt>
</event>
<event>
 8    1  0.3407580E-004  0.1719165E+03  0.7546771E-02  0.1182272E+00
         -2   -1    0    0    0  501 -0.00000000000E+00  0.00000000000E+00  0.36427185805E+02  0.36427185805E+02  0.00000000000E+00 0.  1.
          2   -1    0    0  501    0  0.00000000000E+00 -0.00000000000E+00 -0.70620311800E+03  0.70620311800E+03  0.00000000000E+00 0. -1.
         25    2    1    2    0    0 -0.72363626657E+02 -0.93253695934E+02 -0.35268459611E+03  0.39235404149E+03  0.12499009268E+03 0.  0.
         23    2    1    2    0    0  0.72363626657E+02  0.93253695934E+02 -0.31709133608E+03  0.35027626232E+03  0.90630007480E+02 0.  0.
          5    1    3    3  502    0 -0.66900206144E+02 -0.49947717472E+01 -0.23882292970E+03  0.24811099749E+03  0.47000000000E+01 0.  1.
         -5    1    4    4    0  503  0.66123960887E+02  0.17518174106E+02 -0.10986286104E+03  0.12950367896E+03  0.47000000000E+01 0.  1.
          5    1    4    4  503    0  0.62396657705E+01  0.75735521828E+02 -0.20722847504E+03  0.22077258335E+03  0.47000000000E+01 0. -1.
         -5    1    3    3    0  502 -0.54634205132E+01 -0.88258924187E+02 -0.11386166641E+03  0.14424304399E+03  0.47000000000E+01 0.  1.
<mgrwt>
<rscale>  0 0.16582551E+03</rscale>
<asrwt>0</asrwt>
<pdfrwt beam="1">  1        2 0.10864664E+00 0.17191646E+03</pdfrwt>
<pdfrwt beam="2">  1       -2 0.56041823E-02 0.17191646E+03</pdfrwt>
<totfact> 0.66591433E+03</totfact>
</mgrwt>
</event>
<event>
 8    1  0.3407580E-004  0.1308746E+03  0.7546771E-02  0.1240128E+00
         -1   -1    0    0    0  501 -0.00000000000E+00  0.00000000000E+00  0.34683250299E+02  0.34683250299E+02  0.00000000000E+00 0.  1.
          1   -1    0    0  501    0  0.00000000000E+00 -0.00000000000E+00 -0.39637633996E+03  0.39637633996E+03  0.00000000000E+00 0. -1.
         25    2    1    2    0    0 -0.37425900086E+02 -0.10181395916E+02 -0.15994411888E+03  0.20666467245E+03  0.12499522733E+03 0.  0.
         23    2    1    2    0    0  0.37425900086E+02  0.10181395916E+02 -0.20174897079E+03  0.22439491781E+03  0.90255598750E+02 0.  0.
          5    1    4    4  502    0  0.58259596734E+02  0.20619409613E+02 -0.18555251675E+03  0.19563017951E+03  0.47000000000E+01 0. -1.
         -5    1    3    3    0  503 -0.14313528594E+02  0.55829425445E+02 -0.50921189120E+02  0.77051017824E+02  0.47000000000E+01 0. -1.
          5    1    3    3  503    0 -0.23112371493E+02 -0.66010821362E+02 -0.10902292976E+03  0.12961365463E+03  0.47000000000E+01 0. -1.
         -5    1    4    4    0  502 -0.20833696648E+02 -0.10438013696E+02 -0.16196454037E+02  0.28764738297E+02  0.47000000000E+01 0.  1.
<mgrwt>
<rscale>  0 0.12181757E+03</rscale>
<asrwt>0</asrwt>
<pdfrwt beam="1">  1        1 0.60980977E-01 0.13087462E+03</pdfrwt>
<pdfrwt beam="2">  1       -1 0.53358845E-02 0.13087462E+03</pdfrwt>
<totfact> 0.92723823E+03</totfact>
</mgrwt>
</event>
<event>
 8    1  0.3407580E-004  0.1383169E+03  0.7546771E-02  0.1226775E+00
          2   -1    0    0  501    0  0.00000000000E+00  0.00000000000E+00  0.57164269081E+02  0.57164269081E+02  0.00000000000E+00 0. -1.
         -2   -1    0    0    0  501 -0.00000000000E+00 -0.00000000000E+00 -0.29863598339E+03  0.29863598339E+03  0.00000000000E+00 0.  1.
         25    2    1    2    0    0 -0.36107383568E+02 -0.46926956722E+02 -0.18953423774E+03  0.23463759484E+03  0.12500276484E+03 0.  0.
         23    2    1    2    0    0  0.36107383568E+02  0.46926956722E+02 -0.51937476562E+02  0.12116265763E+03  0.92070656116E+02 0.  0.
          5    1    4    4  502    0  0.45458772212E+02 -0.10605167514E+02 -0.39611420487E+02  0.61401336973E+02  0.47000000000E+01 0. -1.
         -5    1    3    3    0  503  0.17698877133E+02  0.34035540703E+02 -0.74717946692E+02  0.84122112673E+02  0.47000000000E+01 0. -1.
          5    1    3    3  503    0 -0.53806260701E+02 -0.80962497425E+02 -0.11481629105E+03  0.15051548216E+03  0.47000000000E+01 0. -1.
         -5    1    4    4    0  502 -0.93513886439E+01  0.57532124236E+02 -0.12326056075E+02  0.59761320660E+02  0.47000000000E+01 0.  1.
<mgrwt>
<rscale>  0 0.13045980E+03</rscale>
<asrwt>0</asrwt>
<pdfrwt beam="1">  1        2 0.87945030E-02 0.13831693E+03</pdfrwt>
<pdfrwt beam="2">  1       -2 0.45943997E-01 0.13831693E+03</pdfrwt>
<totfact> 0.32846545E+03</totfact>
</mgrwt>
</event>
<event>
 8    1  0.3407580E-004  0.2408655E+03  0.7546771E-02  0.1122008E+00
          1   -1    0    0  501    0  0.00000000000E+00  0.00000000000E+00  0.42895769216E+03  0.42895769216E+03  0.00000000000E+00 0. -1.
         -1   -1    0    0    0  501 -0.00000000000E+00 -0.00000000000E+00 -0.14041543182E+03  0.14041543182E+03  0.00000000000E+00 0.  1.
         25    2    1    2    0    0  0.17514215479E+03  0.10824061140E+03  0.58566644602E+02  0.24788352029E+03  0.12500153370E+03 0.  0.
         23    2    1    2    0    0 -0.17514215479E+03 -0.10824061140E+03  0.22997561574E+03  0.32148960370E+03  0.89866440383E+02 0.  0.
          5    1    4    4  502    0 -0.94403668475E+02 -0.48464625937E+02  0.18043981765E+03  0.20938359626E+03  0.47000000000E+01 0. -1.
         -5    1    3    3    0  503  0.53760945474E+02  0.90334927240E+02 -0.12578301773E+02  0.10597613889E+03  0.47000000000E+01 0. -1.
          5    1    3    3  503    0  0.12138120932E+03  0.17905684158E+02  0.71144946376E+02  0.14190738140E+03  0.47000000000E+01 0. -1.
         -5    1    4    4    0  502 -0.80738486318E+02 -0.59775985461E+02  0.49535798091E+02  0.11210600744E+03  0.47000000000E+01 0.  1.
<mgrwt>
<rscale>  0 0.23670457E+03</rscale>
<asrwt>0</asrwt>
<pdfrwt beam="1">  1        1 0.65993491E-01 0.24086550E+03</pdfrwt>
<pdfrwt beam="2">  1       -1 0.21602374E-01 0.24086550E+03</pdfrwt>
<totfact> 0.98363911E+02</totfact>
</mgrwt>
</event>
<event>
 8    1  0.3407580E-004  0.1509095E+03  0.7546771E-02  0.1207618E+00
          1   -1    0    0  501    0  0.00000000000E+00  0.00000000000E+00  0.65552904733E+03  0.65552904733E+03  0.00000000000E+00 0. -1.
         -1   -1    0    0    0  501 -0.00000000000E+00 -0.00000000000E+00 -0.35728495836E+02  0.35728495836E+02  0.00000000000E+00 0.  1.
         25    2    1    2    0    0 -0.12784892594E+02 -0.83574432787E+02  0.47863887456E+03  0.50186536971E+03  0.12500215112E+03 0.  0.
         23    2    1    2    0    0  0.12784892594E+02  0.83574432787E+02  0.14116167694E+03  0.18939217346E+03  0.93779726146E+02 0.  0.
          5    1    4    4  502    0  0.42244281511E+02  0.66000739632E+02  0.13199552887E+03  0.15357599615E+03  0.47000000000E+01 0. -1.
         -5    1    3    3    0  503 -0.28346432032E+02 -0.11259343114E+03  0.34064201898E+03  0.35991648481E+03  0.47000000000E+01 0.  1.
          5    1    3    3  503    0  0.15561539439E+02  0.29018998351E+02  0.13799685558E+03  0.14194888490E+03  0.47000000000E+01 0.  1.
         -5    1    4    4    0  502 -0.29459388917E+02  0.17573693155E+02  0.91661480728E+01  0.35816177308E+02  0.47000000000E+01 0.  1.
<mgrwt>
<rscale>  0 0.14433044E+03</rscale>
<asrwt>0</asrwt>
<pdfrwt beam="1">  1        1 0.10085061E+00 0.15090950E+03</pdfrwt>
<pdfrwt beam="2">  1       -1 0.54966922E-02 0.15090950E+03</pdfrwt>
<totfact> 0.46110404E+03</totfact>
</mgrwt>
</event>
<event>
 8    1  0.3407580E-004  0.1907213E+03  0.7546771E-02  0.1162493E+00
         -3   -1    0    0    0  501 -0.00000000000E+00  0.00000000000E+00  0.14195557936E+03  0.14195557936E+03  0.00000000000E+00 0.  1.
          3   -1    0    0  501    0  0.00000000000E+00 -0.00000000000E+00 -0.26707174863E+03  0.26707174863E+03  0.00000000000E+00 0. -1.
         25    2    1    2    0    0 -0.13749902931E+03 -0.42931400771E+02 -0.14110549234E+03  0.23724540336E+03  0.12500213284E+03 0.  0.
         23    2    1    2    0    0  0.13749902931E+03  0.42931400771E+02  0.15989323074E+02  0.17178192463E+03  0.92218669173E+02 0.  0.
          5    1    4    4  502    0  0.93887567505E+02  0.20838865672E+02  0.53344554374E+02  0.11007663301E+03  0.47000000000E+01 0. -1.
         -5    1    3    3    0  503 -0.21364826798E+02  0.11388044188E+02 -0.99289843665E+02  0.10230692269E+03  0.47000000000E+01 0.  1.
          5    1    3    3  503    0 -0.11613420251E+03 -0.54319444959E+02 -0.41815648679E+02  0.13493848068E+03  0.47000000000E+01 0.  1.
         -5    1    4    4    0  502  0.43611461801E+02  0.22092535100E+02 -0.37355231300E+02  0.61705291612E+02  0.47000000000E+01 0.  1.
<mgrwt>
<rscale>  0 0.18559720E+03</rscale>
<asrwt>0</asrwt>
<pdfrwt beam="1">  1        3 0.41087961E-01 0.19072132E+03</pdfrwt>
<pdfrwt beam="2">  1       -3 0.21839320E-01 0.19072132E+03</pdfrwt>
<totfact> 0.27472308E+02</totfact>
</mgrwt>
</event>
<event>
 8    1  0.3407580E-004  0.1382953E+03  0.7546771E-02  0.1226540E+00
          2   -1    0    0  501    0  0.00000000000E+00  0.00000000000E+00  0.36931419636E+03  0.36931419636E+03  0.00000000000E+00 0. -1.
         -2   -1    0    0    0  501 -0.00000000000E+00 -0.00000000000E+00 -0.98425164780E+02  0.98425164780E+02  0.00000000000E+00 0.  1.
         25    2    1    2    0    0 -0.31870496669E+02  0.49857541628E+02  0.31895573475E+03  0.34764688055E+03  0.12499635920E+03 0.  0.
         23    2    1    2    0    0  0.31870496669E+02 -0.49857541628E+02 -0.48066703171E+02  0.12009248059E+03  0.92791664092E+02 0.  0.
          5    1    4    4  502    0 -0.53042882054E+00 -0.28305378486E+02  0.24423284761E+02  0.37683718560E+02  0.47000000000E+01 0. -1.
         -5    1    3    3    0  503 -0.61208001616E+02  0.75193969841E+02  0.25322330131E+03  0.27119122938E+03  0.47000000000E+01 0.  1.
          5    1    3    3  503    0  0.29337504947E+02 -0.25336428213E+02  0.65732433434E+02  0.76455651173E+02  0.47000000000E+01 0.  1.
         -5    1    4    4    0  502  0.32400925489E+02 -0.21552163142E+02 -0.72489987932E+02  0.82408762029E+02  0.47000000000E+01 0.  1.
<mgrwt>
<rscale>  0 0.13061909E+03</rscale>
<asrwt>0</asrwt>
<pdfrwt beam="1">  1        2 0.56817568E-01 0.13829531E+03</pdfrwt>
<pdfrwt beam="2">  1       -2 0.15142333E-01 0.13829531E+03</pdfrwt>
<totfact> 0.28550492E+03</totfact>
</mgrwt>
</event>
<event>
 8    1  0.3407580E-004  0.1327154E+03  0.7546771E-02  0.1237888E+00
         -1   -1    0    0    0  501 -0.00000000000E+00  0.00000000000E+00  0.50367441781E+02  0.50367441781E+02  0.00000000000E+00 0.  1.
          1   -1    0    0  501    0  0.00000000000E+00 -0.00000000000E+00 -0.38410050006E+03  0.38410050006E+03  0.00000000000E+00 0. -1.
         25    2    1    2    0    0 -0.39036230535E+02  0.21549239035E+02 -0.64123543593E+02  0.14739474897E+03  0.12500074474E+03 0.  0.
         23    2    1    2    0    0  0.39036230535E+02 -0.21549239035E+02 -0.26960951469E+03  0.28707319287E+03  0.87940494979E+02 0.  0.
          5    1    4    4  502    0  0.25176632299E+02  0.21116201642E+02 -0.20846824957E+03  0.21109442879E+03  0.47000000000E+01 0. -1.
         -5    1    3    3    0  503 -0.76443608753E+02  0.43004624556E+02 -0.32267178180E+02  0.93575017179E+02  0.47000000000E+01 0.  1.
          5    1    3    3  503    0  0.37407378218E+02 -0.21455385521E+02 -0.31856365413E+02  0.53819731794E+02  0.47000000000E+01 0.  1.
         -5    1    4    4    0  502  0.13859598236E+02 -0.42665440677E+02 -0.61141265112E+02  0.75978764078E+02  0.47000000000E+01 0.  1.
<mgrwt>
<rscale>  0 0.12321369E+03</rscale>
<asrwt>0</asrwt>
<pdfrwt beam="1">  1        1 0.59092383E-01 0.13271542E+03</pdfrwt>
<pdfrwt beam="2">  1       -1 0.77488374E-02 0.13271542E+03</pdfrwt>
<totfact> 0.55317199E+03</totfact>
</mgrwt>
</event>
<event>
 8    1  0.3407580E-004  0.1456689E+03  0.7546771E-02  0.1214903E+00
         -2   -1    0    0    0  501 -0.00000000000E+00  0.00000000000E+00  0.38549878008E+02  0.38549878008E+02  0.00000000000E+00 0.  1.
          2   -1    0    0  501    0  0.00000000000E+00 -0.00000000000E+00 -0.45885134682E+03  0.45885134682E+03  0.00000000000E+00 0. -1.
         25    2    1    2    0    0 -0.74786715275E+02 -0.12204740285E+01 -0.22264946185E+03  0.26606806818E+03  0.12499956682E+03 0.  0.
         23    2    1    2    0    0  0.74786715275E+02  0.12204740285E+01 -0.19765200697E+03  0.23133315665E+03  0.94096605512E+02 0.  0.
          5    1    4    4  502    0  0.36811623573E+02  0.66178522099E+00 -0.18832004396E+03  0.19194286271E+03  0.47000000000E+01 0. -1.
         -5    1    4    4    0  502  0.37975091702E+02  0.55868880749E+00 -0.93319630097E+01  0.39390293938E+02  0.47000000000E+01 0.  1.
          5    1    3    3  503    0 -0.77274719645E+02  0.20502631056E+02 -0.22917957482E+03  0.24276965975E+03  0.47000000000E+01 0.  1.
         -5    1    3    3    0  503  0.24880043704E+01 -0.21723105085E+02  0.65301129733E+01  0.23298408437E+02  0.47000000000E+01 0.  1.
<mgrwt>
<rscale>  0 0.13883655E+03</rscale>
<asrwt>0</asrwt>
<pdfrwt beam="1">  1        2 0.70592515E-01 0.14566892E+03</pdfrwt>
<pdfrwt beam="2">  1       -2 0.59307505E-02 0.14566892E+03</pdfrwt>
<totfact> 0.98757830E+03</totfact>
</mgrwt>
</event>
<event>
 8    1  0.3407580E-004  0.2221432E+03  0.7546771E-02  0.1135583E+00
          4   -1    0    0  501    0  0.00000000000E+00  0.00000000000E+00  0.38374470710E+03  0.38374470710E+03  0.00000000000E+00 0.  1.
         -4   -1    0    0    0  501 -0.00000000000E+00 -0.00000000000E+00 -0.12644752567E+03  0.12644752567E+03  0.00000000000E+00 0. -1.
         25    2    1    2    0    0 -0.37558318445E+02 -0.17974420538E+03  0.19585390403E+03  0.29615255137E+03  0.12501590022E+03 0.  0.
         23    2    1    2    0    0  0.37558318445E+02  0.17974420538E+03  0.61443277405E+02  0.21403968140E+03  0.91209112608E+02 0.  0.
          5    1    3    3  502    0  0.20335565295E+02 -0.19977712689E+02  0.93176472321E+02  0.97553007203E+02  0.47000000000E+01 0.  1.
         -5    1    4    4    0  503 -0.13909990184E+01  0.12566233580E+03  0.74205200050E+02  0.14601869480E+03  0.47000000000E+01 0.  1.
          5    1    4    4  503    0  0.38949317463E+02  0.54081869583E+02 -0.12761922645E+02  0.68020986600E+02  0.47000000000E+01 0. -1.
         -5    1    3    3    0  502 -0.57893883740E+02 -0.15976649269E+03  0.10267743171E+03  0.19859954417E+03  0.47000000000E+01 0.  1.
<mgrwt>
<rscale>  0 0.21773567E+03</rscale>
<asrwt>0</asrwt>
<pdfrwt beam="1">  1        4 0.59037647E-01 0.22214316E+03</pdfrwt>
<pdfrwt beam="2">  1       -4 0.19453466E-01 0.22214316E+03</pdfrwt>
<totfact> 0.11738532E+02</totfact>
</mgrwt>
</event>
<event>
 8    1  0.3407580E-004  0.1348043E+03  0.7546771E-02  0.1234562E+00
          2   -1    0    0  501    0  0.00000000000E+00  0.00000000000E+00  0.24681006959E+02  0.24681006959E+02  0.00000000000E+00 0. -1.
         -2   -1    0    0    0  501 -0.00000000000E+00 -0.00000000000E+00 -0.75862702271E+03  0.75862702271E+03  0.00000000000E+00 0.  1.
         25    2    1    2    0    0  0.48077942762E+02 -0.15352268693E+02 -0.60426224008E+03  0.61911634390E+03  0.12500004703E+03 0.  0.
         23    2    1    2    0    0 -0.48077942762E+02  0.15352268693E+02 -0.12968377567E+03  0.16419168577E+03  0.87142683400E+02 0.  0.
          5    1    3    3  502    0  0.12108839213E+02 -0.59487168626E+02 -0.15996884414E+03  0.17116503239E+03  0.47000000000E+01 0.  1.
         -5    1    3    3    0  502  0.35969103549E+02  0.44134899933E+02 -0.44429339595E+03  0.44795131151E+03  0.47000000000E+01 0.  1.
          5    1    4    4  503    0 -0.14901528359E+01  0.28620285511E+02 -0.38770158091E+01  0.29299531562E+02  0.47000000000E+01 0. -1.
         -5    1    4    4    0  503 -0.46587789926E+02 -0.13268016818E+02 -0.12580675986E+03  0.13489215421E+03  0.47000000000E+01 0.  1.
<mgrwt>
<rscale>  0 0.12532508E+03</rscale>
<asrwt>0</asrwt>
<pdfrwt beam="1">  1        2 0.37970785E-02 0.13480427E+03</pdfrwt>
<pdfrwt beam="2">  1       -2 0.11671183E+00 0.13480427E+03</pdfrwt>
<totfact> 0.13036153E+03</totfact>
</mgrwt>
</event>
<event>
 8    1  0.3407580E-004  0.1375963E+03  0.7546771E-02  0.1228496E+00
          2   -1    0    0  501    0  0.00000000000E+00  0.00000000000E+00  0.75210587738E+02  0.75210587738E+02  0.00000000000E+00 0. -1.
         -2   -1    0    0    0  501 -0.00000000000E+00 -0.00000000000E+00 -0.24257587445E+03  0.24257587445E+03  0.00000000000E+00 0.  1.
         25    2    1    2    0    0  0.47224280147E+02 -0.32849264046E+02 -0.15884088422E+03  0.21015035413E+03  0.12499415210E+03 0.  0.
         23    2    1    2    0    0 -0.47224280147E+02  0.32849264046E+02 -0.85244024929E+01  0.10763610806E+03  0.90574055536E+02 0.  0.
          5    1    4    4  502    0 -0.43856638654E+02  0.61741544217E+02 -0.15291736585E+02  0.77403812852E+02  0.47000000000E+01 0. -1.
         -5    1    3    3    0  503 -0.32062441572E+02 -0.17326038494E+02 -0.10918399185E+03  0.11520167466E+03  0.47000000000E+01 0.  1.
          5    1    3    3  503    0  0.79286721720E+02 -0.15523225551E+02 -0.49656892372E+02  0.94948679467E+02  0.47000000000E+01 0.  1.
         -5    1    4    4    0  502 -0.33676414937E+01 -0.28892280171E+02  0.67673340918E+01  0.30232295206E+02  0.47000000000E+01 0.  1.
<mgrwt>
<rscale>  0 0.12930134E+03</rscale>
<asrwt>0</asrwt>
<pdfrwt beam="1">  1        2 0.11570860E-01 0.13759631E+03</pdfrwt>
<pdfrwt beam="2">  1       -2 0.37319364E-01 0.13759631E+03</pdfrwt>
<totfact> 0.34861641E+03</totfact>
</mgrwt>
</event>
<event>
 8    1  0.3407580E-004  0.1562587E+03  0.7546771E-02  0.1201217E+00
         -2   -1    0    0    0  501 -0.00000000000E+00  0.00000000000E+00  0.57103410021E+02  0.57103410021E+02  0.00000000000E+00 0.  1.
          2   -1    0    0  501    0  0.00000000000E+00 -0.00000000000E+00 -0.36819920937E+03  0.36819920937E+03  0.00000000000E+00 0. -1.
         25    2    1    2    0    0  0.81571950969E+02  0.46200389038E+02 -0.13789431866E+03  0.20840252241E+03  0.12501323568E+03 0.  0.
         23    2    1    2    0    0 -0.81571950969E+02 -0.46200389038E+02 -0.17320148069E+03  0.21690009698E+03  0.90875959569E+02 0.  0.
          5    1    4    4  502    0 -0.59704634553E+02 -0.55694547789E+02 -0.17434578811E+03  0.19257484227E+03  0.47000000000E+01 0. -1.
         -5    1    3    3    0  503 -0.27671384167E+02  0.28442380810E+02 -0.14329096413E+02  0.42451001542E+02  0.47000000000E+01 0. -1.
          5    1    3    3  503    0  0.10924333514E+03  0.17758008227E+02 -0.12356522225E+03  0.16595152087E+03  0.47000000000E+01 0. -1.
         -5    1    4    4    0  502 -0.21867316416E+02  0.94941587515E+01  0.11443074277E+01  0.24325254718E+02  0.47000000000E+01 0.  1.
<mgrwt>
<rscale>  0 0.14939592E+03</rscale>
<asrwt>0</asrwt>
<pdfrwt beam="1">  1        2 0.56646032E-01 0.15625866E+03</pdfrwt>
<pdfrwt beam="2">  1       -2 0.87851400E-02 0.15625866E+03</pdfrwt>
<totfact> 0.68700153E+03</totfact>
</mgrwt>
</event>
<event>
 8    1  0.3407580E-004  0.1298255E+03  0.7546771E-02  0.1241664E+00
         -1   -1    0    0    0  501 -0.00000000000E+00  0.00000000000E+00  0.19776056163E+03  0.19776056163E+03  0.00000000000E+00 0.  1.
          1   -1    0    0  501    0  0.00000000000E+00 -0.00000000000E+00 -0.66699825102E+02  0.66699825102E+02  0.00000000000E+00 0. -1.
         25    2    1    2    0    0  0.75137422121E+01 -0.34247582825E+02  0.56070366915E+02  0.14141618595E+03  0.12500119340E+03 0.  0.
         23    2    1    2    0    0 -0.75137422121E+01  0.34247582825E+02  0.74990369612E+02  0.12304420078E+03  0.91032777394E+02 0.  0.
          5    1    3    3  502    0  0.42763767207E+02 -0.37927907011E+02 -0.17210205152E+02  0.59879437851E+02  0.47000000000E+01 0.  1.
         -5    1    3    3    0  502 -0.35250024995E+02  0.36803241866E+01  0.73280572067E+02  0.81536748100E+02  0.47000000000E+01 0.  1.
          5    1    4    4  503    0  0.48279836128E+01 -0.22418817429E+02 -0.51887916779E+01  0.23977622062E+02  0.47000000000E+01 0. -1.
         -5    1    4    4    0  503 -0.12341725825E+02  0.56666400254E+02  0.80179161290E+02  0.99066578720E+02  0.47000000000E+01 0.  1.
<mgrwt>
<rscale>  0 0.12087279E+03</rscale>
<asrwt>0</asrwt>
<pdfrwt beam="1">  1        1 0.10261512E-01 0.12982547E+03</pdfrwt>
<pdfrwt beam="2">  1       -1 0.30424702E-01 0.12982547E+03</pdfrwt>
<totfact> 0.58555702E+03</totfact>
</mgrwt>
</event>
<event>
 8    1  0.3407580E-004  0.1457467E+03  0.7546771E-02  0.1216078E+00
         -3   -1    0    0    0  501 -0.00000000000E+00  0.00000000000E+00  0.18437553732E+03  0.18437553732E+03  0.00000000000E+00 0.  1.
          3   -1    0    0  501    0  0.00000000000E+00 -0.00000000000E+00 -0.13939746619E+03  0.13939746619E+03  0.00000000000E+00 0. -1.
         25    2    1    2    0    0 -0.72446209448E+02  0.19036996473E+02 -0.68227071991E+02  0.16092552414E+03  0.12502491940E+03 0.  0.
         23    2    1    2    0    0  0.72446209448E+02 -0.19036996473E+02  0.11320514313E+03  0.16284747937E+03  0.89961306174E+02 0.  0.
          5    1    3    3  502    0 -0.38103860540E+02  0.54440453276E+02  0.10963129359E+02  0.67512571765E+02  0.47000000000E+01 0. -1.
         -5    1    3    3    0  502 -0.34342348909E+02 -0.35403456804E+02 -0.79190201349E+02  0.93412952378E+02  0.47000000000E+01 0. -1.
          5    1    4    4  503    0  0.60956150567E+02  0.26540870281E+02  0.84310230966E+02  0.10747267156E+03  0.47000000000E+01 0. -1.
         -5    1    4    4    0  503  0.11490058881E+02 -0.45577866753E+02  0.28894912160E+02  0.55374807807E+02  0.47000000000E+01 0.  1.
<mgrwt>
<rscale>  0 0.13797630E+03</rscale>
<asrwt>0</asrwt>
<pdfrwt beam="1">  1        3 0.21445764E-01 0.14574667E+03</pdfrwt>
<pdfrwt beam="2">  1       -3 0.28365467E-01 0.14574667E+03</pdfrwt>
<totfact> 0.55269923E+02</totfact>
</mgrwt>
</event>
<event>
 8    1  0.3407580E-004  0.1348691E+03  0.7546771E-02  0.1234960E+00
          3   -1    0    0  501    0  0.00000000000E+00  0.00000000000E+00  0.22467547414E+03  0.22467547414E+03  0.00000000000E+00 0. -1.
         -3   -1    0    0    0  501 -0.00000000000E+00 -0.00000000000E+00 -0.66948050826E+02  0.66948050826E+02  0.00000000000E+00 0.  1.
         25    2    1    2    0    0 -0.83888793437E+01 -0.49920222480E+02  0.13177881911E+03  0.18856120131E+03  0.12500906992E+03 0.  0.
         23    2    1    2    0    0  0.83888793437E+01  0.49920222480E+02  0.25948604206E+02  0.10306232366E+03  0.85942484194E+02 0.  0.
          5    1    3    3  502    0 -0.61329414477E+01 -0.79549435896E+02  0.13643244488E+03  0.15811903029E+03  0.47000000000E+01 0. -1.
         -5    1    4    4    0  503 -0.24433899857E+02  0.10335518910E+02 -0.20305889314E+02  0.33738072769E+02  0.47000000000E+01 0.  1.
          5    1    4    4  503    0  0.32822779200E+02  0.39584703570E+02  0.46254493520E+02  0.69324250894E+02  0.47000000000E+01 0. -1.
         -5    1    3    3    0  502 -0.22559378960E+01  0.29629213416E+02 -0.46536257724E+01  0.30442171018E+02  0.47000000000E+01 0. -1.
<mgrwt>
<rscale>  0 0.12507027E+03</rscale>
<asrwt>0</asrwt>
<pdfrwt beam="1">  1        3 0.34565457E-01 0.13486908E+03</pdfrwt>
<pdfrwt beam="2">  1       -3 0.10299700E-01 0.13486908E+03</pdfrwt>
<totfact> 0.13274213E+03</totfact>
</mgrwt>
</event>
<event>
 8    1  0.3407580E-004  0.1433433E+03  0.7546771E-02  0.1219074E+00
          2   -1    0    0  501    0  0.00000000000E+00  0.00000000000E+00  0.10433979480E+03  0.10433979480E+03  0.00000000000E+00 0.  1.
         -2   -1    0    0    0  501 -0.00000000000E+00 -0.00000000000E+00 -0.27073544817E+03  0.27073544817E+03  0.00000000000E+00 0. -1.
         25    2    1    2    0    0 -0.16549047997E+02  0.68197357919E+02  0.30725378279E+02  0.14659929936E+03  0.12499021996E+03 0.  0.
         23    2    1    2    0    0  0.16549047997E+02 -0.68197357919E+02 -0.19712103165E+03  0.22847594361E+03  0.91759495810E+02 0.  0.
          5    1    3    3  502    0 -0.75710656508E+00  0.93884473467E+02  0.53826222427E+02  0.10832460380E+03  0.47000000000E+01 0.  1.
         -5    1    4    4    0  503  0.18591460905E+02 -0.37005229617E+02 -0.16043379696E+02  0.44659931367E+02  0.47000000000E+01 0.  1.
          5    1    4    4  503    0 -0.20424129083E+01 -0.31192128302E+02 -0.18107765196E+03  0.18381601224E+03  0.47000000000E+01 0. -1.
         -5    1    3    3    0  502 -0.15791941432E+02 -0.25687115548E+02 -0.23100844148E+02  0.38274695554E+02  0.47000000000E+01 0.  1.
<mgrwt>
<rscale>  0 0.13581449E+03</rscale>
<asrwt>0</asrwt>
<pdfrwt beam="1">  1        2 0.16052276E-01 0.14334331E+03</pdfrwt>
<pdfrwt beam="2">  1       -2 0.41651606E-01 0.14334331E+03</pdfrwt>
<totfact> 0.19260957E+03</totfact>
</mgrwt>
</event>
<event>
 8    1  0.3407580E-004  0.1394004E+03  0.7546771E-02  0.1225147E+00
          1   -1    0    0  501    0  0.00000000000E+00  0.00000000000E+00  0.45551848300E+03  0.45551848300E+03  0.00000000000E+00 0. -1.
         -1   -1    0    0    0  501 -0.00000000000E+00 -0.00000000000E+00 -0.34336449746E+02  0.34336449746E+02  0.00000000000E+00 0.  1.
         25    2    1    2    0    0 -0.59739193700E+02 -0.15500769696E+02  0.22752040486E+03  0.26682954709E+03  0.12499370965E+03 0.  0.
         23    2    1    2    0    0  0.59739193700E+02  0.15500769696E+02  0.19366162840E+03  0.22302538566E+03  0.91795703640E+02 0.  0.
          5    1    3    3  502    0 -0.49950468246E+02  0.83341644602E+01  0.23431480414E+03  0.23977077598E+03  0.47000000000E+01 0. -1.
         -5    1    4    4    0  503  0.36193069831E+02 -0.49757836761E+01  0.12143468136E+02  0.38784668947E+02  0.47000000000E+01 0.  1.
          5    1    4    4  503    0  0.23546123869E+02  0.20476553372E+02  0.18151816026E+03  0.18424071671E+03  0.47000000000E+01 0. -1.
         -5    1    3    3    0  502 -0.97887254541E+01 -0.23834934156E+02 -0.67943992886E+01  0.27058771109E+02  0.47000000000E+01 0. -1.
<mgrwt>
<rscale>  0 0.13156814E+03</rscale>
<asrwt>0</asrwt>
<pdfrwt beam="1">  1        1 0.70079762E-01 0.13940040E+03</pdfrwt>
<pdfrwt beam="2">  1       -1 0.52825311E-02 0.13940040E+03</pdfrwt>
<totfact> 0.79213124E+03</totfact>
</mgrwt>
</event>
<event>
 8    1  0.3407580E-004  0.1397358E+03  0.7546771E-02  0.1224843E+00
          1   -1    0    0  501    0  0.00000000000E+00  0.00000000000E+00  0.10454785834E+04  0.10454785834E+04  0.00000000000E+00 0. -1.
         -1   -1    0    0    0  501 -0.00000000000E+00 -0.00000000000E+00 -0.16062083393E+02  0.16062083393E+02  0.00000000000E+00 0.  1.
         25    2    1    2    0    0 -0.32192170067E+02 -0.53532550057E+02  0.43357871479E+03  0.45553989031E+03  0.12499608001E+03 0.  0.
         23    2    1    2    0    0  0.32192170067E+02  0.53532550057E+02  0.59583778523E+03  0.60600077649E+03  0.91171295220E+02 0.  0.
          5    1    4    4  502    0 -0.14723279538E+02  0.59867273743E+02  0.37851977253E+03  0.38353640456E+03  0.47000000000E+01 0. -1.
         -5    1    3    3    0  503 -0.60965307756E+02  0.93623092621E+01  0.12756377125E+03  0.14177103837E+03  0.47000000000E+01 0.  1.
          5    1    3    3  503    0  0.28773137689E+02 -0.62894859319E+02  0.30601494354E+03  0.31376885194E+03  0.47000000000E+01 0.  1.
         -5    1    4    4    0  502  0.46915449604E+02 -0.63347236862E+01  0.21731801269E+03  0.22246437193E+03  0.47000000000E+01 0.  1.
<mgrwt>
<rscale>  0 0.13177687E+03</rscale>
<asrwt>0</asrwt>
<pdfrwt beam="1">  1        1 0.16084281E+00 0.13973579E+03</pdfrwt>
<pdfrwt beam="2">  1       -1 0.24710906E-02 0.13973579E+03</pdfrwt>
<totfact> 0.72232532E+03</totfact>
</mgrwt>
</event>
<event>
 8    1  0.3407580E-004  0.4475053E+03  0.7546771E-02  0.1029130E+00
         -1   -1    0    0    0  501 -0.00000000000E+00  0.00000000000E+00  0.16488074182E+03  0.16488074182E+03  0.00000000000E+00 0. -1.
          1   -1    0    0  501    0  0.00000000000E+00 -0.00000000000E+00 -0.12622090282E+04  0.12622090282E+04  0.00000000000E+00 0.  1.
         25    2    1    2    0    0  0.37235546800E+03 -0.21444620440E+03 -0.38430811041E+03  0.58987599037E+03  0.12500076459E+03 0.  0.
         23    2    1    2    0    0 -0.37235546800E+03  0.21444620440E+03 -0.71302017593E+03  0.83721377963E+03  0.88844653037E+02 0.  0.
          5    1    4    4  502    0 -0.20921555061E+03  0.13427015690E+03 -0.48986950229E+03  0.54935766212E+03  0.47000000000E+01 0. -1.
         -5    1    3    3    0  503  0.24572217050E+03 -0.19091390436E+03 -0.31796211162E+03  0.44491515863E+03  0.47000000000E+01 0.  1.
          5    1    3    3  503    0  0.12663329750E+03 -0.23532300040E+02 -0.66345998791E+02  0.14496083174E+03  0.47000000000E+01 0.  1.
         -5    1    4    4    0  502 -0.16313991740E+03  0.80176047508E+02 -0.22315067364E+03  0.28785611751E+03  0.47000000000E+01 0.  1.
<mgrwt>
<rscale>  0 0.44530818E+03</rscale>
<asrwt>0</asrwt>
<pdfrwt beam="1">  1        1 0.19418601E+00 0.44750526E+03</pdfrwt>
<pdfrwt beam="2">  1       -1 0.25366268E-01 0.44750526E+03</pdfrwt>
<totfact> 0.13808992E+02</totfact>
</mgrwt>
</event>
<event>
 8    1  0.3407580E-004  0.1578523E+03  0.7546771E-02  0.1201665E+00
          3   -1    0    0  501    0  0.00000000000E+00  0.00000000000E+00  0.40823464772E+03  0.40823464772E+03  0.00000000000E+00 0. -1.
         -3   -1    0    0    0  501 -0.00000000000E+00 -0.00000000000E+00 -0.51547532808E+02  0.51547532808E+02  0.00000000000E+00 0.  1.
         25    2    1    2    0    0 -0.71648886139E+02 -0.64488541076E+02  0.24715374935E+03  0.29326150947E+03  0.12500000920E+03 0.  0.
         23    2    1    2    0    0  0.71648886139E+02  0.64488541076E+02  0.10953336555E+03  0.16652067106E+03  0.80244880866E+02 0.  0.
          5    1    4    4  502    0  0.52531348075E+02 -0.10676064411E+01  0.69404053759E+02  0.87176229514E+02  0.47000000000E+01 0. -1.
         -5    1    3    3    0  503 -0.82515048118E+02  0.90634199566E+01  0.12279893191E+03  0.14829884162E+03  0.47000000000E+01 0.  1.
          5    1    3    3  503    0  0.10866161979E+02 -0.73551961033E+02  0.12435481744E+03  0.14496266784E+03  0.47000000000E+01 0.  1.
         -5    1    4    4    0  502  0.19117538065E+02  0.65556147517E+02  0.40129311795E+02  0.79344441545E+02  0.47000000000E+01 0.  1.
<mgrwt>
<rscale>  0 0.14903375E+03</rscale>
<asrwt>0</asrwt>
<pdfrwt beam="1">  1        3 0.62805328E-01 0.15785226E+03</pdfrwt>
<pdfrwt beam="2">  1       -3 0.79303900E-02 0.15785226E+03</pdfrwt>
<totfact> 0.64134225E+02</totfact>
</mgrwt>
</event>
<event>
 8    1  0.3407580E-004  0.1897149E+03  0.7546771E-02  0.1164109E+00
          2   -1    0    0  501    0  0.00000000000E+00  0.00000000000E+00  0.16825688967E+04  0.16825688967E+04  0.00000000000E+00 0. -1.
         -2   -1    0    0    0  501 -0.00000000000E+00 -0.00000000000E+00 -0.27827062396E+02  0.27827062396E+02  0.00000000000E+00 0.  1.
         25    2    1    2    0    0  0.46198520781E+01  0.14263477260E+03  0.13450088668E+04  0.13583227197E+04  0.12500295074E+03 0.  0.
         23    2    1    2    0    0 -0.46198520781E+01 -0.14263477260E+03  0.30973296753E+03  0.35207323942E+03  0.87493047458E+02 0.  0.
          5    1    3    3  502    0  0.64361690308E+02  0.79861432826E+02  0.76374940679E+03  0.77062021905E+03  0.47000000000E+01 0.  1.
         -5    1    3    3    0  502 -0.59741838230E+02  0.62773339776E+02  0.58125945999E+03  0.58770250063E+03  0.47000000000E+01 0.  1.
          5    1    4    4  503    0  0.27726832778E+02 -0.73564101337E+02  0.22290455777E+03  0.23640851536E+03  0.47000000000E+01 0. -1.
         -5    1    4    4    0  503 -0.32346684856E+02 -0.69070671265E+02  0.86828409760E+02  0.11566472406E+03  0.47000000000E+01 0.  1.
<mgrwt>
<rscale>  0 0.18387035E+03</rscale>
<asrwt>0</asrwt>
<pdfrwt beam="1">  1        2 0.25885667E+00 0.18971494E+03</pdfrwt>
<pdfrwt beam="2">  1       -2 0.42810878E-02 0.18971494E+03</pdfrwt>
<totfact> 0.27069721E+03</totfact>
</mgrwt>
</event>
<event>
 8    1  0.3407580E-004  0.1272627E+03  0.7546771E-02  0.1246947E+00
          4   -1    0    0  501    0  0.00000000000E+00  0.00000000000E+00  0.17716965939E+03  0.17716965939E+03  0.00000000000E+00 0. -1.
         -4   -1    0    0    0  501 -0.00000000000E+00 -0.00000000000E+00 -0.80019254508E+02  0.80019254508E+02  0.00000000000E+00 0.  1.
         25    2    1    2    0    0 -0.23832101297E+02 -0.16920906933E+01  0.67823566223E+01  0.12744328047E+03  0.12499982861E+03 0.  0.
         23    2    1    2    0    0  0.23832101297E+02  0.16920906933E+01  0.90368048256E+02  0.12974563343E+03  0.89981737173E+02 0.  0.
          5    1    4    4  502    0  0.41817347423E+02 -0.23160191573E+02  0.18517593458E+02  0.51478891661E+02  0.47000000000E+01 0. -1.
         -5    1    3    3    0  503  0.16810890216E+02 -0.32677835185E+02 -0.42437151602E+02  0.56333371800E+02  0.47000000000E+01 0.  1.
          5    1    3    3  503    0 -0.40642991513E+02  0.30985744492E+02  0.49219508224E+02  0.71109908667E+02  0.47000000000E+01 0.  1.
         -5    1    4    4    0  502 -0.17985246126E+02  0.24852282266E+02  0.71850454798E+02  0.78266741766E+02  0.47000000000E+01 0.  1.
<mgrwt>
<rscale>  0 0.11769630E+03</rscale>
<asrwt>0</asrwt>
<pdfrwt beam="1">  1        4 0.27256871E-01 0.12726268E+03</pdfrwt>
<pdfrwt beam="2">  1       -4 0.12310655E-01 0.12726268E+03</pdfrwt>
<totfact> 0.11027748E+03</totfact>
</mgrwt>
</event>
<event>
 8    1  0.3407580E-004  0.1810788E+03  0.7546771E-02  0.1172232E+00
          3   -1    0    0  501    0  0.00000000000E+00  0.00000000000E+00  0.90638957644E+03  0.90638957644E+03  0.00000000000E+00 0. -1.
         -3   -1    0    0    0  501 -0.00000000000E+00 -0.00000000000E+00 -0.37739372630E+02  0.37739372630E+02  0.00000000000E+00 0.  1.
         25    2    1    2    0    0 -0.12363789959E+03  0.43301691318E+02  0.27429731104E+03  0.32867699146E+03  0.12501273210E+03 0.  0.
         23    2    1    2    0    0  0.12363789959E+03 -0.43301691318E+02  0.59435289277E+03  0.61545195761E+03  0.91457007881E+02 0.  0.
          5    1    4    4  502    0  0.80663387890E+02 -0.11585283001E+02  0.50256894349E+03  0.50915462670E+03  0.47000000000E+01 0. -1.
         -5    1    3    3    0  503 -0.89082572986E+02  0.86489764061E+02  0.17052414485E+03  0.21098994780E+03  0.47000000000E+01 0.  1.
          5    1    3    3  503    0 -0.34555326608E+02 -0.43188072744E+02  0.10377316619E+03  0.11768704366E+03  0.47000000000E+01 0.  1.
         -5    1    4    4    0  502  0.42974511704E+02 -0.31716408317E+02  0.91783949281E+02  0.10629733091E+03  0.47000000000E+01 0.  1.
<mgrwt>
<rscale>  0 0.17549838E+03</rscale>
<asrwt>0</asrwt>
<pdfrwt beam="1">  1        3 0.13944453E+00 0.18107885E+03</pdfrwt>
<pdfrwt beam="2">  1       -3 0.58060580E-02 0.18107885E+03</pdfrwt>
<totfact> 0.17899850E+02</totfact>
</mgrwt>
</event>
<event>
 8    1  0.3407580E-004  0.1350150E+03  0.7546771E-02  0.1234056E+00
          2   -1    0    0  501    0  0.00000000000E+00  0.00000000000E+00  0.28543987087E+03  0.28543987087E+03  0.00000000000E+00 0. -1.
         -2   -1    0    0    0  501 -0.00000000000E+00 -0.00000000000E+00 -0.49876736807E+02  0.49876736807E+02  0.00000000000E+00 0.  1.
         25    2    1    2    0    0 -0.12513738377E+02 -0.49512958369E+02  0.11106174782E+03  0.17482497867E+03  0.12498373752E+03 0.  0.
         23    2    1    2    0    0  0.12513738377E+02  0.49512958369E+02  0.12450138625E+03  0.16049162900E+03  0.87457653228E+02 0.  0.
          5    1    3    3  502    0  0.41591383395E+02  0.18504289121E+02  0.23829152895E+02  0.51596224826E+02  0.47000000000E+01 0.  1.
         -5    1    3    3    0  502 -0.54105121772E+02 -0.68017247490E+02  0.87232594922E+02  0.12322875385E+03  0.47000000000E+01 0.  1.
          5    1    4    4  503    0  0.43250544001E+02  0.15975937346E+02  0.96005455476E+02  0.10660664900E+03  0.47000000000E+01 0. -1.
         -5    1    4    4    0  503 -0.30736805624E+02  0.33537021023E+02  0.28495930769E+02  0.53884979999E+02  0.47000000000E+01 0.  1.
<mgrwt>
<rscale>  0 0.12565043E+03</rscale>
<asrwt>0</asrwt>
<pdfrwt beam="1">  1        2 0.43913826E-01 0.13501504E+03</pdfrwt>
<pdfrwt beam="2">  1       -2 0.76733443E-02 0.13501504E+03</pdfrwt>
<totfact> 0.10996059E+04</totfact>
</mgrwt>
</event>
<event>
 8    1  0.3407580E-004  0.2884795E+03  0.7546771E-02  0.1092893E+00
          2   -1    0    0  501    0  0.00000000000E+00  0.00000000000E+00  0.49934932905E+03  0.49934932905E+03  0.00000000000E+00 0. -1.
         -2   -1    0    0    0  501 -0.00000000000E+00 -0.00000000000E+00 -0.18191722878E+03  0.18191722878E+03  0.00000000000E+00 0.  1.
         25    2    1    2    0    0  0.12398299722E+03  0.22852738294E+03  0.28212736928E+03  0.40350497470E+03  0.12499545495E+03 0.  0.
         23    2    1    2    0    0 -0.12398299722E+03 -0.22852738294E+03  0.35304730988E+02  0.27776158312E+03  0.91151109015E+02 0.  0.
          5    1    4    4  502    0 -0.72045546317E+02 -0.20632944686E+03  0.32654327218E+02  0.22102216285E+03  0.47000000000E+01 0. -1.
         -5    1    3    3    0  503  0.44590877512E+02  0.18106583035E+03  0.23362173620E+03  0.29895549318E+03  0.47000000000E+01 0. -1.
          5    1    3    3  503    0  0.79392119706E+02  0.47461552591E+02  0.48505633084E+02  0.10454948152E+03  0.47000000000E+01 0. -1.
         -5    1    4    4    0  502 -0.51937450901E+02 -0.22197936082E+02  0.26504037703E+01  0.56739420270E+02  0.47000000000E+01 0.  1.
<mgrwt>
<rscale>  0 0.28518065E+03</rscale>
<asrwt>0</asrwt>
<pdfrwt beam="1">  1        2 0.76822973E-01 0.28847948E+03</pdfrwt>
<pdfrwt beam="2">  1       -2 0.27987266E-01 0.28847948E+03</pdfrwt>
<totfact> 0.72595569E+02</totfact>
</mgrwt>
</event>
<event>
 8    1  0.3407580E-004  0.1384377E+03  0.7546771E-02  0.1227038E+00
         -1   -1    0    0    0  501 -0.00000000000E+00  0.00000000000E+00  0.84040330145E+02  0.84040330145E+02  0.00000000000E+00 0.  1.
          1   -1    0    0  501    0  0.00000000000E+00 -0.00000000000E+00 -0.18152179640E+03  0.18152179640E+03  0.00000000000E+00 0. -1.
         25    2    1    2    0    0 -0.54647590135E+02 -0.23477268020E+02 -0.54371782988E+02  0.14873223811E+03  0.12500978620E+03 0.  0.
         23    2    1    2    0    0  0.54647590135E+02  0.23477268020E+02 -0.43109683263E+02  0.11682988843E+03  0.90847326975E+02 0.  0.
          5    1    4    4  502    0  0.19246873247E+02 -0.34131942752E+02 -0.24835672962E+02  0.46629736191E+02  0.47000000000E+01 0. -1.
         -5    1    4    4    0  502  0.35400716888E+02  0.57609210772E+02 -0.18274010301E+02  0.70200152239E+02  0.47000000000E+01 0.  1.
          5    1    3    3  503    0 -0.10336778752E+02 -0.59889429638E+02 -0.66194647273E+02  0.89985632770E+02  0.47000000000E+01 0.  1.
         -5    1    3    3    0  503 -0.44310811383E+02  0.36412161619E+02  0.11822864285E+02  0.58746605341E+02  0.47000000000E+01 0.  1.
<mgrwt>
<rscale>  0 0.13028173E+03</rscale>
<asrwt>0</asrwt>
<pdfrwt beam="1">  1        1 0.27926430E-01 0.13843767E+03</pdfrwt>
<pdfrwt beam="2">  1       -1 0.12929282E-01 0.13843767E+03</pdfrwt>
<totfact> 0.64346874E+03</totfact>
</mgrwt>
</event>
<event>
 8    1  0.3407580E-004  0.2452502E+03  0.7546771E-02  0.1119054E+00
         -2   -1    0    0    0  501 -0.00000000000E+00  0.00000000000E+00  0.94867763322E+02  0.94867763322E+02  0.00000000000E+00 0.  1.
          2   -1    0    0  501    0  0.00000000000E+00 -0.00000000000E+00 -0.61510946562E+03  0.61510946562E+03  0.00000000000E+00 0. -1.
         25    2    1    2    0    0 -0.17756357914E+03 -0.11399018484E+03 -0.20135510748E+03  0.31731931128E+03  0.12500031652E+03 0.  0.
         23    2    1    2    0    0  0.17756357914E+03  0.11399018484E+03 -0.31888659482E+03  0.39265791766E+03  0.89269216802E+02 0.  0.
          5    1    4    4  502    0  0.15207048858E+03  0.12840125498E+03 -0.26968010478E+03  0.33520406426E+03  0.47000000000E+01 0. -1.
         -5    1    3    3    0  503 -0.19529096214E+03 -0.99053930657E+02 -0.19389167880E+03  0.29251720322E+03  0.47000000000E+01 0.  1.
          5    1    3    3  503    0  0.17727382997E+02 -0.14936254178E+02 -0.74634286723E+01  0.24802108062E+02  0.47000000000E+01 0.  1.
         -5    1    4    4    0  502  0.25493090556E+02 -0.14411070147E+02 -0.49206490036E+02  0.57453853400E+02  0.47000000000E+01 0.  1.
<mgrwt>
<rscale>  0 0.24111168E+03</rscale>
<asrwt>0</asrwt>
<pdfrwt beam="1">  1        2 0.94632228E-01 0.24525021E+03</pdfrwt>
<pdfrwt beam="2">  1       -2 0.14595040E-01 0.24525021E+03</pdfrwt>
<totfact> 0.17517672E+03</totfact>
</mgrwt>
</event>
<event>
 8    1  0.3407580E-004  0.1262601E+03  0.7546771E-02  0.1247593E+00
          4   -1    0    0  501    0  0.00000000000E+00  0.00000000000E+00  0.91883694506E+03  0.91883694506E+03  0.00000000000E+00 0. -1.
         -4   -1    0    0    0  501 -0.00000000000E+00 -0.00000000000E+00 -0.14575442973E+02  0.14575442973E+02  0.00000000000E+00 0.  1.
         25    2    1    2    0    0 -0.94999364647E+01 -0.15042722261E+02  0.65325130541E+03  0.66534117876E+03  0.12500033540E+03 0.  0.
         23    2    1    2    0    0  0.94999364647E+01  0.15042722261E+02  0.25101019668E+03  0.26807120927E+03  0.92409534782E+02 0.  0.
          5    1    3    3  502    0 -0.59801348779E+02  0.11473664323E+02  0.45373637811E+03  0.45782817422E+03  0.47000000000E+01 0.  1.
         -5    1    4    4    0  503  0.16817766840E+02  0.52521865026E+02  0.15815859125E+03  0.16756375972E+03  0.47000000000E+01 0.  1.
          5    1    4    4  503    0 -0.73178303753E+01 -0.37479142765E+02  0.92851605431E+02  0.10050744955E+03  0.47000000000E+01 0. -1.
         -5    1    3    3    0  502  0.50301412314E+02 -0.26516386584E+02  0.19951492730E+03  0.20751300455E+03  0.47000000000E+01 0.  1.
<mgrwt>
<rscale>  0 0.11731530E+03</rscale>
<asrwt>0</asrwt>
<pdfrwt beam="1">  1        4 0.14135948E+00 0.12626011E+03</pdfrwt>
<pdfrwt beam="2">  1       -4 0.22423766E-02 0.12626011E+03</pdfrwt>
<totfact> 0.51714126E+02</totfact>
</mgrwt>
</event>
<event>
 8    1  0.3407580E-004  0.1389951E+03  0.7546771E-02  0.1225936E+00
          1   -1    0    0  501    0  0.00000000000E+00  0.00000000000E+00  0.51020308571E+03  0.51020308571E+03  0.00000000000E+00 0. -1.
         -1   -1    0    0    0  501 -0.00000000000E+00 -0.00000000000E+00 -0.30369299196E+02  0.30369299196E+02  0.00000000000E+00 0.  1.
         25    2    1    2    0    0  0.37183354195E+02  0.48043519886E+02  0.27856795183E+03  0.31131935658E+03  0.12501542451E+03 0.  0.
         23    2    1    2    0    0 -0.37183354195E+02 -0.48043519886E+02  0.20126583469E+03  0.22925302832E+03  0.91423373114E+02 0.  0.
          5    1    3    3  502    0  0.22136173736E+02 -0.26284430520E+02  0.19626574649E+03  0.19930683560E+03  0.47000000000E+01 0. -1.
         -5    1    4    4    0  503 -0.31220870813E+02 -0.27565598970E+02  0.19582936510E+02  0.46262148926E+02  0.47000000000E+01 0.  1.
          5    1    4    4  503    0 -0.59624833820E+01 -0.20477920916E+02  0.18168289818E+03  0.18299087940E+03  0.47000000000E+01 0. -1.
         -5    1    3    3    0  502  0.15047180459E+02  0.74327950406E+02  0.82302205343E+02  0.11201252098E+03  0.47000000000E+01 0. -1.
<mgrwt>
<rscale>  0 0.13102934E+03</rscale>
<asrwt>0</asrwt>
<pdfrwt beam="1">  1        1 0.78492776E-01 0.13899510E+03</pdfrwt>
<pdfrwt beam="2">  1       -1 0.46722003E-02 0.13899510E+03</pdfrwt>
<totfact> 0.81995267E+03</totfact>
</mgrwt>
</event>
<event>
 8    1  0.3407580E-004  0.1564325E+03  0.7546771E-02  0.1199419E+00
         -2   -1    0    0    0  501 -0.00000000000E+00  0.00000000000E+00  0.73919266141E+02  0.73919266141E+02  0.00000000000E+00 0.  1.
          2   -1    0    0  501    0  0.00000000000E+00 -0.00000000000E+00 -0.29225935100E+03  0.29225935100E+03  0.00000000000E+00 0. -1.
         25    2    1    2    0    0 -0.61080167413E+02  0.71534523971E+02 -0.13936615905E+03  0.20950911051E+03  0.12499266430E+03 0.  0.
         23    2    1    2    0    0  0.61080167413E+02 -0.71534523971E+02 -0.78973925810E+02  0.15666950663E+03  0.97264990511E+02 0.  0.
          5    1    4    4  502    0  0.32087368658E+02 -0.52471052964E+02 -0.98767227977E+02  0.11644683744E+03  0.47000000000E+01 0. -1.
         -5    1    4    4    0  502  0.28992798755E+02 -0.19063471007E+02  0.19793302167E+02  0.40222669195E+02  0.47000000000E+01 0.  1.
          5    1    3    3  503    0 -0.18944550113E+02 -0.21030253157E+02 -0.93571557797E+02  0.97871824114E+02  0.47000000000E+01 0. -1.
         -5    1    3    3    0  503 -0.42135617300E+02  0.92564777128E+02 -0.45794601250E+02  0.11163728639E+03  0.47000000000E+01 0. -1.
<mgrwt>
<rscale>  0 0.15086093E+03</rscale>
<asrwt>0</asrwt>
<pdfrwt beam="1">  1        2 0.44962977E-01 0.15643254E+03</pdfrwt>
<pdfrwt beam="2">  1       -2 0.11372195E-01 0.15643254E+03</pdfrwt>
<totfact> 0.58501527E+03</totfact>
</mgrwt>
</event>
<event>
 8    1  0.3407580E-004  0.1372691E+03  0.7546771E-02  0.1228112E+00
          2   -1    0    0  501    0  0.00000000000E+00  0.00000000000E+00  0.38037547497E+03  0.38037547497E+03  0.00000000000E+00 0. -1.
         -2   -1    0    0    0  501 -0.00000000000E+00 -0.00000000000E+00 -0.41000816875E+02  0.41000816875E+02  0.00000000000E+00 0.  1.
         25    2    1    2    0    0 -0.29000196522E+02  0.48743392915E+02  0.15341432399E+03  0.20586105294E+03  0.12500355419E+03 0.  0.
         23    2    1    2    0    0  0.29000196522E+02 -0.48743392915E+02  0.18596033410E+03  0.21551523890E+03  0.92998078409E+02 0.  0.
          5    1    3    3  502    0 -0.89176755966E+01  0.88968770823E+02  0.11962807242E+03  0.14942534200E+03  0.47000000000E+01 0.  1.
         -5    1    3    3    0  502 -0.20082520925E+02 -0.40225377908E+02  0.33786251565E+02  0.56435710940E+02  0.47000000000E+01 0.  1.
          5    1    4    4  503    0 -0.19027226787E+02 -0.27855771056E+02  0.14476144115E+03  0.14871430390E+03  0.47000000000E+01 0. -1.
         -5    1    4    4    0  503  0.48027423309E+02 -0.20887621858E+02  0.41198892952E+02  0.66800935001E+02  0.47000000000E+01 0.  1.
<mgrwt>
<rscale>  0 0.12955846E+03</rscale>
<asrwt>0</asrwt>
<pdfrwt beam="1">  1        2 0.58519301E-01 0.13726915E+03</pdfrwt>
<pdfrwt beam="2">  1       -2 0.63078182E-02 0.13726915E+03</pdfrwt>
<totfact> 0.10956004E+04</totfact>
</mgrwt>
</event>
<event>
 8    1  0.3407580E-004  0.4256981E+03  0.7546771E-02  0.1036032E+00
          1   -1    0    0  501    0  0.00000000000E+00  0.00000000000E+00  0.94596351095E+03  0.94596351095E+03  0.00000000000E+00 0. -1.
         -1   -1    0    0    0  501 -0.00000000000E+00 -0.00000000000E+00 -0.20093374842E+03  0.20093374842E+03  0.00000000000E+00 0.  1.
         25    2    1    2    0    0  0.38614359354E+03  0.12840323287E+03  0.52692279527E+03  0.67739688894E+03  0.12499859172E+03 0.  0.
         23    2    1    2    0    0 -0.38614359354E+03 -0.12840323287E+03  0.21810696727E+03  0.46950037043E+03  0.85238979477E+02 0.  0.
          5    1    4    4  502    0 -0.93730182928E+02 -0.47881573968E+02  0.95924226634E+02  0.14248347123E+03  0.47000000000E+01 0. -1.
         -5    1    3    3    0  503  0.28835969081E+02 -0.22910800737E+02  0.37112027822E+02  0.52495814237E+02  0.47000000000E+01 0. -1.
          5    1    3    3  503    0  0.35730762445E+03  0.15131403361E+03  0.48981076745E+03  0.62490107470E+03  0.47000000000E+01 0. -1.
         -5    1    4    4    0  502 -0.29241341061E+03 -0.80521658902E+02  0.12218274064E+03  0.32701689920E+03  0.47000000000E+01 0.  1.
<mgrwt>
<rscale>  0 0.42319265E+03</rscale>
<asrwt>0</asrwt>
<pdfrwt beam="1">  1        1 0.14553284E+00 0.42569815E+03</pdfrwt>
<pdfrwt beam="2">  1       -1 0.30912885E-01 0.42569815E+03</pdfrwt>
<totfact> 0.16871501E+02</totfact>
</mgrwt>
</event>
<event>
 8    1  0.3407580E-004  0.1660501E+03  0.7546771E-02  0.1189167E+00
          2   -1    0    0  501    0  0.00000000000E+00  0.00000000000E+00  0.59741072974E+03  0.59741072974E+03  0.00000000000E+00 0. -1.
         -2   -1    0    0    0  501 -0.00000000000E+00 -0.00000000000E+00 -0.56146600891E+02  0.56146600891E+02  0.00000000000E+00 0.  1.
         25    2    1    2    0    0 -0.10403221854E+03  0.33557809288E+02  0.10889083481E+03  0.19856953673E+03  0.12499527173E+03 0.  0.
         23    2    1    2    0    0  0.10403221854E+03 -0.33557809288E+02  0.43237329404E+03  0.45498779390E+03  0.90102153932E+02 0.  0.
          5    1    3    3  502    0 -0.49549672446E+02  0.58808498844E+02  0.34299287081E+01  0.77119802818E+02  0.47000000000E+01 0.  1.
         -5    1    3    3    0  502 -0.54482546091E+02 -0.25250689556E+02  0.10546090610E+03  0.12144973391E+03  0.47000000000E+01 0.  1.
          5    1    4    4  503    0  0.71235716344E+02 -0.60129655317E+02  0.23023165627E+03  0.24843270372E+03  0.47000000000E+01 0. -1.
         -5    1    4    4    0  503  0.32796502192E+02  0.26571846030E+02  0.20214163777E+03  0.20655509018E+03  0.47000000000E+01 0.  1.
<mgrwt>
<rscale>  0 0.15958437E+03</rscale>
<asrwt>0</asrwt>
<pdfrwt beam="1">  1        2 0.91909339E-01 0.16605013E+03</pdfrwt>
<pdfrwt beam="2">  1       -2 0.86379390E-02 0.16605013E+03</pdfrwt>
<totfact> 0.41574419E+03</totfact>
</mgrwt>
</event>
<event>
 8    1  0.3407580E-004  0.3320717E+03  0.7546771E-02  0.1071468E+00
         -1   -1    0    0    0  501 -0.00000000000E+00  0.00000000000E+00  0.95656778109E+02  0.95656778109E+02  0.00000000000E+00 0.  1.
          1   -1    0    0  501    0  0.00000000000E+00 -0.00000000000E+00 -0.11713470200E+04  0.11713470200E+04  0.00000000000E+00 0. -1.
         25    2    1    2    0    0  0.28675956851E+03 -0.11142106280E+03 -0.68614486304E+03  0.76227709907E+03  0.12500359725E+03 0.  0.
         23    2    1    2    0    0 -0.28675956851E+03  0.11142106280E+03 -0.38954537882E+03  0.50472669900E+03  0.91420649534E+02 0.  0.
          5    1    4    4  502    0 -0.11447991411E+03  0.87160868821E+02 -0.14276684361E+03  0.20274893199E+03  0.47000000000E+01 0. -1.
         -5    1    3    3    0  503  0.44599411281E+02 -0.19870621598E+02 -0.25241451033E+03  0.25713639204E+03  0.47000000000E+01 0. -1.
          5    1    3    3  503    0  0.24216015723E+03 -0.91550441207E+02 -0.43373035271E+03  0.50514070703E+03  0.47000000000E+01 0. -1.
         -5    1    4    4    0  502 -0.17227965440E+03  0.24260193984E+02 -0.24677853521E+03  0.30197776702E+03  0.47000000000E+01 0.  1.
<mgrwt>
<rscale>  0 0.32925346E+03</rscale>
<asrwt>0</asrwt>
<pdfrwt beam="1">  1        1 0.18020723E+00 0.33207168E+03</pdfrwt>
<pdfrwt beam="2">  1       -1 0.14716428E-01 0.33207168E+03</pdfrwt>
<totfact> 0.39673268E+02</totfact>
</mgrwt>
</event>
<event>
 8    1  0.3407580E-004  0.1366141E+03  0.7546771E-02  0.1230188E+00
          2   -1    0    0  501    0  0.00000000000E+00  0.00000000000E+00  0.61886088963E+03  0.61886088963E+03  0.00000000000E+00 0. -1.
         -2   -1    0    0    0  501 -0.00000000000E+00 -0.00000000000E+00 -0.34293891016E+02  0.34293891016E+02  0.00000000000E+00 0.  1.
         25    2    1    2    0    0  0.62265508713E+00  0.55135628563E+02  0.13789415987E+03  0.19410877174E+03  0.12499236258E+03 0.  0.
         23    2    1    2    0    0 -0.62265508713E+00 -0.55135628563E+02  0.44667283874E+03  0.45904600890E+03  0.90367517319E+02 0.  0.
          5    1    3    3  502    0 -0.17938590816E+02  0.80051314423E+02  0.14030189598E+03  0.16259372066E+03  0.47000000000E+01 0.  1.
         -5    1    4    4    0  503  0.25132842966E+02 -0.78746274903E+01  0.36096559665E+02  0.44930181096E+02  0.47000000000E+01 0.  1.
          5    1    4    4  503    0 -0.25755498053E+02 -0.47261001073E+02  0.41057627908E+03  0.41411582781E+03  0.47000000000E+01 0. -1.
         -5    1    3    3    0  502  0.18561245903E+02 -0.24915685860E+02 -0.24077361128E+01  0.31515051079E+02  0.47000000000E+01 0.  1.
<mgrwt>
<rscale>  0 0.12817578E+03</rscale>
<asrwt>0</asrwt>
<pdfrwt beam="1">  1        2 0.95209359E-01 0.13661411E+03</pdfrwt>
<pdfrwt beam="2">  1       -2 0.52759837E-02 0.13661411E+03</pdfrwt>
<totfact> 0.84126887E+03</totfact>
</mgrwt>
</event>
<event>
 8    1  0.3407580E-004  0.1504722E+03  0.7546771E-02  0.1209297E+00
         -4   -1    0    0    0  501 -0.00000000000E+00  0.00000000000E+00  0.53653013066E+02  0.53653013066E+02  0.00000000000E+00 0. -1.
          4   -1    0    0  501    0  0.00000000000E+00 -0.00000000000E+00 -0.35046766257E+03  0.35046766257E+03  0.00000000000E+00 0.  1.
         25    2    1    2    0    0 -0.10280041309E+02  0.83139121536E+02 -0.14693512725E+03  0.21031362561E+03  0.12499638682E+03 0.  0.
         23    2    1    2    0    0  0.10280041309E+02 -0.83139121536E+02 -0.14987952225E+03  0.19380705003E+03  0.89886087184E+02 0.  0.
          5    1    3    3  502    0  0.10218965784E+01  0.59046844944E+02 -0.16664754277E+03  0.17686454614E+03  0.47000000000E+01 0.  1.
         -5    1    3    3    0  502 -0.11301937887E+02  0.24092276592E+02  0.19712415523E+02  0.33449079466E+02  0.47000000000E+01 0.  1.
          5    1    4    4  503    0  0.46535682585E+02 -0.22424562952E+02 -0.67748523097E+02  0.85325161348E+02  0.47000000000E+01 0. -1.
         -5    1    4    4    0  503 -0.36255641276E+02 -0.60714558585E+02 -0.82130999157E+02  0.10848188868E+03  0.47000000000E+01 0.  1.
<mgrwt>
<rscale>  0 0.14303907E+03</rscale>
<asrwt>0</asrwt>
<pdfrwt beam="1">  1        4 0.53918101E-01 0.15047222E+03</pdfrwt>
<pdfrwt beam="2">  1       -4 0.82543099E-02 0.15047222E+03</pdfrwt>
<totfact> 0.58844295E+02</totfact>
</mgrwt>
</event>
<event>
 8    1  0.3407580E-004  0.1558039E+03  0.7546771E-02  0.1201654E+00
          2   -1    0    0  501    0  0.00000000000E+00  0.00000000000E+00  0.37427773728E+02  0.37427773728E+02  0.00000000000E+00 0. -1.
         -2   -1    0    0    0  501 -0.00000000000E+00 -0.00000000000E+00 -0.57431388485E+03  0.57431388485E+03  0.00000000000E+00 0.  1.
         25    2    1    2    0    0 -0.61891473010E+02  0.69402121448E+02 -0.22512910211E+03  0.27378452793E+03  0.12501058444E+03 0.  0.
         23    2    1    2    0    0  0.61891473010E+02 -0.69402121448E+02 -0.31175700901E+03  0.33795713065E+03  0.91517105489E+02 0.  0.
          5    1    4    4  502    0  0.61100512094E+02 -0.10617097883E+02 -0.96815553072E+02  0.11507100704E+03  0.47000000000E+01 0. -1.
         -5    1    4    4    0  502  0.79096091554E+00 -0.58785023565E+02 -0.21494145594E+03  0.22288612361E+03  0.47000000000E+01 0.  1.
          5    1    3    3  503    0 -0.53295858304E+02  0.92546634439E+02 -0.22449139190E+03  0.24864392833E+03  0.47000000000E+01 0.  1.
         -5    1    3    3    0  503 -0.85956147055E+01 -0.23144512991E+02 -0.63771020904E+00  0.25140599596E+02  0.47000000000E+01 0.  1.
<mgrwt>
<rscale>  0 0.14904312E+03</rscale>
<asrwt>0</asrwt>
<pdfrwt beam="1">  1        2 0.57581194E-02 0.15580390E+03</pdfrwt>
<pdfrwt beam="2">  1       -2 0.88355977E-01 0.15580390E+03</pdfrwt>
<totfact> 0.14474151E+03</totfact>
</mgrwt>
</event>
<event>
 8    1  0.3407580E-004  0.1369848E+03  0.7546771E-02  0.1227926E+00
         -2   -1    0    0    0  501 -0.00000000000E+00  0.00000000000E+00  0.98248253161E+02  0.98248253161E+02  0.00000000000E+00 0.  1.
          2   -1    0    0  501    0  0.00000000000E+00 -0.00000000000E+00 -0.16009598907E+03  0.16009598907E+03  0.00000000000E+00 0. -1.
         25    2    1    2    0    0  0.56013414516E+02  0.15558330167E+01 -0.11888767373E+02  0.13749970173E+03  0.12499960786E+03 0.  0.
         23    2    1    2    0    0 -0.56013414516E+02 -0.15558330167E+01 -0.49958968531E+02  0.12084454049E+03  0.94697313625E+02 0.  0.
          5    1    3    3  502    0  0.27204933619E+02 -0.57520509586E+02 -0.27981420024E+02  0.69668983794E+02  0.47000000000E+01 0. -1.
         -5    1    4    4    0  503 -0.77291025588E+02 -0.20188949952E+02 -0.28178089486E+02  0.84838617761E+02  0.47000000000E+01 0.  1.
          5    1    4    4  503    0  0.21277611072E+02  0.18633116935E+02 -0.21780879046E+02  0.36005922730E+02  0.47000000000E+01 0. -1.
         -5    1    3    3    0  502  0.28808480898E+02  0.59076342603E+02  0.16092652651E+02  0.67830717941E+02  0.47000000000E+01 0. -1.
<mgrwt>
<rscale>  0 0.12968389E+03</rscale>
<asrwt>0</asrwt>
<pdfrwt beam="1">  1        2 0.24630152E-01 0.13698476E+03</pdfrwt>
<pdfrwt beam="2">  1       -2 0.15115116E-01 0.13698476E+03</pdfrwt>
<totfact> 0.70173565E+03</totfact>
</mgrwt>
</event>
<event>
 8    1  0.3407580E-004  0.1353584E+03  0.7546771E-02  0.1228011E+00
          2   -1    0    0  501    0  0.00000000000E+00  0.00000000000E+00  0.24475984758E+03  0.24475984758E+03  0.00000000000E+00 0. -1.
         -2   -1    0    0    0  501 -0.00000000000E+00 -0.00000000000E+00 -0.68454349427E+02  0.68454349427E+02  0.00000000000E+00 0.  1.
         25    2    1    2    0    0  0.42402190714E+02 -0.29979363551E+02  0.52933611516E+02  0.14534053939E+03  0.12500078858E+03 0.  0.
         23    2    1    2    0    0 -0.42402190714E+02  0.29979363551E+02  0.12337188663E+03  0.16787365761E+03  0.10131255842E+03 0.  0.
          5    1    3    3  502    0  0.36935127596E+02  0.41947597552E+02  0.46336444390E+02  0.72752736510E+02  0.47000000000E+01 0. -1.
         -5    1    4    4    0  503 -0.66633060680E+02  0.25339522110E+02  0.42358213957E+02  0.83056393167E+02  0.47000000000E+01 0.  1.
          5    1    4    4  503    0  0.24230869966E+02  0.46398414417E+01  0.81013672675E+02  0.84817264447E+02  0.47000000000E+01 0. -1.
         -5    1    3    3    0  502  0.54670631181E+01 -0.71926961103E+02  0.65971671261E+01  0.72587802879E+02  0.47000000000E+01 0. -1.
<mgrwt>
<rscale>  0 0.12962643E+03</rscale>
<asrwt>0</asrwt>
<pdfrwt beam="1">  1        2 0.37655361E-01 0.13535843E+03</pdfrwt>
<pdfrwt beam="2">  1       -2 0.10531439E-01 0.13535843E+03</pdfrwt>
<totfact> 0.79071774E+03</totfact>
</mgrwt>
</event>
<event>
 8    1  0.3407580E-004  0.1405929E+03  0.7546771E-02  0.1224734E+00
         -1   -1    0    0    0  501 -0.00000000000E+00  0.00000000000E+00  0.14375859073E+03  0.14375859073E+03  0.00000000000E+00 0.  1.
          1   -1    0    0  501    0  0.00000000000E+00 -0.00000000000E+00 -0.20156160460E+03  0.20156160460E+03  0.00000000000E+00 0. -1.
         25    2    1    2    0    0  0.26168377600E+02 -0.58786836121E+02 -0.14792340741E+03  0.20407764407E+03  0.12500269703E+03 0.  0.
         23    2    1    2    0    0 -0.26168377600E+02  0.58786836121E+02  0.90120393538E+02  0.14124255126E+03  0.87676090623E+02 0.  0.
          5    1    4    4  502    0  0.22066722972E+02  0.34455772212E+02  0.66724403601E+01  0.41722319708E+02  0.47000000000E+01 0. -1.
         -5    1    3    3    0  503 -0.37600623418E+02 -0.88964970621E+01 -0.43302827310E+01  0.39163706285E+02  0.47000000000E+01 0.  1.
          5    1    3    3  503    0  0.63769001018E+02 -0.49890339059E+02 -0.14359312468E+03  0.16491393779E+03  0.47000000000E+01 0.  1.
         -5    1    4    4    0  502 -0.48235100572E+02  0.24331063909E+02  0.83447953178E+02  0.99520231550E+02  0.47000000000E+01 0.  1.
<mgrwt>
<rscale>  0 0.13185157E+03</rscale>
<asrwt>0</asrwt>
<pdfrwt beam="1">  1        1 0.31009478E-01 0.14059285E+03</pdfrwt>
<pdfrwt beam="2">  1       -1 0.22116706E-01 0.14059285E+03</pdfrwt>
<totfact> 0.24145549E+03</totfact>
</mgrwt>
</event>
<event>
 8    1  0.3407580E-004  0.1350162E+03  0.7546771E-02  0.1232042E+00
         -2   -1    0    0    0  501 -0.00000000000E+00  0.00000000000E+00  0.18001593112E+02  0.18001593112E+02  0.00000000000E+00 0.  1.
          2   -1    0    0  501    0  0.00000000000E+00 -0.00000000000E+00 -0.80540438073E+03  0.80540438073E+03  0.00000000000E+00 0. -1.
         25    2    1    2    0    0 -0.50497315920E+02 -0.72914947824E+01 -0.42319245889E+03  0.44420855031E+03  0.12500493627E+03 0.  0.
         23    2    1    2    0    0  0.50497315920E+02  0.72914947824E+01 -0.36421032873E+03  0.37919742354E+03  0.92403342222E+02 0.  0.
          5    1    4    4  502    0  0.55626585206E+02  0.32327557385E+02 -0.14822127044E+03  0.16165092935E+03  0.47000000000E+01 0. -1.
         -5    1    3    3    0  503  0.17549814656E+02  0.23736842789E+02 -0.24829895485E+02  0.38859328479E+02  0.47000000000E+01 0. -1.
          5    1    3    3  503    0 -0.68047130575E+02 -0.31028337572E+02 -0.39836256341E+03  0.40534922183E+03  0.47000000000E+01 0. -1.
         -5    1    4    4    0  502 -0.51292692859E+01 -0.25036062602E+02 -0.21598905829E+03  0.21754649419E+03  0.47000000000E+01 0.  1.
<mgrwt>
<rscale>  0 0.12695725E+03</rscale>
<asrwt>0</asrwt>
<pdfrwt beam="1">  1        2 0.12390835E+00 0.13501622E+03</pdfrwt>
<pdfrwt beam="2">  1       -2 0.27694763E-02 0.13501622E+03</pdfrwt>
<totfact> 0.15978926E+04</totfact>
</mgrwt>
</event>
<event>
 8    1  0.3407580E-004  0.1299436E+03  0.7546771E-02  0.1241532E+00
         -1   -1    0    0    0  501 -0.00000000000E+00  0.00000000000E+00  0.37686773379E+02  0.37686773379E+02  0.00000000000E+00 0.  1.
          1   -1    0    0  501    0  0.00000000000E+00 -0.00000000000E+00 -0.34561946069E+03  0.34561946069E+03  0.00000000000E+00 0. -1.
         25    2    1    2    0    0  0.33809398620E+02  0.10742932214E+02 -0.16021668019E+03  0.20628794723E+03  0.12500738591E+03 0.  0.
         23    2    1    2    0    0 -0.33809398620E+02 -0.10742932214E+02 -0.14771600712E+03  0.17701828684E+03  0.90867866096E+02 0.  0.
          5    1    4    4  502    0 -0.50283354362E+02 -0.23812687971E+02 -0.44002003660E+02  0.71089564356E+02  0.47000000000E+01 0.  1.
         -5    1    3    3    0  503  0.33645930522E+02 -0.52915682307E+02 -0.56687366183E+02  0.84662066827E+02  0.47000000000E+01 0. -1.
          5    1    3    3  503    0  0.16346809808E+00  0.63658614521E+02 -0.10352931401E+03  0.12162588040E+03  0.47000000000E+01 0. -1.
         -5    1    4    4    0  502  0.16473955742E+02  0.13069755758E+02 -0.10371400346E+03  0.10592872249E+03  0.47000000000E+01 0. -1.
<mgrwt>
<rscale>  0 0.12095388E+03</rscale>
<asrwt>0</asrwt>
<pdfrwt beam="1">  1        1 0.53172225E-01 0.12994357E+03</pdfrwt>
<pdfrwt beam="2">  1       -1 0.57979651E-02 0.12994357E+03</pdfrwt>
<totfact> 0.97247071E+03</totfact>
</mgrwt>
</event>
<event>
 8    1  0.3407580E-004  0.1495694E+03  0.7546771E-02  0.1209815E+00
          2   -1    0    0  501    0  0.00000000000E+00  0.00000000000E+00  0.76498790470E+02  0.76498790470E+02  0.00000000000E+00 0. -1.
         -2   -1    0    0    0  501 -0.00000000000E+00 -0.00000000000E+00 -0.33412564088E+03  0.33412564088E+03  0.00000000000E+00 0.  1.
         25    2    1    2    0    0  0.57831385208E+02 -0.58324671026E+02 -0.24393128966E+03  0.28613543253E+03  0.12499910123E+03 0.  0.
         23    2    1    2    0    0 -0.57831385208E+02  0.58324671026E+02 -0.13695560749E+02  0.12448899882E+03  0.92540294346E+02 0.  0.
          5    1    3    3  502    0  0.64377302496E+02 -0.82803508375E+02 -0.23735458686E+03  0.25953833624E+03  0.47000000000E+01 0.  1.
         -5    1    3    3    0  502 -0.65459172878E+01  0.24478837349E+02 -0.65767027981E+01  0.26597096285E+02  0.47000000000E+01 0.  1.
          5    1    4    4  503    0 -0.25736874721E+02  0.51183224243E+01  0.35992420282E+02  0.44789823204E+02  0.47000000000E+01 0. -1.
         -5    1    4    4    0  503 -0.32094510487E+02  0.53206348602E+02 -0.49687981031E+02  0.79699175616E+02  0.47000000000E+01 0.  1.
<mgrwt>
<rscale>  0 0.14264410E+03</rscale>
<asrwt>0</asrwt>
<pdfrwt beam="1">  1        2 0.11769044E-01 0.14956942E+03</pdfrwt>
<pdfrwt beam="2">  1       -2 0.51403946E-01 0.14956942E+03</pdfrwt>
<totfact> 0.18499558E+03</totfact>
</mgrwt>
</event>
<event>
 8    1  0.3407580E-004  0.1375997E+03  0.7546771E-02  0.1228037E+00
          2   -1    0    0  501    0  0.00000000000E+00  0.00000000000E+00  0.14726495674E+04  0.14726495674E+04  0.00000000000E+00 0. -1.
         -2   -1    0    0    0  501 -0.00000000000E+00 -0.00000000000E+00 -0.12591697802E+02  0.12591697802E+02  0.00000000000E+00 0.  1.
         25    2    1    2    0    0 -0.30570150220E+02  0.48723043904E+02  0.11181932090E+04  0.11266275924E+04  0.12500084051E+03 0.  0.
         23    2    1    2    0    0  0.30570150220E+02 -0.48723043904E+02  0.34186466062E+03  0.35861367286E+03  0.91781540035E+02 0.  0.
          5    1    3    3  502    0 -0.76504715857E+02  0.47177616761E+02  0.81112638370E+03  0.81610464979E+03  0.47000000000E+01 0.  1.
         -5    1    3    3    0  502  0.45934565637E+02  0.15454271434E+01  0.30706682530E+03  0.31052294257E+03  0.47000000000E+01 0.  1.
          5    1    4    4  503    0  0.29243200725E+02  0.21636807037E+02  0.93772579551E+02  0.10069112614E+03  0.47000000000E+01 0. -1.
         -5    1    4    4    0  503  0.13269494947E+01 -0.70359850941E+02  0.24809208107E+03  0.25792254673E+03  0.47000000000E+01 0.  1.
<mgrwt>
<rscale>  0 0.12960929E+03</rscale>
<asrwt>0</asrwt>
<pdfrwt beam="1">  1        2 0.22656134E+00 0.13759971E+03</pdfrwt>
<pdfrwt beam="2">  1       -2 0.19371854E-02 0.13759971E+03</pdfrwt>
<totfact> 0.11133932E+04</totfact>
</mgrwt>
</event>
<event>
 8    1  0.3407580E-004  0.1917136E+03  0.7546771E-02  0.1161698E+00
          2   -1    0    0  501    0  0.00000000000E+00  0.00000000000E+00  0.14982909586E+04  0.14982909586E+04  0.00000000000E+00 0. -1.
         -2   -1    0    0    0  501 -0.00000000000E+00 -0.00000000000E+00 -0.22556099134E+02  0.22556099134E+02  0.00000000000E+00 0.  1.
         25    2    1    2    0    0  0.10776626442E+03 -0.97533902639E+02  0.89538262196E+03  0.91567687806E+03  0.12501070109E+03 0.  0.
         23    2    1    2    0    0 -0.10776626442E+03  0.97533902639E+02  0.58035223755E+03  0.60517017973E+03  0.91081265283E+02 0.  0.
          5    1    4    4  502    0 -0.63587494258E+02  0.21484273827E+02  0.13101135372E+03  0.14727867548E+03  0.47000000000E+01 0. -1.
         -5    1    4    4    0  502 -0.44178770159E+02  0.76049628813E+02  0.44934088384E+03  0.45789150425E+03  0.47000000000E+01 0.  1.
          5    1    3    3  503    0  0.62034448141E+01  0.19539214368E+02  0.30776313653E+02  0.37276468552E+02  0.47000000000E+01 0. -1.
         -5    1    3    3    0  503  0.10156281960E+03 -0.11707311701E+03  0.86460630831E+03  0.87840040950E+03  0.47000000000E+01 0. -1.
<mgrwt>
<rscale>  0 0.18645504E+03</rscale>
<asrwt>0</asrwt>
<pdfrwt beam="1">  1        2 0.23050622E+00 0.19171360E+03</pdfrwt>
<pdfrwt beam="2">  1       -2 0.34701703E-02 0.19171360E+03</pdfrwt>
<totfact> 0.46295990E+03</totfact>
</mgrwt>
</event>
<event>
 8    1  0.3407580E-004  0.1254463E+03  0.7546771E-02  0.1249588E+00
         -2   -1    0    0    0  501 -0.00000000000E+00  0.00000000000E+00  0.84147130619E+01  0.84147130619E+01  0.00000000000E+00 0. -1.
          2   -1    0    0  501    0  0.00000000000E+00 -0.00000000000E+00 -0.14447898967E+04  0.14447898967E+04  0.00000000000E+00 0.  1.
         25    2    1    2    0    0  0.22892386974E+01 -0.10299395846E+02 -0.94086351534E+03  0.94918961604E+03  0.12500181811E+03 0.  0.
         23    2    1    2    0    0 -0.22892386974E+01  0.10299395846E+02 -0.49551166835E+03  0.50401499377E+03  0.91585928557E+02 0.  0.
          5    1    4    4  502    0  0.17495386964E+02 -0.36171895984E+02 -0.25744658263E+03  0.26060569359E+03  0.47000000000E+01 0. -1.
         -5    1    3    3    0  503  0.58891078773E+02  0.12484057854E+02 -0.35054428748E+03  0.35570689949E+03  0.47000000000E+01 0. -1.
          5    1    3    3  503    0 -0.56601840076E+02 -0.22783453700E+02 -0.59031922786E+03  0.59348271655E+03  0.47000000000E+01 0. -1.
         -5    1    4    4    0  502 -0.19784625661E+02  0.46471291830E+02 -0.23806508572E+03  0.24340930018E+03  0.47000000000E+01 0.  1.
<mgrwt>
<rscale>  0 0.11614921E+03</rscale>
<asrwt>0</asrwt>
<pdfrwt beam="1">  1        2 0.22227531E+00 0.12544629E+03</pdfrwt>
<pdfrwt beam="2">  1       -2 0.12945716E-02 0.12544629E+03</pdfrwt>
<totfact> 0.20488930E+04</totfact>
</mgrwt>
</event>
<event>
 8    1  0.3407580E-004  0.1299858E+03  0.7546771E-02  0.1240400E+00
          1   -1    0    0  501    0  0.00000000000E+00  0.00000000000E+00  0.21627026333E+03  0.21627026333E+03  0.00000000000E+00 0. -1.
         -1   -1    0    0    0  501 -0.00000000000E+00 -0.00000000000E+00 -0.60996739086E+02  0.60996739086E+02  0.00000000000E+00 0.  1.
         25    2    1    2    0    0 -0.32161796367E+02 -0.15414809060E+02  0.89228295164E+02  0.15766417526E+03  0.12499722404E+03 0.  0.
         23    2    1    2    0    0  0.32161796367E+02  0.15414809060E+02  0.66045229075E+02  0.11960282715E+03  0.93117487594E+02 0.  0.
          5    1    4    4  502    0 -0.20918723296E+02 -0.18577756427E+01  0.59417210515E+02  0.63194455612E+02  0.47000000000E+01 0. -1.
         -5    1    4    4    0  502  0.53080519663E+02  0.17272584702E+02  0.66280185602E+01  0.56408371542E+02  0.47000000000E+01 0.  1.
          5    1    3    3  503    0 -0.72686504198E+01  0.39995430204E+02  0.87633082311E+02  0.96716672976E+02  0.47000000000E+01 0. -1.
         -5    1    3    3    0  503 -0.24893145947E+02 -0.55410239264E+02  0.15952128534E+01  0.60947502282E+02  0.47000000000E+01 0. -1.
<mgrwt>
<rscale>  0 0.12164964E+03</rscale>
<asrwt>0</asrwt>
<pdfrwt beam="1">  1        1 0.33272348E-01 0.12998578E+03</pdfrwt>
<pdfrwt beam="2">  1       -1 0.93841138E-02 0.12998578E+03</pdfrwt>
<totfact> 0.84266896E+03</totfact>
</mgrwt>
</event>
<event>
 8    1  0.3407580E-004  0.1250305E+03  0.7546771E-02  0.1251787E+00
          1   -1    0    0  501    0  0.00000000000E+00  0.00000000000E+00  0.58981038641E+03  0.58981038641E+03  0.00000000000E+00 0. -1.
         -1   -1    0    0    0  501 -0.00000000000E+00 -0.00000000000E+00 -0.19691146397E+02  0.19691146397E+02  0.00000000000E+00 0.  1.
         25    2    1    2    0    0  0.28636900322E+01  0.13491661352E+01  0.36629983109E+03  0.38705062151E+03  0.12499038516E+03 0.  0.
         23    2    1    2    0    0 -0.28636900322E+01 -0.13491661352E+01  0.20381940892E+03  0.22245091130E+03  0.89061975697E+02 0.  0.
          5    1    3    3  502    0 -0.38878872600E+02  0.44274725503E+02  0.12326417857E+03  0.13670393473E+03  0.47000000000E+01 0. -1.
         -5    1    4    4    0  503  0.19153817121E+02  0.33414635758E+02  0.50785031146E+02  0.63911000475E+02  0.47000000000E+01 0.  1.
          5    1    4    4  503    0 -0.22017507153E+02 -0.34763801893E+02  0.15303437778E+03  0.15853991083E+03  0.47000000000E+01 0. -1.
         -5    1    3    3    0  502  0.41742562633E+02 -0.42925559368E+02  0.24303565252E+03  0.25034668678E+03  0.47000000000E+01 0. -1.
<mgrwt>
<rscale>  0 0.11488240E+03</rscale>
<asrwt>0</asrwt>
<pdfrwt beam="1">  1        1 0.90740046E-01 0.12503047E+03</pdfrwt>
<pdfrwt beam="2">  1       -1 0.30294076E-02 0.12503047E+03</pdfrwt>
<totfact> 0.12660006E+04</totfact>
</mgrwt>
</event>
<event>
 8    1  0.3407580E-004  0.2649345E+03  0.7546771E-02  0.1106241E+00
         -1   -1    0    0    0  501 -0.00000000000E+00  0.00000000000E+00  0.85478669238E+02  0.85478669238E+02  0.00000000000E+00 0.  1.
          1   -1    0    0  501    0  0.00000000000E+00 -0.00000000000E+00 -0.12521398495E+04  0.12521398495E+04  0.00000000000E+00 0. -1.
         25    2    1    2    0    0 -0.70678661402E+02 -0.22264222266E+03 -0.10033964754E+04  0.10377835865E+04  0.12500101236E+03 0.  0.
         23    2    1    2    0    0  0.70678661402E+02  0.22264222266E+03 -0.16326470487E+03  0.29983493223E+03  0.93169685223E+02 0.  0.
          5    1    4    4  502    0  0.35013832091E+02  0.11386951911E+03 -0.13827033364E+03  0.18257330304E+03  0.47000000000E+01 0. -1.
         -5    1    4    4    0  502  0.35664829310E+02  0.10877270355E+03 -0.24994371230E+02  0.11726162920E+03  0.47000000000E+01 0.  1.
          5    1    3    3  503    0 -0.10384564719E+03 -0.15163781770E+03 -0.76547875468E+03  0.78724694986E+03  0.47000000000E+01 0.  1.
         -5    1    3    3    0  503  0.33166985791E+02 -0.71004404965E+02 -0.23791772075E+03  0.25053663667E+03  0.47000000000E+01 0.  1.
<mgrwt>
<rscale>  0 0.26150662E+03</rscale>
<asrwt>0</asrwt>
<pdfrwt beam="1">  1        1 0.19263689E+00 0.26493449E+03</pdfrwt>
<pdfrwt beam="2">  1       -1 0.13150565E-01 0.26493449E+03</pdfrwt>
<totfact> 0.41951960E+02</totfact>
</mgrwt>
</event>
<event>
 8    1  0.3407580E-004  0.1818511E+03  0.7546771E-02  0.1170620E+00
         -2   -1    0    0    0  501 -0.00000000000E+00  0.00000000000E+00  0.93829577685E+03  0.93829577685E+03  0.00000000000E+00 0.  1.
          2   -1    0    0  501    0  0.00000000000E+00 -0.00000000000E+00 -0.55057163506E+02  0.55057163506E+02  0.00000000000E+00 0. -1.
         25    2    1    2    0    0 -0.11798218896E+02  0.13155526301E+03  0.77756541333E+03  0.79854731268E+03  0.12499541345E+03 0.  0.
         23    2    1    2    0    0  0.11798218896E+02 -0.13155526301E+03  0.10567320001E+03  0.19480562768E+03  0.96625163276E+02 0.  0.
          5    1    4    4  502    0  0.34803848711E+02 -0.77659480383E+02  0.14699349338E+02  0.86489673658E+02  0.47000000000E+01 0. -1.
         -5    1    4    4    0  502 -0.23005629815E+02 -0.53895782629E+02  0.90973850675E+02  0.10831595402E+03  0.47000000000E+01 0.  1.
          5    1    3    3  503    0 -0.37012121808E+02  0.14670096313E+03  0.62181543959E+03  0.63997468751E+03  0.47000000000E+01 0.  1.
         -5    1    3    3    0  503  0.25213902913E+02 -0.15145700116E+02  0.15574997374E+03  0.15857262517E+03  0.47000000000E+01 0.  1.
<mgrwt>
<rscale>  0 0.17712026E+03</rscale>
<asrwt>0</asrwt>
<pdfrwt beam="1">  1        2 0.84703336E-02 0.18185114E+03</pdfrwt>
<pdfrwt beam="2">  1       -2 0.14435318E+00 0.18185114E+03</pdfrwt>
<totfact> 0.27578569E+02</totfact>
</mgrwt>
</event>
<event>
 8    1  0.3407580E-004  0.2430099E+03  0.7546771E-02  0.1120509E+00
          2   -1    0    0  501    0  0.00000000000E+00  0.00000000000E+00  0.65390159725E+03  0.65390159725E+03  0.00000000000E+00 0. -1.
         -2   -1    0    0    0  501 -0.00000000000E+00 -0.00000000000E+00 -0.11727499347E+03  0.11727499347E+03  0.00000000000E+00 0.  1.
         25    2    1    2    0    0  0.20227051773E+03 -0.50152650685E+02  0.47864424299E+03  0.53679989827E+03  0.12500067489E+03 0.  0.
         23    2    1    2    0    0 -0.20227051773E+03  0.50152650685E+02  0.57982360795E+02  0.23437669245E+03  0.90232084574E+02 0.  0.
          5    1    4    4  502    0 -0.16844460903E+03  0.32056971051E+02  0.80676567572E+02  0.18955746954E+03  0.47000000000E+01 0. -1.
         -5    1    4    4    0  502 -0.33825908708E+02  0.18095679634E+02 -0.22694206777E+02  0.44819222914E+02  0.47000000000E+01 0.  1.
          5    1    3    3  503    0  0.93427778513E+02  0.26708326910E+02  0.28933329074E+03  0.30525059812E+03  0.47000000000E+01 0.  1.
         -5    1    3    3    0  503  0.10884273922E+03 -0.76860977595E+02  0.18931095225E+03  0.23154930015E+03  0.47000000000E+01 0.  1.
<mgrwt>
<rscale>  0 0.23892860E+03</rscale>
<asrwt>0</asrwt>
<pdfrwt beam="1">  1        2 0.10060024E+00 0.24300992E+03</pdfrwt>
<pdfrwt beam="2">  1       -2 0.18042307E-01 0.24300992E+03</pdfrwt>
<totfact> 0.11436192E+03</totfact>
</mgrwt>
</event>
<event>
 8    1  0.3407580E-004  0.1527834E+03  0.7546771E-02  0.1206238E+00
         -2   -1    0    0    0  501 -0.00000000000E+00  0.00000000000E+00  0.15937467327E+03  0.15937467327E+03  0.00000000000E+00 0.  1.
          2   -1    0    0  501    0  0.00000000000E+00 -0.00000000000E+00 -0.12268336796E+03  0.12268336796E+03  0.00000000000E+00 0. -1.
         25    2    1    2    0    0  0.87814221996E+02 -0.21592524971E+01  0.54126439339E+01  0.15287919905E+03  0.12500701113E+03 0.  0.
         23    2    1    2    0    0 -0.87814221996E+02  0.21592524971E+01  0.31278661380E+02  0.12917884219E+03  0.89402565146E+02 0.  0.
          5    1    4    4  502    0 -0.79014770652E+02  0.36957013375E+02  0.31829726867E+02  0.92975138243E+02  0.47000000000E+01 0. -1.
         -5    1    3    3    0  503  0.75094808557E+02  0.42172696549E+02 -0.33322187726E+02  0.92467425623E+02  0.47000000000E+01 0.  1.
          5    1    3    3  503    0  0.12719413438E+02 -0.44331949047E+02  0.38734831659E+02  0.60411773423E+02  0.47000000000E+01 0.  1.
         -5    1    4    4    0  502 -0.87994513434E+01 -0.34797760878E+02 -0.55106548730E+00  0.36203703943E+02  0.47000000000E+01 0.  1.
<mgrwt>
<rscale>  0 0.14540354E+03</rscale>
<asrwt>0</asrwt>
<pdfrwt beam="1">  1        2 0.18874364E-01 0.15278335E+03</pdfrwt>
<pdfrwt beam="2">  1       -2 0.24519181E-01 0.15278335E+03</pdfrwt>
<totfact> 0.42121559E+03</totfact>
</mgrwt>
</event>
<event>
 8    1  0.3407580E-004  0.1268075E+03  0.7546771E-02  0.1245343E+00
         -2   -1    0    0    0  501 -0.00000000000E+00  0.00000000000E+00  0.48372115030E+02  0.48372115030E+02  0.00000000000E+00 0.  1.
          2   -1    0    0  501    0  0.00000000000E+00 -0.00000000000E+00 -0.25972066669E+03  0.25972066669E+03  0.00000000000E+00 0. -1.
         25    2    1    2    0    0 -0.11319216507E+02  0.18068782907E+02 -0.11358534610E+03  0.17024035658E+03  0.12500217030E+03 0.  0.
         23    2    1    2    0    0  0.11319216507E+02 -0.18068782907E+02 -0.97763205556E+02  0.13785242514E+03  0.94821100915E+02 0.  0.
          5    1    3    3  502    0  0.17634295461E+02 -0.49332362904E+02 -0.56293082085E+02  0.77043179430E+02  0.47000000000E+01 0. -1.
         -5    1    3    3    0  502 -0.28953511968E+02  0.67401145811E+02 -0.57292264017E+02  0.93197177147E+02  0.47000000000E+01 0. -1.
          5    1    4    4  503    0 -0.28409568072E+02 -0.39741930415E+02 -0.34772238548E+02  0.60147511709E+02  0.47000000000E+01 0.  1.
         -5    1    4    4    0  503  0.39728784579E+02  0.21673147508E+02 -0.62990967008E+02  0.77704913433E+02  0.47000000000E+01 0. -1.
<mgrwt>
<rscale>  0 0.11864863E+03</rscale>
<asrwt>0</asrwt>
<pdfrwt beam="1">  1        2 0.39957025E-01 0.12680752E+03</pdfrwt>
<pdfrwt beam="2">  1       -2 0.74418639E-02 0.12680752E+03</pdfrwt>
<totfact> 0.12674252E+04</totfact>
</mgrwt>
</event>
<event>
 8    1  0.3407580E-004  0.1674829E+03  0.7546771E-02  0.1187247E+00
          4   -1    0    0  501    0  0.00000000000E+00  0.00000000000E+00  0.10201948922E+04  0.10201948922E+04  0.00000000000E+00 0. -1.
         -4   -1    0    0    0  501 -0.00000000000E+00 -0.00000000000E+00 -0.23852996196E+02  0.23852996196E+02  0.00000000000E+00 0.  1.
         25    2    1    2    0    0 -0.60279344247E+02 -0.93747665473E+02  0.50741767736E+03  0.53434372819E+03  0.12501318505E+03 0.  0.
         23    2    1    2    0    0  0.60279344247E+02  0.93747665473E+02  0.48892421864E+03  0.50970416020E+03  0.91264534337E+02 0.  0.
          5    1    4    4  502    0  0.11339852923E+02  0.93699919185E+02  0.30344018837E+03  0.31781489115E+03  0.47000000000E+01 0. -1.
         -5    1    4    4    0  502  0.48939491324E+02  0.47746287873E-01  0.18548403027E+03  0.19188926905E+03  0.47000000000E+01 0.  1.
          5    1    3    3  503    0  0.60716881569E+00 -0.60182820543E+02  0.74667967492E+02  0.96019455902E+02  0.47000000000E+01 0. -1.
         -5    1    3    3    0  503 -0.60886513062E+02 -0.33564844930E+02  0.43274970986E+03  0.43832427229E+03  0.47000000000E+01 0. -1.
<mgrwt>
<rscale>  0 0.16129053E+03</rscale>
<asrwt>0</asrwt>
<pdfrwt beam="1">  1        4 0.15695303E+00 0.16748290E+03</pdfrwt>
<pdfrwt beam="2">  1       -4 0.36696925E-02 0.16748290E+03</pdfrwt>
<totfact> 0.19227121E+02</totfact>
</mgrwt>
</event>
<event>
 8    1  0.3407580E-004  0.1456592E+03  0.7546771E-02  0.1217745E+00
          1   -1    0    0  501    0  0.00000000000E+00  0.00000000000E+00  0.28377668345E+02  0.28377668345E+02  0.00000000000E+00 0. -1.
         -1   -1    0    0    0  501 -0.00000000000E+00 -0.00000000000E+00 -0.65318640745E+03  0.65318640745E+03  0.00000000000E+00 0.  1.
         25    2    1    2    0    0  0.11198843848E+02  0.73926759605E+02 -0.45267374886E+03  0.47553141758E+03  0.12500410517E+03 0.  0.
         23    2    1    2    0    0 -0.11198843848E+02 -0.73926759605E+02 -0.17213499025E+03  0.20603265822E+03  0.85020124061E+02 0.  0.
          5    1    3    3  502    0  0.40538012809E+02  0.44568088357E+02 -0.78660201059E+02  0.99192551197E+02  0.47000000000E+01 0. -1.
         -5    1    3    3    0  502 -0.29339168961E+02  0.29358671249E+02 -0.37401354780E+03  0.37633886638E+03  0.47000000000E+01 0. -1.
          5    1    4    4  503    0 -0.44378606810E+02 -0.33301277670E+02 -0.11815765642E+03  0.13062066302E+03  0.47000000000E+01 0. -1.
         -5    1    4    4    0  503  0.33179762963E+02 -0.40625481936E+02 -0.53977333833E+02  0.75411995203E+02  0.47000000000E+01 0.  1.
<mgrwt>
<rscale>  0 0.13676824E+03</rscale>
<asrwt>0</asrwt>
<pdfrwt beam="1">  1        1 0.43657956E-02 0.14565921E+03</pdfrwt>
<pdfrwt beam="2">  1       -1 0.10049021E+00 0.14565921E+03</pdfrwt>
<totfact> 0.19543204E+03</totfact>
</mgrwt>
</event>
<event>
 8    1  0.3407580E-004  0.1874643E+03  0.7546771E-02  0.1166061E+00
          1   -1    0    0  501    0  0.00000000000E+00  0.00000000000E+00  0.81556846441E+02  0.81556846441E+02  0.00000000000E+00 0. -1.
         -1   -1    0    0    0  501 -0.00000000000E+00 -0.00000000000E+00 -0.38977620845E+03  0.38977620845E+03  0.00000000000E+00 0.  1.
         25    2    1    2    0    0  0.12030628927E+03 -0.71018282979E+02 -0.19514428761E+03  0.27059964825E+03  0.12500270754E+03 0.  0.
         23    2    1    2    0    0 -0.12030628927E+03  0.71018282979E+02 -0.11307507439E+03  0.20073340663E+03  0.89390873895E+02 0.  0.
          5    1    4    4  502    0 -0.10911882660E+03  0.17537817362E+02 -0.68977040886E+02  0.13036263086E+03  0.47000000000E+01 0. -1.
         -5    1    4    4    0  502 -0.11187462669E+02  0.53480465617E+02 -0.44098033507E+02  0.70370775772E+02  0.47000000000E+01 0.  1.
          5    1    3    3  503    0  0.35493686089E+02 -0.73979985942E+02 -0.15747361163E+03  0.17763127099E+03  0.47000000000E+01 0. -1.
         -5    1    3    3    0  503  0.84812603177E+02  0.29617029623E+01 -0.37670675976E+02  0.92968377262E+02  0.47000000000E+01 0. -1.
<mgrwt>
<rscale>  0 0.18181145E+03</rscale>
<asrwt>0</asrwt>
<pdfrwt beam="1">  1        1 0.12547207E-01 0.18746433E+03</pdfrwt>
<pdfrwt beam="2">  1       -1 0.59965571E-01 0.18746433E+03</pdfrwt>
<totfact> 0.13612870E+03</totfact>
</mgrwt>
</event>
<event>
 8    1  0.3407580E-004  0.1573623E+03  0.7546771E-02  0.1199176E+00
         -1   -1    0    0    0  501 -0.00000000000E+00  0.00000000000E+00  0.57001435581E+03  0.57001435581E+03  0.00000000000E+00 0.  1.
          1   -1    0    0  501    0  0.00000000000E+00 -0.00000000000E+00 -0.38714906877E+02  0.38714906877E+02  0.00000000000E+00 0. -1.
         25    2    1    2    0    0  0.93259070289E+02 -0.20980402071E+02  0.34767653861E+03  0.38163055196E+03  0.12500188489E+03 0.  0.
         23    2    1    2    0    0 -0.93259070289E+02  0.20980402071E+02  0.18362291033E+03  0.22709871073E+03  0.93375691471E+02 0.  0.
          5    1    3    3  502    0 -0.22903460296E+02 -0.29624829201E+02  0.12075447850E+03  0.12651455678E+03  0.47000000000E+01 0. -1.
         -5    1    3    3    0  502  0.11616253058E+03  0.86444271301E+01  0.22692206011E+03  0.25511599518E+03  0.47000000000E+01 0. -1.
          5    1    4    4  503    0 -0.28464657359E+02 -0.33511199887E+02  0.36705959924E+02  0.57468728282E+02  0.47000000000E+01 0. -1.
         -5    1    4    4    0  503 -0.64794412930E+02  0.54491601958E+02  0.14691695040E+03  0.16962998245E+03  0.47000000000E+01 0.  1.
<mgrwt>
<rscale>  0 0.15106017E+03</rscale>
<asrwt>0</asrwt>
<pdfrwt beam="1">  1        1 0.59561399E-02 0.15736233E+03</pdfrwt>
<pdfrwt beam="2">  1       -1 0.87694510E-01 0.15736233E+03</pdfrwt>
<totfact> 0.17187088E+03</totfact>
</mgrwt>
</event>
<event>
 8    1  0.3407580E-004  0.1330455E+03  0.7546771E-02  0.1235097E+00
          2   -1    0    0  501    0  0.00000000000E+00  0.00000000000E+00  0.94530697239E+03  0.94530697239E+03  0.00000000000E+00 0. -1.
         -2   -1    0    0    0  501 -0.00000000000E+00 -0.00000000000E+00 -0.16292917314E+02  0.16292917314E+02  0.00000000000E+00 0.  1.
         25    2    1    2    0    0  0.36588612611E+02 -0.27148035339E+02  0.66100314666E+03  0.67425978828E+03  0.12500143920E+03 0.  0.
         23    2    1    2    0    0 -0.36588612611E+02  0.27148035339E+02  0.26801090842E+03  0.28734010143E+03  0.93052374824E+02 0.  0.
          5    1    4    4  502    0 -0.17188843228E+02  0.20808096747E+02  0.26472677141E+03  0.26614053942E+03  0.47000000000E+01 0. -1.
         -5    1    3    3    0  503 -0.13134367972E+02  0.37123301739E+02  0.10334979340E+03  0.11069742974E+03  0.47000000000E+01 0. -1.
          5    1    3    3  503    0  0.49722980582E+02 -0.64271337078E+02  0.55765335325E+03  0.56356235854E+03  0.47000000000E+01 0. -1.
         -5    1    4    4    0  502 -0.19399769383E+02  0.63399385927E+01  0.32841370129E+01  0.21199562009E+02  0.47000000000E+01 0.  1.
<mgrwt>
<rscale>  0 0.12498209E+03</rscale>
<asrwt>0</asrwt>
<pdfrwt beam="1">  1        2 0.14543180E+00 0.13304549E+03</pdfrwt>
<pdfrwt beam="2">  1       -2 0.25066034E-02 0.13304549E+03</pdfrwt>
<totfact> 0.15024329E+04</totfact>
</mgrwt>
</event>
<event>
 8    1  0.3407580E-004  0.2353947E+03  0.7546771E-02  0.1125674E+00
         -2   -1    0    0    0  501 -0.00000000000E+00  0.00000000000E+00  0.17781382226E+03  0.17781382226E+03  0.00000000000E+00 0.  1.
          2   -1    0    0  501    0  0.00000000000E+00 -0.00000000000E+00 -0.32247730007E+03  0.32247730007E+03  0.00000000000E+00 0. -1.
         25    2    1    2    0    0 -0.18344219511E+03 -0.78322798356E+02 -0.15240113282E+03  0.28042244666E+03  0.12500057446E+03 0.  0.
         23    2    1    2    0    0  0.18344219511E+03  0.78322798356E+02  0.77376550055E+01  0.21986867567E+03  0.92178433195E+02 0.  0.
          5    1    4    4  502    0  0.93187550385E+02 -0.62305974628E+01  0.19575997946E+02  0.95540826808E+02  0.47000000000E+01 0. -1.
         -5    1    4    4    0  502  0.90254644728E+02  0.84553395818E+02 -0.11838342941E+02  0.12432784886E+03  0.47000000000E+01 0.  1.
          5    1    3    3  503    0 -0.51399258593E+02 -0.60078550611E+02 -0.11895707257E+03  0.14291322942E+03  0.47000000000E+01 0. -1.
         -5    1    3    3    0  503 -0.13204293652E+03 -0.18244247745E+02 -0.33444060250E+02  0.13750921724E+03  0.47000000000E+01 0. -1.
<mgrwt>
<rscale>  0 0.23137744E+03</rscale>
<asrwt>0</asrwt>
<pdfrwt beam="1">  1        2 0.49611892E-01 0.23539465E+03</pdfrwt>
<pdfrwt beam="2">  1       -2 0.27355973E-01 0.23539465E+03</pdfrwt>
<totfact> 0.12200508E+03</totfact>
</mgrwt>
</event>
<event>
 8    1  0.3407580E-004  0.2007289E+03  0.7546771E-02  0.1153357E+00
         -1   -1    0    0    0  501 -0.00000000000E+00  0.00000000000E+00  0.13775592521E+03  0.13775592521E+03  0.00000000000E+00 0. -1.
          1   -1    0    0  501    0  0.00000000000E+00 -0.00000000000E+00 -0.28584099642E+03  0.28584099642E+03  0.00000000000E+00 0.  1.
         25    2    1    2    0    0  0.73297088347E+02 -0.13890078317E+03 -0.20778333023E+02  0.20180142186E+03  0.12500473598E+03 0.  0.
         23    2    1    2    0    0 -0.73297088347E+02  0.13890078317E+03 -0.12730673819E+03  0.22179549976E+03  0.91215938317E+02 0.  0.
          5    1    3    3  502    0  0.10451688215E+03 -0.84861165585E+02 -0.31392953682E+02  0.13832137803E+03  0.47000000000E+01 0. -1.
         -5    1    3    3    0  502 -0.31219793802E+02 -0.54039617582E+02  0.10614620659E+02  0.63480043834E+02  0.47000000000E+01 0. -1.
          5    1    4    4  503    0  0.21216193894E+02  0.31814731613E+02 -0.22994139383E+02  0.44867855721E+02  0.47000000000E+01 0. -1.
         -5    1    4    4    0  503 -0.94513282241E+02  0.10708605155E+03 -0.10431259880E+03  0.17692764404E+03  0.47000000000E+01 0.  1.
<mgrwt>
<rscale>  0 0.19577127E+03</rscale>
<asrwt>0</asrwt>
<pdfrwt beam="1">  1        1 0.43975538E-01 0.20072886E+03</pdfrwt>
<pdfrwt beam="2">  1       -1 0.21193219E-01 0.20072886E+03</pdfrwt>
<totfact> 0.16940822E+03</totfact>
</mgrwt>
</event>
<event>
 8    1  0.3407580E-004  0.1283370E+03  0.7546771E-02  0.1244991E+00
          2   -1    0    0  501    0  0.00000000000E+00  0.00000000000E+00  0.47914043264E+03  0.47914043264E+03  0.00000000000E+00 0. -1.
         -2   -1    0    0    0  501 -0.00000000000E+00 -0.00000000000E+00 -0.37277234426E+02  0.37277234426E+02  0.00000000000E+00 0.  1.
         25    2    1    2    0    0 -0.17510776364E+02  0.23200327599E+02  0.10274237952E+03  0.16439700790E+03  0.12500198865E+03 0.  0.
         23    2    1    2    0    0  0.17510776364E+02 -0.23200327599E+02  0.33912081870E+03  0.35202065917E+03  0.89837254640E+02 0.  0.
          5    1    4    4  502    0  0.42567244708E+02 -0.78126738882E+01  0.29848282942E+03  0.30164067639E+03  0.47000000000E+01 0. -1.
         -5    1    3    3    0  503  0.40780766121E+02 -0.26890022109E+02  0.55389616697E+02  0.74001647362E+02  0.47000000000E+01 0. -1.
          5    1    3    3  503    0 -0.58291542485E+02  0.50090349708E+02  0.47352762823E+02  0.90395360534E+02  0.47000000000E+01 0. -1.
         -5    1    4    4    0  502 -0.25056468344E+02 -0.15387653711E+02  0.40637989279E+02  0.50379982783E+02  0.47000000000E+01 0.  1.
<mgrwt>
<rscale>  0 0.11885919E+03</rscale>
<asrwt>0</asrwt>
<pdfrwt beam="1">  1        2 0.73713908E-01 0.12833698E+03</pdfrwt>
<pdfrwt beam="2">  1       -2 0.57349595E-02 0.12833698E+03</pdfrwt>
<totfact> 0.98267743E+03</totfact>
</mgrwt>
</event>
<event>
 8    1  0.3407580E-004  0.2495037E+03  0.7546771E-02  0.1116002E+00
         -2   -1    0    0    0  501 -0.00000000000E+00  0.00000000000E+00  0.51284237007E+03  0.51284237007E+03  0.00000000000E+00 0.  1.
          2   -1    0    0  501    0  0.00000000000E+00 -0.00000000000E+00 -0.11530475029E+03  0.11530475029E+03  0.00000000000E+00 0. -1.
         25    2    1    2    0    0 -0.26356829111E+02  0.21432237009E+03  0.17692792076E+03  0.30586854710E+03  0.12499327262E+03 0.  0.
         23    2    1    2    0    0  0.26356829111E+02 -0.21432237009E+03  0.22060969902E+03  0.32227857325E+03  0.92553112928E+02 0.  0.
          5    1    4    4  502    0 -0.34046992606E+02 -0.92560105063E+02  0.86296238540E+02  0.13113238174E+03  0.47000000000E+01 0. -1.
         -5    1    4    4    0  502  0.60403821717E+02 -0.12176226503E+03  0.13431346048E+03  0.19114619151E+03  0.47000000000E+01 0.  1.
          5    1    3    3  503    0 -0.28223146653E+02  0.89006738903E+02  0.15130605062E+03  0.17786049739E+03  0.47000000000E+01 0.  1.
         -5    1    3    3    0  503  0.18663175421E+01  0.12531563119E+03  0.25621870136E+02  0.12800804971E+03  0.47000000000E+01 0.  1.
<mgrwt>
<rscale>  0 0.24577913E+03</rscale>
<asrwt>0</asrwt>
<pdfrwt beam="1">  1        2 0.17739193E-01 0.24950367E+03</pdfrwt>
<pdfrwt beam="2">  1       -2 0.78898825E-01 0.24950367E+03</pdfrwt>
<totfact> 0.46967391E+02</totfact>
</mgrwt>
</event>
<event>
 8    1  0.3407580E-004  0.1314411E+03  0.7546771E-02  0.1238163E+00
          1   -1    0    0  501    0  0.00000000000E+00  0.00000000000E+00  0.85038903892E+03  0.85038903892E+03  0.00000000000E+00 0. -1.
         -1   -1    0    0    0  501 -0.00000000000E+00 -0.00000000000E+00 -0.25756259131E+02  0.25756259131E+02  0.00000000000E+00 0.  1.
         25    2    1    2    0    0  0.96950989947E+01  0.39476376175E+02  0.17577381958E+03  0.21948390877E+03  0.12499748533E+03 0.  0.
         23    2    1    2    0    0 -0.96950989947E+01 -0.39476376175E+02  0.64885896021E+03  0.65666138928E+03  0.92378843388E+02 0.  0.
          5    1    4    4  502    0 -0.49323733206E+02 -0.11104906458E+02  0.38037888815E+03  0.38375296501E+03  0.47000000000E+01 0. -1.
         -5    1    4    4    0  502  0.39628634211E+02 -0.28371469717E+02  0.26848007206E+03  0.27290842427E+03  0.47000000000E+01 0.  1.
          5    1    3    3  503    0  0.34864185494E+02  0.76767285011E+02  0.13084635806E+03  0.15572921016E+03  0.47000000000E+01 0. -1.
         -5    1    3    3    0  503 -0.25169086499E+02 -0.37290908836E+02  0.44927461513E+02  0.63754698611E+02  0.47000000000E+01 0. -1.
<mgrwt>
<rscale>  0 0.12304103E+03</rscale>
<asrwt>0</asrwt>
<pdfrwt beam="1">  1        1 0.13082906E+00 0.13144105E+03</pdfrwt>
<pdfrwt beam="2">  1       -1 0.39625021E-02 0.13144105E+03</pdfrwt>
<totfact> 0.50708252E+03</totfact>
</mgrwt>
</event>
<event>
 8    1  0.3407580E-004  0.1642724E+03  0.7546771E-02  0.1191125E+00
         -2   -1    0    0    0  501 -0.00000000000E+00  0.00000000000E+00  0.11448139059E+03  0.11448139059E+03  0.00000000000E+00 0.  1.
          2   -1    0    0  501    0  0.00000000000E+00 -0.00000000000E+00 -0.20692320685E+03  0.20692320685E+03  0.00000000000E+00 0. -1.
         25    2    1    2    0    0  0.21726214484E+02 -0.10434996564E+03 -0.73677926790E+02  0.18003846814E+03  0.12499787754E+03 0.  0.
         23    2    1    2    0    0 -0.21726214484E+02  0.10434996564E+03 -0.18763889475E+02  0.14136612930E+03  0.90946991372E+02 0.  0.
          5    1    4    4  502    0 -0.95094738321E+01  0.68280812223E+02 -0.55208242435E+02  0.88446251719E+02  0.47000000000E+01 0. -1.
         -5    1    3    3    0  503  0.21115014647E+02  0.83772922642E+01  0.22101051163E+02  0.32040120657E+02  0.47000000000E+01 0. -1.
          5    1    3    3  503    0  0.61119983774E+00 -0.11272725791E+03 -0.95778977952E+02  0.14799834748E+03  0.47000000000E+01 0. -1.
         -5    1    4    4    0  502 -0.12216740652E+02  0.36069153419E+02  0.36444352960E+02  0.52919877581E+02  0.47000000000E+01 0.  1.
<mgrwt>
<rscale>  0 0.15786825E+03</rscale>
<asrwt>0</asrwt>
<pdfrwt beam="1">  1        2 0.31834340E-01 0.16427237E+03</pdfrwt>
<pdfrwt beam="2">  1       -2 0.17612522E-01 0.16427237E+03</pdfrwt>
<totfact> 0.41622857E+03</totfact>
</mgrwt>
</event>
<event>
 8    1  0.3407580E-004  0.1320004E+03  0.7546771E-02  0.1235004E+00
          2   -1    0    0  501    0  0.00000000000E+00  0.00000000000E+00  0.40058039432E+03  0.40058039432E+03  0.00000000000E+00 0. -1.
         -2   -1    0    0    0  501 -0.00000000000E+00 -0.00000000000E+00 -0.40632745409E+02  0.40632745409E+02  0.00000000000E+00 0.  1.
         25    2    1    2    0    0  0.27232640666E+02 -0.32561088533E+02  0.27539091116E+03  0.30539198906E+03  0.12498908682E+03 0.  0.
         23    2    1    2    0    0 -0.27232640666E+02  0.32561088533E+02  0.84556737750E+02  0.13582115068E+03  0.97445892001E+02 0.  0.
          5    1    4    4  502    0  0.49691895211E+00  0.23046551627E+02  0.99737396563E+02  0.10247452729E+03  0.47000000000E+01 0. -1.
         -5    1    3    3    0  503 -0.83309876746E+01  0.35810315385E+02  0.28635227730E+02  0.46838555814E+02  0.47000000000E+01 0.  1.
          5    1    3    3  503    0  0.35563628341E+02 -0.68371403917E+02  0.24675568343E+03  0.25855343324E+03  0.47000000000E+01 0.  1.
         -5    1    4    4    0  502 -0.27729559618E+02  0.95145369057E+01 -0.15180658813E+02  0.33346623385E+02  0.47000000000E+01 0.  1.
<mgrwt>
<rscale>  0 0.12504160E+03</rscale>
<asrwt>0</asrwt>
<pdfrwt beam="1">  1        2 0.61627750E-01 0.13200043E+03</pdfrwt>
<pdfrwt beam="2">  1       -2 0.62511919E-02 0.13200043E+03</pdfrwt>
<totfact> 0.10480830E+04</totfact>
</mgrwt>
</event>
<event>
 8    1  0.3407580E-004  0.1337471E+03  0.7546771E-02  0.1233882E+00
          2   -1    0    0  501    0  0.00000000000E+00  0.00000000000E+00  0.59996740820E+03  0.59996740820E+03  0.00000000000E+00 0. -1.
         -2   -1    0    0    0  501 -0.00000000000E+00 -0.00000000000E+00 -0.23891633982E+02  0.23891633982E+02  0.00000000000E+00 0.  1.
         25    2    1    2    0    0  0.54833227846E+01  0.47247663083E+02  0.29273042946E+03  0.32183751394E+03  0.12500349015E+03 0.  0.
         23    2    1    2    0    0 -0.54833227846E+01 -0.47247663083E+02  0.28334534476E+03  0.30202152824E+03  0.93112891865E+02 0.  0.
          5    1    3    3  502    0  0.55924532489E+02 -0.91682187463E+01  0.10578435813E+03  0.12010008324E+03  0.47000000000E+01 0.  1.
         -5    1    4    4    0  503 -0.53592892183E+01  0.24360725136E+02  0.33231009888E+02  0.41815749763E+02  0.47000000000E+01 0.  1.
          5    1    4    4  503    0 -0.12403356628E+00 -0.71608388219E+02  0.25011433487E+03  0.26020577848E+03  0.47000000000E+01 0. -1.
         -5    1    3    3    0  502 -0.50441209705E+02  0.56415881829E+02  0.18694607133E+03  0.20173743070E+03  0.47000000000E+01 0.  1.
<mgrwt>
<rscale>  0 0.12576296E+03</rscale>
<asrwt>0</asrwt>
<pdfrwt beam="1">  1        2 0.92302667E-01 0.13374708E+03</pdfrwt>
<pdfrwt beam="2">  1       -2 0.36756364E-02 0.13374708E+03</pdfrwt>
<totfact> 0.14926839E+04</totfact>
</mgrwt>
</event>
<event>
 8    1  0.3407580E-004  0.2463636E+03  0.7546771E-02  0.1118118E+00
          2   -1    0    0  501    0  0.00000000000E+00  0.00000000000E+00  0.20716881055E+04  0.20716881055E+04  0.00000000000E+00 0.  1.
         -2   -1    0    0    0  501 -0.00000000000E+00 -0.00000000000E+00 -0.27549704476E+02  0.27549704476E+02  0.00000000000E+00 0. -1.
         25    2    1    2    0    0 -0.20682626697E+03  0.47879974980E+02  0.10383177718E+04  0.10671451806E+04  0.12500177886E+03 0.  0.
         23    2    1    2    0    0  0.20682626697E+03 -0.47879974980E+02  0.10058206292E+04  0.10320926293E+04  0.92035104953E+02 0.  0.
          5    1    4    4  502    0  0.14508078410E+03  0.63920619985E+00  0.51738110059E+03  0.53735847974E+03  0.47000000000E+01 0. -1.
         -5    1    4    4    0  502  0.61745482870E+02 -0.48519181180E+02  0.48843952863E+03  0.49473414954E+03  0.47000000000E+01 0.  1.
          5    1    3    3  503    0 -0.38802047747E+02 -0.34141718778E+02  0.35173247085E+03  0.35554054188E+03  0.47000000000E+01 0.  1.
         -5    1    3    3    0  503 -0.16802421922E+03  0.82021693758E+02  0.68658530091E+03  0.71160463877E+03  0.47000000000E+01 0.  1.
<mgrwt>
<rscale>  0 0.24253103E+03</rscale>
<asrwt>0</asrwt>
<pdfrwt beam="1">  1        2 0.31872112E+00 0.24636364E+03</pdfrwt>
<pdfrwt beam="2">  1       -2 0.42384177E-02 0.24636364E+03</pdfrwt>
<totfact> 0.17175432E+03</totfact>
</mgrwt>
</event>
<event>
 8    1  0.3407580E-004  0.1609417E+03  0.7546771E-02  0.1195077E+00
         -2   -1    0    0    0  501 -0.00000000000E+00  0.00000000000E+00  0.59170675079E+03  0.59170675079E+03  0.00000000000E+00 0.  1.
          2   -1    0    0  501    0  0.00000000000E+00 -0.00000000000E+00 -0.37773726339E+02  0.37773726339E+02  0.00000000000E+00 0. -1.
         25    2    1    2    0    0  0.61879196699E+02 -0.80301321297E+02  0.26839838765E+03  0.31295354966E+03  0.12499957026E+03 0.  0.
         23    2    1    2    0    0 -0.61879196699E+02  0.80301321297E+02  0.28553463680E+03  0.31652692747E+03  0.91552879873E+02 0.  0.
          5    1    4    4  502    0 -0.66157549960E+02  0.57926871131E+02  0.27870452312E+03  0.29228521177E+03  0.47000000000E+01 0. -1.
         -5    1    3    3    0  503 -0.29859981503E+02  0.33823614012E+01  0.94109811063E+02  0.98903010077E+02  0.47000000000E+01 0. -1.
          5    1    3    3  503    0  0.91739178202E+02 -0.83683682698E+02  0.17428857658E+03  0.21405053958E+03  0.47000000000E+01 0. -1.
         -5    1    4    4    0  502  0.42783532615E+01  0.22374450166E+02  0.68301136841E+01  0.24241715694E+02  0.47000000000E+01 0.  1.
<mgrwt>
<rscale>  0 0.15447680E+03</rscale>
<asrwt>0</asrwt>
<pdfrwt beam="1">  1        2 0.58113429E-02 0.16094170E+03</pdfrwt>
<pdfrwt beam="2">  1       -2 0.91031801E-01 0.16094170E+03</pdfrwt>
<totfact> 0.13396152E+03</totfact>
</mgrwt>
</event>
<event>
 8    1  0.3407580E-004  0.1391286E+03  0.7546771E-02  0.1225695E+00
         -2   -1    0    0    0  501 -0.00000000000E+00  0.00000000000E+00  0.90918518852E+02  0.90918518852E+02  0.00000000000E+00 0.  1.
          2   -1    0    0  501    0  0.00000000000E+00 -0.00000000000E+00 -0.20246217195E+03  0.20246217195E+03  0.00000000000E+00 0. -1.
         25    2    1    2    0    0  0.90517399408E+01  0.60410424072E+02 -0.11906536611E+03  0.18312106322E+03  0.12500163621E+03 0.  0.
         23    2    1    2    0    0 -0.90517399408E+01 -0.60410424072E+02  0.75217130175E+01  0.11025962758E+03  0.91483637743E+02 0.  0.
          5    1    4    4  502    0 -0.39805781186E+02 -0.32747763555E+01 -0.12631346106E+02  0.42152879860E+02  0.47000000000E+01 0. -1.
         -5    1    4    4    0  502  0.30754041245E+02 -0.57135647717E+02  0.20153059124E+02  0.68106747720E+02  0.47000000000E+01 0.  1.
          5    1    3    3  503    0 -0.38539606830E+02 -0.18709381406E+02 -0.58255797540E+02  0.72464958389E+02  0.47000000000E+01 0.  1.
         -5    1    3    3    0  503  0.47591346771E+02  0.79119805478E+02 -0.60809568573E+02  0.11065610483E+03  0.47000000000E+01 0.  1.
<mgrwt>
<rscale>  0 0.13119376E+03</rscale>
<asrwt>0</asrwt>
<pdfrwt beam="1">  1        2 0.31148026E-01 0.13912858E+03</pdfrwt>
<pdfrwt beam="2">  1       -2 0.13987465E-01 0.13912858E+03</pdfrwt>
<totfact> 0.61676553E+03</totfact>
</mgrwt>
</event>
<event>
 8    1  0.3407580E-004  0.1469767E+03  0.7546771E-02  0.1213758E+00
          2   -1    0    0  501    0  0.00000000000E+00  0.00000000000E+00  0.31855612361E+03  0.31855612361E+03  0.00000000000E+00 0. -1.
         -2   -1    0    0    0  501 -0.00000000000E+00 -0.00000000000E+00 -0.65936300421E+02  0.65936300421E+02  0.00000000000E+00 0.  1.
         25    2    1    2    0    0 -0.77005060065E+02  0.70339376453E+01  0.62477271399E+02  0.15970461664E+03  0.12499159804E+03 0.  0.
         23    2    1    2    0    0  0.77005060065E+02 -0.70339376453E+01  0.19014255179E+03  0.22478780739E+03  0.91630305003E+02 0.  0.
          5    1    3    3  502    0  0.19163743269E+02 -0.36168741970E+02  0.21721920091E+02  0.46576375602E+02  0.47000000000E+01 0.  1.
         -5    1    3    3    0  502 -0.96168803335E+02  0.43202679615E+02  0.40755351308E+02  0.11312824104E+03  0.47000000000E+01 0.  1.
          5    1    4    4  503    0 -0.80215447818E+00 -0.36295820842E+02  0.60371393739E+02  0.70603294855E+02  0.47000000000E+01 0. -1.
         -5    1    4    4    0  503  0.77807214543E+02  0.29261883197E+02  0.12977115805E+03  0.15418451253E+03  0.47000000000E+01 0.  1.
<mgrwt>
<rscale>  0 0.13968146E+03</rscale>
<asrwt>0</asrwt>
<pdfrwt beam="1">  1        2 0.49008634E-01 0.14697672E+03</pdfrwt>
<pdfrwt beam="2">  1       -2 0.10144046E-01 0.14697672E+03</pdfrwt>
<totfact> 0.63740631E+03</totfact>
</mgrwt>
</event>
<event>
 8    1  0.3407580E-004  0.1258087E+03  0.7546771E-02  0.1249785E+00
         -1   -1    0    0    0  501 -0.00000000000E+00  0.00000000000E+00  0.60084168337E+02  0.60084168337E+02  0.00000000000E+00 0.  1.
          1   -1    0    0  501    0  0.00000000000E+00 -0.00000000000E+00 -0.21508150430E+03  0.21508150430E+03  0.00000000000E+00 0. -1.
         25    2    1    2    0    0 -0.13970656681E+02  0.27235695043E+01 -0.47938150312E+02  0.13463240711E+03  0.12500088684E+03 0.  0.
         23    2    1    2    0    0  0.13970656681E+02 -0.27235695043E+01 -0.10705918565E+03  0.14053326552E+03  0.89918476456E+02 0.  0.
          5    1    3    3  502    0  0.38140462912E+02  0.10448156985E+02 -0.67391304934E+02  0.78278585043E+02  0.47000000000E+01 0.  1.
         -5    1    4    4    0  503 -0.15215663258E+02  0.16046779972E+02  0.49795575125E+01  0.23149547487E+02  0.47000000000E+01 0.  1.
          5    1    4    4  503    0  0.29186319940E+02 -0.18770349476E+02 -0.11203874316E+03  0.11738371804E+03  0.47000000000E+01 0. -1.
         -5    1    3    3    0  502 -0.52111119593E+02 -0.77245874806E+01  0.19453154622E+02  0.56353822068E+02  0.47000000000E+01 0.  1.
<mgrwt>
<rscale>  0 0.11603491E+03</rscale>
<asrwt>0</asrwt>
<pdfrwt beam="1">  1        1 0.33089462E-01 0.12580866E+03</pdfrwt>
<pdfrwt beam="2">  1       -1 0.92437183E-02 0.12580866E+03</pdfrwt>
<totfact> 0.86591123E+03</totfact>
</mgrwt>
</event>
<event>
 8    1  0.3407580E-004  0.2094162E+03  0.7546771E-02  0.1145843E+00
          2   -1    0    0  501    0  0.00000000000E+00  0.00000000000E+00  0.15156842077E+04  0.15156842077E+04  0.00000000000E+00 0.  1.
         -2   -1    0    0    0  501 -0.00000000000E+00 -0.00000000000E+00 -0.26886967871E+02  0.26886967871E+02  0.00000000000E+00 0. -1.
         25    2    1    2    0    0  0.14479219668E+03 -0.85230384623E+02  0.87458568216E+03  0.89930821187E+03  0.12500458319E+03 0.  0.
         23    2    1    2    0    0 -0.14479219668E+03  0.85230384623E+02  0.61421155769E+03  0.64326296372E+03  0.91117529659E+02 0.  0.
          5    1    3    3  502    0  0.64652612178E+02  0.26619475656E+02  0.35079152504E+03  0.35772243539E+03  0.47000000000E+01 0.  1.
         -5    1    4    4    0  503 -0.93768957586E+02  0.80418138626E+02  0.53276540424E+03  0.54691933626E+03  0.47000000000E+01 0.  1.
          5    1    4    4  503    0 -0.51023239095E+02  0.48122459977E+01  0.81446153456E+02  0.96343627460E+02  0.47000000000E+01 0. -1.
         -5    1    3    3    0  502  0.80139584503E+02 -0.11184986028E+03  0.52379415712E+03  0.54158577648E+03  0.47000000000E+01 0.  1.
<mgrwt>
<rscale>  0 0.20468735E+03</rscale>
<asrwt>0</asrwt>
<pdfrwt beam="1">  1        2 0.23318212E+00 0.20941620E+03</pdfrwt>
<pdfrwt beam="2">  1       -2 0.41364578E-02 0.20941620E+03</pdfrwt>
<totfact> 0.34885862E+03</totfact>
</mgrwt>
</event>
<event>
 8    1  0.3407580E-004  0.1426572E+03  0.7546771E-02  0.1219683E+00
          3   -1    0    0  501    0  0.00000000000E+00  0.00000000000E+00  0.14396183474E+03  0.14396183474E+03  0.00000000000E+00 0. -1.
         -3   -1    0    0    0  501 -0.00000000000E+00 -0.00000000000E+00 -0.11951819019E+03  0.11951819019E+03  0.00000000000E+00 0.  1.
         25    2    1    2    0    0 -0.49316516122E+02 -0.47869409152E+02  0.36203183450E+02  0.14717927286E+03  0.12500987471E+03 0.  0.
         23    2    1    2    0    0  0.49316516122E+02  0.47869409152E+02 -0.11759538907E+02  0.11630075207E+03  0.93080497857E+02 0.  0.
          5    1    4    4  502    0 -0.26157660934E+02  0.21773288030E+02  0.45553555074E+01  0.34657474821E+02  0.47000000000E+01 0. -1.
         -5    1    4    4    0  502  0.75474177056E+02  0.26096121121E+02 -0.16314894414E+02  0.81643277247E+02  0.47000000000E+01 0.  1.
          5    1    3    3  503    0  0.23336790259E+02 -0.98395338572E+01  0.56911790784E+02  0.62469705749E+02  0.47000000000E+01 0.  1.
         -5    1    3    3    0  503 -0.72653306382E+02 -0.38029875294E+02 -0.20708607334E+02  0.84709567115E+02  0.47000000000E+01 0.  1.
<mgrwt>
<rscale>  0 0.13538107E+03</rscale>
<asrwt>0</asrwt>
<pdfrwt beam="1">  1        3 0.22147975E-01 0.14265717E+03</pdfrwt>
<pdfrwt beam="2">  1       -3 0.18387414E-01 0.14265717E+03</pdfrwt>
<totfact> 0.11306742E+03</totfact>
</mgrwt>
</event>
<event>
 8    1  0.3407580E-004  0.1734165E+03  0.7546771E-02  0.1180471E+00
          2   -1    0    0  501    0  0.00000000000E+00  0.00000000000E+00  0.38746207188E+03  0.38746207188E+03  0.00000000000E+00 0.  1.
         -2   -1    0    0    0  501 -0.00000000000E+00 -0.00000000000E+00 -0.69775640126E+02  0.69775640126E+02  0.00000000000E+00 0. -1.
         25    2    1    2    0    0  0.11216506200E+03  0.43201130808E+02  0.20700042065E+03  0.27004156169E+03  0.12500372815E+03 0.  0.
         23    2    1    2    0    0 -0.11216506200E+03 -0.43201130808E+02  0.11068601110E+03  0.18719615032E+03  0.91343674141E+02 0.  0.
          5    1    4    4  502    0 -0.31744723852E+02 -0.67655422516E+00 -0.12105934691E+02  0.34304939481E+02  0.47000000000E+01 0. -1.
         -5    1    3    3    0  503  0.10569700055E+03 -0.14275605685E+00  0.19881318246E+03  0.22521245042E+03  0.47000000000E+01 0.  1.
          5    1    3    3  503    0  0.64680614464E+01  0.43343886865E+02  0.81872381919E+01  0.44829111263E+02  0.47000000000E+01 0.  1.
         -5    1    4    4    0  502 -0.80420338144E+02 -0.42524576583E+02  0.12279194579E+03  0.15289121084E+03  0.47000000000E+01 0.  1.
<mgrwt>
<rscale>  0 0.16750902E+03</rscale>
<asrwt>0</asrwt>
<pdfrwt beam="1">  1        2 0.59609548E-01 0.17341647E+03</pdfrwt>
<pdfrwt beam="2">  1       -2 0.10734714E-01 0.17341647E+03</pdfrwt>
<totfact> 0.47705470E+03</totfact>
</mgrwt>
</event>
<event>
 8    1  0.3407580E-004  0.2451575E+03  0.7546771E-02  0.1118779E+00
         -2   -1    0    0    0  501 -0.00000000000E+00  0.00000000000E+00  0.37205566036E+03  0.37205566036E+03  0.00000000000E+00 0.  1.
          2   -1    0    0  501    0  0.00000000000E+00 -0.00000000000E+00 -0.16973960940E+03  0.16973960940E+03  0.00000000000E+00 0. -1.
         25    2    1    2    0    0 -0.18317090279E+03 -0.10452178515E+03  0.17120197213E+02  0.24575454380E+03  0.12500324573E+03 0.  0.
         23    2    1    2    0    0  0.18317090279E+03  0.10452178515E+03  0.18519585375E+03  0.29604072596E+03  0.94160628591E+02 0.  0.
          5    1    4    4  502    0  0.14225398666E+03  0.12067930566E+03  0.14601348116E+03  0.23694243651E+03  0.47000000000E+01 0. -1.
         -5    1    4    4    0  502  0.40916916131E+02 -0.16157520504E+02  0.39182372589E+02  0.59098289452E+02  0.47000000000E+01 0.  1.
          5    1    3    3  503    0 -0.28084935046E+02 -0.32151331325E+01  0.49931305067E+02  0.57570182241E+02  0.47000000000E+01 0.  1.
         -5    1    3    3    0  503 -0.15508596775E+03 -0.10130665202E+03 -0.32811107854E+02  0.18818436156E+03  0.47000000000E+01 0.  1.
<mgrwt>
<rscale>  0 0.24152837E+03</rscale>
<asrwt>0</asrwt>
<pdfrwt beam="1">  1        2 0.26113786E-01 0.24515749E+03</pdfrwt>
<pdfrwt beam="2">  1       -2 0.57239332E-01 0.24515749E+03</pdfrwt>
<totfact> 0.59806630E+02</totfact>
</mgrwt>
</event>
<event>
 8    1  0.3407580E-004  0.1515367E+03  0.7546771E-02  0.1207423E+00
         -1   -1    0    0    0  501 -0.00000000000E+00  0.00000000000E+00  0.18031762022E+03  0.18031762022E+03  0.00000000000E+00 0.  1.
          1   -1    0    0  501    0  0.00000000000E+00 -0.00000000000E+00 -0.10777360972E+03  0.10777360972E+03  0.00000000000E+00 0. -1.
         25    2    1    2    0    0 -0.84274511413E+02  0.15446174886E+02  0.22335253168E+02  0.15317385551E+03  0.12499035517E+03 0.  0.
         23    2    1    2    0    0  0.84274511413E+02 -0.15446174886E+02  0.50208757333E+02  0.13491737443E+03  0.91329080891E+02 0.  0.
          5    1    3    3  502    0 -0.37927318516E+02 -0.32027061377E+02  0.58981624555E+02  0.77234294102E+02  0.47000000000E+01 0.  1.
         -5    1    3    3    0  502 -0.46347192896E+02  0.47473236263E+02 -0.36646371387E+02  0.75939561406E+02  0.47000000000E+01 0.  1.
          5    1    4    4  503    0  0.48849953169E+02  0.10928171007E+01 -0.21122478652E+02  0.53439323332E+02  0.47000000000E+01 0. -1.
         -5    1    4    4    0  503  0.35424558244E+02 -0.16538991986E+02  0.71331235985E+02  0.81478051093E+02  0.47000000000E+01 0.  1.
<mgrwt>
<rscale>  0 0.14448167E+03</rscale>
<asrwt>0</asrwt>
<pdfrwt beam="1">  1        1 0.16580555E-01 0.15153668E+03</pdfrwt>
<pdfrwt beam="2">  1       -1 0.27741172E-01 0.15153668E+03</pdfrwt>
<totfact> 0.36861242E+03</totfact>
</mgrwt>
</event>
<event>
 8    1  0.3407580E-004  0.1682643E+03  0.7546771E-02  0.1185783E+00
         -4   -1    0    0    0  501 -0.00000000000E+00  0.00000000000E+00  0.15254183288E+03  0.15254183288E+03  0.00000000000E+00 0.  1.
          4   -1    0    0  501    0  0.00000000000E+00 -0.00000000000E+00 -0.16533787933E+03  0.16533787933E+03  0.00000000000E+00 0. -1.
         25    2    1    2    0    0  0.11263675345E+03  0.64168569129E+00  0.13428141017E+02  0.16879928415E+03  0.12500173347E+03 0.  0.
         23    2    1    2    0    0 -0.11263675345E+03 -0.64168569129E+00 -0.26224187467E+02  0.14908042807E+03  0.94073460852E+02 0.  0.
          5    1    3    3  502    0  0.12045028243E+01 -0.32667165338E+02 -0.29946790435E+02  0.44581327657E+02  0.47000000000E+01 0. -1.
         -5    1    4    4    0  503 -0.36072567080E+02 -0.44775623925E+02 -0.39697280697E+01  0.57826770052E+02  0.47000000000E+01 0.  1.
          5    1    4    4  503    0 -0.76564186368E+02  0.44133938234E+02 -0.22254459397E+02  0.91253658016E+02  0.47000000000E+01 0. -1.
         -5    1    3    3    0  502  0.11143225062E+03  0.33308851030E+02  0.43374931452E+02  0.12421795649E+03  0.47000000000E+01 0. -1.
<mgrwt>
<rscale>  0 0.16260836E+03</rscale>
<asrwt>0</asrwt>
<pdfrwt beam="1">  1        4 0.25436597E-01 0.16826433E+03</pdfrwt>
<pdfrwt beam="2">  1       -4 0.23467974E-01 0.16826433E+03</pdfrwt>
<totfact> 0.42210565E+02</totfact>
</mgrwt>
</event>
<event>
 8    1  0.3407580E-004  0.1301780E+03  0.7546771E-02  0.1242632E+00
          2   -1    0    0  501    0  0.00000000000E+00  0.00000000000E+00  0.47770969017E+03  0.47770969017E+03  0.00000000000E+00 0.  1.
         -2   -1    0    0    0  501 -0.00000000000E+00 -0.00000000000E+00 -0.32506359778E+02  0.32506359778E+02  0.00000000000E+00 0. -1.
         25    2    1    2    0    0  0.28440016444E+02  0.22647053326E+02  0.35954774731E+03  0.38238841761E+03  0.12499838305E+03 0.  0.
         23    2    1    2    0    0 -0.28440016444E+02 -0.22647053326E+02  0.85655583082E+02  0.12782763234E+03  0.87643032334E+02 0.  0.
          5    1    4    4  502    0 -0.16414020123E+02 -0.46900752343E+02  0.15154864862E+02  0.52161868793E+02  0.47000000000E+01 0. -1.
         -5    1    3    3    0  503 -0.25126793258E+02 -0.38213327129E+02  0.17145363196E+03  0.17751070960E+03  0.47000000000E+01 0.  1.
          5    1    3    3  503    0  0.53566809701E+02  0.60860380455E+02  0.18809411535E+03  0.20487770801E+03  0.47000000000E+01 0.  1.
         -5    1    4    4    0  502 -0.12025996321E+02  0.24253699018E+02  0.70500718220E+02  0.75665763547E+02  0.47000000000E+01 0.  1.
<mgrwt>
<rscale>  0 0.12028233E+03</rscale>
<asrwt>0</asrwt>
<pdfrwt beam="1">  1        2 0.73493794E-01 0.13017803E+03</pdfrwt>
<pdfrwt beam="2">  1       -2 0.50009788E-02 0.13017803E+03</pdfrwt>
<totfact> 0.12127961E+04</totfact>
</mgrwt>
</event>
<event>
 8    1  0.3407580E-004  0.2575896E+03  0.7546771E-02  0.1111060E+00
          2   -1    0    0  501    0  0.00000000000E+00  0.00000000000E+00  0.98879799655E+03  0.98879799655E+03  0.00000000000E+00 0. -1.
         -2   -1    0    0    0  501 -0.00000000000E+00 -0.00000000000E+00 -0.63734427689E+02  0.63734427689E+02  0.00000000000E+00 0.  1.
         25    2    1    2    0    0  0.16767646215E+03 -0.15036875051E+03  0.52980371864E+03  0.58910474245E+03  0.12500504070E+03 0.  0.
         23    2    1    2    0    0 -0.16767646215E+03  0.15036875051E+03  0.39525985021E+03  0.46342768178E+03  0.88366905371E+02 0.  0.
          5    1    3    3  502    0  0.12809730334E+03 -0.17014839171E+03  0.43317235332E+03  0.48272121562E+03  0.47000000000E+01 0.  1.
         -5    1    3    3    0  502  0.39579158804E+02  0.19779641198E+02  0.96631365323E+02  0.10638352683E+03  0.47000000000E+01 0.  1.
          5    1    4    4  503    0 -0.99322370912E+02  0.87154968159E+02  0.31030772507E+03  0.33730386312E+03  0.47000000000E+01 0. -1.
         -5    1    4    4    0  503 -0.68354091236E+02  0.63213782351E+02  0.84952125144E+02  0.12612381866E+03  0.47000000000E+01 0.  1.
<mgrwt>
<rscale>  0 0.25358474E+03</rscale>
<asrwt>0</asrwt>
<pdfrwt beam="1">  1        2 0.15212276E+00 0.25758963E+03</pdfrwt>
<pdfrwt beam="2">  1       -2 0.98052973E-02 0.25758963E+03</pdfrwt>
<totfact> 0.18256875E+03</totfact>
</mgrwt>
</event>
<event>
 8    1  0.3407580E-004  0.1389822E+03  0.7546771E-02  0.1225589E+00
         -1   -1    0    0    0  501 -0.00000000000E+00  0.00000000000E+00  0.29126464479E+03  0.29126464479E+03  0.00000000000E+00 0.  1.
          1   -1    0    0  501    0  0.00000000000E+00 -0.00000000000E+00 -0.83123532094E+02  0.83123532094E+02  0.00000000000E+00 0. -1.
         25    2    1    2    0    0 -0.57931605374E+02 -0.18192573946E+02  0.33183348972E+00  0.13898264498E+03  0.12501609834E+03 0.  0.
         23    2    1    2    0    0  0.57931605374E+02  0.18192573946E+02  0.20780927921E+03  0.23540553191E+03  0.92433907635E+02 0.  0.
          5    1    4    4  502    0  0.27807057907E+02  0.47887143900E+02  0.60855886981E+02  0.82413227098E+02  0.47000000000E+01 0. -1.
         -5    1    3    3    0  503 -0.47046392767E+02 -0.58243341735E+02 -0.36379238899E+02  0.83373790557E+02  0.47000000000E+01 0.  1.
          5    1    3    3  503    0 -0.10885212607E+02  0.40050767789E+02  0.36711072389E+02  0.55608854420E+02  0.47000000000E+01 0.  1.
         -5    1    4    4    0  502  0.30124547467E+02 -0.29694569954E+02  0.14695339223E+03  0.15299230481E+03  0.47000000000E+01 0.  1.
<mgrwt>
<rscale>  0 0.13126609E+03</rscale>
<asrwt>0</asrwt>
<pdfrwt beam="1">  1        1 0.12788236E-01 0.13898225E+03</pdfrwt>
<pdfrwt beam="2">  1       -1 0.44809945E-01 0.13898225E+03</pdfrwt>
<totfact> 0.22510271E+03</totfact>
</mgrwt>
</event>
<event>
 8    1  0.3407580E-004  0.1454707E+03  0.7546771E-02  0.1216236E+00
          2   -1    0    0  501    0  0.00000000000E+00  0.00000000000E+00  0.23871973166E+03  0.23871973166E+03  0.00000000000E+00 0. -1.
         -2   -1    0    0    0  501 -0.00000000000E+00 -0.00000000000E+00 -0.11820671954E+03  0.11820671954E+03  0.00000000000E+00 0.  1.
         25    2    1    2    0    0  0.72810908089E+02 -0.15383464566E+02 -0.46582166761E+02  0.15274694246E+03  0.12499460329E+03 0.  0.
         23    2    1    2    0    0 -0.72810908089E+02  0.15383464566E+02  0.16709517888E+03  0.20417950874E+03  0.90721517094E+02 0.  0.
          5    1    4    4  502    0 -0.29078281872E+02  0.50610736958E+02  0.10574418023E+03  0.12087561716E+03  0.47000000000E+01 0. -1.
         -5    1    4    4    0  502 -0.43732626217E+02 -0.35227272391E+02  0.61350998657E+02  0.83303891579E+02  0.47000000000E+01 0.  1.
          5    1    3    3  503    0  0.75948093236E+02  0.18209325366E+02  0.17498458893E+02  0.80174674680E+02  0.47000000000E+01 0. -1.
         -5    1    3    3    0  503 -0.31371851468E+01 -0.33592789932E+02 -0.64080625654E+02  0.72572267777E+02  0.47000000000E+01 0. -1.
<mgrwt>
<rscale>  0 0.13786131E+03</rscale>
<asrwt>0</asrwt>
<pdfrwt beam="1">  1        2 0.36726113E-01 0.14547072E+03</pdfrwt>
<pdfrwt beam="2">  1       -2 0.18185649E-01 0.14547072E+03</pdfrwt>
<totfact> 0.33613734E+03</totfact>
</mgrwt>
</event>
<event>
 8    1  0.3407580E-004  0.1257753E+03  0.7546771E-02  0.1250116E+00
         -2   -1    0    0    0  501 -0.00000000000E+00  0.00000000000E+00  0.15508108767E+02  0.15508108767E+02  0.00000000000E+00 0.  1.
          2   -1    0    0  501    0  0.00000000000E+00 -0.00000000000E+00 -0.75810279399E+03  0.75810279399E+03  0.00000000000E+00 0. -1.
         25    2    1    2    0    0  0.12417331337E+02 -0.61067454127E+01 -0.45919975908E+03  0.47611327222E+03  0.12501178661E+03 0.  0.
         23    2    1    2    0    0 -0.12417331337E+02  0.61067454127E+01 -0.28339492615E+03  0.29749763054E+03  0.89446484287E+02 0.  0.
          5    1    3    3  502    0 -0.74349498454E+01 -0.42315042327E+02 -0.55809513592E+02  0.70587768726E+02  0.47000000000E+01 0. -1.
         -5    1    4    4    0  503 -0.34145896796E+02  0.22379193804E+02 -0.25363658018E+03  0.25694430406E+03  0.47000000000E+01 0.  1.
          5    1    4    4  503    0  0.21728565458E+02 -0.16272448391E+02 -0.29758345964E+02  0.40553326473E+02  0.47000000000E+01 0. -1.
         -5    1    3    3    0  502  0.19852281183E+02  0.36208296914E+02 -0.40339024548E+03  0.40552550350E+03  0.47000000000E+01 0. -1.
<mgrwt>
<rscale>  0 0.11584341E+03</rscale>
<asrwt>0</asrwt>
<pdfrwt beam="1">  1        2 0.11663119E+00 0.12577531E+03</pdfrwt>
<pdfrwt beam="2">  1       -2 0.23858632E-02 0.12577531E+03</pdfrwt>
<totfact> 0.21285070E+04</totfact>
</mgrwt>
</event>
<event>
 8    1  0.3407580E-004  0.1883721E+03  0.7546771E-02  0.1165571E+00
         -2   -1    0    0    0  501 -0.00000000000E+00  0.00000000000E+00  0.11078477935E+03  0.11078477935E+03  0.00000000000E+00 0.  1.
          2   -1    0    0  501    0  0.00000000000E+00 -0.00000000000E+00 -0.28821431884E+03  0.28821431884E+03  0.00000000000E+00 0. -1.
         25    2    1    2    0    0 -0.14057617788E+03 -0.98769047289E+01 -0.12287445612E+03  0.22490479726E+03  0.12499928332E+03 0.  0.
         23    2    1    2    0    0  0.14057617788E+03  0.98769047289E+01 -0.54555083374E+02  0.17409430094E+03  0.86448559630E+02 0.  0.
          5    1    4    4  502    0  0.42653788060E+02  0.43631947656E+02 -0.26448787135E+02  0.66668739549E+02  0.47000000000E+01 0. -1.
         -5    1    4    4    0  502  0.97922389821E+02 -0.33755042927E+02 -0.28106296239E+02  0.10742556139E+03  0.47000000000E+01 0.  1.
          5    1    3    3  503    0 -0.20991368366E+02  0.32267724284E+02 -0.83481264077E+02  0.92049198955E+02  0.47000000000E+01 0. -1.
         -5    1    3    3    0  503 -0.11958480952E+03 -0.42144629013E+02 -0.39393192038E+02  0.13285559830E+03  0.47000000000E+01 0. -1.
<mgrwt>
<rscale>  0 0.18232551E+03</rscale>
<asrwt>0</asrwt>
<pdfrwt beam="1">  1        2 0.44340664E-01 0.18837207E+03</pdfrwt>
<pdfrwt beam="2">  1       -2 0.17043812E-01 0.18837207E+03</pdfrwt>
<totfact> 0.30979861E+03</totfact>
</mgrwt>
</event>
<event>
 8    1  0.3407580E-004  0.1392717E+03  0.7546771E-02  0.1230036E+00
          2   -1    0    0  501    0  0.00000000000E+00  0.00000000000E+00  0.63685750072E+02  0.63685750072E+02  0.00000000000E+00 0. -1.
         -2   -1    0    0    0  501 -0.00000000000E+00 -0.00000000000E+00 -0.22808545091E+03  0.22808545091E+03  0.00000000000E+00 0.  1.
         25    2    1    2    0    0  0.54619096069E+02  0.28106678057E+02 -0.11169996606E+03  0.17853149414E+03  0.12499352372E+03 0.  0.
         23    2    1    2    0    0 -0.54619096069E+02 -0.28106678057E+02 -0.52699734773E+02  0.11323970684E+03  0.79200619659E+02 0.  0.
          5    1    4    4  502    0 -0.10617044292E+01  0.23431730437E+02 -0.39988897583E+01  0.24253954870E+02  0.47000000000E+01 0. -1.
         -5    1    4    4    0  502 -0.53557391640E+02 -0.51538408494E+02 -0.48700845015E+02  0.88985751975E+02  0.47000000000E+01 0.  1.
          5    1    3    3  503    0 -0.30105675529E+02  0.42755378249E+02 -0.50856932878E+02  0.73095086634E+02  0.47000000000E+01 0.  1.
         -5    1    3    3    0  503  0.84724771598E+02 -0.14648700192E+02 -0.60843033187E+02  0.10543640750E+03  0.47000000000E+01 0.  1.
<mgrwt>
<rscale>  0 0.12827623E+03</rscale>
<asrwt>0</asrwt>
<pdfrwt beam="1">  1        2 0.97978078E-02 0.13927172E+03</pdfrwt>
<pdfrwt beam="2">  1       -2 0.35090069E-01 0.13927172E+03</pdfrwt>
<totfact> 0.47913019E+03</totfact>
</mgrwt>
</event>
<event>
 8    1  0.3407580E-004  0.1268167E+03  0.7546771E-02  0.1247109E+00
         -2   -1    0    0    0  501 -0.00000000000E+00  0.00000000000E+00  0.16969014558E+03  0.16969014558E+03  0.00000000000E+00 0. -1.
          2   -1    0    0  501    0  0.00000000000E+00 -0.00000000000E+00 -0.94766904323E+02  0.94766904323E+02  0.00000000000E+00 0.  1.
         25    2    1    2    0    0  0.19966778586E+02  0.75969908629E+01 -0.22983744262E+02  0.12888265613E+03  0.12500440006E+03 0.  0.
         23    2    1    2    0    0 -0.19966778586E+02 -0.75969908629E+01  0.97906985521E+02  0.13557439377E+03  0.91314029127E+02 0.  0.
          5    1    4    4  502    0 -0.22840191706E+02  0.33684171558E+02  0.80717992521E+02  0.90519512191E+02  0.47000000000E+01 0. -1.
         -5    1    4    4    0  502  0.28734131203E+01 -0.41281162421E+02  0.17188993000E+02  0.45054881580E+02  0.47000000000E+01 0.  1.
          5    1    3    3  503    0 -0.34077322684E+02 -0.98741646910E+01  0.33226255508E+02  0.48834793997E+02  0.47000000000E+01 0. -1.
         -5    1    3    3    0  503  0.54044101270E+02  0.17471155554E+02 -0.56209999770E+02  0.80047862136E+02  0.47000000000E+01 0. -1.
<mgrwt>
<rscale>  0 0.11760064E+03</rscale>
<asrwt>0</asrwt>
<pdfrwt beam="1">  1        2 0.14579524E-01 0.12681674E+03</pdfrwt>
<pdfrwt beam="2">  1       -2 0.26106176E-01 0.12681674E+03</pdfrwt>
<totfact> 0.50291760E+03</totfact>
</mgrwt>
</event>
<event>
 8    1  0.3407580E-004  0.2305928E+03  0.7546771E-02  0.1129125E+00
          2   -1    0    0  501    0  0.00000000000E+00  0.00000000000E+00  0.19644594307E+04  0.19644594307E+04  0.00000000000E+00 0. -1.
         -2   -1    0    0    0  501 -0.00000000000E+00 -0.00000000000E+00 -0.36927201816E+02  0.36927201816E+02  0.00000000000E+00 0.  1.
         25    2    1    2    0    0  0.91191900370E+01 -0.19356100767E+03  0.42436684827E+03  0.48297024769E+03  0.12499605968E+03 0.  0.
         23    2    1    2    0    0 -0.91191900370E+01  0.19356100767E+03  0.15031653806E+04  0.15184163848E+04  0.92374958102E+02 0.  0.
          5    1    4    4  502    0  0.38832390634E+02  0.11418460773E+03  0.77197426082E+03  0.78135294750E+03  0.47000000000E+01 0. -1.
         -5    1    3    3    0  503 -0.28790726533E+02 -0.51710271682E+02  0.40272993912E+02  0.71741634846E+02  0.47000000000E+01 0. -1.
          5    1    3    3  503    0  0.37909916570E+02 -0.14185073599E+03  0.38409385435E+03  0.41122861285E+03  0.47000000000E+01 0. -1.
         -5    1    4    4    0  502 -0.47951580671E+02  0.79376399935E+02  0.73119111980E+03  0.73706343731E+03  0.47000000000E+01 0.  1.
<mgrwt>
<rscale>  0 0.22650401E+03</rscale>
<asrwt>0</asrwt>
<pdfrwt beam="1">  1        2 0.30222445E+00 0.23059280E+03</pdfrwt>
<pdfrwt beam="2">  1       -2 0.56811095E-02 0.23059280E+03</pdfrwt>
<totfact> 0.12540695E+03</totfact>
</mgrwt>
</event>
<event>
 8    1  0.3407580E-004  0.1313724E+03  0.7546771E-02  0.1241314E+00
         -2   -1    0    0    0  501 -0.00000000000E+00  0.00000000000E+00  0.35880984861E+02  0.35880984861E+02  0.00000000000E+00 0.  1.
          2   -1    0    0  501    0  0.00000000000E+00 -0.00000000000E+00 -0.36287814841E+03  0.36287814841E+03  0.00000000000E+00 0. -1.
         25    2    1    2    0    0  0.10069939660E+02  0.39163156441E+02 -0.16329854669E+03  0.20958318432E+03  0.12499415702E+03 0.  0.
         23    2    1    2    0    0 -0.10069939660E+02 -0.39163156441E+02 -0.16369861686E+03  0.18917594896E+03  0.85762147796E+02 0.  0.
          5    1    4    4  502    0  0.24307876992E+02 -0.37925461155E+02 -0.13998831753E+03  0.14713270382E+03  0.47000000000E+01 0. -1.
         -5    1    3    3    0  503 -0.25583587148E+02  0.44147501700E+02 -0.10209419279E+02  0.52247909812E+02  0.47000000000E+01 0.  1.
          5    1    3    3  503    0  0.35653526808E+02 -0.49843452586E+01 -0.15308912741E+03  0.15733527451E+03  0.47000000000E+01 0.  1.
         -5    1    4    4    0  502 -0.34377816652E+02 -0.12376952867E+01 -0.23710299326E+02  0.42043245136E+02  0.47000000000E+01 0.  1.
<mgrwt>
<rscale>  0 0.12108763E+03</rscale>
<asrwt>0</asrwt>
<pdfrwt beam="1">  1        2 0.55827407E-01 0.13137236E+03</pdfrwt>
<pdfrwt beam="2">  1       -2 0.55201516E-02 0.13137236E+03</pdfrwt>
<totfact> 0.14049559E+04</totfact>
</mgrwt>
</event>
<event>
 8    1  0.3407580E-004  0.1432132E+03  0.7546771E-02  0.1218641E+00
          2   -1    0    0  501    0  0.00000000000E+00  0.00000000000E+00  0.51998368871E+03  0.51998368871E+03  0.00000000000E+00 0. -1.
         -2   -1    0    0    0  501 -0.00000000000E+00 -0.00000000000E+00 -0.32620698914E+02  0.32620698914E+02  0.00000000000E+00 0.  1.
         25    2    1    2    0    0  0.66750572713E+02 -0.20682145246E+02  0.25364158723E+03  0.29128004038E+03  0.12500646807E+03 0.  0.
         23    2    1    2    0    0 -0.66750572713E+02  0.20682145246E+02  0.23372140256E+03  0.26132434725E+03  0.93708752836E+02 0.  0.
          5    1    4    4  502    0 -0.49203872438E+02  0.51097921610E+02  0.98097100176E+02  0.12114928691E+03  0.47000000000E+01 0. -1.
         -5    1    3    3    0  503  0.37984100283E+02  0.33487118612E+02  0.29373513020E+02  0.58728802596E+02  0.47000000000E+01 0. -1.
          5    1    3    3  503    0  0.28766472430E+02 -0.54169263857E+02  0.22426807421E+03  0.23255123778E+03  0.47000000000E+01 0. -1.
         -5    1    4    4    0  502 -0.17546700275E+02 -0.30415776364E+02  0.13562430239E+03  0.14017506034E+03  0.47000000000E+01 0.  1.
<mgrwt>
<rscale>  0 0.13612481E+03</rscale>
<asrwt>0</asrwt>
<pdfrwt beam="1">  1        2 0.79997485E-01 0.14321315E+03</pdfrwt>
<pdfrwt beam="2">  1       -2 0.50185694E-02 0.14321315E+03</pdfrwt>
<totfact> 0.11067506E+04</totfact>
</mgrwt>
</event>
<event>
 8    1  0.3407580E-004  0.3272853E+03  0.7546771E-02  0.1073407E+00
          1   -1    0    0  501    0  0.00000000000E+00  0.00000000000E+00  0.83204390259E+03  0.83204390259E+03  0.00000000000E+00 0. -1.
         -1   -1    0    0    0  501 -0.00000000000E+00 -0.00000000000E+00 -0.12712034711E+03  0.12712034711E+03  0.00000000000E+00 0.  1.
         25    2    1    2    0    0 -0.66145311878E+02 -0.29515627492E+03  0.41819802823E+03  0.53104167118E+03  0.12499294701E+03 0.  0.
         23    2    1    2    0    0  0.66145311878E+02  0.29515627492E+03  0.28672552725E+03  0.42812257852E+03  0.97902938415E+02 0.  0.
          5    1    4    4  502    0  0.40635004455E+02  0.11210687673E+03  0.17593458498E+03  0.21258933085E+03  0.47000000000E+01 0. -1.
         -5    1    3    3    0  503 -0.24271773215E+02 -0.27247622541E+03  0.31460385953E+03  0.41692935951E+03  0.47000000000E+01 0.  1.
          5    1    3    3  503    0 -0.41873538663E+02 -0.22680049514E+02  0.10359416870E+03  0.11411231167E+03  0.47000000000E+01 0.  1.
         -5    1    4    4    0  502  0.25510307424E+02  0.18304939819E+03  0.11079094227E+03  0.21553324767E+03  0.47000000000E+01 0.  1.
<mgrwt>
<rscale>  0 0.32492014E+03</rscale>
<asrwt>0</asrwt>
<pdfrwt beam="1">  1        1 0.12800675E+00 0.32728530E+03</pdfrwt>
<pdfrwt beam="2">  1       -1 0.19556977E-01 0.32728530E+03</pdfrwt>
<totfact> 0.45379511E+02</totfact>
</mgrwt>
</event>
<event>
 8    1  0.3407580E-004  0.1429118E+03  0.7546771E-02  0.1220074E+00
          1   -1    0    0  501    0  0.00000000000E+00  0.00000000000E+00  0.65029700651E+03  0.65029700651E+03  0.00000000000E+00 0. -1.
         -1   -1    0    0    0  501 -0.00000000000E+00 -0.00000000000E+00 -0.25409106480E+02  0.25409106480E+02  0.00000000000E+00 0.  1.
         25    2    1    2    0    0  0.69066055322E+02 -0.55183180890E+01  0.34235074238E+03  0.37098223299E+03  0.12499285802E+03 0.  0.
         23    2    1    2    0    0 -0.69066055322E+02  0.55183180890E+01  0.28253715765E+03  0.30472388000E+03  0.90712875360E+02 0.  0.
          5    1    3    3  502    0 -0.39750108737E+01 -0.53541037297E+02  0.15715173893E+03  0.16613609613E+03  0.47000000000E+01 0.  1.
         -5    1    4    4    0  503 -0.32208957208E+02  0.31029640444E+02  0.47525820455E+02  0.65429726581E+02  0.47000000000E+01 0.  1.
          5    1    4    4  503    0 -0.36857098113E+02 -0.25511322355E+02  0.23501133720E+03  0.23929415342E+03  0.47000000000E+01 0. -1.
         -5    1    3    3    0  502  0.73041066195E+02  0.48022719208E+02  0.18519900344E+03  0.20484613686E+03  0.47000000000E+01 0.  1.
<mgrwt>
<rscale>  0 0.13510351E+03</rscale>
<asrwt>0</asrwt>
<pdfrwt beam="1">  1        1 0.10004568E+00 0.14291181E+03</pdfrwt>
<pdfrwt beam="2">  1       -1 0.39090938E-02 0.14291181E+03</pdfrwt>
<totfact> 0.76971477E+03</totfact>
</mgrwt>
</event>
<event>
 8    1  0.3407580E-004  0.1587297E+03  0.7546771E-02  0.1197636E+00
         -2   -1    0    0    0  501 -0.00000000000E+00  0.00000000000E+00  0.20187466865E+03  0.20187466865E+03  0.00000000000E+00 0.  1.
          2   -1    0    0  501    0  0.00000000000E+00 -0.00000000000E+00 -0.12574324177E+03  0.12574324177E+03  0.00000000000E+00 0. -1.
         25    2    1    2    0    0 -0.97828542367E+02 -0.42008630186E-01  0.10446901823E+03  0.19002336685E+03  0.12499871485E+03 0.  0.
         23    2    1    2    0    0  0.97828542367E+02  0.42008630186E-01 -0.28337591361E+02  0.13759454357E+03  0.92513857712E+02 0.  0.
          5    1    4    4  502    0  0.56316730598E+02 -0.23017275360E+02 -0.55673023009E+02  0.82601117434E+02  0.47000000000E+01 0. -1.
         -5    1    3    3    0  503 -0.91065002205E+02 -0.31804284318E+02  0.18936101152E+02  0.98412463918E+02  0.47000000000E+01 0.  1.
          5    1    3    3  503    0 -0.67635401614E+01  0.31762275688E+02  0.85532917081E+02  0.91610902936E+02  0.47000000000E+01 0.  1.
         -5    1    4    4    0  502  0.41511811768E+02  0.23059283990E+02  0.27335431648E+02  0.54993426133E+02  0.47000000000E+01 0.  1.
<mgrwt>
<rscale>  0 0.15233195E+03</rscale>
<asrwt>0</asrwt>
<pdfrwt beam="1">  1        2 0.19345114E-01 0.15872966E+03</pdfrwt>
<pdfrwt beam="2">  1       -2 0.31057641E-01 0.15872966E+03</pdfrwt>
<totfact> 0.26948286E+03</totfact>
</mgrwt>
</event>
<event>
 8    1  0.3407580E-004  0.1493742E+03  0.7546771E-02  0.1210942E+00
          2   -1    0    0  501    0  0.00000000000E+00  0.00000000000E+00  0.65149289111E+03  0.65149289111E+03  0.00000000000E+00 0. -1.
         -2   -1    0    0    0  501 -0.00000000000E+00 -0.00000000000E+00 -0.57849982197E+02  0.57849982197E+02  0.00000000000E+00 0.  1.
         25    2    1    2    0    0  0.57261717885E+02 -0.58389515844E+02  0.56544267715E+03  0.58484021321E+03  0.12499765579E+03 0.  0.
         23    2    1    2    0    0 -0.57261717885E+02  0.58389515844E+02  0.28200231765E+02  0.12450266010E+03  0.89540043577E+02 0.  0.
          5    1    3    3  502    0  0.42750208782E+02 -0.95744111837E+02  0.46277300472E+03  0.47452656322E+03  0.47000000000E+01 0.  1.
         -5    1    4    4    0  503 -0.23960942623E+02 -0.16014442974E+02 -0.14231430519E+02  0.32484038693E+02  0.47000000000E+01 0.  1.
          5    1    4    4  503    0 -0.33300775262E+02  0.74403958818E+02  0.42431662284E+02  0.92018621403E+02  0.47000000000E+01 0. -1.
         -5    1    3    3    0  502  0.14511509103E+02  0.37354595993E+02  0.10266967242E+03  0.11031364999E+03  0.47000000000E+01 0.  1.
<mgrwt>
<rscale>  0 0.14178891E+03</rscale>
<asrwt>0</asrwt>
<pdfrwt beam="1">  1        2 0.10022967E+00 0.14937421E+03</pdfrwt>
<pdfrwt beam="2">  1       -2 0.88999977E-02 0.14937421E+03</pdfrwt>
<totfact> 0.35751017E+03</totfact>
</mgrwt>
</event>
<event>
 8    1  0.3407580E-004  0.1654022E+03  0.7546771E-02  0.1189661E+00
         -2   -1    0    0    0  501 -0.00000000000E+00  0.00000000000E+00  0.22075400511E+02  0.22075400511E+02  0.00000000000E+00 0.  1.
          2   -1    0    0  501    0  0.00000000000E+00 -0.00000000000E+00 -0.10710310610E+04  0.10710310610E+04  0.00000000000E+00 0. -1.
         25    2    1    2    0    0  0.74793144349E+02  0.78333739476E+02 -0.59088953379E+03  0.61360273372E+03  0.12501073757E+03 0.  0.
         23    2    1    2    0    0 -0.74793144349E+02 -0.78333739476E+02 -0.45806612667E+03  0.47950372776E+03  0.91482563092E+02 0.  0.
          5    1    3    3  502    0 -0.16858530669E+02  0.54447116794E+02 -0.11593467759E+03  0.12927350096E+03  0.47000000000E+01 0.  1.
         -5    1    4    4    0  503 -0.37277245947E+02 -0.54773412905E+02 -0.10926841695E+03  0.12787258021E+03  0.47000000000E+01 0.  1.
          5    1    4    4  503    0 -0.37515898403E+02 -0.23560326572E+02 -0.34879770972E+03  0.35163114755E+03  0.47000000000E+01 0. -1.
         -5    1    3    3    0  502  0.91651675018E+02  0.23886622682E+02 -0.47495485620E+03  0.48432923276E+03  0.47000000000E+01 0.  1.
<mgrwt>
<rscale>  0 0.15914880E+03</rscale>
<asrwt>0</asrwt>
<pdfrwt beam="1">  1        2 0.16477404E+00 0.16540216E+03</pdfrwt>
<pdfrwt beam="2">  1       -2 0.33962149E-02 0.16540216E+03</pdfrwt>
<totfact> 0.81796052E+03</totfact>
</mgrwt>
</event>
<event>
 8    1  0.3407580E-004  0.1304298E+03  0.7546771E-02  0.1240599E+00
         -1   -1    0    0    0  501 -0.00000000000E+00  0.00000000000E+00  0.20150006294E+03  0.20150006294E+03  0.00000000000E+00 0.  1.
          1   -1    0    0  501    0  0.00000000000E+00 -0.00000000000E+00 -0.69720615144E+02  0.69720615144E+02  0.00000000000E+00 0. -1.
         25    2    1    2    0    0 -0.35983760693E+02  0.96105960771E+01  0.10979490945E+03  0.17049004726E+03  0.12499895792E+03 0.  0.
         23    2    1    2    0    0  0.35983760693E+02 -0.96105960771E+01  0.21984538347E+02  0.10073063083E+03  0.90973322853E+02 0.  0.
          5    1    3    3  502    0 -0.31039963809E+02 -0.41268122815E+02  0.10721032983E+03  0.11909106657E+03  0.47000000000E+01 0. -1.
         -5    1    3    3    0  502 -0.49437968842E+01  0.50878718893E+02  0.25845796201E+01  0.51398980686E+02  0.47000000000E+01 0. -1.
          5    1    4    4  503    0  0.37597146468E+01  0.24352328459E+02 -0.24159574158E+02  0.34827379733E+02  0.47000000000E+01 0. -1.
         -5    1    4    4    0  503  0.32224046046E+02 -0.33962924536E+02  0.46144112504E+02  0.65903251099E+02  0.47000000000E+01 0.  1.
<mgrwt>
<rscale>  0 0.12152721E+03</rscale>
<asrwt>0</asrwt>
<pdfrwt beam="1">  1        1 0.10726249E-01 0.13042981E+03</pdfrwt>
<pdfrwt beam="2">  1       -1 0.31000009E-01 0.13042981E+03</pdfrwt>
<totfact> 0.53532137E+03</totfact>
</mgrwt>
</event>
<event>
 8    1  0.3407580E-004  0.1480398E+03  0.7546771E-02  0.1212876E+00
          1   -1    0    0  501    0  0.00000000000E+00  0.00000000000E+00  0.26297099124E+03  0.26297099124E+03  0.00000000000E+00 0. -1.
         -1   -1    0    0    0  501 -0.00000000000E+00 -0.00000000000E+00 -0.69269426556E+02  0.69269426556E+02  0.00000000000E+00 0.  1.
         25    2    1    2    0    0  0.77162927023E+02 -0.18241759847E+02  0.12869006425E+03  0.19615531386E+03  0.12501558068E+03 0.  0.
         23    2    1    2    0    0 -0.77162927023E+02  0.18241759847E+02  0.65011500433E+02  0.13608510393E+03  0.89475031231E+02 0.  0.
          5    1    4    4  502    0  0.41201695606E+01  0.20744588206E+02  0.48292287938E+02  0.52929659090E+02  0.47000000000E+01 0. -1.
         -5    1    4    4    0  502 -0.81283096583E+02 -0.25028283587E+01  0.16719212495E+02  0.83155444839E+02  0.47000000000E+01 0.  1.
          5    1    3    3  503    0  0.54127491415E+01 -0.28995386734E+02 -0.16250074780E+02  0.34002723942E+02  0.47000000000E+01 0.  1.
         -5    1    3    3    0  503  0.71750177881E+02  0.10753626887E+02  0.14494013903E+03  0.16215258992E+03  0.47000000000E+01 0.  1.
<mgrwt>
<rscale>  0 0.14033724E+03</rscale>
<asrwt>0</asrwt>
<pdfrwt beam="1">  1        1 0.40457075E-01 0.14803977E+03</pdfrwt>
<pdfrwt beam="2">  1       -1 0.10656835E-01 0.14803977E+03</pdfrwt>
<totfact> 0.54940979E+03</totfact>
</mgrwt>
</event>
<event>
 8    1  0.3407580E-004  0.1329340E+03  0.7546771E-02  0.1234503E+00
          1   -1    0    0  501    0  0.00000000000E+00  0.00000000000E+00  0.13052825123E+04  0.13052825123E+04  0.00000000000E+00 0. -1.
         -1   -1    0    0    0  501 -0.00000000000E+00 -0.00000000000E+00 -0.11001058751E+02  0.11001058751E+02  0.00000000000E+00 0.  1.
         25    2    1    2    0    0 -0.36428448542E+02 -0.26776666924E+02  0.64658941893E+03  0.66011310954E+03  0.12500967544E+03 0.  0.
         23    2    1    2    0    0  0.36428448542E+02  0.26776666924E+02  0.64769203464E+03  0.65617046153E+03  0.94924607459E+02 0.  0.
          5    1    4    4  502    0  0.46059209060E+01  0.58952136251E+02  0.39185760796E+03  0.39632189416E+03  0.47000000000E+01 0. -1.
         -5    1    4    4    0  502  0.31822527636E+02 -0.32175469327E+02  0.25583442667E+03  0.25984856737E+03  0.47000000000E+01 0.  1.
          5    1    3    3  503    0 -0.52543249500E+02 -0.56106242188E+02  0.58334396681E+03  0.58840545298E+03  0.47000000000E+01 0. -1.
         -5    1    3    3    0  503  0.16114800957E+02  0.29329575264E+02  0.63245452118E+02  0.71707656555E+02  0.47000000000E+01 0. -1.
<mgrwt>
<rscale>  0 0.12536329E+03</rscale>
<asrwt>0</asrwt>
<pdfrwt beam="1">  1        1 0.20081257E+00 0.13293397E+03</pdfrwt>
<pdfrwt beam="2">  1       -1 0.16924716E-02 0.13293397E+03</pdfrwt>
<totfact> 0.82349837E+03</totfact>
</mgrwt>
</event>
<event>
 8    1  0.3407580E-004  0.1798943E+03  0.7546771E-02  0.1173477E+00
          2   -1    0    0  501    0  0.00000000000E+00  0.00000000000E+00  0.89689297935E+02  0.89689297935E+02  0.00000000000E+00 0. -1.
         -2   -1    0    0    0  501 -0.00000000000E+00 -0.00000000000E+00 -0.32295299762E+03  0.32295299762E+03  0.00000000000E+00 0.  1.
         25    2    1    2    0    0 -0.11206595554E+03 -0.64635838358E+02 -0.14677430682E+03  0.23217375469E+03  0.12500154093E+03 0.  0.
         23    2    1    2    0    0  0.11206595554E+03  0.64635838358E+02 -0.86489392864E+02  0.18046854086E+03  0.91388780332E+02 0.  0.
          5    1    3    3  502    0 -0.88677426299E+02 -0.10189227695E+03 -0.10294095879E+03  0.16989600653E+03  0.47000000000E+01 0.  1.
         -5    1    3    3    0  502 -0.23388529242E+02  0.37256438596E+02 -0.43833348026E+02  0.62277748162E+02  0.47000000000E+01 0.  1.
          5    1    4    4  503    0  0.11681000011E+03  0.33513833097E+02 -0.48553191492E+02  0.13094752971E+03  0.47000000000E+01 0. -1.
         -5    1    4    4    0  503 -0.47440445680E+01  0.31122005261E+02 -0.37936201372E+02  0.49521011146E+02  0.47000000000E+01 0.  1.
<mgrwt>
<rscale>  0 0.17425985E+03</rscale>
<asrwt>0</asrwt>
<pdfrwt beam="1">  1        2 0.13798353E-01 0.17989429E+03</pdfrwt>
<pdfrwt beam="2">  1       -2 0.49685077E-01 0.17989429E+03</pdfrwt>
<totfact> 0.16483642E+03</totfact>
</mgrwt>
</event>
<event>
 8    1  0.3407580E-004  0.1261678E+03  0.7546771E-02  0.1250528E+00
          2   -1    0    0  501    0  0.00000000000E+00  0.00000000000E+00  0.10352493808E+04  0.10352493808E+04  0.00000000000E+00 0. -1.
         -2   -1    0    0    0  501 -0.00000000000E+00 -0.00000000000E+00 -0.11394685153E+02  0.11394685153E+02  0.00000000000E+00 0.  1.
         25    2    1    2    0    0  0.14097054866E+02  0.97130976055E+01  0.52696291113E+03  0.54185627487E+03  0.12500096674E+03 0.  0.
         23    2    1    2    0    0 -0.14097054866E+02 -0.97130976055E+01  0.49689178452E+03  0.50478779108E+03  0.87270827245E+02 0.  0.
          5    1    4    4  502    0 -0.27105165676E+02  0.31524843022E+02  0.31506361490E+03  0.31782963544E+03  0.47000000000E+01 0. -1.
         -5    1    4    4    0  502  0.13008110810E+02 -0.41237940628E+02  0.18182816962E+03  0.18695815564E+03  0.47000000000E+01 0.  1.
          5    1    3    3  503    0  0.23966212617E+02  0.65121855358E+02  0.27805505449E+03  0.28662159500E+03  0.47000000000E+01 0.  1.
         -5    1    3    3    0  503 -0.98691577513E+01 -0.55408757752E+02  0.24890785664E+03  0.25523467987E+03  0.47000000000E+01 0.  1.
<mgrwt>
<rscale>  0 0.11560548E+03</rscale>
<asrwt>0</asrwt>
<pdfrwt beam="1">  1        2 0.15926906E+00 0.12616780E+03</pdfrwt>
<pdfrwt beam="2">  1       -2 0.17530293E-02 0.12616780E+03</pdfrwt>
<totfact> 0.22219114E+04</totfact>
</mgrwt>
</event>
<event>
 8    1  0.3407580E-004  0.1320587E+03  0.7546771E-02  0.1237175E+00
          2   -1    0    0  501    0  0.00000000000E+00  0.00000000000E+00  0.80900660661E+03  0.80900660661E+03  0.00000000000E+00 0. -1.
         -2   -1    0    0    0  501 -0.00000000000E+00 -0.00000000000E+00 -0.16867167584E+02  0.16867167584E+02  0.00000000000E+00 0.  1.
         25    2    1    2    0    0 -0.42527552259E+02 -0.22118362068E+01  0.44141528736E+03  0.46074609875E+03  0.12500410663E+03 0.  0.
         23    2    1    2    0    0  0.42527552259E+02  0.22118362068E+01  0.35072415166E+03  0.36512767545E+03  0.92180821735E+02 0.  0.
          5    1    4    4  502    0  0.30488735852E+02 -0.27376617780E+02  0.61152492081E+02  0.73761504205E+02  0.47000000000E+01 0. -1.
         -5    1    4    4    0  502  0.12038816407E+02  0.29588453987E+02  0.28957165958E+03  0.29136617124E+03  0.47000000000E+01 0.  1.
          5    1    3    3  503    0  0.17423579562E+02  0.14525442748E+02  0.10676260167E+02  0.25507687918E+02  0.47000000000E+01 0.  1.
         -5    1    3    3    0  503 -0.59951131820E+02 -0.16737278955E+02  0.43073902719E+03  0.43523841083E+03  0.47000000000E+01 0.  1.
<mgrwt>
<rscale>  0 0.12366217E+03</rscale>
<asrwt>0</asrwt>
<pdfrwt beam="1">  1        2 0.12446253E+00 0.13205874E+03</pdfrwt>
<pdfrwt beam="2">  1       -2 0.25949495E-02 0.13205874E+03</pdfrwt>
<totfact> 0.17450114E+04</totfact>
</mgrwt>
</event>
<event>
 8    1  0.3407580E-004  0.1896493E+03  0.7546771E-02  0.1163726E+00
          2   -1    0    0  501    0  0.00000000000E+00  0.00000000000E+00  0.10466728715E+03  0.10466728715E+03  0.00000000000E+00 0. -1.
         -2   -1    0    0    0  501 -0.00000000000E+00 -0.00000000000E+00 -0.32539864575E+03  0.32539864575E+03  0.00000000000E+00 0.  1.
         25    2    1    2    0    0  0.13130019535E+03  0.55694710236E+02 -0.65760450794E+02  0.20072691765E+03  0.12500086613E+03 0.  0.
         23    2    1    2    0    0 -0.13130019535E+03 -0.55694710236E+02 -0.15497090781E+03  0.22933901525E+03  0.90767613182E+02 0.  0.
          5    1    3    3  502    0  0.85932848292E+02  0.32687418918E+02  0.26038477005E+02  0.95671385774E+02  0.47000000000E+01 0.  1.
         -5    1    3    3    0  502  0.45367347058E+02  0.23007291317E+02 -0.91798927799E+02  0.10505553188E+03  0.47000000000E+01 0.  1.
          5    1    4    4  503    0 -0.32657237808E+02 -0.56958678846E+02 -0.88479769702E+02  0.11027939936E+03  0.47000000000E+01 0. -1.
         -5    1    4    4    0  503 -0.98642957541E+02  0.12639686099E+01 -0.66491138104E+02  0.11905961589E+03  0.47000000000E+01 0.  1.
<mgrwt>
<rscale>  0 0.18427736E+03</rscale>
<asrwt>0</asrwt>
<pdfrwt beam="1">  1        2 0.16102660E-01 0.18964930E+03</pdfrwt>
<pdfrwt beam="2">  1       -2 0.50061330E-01 0.18964930E+03</pdfrwt>
<totfact> 0.13555679E+03</totfact>
</mgrwt>
</event>
<event>
 8    1  0.3407580E-004  0.1736469E+03  0.7546771E-02  0.1180186E+00
          1   -1    0    0  501    0  0.00000000000E+00  0.00000000000E+00  0.87181480639E+03  0.87181480639E+03  0.00000000000E+00 0. -1.
         -1   -1    0    0    0  501 -0.00000000000E+00 -0.00000000000E+00 -0.34796519444E+02  0.34796519444E+02  0.00000000000E+00 0.  1.
         25    2    1    2    0    0  0.11399631924E+03  0.39151840851E+02  0.28063062307E+03  0.33001031756E+03  0.12500094261E+03 0.  0.
         23    2    1    2    0    0 -0.11399631924E+03 -0.39151840851E+02  0.55638766387E+03  0.57660100826E+03  0.91506626982E+02 0.  0.
          5    1    4    4  502    0 -0.23555281124E+02  0.17032217473E+02  0.25947317972E+03  0.26113860055E+03  0.47000000000E+01 0. -1.
         -5    1    4    4    0  502 -0.90441038113E+02 -0.56184058324E+02  0.29691448415E+03  0.31546240771E+03  0.47000000000E+01 0.  1.
          5    1    3    3  503    0  0.13814178379E+03  0.36071505587E+02  0.26396089497E+03  0.30013621910E+03  0.47000000000E+01 0.  1.
         -5    1    3    3    0  503 -0.24145464556E+02  0.30803352640E+01  0.16669728104E+02  0.29874098464E+02  0.47000000000E+01 0.  1.
<mgrwt>
<rscale>  0 0.16777735E+03</rscale>
<asrwt>0</asrwt>
<pdfrwt beam="1">  1        1 0.13412534E+00 0.17364695E+03</pdfrwt>
<pdfrwt beam="2">  1       -1 0.53533114E-02 0.17364695E+03</pdfrwt>
<totfact> 0.31560220E+03</totfact>
</mgrwt>
</event>
<event>
 8    1  0.3407580E-004  0.1317788E+03  0.7546771E-02  0.1237893E+00
          2   -1    0    0  501    0  0.00000000000E+00  0.00000000000E+00  0.41940108408E+03  0.41940108408E+03  0.00000000000E+00 0. -1.
         -2   -1    0    0    0  501 -0.00000000000E+00 -0.00000000000E+00 -0.34810726468E+02  0.34810726468E+02  0.00000000000E+00 0.  1.
         25    2    1    2    0    0 -0.15303459659E+02 -0.38824071014E+02  0.27754714077E+03  0.30724269103E+03  0.12499660585E+03 0.  0.
         23    2    1    2    0    0  0.15303459659E+02  0.38824071014E+02  0.10704321684E+03  0.14696911952E+03  0.91652427421E+02 0.  0.
          5    1    3    3  502    0  0.12766850395E+02 -0.15473267765E+02 -0.58867313675E+01  0.21427974485E+02  0.47000000000E+01 0.  1.
         -5    1    3    3    0  502 -0.28070310054E+02 -0.23350803248E+02  0.28343387214E+03  0.28581471654E+03  0.47000000000E+01 0.  1.
          5    1    4    4  503    0  0.42277646152E+02  0.28467692966E+02  0.10596033746E+03  0.11767536709E+03  0.47000000000E+01 0. -1.
         -5    1    4    4    0  503 -0.26974186494E+02  0.10356378048E+02  0.10828793861E+01  0.29293752423E+02  0.47000000000E+01 0.  1.
<mgrwt>
<rscale>  0 0.12321055E+03</rscale>
<asrwt>0</asrwt>
<pdfrwt beam="1">  1        2 0.64523240E-01 0.13177881E+03</pdfrwt>
<pdfrwt beam="2">  1       -2 0.53554967E-02 0.13177881E+03</pdfrwt>
<totfact> 0.12605359E+04</totfact>
</mgrwt>
</event>
<event>
 8    1  0.3407580E-004  0.1362599E+03  0.7546771E-02  0.1230868E+00
          1   -1    0    0  501    0  0.00000000000E+00  0.00000000000E+00  0.14394832639E+03  0.14394832639E+03  0.00000000000E+00 0. -1.
         -1   -1    0    0    0  501 -0.00000000000E+00 -0.00000000000E+00 -0.11082534245E+03  0.11082534245E+03  0.00000000000E+00 0.  1.
         25    2    1    2    0    0  0.31653053063E+02 -0.44043478957E+02 -0.18635602063E+02  0.13752836316E+03  0.12500008481E+03 0.  0.
         23    2    1    2    0    0 -0.31653053063E+02  0.44043478957E+02  0.51758586004E+02  0.11724530567E+03  0.90143034510E+02 0.  0.
          5    1    4    4  502    0 -0.51802163966E+02  0.28897984597E+02  0.65220128617E+02  0.88285405827E+02  0.47000000000E+01 0. -1.
         -5    1    4    4    0  502  0.20149110903E+02  0.15145494361E+02 -0.13461542613E+02  0.28959899847E+02  0.47000000000E+01 0.  1.
          5    1    3    3  503    0 -0.30993043740E+02  0.24565455612E+02  0.82991130913E+01  0.40681637723E+02  0.47000000000E+01 0. -1.
         -5    1    3    3    0  503  0.62646096803E+02 -0.68608934569E+02 -0.26934715154E+02  0.96846725437E+02  0.47000000000E+01 0. -1.
<mgrwt>
<rscale>  0 0.12772689E+03</rscale>
<asrwt>0</asrwt>
<pdfrwt beam="1">  1        1 0.22145896E-01 0.13625992E+03</pdfrwt>
<pdfrwt beam="2">  1       -1 0.17050053E-01 0.13625992E+03</pdfrwt>
<totfact> 0.55764311E+03</totfact>
</mgrwt>
</event>
<event>
 8    1  0.3407580E-004  0.1302300E+03  0.7546771E-02  0.1239752E+00
         -4   -1    0    0    0  501 -0.00000000000E+00  0.00000000000E+00  0.16228963513E+03  0.16228963513E+03  0.00000000000E+00 0.  1.
          4   -1    0    0  501    0  0.00000000000E+00 -0.00000000000E+00 -0.10607106020E+03  0.10607106020E+03  0.00000000000E+00 0. -1.
         25    2    1    2    0    0 -0.34807549585E+02 -0.11211695516E+02 -0.32615389235E+02  0.13425205390E+03  0.12499033057E+03 0.  0.
         23    2    1    2    0    0  0.34807549585E+02  0.11211695516E+02  0.88833964166E+02  0.13410864143E+03  0.93575567814E+02 0.  0.
          5    1    3    3  502    0 -0.73433091138E+02 -0.19101854947E+02 -0.49914915425E+02  0.90944425439E+02  0.47000000000E+01 0.  1.
         -5    1    3    3    0  502  0.38625541553E+02  0.78901594311E+01  0.17299526191E+02  0.43307628457E+02  0.47000000000E+01 0.  1.
          5    1    4    4  503    0 -0.14005628379E+01 -0.25510005697E+02 -0.54472799138E+01  0.26542133023E+02  0.47000000000E+01 0. -1.
         -5    1    4    4    0  503  0.36208112423E+02  0.36721701213E+02  0.94281244080E+02  0.10756650841E+03  0.47000000000E+01 0.  1.
<mgrwt>
<rscale>  0 0.12205043E+03</rscale>
<asrwt>0</asrwt>
<pdfrwt beam="1">  1        4 0.16318625E-01 0.13022999E+03</pdfrwt>
<pdfrwt beam="2">  1       -4 0.24967636E-01 0.13022999E+03</pdfrwt>
<totfact> 0.79967712E+02</totfact>
</mgrwt>
</event>
<event>
 8    1  0.3407580E-004  0.1266509E+03  0.7546771E-02  0.1247638E+00
         -1   -1    0    0    0  501 -0.00000000000E+00  0.00000000000E+00  0.21036507334E+03  0.21036507334E+03  0.00000000000E+00 0.  1.
          1   -1    0    0  501    0  0.00000000000E+00 -0.00000000000E+00 -0.58994869891E+02  0.58994869891E+02  0.00000000000E+00 0. -1.
         25    2    1    2    0    0  0.11415721810E+02  0.16881948165E+02  0.65136780804E+02  0.14241928206E+03  0.12500053124E+03 0.  0.
         23    2    1    2    0    0 -0.11415721810E+02 -0.16881948165E+02  0.86233422643E+02  0.12694066117E+03  0.90897796452E+02 0.  0.
          5    1    3    3  502    0  0.57418845796E+02 -0.69320573952E+01  0.69125995801E+02  0.90252260735E+02  0.47000000000E+01 0. -1.
         -5    1    3    3    0  502 -0.46003123986E+02  0.23814005561E+02 -0.39892149972E+01  0.52167021322E+02  0.47000000000E+01 0. -1.
          5    1    4    4  503    0 -0.23936639976E+02  0.34528432072E+01 -0.10800960544E+02  0.26900475985E+02  0.47000000000E+01 0. -1.
         -5    1    4    4    0  503  0.12520918166E+02 -0.20334791373E+02  0.97034383187E+02  0.10004018519E+03  0.47000000000E+01 0.  1.
<mgrwt>
<rscale>  0 0.11728892E+03</rscale>
<asrwt>0</asrwt>
<pdfrwt beam="1">  1        1 0.90761340E-02 0.12665090E+03</pdfrwt>
<pdfrwt beam="2">  1       -1 0.32363857E-01 0.12665090E+03</pdfrwt>
<totfact> 0.61971696E+03</totfact>
</mgrwt>
</event>
<event>
 8    1  0.3407580E-004  0.1404736E+03  0.7546771E-02  0.1223641E+00
         -4   -1    0    0    0  501 -0.00000000000E+00  0.00000000000E+00  0.97603439835E+02  0.97603439835E+02  0.00000000000E+00 0.  1.
          4   -1    0    0  501    0  0.00000000000E+00 -0.00000000000E+00 -0.20696341504E+03  0.20696341504E+03  0.00000000000E+00 0. -1.
         25    2    1    2    0    0 -0.99194138098E+01 -0.63328794085E+02  0.10459101442E+02  0.14086244933E+03  0.12499562351E+03 0.  0.
         23    2    1    2    0    0  0.99194138098E+01  0.63328794085E+02 -0.11981907665E+03  0.16370440554E+03  0.91288500567E+02 0.  0.
          5    1    4    4  502    0  0.24684780777E+02  0.28439532283E+01  0.34511913171E+01  0.25523071787E+02  0.47000000000E+01 0. -1.
         -5    1    4    4    0  502 -0.14765366967E+02  0.60484840857E+02 -0.12327026796E+03  0.13818133376E+03  0.47000000000E+01 0.  1.
          5    1    3    3  503    0 -0.14092283402E+02  0.31437460687E+02  0.27550430168E+02  0.44362400616E+02  0.47000000000E+01 0. -1.
         -5    1    3    3    0  503  0.41728695925E+01 -0.94766254772E+02 -0.17091328726E+02  0.96500048714E+02  0.47000000000E+01 0. -1.
<mgrwt>
<rscale>  0 0.13260491E+03</rscale>
<asrwt>0</asrwt>
<pdfrwt beam="1">  1        4 0.31840525E-01 0.14047362E+03</pdfrwt>
<pdfrwt beam="2">  1       -4 0.15015914E-01 0.14047362E+03</pdfrwt>
<totfact> 0.59548694E+02</totfact>
</mgrwt>
</event>
<event>
 8    1  0.3747476E-004  0.2353252E+03  0.7546771E-02  0.1125958E+00
          4   -1    0    0  501    0  0.00000000000E+00  0.00000000000E+00  0.46889195166E+03  0.46889195166E+03  0.00000000000E+00 0. -1.
         -4   -1    0    0    0  501 -0.00000000000E+00 -0.00000000000E+00 -0.11205390067E+03  0.11205390067E+03  0.00000000000E+00 0.  1.
         25    2    1    2    0    0 -0.19845109764E+03 -0.19237823856E+02  0.14337553880E+03  0.27556213207E+03  0.12500004593E+03 0.  0.
         23    2    1    2    0    0  0.19845109764E+03  0.19237823856E+02  0.21346251219E+03  0.30538372025E+03  0.89106904691E+02 0.  0.
          5    1    4    4  502    0  0.10338394366E+03 -0.32759230604E+02  0.89665391752E+02  0.14079552363E+03  0.47000000000E+01 0. -1.
         -5    1    3    3    0  503 -0.54149647088E+02  0.24871673440E+02 -0.97135957003E+01  0.60557644942E+02  0.47000000000E+01 0. -1.
          5    1    3    3  503    0 -0.14430145055E+03 -0.44109497297E+02  0.15308913450E+03  0.21500448713E+03  0.47000000000E+01 0. -1.
         -5    1    4    4    0  502  0.95067153979E+02  0.51997054460E+02  0.12379712044E+03  0.16458819662E+03  0.47000000000E+01 0.  1.
<mgrwt>
<rscale>  0 0.23097135E+03</rscale>
<asrwt>0</asrwt>
<pdfrwt beam="1">  1        4 0.72137222E-01 0.23532519E+03</pdfrwt>
<pdfrwt beam="2">  1       -4 0.17239062E-01 0.23532519E+03</pdfrwt>
<totfact> 0.95470677E+01</totfact>
</mgrwt>
</event>
<event>
 8    1  0.3407580E-004  0.1304044E+03  0.7546771E-02  0.1241168E+00
          1   -1    0    0  501    0  0.00000000000E+00  0.00000000000E+00  0.85464104122E+03  0.85464104122E+03  0.00000000000E+00 0. -1.
         -1   -1    0    0    0  501 -0.00000000000E+00 -0.00000000000E+00 -0.18093830732E+02  0.18093830732E+02  0.00000000000E+00 0.  1.
         25    2    1    2    0    0 -0.34332946359E+01 -0.37075375458E+02  0.64354569252E+03  0.65662499053E+03  0.12497579306E+03 0.  0.
         23    2    1    2    0    0  0.34332946359E+01  0.37075375458E+02  0.19300151797E+03  0.21610988143E+03  0.89819396196E+02 0.  0.
          5    1    4    4  502    0  0.23119609308E+02  0.16112163726E+02  0.18312824244E+03  0.18534336064E+03  0.47000000000E+01 0. -1.
         -5    1    3    3    0  503 -0.58075300741E+02 -0.36303520638E+02  0.24919265310E+03  0.25847582968E+03  0.47000000000E+01 0. -1.
          5    1    3    3  503    0  0.54642006105E+02 -0.77185481993E+00  0.39435303941E+03  0.39814916085E+03  0.47000000000E+01 0. -1.
         -5    1    4    4    0  502 -0.19686314672E+02  0.20963211732E+02  0.98732755325E+01  0.30766520786E+02  0.47000000000E+01 0.  1.
<mgrwt>
<rscale>  0 0.12117713E+03</rscale>
<asrwt>0</asrwt>
<pdfrwt beam="1">  1        1 0.13148321E+00 0.13040445E+03</pdfrwt>
<pdfrwt beam="2">  1       -1 0.27836669E-02 0.13040445E+03</pdfrwt>
<totfact> 0.84193491E+03</totfact>
</mgrwt>
</event>
<event>
 8    1  0.3407580E-004  0.1744937E+03  0.7546771E-02  0.1179654E+00
         -1   -1    0    0    0  501 -0.00000000000E+00  0.00000000000E+00  0.92552277865E+02  0.92552277865E+02  0.00000000000E+00 0.  1.
          1   -1    0    0  501    0  0.00000000000E+00 -0.00000000000E+00 -0.44221412550E+03  0.44221412550E+03  0.00000000000E+00 0. -1.
         25    2    1    2    0    0  0.83291912342E+02 -0.88791998570E+02 -0.24399426592E+02  0.17619129994E+03  0.12500592181E+03 0.  0.
         23    2    1    2    0    0 -0.83291912342E+02  0.88791998570E+02 -0.32526242105E+03  0.35857510342E+03  0.89212670504E+02 0.  0.
          5    1    4    4  502    0 -0.43838411566E+02  0.65238977436E+02 -0.28990159031E+03  0.30040464805E+03  0.47000000000E+01 0. -1.
         -5    1    3    3    0  503  0.51900445305E+02 -0.88981349583E+02 -0.67068400678E+02  0.12301055713E+03  0.47000000000E+01 0. -1.
          5    1    3    3  503    0  0.31391467037E+02  0.18935101253E+00  0.42668974086E+02  0.53180742813E+02  0.47000000000E+01 0. -1.
         -5    1    4    4    0  502 -0.39453500776E+02  0.23553021135E+02 -0.35360830737E+02  0.58170455374E+02  0.47000000000E+01 0.  1.
<mgrwt>
<rscale>  0 0.16827906E+03</rscale>
<asrwt>0</asrwt>
<pdfrwt beam="1">  1        1 0.68032943E-01 0.17449367E+03</pdfrwt>
<pdfrwt beam="2">  1       -1 0.14238812E-01 0.17449367E+03</pdfrwt>
<totfact> 0.18369005E+03</totfact>
</mgrwt>
</event>
<event>
 8    1  0.3407580E-004  0.1626275E+03  0.7546771E-02  0.1193067E+00
          2   -1    0    0  501    0  0.00000000000E+00  0.00000000000E+00  0.29722269711E+02  0.29722269711E+02  0.00000000000E+00 0. -1.
         -2   -1    0    0    0  501 -0.00000000000E+00 -0.00000000000E+00 -0.12665896451E+04  0.12665896451E+04  0.00000000000E+00 0.  1.
         25    2    1    2    0    0  0.96119572173E+02 -0.39809063503E+02 -0.24013557735E+03  0.29002204714E+03  0.12499583444E+03 0.  0.
         23    2    1    2    0    0 -0.96119572173E+02  0.39809063503E+02 -0.99673179802E+03  0.10062898677E+04  0.91221087807E+02 0.  0.
          5    1    3    3  502    0  0.10178100157E+03  0.17758271276E+02 -0.13669132167E+03  0.17140984773E+03  0.47000000000E+01 0. -1.
         -5    1    3    3    0  502 -0.56614293928E+01 -0.57567334779E+02 -0.10344425569E+03  0.11861219942E+03  0.47000000000E+01 0. -1.
          5    1    4    4  503    0 -0.53466456650E+02 -0.21781089306E+02 -0.30119718042E+03  0.30671633366E+03  0.47000000000E+01 0. -1.
         -5    1    4    4    0  503 -0.42653115523E+02  0.61590152809E+02 -0.69553461760E+03  0.69957353400E+03  0.47000000000E+01 0.  1.
<mgrwt>
<rscale>  0 0.15618970E+03</rscale>
<asrwt>0</asrwt>
<pdfrwt beam="1">  1        2 0.45726571E-02 0.16262746E+03</pdfrwt>
<pdfrwt beam="2">  1       -2 0.19485994E+00 0.16262746E+03</pdfrwt>
<totfact> 0.27339744E+02</totfact>
</mgrwt>
</event>
<event>
 8    1  0.3407580E-004  0.1407255E+03  0.7546771E-02  0.1221208E+00
         -1   -1    0    0    0  501 -0.00000000000E+00  0.00000000000E+00  0.22039231505E+02  0.22039231505E+02  0.00000000000E+00 0.  1.
          1   -1    0    0  501    0  0.00000000000E+00 -0.00000000000E+00 -0.75244061655E+03  0.75244061655E+03  0.00000000000E+00 0. -1.
         25    2    1    2    0    0  0.11240271344E+02 -0.63657500813E+02 -0.38912830749E+03  0.41379284331E+03  0.12500022551E+03 0.  0.
         23    2    1    2    0    0 -0.11240271344E+02  0.63657500813E+02 -0.34127307755E+03  0.36068700474E+03  0.97206896959E+02 0.  0.
          5    1    4    4  502    0 -0.55169392104E+01  0.83962363907E+02 -0.31777759569E+03  0.32876253663E+03  0.47000000000E+01 0. -1.
         -5    1    4    4    0  502 -0.57233321335E+01 -0.20304863094E+02 -0.23495481866E+02  0.31924468109E+02  0.47000000000E+01 0.  1.
          5    1    3    3  503    0 -0.39108371099E+02 -0.57409598477E+02 -0.32242075666E+03  0.32985233213E+03  0.47000000000E+01 0. -1.
         -5    1    3    3    0  503  0.50348642443E+02 -0.62479023359E+01 -0.66707550830E+02  0.83940511180E+02  0.47000000000E+01 0. -1.
<mgrwt>
<rscale>  0 0.13430214E+03</rscale>
<asrwt>0</asrwt>
<pdfrwt beam="1">  1        1 0.11576011E+00 0.14072554E+03</pdfrwt>
<pdfrwt beam="2">  1       -1 0.33906504E-02 0.14072554E+03</pdfrwt>
<totfact> 0.76874642E+03</totfact>
</mgrwt>
</event>
<event>
 8    1  0.3407580E-004  0.1748277E+03  0.7546771E-02  0.1178486E+00
         -2   -1    0    0    0  501 -0.00000000000E+00  0.00000000000E+00  0.31526664792E+02  0.31526664792E+02  0.00000000000E+00 0.  1.
          2   -1    0    0  501    0  0.00000000000E+00 -0.00000000000E+00 -0.86412676326E+03  0.86412676326E+03  0.00000000000E+00 0. -1.
         25    2    1    2    0    0  0.11785841425E+03  0.32387524996E+02 -0.48062926086E+03  0.51143838216E+03  0.12500069908E+03 0.  0.
         23    2    1    2    0    0 -0.11785841425E+03 -0.32387524996E+02 -0.35197083761E+03  0.38421504589E+03  0.93798578748E+02 0.  0.
          5    1    4    4  502    0 -0.31451697478E+02 -0.38874546521E+02 -0.22423664828E+03  0.22979252397E+03  0.47000000000E+01 0. -1.
         -5    1    3    3    0  503  0.11006097645E+03 -0.12612821367E+02 -0.42542334864E+03  0.43963577808E+03  0.47000000000E+01 0. -1.
          5    1    3    3  503    0  0.77974377984E+01  0.45000346363E+02 -0.55205912223E+02  0.71802604085E+02  0.47000000000E+01 0. -1.
         -5    1    4    4    0  502 -0.86406716774E+02  0.64870215249E+01 -0.12773418933E+03  0.15442252192E+03  0.47000000000E+01 0.  1.
<mgrwt>
<rscale>  0 0.16938994E+03</rscale>
<asrwt>0</asrwt>
<pdfrwt beam="1">  1        2 0.13294256E+00 0.17482772E+03</pdfrwt>
<pdfrwt beam="2">  1       -2 0.48502569E-02 0.17482772E+03</pdfrwt>
<totfact> 0.64486506E+03</totfact>
</mgrwt>
</event>
<event>
 8    1  0.3407580E-004  0.3021938E+03  0.7546771E-02  0.1085702E+00
         -2   -1    0    0    0  501 -0.00000000000E+00  0.00000000000E+00  0.23647621176E+03  0.23647621176E+03  0.00000000000E+00 0. -1.
          2   -1    0    0  501    0  0.00000000000E+00 -0.00000000000E+00 -0.38670250422E+03  0.38670250422E+03  0.00000000000E+00 0.  1.
         25    2    1    2    0    0  0.95645300747E+02  0.25797553572E+03 -0.13152853577E+02  0.30247990207E+03  0.12498677137E+03 0.  0.
         23    2    1    2    0    0 -0.95645300747E+02 -0.25797553572E+03 -0.13707343889E+03  0.32069881390E+03  0.91428666221E+02 0.  0.
          5    1    3    3  502    0 -0.22732326589E+02  0.22831103986E+02 -0.21547365019E+02  0.39043525976E+02  0.47000000000E+01 0.  1.
         -5    1    4    4    0  503 -0.40404173771E+02 -0.74347809947E+02 -0.89117978650E+02  0.12298047902E+03  0.47000000000E+01 0.  1.
          5    1    4    4  503    0 -0.55241126976E+02 -0.18362772577E+03 -0.47955460237E+02  0.19771833488E+03  0.47000000000E+01 0. -1.
         -5    1    3    3    0  502  0.11837762734E+03  0.23514443173E+03  0.83945114425E+01  0.26343637610E+03  0.47000000000E+01 0.  1.
<mgrwt>
<rscale>  0 0.29907970E+03</rscale>
<asrwt>0</asrwt>
<pdfrwt beam="1">  1        2 0.59492692E-01 0.30219380E+03</pdfrwt>
<pdfrwt beam="2">  1       -2 0.36380956E-01 0.30219380E+03</pdfrwt>
<totfact> 0.59391056E+02</totfact>
</mgrwt>
</event>
<event>
 8    1  0.3407580E-004  0.1297629E+03  0.7546771E-02  0.1241800E+00
          1   -1    0    0  501    0  0.00000000000E+00  0.00000000000E+00  0.12965528599E+03  0.12965528599E+03  0.00000000000E+00 0. -1.
         -1   -1    0    0    0  501 -0.00000000000E+00 -0.00000000000E+00 -0.99582262162E+02  0.99582262162E+02  0.00000000000E+00 0.  1.
         25    2    1    2    0    0 -0.30232738281E+02 -0.17280637085E+02  0.19987348248E+02  0.13129317636E+03  0.12500306071E+03 0.  0.
         23    2    1    2    0    0  0.30232738281E+02  0.17280637085E+02  0.10085675580E+02  0.97944371789E+02  0.90987582841E+02 0.  0.
          5    1    3    3  502    0 -0.38522105700E+02 -0.53637386337E+02 -0.26675346348E+02  0.71376368242E+02  0.47000000000E+01 0.  1.
         -5    1    3    3    0  502  0.82893674194E+01  0.36356749252E+02  0.46662694596E+02  0.59916808121E+02  0.47000000000E+01 0.  1.
          5    1    4    4  503    0  0.24528722421E+01 -0.36370328087E+02  0.20094255237E+01  0.36809579437E+02  0.47000000000E+01 0. -1.
         -5    1    4    4    0  503  0.27779866038E+02  0.53650965171E+02  0.80762500567E+01  0.61134792352E+02  0.47000000000E+01 0.  1.
<mgrwt>
<rscale>  0 0.12078945E+03</rscale>
<asrwt>0</asrwt>
<pdfrwt beam="1">  1        1 0.19946967E-01 0.12976288E+03</pdfrwt>
<pdfrwt beam="2">  1       -1 0.15320348E-01 0.12976288E+03</pdfrwt>
<totfact> 0.75091165E+03</totfact>
</mgrwt>
</event>
<event>
 8    1  0.3407580E-004  0.1367028E+03  0.7546771E-02  0.1230706E+00
          1   -1    0    0  501    0  0.00000000000E+00  0.00000000000E+00  0.43993774951E+02  0.43993774951E+02  0.00000000000E+00 0. -1.
         -1   -1    0    0    0  501 -0.00000000000E+00 -0.00000000000E+00 -0.43932785768E+03  0.43932785768E+03  0.00000000000E+00 0.  1.
         25    2    1    2    0    0 -0.24489767269E+02 -0.49683587886E+02 -0.98148420986E+02  0.16828775461E+03  0.12497779084E+03 0.  0.
         23    2    1    2    0    0  0.24489767269E+02  0.49683587886E+02 -0.29718566174E+03  0.31503387802E+03  0.88649981111E+02 0.  0.
          5    1    3    3  502    0 -0.16896739900E+02 -0.88102163793E+02 -0.40744893910E+02  0.98639380899E+02  0.47000000000E+01 0. -1.
         -5    1    3    3    0  502 -0.75930273690E+01  0.38418575908E+02 -0.57403527076E+02  0.69648373708E+02  0.47000000000E+01 0. -1.
          5    1    4    4  503    0  0.30127838458E+02  0.21382984929E+01 -0.27582694178E+02  0.41172247798E+02  0.47000000000E+01 0. -1.
         -5    1    4    4    0  503 -0.56380711894E+01  0.47545289393E+02 -0.26960296756E+03  0.27386163022E+03  0.47000000000E+01 0.  1.
<mgrwt>
<rscale>  0 0.12783383E+03</rscale>
<asrwt>0</asrwt>
<pdfrwt beam="1">  1        1 0.67682732E-02 0.13670280E+03</pdfrwt>
<pdfrwt beam="2">  1       -1 0.67588900E-01 0.13670280E+03</pdfrwt>
<totfact> 0.24361742E+03</totfact>
</mgrwt>
</event>
<event>
 8    1  0.3407580E-004  0.1445833E+03  0.7546771E-02  0.1216645E+00
         -2   -1    0    0    0  501 -0.00000000000E+00  0.00000000000E+00  0.35383965867E+03  0.35383965867E+03  0.00000000000E+00 0.  1.
          2   -1    0    0  501    0  0.00000000000E+00 -0.00000000000E+00 -0.49306375044E+02  0.49306375044E+02  0.00000000000E+00 0. -1.
         25    2    1    2    0    0 -0.40678574595E+02 -0.60199995109E+02  0.18554668564E+03  0.23522731605E+03  0.12500212726E+03 0.  0.
         23    2    1    2    0    0  0.40678574595E+02  0.60199995109E+02  0.11898659799E+03  0.16791871767E+03  0.93595402669E+02 0.  0.
          5    1    4    4  502    0 -0.19512826779E+02  0.13025161186E+02 -0.27425993142E+01  0.24083543839E+02  0.47000000000E+01 0. -1.
         -5    1    3    3    0  503 -0.29554737693E+02 -0.23636123619E+02 -0.70829456467E+01  0.38786685588E+02  0.47000000000E+01 0.  1.
          5    1    3    3  503    0 -0.11123836902E+02 -0.36563871490E+02  0.19262963129E+03  0.19644063046E+03  0.47000000000E+01 0.  1.
         -5    1    4    4    0  502  0.60191401374E+02  0.47174833922E+02  0.12172919730E+03  0.14383517383E+03  0.47000000000E+01 0.  1.
<mgrwt>
<rscale>  0 0.13756409E+03</rscale>
<asrwt>0</asrwt>
<pdfrwt beam="1">  1        2 0.75855964E-02 0.14458326E+03</pdfrwt>
<pdfrwt beam="2">  1       -2 0.54436869E-01 0.14458326E+03</pdfrwt>
<totfact> 0.28339635E+03</totfact>
</mgrwt>
</event>
<event>
 8    1  0.3407580E-004  0.1606350E+03  0.7546771E-02  0.1195530E+00
         -1   -1    0    0    0  501 -0.00000000000E+00  0.00000000000E+00  0.28623301294E+03  0.28623301294E+03  0.00000000000E+00 0.  1.
          1   -1    0    0  501    0  0.00000000000E+00 -0.00000000000E+00 -0.76960581268E+02  0.76960581268E+02  0.00000000000E+00 0. -1.
         25    2    1    2    0    0  0.83749197183E+01 -0.10053445653E+03  0.11956771261E+03  0.20024995429E+03  0.12500516015E+03 0.  0.
         23    2    1    2    0    0 -0.83749197183E+01  0.10053445653E+03  0.89704719065E+02  0.16294363992E+03  0.91248983212E+02 0.  0.
          5    1    3    3  502    0  0.62912423084E+02 -0.35575122322E+02  0.75227399993E+02  0.10442611750E+03  0.47000000000E+01 0.  1.
         -5    1    4    4    0  503  0.21870478043E+02  0.32356762076E+02  0.77920760108E+02  0.87286956171E+02  0.47000000000E+01 0.  1.
          5    1    4    4  503    0 -0.30245397761E+02  0.68177694457E+02  0.11783958957E+02  0.75656683749E+02  0.47000000000E+01 0. -1.
         -5    1    3    3    0  502 -0.54537503366E+02 -0.64959334211E+02  0.44340312618E+02  0.95823836792E+02  0.47000000000E+01 0.  1.
<mgrwt>
<rscale>  0 0.15409461E+03</rscale>
<asrwt>0</asrwt>
<pdfrwt beam="1">  1        1 0.11840090E-01 0.16063501E+03</pdfrwt>
<pdfrwt beam="2">  1       -1 0.44035848E-01 0.16063501E+03</pdfrwt>
<totfact> 0.25863370E+03</totfact>
</mgrwt>
</event>
<event>
 8    1  0.3407580E-004  0.1279899E+03  0.7546771E-02  0.1245246E+00
         -1   -1    0    0    0  501 -0.00000000000E+00  0.00000000000E+00  0.14116872030E+03  0.14116872030E+03  0.00000000000E+00 0.  1.
          1   -1    0    0  501    0  0.00000000000E+00 -0.00000000000E+00 -0.11313123610E+03  0.11313123610E+03  0.00000000000E+00 0. -1.
         25    2    1    2    0    0  0.21860499556E+02  0.16586194585E+02  0.75257275156E+02  0.14847587036E+03  0.12501377254E+03 0.  0.
         23    2    1    2    0    0 -0.21860499556E+02 -0.16586194585E+02 -0.47219790959E+02  0.10582408604E+03  0.90642403077E+02 0.  0.
          5    1    3    3  502    0  0.55863666351E+02 -0.31927055105E+02  0.20573258074E+02  0.67715840197E+02  0.47000000000E+01 0. -1.
         -5    1    4    4    0  503 -0.17419048349E+02  0.36664004158E+02 -0.17018441180E+02  0.44264995047E+02  0.47000000000E+01 0.  1.
          5    1    4    4  503    0 -0.44414512070E+01 -0.53250198743E+02 -0.30201349779E+02  0.61559090990E+02  0.47000000000E+01 0. -1.
         -5    1    3    3    0  502 -0.34003166795E+02  0.48513249690E+02  0.54684017083E+02  0.80760030163E+02  0.47000000000E+01 0. -1.
<mgrwt>
<rscale>  0 0.11870666E+03</rscale>
<asrwt>0</asrwt>
<pdfrwt beam="1">  1        1 0.17404806E-01 0.12798995E+03</pdfrwt>
<pdfrwt beam="2">  1       -1 0.21718265E-01 0.12798995E+03</pdfrwt>
<totfact> 0.51236483E+03</totfact>
</mgrwt>
</event>
<event>
 8    1  0.3407580E-004  0.1381678E+03  0.7546771E-02  0.1227356E+00
          1   -1    0    0  501    0  0.00000000000E+00  0.00000000000E+00  0.12275982035E+03  0.12275982035E+03  0.00000000000E+00 0. -1.
         -1   -1    0    0    0  501 -0.00000000000E+00 -0.00000000000E+00 -0.12397829716E+03  0.12397829716E+03  0.00000000000E+00 0.  1.
         25    2    1    2    0    0  0.57108545778E+02  0.14231845092E+02 -0.34064551118E+01  0.13820976810E+03  0.12500561846E+03 0.  0.
         23    2    1    2    0    0 -0.57108545778E+02 -0.14231845092E+02  0.21879783045E+01  0.10852834941E+03  0.91157467944E+02 0.  0.
          5    1    3    3  502    0  0.36656319183E+02  0.42101916919E+01 -0.63601109079E+02  0.73679050796E+02  0.47000000000E+01 0.  1.
         -5    1    3    3    0  502  0.20452226595E+02  0.10021653400E+02  0.60194653967E+02  0.64530717304E+02  0.47000000000E+01 0.  1.
          5    1    4    4  503    0  0.14696613243E+02  0.21303665628E+02  0.94385943312E+01  0.27946621852E+02  0.47000000000E+01 0. -1.
         -5    1    4    4    0  503 -0.71805159021E+02 -0.35535510720E+02 -0.72506160267E+01  0.80581727562E+02  0.47000000000E+01 0.  1.
<mgrwt>
<rscale>  0 0.13006751E+03</rscale>
<asrwt>0</asrwt>
<pdfrwt beam="1">  1        1 0.18886126E-01 0.13816778E+03</pdfrwt>
<pdfrwt beam="2">  1       -1 0.19073584E-01 0.13816778E+03</pdfrwt>
<totfact> 0.57155453E+03</totfact>
</mgrwt>
</event>
<event>
 8    1  0.3407580E-004  0.1843299E+03  0.7546771E-02  0.1169060E+00
          1   -1    0    0  501    0  0.00000000000E+00  0.00000000000E+00  0.21877648240E+03  0.21877648240E+03  0.00000000000E+00 0. -1.
         -1   -1    0    0    0  501 -0.00000000000E+00 -0.00000000000E+00 -0.18611510402E+03  0.18611510402E+03  0.00000000000E+00 0.  1.
         25    2    1    2    0    0  0.23790652848E+02 -0.13336391450E+03 -0.85992150087E+02  0.20340148079E+03  0.12500233461E+03 0.  0.
         23    2    1    2    0    0 -0.23790652848E+02  0.13336391450E+03  0.11865352847E+03  0.20149010562E+03  0.90375184593E+02 0.  0.
          5    1    3    3  502    0  0.69847024680E+02 -0.89000110256E+02 -0.27305421215E+02  0.11647876420E+03  0.47000000000E+01 0.  1.
         -5    1    3    3    0  502 -0.46056371831E+02 -0.44363804249E+02 -0.58686728872E+02  0.86922716590E+02  0.47000000000E+01 0.  1.
          5    1    4    4  503    0  0.33631104231E+02  0.49229797195E+02  0.32916547229E+02  0.68265754117E+02  0.47000000000E+01 0. -1.
         -5    1    4    4    0  503 -0.57421757080E+02  0.84134117309E+02  0.85736981240E+02  0.13322435150E+03  0.47000000000E+01 0.  1.
<mgrwt>
<rscale>  0 0.17870748E+03</rscale>
<asrwt>0</asrwt>
<pdfrwt beam="1">  1        1 0.33657920E-01 0.18432990E+03</pdfrwt>
<pdfrwt beam="2">  1       -1 0.28633093E-01 0.18432990E+03</pdfrwt>
<totfact> 0.14353937E+03</totfact>
</mgrwt>
</event>
<event>
 8    1  0.3407580E-004  0.1322026E+03  0.7546771E-02  0.1237603E+00
          2   -1    0    0  501    0  0.00000000000E+00  0.00000000000E+00  0.20160420590E+03  0.20160420590E+03  0.00000000000E+00 0. -1.
         -2   -1    0    0    0  501 -0.00000000000E+00 -0.00000000000E+00 -0.69328771340E+02  0.69328771340E+02  0.00000000000E+00 0.  1.
         25    2    1    2    0    0 -0.24674280460E+02 -0.35238677883E+02  0.50579936188E+02  0.14154807957E+03  0.12500777716E+03 0.  0.
         23    2    1    2    0    0  0.24674280460E+02  0.35238677883E+02  0.81695498370E+02  0.12938489767E+03  0.90640569039E+02 0.  0.
          5    1    4    4  502    0  0.55181974849E+01  0.44537618049E+02  0.94055273588E+02  0.10431938657E+03  0.47000000000E+01 0. -1.
         -5    1    4    4    0  502  0.19156082975E+02 -0.92989401658E+01 -0.12359775218E+02  0.25065511098E+02  0.47000000000E+01 0.  1.
          5    1    3    3  503    0  0.30558275635E+02 -0.61098123414E+02  0.40499968492E+02  0.79555806465E+02  0.47000000000E+01 0.  1.
         -5    1    3    3    0  503 -0.55232556095E+02  0.25859445530E+02  0.10079967696E+02  0.61992273104E+02  0.47000000000E+01 0.  1.
<mgrwt>
<rscale>  0 0.12339249E+03</rscale>
<asrwt>0</asrwt>
<pdfrwt beam="1">  1        2 0.31016031E-01 0.13220261E+03</pdfrwt>
<pdfrwt beam="2">  1       -2 0.10665965E-01 0.13220261E+03</pdfrwt>
<totfact> 0.95263057E+03</totfact>
</mgrwt>
</event>
<event>
 8    1  0.3407580E-004  0.1299137E+03  0.7546771E-02  0.1239799E+00
         -3   -1    0    0    0  501 -0.00000000000E+00  0.00000000000E+00  0.36950629922E+03  0.36950629922E+03  0.00000000000E+00 0.  1.
          3   -1    0    0  501    0  0.00000000000E+00 -0.00000000000E+00 -0.42226819786E+02  0.42226819786E+02  0.00000000000E+00 0. -1.
         25    2    1    2    0    0 -0.28298466211E+02  0.21252952122E+02  0.25892489869E+03  0.28968893150E+03  0.12500033083E+03 0.  0.
         23    2    1    2    0    0  0.28298466211E+02 -0.21252952122E+02  0.68354580745E+02  0.12204418751E+03  0.94709787415E+02 0.  0.
          5    1    4    4  502    0 -0.27490173340E+02 -0.33530994612E+02  0.25988365976E+02  0.50769305648E+02  0.47000000000E+01 0. -1.
         -5    1    3    3    0  503 -0.45161589862E+02 -0.32378719775E+02  0.55859996313E+02  0.78932755439E+02  0.47000000000E+01 0. -1.
          5    1    3    3  503    0  0.16863123651E+02  0.53631671897E+02  0.20306490238E+03  0.21075617606E+03  0.47000000000E+01 0. -1.
         -5    1    4    4    0  502  0.55788639551E+02  0.12278042490E+02  0.42366214769E+02  0.71274881861E+02  0.47000000000E+01 0.  1.
<mgrwt>
<rscale>  0 0.12202127E+03</rscale>
<asrwt>0</asrwt>
<pdfrwt beam="1">  1        3 0.64964341E-02 0.12991372E+03</pdfrwt>
<pdfrwt beam="2">  1       -3 0.56847121E-01 0.12991372E+03</pdfrwt>
<totfact> 0.10548153E+03</totfact>
</mgrwt>
</event>
<event>
 8    1  0.3407580E-004  0.2324006E+03  0.7546771E-02  0.1127709E+00
          2   -1    0    0  501    0  0.00000000000E+00  0.00000000000E+00  0.15863930682E+03  0.15863930682E+03  0.00000000000E+00 0. -1.
         -2   -1    0    0    0  501 -0.00000000000E+00 -0.00000000000E+00 -0.33130749244E+03  0.33130749244E+03  0.00000000000E+00 0.  1.
         25    2    1    2    0    0 -0.91909763727E+02  0.17302317428E+03 -0.13735178804E+03  0.26995475811E+03  0.12500253694E+03 0.  0.
         23    2    1    2    0    0  0.91909763727E+02 -0.17302317428E+03 -0.35316397580E+02  0.21999204114E+03  0.93620653279E+02 0.  0.
          5    1    3    3  502    0 -0.52788281325E+02  0.16137518948E+03 -0.56056330491E+02  0.17886575025E+03  0.47000000000E+01 0. -1.
         -5    1    3    3    0  502 -0.39121482403E+02  0.11647984805E+02 -0.81295457549E+02  0.91089007863E+02  0.47000000000E+01 0. -1.
          5    1    4    4  503    0  0.10810156277E+03 -0.12044995938E+03 -0.25249532572E+02  0.16387119785E+03  0.47000000000E+01 0. -1.
         -5    1    4    4    0  503 -0.16191799042E+02 -0.52573214899E+02 -0.10066865008E+02  0.56120843294E+02  0.47000000000E+01 0.  1.
<mgrwt>
<rscale>  0 0.22848744E+03</rscale>
<asrwt>0</asrwt>
<pdfrwt beam="1">  1        2 0.24406047E-01 0.23240064E+03</pdfrwt>
<pdfrwt beam="2">  1       -2 0.50970383E-01 0.23240064E+03</pdfrwt>
<totfact> 0.81589706E+02</totfact>
</mgrwt>
</event>
<event>
 8    1  0.3407580E-004  0.1312820E+03  0.7546771E-02  0.1238202E+00
         -1   -1    0    0    0  501 -0.00000000000E+00  0.00000000000E+00  0.19650860681E+03  0.19650860681E+03  0.00000000000E+00 0.  1.
          1   -1    0    0  501    0  0.00000000000E+00 -0.00000000000E+00 -0.85827310581E+02  0.85827310581E+02  0.00000000000E+00 0. -1.
         25    2    1    2    0    0 -0.33511732852E+02  0.22070570192E+02 -0.14378795551E+01  0.13128983646E+03  0.12499922941E+03 0.  0.
         23    2    1    2    0    0  0.33511732852E+02 -0.22070570192E+02  0.11211917578E+03  0.15104608093E+03  0.92919657116E+02 0.  0.
          5    1    4    4  502    0 -0.15931812045E+02 -0.36688716068E+02  0.19063866698E+02  0.44557889707E+02  0.47000000000E+01 0. -1.
         -5    1    3    3    0  503  0.39828039134E+02 -0.15638046903E+02 -0.18656046537E+02  0.46914382491E+02  0.47000000000E+01 0.  1.
          5    1    3    3  503    0 -0.73339771986E+02  0.37708617095E+02  0.17218166982E+02  0.84375453969E+02  0.47000000000E+01 0.  1.
         -5    1    4    4    0  502  0.49443544897E+02  0.14618145875E+02  0.93055309083E+02  0.10648819122E+03  0.47000000000E+01 0.  1.
<mgrwt>
<rscale>  0 0.12301657E+03</rscale>
<asrwt>0</asrwt>
<pdfrwt beam="1">  1        1 0.13204202E-01 0.13128196E+03</pdfrwt>
<pdfrwt beam="2">  1       -1 0.30232093E-01 0.13128196E+03</pdfrwt>
<totfact> 0.42536947E+03</totfact>
</mgrwt>
</event>
<event>
 8    1  0.3407580E-004  0.2277699E+03  0.7546771E-02  0.1131240E+00
         -1   -1    0    0    0  501 -0.00000000000E+00  0.00000000000E+00  0.71664685945E+02  0.71664685945E+02  0.00000000000E+00 0.  1.
          1   -1    0    0  501    0  0.00000000000E+00 -0.00000000000E+00 -0.87731610662E+03  0.87731610662E+03  0.00000000000E+00 0. -1.
         25    2    1    2    0    0 -0.17323671787E+03 -0.79010915739E+02 -0.18545885580E+03  0.29372459367E+03  0.12500185803E+03 0.  0.
         23    2    1    2    0    0  0.17323671787E+03  0.79010915739E+02 -0.62019256488E+03  0.65525619890E+03  0.92022733237E+02 0.  0.
          5    1    3    3  502    0 -0.16444134299E+03 -0.22115811066E+02 -0.11184425070E+03  0.20015316834E+03  0.47000000000E+01 0.  1.
         -5    1    3    3    0  502 -0.87953748850E+01 -0.56895104673E+02 -0.73614605093E+02  0.93571425329E+02  0.47000000000E+01 0.  1.
          5    1    4    4  503    0  0.64253651812E+02  0.72790805772E+01 -0.34017884241E+03  0.34630225470E+03  0.47000000000E+01 0. -1.
         -5    1    4    4    0  503  0.10898306606E+03  0.71731835162E+02 -0.28001372247E+03  0.30895394420E+03  0.47000000000E+01 0.  1.
<mgrwt>
<rscale>  0 0.22358224E+03</rscale>
<asrwt>0</asrwt>
<pdfrwt beam="1">  1        1 0.13497170E+00 0.22776995E+03</pdfrwt>
<pdfrwt beam="2">  1       -1 0.11025337E-01 0.22776995E+03</pdfrwt>
<totfact> 0.10442947E+03</totfact>
</mgrwt>
</event>
<event>
 8    1  0.3407580E-004  0.1320592E+03  0.7546771E-02  0.1237823E+00
          1   -1    0    0  501    0  0.00000000000E+00  0.00000000000E+00  0.14343830321E+03  0.14343830321E+03  0.00000000000E+00 0. -1.
         -1   -1    0    0    0  501 -0.00000000000E+00 -0.00000000000E+00 -0.95032592165E+02  0.95032592165E+02  0.00000000000E+00 0.  1.
         25    2    1    2    0    0 -0.16092589435E+02 -0.39436665089E+02  0.39643968722E+02  0.13788142225E+03  0.12500168142E+03 0.  0.
         23    2    1    2    0    0  0.16092589435E+02  0.39436665089E+02  0.87617423271E+01  0.10058947313E+03  0.90704200493E+02 0.  0.
          5    1    3    3  502    0  0.48826692451E+02 -0.43103267946E+02  0.92479214280E+01  0.65951130802E+02  0.47000000000E+01 0. -1.
         -5    1    4    4    0  503  0.46773350426E+02  0.15509809740E+02 -0.18504509147E+02  0.52847018526E+02  0.47000000000E+01 0.  1.
          5    1    4    4  503    0 -0.30680760991E+02  0.23926855349E+02  0.27266251474E+02  0.47742454601E+02  0.47000000000E+01 0. -1.
         -5    1    3    3    0  502 -0.64919281886E+02  0.36666028572E+01  0.30396047294E+02  0.71930291451E+02  0.47000000000E+01 0. -1.
<mgrwt>
<rscale>  0 0.12325407E+03</rscale>
<asrwt>0</asrwt>
<pdfrwt beam="1">  1        1 0.22067431E-01 0.13205924E+03</pdfrwt>
<pdfrwt beam="2">  1       -1 0.14620399E-01 0.13205924E+03</pdfrwt>
<totfact> 0.71187170E+03</totfact>
</mgrwt>
</event>
<event>
 8    1  0.3407580E-004  0.1433190E+03  0.7546771E-02  0.1219160E+00
          2   -1    0    0  501    0  0.00000000000E+00  0.00000000000E+00  0.58011942966E+03  0.58011942966E+03  0.00000000000E+00 0. -1.
         -2   -1    0    0    0  501 -0.00000000000E+00 -0.00000000000E+00 -0.33790916764E+02  0.33790916764E+02  0.00000000000E+00 0.  1.
         25    2    1    2    0    0  0.46940051418E+02  0.52093068512E+02  0.18142951595E+03  0.23120773120E+03  0.12499315779E+03 0.  0.
         23    2    1    2    0    0 -0.46940051418E+02 -0.52093068512E+02  0.36489899695E+03  0.38270261522E+03  0.91613085929E+02 0.  0.
          5    1    3    3  502    0  0.38362713006E+02  0.26763456842E+02  0.19518725009E+03  0.20076885458E+03  0.47000000000E+01 0. -1.
         -5    1    3    3    0  502  0.85773384115E+01  0.25329611670E+02 -0.13757734137E+02  0.30438876624E+02  0.47000000000E+01 0. -1.
          5    1    4    4  503    0 -0.14222941812E+02 -0.60527668002E+02  0.32155686611E+03  0.32754663608E+03  0.47000000000E+01 0. -1.
         -5    1    4    4    0  503 -0.32717109606E+02  0.84345994903E+01  0.43342130836E+02  0.55155979141E+02  0.47000000000E+01 0.  1.
<mgrwt>
<rscale>  0 0.13575324E+03</rscale>
<asrwt>0</asrwt>
<pdfrwt beam="1">  1        2 0.89249136E-01 0.14331903E+03</pdfrwt>
<pdfrwt beam="2">  1       -2 0.51986030E-02 0.14331903E+03</pdfrwt>
<totfact> 0.92866285E+03</totfact>
</mgrwt>
</event>
<event>
 8    1  0.3407580E-004  0.1399210E+03  0.7546771E-02  0.1222273E+00
         -4   -1    0    0    0  501 -0.00000000000E+00  0.00000000000E+00  0.64434499288E+03  0.64434499288E+03  0.00000000000E+00 0. -1.
          4   -1    0    0  501    0  0.00000000000E+00 -0.00000000000E+00 -0.36056147118E+02  0.36056147118E+02  0.00000000000E+00 0.  1.
         25    2    1    2    0    0  0.24852072130E+02 -0.57746846790E+02  0.14003804756E+03  0.19796095329E+03  0.12500224182E+03 0.  0.
         23    2    1    2    0    0 -0.24852072130E+02  0.57746846790E+02  0.46825079821E+03  0.48244018671E+03  0.97659612580E+02 0.  0.
          5    1    4    4  502    0  0.20446116501E+02 -0.13430856207E+02  0.19045058808E+03  0.19207276766E+03  0.47000000000E+01 0. -1.
         -5    1    4    4    0  502 -0.45298188631E+02  0.71177702997E+02  0.27780021013E+03  0.29036741905E+03  0.47000000000E+01 0.  1.
          5    1    3    3  503    0 -0.41552227917E+02 -0.49384089409E+02  0.10211258548E+03  0.12089022311E+03  0.47000000000E+01 0.  1.
         -5    1    3    3    0  503  0.66404300047E+02 -0.83627573814E+01  0.37925462078E+02  0.77070730174E+02  0.47000000000E+01 0.  1.
<mgrwt>
<rscale>  0 0.13355573E+03</rscale>
<asrwt>0</asrwt>
<pdfrwt beam="1">  1        4 0.55471000E-02 0.13992099E+03</pdfrwt>
<pdfrwt beam="2">  1       -4 0.99129990E-01 0.13992099E+03</pdfrwt>
<totfact> 0.29538280E+02</totfact>
</mgrwt>
</event>
<event>
 8    1  0.3407580E-004  0.1250170E+03  0.7546771E-02  0.1250856E+00
          1   -1    0    0  501    0  0.00000000000E+00  0.00000000000E+00  0.31143829884E+03  0.31143829884E+03  0.00000000000E+00 0. -1.
         -1   -1    0    0    0  501 -0.00000000000E+00 -0.00000000000E+00 -0.38662378309E+02  0.38662378309E+02  0.00000000000E+00 0.  1.
         25    2    1    2    0    0 -0.17417743114E+01  0.46422560505E+00  0.18860516019E+03  0.22627671213E+03  0.12500397881E+03 0.  0.
         23    2    1    2    0    0  0.17417743114E+01 -0.46422560505E+00  0.84170760346E+02  0.12382396502E+03  0.90798723193E+02 0.  0.
          5    1    3    3  502    0 -0.13594930269E+02 -0.44694204515E+02  0.16903590640E+03  0.17543552006E+03  0.47000000000E+01 0.  1.
         -5    1    4    4    0  503  0.17977742153E+02 -0.42000658699E+02  0.44539249128E+02  0.63977255778E+02  0.47000000000E+01 0.  1.
          5    1    4    4  503    0 -0.16235967842E+02  0.41536433094E+02  0.39631511218E+02  0.59846709244E+02  0.47000000000E+01 0. -1.
         -5    1    3    3    0  502  0.11853155957E+02  0.45158430120E+02  0.19569253783E+02  0.50841192066E+02  0.47000000000E+01 0.  1.
<mgrwt>
<rscale>  0 0.11541654E+03</rscale>
<asrwt>0</asrwt>
<pdfrwt beam="1">  1        1 0.47913583E-01 0.12501697E+03</pdfrwt>
<pdfrwt beam="2">  1       -1 0.59480584E-02 0.12501697E+03</pdfrwt>
<totfact> 0.10620936E+04</totfact>
</mgrwt>
</event>
<event>
 8    1  0.3407580E-004  0.1718127E+03  0.7546771E-02  0.1182218E+00
         -1   -1    0    0    0  501 -0.00000000000E+00  0.00000000000E+00  0.86663004342E+02  0.86663004342E+02  0.00000000000E+00 0.  1.
          1   -1    0    0  501    0  0.00000000000E+00 -0.00000000000E+00 -0.33260843101E+03  0.33260843101E+03  0.00000000000E+00 0. -1.
         25    2    1    2    0    0 -0.11686407514E+03 -0.15413814670E+02 -0.62634909463E+02  0.18287356635E+03  0.12499924658E+03 0.  0.
         23    2    1    2    0    0  0.11686407514E+03  0.15413814670E+02 -0.18331051720E+03  0.23639786900E+03  0.91577338946E+02 0.  0.
          5    1    4    4  502    0  0.81734233258E+02  0.26870752365E+02 -0.17930517100E+03  0.19893455347E+03  0.47000000000E+01 0. -1.
         -5    1    3    3    0  503 -0.35069740075E+02  0.36645276441E+02 -0.68803118547E+02  0.85607955682E+02  0.47000000000E+01 0. -1.
          5    1    3    3  503    0 -0.81794335064E+02 -0.52059091111E+02  0.61682090835E+01  0.97265610670E+02  0.47000000000E+01 0. -1.
         -5    1    4    4    0  502  0.35129841881E+02 -0.11456937695E+02 -0.40053462064E+01  0.37463315525E+02  0.47000000000E+01 0.  1.
<mgrwt>
<rscale>  0 0.16587610E+03</rscale>
<asrwt>0</asrwt>
<pdfrwt beam="1">  1        1 0.51170528E-01 0.17181272E+03</pdfrwt>
<pdfrwt beam="2">  1       -1 0.13332770E-01 0.17181272E+03</pdfrwt>
<totfact> 0.29201559E+03</totfact>
</mgrwt>
</event>
<event>
 8    1  0.3407580E-004  0.1536210E+03  0.7546771E-02  0.1204615E+00
          1   -1    0    0  501    0  0.00000000000E+00  0.00000000000E+00  0.15327949277E+03  0.15327949277E+03  0.00000000000E+00 0. -1.
         -1   -1    0    0    0  501 -0.00000000000E+00 -0.00000000000E+00 -0.15506594760E+03  0.15506594760E+03  0.00000000000E+00 0.  1.
         25    2    1    2    0    0  0.45650655375E+02  0.76769080850E+02 -0.63875364883E+02  0.16637146172E+03  0.12498770709E+03 0.  0.
         23    2    1    2    0    0 -0.45650655375E+02 -0.76769080850E+02  0.62088910061E+02  0.14197397865E+03  0.91236526411E+02 0.  0.
          5    1    3    3  502    0  0.94590399884E+01  0.32717797014E+02  0.36935802458E+02  0.50460590386E+02  0.47000000000E+01 0.  1.
         -5    1    3    3    0  502  0.36191615386E+02  0.44051283836E+02 -0.10081116734E+03  0.11591087133E+03  0.47000000000E+01 0.  1.
          5    1    4    4  503    0 -0.30902229755E+01 -0.75128596751E+02  0.64326750523E+02  0.99065010779E+02  0.47000000000E+01 0. -1.
         -5    1    4    4    0  503 -0.42560432399E+02 -0.16404840990E+01 -0.22378404626E+01  0.42908967874E+02  0.47000000000E+01 0.  1.
<mgrwt>
<rscale>  0 0.14667854E+03</rscale>
<asrwt>0</asrwt>
<pdfrwt beam="1">  1        1 0.23581460E-01 0.15362097E+03</pdfrwt>
<pdfrwt beam="2">  1       -1 0.23856300E-01 0.15362097E+03</pdfrwt>
<totfact> 0.30192832E+03</totfact>
</mgrwt>
</event>
<event>
 8    1  0.3407580E-004  0.1599600E+03  0.7546771E-02  0.1196232E+00
          1   -1    0    0  501    0  0.00000000000E+00  0.00000000000E+00  0.72869410844E+02  0.72869410844E+02  0.00000000000E+00 0. -1.
         -1   -1    0    0    0  501 -0.00000000000E+00 -0.00000000000E+00 -0.32643757664E+03  0.32643757664E+03  0.00000000000E+00 0.  1.
         25    2    1    2    0    0  0.80667476137E+02  0.58782524893E+02 -0.79518947698E+02  0.17863500842E+03  0.12499830499E+03 0.  0.
         23    2    1    2    0    0 -0.80667476137E+02 -0.58782524893E+02 -0.17404921810E+03  0.22067197907E+03  0.91871459583E+02 0.  0.
          5    1    4    4  502    0 -0.24032207955E+02 -0.47517161415E+02 -0.21724602057E+02  0.57701611613E+02  0.47000000000E+01 0. -1.
         -5    1    3    3    0  503  0.46579184071E+02  0.11547314382E+02  0.28362370178E+02  0.55941709844E+02  0.47000000000E+01 0.  1.
          5    1    3    3  503    0  0.34088292066E+02  0.47235210511E+02 -0.10788131788E+03  0.12269329857E+03  0.47000000000E+01 0.  1.
         -5    1    4    4    0  502 -0.56635268182E+02 -0.11265363478E+02 -0.15232461604E+03  0.16297036745E+03  0.47000000000E+01 0.  1.
<mgrwt>
<rscale>  0 0.15350397E+03</rscale>
<asrwt>0</asrwt>
<pdfrwt beam="1">  1        1 0.11210679E-01 0.15996000E+03</pdfrwt>
<pdfrwt beam="2">  1       -1 0.50221166E-01 0.15996000E+03</pdfrwt>
<totfact> 0.21905387E+03</totfact>
</mgrwt>
</event>
<event>
 8    1  0.3407580E-004  0.1393886E+03  0.7546771E-02  0.1226027E+00
         -1   -1    0    0    0  501 -0.00000000000E+00  0.00000000000E+00  0.26745452796E+03  0.26745452796E+03  0.00000000000E+00 0.  1.
          1   -1    0    0  501    0  0.00000000000E+00 -0.00000000000E+00 -0.64615794962E+02  0.64615794962E+02  0.00000000000E+00 0. -1.
         25    2    1    2    0    0 -0.61046021934E+02 -0.88259807642E+01  0.57893802298E+02  0.15093337022E+03  0.12499870068E+03 0.  0.
         23    2    1    2    0    0  0.61046021934E+02  0.88259807642E+01  0.14494493070E+03  0.18113695270E+03  0.89426215212E+02 0.  0.
          5    1    4    4  502    0  0.28848005626E+02 -0.11220963390E+02  0.13897099408E+03  0.14245400888E+03  0.47000000000E+01 0.  1.
         -5    1    3    3    0  503 -0.34929889698E+02 -0.18608309792E+02  0.95730202104E+02  0.10369536143E+03  0.47000000000E+01 0. -1.
          5    1    3    3  503    0 -0.26116132236E+02  0.97823290281E+01 -0.37836399806E+02  0.47238008790E+02  0.47000000000E+01 0. -1.
         -5    1    4    4    0  502  0.32198016309E+02  0.20046944154E+02  0.59739366147E+01  0.38682943823E+02  0.47000000000E+01 0. -1.
<mgrwt>
<rscale>  0 0.13096732E+03</rscale>
<asrwt>0</asrwt>
<pdfrwt beam="1">  1        1 0.99408917E-02 0.13938863E+03</pdfrwt>
<pdfrwt beam="2">  1       -1 0.41146850E-01 0.13938863E+03</pdfrwt>
<totfact> 0.36505379E+03</totfact>
</mgrwt>
</event>
<event>
 8    1  0.3407580E-004  0.1269204E+03  0.7546771E-02  0.1246328E+00
          2   -1    0    0  501    0  0.00000000000E+00  0.00000000000E+00  0.45023386484E+03  0.45023386484E+03  0.00000000000E+00 0. -1.
         -2   -1    0    0    0  501 -0.00000000000E+00 -0.00000000000E+00 -0.30127991025E+02  0.30127991025E+02  0.00000000000E+00 0.  1.
         25    2    1    2    0    0  0.20550861604E+02 -0.78734636132E+01  0.30966198551E+03  0.33466301234E+03  0.12499782884E+03 0.  0.
         23    2    1    2    0    0 -0.20550861604E+02  0.78734636132E+01  0.11044388830E+03  0.14569884353E+03  0.92444422219E+02 0.  0.
          5    1    4    4  502    0  0.21391628943E+02 -0.25338106768E+02  0.72739272882E+02  0.80079418472E+02  0.47000000000E+01 0. -1.
         -5    1    4    4    0  502 -0.41942490546E+02  0.33211570381E+02  0.37704615422E+02  0.65619425055E+02  0.47000000000E+01 0.  1.
          5    1    3    3  503    0  0.50661217649E+02  0.29244329444E+02  0.25603691722E+03  0.26267619374E+03  0.47000000000E+01 0. -1.
         -5    1    3    3    0  503 -0.30110356045E+02 -0.37117793057E+02  0.53625068289E+02  0.71986818596E+02  0.47000000000E+01 0. -1.
<mgrwt>
<rscale>  0 0.11806233E+03</rscale>
<asrwt>0</asrwt>
<pdfrwt beam="1">  1        2 0.69266744E-01 0.12692039E+03</pdfrwt>
<pdfrwt beam="2">  1       -2 0.46350759E-02 0.12692039E+03</pdfrwt>
<totfact> 0.14460394E+04</totfact>
</mgrwt>
</event>
<event>
 8    1  0.3407580E-004  0.1520347E+03  0.7546771E-02  0.1206558E+00
          3   -1    0    0  501    0  0.00000000000E+00  0.00000000000E+00  0.23498644957E+03  0.23498644957E+03  0.00000000000E+00 0. -1.
         -3   -1    0    0    0  501 -0.00000000000E+00 -0.00000000000E+00 -0.84028655189E+02  0.84028655189E+02  0.00000000000E+00 0.  1.
         25    2    1    2    0    0  0.44176554144E+02  0.74418190407E+02  0.60428499488E+02  0.16360366638E+03  0.12499968441E+03 0.  0.
         23    2    1    2    0    0 -0.44176554144E+02 -0.74418190407E+02  0.90529294889E+02  0.15541143838E+03  0.92019166185E+02 0.  0.
          5    1    4    4  502    0  0.13313009146E+02 -0.15065792828E+02  0.65902885543E+02  0.69061527994E+02  0.47000000000E+01 0. -1.
         -5    1    4    4    0  502 -0.57489563290E+02 -0.59352397578E+02  0.24626409346E+02  0.86349910381E+02  0.47000000000E+01 0.  1.
          5    1    3    3  503    0  0.18427310130E+02  0.79324048217E+02 -0.15596500941E+02  0.83049450485E+02  0.47000000000E+01 0. -1.
         -5    1    3    3    0  503  0.25749244014E+02 -0.49058578107E+01  0.76025000429E+02  0.80554215895E+02  0.47000000000E+01 0. -1.
<mgrwt>
<rscale>  0 0.14515318E+03</rscale>
<asrwt>0</asrwt>
<pdfrwt beam="1">  1        3 0.36151761E-01 0.15203472E+03</pdfrwt>
<pdfrwt beam="2">  1       -3 0.12927486E-01 0.15203472E+03</pdfrwt>
<totfact> 0.84929392E+02</totfact>
</mgrwt>
</event>
<event>
 8    1  0.3407580E-004  0.1621093E+03  0.7546771E-02  0.1193963E+00
          1   -1    0    0  501    0  0.00000000000E+00  0.00000000000E+00  0.16905230023E+03  0.16905230023E+03  0.00000000000E+00 0. -1.
         -1   -1    0    0    0  501 -0.00000000000E+00 -0.00000000000E+00 -0.13304550850E+03  0.13304550850E+03  0.00000000000E+00 0.  1.
         25    2    1    2    0    0 -0.31774949347E+02 -0.98211887008E+02  0.81177774416E+01  0.16231242278E+03  0.12499680845E+03 0.  0.
         23    2    1    2    0    0  0.31774949347E+02  0.98211887008E+02  0.27889014291E+02  0.13978538594E+03  0.90038518702E+02 0.  0.
          5    1    3    3  502    0  0.15052005909E+02 -0.10965757411E+03 -0.84893523968E+01  0.11111033051E+03  0.47000000000E+01 0.  1.
         -5    1    3    3    0  502 -0.46826955255E+02  0.11445687102E+02  0.16607129838E+02  0.51202092274E+02  0.47000000000E+01 0.  1.
          5    1    4    4  503    0  0.12202351381E+02  0.10803776287E+03  0.37918824282E+02  0.11524314652E+03  0.47000000000E+01 0. -1.
         -5    1    4    4    0  503  0.19572597966E+02 -0.98258758603E+01 -0.10029809991E+02  0.24542239426E+02  0.47000000000E+01 0.  1.
<mgrwt>
<rscale>  0 0.15542336E+03</rscale>
<asrwt>0</asrwt>
<pdfrwt beam="1">  1        1 0.26008046E-01 0.16210930E+03</pdfrwt>
<pdfrwt beam="2">  1       -1 0.20468540E-01 0.16210930E+03</pdfrwt>
<totfact> 0.34325945E+03</totfact>
</mgrwt>
</event>
<event>
 8    1  0.3407580E-004  0.2363538E+03  0.7546771E-02  0.1125077E+00
         -2   -1    0    0    0  501 -0.00000000000E+00  0.00000000000E+00  0.30515861540E+02  0.30515861540E+02  0.00000000000E+00 0.  1.
          2   -1    0    0  501    0  0.00000000000E+00 -0.00000000000E+00 -0.17708297948E+04  0.17708297948E+04  0.00000000000E+00 0. -1.
         25    2    1    2    0    0  0.41441051936E+01  0.20055172076E+03 -0.73067296517E+03  0.76794928966E+03  0.12499985258E+03 0.  0.
         23    2    1    2    0    0 -0.41441051936E+01 -0.20055172076E+03 -0.10096409681E+04  0.10333963667E+04  0.91076890127E+02 0.  0.
          5    1    4    4  502    0  0.25165832902E+02 -0.26277615772E+02 -0.95211290224E+02  0.10203485690E+03  0.47000000000E+01 0. -1.
         -5    1    3    3    0  503  0.28828288741E+02  0.19946563181E+01 -0.17278037206E+03  0.17524324767E+03  0.47000000000E+01 0.  1.
          5    1    3    3  503    0 -0.24684183547E+02  0.19855706445E+03 -0.55789259311E+03  0.59270604198E+03  0.47000000000E+01 0.  1.
         -5    1    4    4    0  502 -0.29309938095E+02 -0.17427410499E+03 -0.91442967784E+03  0.93136150976E+03  0.47000000000E+01 0.  1.
<mgrwt>
<rscale>  0 0.23223453E+03</rscale>
<asrwt>0</asrwt>
<pdfrwt beam="1">  1        2 0.27243536E+00 0.23635382E+03</pdfrwt>
<pdfrwt beam="2">  1       -2 0.46947479E-02 0.23635382E+03</pdfrwt>
<totfact> 0.21159021E+03</totfact>
</mgrwt>
</event>
<event>
 8    1  0.3407580E-004  0.1441114E+03  0.7546771E-02  0.1217004E+00
         -3   -1    0    0    0  501 -0.00000000000E+00  0.00000000000E+00  0.65376499567E+02  0.65376499567E+02  0.00000000000E+00 0.  1.
          3   -1    0    0  501    0  0.00000000000E+00 -0.00000000000E+00 -0.27754195436E+03  0.27754195436E+03  0.00000000000E+00 0. -1.
         25    2    1    2    0    0 -0.51348352707E+02 -0.50076501713E+02 -0.15322194005E+03  0.21034506400E+03  0.12499509465E+03 0.  0.
         23    2    1    2    0    0  0.51348352707E+02  0.50076501713E+02 -0.58943514748E+02  0.13257338993E+03  0.94641726724E+02 0.  0.
          5    1    3    3  502    0 -0.55586566502E+02 -0.72533196815E+02 -0.16147284034E+03  0.18559768097E+03  0.47000000000E+01 0. -1.
         -5    1    3    3    0  502  0.42382137946E+01  0.22456695102E+02  0.82509002900E+01  0.24747383026E+02  0.47000000000E+01 0. -1.
          5    1    4    4  503    0  0.27319494614E+02 -0.21949872036E+02 -0.41508257953E+02  0.54526847943E+02  0.47000000000E+01 0. -1.
         -5    1    4    4    0  503  0.24028858093E+02  0.72026373749E+02 -0.17435256795E+02  0.78046541987E+02  0.47000000000E+01 0.  1.
<mgrwt>
<rscale>  0 0.13730340E+03</rscale>
<asrwt>0</asrwt>
<pdfrwt beam="1">  1        3 0.42698763E-01 0.14411136E+03</pdfrwt>
<pdfrwt beam="2">  1       -3 0.10057923E-01 0.14411136E+03</pdfrwt>
<totfact> 0.93072894E+02</totfact>
</mgrwt>
</event>
<event>
 8    1  0.3407580E-004  0.1286757E+03  0.7546771E-02  0.1241287E+00
         -1   -1    0    0    0  501 -0.00000000000E+00  0.00000000000E+00  0.40649004351E+03  0.40649004351E+03  0.00000000000E+00 0.  1.
          1   -1    0    0  501    0  0.00000000000E+00 -0.00000000000E+00 -0.40571046361E+02  0.40571046361E+02  0.00000000000E+00 0. -1.
         25    2    1    2    0    0 -0.27375846514E+02  0.13504765352E+02  0.10107430199E+03  0.16362595551E+03  0.12500249251E+03 0.  0.
         23    2    1    2    0    0  0.27375846514E+02 -0.13504765352E+02  0.26484469516E+03  0.28343513436E+03  0.96233815150E+02 0.  0.
          5    1    3    3  502    0 -0.10556963567E+02 -0.42739805454E+02  0.94511847579E+02  0.10436819335E+03  0.47000000000E+01 0.  1.
         -5    1    3    3    0  502 -0.16818882948E+02  0.56244570806E+02  0.65624544155E+01  0.59257762164E+02  0.47000000000E+01 0.  1.
          5    1    4    4  503    0 -0.20921645366E+02  0.11590299949E+02  0.17190725146E+02  0.29827191098E+02  0.47000000000E+01 0. -1.
         -5    1    4    4    0  503  0.48297491881E+02 -0.25095065300E+02  0.24765397001E+03  0.25360794326E+03  0.47000000000E+01 0.  1.
<mgrwt>
<rscale>  0 0.12110412E+03</rscale>
<asrwt>0</asrwt>
<pdfrwt beam="1">  1        1 0.62416997E-02 0.12867571E+03</pdfrwt>
<pdfrwt beam="2">  1       -1 0.62536927E-01 0.12867571E+03</pdfrwt>
<totfact> 0.31490275E+03</totfact>
</mgrwt>
</event>
<event>
 8    1  0.3407580E-004  0.1258286E+03  0.7546771E-02  0.1249656E+00
         -4   -1    0    0    0  501 -0.00000000000E+00  0.00000000000E+00  0.20105504127E+03  0.20105504127E+03  0.00000000000E+00 0.  1.
          4   -1    0    0  501    0  0.00000000000E+00 -0.00000000000E+00 -0.59547829022E+02  0.59547829022E+02  0.00000000000E+00 0. -1.
         25    2    1    2    0    0 -0.13548286668E+02  0.50120496860E+01  0.98217367505E+02  0.15962291821E+03  0.12499659205E+03 0.  0.
         23    2    1    2    0    0  0.13548286668E+02 -0.50120496860E+01  0.43289844742E+02  0.10097995208E+03  0.90079205985E+02 0.  0.
          5    1    3    3  502    0 -0.36126294288E+02 -0.50983772262E+02  0.33751227540E+02  0.71173657581E+02  0.47000000000E+01 0. -1.
         -5    1    3    3    0  502  0.22578007620E+02  0.55995821948E+02  0.64466139965E+02  0.88449260628E+02  0.47000000000E+01 0. -1.
          5    1    4    4  503    0  0.32094797292E+02 -0.37036941619E+02  0.84829135249E+01  0.49958591649E+02  0.47000000000E+01 0. -1.
         -5    1    4    4    0  503 -0.18546510624E+02  0.32024891933E+02  0.34806931217E+02  0.51021360433E+02  0.47000000000E+01 0.  1.
<mgrwt>
<rscale>  0 0.11610983E+03</rscale>
<asrwt>0</asrwt>
<pdfrwt beam="1">  1        4 0.91612045E-02 0.12582855E+03</pdfrwt>
<pdfrwt beam="2">  1       -4 0.30931545E-01 0.12582855E+03</pdfrwt>
<totfact> 0.14294128E+03</totfact>
</mgrwt>
</event>
<event>
 8    1  0.3407580E-004  0.2427669E+03  0.7546771E-02  0.1120679E+00
          2   -1    0    0  501    0  0.00000000000E+00  0.00000000000E+00  0.22984828599E+04  0.22984828599E+04  0.00000000000E+00 0. -1.
         -2   -1    0    0    0  501 -0.00000000000E+00 -0.00000000000E+00 -0.25462825732E+02  0.25462825732E+02  0.00000000000E+00 0.  1.
         25    2    1    2    0    0  0.17229140919E+03 -0.11672982919E+03  0.89294027972E+03  0.92535297452E+03  0.12500240638E+03 0.  0.
         23    2    1    2    0    0 -0.17229140919E+03  0.11672982919E+03  0.13800797545E+04  0.13985927111E+04  0.90173500737E+02 0.  0.
          5    1    3    3  502    0  0.95926197314E+02 -0.12631001352E+03  0.48839633074E+03  0.51352616362E+03  0.47000000000E+01 0. -1.
         -5    1    4    4    0  503 -0.72510799576E+02  0.10037157408E+03  0.84290933014E+03  0.85196860141E+03  0.47000000000E+01 0.  1.
          5    1    4    4  503    0 -0.99780609613E+02  0.16358255115E+02  0.53717042432E+03  0.54662410972E+03  0.47000000000E+01 0. -1.
         -5    1    3    3    0  502  0.76365211875E+02  0.95801843221E+01  0.40454394899E+03  0.41182681090E+03  0.47000000000E+01 0. -1.
<mgrwt>
<rscale>  0 0.23867465E+03</rscale>
<asrwt>0</asrwt>
<pdfrwt beam="1">  1        2 0.35361258E+00 0.24276693E+03</pdfrwt>
<pdfrwt beam="2">  1       -2 0.39173596E-02 0.24276693E+03</pdfrwt>
<totfact> 0.14672764E+03</totfact>
</mgrwt>
</event>
<event>
 8    1  0.3407580E-004  0.1697454E+03  0.7546771E-02  0.1184778E+00
         -1   -1    0    0    0  501 -0.00000000000E+00  0.00000000000E+00  0.55228613283E+02  0.55228613283E+02  0.00000000000E+00 0.  1.
          1   -1    0    0  501    0  0.00000000000E+00 -0.00000000000E+00 -0.53690320704E+03  0.53690320704E+03  0.00000000000E+00 0. -1.
         25    2    1    2    0    0  0.79528625665E+02 -0.82848614113E+02 -0.13836239848E+03  0.21899232290E+03  0.12499915606E+03 0.  0.
         23    2    1    2    0    0 -0.79528625665E+02  0.82848614113E+02 -0.34331219528E+03  0.37313949742E+03  0.90449576833E+02 0.  0.
          5    1    4    4  502    0 -0.85574757071E+02  0.31367806791E+02 -0.18134180993E+03  0.20301211880E+03  0.47000000000E+01 0. -1.
         -5    1    4    4    0  502  0.60461314056E+01  0.51480807322E+02 -0.16197038535E+03  0.17012737862E+03  0.47000000000E+01 0.  1.
          5    1    3    3  503    0  0.45139620402E+02  0.15227174835E+01 -0.11670112613E+03  0.12522438596E+03  0.47000000000E+01 0. -1.
         -5    1    3    3    0  503  0.34389005263E+02 -0.84371331596E+02 -0.21661272346E+02  0.93767936940E+02  0.47000000000E+01 0. -1.
<mgrwt>
<rscale>  0 0.16352100E+03</rscale>
<asrwt>0</asrwt>
<pdfrwt beam="1">  1        1 0.82600498E-01 0.16974535E+03</pdfrwt>
<pdfrwt beam="2">  1       -1 0.84967092E-02 0.16974535E+03</pdfrwt>
<totfact> 0.31603667E+03</totfact>
</mgrwt>
</event>
<event>
 8    1  0.3407580E-004  0.1289082E+03  0.7546771E-02  0.1240609E+00
          2   -1    0    0  501    0  0.00000000000E+00  0.00000000000E+00  0.16467719284E+03  0.16467719284E+03  0.00000000000E+00 0. -1.
         -2   -1    0    0    0  501 -0.00000000000E+00 -0.00000000000E+00 -0.10919284959E+03  0.10919284959E+03  0.00000000000E+00 0.  1.
         25    2    1    2    0    0 -0.32283852025E+01 -0.31388146941E+02 -0.39308237086E+02  0.13476818179E+03  0.12498674762E+03 0.  0.
         23    2    1    2    0    0  0.32283852025E+01  0.31388146941E+02  0.94792580342E+02  0.13910186064E+03  0.96788718904E+02 0.  0.
          5    1    3    3  502    0 -0.82905680368E+01 -0.70868646144E+02 -0.56521964479E+02  0.91147797523E+02  0.47000000000E+01 0. -1.
         -5    1    3    3    0  502  0.50621828342E+01  0.39480499203E+02  0.17213727394E+02  0.43620384262E+02  0.47000000000E+01 0. -1.
          5    1    4    4  503    0 -0.24140014662E+02  0.39482898439E+02  0.99462802617E+02  0.10980245299E+03  0.47000000000E+01 0. -1.
         -5    1    4    4    0  503  0.27368399865E+02 -0.80947514981E+01 -0.46702222756E+01  0.29299407658E+02  0.47000000000E+01 0.  1.
<mgrwt>
<rscale>  0 0.12152056E+03</rscale>
<asrwt>0</asrwt>
<pdfrwt beam="1">  1        2 0.25334953E-01 0.12890821E+03</pdfrwt>
<pdfrwt beam="2">  1       -2 0.16798900E-01 0.12890821E+03</pdfrwt>
<totfact> 0.56942793E+03</totfact>
</mgrwt>
</event>
<event>
 8    1  0.3407580E-004  0.1263170E+03  0.7546771E-02  0.1248231E+00
          2   -1    0    0  501    0  0.00000000000E+00  0.00000000000E+00  0.67730149896E+02  0.67730149896E+02  0.00000000000E+00 0. -1.
         -2   -1    0    0    0  501 -0.00000000000E+00 -0.00000000000E+00 -0.21733738887E+03  0.21733738887E+03  0.00000000000E+00 0.  1.
         25    2    1    2    0    0 -0.14482559489E+02  0.11073677075E+02 -0.23468640280E+02  0.12847859624E+03  0.12499440692E+03 0.  0.
         23    2    1    2    0    0  0.14482559489E+02 -0.11073677075E+02 -0.12613859869E+03  0.15658894252E+03  0.90976810161E+02 0.  0.
          5    1    4    4  502    0  0.10360339577E+02  0.24866871929E+02 -0.22467160617E+01  0.27437851387E+02  0.47000000000E+01 0. -1.
         -5    1    4    4    0  502  0.41222199121E+01 -0.35940549005E+02 -0.12389188263E+03  0.12915109114E+03  0.47000000000E+01 0.  1.
          5    1    3    3  503    0  0.54949047148E+02  0.11782412559E+02 -0.59062189964E+01  0.56702702326E+02  0.47000000000E+01 0. -1.
         -5    1    3    3    0  503 -0.69431606637E+02 -0.70873548402E+00 -0.17562421283E+02  0.71775893917E+02  0.47000000000E+01 0. -1.
<mgrwt>
<rscale>  0 0.11694086E+03</rscale>
<asrwt>0</asrwt>
<pdfrwt beam="1">  1        2 0.10420023E-01 0.12631695E+03</pdfrwt>
<pdfrwt beam="2">  1       -2 0.33436522E-01 0.12631695E+03</pdfrwt>
<totfact> 0.48226169E+03</totfact>
</mgrwt>
</event>
<event>
 8    1  0.3407580E-004  0.1383468E+03  0.7546771E-02  0.1226369E+00
         -1   -1    0    0    0  501 -0.00000000000E+00  0.00000000000E+00  0.34656891888E+02  0.34656891888E+02  0.00000000000E+00 0.  1.
          1   -1    0    0  501    0  0.00000000000E+00 -0.00000000000E+00 -0.46185522304E+03  0.46185522304E+03  0.00000000000E+00 0. -1.
         25    2    1    2    0    0  0.57461746183E+02 -0.14628568780E+02 -0.28247925714E+03  0.31453832121E+03  0.12499590991E+03 0.  0.
         23    2    1    2    0    0 -0.57461746183E+02  0.14628568780E+02 -0.14471907401E+03  0.18197379372E+03  0.93032273538E+02 0.  0.
          5    1    3    3  502    0  0.74366923976E+02  0.21331884039E+02 -0.25363228905E+03  0.26521107953E+03  0.47000000000E+01 0. -1.
         -5    1    4    4    0  503 -0.32512121757E+02  0.39451087538E+02 -0.25001200231E+02  0.57101456917E+02  0.47000000000E+01 0.  1.
          5    1    4    4  503    0 -0.24949624427E+02 -0.24822518757E+02 -0.11971787378E+03  0.12487233681E+03  0.47000000000E+01 0. -1.
         -5    1    3    3    0  502 -0.16905177793E+02 -0.35960452819E+02 -0.28846968093E+02  0.49327241676E+02  0.47000000000E+01 0. -1.
<mgrwt>
<rscale>  0 0.13073499E+03</rscale>
<asrwt>0</asrwt>
<pdfrwt beam="1">  1        1 0.71054646E-01 0.13834676E+03</pdfrwt>
<pdfrwt beam="2">  1       -1 0.53318298E-02 0.13834676E+03</pdfrwt>
<totfact> 0.76717249E+03</totfact>
</mgrwt>
</event>
<event>
 8    1  0.3407580E-004  0.1289070E+03  0.7546771E-02  0.1243688E+00
          1   -1    0    0  501    0  0.00000000000E+00  0.00000000000E+00  0.10808174562E+04  0.10808174562E+04  0.00000000000E+00 0. -1.
         -1   -1    0    0    0  501 -0.00000000000E+00 -0.00000000000E+00 -0.12850960394E+02  0.12850960394E+02  0.00000000000E+00 0.  1.
         25    2    1    2    0    0 -0.24646040075E+02 -0.19556382590E+02  0.77024827748E+03  0.78096057814E+03  0.12500854474E+03 0.  0.
         23    2    1    2    0    0  0.24646040075E+02  0.19556382590E+02  0.29771821832E+03  0.31270783845E+03  0.90333688703E+02 0.  0.
          5    1    4    4  502    0  0.48322230163E+02  0.40743034432E+02  0.20591392207E+03  0.21544759475E+03  0.47000000000E+01 0. -1.
         -5    1    3    3    0  503 -0.64722248291E+02 -0.39320004424E+01  0.64852026994E+03  0.65177071166E+03  0.47000000000E+01 0.  1.
          5    1    3    3  503    0  0.40076208216E+02 -0.15624382148E+02  0.12172800754E+03  0.12918986648E+03  0.47000000000E+01 0.  1.
         -5    1    4    4    0  502 -0.23676190088E+02 -0.21186651842E+02  0.91804296251E+02  0.97260243694E+02  0.47000000000E+01 0.  1.
<mgrwt>
<rscale>  0 0.11964246E+03</rscale>
<asrwt>0</asrwt>
<pdfrwt beam="1">  1        1 0.16627954E+00 0.12890700E+03</pdfrwt>
<pdfrwt beam="2">  1       -1 0.19770717E-02 0.12890700E+03</pdfrwt>
<totfact> 0.93692734E+03</totfact>
</mgrwt>
</event>
<event>
 8    1  0.3407580E-004  0.1943538E+03  0.7546771E-02  0.1159167E+00
          1   -1    0    0  501    0  0.00000000000E+00  0.00000000000E+00  0.10250476248E+03  0.10250476248E+03  0.00000000000E+00 0. -1.
         -1   -1    0    0    0  501 -0.00000000000E+00 -0.00000000000E+00 -0.39083239622E+03  0.39083239622E+03  0.00000000000E+00 0.  1.
         25    2    1    2    0    0 -0.13450096243E+03 -0.63680776356E+02 -0.24627444010E+03  0.31372681741E+03  0.12501066332E+03 0.  0.
         23    2    1    2    0    0  0.13450096243E+03  0.63680776356E+02 -0.42053193639E+02  0.17961034129E+03  0.91354547954E+02 0.  0.
          5    1    3    3  502    0 -0.13941619177E+03 -0.90572854176E+02 -0.21686261235E+03  0.27329800416E+03  0.47000000000E+01 0.  1.
         -5    1    4    4    0  503  0.11365687296E+03  0.29199658240E+02 -0.63727497011E+02  0.13361807021E+03  0.47000000000E+01 0.  1.
          5    1    4    4  503    0  0.20844089471E+02  0.34481118116E+02  0.21674303372E+02  0.45992271079E+02  0.47000000000E+01 0. -1.
         -5    1    3    3    0  502  0.49152293458E+01  0.26892077820E+02 -0.29411827745E+02  0.40428813244E+02  0.47000000000E+01 0.  1.
<mgrwt>
<rscale>  0 0.18921999E+03</rscale>
<asrwt>0</asrwt>
<pdfrwt beam="1">  1        1 0.15769963E-01 0.19435384E+03</pdfrwt>
<pdfrwt beam="2">  1       -1 0.60128062E-01 0.19435384E+03</pdfrwt>
<totfact> 0.10041416E+03</totfact>
</mgrwt>
</event>
<event>
 8    1  0.3407580E-004  0.1309289E+03  0.7546771E-02  0.1242803E+00
         -2   -1    0    0    0  501 -0.00000000000E+00  0.00000000000E+00  0.32112039113E+02  0.32112039113E+02  0.00000000000E+00 0.  1.
          2   -1    0    0  501    0  0.00000000000E+00 -0.00000000000E+00 -0.44847814836E+03  0.44847814836E+03  0.00000000000E+00 0. -1.
         25    2    1    2    0    0  0.38602198653E+02 -0.52786810982E+01 -0.15336969291E+03  0.20165472983E+03  0.12499749256E+03 0.  0.
         23    2    1    2    0    0 -0.38602198653E+02  0.52786810982E+01 -0.26299641634E+03  0.27893545765E+03  0.84379383189E+02 0.  0.
          5    1    4    4  502    0 -0.28719778053E+02  0.40962229724E+02 -0.19498887258E+03  0.20135908310E+03  0.47000000000E+01 0. -1.
         -5    1    3    3    0  503  0.34705262053E+02 -0.63224862355E+02 -0.77182262901E+02  0.10574039030E+03  0.47000000000E+01 0. -1.
          5    1    3    3  503    0  0.38969366005E+01  0.57946181257E+02 -0.76187430008E+02  0.95914339534E+02  0.47000000000E+01 0. -1.
         -5    1    4    4    0  502 -0.98824205999E+01 -0.35683548625E+02 -0.68007543759E+02  0.77576374545E+02  0.47000000000E+01 0.  1.
<mgrwt>
<rscale>  0 0.12017867E+03</rscale>
<asrwt>0</asrwt>
<pdfrwt beam="1">  1        2 0.68996634E-01 0.13092886E+03</pdfrwt>
<pdfrwt beam="2">  1       -2 0.49403140E-02 0.13092886E+03</pdfrwt>
<totfact> 0.13233119E+04</totfact>
</mgrwt>
</event>
<event>
 8    1  0.3407580E-004  0.1417128E+03  0.7546771E-02  0.1221701E+00
         -3   -1    0    0    0  501 -0.00000000000E+00  0.00000000000E+00  0.19439383269E+03  0.19439383269E+03  0.00000000000E+00 0.  1.
          3   -1    0    0  501    0  0.00000000000E+00 -0.00000000000E+00 -0.84947934777E+02  0.84947934777E+02  0.00000000000E+00 0. -1.
         25    2    1    2    0    0  0.44590821708E+02 -0.49674470145E+02  0.42821685944E+02  0.14804126736E+03  0.12500650259E+03 0.  0.
         23    2    1    2    0    0 -0.44590821708E+02  0.49674470145E+02  0.66624211969E+02  0.13130050011E+03  0.91351745158E+02 0.  0.
          5    1    4    4  502    0 -0.29878206502E+02 -0.21913399139E+02  0.98234751286E+01  0.38619877643E+02  0.47000000000E+01 0. -1.
         -5    1    4    4    0  502 -0.14712615206E+02  0.71587869284E+02  0.56800736840E+02  0.92680622464E+02  0.47000000000E+01 0.  1.
          5    1    3    3  503    0 -0.11920473773E+01 -0.83999869960E+02  0.28885330537E+02  0.88959830544E+02  0.47000000000E+01 0.  1.
         -5    1    3    3    0  503  0.45782869085E+02  0.34325399815E+02  0.13936355407E+02  0.59081436815E+02  0.47000000000E+01 0.  1.
<mgrwt>
<rscale>  0 0.13395609E+03</rscale>
<asrwt>0</asrwt>
<pdfrwt beam="1">  1        3 0.13068913E-01 0.14171281E+03</pdfrwt>
<pdfrwt beam="2">  1       -3 0.29906743E-01 0.14171281E+03</pdfrwt>
<totfact> 0.11769787E+03</totfact>
</mgrwt>
</event>
<event>
 8    1  0.3407580E-004  0.1367710E+03  0.7546771E-02  0.1228886E+00
         -3   -1    0    0    0  501 -0.00000000000E+00  0.00000000000E+00  0.45903775250E+02  0.45903775250E+02  0.00000000000E+00 0.  1.
          3   -1    0    0  501    0  0.00000000000E+00 -0.00000000000E+00 -0.36665863341E+03  0.36665863341E+03  0.00000000000E+00 0. -1.
         25    2    1    2    0    0 -0.37575734403E+01  0.55388027294E+02 -0.24414180291E+03  0.27984198584E+03  0.12499745672E+03 0.  0.
         23    2    1    2    0    0  0.37575734403E+01 -0.55388027294E+02 -0.76613055247E+02  0.13272042282E+03  0.93076299200E+02 0.  0.
          5    1    3    3  502    0  0.34075007872E+02 -0.56757171381E-02 -0.94005418220E+01  0.35659029435E+02  0.47000000000E+01 0.  1.
         -5    1    4    4    0  503 -0.21431990701E+02 -0.18383203540E+02  0.13759064650E+02  0.31759632520E+02  0.47000000000E+01 0.  1.
          5    1    4    4  503    0  0.25189564141E+02 -0.37004823754E+02 -0.90372119897E+02  0.10096079030E+03  0.47000000000E+01 0. -1.
         -5    1    3    3    0  502 -0.37832581312E+02  0.55393703011E+02 -0.23474126109E+03  0.24418295640E+03  0.47000000000E+01 0.  1.
<mgrwt>
<rscale>  0 0.12904106E+03</rscale>
<asrwt>0</asrwt>
<pdfrwt beam="1">  1        3 0.56409023E-01 0.13677104E+03</pdfrwt>
<pdfrwt beam="2">  1       -3 0.70621189E-02 0.13677104E+03</pdfrwt>
<totfact> 0.94523526E+02</totfact>
</mgrwt>
</event>
<event>
 8    1  0.3407580E-004  0.1342525E+03  0.7546771E-02  0.1233878E+00
         -2   -1    0    0    0  501 -0.00000000000E+00  0.00000000000E+00  0.13238229616E+02  0.13238229616E+02  0.00000000000E+00 0.  1.
          2   -1    0    0  501    0  0.00000000000E+00 -0.00000000000E+00 -0.12111589121E+04  0.12111589121E+04  0.00000000000E+00 0. -1.
         25    2    1    2    0    0 -0.22688364059E+01 -0.48917412663E+02 -0.87746547831E+03  0.88767640518E+03  0.12500269520E+03 0.  0.
         23    2    1    2    0    0  0.22688364059E+01  0.48917412663E+02 -0.32045520415E+03  0.33672073651E+03  0.91056332292E+02 0.  0.
          5    1    3    3  502    0 -0.48658510837E+02  0.11816666577E+02 -0.50002009075E+03  0.50254299860E+03  0.47000000000E+01 0.  1.
         -5    1    4    4    0  503 -0.30514519659E+02  0.48526206700E+02 -0.11465429412E+03  0.12827168747E+03  0.47000000000E+01 0.  1.
          5    1    4    4  503    0  0.32783356065E+02  0.39120596304E+00 -0.20580091003E+03  0.20844904904E+03  0.47000000000E+01 0. -1.
         -5    1    3    3    0  502  0.46389674431E+02 -0.60734079241E+02 -0.37744538755E+03  0.38513340657E+03  0.47000000000E+01 0.  1.
<mgrwt>
<rscale>  0 0.12576521E+03</rscale>
<asrwt>0</asrwt>
<pdfrwt beam="1">  1        2 0.18633213E+00 0.13425250E+03</pdfrwt>
<pdfrwt beam="2">  1       -2 0.20366508E-02 0.13425250E+03</pdfrwt>
<totfact> 0.14272167E+04</totfact>
</mgrwt>
</event>
<event>
 8    1  0.3407580E-004  0.1263021E+03  0.7546771E-02  0.1247797E+00
         -1   -1    0    0    0  501 -0.00000000000E+00  0.00000000000E+00  0.79613610712E+02  0.79613610712E+02  0.00000000000E+00 0.  1.
          1   -1    0    0  501    0  0.00000000000E+00 -0.00000000000E+00 -0.16968544369E+03  0.16968544369E+03  0.00000000000E+00 0. -1.
         25    2    1    2    0    0  0.34224051156E+01 -0.17774403519E+02 -0.90991497545E+02  0.15566526286E+03  0.12499831663E+03 0.  0.
         23    2    1    2    0    0 -0.34224051156E+01  0.17774403519E+02  0.91966456241E+00  0.93633791544E+02  0.91862935173E+02 0.  0.
          5    1    3    3  502    0  0.29506003436E+02  0.41094904168E+02 -0.72459372038E+02  0.88497717391E+02  0.47000000000E+01 0.  1.
         -5    1    4    4    0  503  0.34503687945E+02 -0.14864346678E+02 -0.15281830337E+02  0.40829861896E+02  0.47000000000E+01 0.  1.
          5    1    4    4  503    0 -0.37926093061E+02  0.32638750196E+02  0.16201494899E+02  0.52803929648E+02  0.47000000000E+01 0. -1.
         -5    1    3    3    0  502 -0.26083598320E+02 -0.58869307686E+02 -0.18532125507E+02  0.67167545471E+02  0.47000000000E+01 0.  1.
<mgrwt>
<rscale>  0 0.11719548E+03</rscale>
<asrwt>0</asrwt>
<pdfrwt beam="1">  1        1 0.26105453E-01 0.12630210E+03</pdfrwt>
<pdfrwt beam="2">  1       -1 0.12248248E-01 0.12630210E+03</pdfrwt>
<totfact> 0.75621812E+03</totfact>
</mgrwt>
</event>
<event>
 8    1  0.3407580E-004  0.3126353E+03  0.7546771E-02  0.1080502E+00
         -2   -1    0    0    0  501 -0.00000000000E+00  0.00000000000E+00  0.31378986629E+02  0.31378986629E+02  0.00000000000E+00 0.  1.
          2   -1    0    0  501    0  0.00000000000E+00 -0.00000000000E+00 -0.32951385185E+04  0.32951385185E+04  0.00000000000E+00 0. -1.
         25    2    1    2    0    0 -0.28589874074E+03 -0.19464591056E+02 -0.21582136700E+04  0.21807400311E+04  0.12499550957E+03 0.  0.
         23    2    1    2    0    0  0.28589874074E+03  0.19464591056E+02 -0.11055458618E+04  0.11457774740E+04  0.91964162210E+02 0.  0.
          5    1    4    4  502    0  0.27209575319E+02  0.25894698572E+02 -0.21815436653E+03  0.22141434922E+03  0.47000000000E+01 0. -1.
         -5    1    4    4    0  502  0.25868916542E+03 -0.64301075165E+01 -0.88739149531E+03  0.92436312482E+03  0.47000000000E+01 0.  1.
          5    1    3    3  503    0 -0.21909634765E+03  0.36244408492E+02 -0.16847358779E+04  0.16993157255E+04  0.47000000000E+01 0. -1.
         -5    1    3    3    0  503 -0.66802393097E+02 -0.55708999548E+02 -0.47347779213E+03  0.48142430558E+03  0.47000000000E+01 0. -1.
<mgrwt>
<rscale>  0 0.30967360E+03</rscale>
<asrwt>0</asrwt>
<pdfrwt beam="1">  1        2 0.50694432E+00 0.31263531E+03</pdfrwt>
<pdfrwt beam="2">  1       -2 0.48275370E-02 0.31263531E+03</pdfrwt>
<totfact> 0.28094772E+02</totfact>
</mgrwt>
</event>
<event>
 8    1  0.3407580E-004  0.2355874E+03  0.7546771E-02  0.1125635E+00
         -4   -1    0    0    0  501 -0.00000000000E+00  0.00000000000E+00  0.32561324940E+03  0.32561324940E+03  0.00000000000E+00 0.  1.
          4   -1    0    0  501    0  0.00000000000E+00 -0.00000000000E+00 -0.18735728963E+03  0.18735728963E+03  0.00000000000E+00 0. -1.
         25    2    1    2    0    0 -0.16581587508E+03  0.11126662286E+03 -0.28613653559E+02  0.23731869638E+03  0.12500502666E+03 0.  0.
         23    2    1    2    0    0  0.16581587508E+03 -0.11126662286E+03  0.16686961332E+03  0.27565184265E+03  0.90902721191E+02 0.  0.
          5    1    4    4  502    0  0.15690095226E+03 -0.77449316771E+02  0.16462890562E+03  0.24029372038E+03  0.47000000000E+01 0. -1.
         -5    1    3    3    0  503 -0.92680250423E+02  0.80661877042E+02 -0.76277278663E+02  0.14469374716E+03  0.47000000000E+01 0.  1.
          5    1    3    3  503    0 -0.73135624652E+02  0.30604745814E+02  0.47663625103E+02  0.92624949218E+02  0.47000000000E+01 0.  1.
         -5    1    4    4    0  502  0.89149228144E+01 -0.33817306085E+02  0.22407076988E+01  0.35358122272E+02  0.47000000000E+01 0.  1.
<mgrwt>
<rscale>  0 0.23143316E+03</rscale>
<asrwt>0</asrwt>
<pdfrwt beam="1">  1        4 0.28824198E-01 0.23558740E+03</pdfrwt>
<pdfrwt beam="2">  1       -4 0.50094346E-01 0.23558740E+03</pdfrwt>
<totfact> 0.80385552E+01</totfact>
</mgrwt>
</event>
<event>
 8    1  0.3407580E-004  0.1650179E+03  0.7546771E-02  0.1190012E+00
          2   -1    0    0  501    0  0.00000000000E+00  0.00000000000E+00  0.13484684207E+03  0.13484684207E+03  0.00000000000E+00 0. -1.
         -2   -1    0    0    0  501 -0.00000000000E+00 -0.00000000000E+00 -0.17452798869E+03  0.17452798869E+03  0.00000000000E+00 0.  1.
         25    2    1    2    0    0  0.11775992045E+02  0.10708790898E+03 -0.16706766994E+02  0.16586145102E+03  0.12499764250E+03 0.  0.
         23    2    1    2    0    0 -0.11775992045E+02 -0.10708790898E+03 -0.22974379633E+02  0.14351337974E+03  0.91987900333E+02 0.  0.
          5    1    4    4  502    0  0.25417849851E+02 -0.63146161379E+02  0.20471617617E+02  0.71236801696E+02  0.47000000000E+01 0. -1.
         -5    1    4    4    0  502 -0.37193841896E+02 -0.43941747599E+02 -0.43445997251E+02  0.72276578047E+02  0.47000000000E+01 0.  1.
          5    1    3    3  503    0 -0.19141169431E+02  0.12641099117E+03 -0.86643303385E+01  0.12823136775E+03  0.47000000000E+01 0. -1.
         -5    1    3    3    0  503  0.30917161476E+02 -0.19323082190E+02 -0.80424366560E+01  0.37630083264E+02  0.47000000000E+01 0. -1.
<mgrwt>
<rscale>  0 0.15884078E+03</rscale>
<asrwt>0</asrwt>
<pdfrwt beam="1">  1        2 0.20745668E-01 0.16501789E+03</pdfrwt>
<pdfrwt beam="2">  1       -2 0.26850460E-01 0.16501789E+03</pdfrwt>
<totfact> 0.32378003E+03</totfact>
</mgrwt>
</event>
<event>
 8    1  0.3407580E-004  0.2000525E+03  0.7546771E-02  0.1153202E+00
          2   -1    0    0  501    0  0.00000000000E+00  0.00000000000E+00  0.19277351527E+03  0.19277351527E+03  0.00000000000E+00 0. -1.
         -2   -1    0    0    0  501 -0.00000000000E+00 -0.00000000000E+00 -0.26021647741E+03  0.26021647741E+03  0.00000000000E+00 0.  1.
         25    2    1    2    0    0  0.14705391105E+03 -0.52638002893E+02 -0.15113247309E+03  0.25072298293E+03  0.12500151057E+03 0.  0.
         23    2    1    2    0    0 -0.14705391105E+03  0.52638002893E+02  0.83689510945E+02  0.20226700975E+03  0.97531517419E+02 0.  0.
          5    1    4    4  502    0 -0.52863952286E+02  0.54137054992E+02  0.76456083953E+02  0.10767098471E+03  0.47000000000E+01 0. -1.
         -5    1    4    4    0  502 -0.94189958761E+02 -0.14990520988E+01  0.72334269919E+01  0.94596025047E+02  0.47000000000E+01 0.  1.
          5    1    3    3  503    0  0.16252546194E+03 -0.24937824725E+02 -0.14217395994E+03  0.21742112539E+03  0.47000000000E+01 0. -1.
         -5    1    3    3    0  503 -0.15471550897E+02 -0.27700178168E+02 -0.89585131523E+01  0.33301857539E+02  0.47000000000E+01 0. -1.
<mgrwt>
<rscale>  0 0.19595020E+03</rscale>
<asrwt>0</asrwt>
<pdfrwt beam="1">  1        2 0.29657464E-01 0.20005247E+03</pdfrwt>
<pdfrwt beam="2">  1       -2 0.40033304E-01 0.20005247E+03</pdfrwt>
<totfact> 0.10509885E+03</totfact>
</mgrwt>
</event>
<event>
 8    1  0.3407580E-004  0.1332674E+03  0.7546771E-02  0.1234709E+00
          2   -1    0    0  501    0  0.00000000000E+00  0.00000000000E+00  0.29317187083E+03  0.29317187083E+03  0.00000000000E+00 0. -1.
         -2   -1    0    0    0  501 -0.00000000000E+00 -0.00000000000E+00 -0.48329922940E+02  0.48329922940E+02  0.00000000000E+00 0.  1.
         25    2    1    2    0    0  0.25217451883E+02 -0.38730095891E+02  0.12285792704E+03  0.18125744583E+03  0.12499700487E+03 0.  0.
         23    2    1    2    0    0 -0.25217451883E+02  0.38730095891E+02  0.12198402085E+03  0.16024434793E+03  0.93070991697E+02 0.  0.
          5    1    3    3  502    0 -0.23382773776E+02  0.22913825856E+02  0.90262203074E+02  0.96130915051E+02  0.47000000000E+01 0. -1.
         -5    1    3    3    0  502  0.48600225659E+02 -0.61643921747E+02  0.32595723967E+02  0.85126530784E+02  0.47000000000E+01 0. -1.
          5    1    4    4  503    0 -0.31789078488E+02  0.19399608790E+02  0.10940376664E+01  0.37552326835E+02  0.47000000000E+01 0.  1.
         -5    1    4    4    0  503  0.65716266056E+01  0.19330487101E+02  0.12088998318E+03  0.12269202110E+03  0.47000000000E+01 0. -1.
<mgrwt>
<rscale>  0 0.12523091E+03</rscale>
<asrwt>0</asrwt>
<pdfrwt beam="1">  1        2 0.45103364E-01 0.13326737E+03</pdfrwt>
<pdfrwt beam="2">  1       -2 0.74353729E-02 0.13326737E+03</pdfrwt>
<totfact> 0.11208591E+04</totfact>
</mgrwt>
</event>
<event>
 8    1  0.3407580E-004  0.1343095E+03  0.7546771E-02  0.1233783E+00
         -1   -1    0    0    0  501 -0.00000000000E+00  0.00000000000E+00  0.64038992845E+02  0.64038992845E+02  0.00000000000E+00 0.  1.
          1   -1    0    0  501    0  0.00000000000E+00 -0.00000000000E+00 -0.24224771167E+03  0.24224771167E+03  0.00000000000E+00 0. -1.
         25    2    1    2    0    0  0.40282379765E+02  0.28002167784E+02 -0.54317144742E+02  0.14487712704E+03  0.12502894947E+03 0.  0.
         23    2    1    2    0    0 -0.40282379765E+02 -0.28002167784E+02 -0.12389157408E+03  0.16140957747E+03  0.91088627457E+02 0.  0.
          5    1    4    4  502    0 -0.55743053039E+02 -0.46073091115E+02 -0.11430020630E+03  0.13533899973E+03  0.47000000000E+01 0. -1.
         -5    1    3    3    0  503 -0.42419584182E+02  0.58788234212E+01 -0.38320547631E+02  0.57658789943E+02  0.47000000000E+01 0.  1.
          5    1    3    3  503    0  0.82701963947E+02  0.22123344362E+02 -0.15996597111E+02  0.87218337095E+02  0.47000000000E+01 0.  1.
         -5    1    4    4    0  502  0.15460673274E+02  0.18070923331E+02 -0.95913677810E+01  0.26070577747E+02  0.47000000000E+01 0.  1.
<mgrwt>
<rscale>  0 0.12582671E+03</rscale>
<asrwt>0</asrwt>
<pdfrwt beam="1">  1        1 0.37268878E-01 0.13430946E+03</pdfrwt>
<pdfrwt beam="2">  1       -1 0.98521529E-02 0.13430946E+03</pdfrwt>
<totfact> 0.68162821E+03</totfact>
</mgrwt>
</event>
<event>
 8    1  0.3407580E-004  0.1448281E+03  0.7546771E-02  0.1216987E+00
          2   -1    0    0  501    0  0.00000000000E+00  0.00000000000E+00  0.12197039083E+04  0.12197039083E+04  0.00000000000E+00 0. -1.
         -2   -1    0    0    0  501 -0.00000000000E+00 -0.00000000000E+00 -0.20729997955E+02  0.20729997955E+02  0.00000000000E+00 0.  1.
         25    2    1    2    0    0 -0.56078127590E+02  0.46955621485E+02  0.29203738311E+03  0.32597701933E+03  0.12500238882E+03 0.  0.
         23    2    1    2    0    0  0.56078127590E+02 -0.46955621485E+02  0.90693652725E+03  0.91445688694E+03  0.91367099308E+02 0.  0.
          5    1    3    3  502    0 -0.15420780464E+01  0.41840550468E+02  0.25778021306E+03  0.26120057028E+03  0.47000000000E+01 0.  1.
         -5    1    3    3    0  502 -0.54536049544E+02  0.51150710171E+01  0.34257170049E+02  0.64776449047E+02  0.47000000000E+01 0.  1.
          5    1    4    4  503    0 -0.25158430105E+02 -0.13623691070E+02  0.20833508709E+03  0.21034293446E+03  0.47000000000E+01 0. -1.
         -5    1    4    4    0  503  0.81236557696E+02 -0.33331930414E+02  0.69860144016E+03  0.70411395248E+03  0.47000000000E+01 0.  1.
<mgrwt>
<rscale>  0 0.13731563E+03</rscale>
<asrwt>0</asrwt>
<pdfrwt beam="1">  1        2 0.18764670E+00 0.14482812E+03</pdfrwt>
<pdfrwt beam="2">  1       -2 0.31892314E-02 0.14482812E+03</pdfrwt>
<totfact> 0.73522772E+03</totfact>
</mgrwt>
</event>
<event>
 8    1  0.3407580E-004  0.1302799E+03  0.7546771E-02  0.1242203E+00
         -1   -1    0    0    0  501 -0.00000000000E+00  0.00000000000E+00  0.13089984327E+03  0.13089984327E+03  0.00000000000E+00 0.  1.
          1   -1    0    0  501    0  0.00000000000E+00 -0.00000000000E+00 -0.16035424807E+03  0.16035424807E+03  0.00000000000E+00 0. -1.
         25    2    1    2    0    0 -0.34782785891E+02 -0.11630816537E+02 -0.10672876404E+03  0.16841579752E+03  0.12501093430E+03 0.  0.
         23    2    1    2    0    0  0.34782785891E+02  0.11630816537E+02  0.77274359242E+02  0.12283829382E+03  0.88163494393E+02 0.  0.
          5    1    3    3  502    0  0.67678874655E+01 -0.34595978583E+02  0.14294526908E+02  0.38328964692E+02  0.47000000000E+01 0. -1.
         -5    1    4    4    0  503 -0.10500746205E+02  0.25129712189E+02  0.69404054293E+02  0.74704624073E+02  0.47000000000E+01 0.  1.
          5    1    4    4  503    0  0.45283532096E+02 -0.13498895652E+02  0.78703049492E+01  0.48133669743E+02  0.47000000000E+01 0. -1.
         -5    1    3    3    0  502 -0.41550673357E+02  0.22965162046E+02 -0.12102329095E+03  0.13008683283E+03  0.47000000000E+01 0. -1.
<mgrwt>
<rscale>  0 0.12054384E+03</rscale>
<asrwt>0</asrwt>
<pdfrwt beam="1">  1        1 0.24669884E-01 0.13027990E+03</pdfrwt>
<pdfrwt beam="2">  1       -1 0.20138437E-01 0.13027990E+03</pdfrwt>
<totfact> 0.37235763E+03</totfact>
</mgrwt>
</event>
<event>
 8    1  0.3407580E-004  0.1280704E+03  0.7546771E-02  0.1248704E+00
         -1   -1    0    0    0  501 -0.00000000000E+00  0.00000000000E+00  0.92855230093E+02  0.92855230093E+02  0.00000000000E+00 0.  1.
          1   -1    0    0  501    0  0.00000000000E+00 -0.00000000000E+00 -0.13549093886E+03  0.13549093886E+03  0.00000000000E+00 0. -1.
         25    2    1    2    0    0  0.16427389003E+02  0.22511939971E+02 -0.54842350842E+02  0.13931875535E+03  0.12500154237E+03 0.  0.
         23    2    1    2    0    0 -0.16427389003E+02 -0.22511939971E+02  0.12206642071E+02  0.89027413611E+02  0.83667387391E+02 0.  0.
          5    1    4    4  502    0  0.71335529504E+01  0.26220240361E+02 -0.11332989535E+02  0.29814681519E+02  0.47000000000E+01 0. -1.
         -5    1    3    3    0  503  0.28930108424E+02 -0.22138211311E+01  0.34696679632E+02  0.45473088249E+02  0.47000000000E+01 0.  1.
          5    1    3    3  503    0 -0.12502719420E+02  0.24725761102E+02 -0.89539030473E+02  0.93845667098E+02  0.47000000000E+01 0.  1.
         -5    1    4    4    0  502 -0.23560941954E+02 -0.48732180332E+02  0.23539631606E+02  0.59212732092E+02  0.47000000000E+01 0.  1.
<mgrwt>
<rscale>  0 0.11666411E+03</rscale>
<asrwt>0</asrwt>
<pdfrwt beam="1">  1        1 0.20844760E-01 0.12807042E+03</pdfrwt>
<pdfrwt beam="2">  1       -1 0.14285420E-01 0.12807042E+03</pdfrwt>
<totfact> 0.79141655E+03</totfact>
</mgrwt>
</event>
<event>
 8    1  0.3407580E-004  0.1280359E+03  0.7546771E-02  0.1245661E+00
          1   -1    0    0  501    0  0.00000000000E+00  0.00000000000E+00  0.50301857984E+03  0.50301857984E+03  0.00000000000E+00 0. -1.
         -1   -1    0    0    0  501 -0.00000000000E+00 -0.00000000000E+00 -0.29139776987E+02  0.29139776987E+02  0.00000000000E+00 0.  1.
         25    2    1    2    0    0 -0.28354939114E+01 -0.27572201547E+02  0.37316519105E+03  0.39451927932E+03  0.12499974248E+03 0.  0.
         23    2    1    2    0    0  0.28354939114E+01  0.27572201547E+02  0.10071361180E+03  0.13763907750E+03  0.89627103773E+02 0.  0.
          5    1    4    4  502    0  0.23467385901E+01 -0.25523902587E+02  0.73099047144E+02  0.77605009366E+02  0.47000000000E+01 0. -1.
         -5    1    4    4    0  502  0.48875532133E+00  0.53096104134E+02  0.27614564651E+02  0.60034068135E+02  0.47000000000E+01 0.  1.
          5    1    3    3  503    0  0.40871109340E+02 -0.52266263880E+02  0.12830048158E+03  0.14451751967E+03  0.47000000000E+01 0. -1.
         -5    1    3    3    0  503 -0.43706603251E+02  0.24694062333E+02  0.24486470947E+03  0.25000175965E+03  0.47000000000E+01 0. -1.
<mgrwt>
<rscale>  0 0.11845876E+03</rscale>
<asrwt>0</asrwt>
<pdfrwt beam="1">  1        1 0.77387468E-01 0.12803594E+03</pdfrwt>
<pdfrwt beam="2">  1       -1 0.44830430E-02 0.12803594E+03</pdfrwt>
<totfact> 0.88296241E+03</totfact>
</mgrwt>
</event>
<event>
 8    1  0.3407580E-004  0.1450244E+03  0.7546771E-02  0.1218080E+00
          2   -1    0    0  501    0  0.00000000000E+00  0.00000000000E+00  0.20749893929E+03  0.20749893929E+03  0.00000000000E+00 0. -1.
         -2   -1    0    0    0  501 -0.00000000000E+00 -0.00000000000E+00 -0.80828669701E+02  0.80828669701E+02  0.00000000000E+00 0.  1.
         25    2    1    2    0    0  0.71523619865E+02  0.17063056553E+02  0.67385138374E+02  0.15991507888E+03  0.12500119792E+03 0.  0.
         23    2    1    2    0    0 -0.71523619865E+02 -0.17063056553E+02  0.59285131217E+02  0.12841253011E+03  0.86995833284E+02 0.  0.
          5    1    3    3  502    0  0.28161052226E+02  0.61084430365E+02 -0.12555300527E+01  0.67439000965E+02  0.47000000000E+01 0.  1.
         -5    1    3    3    0  502  0.43362567639E+02 -0.44021373812E+02  0.68640668426E+02  0.92476077915E+02  0.47000000000E+01 0.  1.
          5    1    4    4  503    0 -0.47197440339E+02 -0.18692027536E+01  0.79791084824E+02  0.92842875391E+02  0.47000000000E+01 0. -1.
         -5    1    4    4    0  503 -0.24326179526E+02 -0.15193853799E+02 -0.20505953607E+02  0.35569654720E+02  0.47000000000E+01 0.  1.
<mgrwt>
<rscale>  0 0.13652728E+03</rscale>
<asrwt>0</asrwt>
<pdfrwt beam="1">  1        2 0.31922914E-01 0.14502440E+03</pdfrwt>
<pdfrwt beam="2">  1       -2 0.12435180E-01 0.14502440E+03</pdfrwt>
<totfact> 0.72814597E+03</totfact>
</mgrwt>
</event>
<event>
 8    1  0.3407580E-004  0.1477511E+03  0.7546771E-02  0.1212645E+00
          3   -1    0    0  501    0  0.00000000000E+00  0.00000000000E+00  0.11675217410E+03  0.11675217410E+03  0.00000000000E+00 0. -1.
         -3   -1    0    0    0  501 -0.00000000000E+00 -0.00000000000E+00 -0.17277751481E+03  0.17277751481E+03  0.00000000000E+00 0.  1.
         25    2    1    2    0    0  0.73309858506E+02  0.28826734403E+02  0.16374260580E+02  0.14865562461E+03  0.12500024939E+03 0.  0.
         23    2    1    2    0    0 -0.73309858506E+02 -0.28826734403E+02 -0.72399601290E+02  0.14087406430E+03  0.91643241729E+02 0.  0.
          5    1    4    4  502    0 -0.71919610950E+02 -0.62018471066E+01 -0.84110503571E+01  0.72826706055E+02  0.47000000000E+01 0. -1.
         -5    1    3    3    0  503  0.34618788678E+02  0.75221809291E+02  0.26821306879E+02  0.87167962149E+02  0.47000000000E+01 0. -1.
          5    1    3    3  503    0  0.38691069829E+02 -0.46395074888E+02 -0.10447046299E+02  0.61487662459E+02  0.47000000000E+01 0. -1.
         -5    1    4    4    0  502 -0.13902475563E+01 -0.22624887296E+02 -0.63988550933E+02  0.68047358244E+02  0.47000000000E+01 0.  1.
<mgrwt>
<rscale>  0 0.14050967E+03</rscale>
<asrwt>0</asrwt>
<pdfrwt beam="1">  1        3 0.17961873E-01 0.14775107E+03</pdfrwt>
<pdfrwt beam="2">  1       -3 0.26581156E-01 0.14775107E+03</pdfrwt>
<totfact> 0.85220078E+02</totfact>
</mgrwt>
</event>
<event>
 8    1  0.3407580E-004  0.1273570E+03  0.7546771E-02  0.1246094E+00
          2   -1    0    0  501    0  0.00000000000E+00  0.00000000000E+00  0.48472806721E+03  0.48472806721E+03  0.00000000000E+00 0. -1.
         -2   -1    0    0    0  501 -0.00000000000E+00 -0.00000000000E+00 -0.27623337800E+02  0.27623337800E+02  0.00000000000E+00 0.  1.
         25    2    1    2    0    0 -0.40089933446E+00 -0.24468350344E+02  0.33183868254E+03  0.35543875465E+03  0.12498374370E+03 0.  0.
         23    2    1    2    0    0  0.40089933446E+00  0.24468350344E+02  0.12526604687E+03  0.15691265036E+03  0.91275059326E+02 0.  0.
          5    1    3    3  502    0  0.29577119762E+02 -0.22851989569E+02  0.32095961561E+03  0.32316278296E+03  0.47000000000E+01 0. -1.
         -5    1    4    4    0  503  0.38542182177E+02 -0.10655842037E+02  0.38397389259E+02  0.55637184314E+02  0.47000000000E+01 0.  1.
          5    1    4    4  503    0 -0.38141282842E+02  0.35124192381E+02  0.86868657612E+02  0.10127546604E+03  0.47000000000E+01 0. -1.
         -5    1    3    3    0  502 -0.29978019096E+02 -0.16163607747E+01  0.10879066928E+02  0.32275971687E+02  0.47000000000E+01 0. -1.
<mgrwt>
<rscale>  0 0.11820163E+03</rscale>
<asrwt>0</asrwt>
<pdfrwt beam="1">  1        2 0.74573543E-01 0.12735697E+03</pdfrwt>
<pdfrwt beam="2">  1       -2 0.42497446E-02 0.12735697E+03</pdfrwt>
<totfact> 0.15195667E+04</totfact>
</mgrwt>
</event>
<event>
 8    1  0.3407580E-004  0.1276607E+03  0.7546771E-02  0.1245408E+00
         -1   -1    0    0    0  501 -0.00000000000E+00  0.00000000000E+00  0.60380790397E+02  0.60380790397E+02  0.00000000000E+00 0. -1.
          1   -1    0    0  501    0  0.00000000000E+00 -0.00000000000E+00 -0.25173506331E+03  0.25173506331E+03  0.00000000000E+00 0.  1.
         25    2    1    2    0    0 -0.24804927176E+02 -0.76769875539E+01 -0.17337280006E+03  0.21530299868E+03  0.12499213132E+03 0.  0.
         23    2    1    2    0    0  0.24804927176E+02  0.76769875539E+01 -0.17981472852E+02  0.96812855022E+02  0.91515982109E+02 0.  0.
          5    1    4    4  502    0 -0.37936366159E+01  0.34177485269E+02  0.21741439916E+02  0.40954516084E+02  0.47000000000E+01 0. -1.
         -5    1    4    4    0  502  0.28598563792E+02 -0.26500497715E+02 -0.39722912768E+02  0.55858338938E+02  0.47000000000E+01 0.  1.
          5    1    3    3  503    0 -0.53152575468E+02 -0.52188558441E+02 -0.98690520167E+02  0.12373661819E+03  0.47000000000E+01 0. -1.
         -5    1    3    3    0  503  0.28347648291E+02  0.44511570887E+02 -0.74682279891E+02  0.91566380491E+02  0.47000000000E+01 0. -1.
<mgrwt>
<rscale>  0 0.11860974E+03</rscale>
<asrwt>0</asrwt>
<pdfrwt beam="1">  1        1 0.38728471E-01 0.12766070E+03</pdfrwt>
<pdfrwt beam="2">  1       -1 0.92893525E-02 0.12766070E+03</pdfrwt>
<totfact> 0.70838574E+03</totfact>
</mgrwt>
</event>
<event>
 8    1  0.3407580E-004  0.1377054E+03  0.7546771E-02  0.1226117E+00
         -1   -1    0    0    0  501 -0.00000000000E+00  0.00000000000E+00  0.11220717385E+03  0.11220717385E+03  0.00000000000E+00 0.  1.
          1   -1    0    0  501    0  0.00000000000E+00 -0.00000000000E+00 -0.15959686475E+03  0.15959686475E+03  0.00000000000E+00 0. -1.
         25    2    1    2    0    0 -0.11386551689E+02 -0.56675458793E+02  0.22305832718E+02  0.13950024002E+03  0.12498402139E+03 0.  0.
         23    2    1    2    0    0  0.11386551689E+02  0.56675458793E+02 -0.69695523620E+02  0.13230379859E+03  0.96462779971E+02 0.  0.
          5    1    3    3  502    0 -0.38652231048E+02 -0.39374848447E+02  0.65239981356E+02  0.85572886025E+02  0.47000000000E+01 0.  1.
         -5    1    4    4    0  503  0.27527290574E+02  0.43673007604E+02  0.73720381008E+01  0.52359528887E+02  0.47000000000E+01 0.  1.
          5    1    4    4  503    0 -0.16140738884E+02  0.13002451189E+02 -0.77067561721E+02  0.79944269702E+02  0.47000000000E+01 0. -1.
         -5    1    3    3    0  502  0.27265679359E+02 -0.17300610347E+02 -0.42934148638E+02  0.53927353992E+02  0.47000000000E+01 0.  1.
<mgrwt>
<rscale>  0 0.13090639E+03</rscale>
<asrwt>0</asrwt>
<pdfrwt beam="1">  1        1 0.24553364E-01 0.13770536E+03</pdfrwt>
<pdfrwt beam="2">  1       -1 0.17262642E-01 0.13770536E+03</pdfrwt>
<totfact> 0.48043444E+03</totfact>
</mgrwt>
</event>
<event>
 8    1  0.3407580E-004  0.1345229E+03  0.7546771E-02  0.1232441E+00
          4   -1    0    0  501    0  0.00000000000E+00  0.00000000000E+00  0.55986888152E+02  0.55986888152E+02  0.00000000000E+00 0. -1.
         -4   -1    0    0    0  501 -0.00000000000E+00 -0.00000000000E+00 -0.36550377684E+03  0.36550377684E+03  0.00000000000E+00 0.  1.
         25    2    1    2    0    0 -0.40159301551E+02 -0.29294914736E+02 -0.28151311725E+03  0.31200327025E+03  0.12500177571E+03 0.  0.
         23    2    1    2    0    0  0.40159301551E+02  0.29294914736E+02 -0.28003771438E+02  0.10948739475E+03  0.93446866524E+02 0.  0.
          5    1    4    4  502    0  0.20603355957E+02 -0.26321958841E+01  0.32099124500E+02  0.38521040037E+02  0.47000000000E+01 0. -1.
         -5    1    3    3    0  503 -0.72056366150E+01 -0.46989763974E+02 -0.26758315981E+03  0.27181390055E+03  0.47000000000E+01 0.  1.
          5    1    3    3  503    0 -0.32953664936E+02  0.17694849237E+02 -0.13929957437E+02  0.40189369694E+02  0.47000000000E+01 0.  1.
         -5    1    4    4    0  502  0.19555945593E+02  0.31927110620E+02 -0.60102895937E+02  0.70966354709E+02  0.47000000000E+01 0.  1.
<mgrwt>
<rscale>  0 0.12669669E+03</rscale>
<asrwt>0</asrwt>
<pdfrwt beam="1">  1        4 0.86133676E-02 0.13452288E+03</pdfrwt>
<pdfrwt beam="2">  1       -4 0.56231349E-01 0.13452288E+03</pdfrwt>
<totfact> 0.49183377E+02</totfact>
</mgrwt>
</event>
<event>
 8    1  0.3407580E-004  0.1709434E+03  0.7546771E-02  0.1182981E+00
         -2   -1    0    0    0  501 -0.00000000000E+00  0.00000000000E+00  0.21355781444E+02  0.21355781444E+02  0.00000000000E+00 0.  1.
          2   -1    0    0  501    0  0.00000000000E+00 -0.00000000000E+00 -0.12143500859E+04  0.12143500859E+04  0.00000000000E+00 0. -1.
         25    2    1    2    0    0  0.10225783668E+03 -0.56058657995E+02 -0.56590809886E+03  0.59116292639E+03  0.12498956312E+03 0.  0.
         23    2    1    2    0    0 -0.10225783668E+03  0.56058657995E+02 -0.62708620559E+03  0.64454294095E+03  0.92732169067E+02 0.  0.
          5    1    4    4  502    0 -0.61531628750E+02 -0.18051633233E+02 -0.27167917752E+03  0.27918393273E+03  0.47000000000E+01 0. -1.
         -5    1    3    3    0  503  0.10108920170E+03 -0.29687200020E+02 -0.54992853020E+03  0.55994985032E+03  0.47000000000E+01 0. -1.
          5    1    3    3  503    0  0.11686349795E+01 -0.26371457974E+02 -0.15979568659E+02  0.31213076073E+02  0.47000000000E+01 0. -1.
         -5    1    4    4    0  502 -0.40726207934E+02  0.74110291227E+02 -0.35540702807E+03  0.36535900821E+03  0.47000000000E+01 0.  1.
<mgrwt>
<rscale>  0 0.16516940E+03</rscale>
<asrwt>0</asrwt>
<pdfrwt beam="1">  1        2 0.18682316E+00 0.17094335E+03</pdfrwt>
<pdfrwt beam="2">  1       -2 0.32855035E-02 0.17094335E+03</pdfrwt>
<totfact> 0.71291409E+03</totfact>
</mgrwt>
</event>
<event>
 8    1  0.3407580E-004  0.1256588E+03  0.7546771E-02  0.1249001E+00
          2   -1    0    0  501    0  0.00000000000E+00  0.00000000000E+00  0.18894010057E+03  0.18894010057E+03  0.00000000000E+00 0. -1.
         -2   -1    0    0    0  501 -0.00000000000E+00 -0.00000000000E+00 -0.65031227950E+02  0.65031227950E+02  0.00000000000E+00 0.  1.
         25    2    1    2    0    0 -0.19329188475E+01  0.12745237763E+02  0.92349329342E+02  0.15594398625E+03  0.12499580376E+03 0.  0.
         23    2    1    2    0    0  0.19329188475E+01 -0.12745237763E+02  0.31559543282E+02  0.98027342275E+02  0.91908529530E+02 0.  0.
          5    1    3    3  502    0 -0.54297837329E+02 -0.82787409906E+01  0.10030531458E+02  0.56031189996E+02  0.47000000000E+01 0.  1.
         -5    1    3    3    0  502  0.52364918482E+02  0.21023978754E+02  0.82318797884E+02  0.99912796254E+02  0.47000000000E+01 0.  1.
          5    1    4    4  503    0  0.31602314327E+02 -0.10066070958E+02  0.51813382986E+02  0.61698855028E+02  0.47000000000E+01 0. -1.
         -5    1    4    4    0  503 -0.29669395480E+02 -0.26791668048E+01 -0.20253839703E+02  0.36328487247E+02  0.47000000000E+01 0.  1.
<mgrwt>
<rscale>  0 0.11649068E+03</rscale>
<asrwt>0</asrwt>
<pdfrwt beam="1">  1        2 0.29067708E-01 0.12565878E+03</pdfrwt>
<pdfrwt beam="2">  1       -2 0.10004804E-01 0.12565878E+03</pdfrwt>
<totfact> 0.11254383E+04</totfact>
</mgrwt>
</event>
<event>
 8    1  0.3407580E-004  0.1275510E+03  0.7546771E-02  0.1244451E+00
         -2   -1    0    0    0  501 -0.00000000000E+00  0.00000000000E+00  0.23357928265E+02  0.23357928265E+02  0.00000000000E+00 0. -1.
          2   -1    0    0  501    0  0.00000000000E+00 -0.00000000000E+00 -0.63436353183E+03  0.63436353183E+03  0.00000000000E+00 0.  1.
         25    2    1    2    0    0 -0.25370339060E+02 -0.12314287016E+01 -0.46595700248E+03  0.48309955443E+03  0.12499632317E+03 0.  0.
         23    2    1    2    0    0  0.25370339060E+02  0.12314287016E+01 -0.14504860108E+03  0.17462190567E+03  0.93853837121E+02 0.  0.
          5    1    4    4  502    0 -0.13122952771E+02 -0.38568522821E+02 -0.51760924470E+02  0.66038065871E+02  0.47000000000E+01 0. -1.
         -5    1    3    3    0  503 -0.75437424321E+02 -0.59296775666E+00 -0.31680199158E+03  0.32569425612E+03  0.47000000000E+01 0.  1.
          5    1    3    3  503    0  0.50067085261E+02 -0.63846094499E+00 -0.14915501090E+03  0.15740529831E+03  0.47000000000E+01 0.  1.
         -5    1    4    4    0  502  0.38493291830E+02  0.39799951523E+02 -0.93287676614E+02  0.10858383980E+03  0.47000000000E+01 0.  1.
<mgrwt>
<rscale>  0 0.11918268E+03</rscale>
<asrwt>0</asrwt>
<pdfrwt beam="1">  1        2 0.97594381E-01 0.12755098E+03</pdfrwt>
<pdfrwt beam="2">  1       -2 0.35935277E-02 0.12755098E+03</pdfrwt>
<totfact> 0.14427555E+04</totfact>
</mgrwt>
</event>
<event>
 8    1  0.3407580E-004  0.1628200E+03  0.7546771E-02  0.1192633E+00
         -1   -1    0    0    0  501 -0.00000000000E+00  0.00000000000E+00  0.23157812186E+03  0.23157812186E+03  0.00000000000E+00 0.  1.
          1   -1    0    0  501    0  0.00000000000E+00 -0.00000000000E+00 -0.12302010919E+03  0.12302010919E+03  0.00000000000E+00 0. -1.
         25    2    1    2    0    0 -0.62801686214E+02 -0.83299484520E+02  0.13668608664E+03  0.21258747895E+03  0.12500997566E+03 0.  0.
         23    2    1    2    0    0  0.62801686214E+02  0.83299484520E+02 -0.28128073973E+02  0.14201075210E+03  0.92157524137E+02 0.  0.
          5    1    3    3  502    0  0.88128816819E+01 -0.33249848730E+02  0.11815474537E+03  0.12314971855E+03  0.47000000000E+01 0.  1.
         -5    1    3    3    0  502 -0.71614567896E+02 -0.50049635790E+02  0.18531341270E+02  0.89437760408E+02  0.47000000000E+01 0.  1.
          5    1    4    4  503    0 -0.16075771151E+02  0.36328023436E+02 -0.30104609101E+02  0.50065289313E+02  0.47000000000E+01 0. -1.
         -5    1    4    4    0  503  0.78877457365E+02  0.46971461085E+02  0.19765351281E+01  0.91945462791E+02  0.47000000000E+01 0.  1.
<mgrwt>
<rscale>  0 0.15656275E+03</rscale>
<asrwt>0</asrwt>
<pdfrwt beam="1">  1        1 0.18926171E-01 0.16281999E+03</pdfrwt>
<pdfrwt beam="2">  1       -1 0.35627403E-01 0.16281999E+03</pdfrwt>
<totfact> 0.20401717E+03</totfact>
</mgrwt>
</event>
<event>
 8    1  0.3407580E-004  0.1866085E+03  0.7546771E-02  0.1166706E+00
          2   -1    0    0  501    0  0.00000000000E+00  0.00000000000E+00  0.90432006614E+03  0.90432006614E+03  0.00000000000E+00 0. -1.
         -2   -1    0    0    0  501 -0.00000000000E+00 -0.00000000000E+00 -0.36124163185E+02  0.36124163185E+02  0.00000000000E+00 0.  1.
         25    2    1    2    0    0 -0.44449953509E+02  0.13123817978E+03  0.35333268302E+03  0.39958319900E+03  0.12499395917E+03 0.  0.
         23    2    1    2    0    0  0.44449953509E+02 -0.13123817978E+03  0.51486321993E+03  0.54086103033E+03  0.90814429964E+02 0.  0.
          5    1    4    4  502    0  0.47545692577E+02 -0.17314075835E+02  0.18398858177E+03  0.19087760038E+03  0.47000000000E+01 0. -1.
         -5    1    4    4    0  502 -0.30957390679E+01 -0.11392410395E+03  0.33087463816E+03  0.34998342995E+03  0.47000000000E+01 0.  1.
          5    1    3    3  503    0 -0.36911389922E+02  0.15542541658E+03  0.31741955772E+03  0.35538257758E+03  0.47000000000E+01 0. -1.
         -5    1    3    3    0  503 -0.75385635870E+01 -0.24187236793E+02  0.35913125303E+02  0.44200621418E+02  0.47000000000E+01 0. -1.
<mgrwt>
<rscale>  0 0.18113799E+03</rscale>
<asrwt>0</asrwt>
<pdfrwt beam="1">  1        2 0.13912615E+00 0.18660854E+03</pdfrwt>
<pdfrwt beam="2">  1       -2 0.55575643E-02 0.18660854E+03</pdfrwt>
<totfact> 0.49554461E+03</totfact>
</mgrwt>
</event>
<event>
 8    1  0.3407580E-004  0.1370692E+03  0.7546771E-02  0.1229307E+00
          2   -1    0    0  501    0  0.00000000000E+00  0.00000000000E+00  0.11713742466E+03  0.11713742466E+03  0.00000000000E+00 0. -1.
         -2   -1    0    0    0  501 -0.00000000000E+00 -0.00000000000E+00 -0.22305394330E+03  0.22305394330E+03  0.00000000000E+00 0.  1.
         25    2    1    2    0    0  0.38938516087E+01  0.56108059474E+02  0.54503296302E+02  0.14750791874E+03  0.12499880145E+03 0.  0.
         23    2    1    2    0    0 -0.38938516087E+01 -0.56108059474E+02 -0.16041981494E+03  0.19268344921E+03  0.90714487031E+02 0.  0.
          5    1    4    4  502    0 -0.43815190248E+01 -0.79243098019E+02 -0.99593945153E+02  0.12743512155E+03  0.47000000000E+01 0. -1.
         -5    1    4    4    0  502  0.48766741613E+00  0.23135038545E+02 -0.60825869787E+02  0.65248327667E+02  0.47000000000E+01 0.  1.
          5    1    3    3  503    0 -0.22167881917E+02  0.10149290659E+02 -0.35330784143E+02  0.43183068415E+02  0.47000000000E+01 0.  1.
         -5    1    3    3    0  503  0.26061733526E+02  0.45958768815E+02  0.89834080445E+02  0.10432485032E+03  0.47000000000E+01 0.  1.
<mgrwt>
<rscale>  0 0.12876027E+03</rscale>
<asrwt>0</asrwt>
<pdfrwt beam="1">  1        2 0.18021142E-01 0.13706924E+03</pdfrwt>
<pdfrwt beam="2">  1       -2 0.34315991E-01 0.13706924E+03</pdfrwt>
<totfact> 0.24179650E+03</totfact>
</mgrwt>
</event>
<event>
 8    1  0.3407580E-004  0.1257713E+03  0.7546771E-02  0.1249136E+00
         -3   -1    0    0    0  501 -0.00000000000E+00  0.00000000000E+00  0.62962533901E+02  0.62962533901E+02  0.00000000000E+00 0.  1.
          3   -1    0    0  501    0  0.00000000000E+00 -0.00000000000E+00 -0.30522358126E+03  0.30522358126E+03  0.00000000000E+00 0. -1.
         25    2    1    2    0    0  0.13454810495E+02  0.36738305927E+01 -0.19782888368E+02  0.12731767004E+03  0.12499558982E+03 0.  0.
         23    2    1    2    0    0 -0.13454810495E+02 -0.36738305927E+01 -0.22247815899E+03  0.24086844512E+03  0.91249918742E+02 0.  0.
          5    1    3    3  502    0  0.23524879839E+02  0.57066467649E+02  0.13592683841E+02  0.63378645894E+02  0.47000000000E+01 0.  1.
         -5    1    4    4    0  503  0.38201822421E+02  0.50183397103E+01 -0.78202380406E+02  0.87305585565E+02  0.47000000000E+01 0.  1.
          5    1    4    4  503    0 -0.51656632916E+02 -0.86921703029E+01 -0.14427577858E+03  0.15356285955E+03  0.47000000000E+01 0. -1.
         -5    1    3    3    0  502 -0.10070069344E+02 -0.53392637056E+02 -0.33375572208E+02  0.63939024145E+02  0.47000000000E+01 0.  1.
<mgrwt>
<rscale>  0 0.11641208E+03</rscale>
<asrwt>0</asrwt>
<pdfrwt beam="1">  1        3 0.46957474E-01 0.12577133E+03</pdfrwt>
<pdfrwt beam="2">  1       -3 0.96865437E-02 0.12577133E+03</pdfrwt>
<totfact> 0.80486921E+02</totfact>
</mgrwt>
</event>
<event>
 8    1  0.3407580E-004  0.1868656E+03  0.7546771E-02  0.1166564E+00
          2   -1    0    0  501    0  0.00000000000E+00  0.00000000000E+00  0.11253964864E+04  0.11253964864E+04  0.00000000000E+00 0. -1.
         -2   -1    0    0    0  501 -0.00000000000E+00 -0.00000000000E+00 -0.27858037550E+02  0.27858037550E+02  0.00000000000E+00 0.  1.
         25    2    1    2    0    0  0.12881959076E+03 -0.52017685715E+02  0.63850694230E+03  0.66528930172E+03  0.12497364930E+03 0.  0.
         23    2    1    2    0    0 -0.12881959076E+03  0.52017685715E+02  0.45903150655E+03  0.48796522223E+03  0.89998930615E+02 0.  0.
          5    1    3    3  502    0  0.14655646392E+02 -0.69452834082E+02  0.23066887610E+03  0.24138911437E+03  0.47000000000E+01 0. -1.
         -5    1    4    4    0  503 -0.11902891734E+03  0.23390043620E+02  0.26436317979E+03  0.29090369219E+03  0.47000000000E+01 0.  1.
          5    1    4    4  503    0 -0.97906734264E+01  0.28627642095E+02  0.19466832676E+03  0.19706153004E+03  0.47000000000E+01 0. -1.
         -5    1    3    3    0  502  0.11416394437E+03  0.17435148367E+02  0.40783806620E+03  0.42390018735E+03  0.47000000000E+01 0. -1.
<mgrwt>
<rscale>  0 0.18128674E+03</rscale>
<asrwt>0</asrwt>
<pdfrwt beam="1">  1        2 0.17313789E+00 0.18686557E+03</pdfrwt>
<pdfrwt beam="2">  1       -2 0.42858528E-02 0.18686557E+03</pdfrwt>
<totfact> 0.53996712E+03</totfact>
</mgrwt>
</event>
<event>
 8    1  0.3407580E-004  0.2217002E+03  0.7546771E-02  0.1135983E+00
         -2   -1    0    0    0  501 -0.00000000000E+00  0.00000000000E+00  0.89513103319E+02  0.89513103319E+02  0.00000000000E+00 0.  1.
          2   -1    0    0  501    0  0.00000000000E+00 -0.00000000000E+00 -0.50685850196E+03  0.50685850196E+03  0.00000000000E+00 0. -1.
         25    2    1    2    0    0 -0.54839526829E+02 -0.17469183135E+03 -0.21291282583E+03  0.30738065821E+03  0.12500555188E+03 0.  0.
         23    2    1    2    0    0  0.54839526829E+02  0.17469183135E+03 -0.20443257282E+03  0.28899094706E+03  0.90545463802E+02 0.  0.
          5    1    3    3  502    0  0.33423358507E+02 -0.62935187637E+02 -0.35253123116E+02  0.79641894918E+02  0.47000000000E+01 0.  1.
         -5    1    4    4    0  503  0.65316060993E+02  0.60131864452E+02 -0.82407845162E+02  0.12122364411E+03  0.47000000000E+01 0.  1.
          5    1    4    4  503    0 -0.10476534164E+02  0.11455996689E+03 -0.12202472765E+03  0.16776730296E+03  0.47000000000E+01 0. -1.
         -5    1    3    3    0  502 -0.88262885336E+02 -0.11175664371E+03 -0.17765970271E+03  0.22773876330E+03  0.47000000000E+01 0.  1.
<mgrwt>
<rscale>  0 0.21720593E+03</rscale>
<asrwt>0</asrwt>
<pdfrwt beam="1">  1        2 0.77978231E-01 0.22170024E+03</pdfrwt>
<pdfrwt beam="2">  1       -2 0.13771247E-01 0.22170024E+03</pdfrwt>
<totfact> 0.24002376E+03</totfact>
</mgrwt>
</event>
<event>
 8    1  0.3407580E-004  0.1586870E+03  0.7546771E-02  0.1197158E+00
         -1   -1    0    0    0  501 -0.00000000000E+00  0.00000000000E+00  0.14938055404E+02  0.14938055404E+02  0.00000000000E+00 0.  1.
          1   -1    0    0  501    0  0.00000000000E+00 -0.00000000000E+00 -0.14693673202E+04  0.14693673202E+04  0.00000000000E+00 0. -1.
         25    2    1    2    0    0 -0.86908371088E+02  0.44763169010E+02 -0.85540773094E+03  0.87000227536E+03  0.12499906681E+03 0.  0.
         23    2    1    2    0    0  0.86908371088E+02 -0.44763169010E+02 -0.59902153389E+03  0.61430310028E+03  0.94787629411E+02 0.  0.
          5    1    4    4  502    0  0.52049074060E+02 -0.32433455137E+02 -0.54621484629E+03  0.54966697502E+03  0.47000000000E+01 0. -1.
         -5    1    4    4    0  502  0.34859297029E+02 -0.12329713873E+02 -0.52806687599E+02  0.64636125261E+02  0.47000000000E+01 0.  1.
          5    1    3    3  503    0  0.31567453852E+02  0.94621676040E+00 -0.15038280156E+03  0.15373508537E+03  0.47000000000E+01 0. -1.
         -5    1    3    3    0  503 -0.11847582494E+03  0.43816952250E+02 -0.70502492938E+03  0.71626718999E+03  0.47000000000E+01 0. -1.
<mgrwt>
<rscale>  0 0.15272994E+03</rscale>
<asrwt>0</asrwt>
<pdfrwt beam="1">  1        1 0.22605650E+00 0.15868703E+03</pdfrwt>
<pdfrwt beam="2">  1       -1 0.22981625E-02 0.15868703E+03</pdfrwt>
<totfact> 0.41504624E+03</totfact>
</mgrwt>
</event>
<event>
 8    1  0.3407580E-004  0.1405036E+03  0.7546771E-02  0.1221194E+00
         -1   -1    0    0    0  501 -0.00000000000E+00  0.00000000000E+00  0.10747249425E+03  0.10747249425E+03  0.00000000000E+00 0.  1.
          1   -1    0    0  501    0  0.00000000000E+00 -0.00000000000E+00 -0.15730472733E+03  0.15730472733E+03  0.00000000000E+00 0. -1.
         25    2    1    2    0    0  0.18845275020E+02  0.61325400337E+02 -0.99439296581E+01  0.14085504371E+03  0.12500124993E+03 0.  0.
         23    2    1    2    0    0 -0.18845275020E+02 -0.61325400337E+02 -0.39888303424E+02  0.12392217786E+03  0.98232786274E+02 0.  0.
          5    1    4    4  502    0  0.33129718092E+02  0.34933404618E+01 -0.16558571908E+02  0.37497439273E+02  0.47000000000E+01 0. -1.
         -5    1    3    3    0  503 -0.11204167379E+02  0.26351808089E+02  0.54341191088E+02  0.61603621688E+02  0.47000000000E+01 0.  1.
          5    1    3    3  503    0  0.30049442399E+02  0.34973592248E+02 -0.64285120746E+02  0.79251422022E+02  0.47000000000E+01 0.  1.
         -5    1    4    4    0  502 -0.51974993112E+02 -0.64818740798E+02 -0.23329731515E+02  0.86424738589E+02  0.47000000000E+01 0.  1.
<mgrwt>
<rscale>  0 0.13431209E+03</rscale>
<asrwt>0</asrwt>
<pdfrwt beam="1">  1        1 0.24200727E-01 0.14050360E+03</pdfrwt>
<pdfrwt beam="2">  1       -1 0.16534230E-01 0.14050360E+03</pdfrwt>
<totfact> 0.52443726E+03</totfact>
</mgrwt>
</event>
